Title
42773
    1SAPS     N    1   2.652   4.034   7.279 -0.0580  0.3982  0.2901
    1SAPS   HN1    2   2.688   4.132   7.279  1.9436 -0.2197  2.9962
    1SAPS   HN2    3   2.701   3.979   7.205 -1.1665 -0.1654 -0.0409
    1SAPS   HN3    4   2.552   4.032   7.249  0.0428  0.3862 -0.0518
    1SAPS   C12    5   2.691   3.985   7.410 -0.1836 -0.6201  0.1539
    1SAPS  H12A    6   2.783   4.032   7.443 -0.5415  1.3430 -1.4603
    1SAPS   C13    7   2.586   4.010   7.519 -0.4103 -0.5309 -0.2294
    1SAPS  O13A    8   2.472   4.069   7.501  0.1258  0.8871  0.1279
    1SAPS  O13B    9   2.624   3.973   7.634  0.5914 -0.1946  0.4759
    1SAPS   C11   10   2.711   3.827   7.402  0.1498  0.1002 -0.6804
    1SAPS  H11A   11   2.612   3.783   7.375 -0.2091  0.3766  0.1349
    1SAPS  H11B   12   2.737   3.803   7.507  1.5051 -1.3850 -1.3115
    1SAPS     P   13   2.949   3.733   7.354 -0.0686 -0.1014 -0.4690
    1SAPS   O13   14   3.042   3.845   7.392 -0.4596  0.3783 -0.3497
    1SAPS   O14   15   2.924   3.634   7.460  0.0688  0.1698 -0.2985
    1SAPS   O12   16   2.812   3.793   7.312 -0.1104 -0.2076  0.5475
    1SAPS   O11   17   2.992   3.663   7.220 -0.0002  0.3176  0.2034
    1SAPS    C1   18   3.119   3.677   7.150  0.4937 -0.2999 -0.3913
    1SAPS    HA   19   3.202   3.726   7.206 -0.2691  1.0476 -0.4117
    1SAPS    HB   20   3.146   3.572   7.126 -2.4639 -1.3367  0.3355
    1SAPS    C2   21   3.104   3.742   7.015  0.3369  0.5396 -0.3706
    1SAPS    HS   22   3.061   3.845   7.022 -1.7466 -0.3706  1.2299
    1SAPS   O21   23   3.022   3.646   6.944  0.0161 -0.3812  0.0985
    1SAPS   C21   24   2.923   3.696   6.864 -0.1101 -0.2830 -0.5124
    1SAPS   O22   25   2.889   3.815   6.860 -0.0172  0.6284 -0.3857
    1SAPS   C22   26   2.862   3.584   6.788  0.1357 -0.0283 -0.6948
    1SAPS   H2R   27   2.946   3.516   6.761 -1.0361 -2.4169  1.2457
    1SAPS   H2S   28   2.797   3.531   6.860  1.0873 -0.3126 -0.0129
    1SAPS    C3   29   3.244   3.755   6.953  0.6278 -0.1265  0.0260
    1SAPS    HX   30   3.285   3.652   6.947 -0.5106 -0.5372 -1.3313
    1SAPS    HY   31   3.313   3.825   7.004  0.5927 -0.5738  0.6980
    1SAPS   O31   32   3.241   3.811   6.818 -0.5007  0.1348 -0.6856
    1SAPS   C31   33   3.273   3.732   6.714 -0.5300 -0.6348  0.3356
    1SAPS   O32   34   3.318   3.624   6.716 -0.6641  0.5614  0.1439
    1SAPS   C32   35   3.258   3.814   6.580  0.4780  0.2466 -0.0139
    1SAPS   H2X   36   3.314   3.910   6.585  0.3929  0.3593 -0.9435
    1SAPS   H2Y   37   3.151   3.839   6.569  0.3028 -0.1752  0.7022
    1SAPS   C23   38   2.779   3.626   6.671  0.5202  0.6731 -0.2996
    1SAPS   H3R   39   2.847   3.643   6.585 -1.2680  0.5188 -1.8039
    1SAPS   H3S   40   2.724   3.720   6.691  0.4388  0.6604 -0.4664
    1SAPS   C24   41   2.667   3.523   6.639  0.0128 -0.0286 -0.2371
    1SAPS   H4R   42   2.605   3.559   6.554 -1.2155 -2.9309 -0.7140
    1SAPS   H4S   43   2.598   3.525   6.726  0.2170 -0.2193 -0.0691
    1SAPS   C25   44   2.727   3.386   6.627  0.2689 -0.1739 -0.1764
    1SAPS   H5R   45   2.750   3.335   6.722 -0.7218 -3.3021 -1.4907
    1SAPS   C26   46   2.751   3.322   6.512 -0.3039 -0.7386 -0.3167
    1SAPS   H6R   47   2.790   3.219   6.520  0.5044 -0.3909  0.3369
    1SAPS   C27   48   2.741   3.377   6.371 -0.3856  0.2438  0.2554
    1SAPS   H7R   49   2.671   3.463   6.370  1.1697  1.5633  1.0834
    1SAPS   H7S   50   2.691   3.302   6.306 -0.6243  0.3361  0.3288
    1SAPS   C28   51   2.878   3.427   6.328 -0.3301 -0.1933  0.3428
    1SAPS   H8R   52   2.895   3.533   6.349 -0.2168 -0.2376  0.4771
    1SAPS   C29   53   2.960   3.356   6.253  0.2027  0.4120 -0.1377
    1SAPS   H9R   54   3.053   3.397   6.212 -0.5239  2.3626  0.0615
    1SAPS  C210   55   2.949   3.209   6.223 -0.1179  0.4955  0.1524
    1SAPS  H10R   56   2.860   3.160   6.268  0.1539  0.7238  0.9461
    1SAPS  H10S   57   3.034   3.161   6.275 -1.0744 -1.7232 -0.2351
    1SAPS  C211   58   2.965   3.172   6.081 -0.4562 -0.1525 -0.1494
    1SAPS  H11R   59   3.041   3.094   6.071  0.1735  0.7654 -3.6548
    1SAPS  C212   60   2.871   3.198   5.993  0.3128 -0.9209  0.1290
    1SAPS  H12R   61   2.900   3.169   5.891  1.9346 -3.9448  1.2998
    1SAPS  C213   62   2.746   3.283   5.996 -0.9387  0.1621 -0.1492
    1SAPS  H13R   63   2.701   3.273   6.097 -1.8307 -0.2791 -0.5779
    1SAPS  H13S   64   2.669   3.231   5.935  0.6139 -0.2301 -1.8870
    1SAPS  C214   65   2.750   3.431   5.969  0.7818  1.0273  0.4240
    1SAPS  H14R   66   2.750   3.495   6.059  2.0892 -1.1670  2.0627
    1SAPS  C215   67   2.735   3.486   5.849  0.1638  0.4360 -0.0966
    1SAPS  H15R   68   2.717   3.594   5.843  1.2531  0.8939  3.0453
    1SAPS  C216   69   2.705   3.415   5.721  0.1062  0.6608 -0.2401
    1SAPS  H16R   70   2.682   3.308   5.744 -0.7386  0.8331 -0.2508
    1SAPS  H16S   71   2.800   3.404   5.665 -0.4919  0.7757 -1.2968
    1SAPS  C217   72   2.591   3.468   5.629 -0.0525  0.2618 -0.0326
    1SAPS  H17R   73   2.614   3.571   5.593  1.3877 -0.5328 -1.5113
    1SAPS  H17S   74   2.497   3.478   5.688 -0.2748 -0.1313 -0.3187
    1SAPS  C218   75   2.561   3.387   5.498  0.4664  0.2659 -0.0724
    1SAPS  H18R   76   2.551   3.279   5.520  1.5685  0.3026  0.7108
    1SAPS  H18S   77   2.653   3.408   5.439  2.7356  0.0571  3.1001
    1SAPS  C219   78   2.437   3.432   5.431  0.1059 -0.0334  0.1946
    1SAPS  H19R   79   2.447   3.536   5.395  1.9102 -0.3951 -0.4670
    1SAPS  H19S   80   2.353   3.427   5.504  0.3291 -2.3193  0.3732
    1SAPS  C220   81   2.400   3.344   5.317  0.1105  0.4597 -1.0230
    1SAPS  H20R   82   2.362   3.243   5.345  0.5479  0.8507  1.1125
    1SAPS  H20S   83   2.484   3.347   5.244  1.2867  2.8633  0.3304
    1SAPS  H20T   84   2.307   3.381   5.269 -1.2438 -0.6858  0.5867
    1SAPS   C33   85   3.300   3.734   6.457  0.2707 -0.4121  0.0564
    1SAPS   H3X   86   3.236   3.644   6.446  2.2147 -1.8796  0.1539
    1SAPS   H3Y   87   3.404   3.695   6.458  0.4126 -0.0813 -0.7203
    1SAPS   C34   88   3.286   3.802   6.321  0.3308 -0.0651 -0.3753
    1SAPS   H4X   89   3.365   3.880   6.314  0.7449 -0.4983 -0.5801
    1SAPS   H4Y   90   3.186   3.849   6.318 -0.7404 -2.2378 -0.1672
    1SAPS   C35   91   3.295   3.699   6.218 -0.5366  0.9754  0.8609
    1SAPS   H5X   92   3.274   3.750   6.122 -0.2526 -0.1125  0.2086
    1SAPS   H5Y   93   3.212   3.625   6.224  0.1216  0.1239 -0.2385
    1SAPS   C36   94   3.425   3.622   6.202  0.4895  0.0476 -0.0429
    1SAPS   H6X   95   3.454   3.572   6.297  0.6942  0.2619  0.0106
    1SAPS   H6Y   96   3.511   3.687   6.173  0.1862  0.7799  0.6505
    1SAPS   C37   97   3.423   3.507   6.095 -0.2219  0.0201 -0.7908
    1SAPS   H7X   98   3.372   3.424   6.147 -0.6682  0.5280 -0.4122
    1SAPS   H7Y   99   3.525   3.468   6.075  0.3800  1.2649 -0.2668
    1SAPS   C38  100   3.373   3.540   5.962  0.5019 -0.0119 -0.2350
    1SAPS   H8X  101   3.434   3.603   5.894  0.0781 -0.4111 -1.0052
    1SAPS   H8Y  102   3.279   3.598   5.966  1.9953  2.6080 -0.6938
    1SAPS   C39  103   3.327   3.412   5.887 -0.2071  0.2675 -0.0953
    1SAPS   H9X  104   3.292   3.339   5.963 -1.2928  2.0855  1.2296
    1SAPS   H9Y  105   3.417   3.376   5.833 -0.1290 -1.5700  1.1778
    1SAPS  C310  106   3.210   3.429   5.791  0.2960  0.3428  0.4665
    1SAPS  H10X  107   3.258   3.477   5.703  0.4373  1.2954  1.0506
    1SAPS  H10Y  108   3.141   3.501   5.841  0.1481  0.2936  0.3367
    1SAPS  C311  109   3.155   3.292   5.749  0.3974 -0.2507  0.0587
    1SAPS  H11X  110   3.077   3.314   5.673  0.3167  2.4553  0.8195
    1SAPS  H11Y  111   3.113   3.238   5.837  0.3884  0.3144  0.4044
    1SAPS  C312  112   3.257   3.200   5.674 -0.4754 -0.0405 -0.3913
    1SAPS  H12X  113   3.336   3.190   5.753 -0.2921 -4.0196 -0.8889
    1SAPS  H12Y  114   3.309   3.250   5.589  2.9284 -1.7217  0.4941
    1SAPS  C313  115   3.191   3.074   5.610 -0.4964  0.0632 -0.9088
    1SAPS  H13X  116   3.120   3.119   5.538  0.0066  1.3527 -0.6243
    1SAPS  H13Y  117   3.142   3.009   5.685 -1.2564  2.0278  0.3692
    1SAPS  C314  118   3.279   2.986   5.517 -0.9857  0.7371  0.0593
    1SAPS  H14X  119   3.225   2.890   5.507  0.4302 -0.0949  0.2470
    1SAPS  H14Y  120   3.371   2.956   5.572 -0.0074  0.6040 -1.5748
    1SAPS  C315  121   3.307   3.047   5.379 -0.6128 -0.4067  0.2849
    1SAPS  H15X  122   3.353   3.146   5.395 -0.3197 -0.1352 -1.8886
    1SAPS  H15Y  123   3.208   3.057   5.329 -1.1746 -1.3492  1.1513
    1SAPS  C316  124   3.406   2.956   5.306  0.8566  0.0422  0.0125
    1SAPS  H16X  125   3.494   2.920   5.364  1.1538 -1.2845 -1.2016
    1SAPS  H16Y  126   3.445   3.015   5.220  1.5563 -2.2202 -1.3187
    1SAPS  C317  127   3.336   2.835   5.240  0.1619 -0.6077  0.0776
    1SAPS  H17X  128   3.230   2.860   5.218 -0.0802  0.5957  2.2940
    1SAPS  H17Y  129   3.323   2.752   5.313 -1.0134 -1.2017 -0.7611
    1SAPS  C318  130   3.405   2.775   5.123  0.0965  0.2123  0.4062
    1SAPS  H18X  131   3.501   2.723   5.141  1.4833  2.2069 -0.8510
    1SAPS  H18Y  132   3.439   2.849   5.048  0.5760  0.2884  0.6971
    1SAPS  H18Z  133   3.332   2.707   5.075  0.5343  0.3277 -0.4375
    2SAPS     N  134   5.560   4.710   7.571  0.1345 -1.0451  0.0249
    2SAPS   HN1  135   5.552   4.606   7.575  2.8848 -1.3726 -0.7849
    2SAPS   HN2  136   5.637   4.735   7.506  0.1860 -1.6816 -0.1681
    2SAPS   HN3  137   5.591   4.734   7.667 -2.4464 -1.0929  0.9436
    2SAPS   C12  138   5.427   4.777   7.552 -0.3523  0.5555  0.5399
    2SAPS  H12A  139   5.405   4.755   7.449  2.0321 -1.8367  0.4516
    2SAPS   C13  140   5.316   4.713   7.641 -0.3177  1.2954  0.5118
    2SAPS  O13A  141   5.357   4.641   7.739  0.3129 -0.4449 -0.8244
    2SAPS  O13B  142   5.213   4.782   7.659 -0.2305  0.1980  0.4936
    2SAPS   C11  143   5.435   4.937   7.557 -0.2922  0.3345  0.1753
    2SAPS  H11A  144   5.460   4.975   7.658  0.8128  0.9064 -0.3028
    2SAPS  H11B  145   5.336   4.985   7.538 -0.2859 -0.6078 -2.9263
    2SAPS     P  146   5.529   5.153   7.462  0.2662  0.0310 -0.2062
    2SAPS   O13  147   5.401   5.216   7.504  0.0959 -0.2662  0.4227
    2SAPS   O14  148   5.653   5.181   7.538  0.1431 -0.0893 -0.0502
    2SAPS   O12  149   5.528   4.992   7.457 -0.0080 -0.3461 -0.2271
    2SAPS   O11  150   5.547   5.201   7.317 -0.2638  0.0724  0.1057
    2SAPS    C1  151   5.612   5.116   7.220 -0.2557 -0.8069  0.1108
    2SAPS    HA  152   5.686   5.046   7.264  1.2221  1.1254  0.8500
    2SAPS    HB  153   5.531   5.061   7.169 -1.6420  2.6366 -1.7585
    2SAPS    C2  154   5.676   5.195   7.101 -0.0877 -0.3889 -0.2596
    2SAPS    HS  155   5.588   5.228   7.041 -0.7816  0.3976  1.1456
    2SAPS   O21  156   5.770   5.110   7.029  0.1150  0.3178 -0.1206
    2SAPS   C21  157   5.788   5.138   6.898 -0.1958  1.3465  0.0362
    2SAPS   O22  158   5.741   5.226   6.835 -0.0368 -0.2263  0.3505
    2SAPS   C22  159   5.884   5.030   6.838 -0.1248 -0.1179 -0.2373
    2SAPS   H2R  160   5.972   5.084   6.798 -1.2120  1.3327 -0.7832
    2SAPS   H2S  161   5.919   4.966   6.921  1.0502  2.3147  1.2377
    2SAPS    C3  162   5.757   5.321   7.158 -0.1815 -0.1118 -0.2318
    2SAPS    HX  163   5.855   5.288   7.199 -0.2736  1.3867  1.3029
    2SAPS    HY  164   5.704   5.354   7.250  0.8979 -0.2831  0.4698
    2SAPS   O31  165   5.784   5.427   7.065  0.1165 -0.3157  0.3708
    2SAPS   C31  166   5.683   5.503   7.026  0.1316  1.2010 -0.5909
    2SAPS   O32  167   5.573   5.493   7.069  0.0563 -0.4729 -0.1437
    2SAPS   C32  168   5.753   5.595   6.920 -0.5698 -0.2165  0.0861
    2SAPS   H2X  169   5.800   5.529   6.843 -0.3335  0.0864 -0.0319
    2SAPS   H2Y  170   5.838   5.637   6.978  0.4091  0.5594 -1.8444
    2SAPS   C23  171   5.821   4.935   6.727 -0.0560 -0.5013  0.1474
    2SAPS   H3R  172   5.717   4.910   6.755  0.3897 -2.4692  0.1833
    2SAPS   H3S  173   5.872   4.836   6.730  0.4274 -0.2610 -0.0035
    2SAPS   C24  174   5.831   4.983   6.580  0.9060 -0.1328  0.8711
    2SAPS   H4R  175   5.806   5.092   6.578  2.9201  0.3666 -0.9627
    2SAPS   H4S  176   5.758   4.928   6.518  2.2645 -2.5460  1.3075
    2SAPS   C25  177   5.980   4.982   6.535  0.6626  0.1598 -1.1004
    2SAPS   H5R  178   6.057   4.995   6.612 -2.3612  3.3888  1.6732
    2SAPS   C26  179   6.024   4.955   6.411 -0.2527  0.5444  0.7532
    2SAPS   H6R  180   6.132   4.954   6.390 -0.5535  0.4004 -0.9274
    2SAPS   C27  181   5.936   4.967   6.298  0.2501  0.3149  0.1538
    2SAPS   H7R  182   5.852   5.031   6.331  0.8052  0.3263  1.5976
    2SAPS   H7S  183   5.900   4.865   6.273 -0.0481  0.4033  0.2220
    2SAPS   C28  184   6.002   5.028   6.176 -0.0451 -0.1132  0.0382
    2SAPS   H8R  185   6.082   5.102   6.191  2.1275 -2.0810 -1.2343
    2SAPS   C29  186   5.964   5.001   6.051  0.1619 -0.0726  0.8182
    2SAPS   H9R  187   6.012   5.051   5.966 -0.1718 -1.0624  0.0344
    2SAPS  C210  188   5.854   4.899   6.010 -0.7925  0.0651 -0.2650
    2SAPS  H10R  189   5.764   4.892   6.075 -1.0464 -1.7916 -0.7471
    2SAPS  H10S  190   5.892   4.797   6.029 -1.1301 -0.3291 -1.5804
    2SAPS  C211  191   5.817   4.913   5.862 -0.0468 -0.4440  0.7601
    2SAPS  H11R  192   5.733   4.978   5.835 -0.2265 -1.0304 -0.1311
    2SAPS  C212  193   5.892   4.871   5.750  0.6685  0.1502 -0.3948
    2SAPS  H12R  194   5.858   4.889   5.647 -1.8437  2.0198  0.6634
    2SAPS  C213  195   6.030   4.809   5.768  1.0034  0.1885 -0.2748
    2SAPS  H13R  196   6.038   4.704   5.732 -1.0139  0.5467 -1.9652
    2SAPS  H13S  197   6.053   4.795   5.876  0.2936 -1.6569 -0.3187
    2SAPS  C214  198   6.136   4.893   5.706 -0.3053  0.3853 -0.8069
    2SAPS  H14R  199   6.145   4.994   5.750  0.4965  1.2385 -2.8173
    2SAPS  C215  200   6.216   4.871   5.601  0.0957  0.4146  0.3246
    2SAPS  H15R  201   6.300   4.935   5.570  2.8899 -1.5723  3.1683
    2SAPS  C216  202   6.228   4.745   5.508  0.4292  0.7904  0.5210
    2SAPS  H16R  203   6.156   4.672   5.550  0.6086 -0.1689 -0.7768
    2SAPS  H16S  204   6.332   4.706   5.515 -0.0879 -0.4269  1.9991
    2SAPS  C217  205   6.194   4.780   5.361  0.2705 -0.5539  0.2342
    2SAPS  H17R  206   6.088   4.813   5.355  0.6327  0.3979 -3.5045
    2SAPS  H17S  207   6.205   4.692   5.293  0.2121 -0.3163 -0.0833
    2SAPS  C218  208   6.283   4.897   5.303  0.3860 -0.1643 -0.5733
    2SAPS  H18R  209   6.392   4.874   5.306  0.6730  0.7894 -2.2861
    2SAPS  H18S  210   6.265   4.989   5.362  0.9099  0.1081 -0.8269
    2SAPS  C219  211   6.248   4.933   5.157 -0.5274 -0.1207  1.0820
    2SAPS  H19R  212   6.288   5.035   5.135  1.7092 -1.3184 -0.7612
    2SAPS  H19S  213   6.140   4.917   5.136 -0.0734 -1.7669 -0.1729
    2SAPS  C220  214   6.327   4.836   5.068  0.4455 -0.5793  0.0983
    2SAPS  H20R  215   6.422   4.887   5.040 -0.3602  0.7505 -0.3212
    2SAPS  H20S  216   6.267   4.812   4.977 -0.4176  0.6778  0.3179
    2SAPS  H20T  217   6.349   4.735   5.110 -0.6429 -0.3387  1.2969
    2SAPS   C33  218   5.663   5.695   6.850  0.6694  0.4241 -0.7269
    2SAPS   H3X  219   5.644   5.779   6.920 -0.6411  0.9761 -1.7125
    2SAPS   H3Y  220   5.565   5.646   6.832  0.9492  0.2858 -1.9291
    2SAPS   C34  221   5.742   5.754   6.727 -0.5559 -1.1702 -0.3778
    2SAPS   H4X  222   5.838   5.788   6.773 -1.0511  1.4380 -1.0768
    2SAPS   H4Y  223   5.683   5.843   6.695 -1.7809 -1.5270  0.8101
    2SAPS   C35  224   5.742   5.658   6.602  0.4451  0.5511  0.0250
    2SAPS   H5X  225   5.790   5.561   6.628  0.5903  0.2474 -1.3453
    2SAPS   H5Y  226   5.802   5.705   6.522 -0.8080 -0.6691 -1.6985
    2SAPS   C36  227   5.599   5.634   6.556 -0.1015 -0.9592  0.0016
    2SAPS   H6X  228   5.541   5.728   6.556  3.4960  1.4661  0.1530
    2SAPS   H6Y  229   5.564   5.558   6.628  2.7958 -1.1686  1.3305
    2SAPS   C37  230   5.585   5.573   6.418 -0.1505  0.4863 -0.6744
    2SAPS   H7X  231   5.480   5.538   6.406 -0.4866  2.2302 -4.2324
    2SAPS   H7Y  232   5.646   5.481   6.409  0.1114  0.3916  1.6754
    2SAPS   C38  233   5.604   5.684   6.306 -1.0715  0.6345 -0.0658
    2SAPS   H8X  234   5.710   5.716   6.312 -0.4951 -1.4239  2.6082
    2SAPS   H8Y  235   5.546   5.772   6.339 -0.0976  0.7853  1.3353
    2SAPS   C39  236   5.562   5.642   6.169  0.1495 -0.7604  0.0950
    2SAPS   H9X  237   5.456   5.608   6.180 -0.1905  0.8700  2.7328
    2SAPS   H9Y  238   5.618   5.552   6.135 -0.2095 -1.3716  1.0638
    2SAPS  C310  239   5.581   5.753   6.065  0.1066 -0.5946  0.4436
    2SAPS  H10X  240   5.666   5.823   6.075 -0.9145  0.9625 -1.1269
    2SAPS  H10Y  241   5.495   5.822   6.078  0.4217 -0.1768  0.3368
    2SAPS  C311  242   5.577   5.699   5.919 -0.2414 -0.1765 -0.3984
    2SAPS  H11X  243   5.498   5.622   5.921  0.4689 -0.9054  0.4773
    2SAPS  H11Y  244   5.675   5.646   5.913 -0.0019  0.2708 -0.4721
    2SAPS  C312  245   5.547   5.797   5.802  0.0904  0.0512 -0.1573
    2SAPS  H12X  246   5.620   5.881   5.808  0.7936 -0.6198  1.1650
    2SAPS  H12Y  247   5.442   5.832   5.792  0.9368  2.7031 -0.4774
    2SAPS  C313  248   5.564   5.720   5.672 -0.4620  0.1530  0.0749
    2SAPS  H13X  249   5.520   5.618   5.668 -0.9759  0.4074 -1.7989
    2SAPS  H13Y  250   5.671   5.691   5.663 -0.5184 -0.1647  0.3911
    2SAPS  C314  251   5.514   5.807   5.554 -0.3028 -0.1311  0.5574
    2SAPS  H14X  252   5.585   5.890   5.534  0.2780 -0.8032 -0.2729
    2SAPS  H14Y  253   5.414   5.849   5.577 -0.4244 -0.0610 -0.0857
    2SAPS  C315  254   5.515   5.734   5.426  0.5825 -0.6471 -0.0910
    2SAPS  H15X  255   5.440   5.653   5.426  1.2660 -1.2958 -0.2950
    2SAPS  H15Y  256   5.609   5.683   5.395  2.4296  2.1083  0.5292
    2SAPS  C316  257   5.480   5.833   5.310 -0.3076  0.3233  1.1192
    2SAPS  H16X  258   5.564   5.906   5.316  2.0728 -2.2056  0.3865
    2SAPS  H16Y  259   5.383   5.885   5.324  0.4797  2.1788  0.1434
    2SAPS  C317  260   5.472   5.769   5.170 -0.4680  0.2687 -0.3780
    2SAPS  H17X  261   5.375   5.719   5.150 -0.1989  0.3434 -1.9386
    2SAPS  H17Y  262   5.550   5.692   5.161 -0.3364  0.1509  1.3778
    2SAPS  C318  263   5.492   5.859   5.047  0.1209 -0.5162 -0.0647
    2SAPS  H18X  264   5.516   5.795   4.958  1.3900  1.9712 -1.6092
    2SAPS  H18Y  265   5.579   5.927   5.054 -0.2129 -0.0168 -0.6306
    2SAPS  H18Z  266   5.403   5.920   5.023 -0.0460 -0.6836  0.1209
    3SAPS     N  267   6.757   3.327   7.253  0.1199 -0.3241  0.1690
    3SAPS   HN1  268   6.766   3.294   7.155  1.0711  2.1752 -0.6427
    3SAPS   HN2  269   6.802   3.419   7.263  0.0078 -0.1680 -0.7438
    3SAPS   HN3  270   6.804   3.262   7.320 -1.3670  1.2290  2.9230
    3SAPS   C12  271   6.608   3.336   7.299 -0.5574 -0.2783  0.4333
    3SAPS  H12A  272   6.557   3.241   7.296  1.5252 -1.4414 -0.1623
    3SAPS   C13  273   6.596   3.385   7.445 -0.3706 -0.3352 -0.1596
    3SAPS  O13A  274   6.699   3.402   7.512 -0.3292  0.8482 -0.6591
    3SAPS  O13B  275   6.485   3.390   7.505  0.1372  0.1800 -0.2467
    3SAPS   C11  276   6.540   3.437   7.195  0.6234  0.5982 -0.6294
    3SAPS  H11A  277   6.433   3.435   7.222  0.3790  0.5548 -1.5635
    3SAPS  H11B  278   6.557   3.399   7.092 -0.2247  0.3757 -0.6869
    3SAPS     P  279   6.511   3.686   7.140  0.3172 -0.3044 -0.1223
    3SAPS   O13  280   6.430   3.725   7.259 -0.2873  0.0514  0.0459
    3SAPS   O14  281   6.596   3.788   7.086 -0.5569 -0.5106  0.4397
    3SAPS   O12  282   6.603   3.569   7.196  0.4786  0.1295 -0.4857
    3SAPS   O11  283   6.423   3.620   7.027  0.1008  0.6057 -0.0465
    3SAPS    C1  284   6.457   3.601   6.887  0.3576  0.1915  0.4790
    3SAPS    HA  285   6.566   3.593   6.867 -0.0785  0.0367 -2.1384
    3SAPS    HB  286   6.417   3.508   6.840  1.0222 -0.4815  1.1920
    3SAPS    C2  287   6.394   3.716   6.797  0.1484 -0.0277 -0.3625
    3SAPS    HS  288   6.398   3.681   6.692  1.6085 -0.3324 -0.2364
    3SAPS   O21  289   6.455   3.841   6.826  0.1880 -0.2334 -0.2632
    3SAPS   C21  290   6.552   3.869   6.748 -0.4021 -0.2021  0.6958
    3SAPS   O22  291   6.606   3.793   6.666  0.0724  0.2857 -0.1197
    3SAPS   C22  292   6.571   4.018   6.751  0.1055 -0.7551  0.3811
    3SAPS   H2R  293   6.466   4.054   6.756 -0.5863 -2.8042  2.2992
    3SAPS   H2S  294   6.625   4.031   6.847 -0.1839 -0.6777  0.5347
    3SAPS    C3  295   6.248   3.734   6.835  0.7629  0.3890  0.4177
    3SAPS    HX  296   6.233   3.783   6.934 -2.2177  1.2026 -0.3689
    3SAPS    HY  297   6.200   3.634   6.842 -2.4030  1.6591 -1.1931
    3SAPS   O31  298   6.178   3.795   6.728 -0.2280 -0.5742 -0.0790
    3SAPS   C31  299   6.133   3.913   6.756 -0.3533 -0.0545  0.1707
    3SAPS   O32  300   6.123   3.967   6.866  0.7989  0.2846  0.0128
    3SAPS   C32  301   6.096   3.986   6.620 -0.4249 -0.6585 -0.4219
    3SAPS   H2X  302   6.049   4.082   6.649  0.5466  0.0795 -1.2505
    3SAPS   H2Y  303   6.026   3.919   6.565 -0.6369 -0.4120 -0.4523
    3SAPS   C23  304   6.656   4.070   6.639 -0.7017 -0.5843  0.7665
    3SAPS   H3R  305   6.653   4.018   6.541 -0.3644 -1.0871  1.0160
    3SAPS   H3S  306   6.762   4.056   6.668 -0.4084 -2.2090 -0.9370
    3SAPS   C24  307   6.641   4.222   6.605 -0.9133 -0.1008 -0.0286
    3SAPS   H4R  308   6.655   4.280   6.699 -0.7280 -0.4150  0.1359
    3SAPS   H4S  309   6.534   4.231   6.575 -0.7950 -1.6290 -0.9976
    3SAPS   C25  310   6.733   4.262   6.492  0.3196 -0.5523 -0.5956
    3SAPS   H5R  311   6.835   4.275   6.533 -0.1612 -0.1477  0.4938
    3SAPS   C26  312   6.696   4.276   6.366 -0.1525  0.7558  0.6799
    3SAPS   H6R  313   6.778   4.287   6.294 -0.6649  0.7488  0.0813
    3SAPS   C27  314   6.556   4.264   6.310 -0.7845 -0.1486 -0.2980
    3SAPS   H7R  315   6.487   4.307   6.386 -0.9350  1.5443 -1.3386
    3SAPS   H7S  316   6.538   4.154   6.302  0.2258 -0.4607  1.3233
    3SAPS   C28  317   6.546   4.326   6.169  0.2732  0.0053 -0.2868
    3SAPS   H8R  318   6.491   4.421   6.162  0.5615  0.1464 -0.6221
    3SAPS   C29  319   6.613   4.286   6.062  0.2224  0.5605  0.4043
    3SAPS   H9R  320   6.586   4.328   5.964 -0.4406  0.8638  0.7143
    3SAPS  C210  321   6.702   4.165   6.048  0.0806 -0.3189  0.4419
    3SAPS  H10R  322   6.640   4.104   5.979 -1.2496  1.8822 -0.3889
    3SAPS  H10S  323   6.709   4.110   6.145  2.1597  1.2844  1.2877
    3SAPS  C211  324   6.837   4.201   5.983  0.1023 -0.2120  0.1034
    3SAPS  H11R  325   6.910   4.223   6.062 -0.9832 -1.4746  1.5360
    3SAPS  C212  326   6.865   4.218   5.856 -0.4738 -0.0863 -0.2364
    3SAPS  H12R  327   6.961   4.265   5.829 -0.2525  1.9095  3.2979
    3SAPS  C213  328   6.773   4.200   5.735  0.0749 -0.2121 -0.8294
    3SAPS  H13R  329   6.748   4.302   5.699  3.0305  1.0464  0.2927
    3SAPS  H13S  330   6.677   4.160   5.773  1.8148 -1.5931  2.5838
    3SAPS  C214  331   6.826   4.102   5.640 -0.6495  0.3252  0.4963
    3SAPS  H14R  332   6.869   4.006   5.671 -0.2620  1.0861  2.5290
    3SAPS  C215  333   6.824   4.116   5.510 -0.0591  0.2216  0.5435
    3SAPS  H15R  334   6.851   4.035   5.440  1.8101  0.0948  1.3723
    3SAPS  C216  335   6.782   4.232   5.430 -0.1835  0.0035  0.1624
    3SAPS  H16R  336   6.850   4.262   5.347 -1.4636  0.5293 -0.7415
    3SAPS  H16S  337   6.775   4.327   5.487 -0.8627  0.2054 -0.2350
    3SAPS  C217  338   6.639   4.203   5.377  0.1255  0.1151 -0.2828
    3SAPS  H17R  339   6.578   4.214   5.469  4.0666  3.2166  2.2964
    3SAPS  H17S  340   6.625   4.099   5.340 -0.9888 -0.7096  2.2210
    3SAPS  C218  341   6.588   4.305   5.277  0.3076 -0.1908 -0.0575
    3SAPS  H18R  342   6.479   4.298   5.262  0.2192  1.5368 -0.5059
    3SAPS  H18S  343   6.645   4.286   5.183  4.4353  1.0672  1.9145
    3SAPS  C219  344   6.604   4.449   5.318  0.0299 -0.3994  0.1267
    3SAPS  H19R  345   6.584   4.455   5.427  1.8293 -1.2041  0.5344
    3SAPS  H19S  346   6.711   4.477   5.321 -0.1761  0.9732 -2.4020
    3SAPS  C220  347   6.514   4.546   5.241 -0.2932  0.9743 -0.5355
    3SAPS  H20R  348   6.560   4.646   5.252  0.1671  0.8586 -1.3767
    3SAPS  H20S  349   6.408   4.559   5.272 -0.9860  1.1752 -2.8008
    3SAPS  H20T  350   6.519   4.530   5.131 -1.4905  1.5693 -0.6898
    3SAPS   C33  351   6.222   4.004   6.536 -0.5459  0.2566  0.4537
    3SAPS   H3X  352   6.269   3.904   6.523 -0.5334  0.2027  0.8954
    3SAPS   H3Y  353   6.282   4.057   6.612 -0.6660 -0.7029  1.2326
    3SAPS   C34  354   6.206   4.094   6.414 -0.1736  0.1929 -0.1375
    3SAPS   H4X  355   6.308   4.131   6.391  0.3084 -0.2325  1.2252
    3SAPS   H4Y  356   6.145   4.183   6.443  0.1424  0.5221 -0.4679
    3SAPS   C35  357   6.152   4.013   6.295 -0.1806  0.1049  0.2250
    3SAPS   H5X  358   6.216   3.927   6.264 -0.5994 -1.4456  3.2673
    3SAPS   H5Y  359   6.056   3.969   6.329 -1.6807  2.1501 -1.1157
    3SAPS   C36  360   6.125   4.099   6.175  0.4525  0.1263 -0.2129
    3SAPS   H6X  361   6.219   4.138   6.130  0.3954  2.9171  1.8577
    3SAPS   H6Y  362   6.069   4.185   6.216 -1.4420 -2.3555  2.7988
    3SAPS   C37  363   6.029   4.046   6.070  0.2927 -0.1756 -0.0433
    3SAPS   H7X  364   5.923   4.037   6.102 -0.0238 -2.6498 -1.5188
    3SAPS   H7Y  365   6.052   3.941   6.043  0.5276 -0.4817  1.2718
    3SAPS   C38  366   6.025   4.143   5.956  0.2979 -0.1734  0.9975
    3SAPS   H8X  367   6.113   4.129   5.890 -1.2856  2.2674 -1.8876
    3SAPS   H8Y  368   6.025   4.249   5.987 -1.4059  0.4669 -0.9801
    3SAPS   C39  369   5.901   4.121   5.864  0.0419 -0.5467 -1.0562
    3SAPS   H9X  370   5.908   4.197   5.783 -2.0033 -1.9418 -2.6464
    3SAPS   H9Y  371   5.818   4.152   5.932  2.1796 -0.4136  1.6552
    3SAPS  C310  372   5.877   3.979   5.819 -0.0605 -0.4684 -0.1081
    3SAPS  H10X  373   5.768   3.958   5.805  0.0158  0.3856 -2.5300
    3SAPS  H10Y  374   5.913   3.903   5.891 -0.8969  0.3907  1.2736
    3SAPS  C311  375   5.952   3.958   5.682 -0.6036  0.4464  0.2304
    3SAPS  H11X  376   5.932   3.851   5.660 -0.8696  0.7622 -1.1731
    3SAPS  H11Y  377   6.057   3.980   5.711 -0.4081 -1.1523  0.8672
    3SAPS  C312  378   5.899   4.044   5.565  0.0638 -0.3856 -0.0709
    3SAPS  H12X  379   5.960   4.031   5.474 -1.5792  0.9761 -1.4287
    3SAPS  H12Y  380   5.917   4.152   5.582 -1.1202 -0.4621  2.0654
    3SAPS  C313  381   5.761   4.003   5.514  0.4275 -0.7852  0.8269
    3SAPS  H13X  382   5.696   4.019   5.603  2.5700  0.3874  2.2828
    3SAPS  H13Y  383   5.767   3.897   5.482  1.5029 -0.3667 -0.4722
    3SAPS  C314  384   5.712   4.093   5.410 -0.2177 -0.8385 -0.3723
    3SAPS  H14X  385   5.732   4.197   5.443  0.6226 -1.2735  0.5458
    3SAPS  H14Y  386   5.602   4.081   5.398 -0.9127  1.8088  2.1759
    3SAPS  C315  387   5.780   4.066   5.280 -0.4523  0.0710  0.3690
    3SAPS  H15X  388   5.884   4.104   5.276  0.4608 -2.2199  0.7572
    3SAPS  H15Y  389   5.717   4.118   5.205 -1.9343  2.2098  2.9226
    3SAPS  C316  390   5.781   3.913   5.238  0.2180 -0.4019  0.3607
    3SAPS  H16X  391   5.680   3.883   5.203  0.7713 -0.3732 -1.4045
    3SAPS  H16Y  392   5.841   3.852   5.308 -0.5249 -0.1450  1.2293
    3SAPS  C317  393   5.860   3.901   5.102 -0.0397 -0.1629  0.2347
    3SAPS  H17X  394   5.795   3.934   5.018  2.4898  2.0239 -1.0228
    3SAPS  H17Y  395   5.869   3.792   5.081  1.8126  0.1072 -0.5813
    3SAPS  C318  396   5.997   3.980   5.076  0.4512 -0.1525  0.5875
    3SAPS  H18X  397   5.970   4.086   5.092 -1.3348 -0.4294 -0.3954
    3SAPS  H18Y  398   6.029   3.965   4.971 -1.0321 -1.8945  0.3320
    3SAPS  H18Z  399   6.073   3.952   5.152  0.5736 -2.2898 -0.2306
    4SAPS     N  400   0.448   1.726   7.330  0.6342  0.8871  0.6611
    4SAPS   HN1  401   0.431   1.652   7.400 -3.0145 -1.3110 -2.1373
    4SAPS   HN2  402   0.417   1.678   7.242  2.9400 -1.7541  1.1561
    4SAPS   HN3  403   0.547   1.755   7.320  0.8847 -0.2638 -0.6665
    4SAPS   C12  404   0.368   1.842   7.374 -0.5462  1.0497 -0.0041
    4SAPS  H12A  405   0.363   1.912   7.292 -0.7581  0.7315 -0.2681
    4SAPS   C13  406   0.218   1.807   7.417  0.4300 -0.0649 -0.0734
    4SAPS  O13A  407   0.176   1.690   7.380  0.1849 -0.0636  0.0130
    4SAPS  O13B  408   0.135   1.903   7.441  0.0326 -0.2867  0.6748
    4SAPS   C11  409   0.442   1.923   7.479 -0.0285  0.5129 -0.6431
    4SAPS  H11A  410   0.443   1.857   7.568  1.3212  0.4105 -0.7121
    4SAPS  H11B  411   0.388   2.018   7.501  0.9174  0.5287  1.9252
    4SAPS     P  412   0.643   2.067   7.389  0.0506 -0.0896  0.0201
    4SAPS   O13  413   0.658   2.161   7.504  0.6355  0.5159 -0.2457
    4SAPS   O14  414   0.762   2.031   7.309  0.1058 -0.1756 -0.0250
    4SAPS   O12  415   0.578   1.939   7.441  0.2339  0.1760  0.2604
    4SAPS   O11  416   0.526   2.126   7.298 -0.6282  0.1629  0.2579
    4SAPS    C1  417   0.513   2.066   7.160 -0.0197 -0.4526 -0.9514
    4SAPS    HA  418   0.533   1.958   7.145 -0.9774 -0.9906  1.2392
    4SAPS    HB  419   0.409   2.074   7.122 -0.6728 -2.2186  0.3163
    4SAPS    C2  420   0.587   2.151   7.050  0.1347 -0.5083  0.1287
    4SAPS    HS  421   0.688   2.188   7.080 -0.0632  1.6183 -1.6096
    4SAPS   O21  422   0.520   2.273   7.029 -0.0128  0.0478 -0.3898
    4SAPS   C21  423   0.598   2.375   6.988  0.0421 -0.1740 -0.0963
    4SAPS   O22  424   0.721   2.389   6.986  0.8589 -0.1653 -0.1200
    4SAPS   C22  425   0.510   2.488   6.940 -0.4441  0.2013  0.6396
    4SAPS   H2R  426   0.429   2.493   7.017 -0.6434 -0.8091  0.5055
    4SAPS   H2S  427   0.574   2.579   6.945  2.2838 -1.6608  3.0791
    4SAPS    C3  428   0.604   2.071   6.912 -0.4481 -0.0319 -0.3844
    4SAPS    HX  429   0.498   2.047   6.886 -1.0177  0.5655  1.3103
    4SAPS    HY  430   0.649   1.971   6.931 -3.2444 -1.8115 -2.2192
    4SAPS   O31  431   0.672   2.148   6.810 -0.2424  0.2698  0.0843
    4SAPS   C31  432   0.803   2.120   6.802 -0.0127  0.4113  0.6391
    4SAPS   O32  433   0.871   2.054   6.880  0.4677  0.2426 -0.5602
    4SAPS   C32  434   0.847   2.174   6.660 -0.0813  0.3467 -0.0317
    4SAPS   H2X  435   0.761   2.210   6.600 -1.3881 -4.2770 -1.3384
    4SAPS   H2Y  436   0.890   2.086   6.609 -0.9049 -1.1190  1.6875
    4SAPS   C23  437   0.439   2.459   6.807  0.4720  0.1656  0.5004
    4SAPS   H3R  438   0.384   2.554   6.788  0.9886  0.8884  2.3891
    4SAPS   H3S  439   0.361   2.381   6.823  1.3689 -0.2224  3.5388
    4SAPS   C24  440   0.536   2.416   6.697  0.3828  0.0027  0.3983
    4SAPS   H4R  441   0.587   2.319   6.714 -0.5302 -0.8893 -1.6446
    4SAPS   H4S  442   0.613   2.496   6.688  2.3318 -1.4625  2.7420
    4SAPS   C25  443   0.457   2.401   6.568  0.4119 -0.1103  0.0888
    4SAPS   H5R  444   0.381   2.322   6.562  1.6375 -1.3594  0.3234
    4SAPS   C26  445   0.464   2.466   6.452 -0.6023 -0.0756 -0.1447
    4SAPS   H6R  446   0.394   2.433   6.374 -0.3703 -0.3138 -0.2532
    4SAPS   C27  447   0.572   2.559   6.400 -0.0324  0.2903 -0.0470
    4SAPS   H7R  448   0.637   2.581   6.488  1.0704 -0.1707 -0.7190
    4SAPS   H7S  449   0.540   2.659   6.363  2.2301  1.0911  0.0090
    4SAPS   C28  450   0.664   2.476   6.315  0.5055 -1.0937 -0.4399
    4SAPS   H8R  451   0.741   2.412   6.360 -1.4552 -2.5917  0.9794
    4SAPS   C29  452   0.669   2.488   6.182  0.3353  0.2154 -0.4578
    4SAPS   H9R  453   0.744   2.420   6.139  1.9467 -0.5962  3.1798
    4SAPS  C210  454   0.585   2.569   6.093 -0.2916 -0.1652 -0.6063
    4SAPS  H10R  455   0.659   2.623   6.029  1.3462 -0.3587  1.0446
    4SAPS  H10S  456   0.529   2.638   6.159  1.1192 -0.7497  1.2922
    4SAPS  C211  457   0.501   2.486   6.003  0.1826 -0.5178 -0.7113
    4SAPS  H11R  458   0.466   2.396   6.056 -0.0394 -0.8206 -1.3653
    4SAPS  C212  459   0.477   2.505   5.874 -0.7363  0.0294 -0.7572
    4SAPS  H12R  460   0.430   2.422   5.818 -1.7917  1.0559 -1.4310
    4SAPS  C213  461   0.524   2.626   5.800 -0.0593 -0.3827 -0.5041
    4SAPS  H13R  462   0.608   2.582   5.741  2.7426  0.8177  2.3038
    4SAPS  H13S  463   0.561   2.711   5.861 -1.1181  1.2240 -1.9901
    4SAPS  C214  464   0.419   2.684   5.708  0.2641  0.1678 -0.5904
    4SAPS  H14R  465   0.331   2.706   5.771  0.2882 -2.6485  0.5815
    4SAPS  C215  466   0.424   2.699   5.577 -0.4448  0.6463 -0.3948
    4SAPS  H15R  467   0.329   2.716   5.525 -0.3806 -0.0323 -0.7541
    4SAPS  C216  468   0.544   2.674   5.490  0.0176 -0.2420  0.4631
    4SAPS  H16R  469   0.644   2.693   5.537  0.1798 -0.7773  0.3426
    4SAPS  H16S  470   0.543   2.734   5.396  1.4447 -0.1250  0.4913
    4SAPS  C217  471   0.543   2.525   5.446  0.3512 -0.8361 -0.0155
    4SAPS  H17R  472   0.538   2.462   5.537 -1.2343  0.7922  1.1091
    4SAPS  H17S  473   0.630   2.513   5.378  0.9196  2.2485 -0.0172
    4SAPS  C218  474   0.417   2.502   5.358 -0.4566  0.3122  0.0161
    4SAPS  H18R  475   0.320   2.532   5.402 -0.4949  0.3420 -0.0902
    4SAPS  H18S  476   0.411   2.392   5.348 -1.8942  0.1582  1.9163
    4SAPS  C219  477   0.428   2.556   5.218  0.2332  0.2918 -0.1580
    4SAPS  H19R  478   0.526   2.521   5.180  2.2716  2.7136  2.4575
    4SAPS  H19S  479   0.431   2.667   5.215  0.5454  0.2944  0.1791
    4SAPS  C220  480   0.310   2.529   5.126 -0.0520  0.2089  0.0444
    4SAPS  H20R  481   0.216   2.549   5.181  0.7264  2.0218  0.7621
    4SAPS  H20S  482   0.312   2.421   5.100  1.3595 -0.6428  3.2089
    4SAPS  H20T  483   0.322   2.591   5.035  1.6365 -0.7693 -0.4453
    4SAPS   C33  484   0.958   2.275   6.674 -0.2936  0.2741 -0.0118
    4SAPS   H3X  485   1.036   2.236   6.743  0.2077  1.4828  0.1289
    4SAPS   H3Y  486   0.918   2.372   6.710 -2.2510 -0.2130 -0.7175
    4SAPS   C34  487   1.019   2.302   6.538 -0.2054 -0.5665  0.0366
    4SAPS   H4X  488   1.076   2.397   6.550  0.2854 -0.5351 -2.1882
    4SAPS   H4Y  489   0.935   2.333   6.472  0.6322  0.8654 -0.4130
    4SAPS   C35  490   1.088   2.187   6.465  0.1261  0.2449 -0.0825
    4SAPS   H5X  491   1.084   2.108   6.543 -2.4622 -1.7898 -2.0814
    4SAPS   H5Y  492   1.194   2.209   6.442  0.2642 -0.5221 -0.1943
    4SAPS   C36  493   1.011   2.151   6.338 -0.6172 -0.3707 -0.4216
    4SAPS   H6X  494   0.902   2.137   6.356 -0.3622 -0.4911  1.1575
    4SAPS   H6Y  495   1.057   2.053   6.312  2.4019  1.0468 -0.7381
    4SAPS   C37  496   1.034   2.245   6.224 -0.0987  0.1277 -0.7299
    4SAPS   H7X  497   1.141   2.268   6.207 -0.5168  1.4954 -1.7221
    4SAPS   H7Y  498   0.979   2.338   6.252 -3.0273 -0.3366 -4.1278
    4SAPS   C38  499   0.973   2.173   6.094  0.3661 -0.0103 -0.2083
    4SAPS   H8X  500   0.875   2.127   6.116 -0.1043  1.5971  1.3322
    4SAPS   H8Y  501   1.042   2.093   6.062  0.2029 -0.5661  0.7884
    4SAPS   C39  502   0.967   2.275   5.985  0.0840 -0.2488 -0.0166
    4SAPS   H9X  503   1.075   2.299   5.977  0.3554 -1.1500  0.8077
    4SAPS   H9Y  504   0.918   2.370   6.017 -1.9986 -0.9627 -0.9256
    4SAPS  C310  505   0.934   2.219   5.845 -0.3417 -0.1417  0.5542
    4SAPS  H10X  506   0.828   2.186   5.847 -0.0528 -1.3800 -1.8365
    4SAPS  H10Y  507   0.999   2.135   5.811 -0.5085 -0.6846  1.5235
    4SAPS  C311  508   0.933   2.327   5.729 -0.4948 -0.0289 -0.2348
    4SAPS  H11X  509   1.025   2.390   5.727  1.2099 -2.3562  0.4367
    4SAPS  H11Y  510   0.844   2.390   5.746 -0.1138 -0.0535  2.1351
    4SAPS  C312  511   0.920   2.260   5.590  0.9118  0.3527  0.1443
    4SAPS  H12X  512   0.827   2.200   5.591  0.6744  0.6996 -0.4005
    4SAPS  H12Y  513   1.009   2.197   5.568  1.0507  1.0930 -1.5601
    4SAPS  C313  514   0.933   2.373   5.486 -0.0737 -0.1777 -0.0432
    4SAPS  H13X  515   1.031   2.426   5.485 -0.6425  0.8991 -0.1797
    4SAPS  H13Y  516   0.845   2.439   5.499  1.2082  1.3788  1.1996
    4SAPS  C314  517   0.897   2.326   5.343 -0.2121  0.8857  0.3405
    4SAPS  H14X  518   0.787   2.318   5.332 -0.0696 -1.7126  0.0626
    4SAPS  H14Y  519   0.931   2.223   5.317  0.3868  1.4019 -1.0247
    4SAPS  C315  520   0.961   2.421   5.230 -0.2578  0.1900 -0.4724
    4SAPS  H15X  521   1.063   2.379   5.221 -0.3283  0.1299 -1.0545
    4SAPS  H15Y  522   0.988   2.523   5.266  2.1044 -0.3838 -0.5135
    4SAPS  C316  523   0.880   2.424   5.100 -0.1397 -0.1947  0.0305
    4SAPS  H16X  524   0.780   2.470   5.110  0.7612  2.5966 -2.2317
    4SAPS  H16Y  525   0.875   2.318   5.069  2.1664 -0.4202  0.2385
    4SAPS  C317  526   0.949   2.509   4.988  0.3566 -0.3366  0.3498
    4SAPS  H17X  527   1.052   2.473   4.971  0.9454  1.1854  0.5625
    4SAPS  H17Y  528   0.954   2.615   5.022 -1.8830  0.4851 -1.5358
    4SAPS  C318  529   0.866   2.501   4.853  0.0595  0.6252  0.7644
    4SAPS  H18X  530   0.778   2.569   4.858  0.2895  1.0742 -0.6342
    4SAPS  H18Y  531   0.839   2.395   4.834 -1.5865  1.1974 -0.2924
    4SAPS  H18Z  532   0.925   2.537   4.766 -1.1584 -0.8389 -0.7309
    5SAPS     N  533   1.617   4.908   7.551  0.3966  0.1972 -0.6420
    5SAPS   HN1  534   1.647   4.809   7.545 -1.2284 -0.4782  1.2107
    5SAPS   HN2  535   1.545   4.902   7.626 -1.5112 -0.6315 -2.4296
    5SAPS   HN3  536   1.567   4.940   7.465 -0.0337 -2.2020 -1.3630
    5SAPS   C12  537   1.730   4.993   7.595 -0.7451  0.1786 -0.3030
    5SAPS  H12A  538   1.707   5.099   7.593 -3.5705 -0.3644 -0.0471
    5SAPS   C13  539   1.795   4.950   7.729  0.0992 -0.1257 -0.0860
    5SAPS  O13A  540   1.748   4.854   7.790 -0.6222 -0.1325  0.5697
    5SAPS  O13B  541   1.882   5.024   7.780  0.2831 -0.0260 -0.3866
    5SAPS   C11  542   1.843   4.997   7.478 -0.4993  0.6755  0.0578
    5SAPS  H11A  543   1.854   4.892   7.443 -0.2844  0.2406  1.3472
    5SAPS  H11B  544   1.941   5.026   7.521  0.4013 -2.1675  0.1510
    5SAPS     P  545   1.842   5.215   7.344  0.1057  0.7037 -0.1725
    5SAPS   O13  546   1.812   5.278   7.473 -0.2612 -0.1077 -0.2095
    5SAPS   O14  547   1.976   5.226   7.284 -0.7631 -0.2244  0.0501
    5SAPS   O12  548   1.801   5.069   7.366 -0.1417 -0.3036  0.3817
    5SAPS   O11  549   1.732   5.272   7.247 -0.1760  0.5243  0.5859
    5SAPS    C1  550   1.614   5.202   7.216  0.4797  0.0384  0.0808
    5SAPS    HA  551   1.572   5.159   7.310  2.5817 -0.9438  0.6156
    5SAPS    HB  552   1.548   5.276   7.165 -0.5580 -0.9328 -0.0335
    5SAPS    C2  553   1.647   5.088   7.117  0.5030  0.1174  0.1894
    5SAPS    HS  554   1.671   5.002   7.183 -1.7064 -0.0051  0.9186
    5SAPS   O21  555   1.740   5.131   7.018 -0.5890  0.0366  0.1137
    5SAPS   C21  556   1.819   5.036   6.986  0.0185  0.1117  0.1533
    5SAPS   O22  557   1.823   4.926   7.037 -0.3960  0.3870  0.1955
    5SAPS   C22  558   1.912   5.072   6.873  0.4082  0.4851  0.3420
    5SAPS   H2R  559   1.839   5.073   6.789  0.2207 -2.7457  0.3360
    5SAPS   H2S  560   1.944   5.175   6.900 -0.2138  0.1322  2.7357
    5SAPS    C3  561   1.512   5.031   7.055 -0.1947  0.4328 -0.0261
    5SAPS    HX  562   1.447   4.995   7.137  1.1326 -1.4177  0.2849
    5SAPS    HY  563   1.550   4.947   6.992 -0.1626  1.6194 -1.6497
    5SAPS   O31  564   1.453   5.133   6.973  0.8626  0.1368 -0.4272
    5SAPS   C31  565   1.370   5.084   6.890 -0.1746  0.5598  0.1720
    5SAPS   O32  566   1.335   4.966   6.889  0.0856  0.3596 -0.0970
    5SAPS   C32  567   1.324   5.192   6.792  0.1174 -0.0343 -0.3353
    5SAPS   H2X  568   1.417   5.234   6.747 -0.9828  1.6365 -1.1214
    5SAPS   H2Y  569   1.272   5.277   6.840 -1.0021 -0.3875 -0.8799
    5SAPS   C23  570   2.034   4.975   6.857 -0.3223  0.4519 -0.1453
    5SAPS   H3R  571   1.994   4.879   6.818  2.7957 -0.3191 -1.7498
    5SAPS   H3S  572   2.084   4.963   6.955  0.5738  1.6034 -0.4353
    5SAPS   C24  573   2.140   5.016   6.758 -0.1008  0.4675 -0.8208
    5SAPS   H4R  574   2.100   5.022   6.655 -2.2454 -0.2831 -0.0872
    5SAPS   H4S  575   2.225   4.946   6.758 -0.3444  0.1685 -0.8010
    5SAPS   C25  576   2.194   5.154   6.801  0.8700 -0.1213  0.8241
    5SAPS   H5R  577   2.245   5.159   6.898 -0.3085  0.8018  1.4283
    5SAPS   C26  578   2.170   5.267   6.726  0.6506 -0.6858 -0.9188
    5SAPS   H6R  579   2.191   5.365   6.773  1.4040 -1.3270  0.1598
    5SAPS   C27  580   2.113   5.265   6.584  0.1654  0.1355  0.3009
    5SAPS   H7R  581   2.086   5.370   6.558  0.0825 -0.0678 -0.4597
    5SAPS   H7S  582   2.022   5.201   6.581  0.2698 -0.0433  0.9081
    5SAPS   C28  583   2.214   5.210   6.493  0.0349  0.1851  0.3693
    5SAPS   H8R  584   2.303   5.171   6.545 -0.0228 -0.4953 -0.0387
    5SAPS   C29  585   2.210   5.206   6.364 -0.2437  0.2134  0.1348
    5SAPS   H9R  586   2.286   5.148   6.310  0.1162 -0.7802  1.6528
    5SAPS  C210  587   2.104   5.252   6.273  0.1147  0.2841 -0.5865
    5SAPS  H10R  588   2.150   5.280   6.175 -0.3279  1.3173 -0.5032
    5SAPS  H10S  589   2.077   5.355   6.302 -0.3579 -0.5899  2.3564
    5SAPS  C211  590   1.972   5.184   6.262 -0.6178 -0.4294  0.4217
    5SAPS  H11R  591   1.914   5.175   6.355 -0.3334  0.1191  0.6611
    5SAPS  C212  592   1.921   5.170   6.138 -0.3195  0.2858 -0.1130
    5SAPS  H12R  593   1.825   5.115   6.143 -0.6935  0.4898 -3.2131
    5SAPS  C213  594   1.982   5.177   6.002  0.3099 -0.3284 -0.5171
    5SAPS  H13R  595   1.987   5.074   5.961  1.4361  0.9315 -3.9601
    5SAPS  H13S  596   2.089   5.207   6.003  0.3932 -0.6165  0.7828
    5SAPS  C214  597   1.901   5.270   5.907 -0.0638  0.3227  0.3107
    5SAPS  H14R  598   1.837   5.343   5.958 -1.4647 -1.3117  0.9478
    5SAPS  C215  599   1.912   5.271   5.775  0.1502  0.2428 -0.1076
    5SAPS  H15R  600   1.834   5.331   5.725 -0.1042  0.2706  0.3126
    5SAPS  C216  601   2.000   5.191   5.689 -0.6211 -1.1380 -0.7105
    5SAPS  H16R  602   2.073   5.146   5.760  0.1056  1.0331  0.0035
    5SAPS  H16S  603   2.062   5.248   5.616  1.2231 -3.0784 -0.7444
    5SAPS  C217  604   1.933   5.099   5.602  0.2778 -0.3422  0.7556
    5SAPS  H17R  605   1.860   5.163   5.548  1.3409  0.2491 -0.0143
    5SAPS  H17S  606   1.880   5.019   5.658  0.0425 -0.5060  0.2987
    5SAPS  C218  607   2.032   5.034   5.503 -0.3025 -0.4981  0.0215
    5SAPS  H18R  608   2.053   4.931   5.537  0.4758 -0.0212  1.0324
    5SAPS  H18S  609   2.122   5.099   5.495 -0.9713  0.5138  0.3750
    5SAPS  C219  610   1.981   5.029   5.353 -0.9541  0.2232 -0.0728
    5SAPS  H19R  611   1.881   4.982   5.341 -0.2815 -0.4692 -4.4758
    5SAPS  H19S  612   2.049   4.966   5.293  1.6902 -0.9484  3.7864
    5SAPS  C220  613   1.974   5.169   5.292 -0.3774  0.6547 -0.0908
    5SAPS  H20R  614   2.075   5.204   5.323  0.9746 -2.0485 -1.1554
    5SAPS  H20S  615   1.907   5.250   5.327  0.2428  1.0144  0.2967
    5SAPS  H20T  616   1.980   5.168   5.181  1.5076 -0.6697 -0.0363
    5SAPS   C33  617   1.247   5.118   6.684  0.1154 -0.5964 -0.0220
    5SAPS   H3X  618   1.147   5.081   6.715  0.6696 -2.1442 -0.0190
    5SAPS   H3Y  619   1.299   5.027   6.647  0.5157 -0.1269 -0.6404
    5SAPS   C34  620   1.233   5.218   6.566 -0.5177  0.4465 -0.3674
    5SAPS   H4X  621   1.336   5.257   6.549 -1.0618  2.3980  0.4938
    5SAPS   H4Y  622   1.165   5.301   6.594 -1.0714 -0.4623  1.0691
    5SAPS   C35  623   1.197   5.145   6.439 -0.3848 -0.3928 -0.7065
    5SAPS   H5X  624   1.117   5.072   6.466 -2.7213  2.8277  2.1027
    5SAPS   H5Y  625   1.287   5.097   6.397 -0.3606 -0.4164 -0.6279
    5SAPS   C36  626   1.147   5.235   6.327 -0.1202  0.3209  0.3341
    5SAPS   H6X  627   1.231   5.294   6.285  1.3877 -1.8718  0.0998
    5SAPS   H6Y  628   1.068   5.306   6.361 -1.7853 -0.9812 -0.6461
    5SAPS   C37  629   1.084   5.164   6.202  0.1753 -0.3072  0.6595
    5SAPS   H7X  630   0.980   5.128   6.215 -0.2609 -0.3042 -2.0953
    5SAPS   H7Y  631   1.130   5.064   6.187  1.6372 -0.1299  3.3451
    5SAPS   C38  632   1.086   5.252   6.074 -0.7795 -0.3605  0.0755
    5SAPS   H8X  633   1.192   5.284   6.068 -0.0498 -2.4866  0.5212
    5SAPS   H8Y  634   1.020   5.338   6.098 -0.5732 -0.4621  1.0343
    5SAPS   C39  635   1.034   5.182   5.944 -0.3499 -0.3783 -0.2357
    5SAPS   H9X  636   0.931   5.159   5.978 -0.4107 -1.3692 -1.0442
    5SAPS   H9Y  637   1.075   5.081   5.921  0.6136 -0.3382  1.1830
    5SAPS  C310  638   1.056   5.274   5.829  0.0656 -1.3669 -0.6103
    5SAPS  H10X  639   1.150   5.329   5.850 -2.2389  3.0334 -0.6396
    5SAPS  H10Y  640   0.971   5.344   5.841 -0.6449 -2.2589 -0.3305
    5SAPS  C311  641   1.076   5.205   5.693 -0.1064 -0.4596  0.2256
    5SAPS  H11X  642   1.079   5.096   5.716 -1.3436 -0.8497 -1.2769
    5SAPS  H11Y  643   1.164   5.251   5.644 -1.6130  3.7035  0.9580
    5SAPS  C312  644   0.965   5.227   5.598 -0.0107  0.6503 -0.2548
    5SAPS  H12X  645   0.948   5.337   5.592  1.0094  0.8227 -0.1354
    5SAPS  H12Y  646   0.870   5.177   5.625  1.7401 -2.5210  0.4262
    5SAPS  C313  647   1.008   5.180   5.457  0.0927  0.9166 -0.0446
    5SAPS  H13X  648   0.994   5.070   5.446  0.2768  1.1165 -3.1344
    5SAPS  H13Y  649   1.116   5.199   5.439 -0.2505  0.9024 -2.4932
    5SAPS  C314  650   0.949   5.256   5.334 -0.1835  0.8664 -0.0133
    5SAPS  H14X  651   0.972   5.365   5.342  2.4137  0.4675 -1.3477
    5SAPS  H14Y  652   0.838   5.248   5.333 -0.0856 -0.6015 -0.0685
    5SAPS  C315  653   0.999   5.192   5.201 -0.5072  0.3277 -0.8140
    5SAPS  H15X  654   0.983   5.082   5.207 -1.3398  0.1977 -3.9914
    5SAPS  H15Y  655   1.102   5.221   5.169 -0.2548 -1.0659 -1.3045
    5SAPS  C316  656   0.913   5.240   5.082 -0.3573 -0.3620 -0.6651
    5SAPS  H16X  657   0.943   5.345   5.064  0.6808 -0.3276  1.0843
    5SAPS  H16Y  658   0.808   5.237   5.121 -0.7480  0.2774 -1.6285
    5SAPS  C317  659   0.927   5.154   4.953  0.1605 -0.3631 -0.0838
    5SAPS  H17X  660   0.891   5.049   4.959 -0.3550 -0.1865 -0.0160
    5SAPS  H17Y  661   1.036   5.147   4.936  0.3810  2.8109 -0.5990
    5SAPS  C318  662   0.845   5.216   4.839  0.1238  0.6085  0.2609
    5SAPS  H18X  663   0.862   5.157   4.747  2.7721 -1.3931  1.8835
    5SAPS  H18Y  664   0.883   5.321   4.833 -1.8132  1.4630  1.9260
    5SAPS  H18Z  665   0.740   5.214   4.875  0.9348  1.1129  2.8739
    6SAPS     N  666   4.897   4.596   7.519 -0.3275 -0.1112  0.7640
    6SAPS   HN1  667   4.946   4.644   7.441  0.1361  0.4889  1.4123
    6SAPS   HN2  668   4.817   4.540   7.484 -0.2180  1.5489 -2.4471
    6SAPS   HN3  669   4.862   4.671   7.582 -1.1595 -0.5658  0.8572
    6SAPS   C12  670   4.992   4.517   7.605 -0.2567  0.8636  0.6038
    6SAPS  H12A  671   5.062   4.590   7.644 -0.2755  1.1167  0.1787
    6SAPS   C13  672   4.930   4.446   7.730 -0.1193 -0.5572  0.2319
    6SAPS  O13A  673   4.809   4.460   7.760  0.6619  0.3251  0.1893
    6SAPS  O13B  674   5.014   4.400   7.813 -0.3348 -0.4614 -0.3609
    6SAPS   C11  675   5.064   4.407   7.514 -0.3998  0.0113  0.0873
    6SAPS  H11A  676   4.994   4.343   7.455 -0.7075  0.7593 -0.3614
    6SAPS  H11B  677   5.130   4.340   7.574  0.9417  2.2648  1.2722
    6SAPS     P  678   5.244   4.417   7.327  0.1262  0.1523 -0.0241
    6SAPS   O13  679   5.327   4.529   7.265 -0.2376  0.3029  0.5553
    6SAPS   O14  680   5.316   4.314   7.405 -0.2534  0.7466 -0.3886
    6SAPS   O12  681   5.147   4.490   7.430  0.0448  0.1214 -0.4875
    6SAPS   O11  682   5.153   4.353   7.220  0.0714 -1.0938  0.1551
    6SAPS    C1  683   5.062   4.441   7.149  0.7310 -0.6453 -0.2729
    6SAPS    HA  684   4.978   4.467   7.217 -0.0527  3.2984 -2.4605
    6SAPS    HB  685   5.114   4.533   7.116 -2.5355  2.5257  2.5979
    6SAPS    C2  686   5.004   4.384   7.015  0.2262 -0.3826 -0.0430
    6SAPS    HS  687   4.917   4.318   7.033  0.9657 -1.3990 -0.1076
    6SAPS   O21  688   5.106   4.314   6.944  0.4903  0.4032  0.6146
    6SAPS   C21  689   5.068   4.195   6.901 -0.4273  0.4879 -0.3612
    6SAPS   O22  690   4.974   4.132   6.942  0.1830 -0.1139 -0.0448
    6SAPS   C22  691   5.179   4.138   6.812 -0.1429  0.1102 -0.5675
    6SAPS   H2R  692   5.228   4.223   6.760  0.2920  0.2242  0.0270
    6SAPS   H2S  693   5.263   4.093   6.869 -0.4972  0.3372  0.1549
    6SAPS    C3  694   4.945   4.492   6.926  0.2741 -0.8160  0.0567
    6SAPS    HX  695   5.026   4.562   6.898 -1.7583  1.6689  0.0248
    6SAPS    HY  696   4.876   4.554   6.988 -0.6355  0.6478 -2.2889
    6SAPS   O31  697   4.886   4.448   6.803 -0.0091 -0.1147  0.3792
    6SAPS   C31  698   4.776   4.373   6.818  0.3129  0.1210 -0.1977
    6SAPS   O32  699   4.715   4.357   6.922  0.2828  0.1669  0.0247
    6SAPS   C32  700   4.745   4.312   6.677  0.0114 -0.0383 -0.4794
    6SAPS   H2X  701   4.834   4.333   6.615  0.6636 -5.0413 -1.6565
    6SAPS   H2Y  702   4.652   4.365   6.648  0.5640  0.5275 -1.2435
    6SAPS   C23  703   5.122   4.030   6.715 -0.5678 -0.0086  0.4525
    6SAPS   H3R  704   5.031   4.066   6.662 -0.7172  0.7647  1.2164
    6SAPS   H3S  705   5.098   3.938   6.772  2.7284 -2.6808 -2.0411
    6SAPS   C24  706   5.228   4.002   6.603 -0.6052  0.5629 -0.7139
    6SAPS   H4R  707   5.209   3.903   6.556  0.2282 -0.8697  1.7902
    6SAPS   H4S  708   5.328   4.006   6.651 -0.4076 -0.6658 -0.9823
    6SAPS   C25  709   5.234   4.110   6.499  0.0728  0.0939  0.9316
    6SAPS   H5R  710   5.321   4.175   6.514  1.5157 -1.2265 -1.1676
    6SAPS   C26  711   5.147   4.126   6.402  0.3154  0.2426  0.1636
    6SAPS   H6R  712   5.165   4.201   6.324 -0.5475 -1.3356 -1.6291
    6SAPS   C27  713   5.020   4.047   6.367 -0.2166  0.6330  0.9860
    6SAPS   H7R  714   4.932   4.113   6.352 -1.3046 -0.1699  3.3249
    6SAPS   H7S  715   4.995   3.988   6.458 -1.1405  1.0064  0.9782
    6SAPS   C28  716   5.033   3.955   6.244  0.6595  0.3480 -0.2945
    6SAPS   H8R  717   5.090   3.863   6.263 -0.2185 -0.2747 -0.5847
    6SAPS   C29  718   4.986   3.969   6.116 -0.2670 -0.1415  0.0195
    6SAPS   H9R  719   4.995   3.888   6.042 -0.9477 -1.0847  0.9422
    6SAPS  C210  720   4.906   4.087   6.065 -0.6239  1.0263 -0.0353
    6SAPS  H10R  721   4.922   4.089   5.955 -0.1317  0.2502  0.0177
    6SAPS  H10S  722   4.954   4.181   6.099  2.8806  0.2293 -2.2006
    6SAPS  C211  723   4.766   4.075   6.104 -0.0503 -0.4307  1.1482
    6SAPS  H11R  724   4.741   4.133   6.194  0.7814 -1.1199  1.8465
    6SAPS  C212  725   4.662   4.046   6.025  0.2877 -0.1433  0.1218
    6SAPS  H12R  726   4.562   4.030   6.068  1.3682 -1.4273  2.3441
    6SAPS  C213  727   4.659   4.010   5.882 -0.3394 -0.2711 -0.0435
    6SAPS  H13R  728   4.597   3.918   5.882  0.1360 -0.6038 -0.6091
    6SAPS  H13S  729   4.758   3.989   5.835 -0.0558  1.8766 -0.4959
    6SAPS  C214  730   4.602   4.131   5.806  0.5877 -0.1575  0.6042
    6SAPS  H14R  731   4.618   4.233   5.843 -0.0100 -0.9733  3.3496
    6SAPS  C215  732   4.500   4.117   5.721  0.6843 -0.0953  0.4143
    6SAPS  H15R  733   4.450   4.203   5.675 -2.4078 -1.2982  1.3126
    6SAPS  C216  734   4.449   3.986   5.662  0.3962  0.4701 -0.0225
    6SAPS  H16R  735   4.354   3.952   5.707  1.2973  0.2701  1.8121
    6SAPS  H16S  736   4.521   3.901   5.661  1.3281  1.2077 -2.2360
    6SAPS  C217  737   4.413   3.990   5.516  0.0805 -0.6807 -0.3456
    6SAPS  H17R  738   4.334   4.067   5.505  1.4017  0.7570 -0.2050
    6SAPS  H17S  739   4.380   3.892   5.477  0.2045 -1.1403  0.6715
    6SAPS  C218  740   4.525   4.056   5.425 -0.1781 -0.6845  0.1655
    6SAPS  H18R  741   4.627   4.036   5.465  0.1038 -3.0260 -1.4838
    6SAPS  H18S  742   4.513   4.165   5.442  1.9106 -0.7830  2.9811
    6SAPS  C219  743   4.519   4.017   5.277 -0.3060 -0.4512 -0.0997
    6SAPS  H19R  744   4.567   3.917   5.274 -0.4906 -0.5458  0.0870
    6SAPS  H19S  745   4.593   4.085   5.230 -1.8103  0.9554 -0.5207
    6SAPS  C220  746   4.378   4.036   5.217 -0.0043  0.4802 -0.1704
    6SAPS  H20R  747   4.372   4.018   5.108  0.9803  2.6449 -0.6276
    6SAPS  H20S  748   4.339   4.139   5.231  1.0429  0.7076  1.2865
    6SAPS  H20T  749   4.305   3.968   5.266 -0.7412  1.2080 -0.2438
    6SAPS   C33  750   4.709   4.157   6.686  0.4038 -0.2495 -0.3872
    6SAPS   H3X  751   4.628   4.137   6.759 -1.3292  0.8183 -1.9529
    6SAPS   H3Y  752   4.800   4.107   6.727  0.5344 -0.4252 -0.8903
    6SAPS   C34  753   4.664   4.113   6.545 -0.3977  0.9814  0.1969
    6SAPS   H4X  754   4.747   4.102   6.473 -0.3125 -0.5796  0.4965
    6SAPS   H4Y  755   4.598   4.194   6.507  0.1830  0.5556 -1.7899
    6SAPS   C35  756   4.587   3.980   6.554  0.1363  0.1099 -0.3178
    6SAPS   H5X  757   4.497   4.001   6.615  1.0908  1.1867  0.7846
    6SAPS   H5Y  758   4.650   3.903   6.605  1.1749  1.1501  0.0190
    6SAPS   C36  759   4.551   3.936   6.408  0.3775  0.6583  0.3103
    6SAPS   H6X  760   4.631   3.942   6.330  0.2725  1.6960  0.2622
    6SAPS   H6Y  761   4.466   4.001   6.381  0.3693 -0.0329 -1.4431
    6SAPS   C37  762   4.488   3.791   6.408  0.1470 -0.2753  0.1640
    6SAPS   H7X  763   4.392   3.799   6.462  0.5836  0.7912  0.8161
    6SAPS   H7Y  764   4.538   3.719   6.476 -1.1378 -0.1566  1.2661
    6SAPS   C38  765   4.461   3.753   6.267 -0.5099  0.8425  0.4100
    6SAPS   H8X  766   4.418   3.651   6.279  0.3959  0.2268 -1.2096
    6SAPS   H8Y  767   4.550   3.730   6.204 -3.2859  0.0004 -3.6221
    6SAPS   C39  768   4.368   3.845   6.189  0.0242 -0.5919 -0.1463
    6SAPS   H9X  769   4.416   3.941   6.161  0.5663 -0.0932  2.2683
    6SAPS   H9Y  770   4.300   3.877   6.271 -2.0126 -0.1645 -1.9358
    6SAPS  C310  771   4.287   3.785   6.077  0.5030  0.1429 -0.6970
    6SAPS  H10X  772   4.219   3.868   6.045  0.5949  0.0398 -1.1645
    6SAPS  H10Y  773   4.225   3.705   6.121  1.6570  0.0868  0.8942
    6SAPS  C311  774   4.358   3.727   5.954  0.0328 -0.3655  0.5185
    6SAPS  H11X  775   4.429   3.649   5.989  0.8312 -0.3206 -0.9095
    6SAPS  H11Y  776   4.422   3.808   5.913 -1.4478  0.7694  0.3773
    6SAPS  C312  777   4.266   3.665   5.854 -0.7058  0.2392 -0.0852
    6SAPS  H12X  778   4.218   3.755   5.811 -1.0669  1.1211  2.0403
    6SAPS  H12Y  779   4.204   3.584   5.897  2.5965 -2.5988 -0.1866
    6SAPS  C313  780   4.334   3.595   5.732  0.0197 -0.5830  0.1481
    6SAPS  H13X  781   4.374   3.494   5.752 -2.0243 -1.1241  1.9659
    6SAPS  H13Y  782   4.420   3.651   5.690  0.6887 -1.7041  0.0018
    6SAPS  C314  783   4.237   3.588   5.621 -0.6552 -0.2177  0.3188
    6SAPS  H14X  784   4.187   3.687   5.612 -1.5149 -0.4408  2.2418
    6SAPS  H14Y  785   4.152   3.519   5.635 -1.6643  0.1740 -3.0024
    6SAPS  C315  786   4.297   3.536   5.493  0.2364 -0.2115  0.1962
    6SAPS  H15X  787   4.324   3.430   5.515  0.2999  0.1684  2.1113
    6SAPS  H15Y  788   4.389   3.587   5.455  1.1963 -1.4373  0.7764
    6SAPS  C316  789   4.195   3.531   5.379 -0.1666 -0.1586 -0.2891
    6SAPS  H16X  790   4.101   3.502   5.431  0.6352 -0.1752  1.2038
    6SAPS  H16Y  791   4.223   3.443   5.317  0.4412  0.4570 -0.9163
    6SAPS  C317  792   4.190   3.656   5.291 -0.0442 -0.2688  0.1956
    6SAPS  H17X  793   4.289   3.663   5.241  0.1660  1.2246  0.7542
    6SAPS  H17Y  794   4.174   3.751   5.346  0.8705  0.9055 -1.4861
    6SAPS  C318  795   4.065   3.646   5.192 -1.6697 -0.5303  0.0640
    6SAPS  H18X  796   3.977   3.615   5.253  1.5224 -1.9827  4.3749
    6SAPS  H18Y  797   4.071   3.563   5.118 -1.4953 -0.5447  0.0944
    6SAPS  H18Z  798   4.052   3.738   5.131  0.8027  0.7528  1.3151
    7SAPS     N  799   4.242   0.283   7.437 -0.1181  0.1302 -0.1281
    7SAPS   HN1  800   4.213   0.331   7.349 -0.0897 -0.7506 -0.6377
    7SAPS   HN2  801   4.248   0.349   7.517 -1.3392 -0.6846  0.6655
    7SAPS   HN3  802   4.337   0.243   7.423 -0.7445 -1.1459 -0.9170
    7SAPS   C12  803   4.149   0.178   7.473  1.1359 -0.0298 -0.4410
    7SAPS  H12A  804   4.206   0.143   7.557  0.4216 -3.4618 -1.2266
    7SAPS   C13  805   4.003   0.224   7.506 -0.9170 -0.2755  0.7925
    7SAPS  O13A  806   3.982   0.353   7.511 -0.5630 -0.0322 -0.2920
    7SAPS  O13B  807   3.913   0.142   7.527 -0.7718  0.6729  0.5653
    7SAPS   C11  808   4.157   0.073   7.350  0.3534  0.5759 -0.4638
    7SAPS  H11A  809   4.089   0.106   7.269 -0.4678  0.3248  0.1119
    7SAPS  H11B  810   4.118  -0.020   7.398  0.1724  1.3777  0.9967
    7SAPS     P  811   4.316  -0.055   7.186 -0.1208 -0.5092  0.1018
    7SAPS   O13  812   4.458  -0.076   7.163 -0.5870 -0.5473  0.0336
    7SAPS   O14  813   4.244  -0.178   7.214 -0.1028 -0.1159 -0.7075
    7SAPS   O12  814   4.286   0.047   7.306 -0.3335  0.4519 -0.2491
    7SAPS   O11  815   4.254   0.025   7.065 -0.2362 -0.0925 -0.1211
    7SAPS    C1  816   4.318   0.129   6.993 -0.3746  0.6146  0.4265
    7SAPS    HA  817   4.273   0.230   7.006 -2.0032 -0.2175  1.5411
    7SAPS    HB  818   4.416   0.153   7.039  0.8154  0.6365 -1.9519
    7SAPS    C2  819   4.336   0.097   6.845  0.3294  0.3508  0.0125
    7SAPS    HS  820   4.398   0.177   6.799  1.6475  0.0454  1.1887
    7SAPS   O21  821   4.217   0.072   6.775 -0.0466 -0.5234  0.7963
    7SAPS   C21  822   4.164   0.190   6.736 -0.5816  1.1082 -0.0067
    7SAPS   O22  823   4.217   0.300   6.757 -0.2818 -0.0742 -0.0047
    7SAPS   C22  824   4.042   0.172   6.648 -0.4954  0.1824  0.0056
    7SAPS   H2R  825   4.004   0.068   6.650  4.4923 -2.0984 -3.7878
    7SAPS   H2S  826   3.966   0.248   6.676  0.1001  0.8548 -0.1882
    7SAPS    C3  827   4.421  -0.036   6.820  0.5218 -0.1186  0.7155
    7SAPS    HX  828   4.379  -0.127   6.867  0.4751 -1.3219 -1.5200
    7SAPS    HY  829   4.519  -0.022   6.870  1.2478  1.9251 -1.1327
    7SAPS   O31  830   4.450  -0.060   6.678 -0.1854 -0.3458 -0.1229
    7SAPS   C31  831   4.556  -0.131   6.641  0.2840  0.0037 -0.0579
    7SAPS   O32  832   4.636  -0.177   6.722  0.4433 -0.1233  0.3505
    7SAPS   C32  833   4.568  -0.127   6.489  0.3911  0.6828  0.4553
    7SAPS   H2X  834   4.529  -0.033   6.446  4.0668  2.0393 -0.2704
    7SAPS   H2Y  835   4.507  -0.212   6.451 -0.6020  0.9552  1.3766
    7SAPS   C23  836   4.090   0.198   6.507 -0.1488 -0.2186  0.2930
    7SAPS   H3R  837   4.140   0.297   6.497  1.7420 -1.0467  1.1061
    7SAPS   H3S  838   3.997   0.196   6.447 -0.4411  0.0059  0.7269
    7SAPS   C24  839   4.174   0.077   6.451  0.3182  0.4958 -0.5656
    7SAPS   H4R  840   4.116  -0.016   6.465  1.0326  0.3215  1.7330
    7SAPS   H4S  841   4.259   0.052   6.519  2.0234  0.1513 -2.7150
    7SAPS   C25  842   4.226   0.101   6.314  0.2611 -0.1528  0.5106
    7SAPS   H5R  843   4.301   0.180   6.303  0.1863 -0.2202 -0.6586
    7SAPS   C26  844   4.196   0.026   6.207  0.3987  0.8792 -0.0598
    7SAPS   H6R  845   4.240   0.054   6.110  0.5448  0.2915 -0.1637
    7SAPS   C27  846   4.112  -0.101   6.205 -0.8302 -1.0307 -0.2561
    7SAPS   H7R  847   4.134  -0.159   6.297 -0.1276 -0.9709 -0.3825
    7SAPS   H7S  848   4.161  -0.169   6.131  2.0189 -0.6381  1.1386
    7SAPS   C28  849   3.967  -0.088   6.173  0.1207 -0.0040  0.0100
    7SAPS   H8R  850   3.935  -0.019   6.094  1.9264 -0.4448 -1.1711
    7SAPS   C29  851   3.875  -0.171   6.231  0.0607 -0.6095 -0.4678
    7SAPS   H9R  852   3.770  -0.148   6.206  0.7140  0.3573 -2.5917
    7SAPS  C210  853   3.894  -0.276   6.341  0.7091  0.7889  0.0905
    7SAPS  H10R  854   4.002  -0.300   6.357  0.3114 -3.0934 -1.7992
    7SAPS  H10S  855   3.847  -0.369   6.303 -1.3245  1.4710  0.8021
    7SAPS  C211  856   3.819  -0.225   6.470  0.7929  0.1765  0.3456
    7SAPS  H11R  857   3.900  -0.212   6.543  1.8979  0.7360 -0.9105
    7SAPS  C212  858   3.685  -0.232   6.491 -0.1477 -0.4375  0.1577
    7SAPS  H12R  859   3.649  -0.213   6.593  0.2576  0.4213  0.1455
    7SAPS  C213  860   3.576  -0.265   6.391 -0.4513  0.0112  0.0874
    7SAPS  H13R  861   3.601  -0.336   6.308 -0.9455 -1.5103  1.1970
    7SAPS  H13S  862   3.541  -0.171   6.343 -2.3844 -1.0702 -0.7399
    7SAPS  C214  863   3.455  -0.324   6.458 -0.1704  0.4006 -0.5280
    7SAPS  H14R  864   3.476  -0.411   6.521  1.4477  0.3646 -1.0658
    7SAPS  C215  865   3.322  -0.276   6.443 -1.1199 -0.6776  0.2454
    7SAPS  H15R  866   3.242  -0.331   6.494 -0.7517 -2.6749 -1.1751
    7SAPS  C216  867   3.272  -0.157   6.364 -0.1363 -0.8949  0.5362
    7SAPS  H16R  868   3.358  -0.090   6.343  0.2006 -0.7413  2.2356
    7SAPS  H16S  869   3.210  -0.102   6.438 -0.1484  0.2284 -0.2847
    7SAPS  C217  870   3.215  -0.189   6.221  0.2219  0.0580  0.4867
    7SAPS  H17R  871   3.167  -0.098   6.178 -0.5047 -0.1351  0.8666
    7SAPS  H17S  872   3.134  -0.264   6.232  0.8403 -1.0603 -1.8664
    7SAPS  C218  873   3.320  -0.238   6.119  0.3140  0.0699  0.0242
    7SAPS  H18R  874   3.396  -0.300   6.171  0.2173  1.1409  1.5157
    7SAPS  H18S  875   3.375  -0.144   6.094 -0.7851  0.2427 -1.9482
    7SAPS  C219  876   3.267  -0.306   5.995  0.0008 -0.5909 -0.8501
    7SAPS  H19R  877   3.208  -0.230   5.939 -0.2202  1.2807  1.7529
    7SAPS  H19S  878   3.198  -0.388   6.020 -1.6366  1.0386  0.1907
    7SAPS  C220  879   3.395  -0.362   5.920 -0.6042 -0.0557 -0.5349
    7SAPS  H20R  880   3.439  -0.453   5.965 -1.1056 -0.1368 -0.2094
    7SAPS  H20S  881   3.475  -0.285   5.926 -0.2209 -0.2157 -2.7353
    7SAPS  H20T  882   3.373  -0.368   5.811  2.9887  0.4184 -1.4096
    7SAPS   C33  883   4.711  -0.139   6.442 -0.1858 -0.3327 -0.2783
    7SAPS   H3X  884   4.757  -0.232   6.481 -0.4371 -0.0981  0.6013
    7SAPS   H3Y  885   4.772  -0.053   6.477 -0.5445 -0.0956 -0.2205
    7SAPS   C34  886   4.721  -0.128   6.287 -0.5562 -0.4040 -0.3414
    7SAPS   H4X  887   4.820  -0.172   6.265 -0.3222  0.0585 -0.2180
    7SAPS   H4Y  888   4.728  -0.022   6.256  4.7998 -0.6263 -0.7375
    7SAPS   C35  889   4.614  -0.206   6.204  0.4756 -0.0677  0.7429
    7SAPS   H5X  890   4.519  -0.156   6.229  1.4693  0.7794  3.1314
    7SAPS   H5Y  891   4.595  -0.308   6.245  0.9742 -1.3808 -2.0547
    7SAPS   C36  892   4.636  -0.203   6.054  0.1376 -0.0016 -0.3910
    7SAPS   H6X  893   4.580  -0.289   6.011 -1.9980  1.2637 -0.2658
    7SAPS   H6Y  894   4.742  -0.230   6.037 -0.4091 -0.5740 -3.3805
    7SAPS   C37  895   4.584  -0.079   5.980 -0.0518  0.1332  0.7283
    7SAPS   H7X  896   4.647   0.012   5.993 -2.6861  2.0418  1.0366
    7SAPS   H7Y  897   4.484  -0.052   6.022 -0.7268 -2.7595  1.1769
    7SAPS   C38  898   4.570  -0.104   5.829 -1.2124 -0.4381  0.6749
    7SAPS   H8X  899   4.666  -0.141   5.786 -1.7045 -0.5724 -0.3386
    7SAPS   H8Y  900   4.551  -0.007   5.780  0.0119 -1.2130 -1.4784
    7SAPS   C39  901   4.460  -0.210   5.783 -0.0098  0.2902  0.5632
    7SAPS   H9X  902   4.474  -0.317   5.812 -4.7575 -0.4270  1.0268
    7SAPS   H9Y  903   4.466  -0.206   5.672  0.3523  5.4113  0.5447
    7SAPS  C310  904   4.318  -0.175   5.825  0.8902 -0.3553 -0.3031
    7SAPS  H10X  905   4.319  -0.199   5.934  0.8187 -1.2657 -0.4985
    7SAPS  H10Y  906   4.249  -0.246   5.776  0.0138 -0.4051  0.9664
    7SAPS  C311  907   4.263  -0.034   5.785  0.1734  0.4086 -0.1322
    7SAPS  H11X  908   4.287  -0.021   5.677 -3.2857 -1.5094 -1.2986
    7SAPS  H11Y  909   4.327   0.035   5.844  0.4195 -0.3331  0.4872
    7SAPS  C312  910   4.111  -0.014   5.804  0.0975  0.1155 -0.1812
    7SAPS  H12X  911   4.083  -0.056   5.903 -1.8120  1.8820  0.1024
    7SAPS  H12Y  912   4.041  -0.068   5.737  1.8555 -0.2251 -1.8050
    7SAPS  C313  913   4.074   0.132   5.821 -0.3737  0.4624 -0.1849
    7SAPS  H13X  914   4.143   0.167   5.902 -2.8463 -0.4950  2.5293
    7SAPS  H13Y  915   3.970   0.152   5.855  0.2267  0.3525  1.8834
    7SAPS  C314  916   4.105   0.227   5.707 -0.0709  0.8434  0.4208
    7SAPS  H14X  917   4.199   0.220   5.648 -0.5535  1.6015 -0.4811
    7SAPS  H14Y  918   4.090   0.329   5.749 -2.3711  1.4888 -1.7329
    7SAPS  C315  919   3.989   0.217   5.596 -0.5839  0.1511 -1.0048
    7SAPS  H15X  920   3.893   0.198   5.647  1.5516 -0.7553  3.1305
    7SAPS  H15Y  921   4.024   0.135   5.530 -1.3234 -0.5148 -0.5814
    7SAPS  C316  922   3.996   0.329   5.498 -0.2070 -0.2403  0.0323
    7SAPS  H16X  923   4.102   0.344   5.466 -0.2309 -0.0616  0.0347
    7SAPS  H16Y  924   3.962   0.426   5.540 -1.4747 -0.8786  0.5255
    7SAPS  C317  925   3.915   0.304   5.372  0.4833  0.2744 -0.1162
    7SAPS  H17X  926   3.966   0.226   5.312  1.0103 -0.2307  0.9553
    7SAPS  H17Y  927   3.919   0.391   5.303 -0.1689  0.7120  0.3782
    7SAPS  C318  928   3.769   0.266   5.387 -0.4306  0.0115 -0.8288
    7SAPS  H18X  929   3.764   0.172   5.446  2.0576 -1.1807 -2.3388
    7SAPS  H18Y  930   3.705   0.257   5.297 -1.6639 -1.4614  0.1612
    7SAPS  H18Z  931   3.714   0.348   5.438 -1.7073 -1.3094 -0.0245
    8SAPS     N  932   5.485   2.290   7.435  0.1968  0.3288 -0.3784
    8SAPS   HN1  933   5.442   2.244   7.352 -0.1462 -1.0059  0.5085
    8SAPS   HN2  934   5.424   2.363   7.476  2.6558  1.1269  2.1635
    8SAPS   HN3  935   5.570   2.341   7.401 -1.0955  2.2030 -0.9876
    8SAPS   C12  936   5.513   2.185   7.533  0.6137  0.1846  0.0215
    8SAPS  H12A  937   5.554   2.229   7.623 -0.8343 -1.7347  1.7078
    8SAPS   C13  938   5.386   2.122   7.598 -0.2024 -0.5757 -0.1447
    8SAPS  O13A  939   5.270   2.158   7.562  0.5669 -0.2349  0.2883
    8SAPS  O13B  940   5.404   2.049   7.700 -0.3243 -0.1215  0.0123
    8SAPS   C11  941   5.628   2.091   7.475  0.4985  0.2831 -0.4152
    8SAPS  H11A  942   5.659   2.020   7.554  1.1525 -0.9986 -1.7903
    8SAPS  H11B  943   5.717   2.152   7.447  1.6611 -1.4315 -0.6161
    8SAPS     P  944   5.623   2.009   7.215  0.5516  0.0749 -0.0924
    8SAPS   O13  945   5.623   2.147   7.167  0.2165 -0.2625 -0.0279
    8SAPS   O14  946   5.738   1.920   7.208  0.1488 -0.3120 -0.1998
    8SAPS   O12  947   5.585   2.018   7.368 -0.0773  0.2487 -0.0279
    8SAPS   O11  948   5.498   1.933   7.159  0.2016 -0.1370 -0.4785
    8SAPS    C1  949   5.409   1.969   7.060  0.0376 -0.0367  0.8169
    8SAPS    HA  950   5.311   1.922   7.083  0.1742 -0.4156  0.6294
    8SAPS    HB  951   5.393   2.078   7.050 -1.1799 -0.2664  0.0177
    8SAPS    C2  952   5.444   1.915   6.914 -0.6815 -0.1987 -0.4862
    8SAPS    HS  953   5.458   1.805   6.921 -1.0508 -0.1843  0.8558
    8SAPS   O21  954   5.572   1.968   6.883 -0.5974  0.4278 -0.3983
    8SAPS   C21  955   5.633   1.929   6.779  0.5172  0.0541  0.4921
    8SAPS   O22  956   5.589   1.857   6.692 -0.2570  0.2488  0.6251
    8SAPS   C22  957   5.779   1.976   6.787  0.1133  0.2856  0.4053
    8SAPS   H2R  958   5.771   2.084   6.810  0.6438  0.4421 -0.1135
    8SAPS   H2S  959   5.827   1.923   6.872  1.5252 -0.5770 -0.8778
    8SAPS    C3  960   5.339   1.936   6.803  0.1100  0.5819  0.5148
    8SAPS    HX  961   5.243   1.887   6.832 -0.0053  0.5491  0.0876
    8SAPS    HY  962   5.373   1.870   6.721 -4.7625 -4.1174  1.6600
    8SAPS   O31  963   5.323   2.079   6.770 -0.1405  0.6237 -0.2650
    8SAPS   C31  964   5.207   2.133   6.796 -0.1057  0.6824  0.3539
    8SAPS   O32  965   5.107   2.085   6.842  0.0459 -0.0756  0.0891
    8SAPS   C32  966   5.221   2.285   6.763  0.2735 -0.4129  0.1742
    8SAPS   H2X  967   5.259   2.329   6.857 -0.4430 -0.3726  0.4440
    8SAPS   H2Y  968   5.117   2.320   6.750  0.1226 -0.4810  1.1612
    8SAPS   C23  969   5.858   1.946   6.658  1.2029 -0.0179  0.2430
    8SAPS   H3R  970   5.850   1.835   6.648  1.3428 -0.0910  0.8489
    8SAPS   H3S  971   5.966   1.966   6.675  1.4002 -1.1878  0.4825
    8SAPS   C24  972   5.815   2.012   6.528 -0.6480 -0.4529  0.0759
    8SAPS   H4R  973   5.717   1.976   6.491  0.4492 -1.7220 -1.7207
    8SAPS   H4S  974   5.886   1.977   6.450  1.7040  1.4513  1.1909
    8SAPS   C25  975   5.824   2.165   6.553  0.4151 -0.0688 -0.1444
    8SAPS   H5R  976   5.745   2.195   6.624 -0.5596  0.7241 -1.5137
    8SAPS   C26  977   5.882   2.255   6.475 -1.0232 -0.6871  0.2887
    8SAPS   H6R  978   5.885   2.364   6.489 -2.4116 -0.4969 -0.7206
    8SAPS   C27  979   5.945   2.215   6.345  0.1492 -0.1927  0.7366
    8SAPS   H7R  980   5.896   2.128   6.297 -0.3526  1.7454 -2.5843
    8SAPS   H7S  981   6.050   2.180   6.357  0.7831  0.6315 -1.7863
    8SAPS   C28  982   5.953   2.314   6.232 -0.3157  0.4065 -0.1782
    8SAPS   H8R  983   5.933   2.419   6.256  1.2400  0.5485  0.6679
    8SAPS   C29  984   5.995   2.295   6.104 -0.4982 -0.6767  0.2976
    8SAPS   H9R  985   5.975   2.382   6.040  0.3396 -0.2052  0.6595
    8SAPS  C210  986   6.059   2.171   6.035 -0.0506  0.5324 -0.4472
    8SAPS  H10R  987   6.135   2.126   6.102  0.5318  2.4960  0.2954
    8SAPS  H10S  988   6.124   2.205   5.952  1.4223  0.5070  0.6461
    8SAPS  C211  989   5.949   2.070   5.992 -0.1261 -0.7660 -0.0178
    8SAPS  H11R  990   5.900   2.030   6.082  3.2590  1.2133  2.9818
    8SAPS  C212  991   5.912   2.028   5.866  0.1773  0.2123 -0.5201
    8SAPS  H12R  992   5.827   1.959   5.861  0.1658  0.1383  0.5348
    8SAPS  C213  993   5.965   2.076   5.728  0.6242  0.1070  0.0575
    8SAPS  H13R  994   5.986   2.184   5.741 -1.9439  0.6823 -0.0628
    8SAPS  H13S  995   5.886   2.075   5.651  1.8063 -0.2749 -1.1988
    8SAPS  C214  996   6.099   2.008   5.688  0.2904 -0.0765 -0.2642
    8SAPS  H14R  997   6.176   2.013   5.766 -0.8217 -1.3341  0.9815
    8SAPS  C215  998   6.129   1.955   5.570 -0.7974 -0.4368 -0.0164
    8SAPS  H15R  999   6.232   1.920   5.552 -1.1962 -0.0256 -4.2325
    8SAPS  C216 1000   6.042   1.937   5.444 -0.0599  0.4158  0.4332
    8SAPS  H16R 1001   6.099   1.982   5.360 -0.2518 -0.6079 -0.2606
    8SAPS  H16S 1002   5.941   1.983   5.451  0.1700  1.1465 -0.7844
    8SAPS  C217 1003   6.031   1.789   5.415  0.8628  0.5814 -0.6899
    8SAPS  H17R 1004   5.951   1.778   5.338 -0.0768  0.0441  0.3285
    8SAPS  H17S 1005   5.990   1.735   5.504 -0.6556 -0.3051 -1.8793
    8SAPS  C218 1006   6.157   1.712   5.383  0.4658  1.1372 -0.1042
    8SAPS  H18R 1007   6.220   1.702   5.473  0.0998  0.6522  0.1006
    8SAPS  H18S 1008   6.212   1.772   5.307  2.2153 -0.7178 -0.3765
    8SAPS  C219 1009   6.127   1.570   5.322 -0.7153 -0.0036 -0.1001
    8SAPS  H19R 1010   6.078   1.509   5.400  0.6582 -1.1369 -0.0728
    8SAPS  H19S 1011   6.218   1.513   5.292 -1.1802 -0.8243  0.0105
    8SAPS  C220 1012   6.043   1.563   5.192  0.6489  0.3874  0.2585
    8SAPS  H20R 1013   6.055   1.461   5.150 -1.3225 -0.2370  1.1151
    8SAPS  H20S 1014   6.066   1.642   5.117  1.3730 -0.2302 -0.1861
    8SAPS  H20T 1015   5.935   1.577   5.216  0.2931  0.5094 -1.2949
    8SAPS   C33 1016   5.316   2.320   6.641  0.3261 -0.4057  0.2907
    8SAPS   H3X 1017   5.418   2.283   6.667  0.7009 -1.1359 -2.0332
    8SAPS   H3Y 1018   5.328   2.431   6.640 -2.6586 -0.0085 -0.7497
    8SAPS   C34 1019   5.273   2.277   6.499  0.3315 -0.2983 -0.3865
    8SAPS   H4X 1020   5.192   2.343   6.461 -0.0050 -1.0959 -1.0792
    8SAPS   H4Y 1021   5.230   2.176   6.514 -1.2023  0.3940  0.0990
    8SAPS   C35 1022   5.389   2.291   6.396 -0.8041 -0.3035 -0.3905
    8SAPS   H5X 1023   5.461   2.212   6.429 -0.3434 -0.4567 -1.6989
    8SAPS   H5Y 1024   5.437   2.389   6.413 -1.6603 -0.2122  1.7508
    8SAPS   C36 1025   5.342   2.265   6.251 -0.6675 -0.1553 -0.1458
    8SAPS   H6X 1026   5.287   2.355   6.217  1.0506  0.7278 -0.7197
    8SAPS   H6Y 1027   5.277   2.175   6.247 -0.4155 -0.3082 -0.9394
    8SAPS   C37 1028   5.455   2.237   6.143  0.5357 -0.5939  0.3904
    8SAPS   H7X 1029   5.506   2.141   6.168  1.0345  0.2465  2.9027
    8SAPS   H7Y 1030   5.532   2.317   6.145  0.0107 -0.0612 -0.2255
    8SAPS   C38 1031   5.403   2.210   6.001 -0.2473  0.0945 -0.2536
    8SAPS   H8X 1032   5.356   2.295   5.947  2.1241  2.2897  0.8658
    8SAPS   H8Y 1033   5.328   2.129   5.993  0.9586 -1.0467 -0.2911
    8SAPS   C39 1034   5.517   2.170   5.904  0.2299  0.3440 -0.2357
    8SAPS   H9X 1035   5.479   2.115   5.816  0.7227 -0.9182  0.3156
    8SAPS   H9Y 1036   5.583   2.108   5.968 -2.1798 -0.1274  1.9615
    8SAPS  C310 1037   5.594   2.288   5.856  0.5480  0.2305  0.0155
    8SAPS  H10X 1038   5.705   2.284   5.867  0.7997 -1.3768 -2.3598
    8SAPS  H10Y 1039   5.555   2.375   5.914  0.7999  0.3139  0.0627
    8SAPS  C311 1040   5.577   2.300   5.700  0.0638 -0.5805 -0.1087
    8SAPS  H11X 1041   5.472   2.321   5.670 -0.2348 -1.0017  0.6107
    8SAPS  H11Y 1042   5.615   2.213   5.642  0.2753 -0.7686  0.3113
    8SAPS  C312 1043   5.661   2.415   5.644  0.1650 -0.4649  0.4444
    8SAPS  H12X 1044   5.757   2.420   5.701  0.3631  0.8635  0.0281
    8SAPS  H12Y 1045   5.612   2.512   5.667  2.6133  0.6448  1.3733
    8SAPS  C313 1046   5.666   2.417   5.491 -0.7741  0.1802  0.5021
    8SAPS  H13X 1047   5.572   2.407   5.432  0.5360 -0.5098 -1.5680
    8SAPS  H13Y 1048   5.731   2.335   5.455 -1.7626 -0.8697  1.0343
    8SAPS  C314 1049   5.711   2.549   5.424  0.2327 -0.2257 -0.1545
    8SAPS  H14X 1050   5.810   2.583   5.461  0.8329 -0.9924 -1.0159
    8SAPS  H14Y 1051   5.639   2.626   5.458  0.5942  0.1754 -0.2911
    8SAPS  C315 1052   5.718   2.551   5.268  0.2322 -0.3279 -0.2663
    8SAPS  H15X 1053   5.630   2.495   5.228  0.4180 -0.5564 -0.3622
    8SAPS  H15Y 1054   5.809   2.495   5.238  0.2697 -0.4247  0.0297
    8SAPS  C316 1055   5.714   2.693   5.204 -0.0712  0.5094 -0.6900
    8SAPS  H16X 1056   5.803   2.742   5.249 -0.1197  0.3886 -0.4647
    8SAPS  H16Y 1057   5.628   2.746   5.251  0.3043  0.8221 -0.3437
    8SAPS  C317 1058   5.722   2.712   5.051 -0.5743  0.1339  0.0998
    8SAPS  H17X 1059   5.694   2.807   5.000  1.2514 -0.4990 -2.2130
    8SAPS  H17Y 1060   5.643   2.640   5.023  1.1934 -1.9535  0.2550
    8SAPS  C318 1061   5.846   2.661   4.985 -0.1019  0.1389  0.1637
    8SAPS  H18X 1062   5.843   2.705   4.884 -0.9510 -0.2822 -0.0025
    8SAPS  H18Y 1063   5.843   2.550   4.991 -0.6603  0.0570 -1.2932
    8SAPS  H18Z 1064   5.935   2.703   5.038 -0.5305 -0.1276  1.1276
    9SAPS     N 1065   6.206   4.145   7.459  0.0926 -0.4672 -0.5738
    9SAPS   HN1 1066   6.279   4.113   7.393  0.5421 -0.4609 -0.0864
    9SAPS   HN2 1067   6.239   4.112   7.552  0.9325 -2.8078 -1.6301
    9SAPS   HN3 1068   6.115   4.103   7.431 -1.8900  3.3225 -0.3517
    9SAPS   C12 1069   6.212   4.292   7.446 -0.7518  0.2148  1.1570
    9SAPS  H12A 1070   6.183   4.321   7.346 -1.9529  0.4122  1.5492
    9SAPS   C13 1071   6.109   4.363   7.536  0.5336 -0.5908 -0.3557
    9SAPS  O13A 1072   6.036   4.296   7.610 -0.1861 -0.2999  0.1150
    9SAPS  O13B 1073   6.114   4.488   7.554 -0.4819 -0.2368  0.1725
    9SAPS   C11 1074   6.353   4.330   7.492 -0.4443 -1.0642 -0.2792
    9SAPS  H11A 1075   6.368   4.292   7.595  1.0561  0.2870  0.0289
    9SAPS  H11B 1076   6.351   4.440   7.482 -1.8676 -0.7838  2.3145
    9SAPS     P 1077   6.607   4.331   7.416  0.3667 -0.5169  0.2091
    9SAPS   O13 1078   6.616   4.429   7.528 -0.5032 -0.1438  0.6254
    9SAPS   O14 1079   6.687   4.205   7.411 -0.3234  0.3306 -0.5400
    9SAPS   O12 1080   6.457   4.281   7.406  0.1166  0.6202  0.4616
    9SAPS   O11 1081   6.620   4.408   7.275  0.1620  0.5945 -0.0805
    9SAPS    C1 1082   6.567   4.545   7.259  0.1172  0.9618  0.2844
    9SAPS    HA 1083   6.558   4.598   7.356  2.2635  0.0299  1.0314
    9SAPS    HB 1084   6.645   4.604   7.206  0.5299  0.7060  0.6027
    9SAPS    C2 1085   6.429   4.543   7.181 -0.4646  0.1328 -0.5170
    9SAPS    HS 1086   6.344   4.511   7.245 -0.7230 -0.1090 -0.9757
    9SAPS   O21 1087   6.447   4.456   7.066 -0.1309 -0.0051  0.1810
    9SAPS   C21 1088   6.346   4.388   7.033 -0.1974 -0.3675 -0.1093
    9SAPS   O22 1089   6.233   4.388   7.079 -0.0024 -0.2895  0.6871
    9SAPS   C22 1090   6.388   4.294   6.920 -0.4089 -0.1732 -0.6989
    9SAPS   H2R 1091   6.483   4.319   6.867 -0.3557 -0.2625 -0.6479
    9SAPS   H2S 1092   6.406   4.192   6.960  1.3106  0.1218 -0.6103
    9SAPS    C3 1093   6.392   4.686   7.133 -0.3207 -0.7222 -0.4619
    9SAPS    HX 1094   6.361   4.741   7.224  1.4250 -0.7826  0.2107
    9SAPS    HY 1095   6.300   4.684   7.071 -1.5852 -2.7576  1.3448
    9SAPS   O31 1096   6.510   4.751   7.063  0.3339 -0.1214  0.5562
    9SAPS   C31 1097   6.499   4.773   6.935 -0.4439  0.0777 -0.0671
    9SAPS   O32 1098   6.404   4.768   6.865 -0.0864  0.0495 -0.6299
    9SAPS   C32 1099   6.633   4.816   6.876 -0.4493 -0.4818 -0.6245
    9SAPS   H2X 1100   6.707   4.805   6.959  0.1777 -1.5979 -1.2952
    9SAPS   H2Y 1101   6.610   4.917   6.837 -1.7996 -0.1670  0.9136
    9SAPS   C23 1102   6.276   4.284   6.812  0.1797 -0.1008 -0.5390
    9SAPS   H3R 1103   6.183   4.254   6.866  0.2140  1.4637  0.4340
    9SAPS   H3S 1104   6.298   4.193   6.752 -1.6747 -2.2451  1.8112
    9SAPS   C24 1105   6.244   4.414   6.740 -0.1267 -0.0698 -0.1256
    9SAPS   H4R 1106   6.213   4.485   6.820 -0.7001  1.3808 -1.5675
    9SAPS   H4S 1107   6.147   4.408   6.685 -0.5776  0.1142  0.6254
    9SAPS   C25 1108   6.360   4.470   6.661  0.9799  1.0812  0.2953
    9SAPS   H5R 1109   6.465   4.474   6.694  1.3166 -0.3383 -0.4928
    9SAPS   C26 1110   6.340   4.517   6.531  0.7211 -0.4259  0.6935
    9SAPS   H6R 1111   6.432   4.551   6.481  1.3666 -1.6142  1.0292
    9SAPS   C27 1112   6.212   4.526   6.445 -0.1296  0.4969  0.1195
    9SAPS   H7R 1113   6.120   4.520   6.506  0.5282 -0.5746  1.0642
    9SAPS   H7S 1114   6.201   4.423   6.404 -1.1026  0.7923 -0.3970
    9SAPS   C28 1115   6.197   4.628   6.336 -0.3027  0.0851 -0.0563
    9SAPS   H8R 1116   6.195   4.729   6.381 -1.4208 -0.3584  0.9274
    9SAPS   C29 1117   6.183   4.627   6.202  0.4425  0.2322  0.4921
    9SAPS   H9R 1118   6.161   4.716   6.141 -0.9385 -1.8294 -2.2762
    9SAPS  C210 1119   6.166   4.503   6.119  0.1489 -0.3385  0.6557
    9SAPS  H10R 1120   6.079   4.441   6.150  0.9608 -1.7099  0.2775
    9SAPS  H10S 1121   6.259   4.445   6.131  0.2029 -0.4099 -0.0789
    9SAPS  C211 1122   6.135   4.539   5.974  0.0394 -0.6773 -0.2935
    9SAPS  H11R 1123   6.047   4.599   5.949  1.0193  0.9009 -0.1225
    9SAPS  C212 1124   6.220   4.509   5.879  0.2622 -0.3842 -0.7215
    9SAPS  H12R 1125   6.193   4.526   5.774  1.2099 -1.1207 -1.0998
    9SAPS  C213 1126   6.347   4.434   5.895  0.3023 -0.2576  0.9051
    9SAPS  H13R 1127   6.344   4.349   5.965  1.7787 -0.8800  0.2473
    9SAPS  H13S 1128   6.425   4.495   5.946  0.4906  0.2640  0.0120
    9SAPS  C214 1129   6.402   4.386   5.757  0.6534 -0.1034  0.2853
    9SAPS  H14R 1130   6.508   4.413   5.743  0.5175 -0.2052 -1.0333
    9SAPS  C215 1131   6.348   4.310   5.655 -0.7487  0.2046  0.0199
    9SAPS  H15R 1132   6.411   4.305   5.565 -1.7730  1.9287 -0.8241
    9SAPS  C216 1133   6.211   4.256   5.637 -0.9294  0.0527 -0.1012
    9SAPS  H16R 1134   6.160   4.260   5.735  1.6094  2.3785  1.2915
    9SAPS  H16S 1135   6.223   4.152   5.601 -2.5901 -0.5674  1.0452
    9SAPS  C217 1136   6.136   4.339   5.528 -0.1701  0.5275 -0.1067
    9SAPS  H17R 1137   6.127   4.447   5.555 -1.0348  0.9504 -1.9410
    9SAPS  H17S 1138   6.034   4.298   5.517 -0.0208  0.7186 -3.4176
    9SAPS  C218 1139   6.199   4.328   5.387 -0.1333 -0.1557  0.3471
    9SAPS  H18R 1140   6.211   4.221   5.361  1.3553 -0.4626  2.1686
    9SAPS  H18S 1141   6.293   4.387   5.384  1.0092 -1.8799 -2.4924
    9SAPS  C219 1142   6.109   4.408   5.290 -0.5732  0.7940 -0.0165
    9SAPS  H19R 1143   6.105   4.515   5.320  1.8696  1.5782 -2.1573
    9SAPS  H19S 1144   6.006   4.366   5.294  0.6879 -2.8291 -1.5480
    9SAPS  C220 1145   6.164   4.407   5.144  0.4672  0.3875 -0.4639
    9SAPS  H20R 1146   6.155   4.305   5.100 -0.4768  0.5420 -0.6501
    9SAPS  H20S 1147   6.270   4.441   5.150  1.3171 -1.8456 -1.6970
    9SAPS  H20T 1148   6.122   4.480   5.071  1.5380  0.9676 -0.5218
    9SAPS   C33 1149   6.692   4.731   6.756  1.0086 -0.5936  0.0671
    9SAPS   H3X 1150   6.653   4.627   6.756 -0.6458  0.0065 -0.3559
    9SAPS   H3Y 1151   6.801   4.723   6.776  0.8490  0.7939  1.8043
    9SAPS   C34 1152   6.663   4.785   6.614  0.0714 -0.6956  0.1418
    9SAPS   H4X 1153   6.692   4.892   6.606 -1.1123 -0.4951 -2.1761
    9SAPS   H4Y 1154   6.552   4.780   6.617  0.1133 -2.6595  2.4545
    9SAPS   C35 1155   6.722   4.712   6.490  0.3465  0.0273  0.3388
    9SAPS   H5X 1156   6.716   4.601   6.488  1.2232 -0.0246  0.2189
    9SAPS   H5Y 1157   6.831   4.732   6.491  0.0663  1.8607 -1.0118
    9SAPS   C36 1158   6.662   4.766   6.360  0.2287  0.1314  0.2211
    9SAPS   H6X 1159   6.679   4.876   6.354 -0.3227  0.2374  0.5284
    9SAPS   H6Y 1160   6.555   4.737   6.353  0.0895  0.5387  0.6374
    9SAPS   C37 1161   6.752   4.706   6.249 -0.3632 -0.0190 -0.1808
    9SAPS   H7X 1162   6.747   4.595   6.256  2.2928 -0.0947  3.3565
    9SAPS   H7Y 1163   6.859   4.736   6.258  0.2951 -0.6253 -4.1910
    9SAPS   C38 1164   6.709   4.731   6.103  0.8706 -0.0918 -0.1716
    9SAPS   H8X 1165   6.727   4.839   6.089 -1.7418  0.2897 -1.2734
    9SAPS   H8Y 1166   6.599   4.722   6.089  0.4365  2.9689  0.5101
    9SAPS   C39 1167   6.785   4.652   5.998 -0.3432 -0.3510  0.9487
    9SAPS   H9X 1168   6.756   4.546   6.011  1.6763 -0.7131  3.1573
    9SAPS   H9Y 1169   6.891   4.654   6.031 -0.1436 -0.0752  0.3022
    9SAPS  C310 1170   6.758   4.690   5.850  0.1474  0.7085  0.3668
    9SAPS  H10X 1171   6.651   4.664   5.840  0.1160  1.5137 -2.0429
    9SAPS  H10Y 1172   6.810   4.618   5.784  1.0267  1.0656  0.6480
    9SAPS  C311 1173   6.811   4.825   5.815 -0.5321 -0.6205  0.8354
    9SAPS  H11X 1174   6.916   4.837   5.850 -0.2767 -2.1550  0.6799
    9SAPS  H11Y 1175   6.750   4.892   5.879 -1.9578  0.0300 -1.1042
    9SAPS  C312 1176   6.790   4.865   5.667  0.3223  0.1638  0.0069
    9SAPS  H12X 1177   6.815   4.973   5.663  1.1921 -0.0634 -1.1513
    9SAPS  H12Y 1178   6.682   4.851   5.649  0.2272 -1.0826  1.3472
    9SAPS  C313 1179   6.874   4.789   5.565  0.2921 -0.1371  0.2899
    9SAPS  H13X 1180   6.838   4.684   5.574  2.5449 -0.9340  0.5835
    9SAPS  H13Y 1181   6.984   4.795   5.573  0.3394  0.9540 -0.9117
    9SAPS  C314 1182   6.844   4.844   5.424 -0.1532  0.0938  0.0768
    9SAPS  H14X 1183   6.862   4.954   5.424  2.1972 -0.2216 -2.0914
    9SAPS  H14Y 1184   6.738   4.829   5.394  0.2895  1.3435 -2.3303
    9SAPS  C315 1185   6.926   4.772   5.315 -0.3508  0.3602  0.0160
    9SAPS  H15X 1186   6.874   4.676   5.296  0.0324  0.2225 -0.3694
    9SAPS  H15Y 1187   7.022   4.740   5.359 -0.7365  1.3419  1.6447
    9SAPS  C316 1188   6.962   4.846   5.180  0.0083  0.4596 -0.2358
    9SAPS  H16X 1189   7.025   4.935   5.203  0.1905  0.7911 -1.8900
    9SAPS  H16Y 1190   6.870   4.878   5.126  0.0551 -0.0564 -0.6326
    9SAPS  C317 1191   7.018   4.744   5.085 -0.3347  0.4690 -0.7501
    9SAPS  H17X 1192   6.972   4.646   5.108  3.0635 -0.6727  2.1912
    9SAPS  H17Y 1193   7.124   4.716   5.104 -0.3806  0.0406 -1.1136
    9SAPS  C318 1194   6.996   4.782   4.939  0.1153 -0.7588  1.3864
    9SAPS  H18X 1195   6.888   4.803   4.924  0.1628 -1.2481  0.2883
    9SAPS  H18Y 1196   7.013   4.694   4.874  0.3369 -0.7205  1.3942
    9SAPS  H18Z 1197   7.056   4.868   4.903 -1.3428 -1.0730 -2.1763
   10SAPS     N 1198   0.354   2.838   7.674 -0.0770 -0.3701 -0.3205
   10SAPS   HN1 1199   0.251   2.851   7.668  0.1011  1.4361  0.0109
   10SAPS   HN2 1200   0.389   2.804   7.582 -0.1914  1.4000 -1.0742
   10SAPS   HN3 1201   0.361   2.780   7.760 -0.9396  1.7015  1.2530
   10SAPS   C12 1202   0.418   2.970   7.687 -0.4169 -0.3839 -0.3971
   10SAPS  H12A 1203   0.359   3.016   7.765 -0.2623  1.3477 -1.2516
   10SAPS   C13 1204   0.566   2.971   7.730  0.4375 -0.0047  0.0031
   10SAPS  O13A 1205   0.605   2.870   7.798 -0.1553  0.5553 -0.5222
   10SAPS  O13B 1206   0.629   3.080   7.733 -0.1221  0.1128  0.1729
   10SAPS   C11 1207   0.399   3.056   7.552 -0.1916  0.4100 -0.0478
   10SAPS  H11A 1208   0.472   3.015   7.480 -0.6060 -0.8383  0.2138
   10SAPS  H11B 1209   0.433   3.159   7.575 -0.0403  0.8017 -1.9320
   10SAPS     P 1210   0.176   3.176   7.504 -0.2473 -0.1751 -0.4825
   10SAPS   O13 1211   0.077   3.153   7.610  0.4240 -0.3966 -0.0530
   10SAPS   O14 1212   0.255   3.307   7.513  0.1626  0.2902 -0.1645
   10SAPS   O12 1213   0.268   3.059   7.496 -0.2244 -0.2580 -0.8148
   10SAPS   O11 1214   0.105   3.172   7.361 -0.4062  0.6361 -0.8652
   10SAPS    C1 1215   0.187   3.142   7.242  0.2080 -0.0555  0.4565
   10SAPS    HA 1216   0.248   3.051   7.260  2.5586  1.6317  1.4712
   10SAPS    HB 1217   0.117   3.117   7.159  1.2506 -1.8099  0.0470
   10SAPS    C2 1218   0.289   3.248   7.193 -0.3868 -0.2326 -0.3969
   10SAPS    HS 1219   0.372   3.246   7.267  0.4999  1.2102 -1.3083
   10SAPS   O21 1220   0.223   3.377   7.184  0.2795  0.5877  0.4504
   10SAPS   C21 1221   0.293   3.487   7.207 -0.2176  1.0968  0.1800
   10SAPS   O22 1222   0.411   3.483   7.247 -0.1081 -0.2528  0.0005
   10SAPS   C22 1223   0.224   3.609   7.153  0.1466 -0.2230 -0.2259
   10SAPS   H2R 1224   0.118   3.594   7.123  0.0256  2.2989 -1.3499
   10SAPS   H2S 1225   0.227   3.675   7.242  3.7651 -2.3068  1.4264
   10SAPS    C3 1226   0.357   3.216   7.055  0.1898 -0.3457 -0.3255
   10SAPS    HX 1227   0.414   3.120   7.061 -0.0749 -0.5179 -0.5282
   10SAPS    HY 1228   0.431   3.298   7.048 -0.6737  0.5212  0.4401
   10SAPS   O31 1229   0.263   3.209   6.947  0.6049  0.1459  0.0724
   10SAPS   C31 1230   0.315   3.244   6.832 -0.0707 -0.1124  0.4064
   10SAPS   O32 1231   0.435   3.261   6.814  0.6706  0.3099  0.3247
   10SAPS   C32 1232   0.206   3.253   6.723  0.1882  0.1184 -0.5829
   10SAPS   H2X 1233   0.121   3.304   6.774  0.8484 -2.4045  3.4720
   10SAPS   H2Y 1234   0.164   3.152   6.705 -1.6336  0.4950  1.2151
   10SAPS   C23 1235   0.290   3.680   7.035  0.1626 -0.1060 -0.6967
   10SAPS   H3R 1236   0.397   3.685   7.061 -0.0463  1.7360 -0.0310
   10SAPS   H3S 1237   0.260   3.786   7.021  4.0489  1.1755 -0.3248
   10SAPS   C24 1238   0.253   3.603   6.904 -0.0446  0.0793  0.1662
   10SAPS   H4R 1239   0.269   3.496   6.927 -0.2182  0.4361  2.1047
   10SAPS   H4S 1240   0.328   3.636   6.829  1.6690 -1.4873  1.1130
   10SAPS   C25 1241   0.108   3.604   6.851 -0.6163 -0.6827 -0.0375
   10SAPS   H5R 1242   0.031   3.565   6.920 -1.8102  0.6635 -0.5576
   10SAPS   C26 1243   0.065   3.651   6.731 -0.6094 -0.5251  0.3030
   10SAPS   H6R 1244  -0.040   3.640   6.701 -1.1544  0.1169  1.8699
   10SAPS   C27 1245   0.133   3.725   6.621 -0.9229  0.4228  0.4351
   10SAPS   H7R 1246   0.119   3.676   6.522 -1.8671 -2.3946  1.8658
   10SAPS   H7S 1247   0.242   3.711   6.632 -0.7546  0.2482 -1.2349
   10SAPS   C28 1248   0.106   3.877   6.616  0.1474  0.4282 -0.3551
   10SAPS   H8R 1249   0.059   3.920   6.706  0.0019 -1.9376  0.8010
   10SAPS   C29 1250   0.140   3.966   6.527  0.1474  0.0066 -0.4175
   10SAPS   H9R 1251   0.102   4.069   6.538 -1.9267 -0.6247 -1.1303
   10SAPS  C210 1252   0.203   3.944   6.393 -0.3891  0.2421  0.7309
   10SAPS  H10R 1253   0.250   3.844   6.400 -1.2307 -0.4167 -1.9021
   10SAPS  H10S 1254   0.276   4.027   6.380  1.1424 -1.4933 -3.1518
   10SAPS  C211 1255   0.100   3.932   6.280 -0.1986  0.1040 -0.4460
   10SAPS  H11R 1256  -0.007   3.947   6.299 -0.6121 -2.8839  0.1354
   10SAPS  C212 1257   0.146   3.894   6.158 -0.5827  0.2678  0.4669
   10SAPS  H12R 1258   0.072   3.894   6.077  1.2892 -1.0239 -1.3549
   10SAPS  C213 1259   0.284   3.871   6.115 -0.1734 -0.8450  0.0420
   10SAPS  H13R 1260   0.272   3.808   6.025 -2.1777 -1.8244  0.9184
   10SAPS  H13S 1261   0.347   3.814   6.186  1.4084 -0.1492 -0.7747
   10SAPS  C214 1262   0.363   4.003   6.094  0.1744  0.4740  1.0701
   10SAPS  H14R 1263   0.425   4.028   6.181 -0.0206  0.8373  1.1097
   10SAPS  C215 1264   0.370   4.073   5.976 -0.0010 -0.2831 -0.4304
   10SAPS  H15R 1265   0.414   4.173   5.962 -1.9733  1.3892  3.6736
   10SAPS  C216 1266   0.293   4.032   5.854 -0.2521 -0.2457 -0.5947
   10SAPS  H16R 1267   0.265   4.124   5.797 -2.8954  0.3152  1.3958
   10SAPS  H16S 1268   0.197   3.981   5.879  0.7016 -2.3229 -0.9550
   10SAPS  C217 1269   0.359   3.933   5.758  0.0382  0.3719 -0.3621
   10SAPS  H17R 1270   0.293   3.869   5.695  2.0201 -5.5852  2.8028
   10SAPS  H17S 1271   0.408   3.850   5.814 -2.6026 -4.2437 -4.1136
   10SAPS  C218 1272   0.464   3.998   5.666  0.2017  1.4366  0.2236
   10SAPS  H18R 1273   0.529   4.064   5.727  0.8344  2.3876 -1.4263
   10SAPS  H18S 1274   0.414   4.070   5.599 -3.4787 -0.2656  0.9209
   10SAPS  C219 1275   0.555   3.897   5.592 -0.6566  0.4802 -0.2313
   10SAPS  H19R 1276   0.490   3.830   5.531 -0.7961 -0.0926  0.5394
   10SAPS  H19S 1277   0.617   3.828   5.653 -1.2061 -0.8757 -1.1444
   10SAPS  C220 1278   0.645   3.967   5.491 -0.3895 -0.3229 -0.7837
   10SAPS  H20R 1279   0.742   3.999   5.535 -0.2166 -0.4232 -1.0856
   10SAPS  H20S 1280   0.594   4.061   5.462 -0.1940  0.1799  0.4544
   10SAPS  H20T 1281   0.657   3.889   5.413  1.1573 -0.8738 -0.0479
   10SAPS   C33 1282   0.260   3.335   6.605  0.3394  0.4983  0.4391
   10SAPS   H3X 1283   0.352   3.282   6.576  0.8797  1.2527  0.7498
   10SAPS   H3Y 1284   0.281   3.441   6.630 -2.1837  0.9443  0.9957
   10SAPS   C34 1285   0.172   3.321   6.481 -0.7048  0.5594 -0.1344
   10SAPS   H4X 1286   0.066   3.348   6.503 -1.1395  0.5677 -2.0994
   10SAPS   H4Y 1287   0.173   3.211   6.466  2.4070  0.7165 -1.8406
   10SAPS   C35 1288   0.227   3.394   6.360 -0.4600 -0.4090  0.4446
   10SAPS   H5X 1289   0.337   3.379   6.353 -0.4205  0.0683  0.0183
   10SAPS   H5Y 1290   0.214   3.504   6.374  1.5308  0.0031 -0.5108
   10SAPS   C36 1291   0.158   3.347   6.230 -0.0532 -0.0246  0.7582
   10SAPS   H6X 1292   0.047   3.361   6.233 -0.3511 -1.8729 -0.0921
   10SAPS   H6Y 1293   0.169   3.237   6.225  0.8841  0.0347  1.3325
   10SAPS   C37 1294   0.223   3.389   6.099 -0.2706 -0.6472 -0.0188
   10SAPS   H7X 1295   0.333   3.389   6.112 -0.2474  0.9255 -0.0734
   10SAPS   H7Y 1296   0.189   3.495   6.100 -0.4187 -0.6721  1.7843
   10SAPS   C38 1297   0.165   3.321   5.973 -0.2841  0.0893 -0.1860
   10SAPS   H8X 1298   0.058   3.324   6.004  0.7383  1.1746  3.8457
   10SAPS   H8Y 1299   0.196   3.215   5.974 -0.7463 -0.0493  0.4527
   10SAPS   C39 1300   0.198   3.401   5.847 -0.0025  0.2716  0.5182
   10SAPS   H9X 1301   0.307   3.416   5.832 -0.0744  0.7243  0.4350
   10SAPS   H9Y 1302   0.155   3.501   5.869 -2.2520 -0.4940 -0.0554
   10SAPS  C310 1303   0.126   3.345   5.714  0.0775  0.4483 -0.1825
   10SAPS  H10X 1304   0.024   3.385   5.735  0.0795 -0.0930  0.9295
   10SAPS  H10Y 1305   0.135   3.235   5.715  2.1890  0.5566 -1.7725
   10SAPS  C311 1306   0.187   3.393   5.582  0.2357  0.5117  0.4901
   10SAPS  H11X 1307   0.179   3.305   5.516  1.2427 -0.7760  1.9926
   10SAPS  H11Y 1308   0.297   3.406   5.592  0.2846 -0.6720  1.8643
   10SAPS  C312 1309   0.122   3.524   5.520  0.8062  0.1784 -0.2335
   10SAPS  H12X 1310   0.105   3.596   5.604 -2.0749  1.4824 -1.8023
   10SAPS  H12Y 1311   0.019   3.500   5.489 -0.0566  1.1544  1.6661
   10SAPS  C313 1312   0.206   3.584   5.415 -0.3597  0.6134 -0.2410
   10SAPS  H13X 1313   0.204   3.516   5.327 -1.6391  0.5816 -0.2037
   10SAPS  H13Y 1314   0.312   3.595   5.446 -0.2057 -0.7030 -0.2408
   10SAPS  C314 1315   0.149   3.722   5.369  0.1525 -0.1236 -0.0263
   10SAPS  H14X 1316   0.162   3.787   5.457  3.8912  0.7948 -1.0590
   10SAPS  H14Y 1317   0.043   3.710   5.339  0.3162  0.7102 -1.0126
   10SAPS  C315 1318   0.225   3.782   5.252  0.5552 -0.3173  0.4147
   10SAPS  H15X 1319   0.213   3.703   5.174 -2.1851 -0.0027  0.3984
   10SAPS  H15Y 1320   0.334   3.800   5.260  0.4667  1.1008 -1.1216
   10SAPS  C316 1321   0.170   3.916   5.210 -0.2812  0.3792  0.2588
   10SAPS  H16X 1322   0.236   3.965   5.136 -0.3586  1.8507  1.1325
   10SAPS  H16Y 1323   0.162   3.994   5.289  2.7433  1.9827 -0.8576
   10SAPS  C317 1324   0.021   3.898   5.166  0.4975  0.1423 -0.8125
   10SAPS  H17X 1325  -0.039   3.862   5.252  1.1668 -2.0665 -1.2085
   10SAPS  H17Y 1326   0.025   3.818   5.089 -1.0573  0.4880 -1.2925
   10SAPS  C318 1327  -0.047   4.017   5.112 -0.4628 -0.6166  0.5598
   10SAPS  H18X 1328  -0.076   4.074   5.203  0.8336 -0.6133  0.9986
   10SAPS  H18Y 1329  -0.133   4.004   5.043 -0.4421  1.4931  0.0774
   10SAPS  H18Z 1330   0.033   4.080   5.067 -0.1022 -0.1823  1.7578
   11SAPS     N 1331   5.234   0.781   2.531 -0.7365 -0.1719  0.2878
   11SAPS   HN1 1332   5.321   0.795   2.587 -0.1219  1.0436 -0.9044
   11SAPS   HN2 1333   5.241   0.846   2.450 -1.6832 -1.8111 -1.2005
   11SAPS   HN3 1334   5.151   0.808   2.586  0.1054  1.6054  0.7604
   11SAPS   C12 1335   5.232   0.643   2.473  0.3049 -0.1422  0.1047
   11SAPS  H12A 1336   5.219   0.578   2.558 -2.4739  1.0768  0.7254
   11SAPS   C13 1337   5.107   0.612   2.380 -0.3770  0.5008 -0.2450
   11SAPS  O13A 1338   5.015   0.696   2.364 -0.2715 -0.2788  0.3275
   11SAPS  O13B 1339   5.109   0.500   2.317  0.3498  0.2048 -0.0511
   11SAPS   C11 1340   5.366   0.626   2.400  0.0796 -0.6863  0.5806
   11SAPS  H11A 1341   5.381   0.686   2.308 -1.5184  0.3526  0.9485
   11SAPS  H11B 1342   5.366   0.524   2.358  0.7139 -0.9483  1.1883
   11SAPS     P 1343   5.527   0.521   2.567 -0.3861  0.3219  0.0729
   11SAPS   O13 1344   5.416   0.501   2.663  0.4601 -0.0251  0.1846
   11SAPS   O14 1345   5.554   0.409   2.479 -0.0064 -1.0117 -0.1938
   11SAPS   O12 1346   5.483   0.647   2.483 -0.0591 -0.3545  0.5221
   11SAPS   O11 1347   5.649   0.563   2.652  0.0599  0.0948  0.0971
   11SAPS    C1 1348   5.750   0.471   2.696  0.1887 -0.8289 -0.7062
   11SAPS    HA 1349   5.777   0.413   2.606 -1.3925  0.1853 -1.8815
   11SAPS    HB 1350   5.838   0.535   2.722  0.0758 -0.3389 -1.4862
   11SAPS    C2 1351   5.701   0.381   2.816 -0.0433 -0.8303 -0.3444
   11SAPS    HS 1352   5.604   0.330   2.795 -1.1471  0.1094  2.0700
   11SAPS   O21 1353   5.689   0.460   2.930  0.0760 -0.3498  0.2417
   11SAPS   C21 1354   5.583   0.441   3.012  0.2961  0.1253 -0.0439
   11SAPS   O22 1355   5.497   0.358   2.994 -0.0221 -0.1624  0.3191
   11SAPS   C22 1356   5.585   0.546   3.116  0.8397 -0.4402  0.2534
   11SAPS   H2R 1357   5.688   0.588   3.126  0.8699 -0.9549  2.6778
   11SAPS   H2S 1358   5.523   0.620   3.061  2.7870  0.8172 -0.3336
   11SAPS    C3 1359   5.804   0.261   2.841  0.7914 -0.7609  1.1290
   11SAPS    HX 1360   5.901   0.313   2.857  0.9692 -0.4503 -0.7631
   11SAPS    HY 1361   5.829   0.210   2.746 -0.3876 -0.7562  0.7987
   11SAPS   O31 1362   5.766   0.169   2.941 -0.7175 -0.3670  0.0020
   11SAPS   C31 1363   5.661   0.091   2.930  0.3858 -0.1188  0.0181
   11SAPS   O32 1364   5.591   0.083   2.833  0.2352  0.1391  0.0979
   11SAPS   C32 1365   5.629   0.028   3.064  0.2593  0.2712  0.5883
   11SAPS   H2X 1366   5.593  -0.068   3.022  1.0152 -0.1016  0.7728
   11SAPS   H2Y 1367   5.546   0.092   3.101 -1.1070 -0.2013 -1.4880
   11SAPS   C23 1368   5.527   0.502   3.249  0.0286 -0.0755 -0.7765
   11SAPS   H3R 1369   5.593   0.430   3.303  1.6389  0.2445 -2.2113
   11SAPS   H3S 1370   5.436   0.441   3.235 -0.6602  0.5100  0.9822
   11SAPS   C24 1371   5.472   0.617   3.329  0.0926  0.3947  0.0446
   11SAPS   H4R 1372   5.410   0.581   3.414  0.5739  1.4667  0.8701
   11SAPS   H4S 1373   5.410   0.684   3.266  0.7097 -0.4244 -1.5068
   11SAPS   C25 1374   5.590   0.693   3.379 -0.9635 -0.2013 -0.6613
   11SAPS   H5R 1375   5.647   0.743   3.300 -0.0625 -2.5838 -1.6030
   11SAPS   C26 1376   5.628   0.702   3.510 -0.8388 -0.7598  0.5522
   11SAPS   H6R 1377   5.726   0.749   3.530 -0.5540 -0.3931 -1.4535
   11SAPS   C27 1378   5.554   0.657   3.627  1.1930 -0.1508  0.5086
   11SAPS   H7R 1379   5.476   0.580   3.611  0.1384  1.2624 -1.5750
   11SAPS   H7S 1380   5.494   0.747   3.652  1.5234 -0.1114  1.1968
   11SAPS   C28 1381   5.641   0.628   3.747 -0.5096 -0.2411 -0.3628
   11SAPS   H8R 1382   5.667   0.521   3.757  0.9247  0.2438  1.6495
   11SAPS   C29 1383   5.685   0.711   3.842 -0.5761  0.6806  0.1020
   11SAPS   H9R 1384   5.745   0.662   3.920 -0.3610 -0.5176 -0.7944
   11SAPS  C210 1385   5.673   0.859   3.855 -0.3312  0.1086 -0.0254
   11SAPS  H10R 1386   5.610   0.872   3.946  2.2368 -1.9856  2.2110
   11SAPS  H10S 1387   5.614   0.899   3.770  1.6783  0.4800 -1.2855
   11SAPS  C211 1388   5.803   0.933   3.869 -0.3116  0.0852  0.1343
   11SAPS  H11R 1389   5.872   0.921   3.784 -0.4125  0.2067  0.0356
   11SAPS  C212 1390   5.845   1.018   3.970  0.0993 -0.2953  0.5361
   11SAPS  H12R 1391   5.938   1.073   3.955 -1.7014  2.7485 -0.3719
   11SAPS  C213 1392   5.753   1.050   4.089 -0.0016 -0.5370  0.1196
   11SAPS  H13R 1393   5.706   0.955   4.120  0.4396 -0.6819  0.3496
   11SAPS  H13S 1394   5.665   1.110   4.058  1.0724  0.4772 -1.0763
   11SAPS  C214 1395   5.821   1.132   4.197  0.1686 -0.1910 -0.5722
   11SAPS  H14R 1396   5.839   1.238   4.175  0.4030  0.3151  1.7703
   11SAPS  C215 1397   5.869   1.086   4.310 -0.4914 -0.3300  0.3865
   11SAPS  H15R 1398   5.931   1.158   4.365 -0.6993  0.5196 -0.4537
   11SAPS  C216 1399   5.851   0.948   4.364  0.2760 -0.5804 -0.1497
   11SAPS  H16R 1400   5.944   0.887   4.355  0.3920 -0.8240  2.0939
   11SAPS  H16S 1401   5.786   0.884   4.301  0.0671  1.0642 -1.6653
   11SAPS  C217 1402   5.812   0.951   4.513 -0.2813  0.0497 -0.1224
   11SAPS  H17R 1403   5.885   1.019   4.563  0.6695 -0.6967 -0.4647
   11SAPS  H17S 1404   5.829   0.850   4.556  0.4207 -0.1409 -0.8262
   11SAPS  C218 1405   5.672   1.003   4.536  0.0442  0.3110 -0.5919
   11SAPS  H18R 1406   5.619   0.958   4.450  1.6575 -3.2373  0.1144
   11SAPS  H18S 1407   5.670   1.115   4.534 -2.5900  0.4301  2.1099
   11SAPS  C219 1408   5.600   0.961   4.661 -0.0313 -0.8942 -0.2621
   11SAPS  H19R 1409   5.512   1.027   4.675  1.1694  0.4161  1.8002
   11SAPS  H19S 1410   5.673   0.981   4.743 -2.2502 -1.5958  1.9947
   11SAPS  C220 1411   5.562   0.815   4.668 -0.3199  0.1702 -0.4298
   11SAPS  H20R 1412   5.509   0.782   4.576 -0.1126  3.2979 -1.8176
   11SAPS  H20S 1413   5.495   0.804   4.756  1.9417 -0.6038  1.2784
   11SAPS  H20T 1414   5.644   0.744   4.689  0.4343  1.0781 -0.2325
   11SAPS   C33 1415   5.745  -0.002   3.153  0.4419 -0.0095 -0.1337
   11SAPS   H3X 1416   5.762   0.099   3.196 -1.3122 -0.1892  1.0581
   11SAPS   H3Y 1417   5.846  -0.019   3.108  2.3139 -0.9852  3.9797
   11SAPS   C34 1418   5.716  -0.103   3.266 -0.6100 -0.9599  0.8743
   11SAPS   H4X 1419   5.723  -0.206   3.226  0.6239 -0.8099  0.6650
   11SAPS   H4Y 1420   5.612  -0.095   3.305 -0.8288 -0.4503  0.2113
   11SAPS   C35 1421   5.809  -0.078   3.384  0.7116  0.0573  0.6051
   11SAPS   H5X 1422   5.767  -0.130   3.473 -2.6420  3.0208  0.9637
   11SAPS   H5Y 1423   5.805   0.028   3.416  1.7336  0.2729  0.0674
   11SAPS   C36 1424   5.957  -0.113   3.354  0.5512 -0.7018 -0.2321
   11SAPS   H6X 1425   5.976  -0.062   3.258 -0.5019  2.4767  1.0942
   11SAPS   H6Y 1426   5.960  -0.223   3.343 -2.1860 -1.0602  1.4991
   11SAPS   C37 1427   6.052  -0.060   3.459 -0.8264 -0.1471  0.2915
   11SAPS   H7X 1428   6.026   0.047   3.447  0.5659  0.3234  1.1597
   11SAPS   H7Y 1429   6.151  -0.086   3.415 -1.1670  1.3809 -1.5076
   11SAPS   C38 1430   6.031  -0.114   3.598 -0.2796 -0.0613 -0.1951
   11SAPS   H8X 1431   6.041  -0.225   3.606  2.3238 -0.0311 -1.6533
   11SAPS   H8Y 1432   5.932  -0.074   3.627  0.5975  0.5242  2.1291
   11SAPS   C39 1433   6.141  -0.064   3.692 -0.7117  0.0524 -0.4286
   11SAPS   H9X 1434   6.150   0.047   3.698  1.4728 -0.1117  0.1585
   11SAPS   H9Y 1435   6.236  -0.104   3.651 -0.9966  0.5327 -1.6022
   11SAPS  C310 1436   6.102  -0.124   3.827  0.1714 -0.3805  0.1165
   11SAPS  H10X 1437   6.094  -0.233   3.806 -0.6263 -0.0305 -1.5344
   11SAPS  H10Y 1438   6.006  -0.085   3.866  0.7509  2.0563 -0.7390
   11SAPS  C311 1439   6.209  -0.096   3.929 -0.9262  0.2187 -0.0926
   11SAPS  H11X 1440   6.229   0.013   3.939 -1.2532  0.4226 -1.4650
   11SAPS  H11Y 1441   6.312  -0.118   3.894 -0.9612  0.3217 -0.2633
   11SAPS  C312 1442   6.183  -0.162   4.068 -0.4472 -0.0912 -0.1796
   11SAPS  H12X 1443   6.199  -0.270   4.053 -1.6806 -0.3222  0.0465
   11SAPS  H12Y 1444   6.082  -0.129   4.103 -0.2147 -0.9187  1.3212
   11SAPS  C313 1445   6.284  -0.111   4.169 -0.4986 -0.0705 -0.8348
   11SAPS  H13X 1446   6.308  -0.007   4.137 -1.1370  0.6860  1.0317
   11SAPS  H13Y 1447   6.366  -0.184   4.151 -1.0615 -1.5898  2.2145
   11SAPS  C314 1448   6.236  -0.114   4.312  0.1451 -0.5055  0.3285
   11SAPS  H14X 1449   6.184  -0.210   4.329  1.5345 -1.4937 -0.8133
   11SAPS  H14Y 1450   6.157  -0.036   4.323  1.0520  0.3346  1.1275
   11SAPS  C315 1451   6.346  -0.083   4.406 -0.6206  0.0757 -0.5546
   11SAPS  H15X 1452   6.396   0.006   4.362 -1.3820  0.8339  0.0926
   11SAPS  H15Y 1453   6.430  -0.156   4.404 -1.1596 -0.8679  3.3640
   11SAPS  C316 1454   6.296  -0.078   4.550 -0.0909 -0.3750  0.2875
   11SAPS  H16X 1455   6.258  -0.179   4.578 -1.9890  0.2703  0.1600
   11SAPS  H16Y 1456   6.217  -0.001   4.561  0.1037 -0.3909  2.2782
   11SAPS  C317 1457   6.404  -0.037   4.648 -0.1853  0.7303  0.6029
   11SAPS  H17X 1458   6.360  -0.022   4.749  1.1207 -0.1088  1.3310
   11SAPS  H17Y 1459   6.446   0.059   4.612  2.1181 -0.4037  0.0378
   11SAPS  C318 1460   6.511  -0.144   4.676 -0.1062 -0.5272 -0.2789
   11SAPS  H18X 1461   6.572  -0.140   4.584 -1.2430 -2.7371 -1.2273
   11SAPS  H18Y 1462   6.465  -0.246   4.683  1.2408 -1.0681  1.4882
   11SAPS  H18Z 1463   6.576  -0.126   4.764 -0.8736  3.4403 -0.3483
   12SAPS     N 1464   0.683   5.085   2.638  0.3889  0.0942  0.0467
   12SAPS   HN1 1465   0.592   5.050   2.672  0.6941  1.6366  2.7634
   12SAPS   HN2 1466   0.740   5.078   2.725 -2.2134  1.6770  2.0293
   12SAPS   HN3 1467   0.664   5.185   2.615 -0.5322 -0.3718 -1.3602
   12SAPS   C12 1468   0.747   5.034   2.510 -0.6761 -1.1461 -1.1087
   12SAPS  H12A 1469   0.685   5.060   2.426 -2.2747 -1.0707  0.0381
   12SAPS   C13 1470   0.903   5.071   2.499 -0.9935 -0.5142 -0.1276
   12SAPS  O13A 1471   0.956   5.147   2.588 -0.0806 -0.0577 -0.0519
   12SAPS  O13B 1472   0.966   5.058   2.391 -0.0369 -0.6411 -0.6855
   12SAPS   C11 1473   0.727   4.884   2.511  0.8872  0.4647  0.2655
   12SAPS  H11A 1474   0.785   4.854   2.421  0.8729  1.8706 -0.2352
   12SAPS  H11B 1475   0.619   4.859   2.499  1.3684 -1.4024 -0.4972
   12SAPS     P 1476   0.780   4.671   2.641 -0.0471 -0.1829 -0.4964
   12SAPS   O13 1477   0.817   4.607   2.516 -0.0161 -0.0739 -0.0275
   12SAPS   O14 1478   0.873   4.640   2.750 -0.0949  0.0502 -0.6846
   12SAPS   O12 1479   0.773   4.827   2.629 -0.3797  0.1534  0.0976
   12SAPS   O11 1480   0.639   4.620   2.685 -0.2471 -0.1001 -0.3577
   12SAPS    C1 1481   0.542   4.700   2.755 -0.4625 -0.5257 -0.4587
   12SAPS    HA 1482   0.545   4.803   2.714  0.8934 -1.2243 -2.2260
   12SAPS    HB 1483   0.444   4.660   2.721  0.3525  0.3345 -4.2597
   12SAPS    C2 1484   0.567   4.718   2.909 -0.1199 -0.3470  0.2142
   12SAPS    HS 1485   0.657   4.783   2.913  0.8299 -1.7078  2.6466
   12SAPS   O21 1486   0.600   4.590   2.965  0.4568 -0.1065 -0.2609
   12SAPS   C21 1487   0.692   4.591   3.061  0.5696  0.3353 -0.6791
   12SAPS   O22 1488   0.755   4.686   3.106  0.7940  0.5407  0.5012
   12SAPS   C22 1489   0.720   4.447   3.100  0.1524  0.2357  0.1922
   12SAPS   H2R 1490   0.720   4.392   3.003  0.7542  3.7142 -1.9993
   12SAPS   H2S 1491   0.825   4.444   3.135  0.4718 -0.1389 -0.7568
   12SAPS    C3 1492   0.444   4.780   2.995  0.3142 -0.2424 -0.2064
   12SAPS    HX 1493   0.375   4.694   3.000  0.8624 -0.7314 -0.8739
   12SAPS    HY 1494   0.399   4.866   2.941 -1.9281 -2.0195 -1.3505
   12SAPS   O31 1495   0.484   4.804   3.133 -0.3595 -0.3460 -0.3490
   12SAPS   C31 1496   0.553   4.924   3.157 -0.4125  0.1908 -0.0081
   12SAPS   O32 1497   0.602   4.990   3.065  0.0596  0.1507 -0.1476
   12SAPS   C32 1498   0.565   4.943   3.313 -0.1243 -0.4554 -0.1467
   12SAPS   H2X 1499   0.615   4.856   3.360 -0.1138  0.1071  0.9265
   12SAPS   H2Y 1500   0.457   4.940   3.340  0.2694 -0.2906  1.5414
   12SAPS   C23 1501   0.612   4.387   3.193 -0.1543  0.3562 -1.1601
   12SAPS   H3R 1502   0.648   4.283   3.211 -1.7531  0.2197  1.9450
   12SAPS   H3S 1503   0.508   4.370   3.156 -0.3786 -3.0858  0.5860
   12SAPS   C24 1504   0.618   4.457   3.327 -1.0632 -0.2138  0.1078
   12SAPS   H4R 1505   0.605   4.564   3.302 -0.0625 -0.1272 -0.0845
   12SAPS   H4S 1506   0.721   4.431   3.361 -0.6901  0.1786 -0.7185
   12SAPS   C25 1507   0.534   4.403   3.436 -0.0847 -0.2949 -0.2453
   12SAPS   H5R 1508   0.457   4.333   3.403  0.5965 -1.2671  0.1849
   12SAPS   C26 1509   0.525   4.432   3.568  0.0207 -0.6776 -0.0477
   12SAPS   H6R 1510   0.450   4.379   3.629 -0.3444  0.7744  0.8049
   12SAPS   C27 1511   0.601   4.524   3.665  1.1046 -0.1541  0.2782
   12SAPS   H7R 1512   0.703   4.488   3.687  0.4661 -1.6345  0.9219
   12SAPS   H7S 1513   0.559   4.531   3.768 -0.7827 -1.2180 -0.3644
   12SAPS   C28 1514   0.599   4.659   3.597 -0.0113  0.1243 -0.1913
   12SAPS   H8R 1515   0.673   4.658   3.516 -0.7396  2.0342 -0.9368
   12SAPS   C29 1516   0.563   4.779   3.647  0.0802  1.2650  0.0681
   12SAPS   H9R 1517   0.552   4.861   3.574 -2.9008  0.6425 -0.3340
   12SAPS  C210 1518   0.473   4.800   3.764 -0.2283 -0.4557 -0.1859
   12SAPS  H10R 1519   0.429   4.707   3.808  0.7173 -1.9109 -2.1509
   12SAPS  H10S 1520   0.384   4.857   3.729  0.5782  0.9557  0.0109
   12SAPS  C211 1521   0.549   4.886   3.863  0.9742  0.4263 -0.1965
   12SAPS  H11R 1522   0.620   4.961   3.826 -0.4064  2.6018  1.3185
   12SAPS  C212 1523   0.544   4.873   3.992 -0.3076 -0.1675 -0.1501
   12SAPS  H12R 1524   0.606   4.944   4.048  1.6426 -1.4510 -0.5754
   12SAPS  C213 1525   0.453   4.784   4.069 -0.1256  0.4904  0.1260
   12SAPS  H13R 1526   0.353   4.790   4.021  0.1628  0.7410 -0.4543
   12SAPS  H13S 1527   0.439   4.825   4.172  1.3057 -1.6803  1.2573
   12SAPS  C214 1528   0.494   4.638   4.076 -0.4794 -0.0258 -0.3671
   12SAPS  H14R 1529   0.490   4.592   3.976  2.3768 -0.8745 -0.1885
   12SAPS  C215 1530   0.527   4.564   4.181 -1.3129  0.5762 -0.5009
   12SAPS  H15R 1531   0.535   4.456   4.167 -2.1302  0.5529 -0.8645
   12SAPS  C216 1532   0.549   4.604   4.324 -0.1908 -0.0372 -0.1584
   12SAPS  H16R 1533   0.505   4.520   4.382  0.2776 -1.3043 -1.5847
   12SAPS  H16S 1534   0.491   4.695   4.350  1.6680  1.7843 -1.9811
   12SAPS  C217 1535   0.696   4.635   4.351  0.2339 -0.2733 -0.5358
   12SAPS  H17R 1536   0.729   4.715   4.281  2.6935  0.1831  0.9903
   12SAPS  H17S 1537   0.746   4.539   4.326 -0.0445 -0.8832  1.1047
   12SAPS  C218 1538   0.729   4.687   4.492 -0.5819 -1.2218 -0.5846
   12SAPS  H18R 1539   0.840   4.690   4.494 -0.4929 -2.0236  2.8317
   12SAPS  H18S 1540   0.696   4.617   4.571  1.2541 -1.8883 -0.3554
   12SAPS  C219 1541   0.673   4.823   4.528  0.4703  0.4836  0.4077
   12SAPS  H19R 1542   0.563   4.812   4.528  0.4552  0.3831  1.7408
   12SAPS  H19S 1543   0.691   4.904   4.454 -1.0111 -0.8998 -1.5320
   12SAPS  C220 1544   0.709   4.876   4.670 -0.9417  1.2168  0.6867
   12SAPS  H20R 1545   0.636   4.943   4.720 -0.3125  0.7500  2.3263
   12SAPS  H20S 1546   0.802   4.936   4.671  0.9080 -1.4228  2.5427
   12SAPS  H20T 1547   0.721   4.793   4.744 -1.1524  0.0395 -0.5576
   12SAPS   C33 1548   0.623   5.087   3.347 -0.2393  0.5393  0.0780
   12SAPS   H3X 1549   0.561   5.162   3.292 -1.9279 -0.0361  1.1254
   12SAPS   H3Y 1550   0.722   5.095   3.298 -0.6812  0.0908 -0.9155
   12SAPS   C34 1551   0.608   5.128   3.496  0.2807 -0.1661  0.4717
   12SAPS   H4X 1552   0.673   5.055   3.549 -1.1621 -1.1944  0.8672
   12SAPS   H4Y 1553   0.512   5.106   3.547 -0.1923  0.3302 -0.1927
   12SAPS   C35 1554   0.637   5.278   3.533 -0.2349  0.4933  0.1219
   12SAPS   H5X 1555   0.577   5.331   3.456  1.6938 -0.7362 -2.3558
   12SAPS   H5Y 1556   0.744   5.295   3.507 -0.2613  0.5966  0.0829
   12SAPS   C36 1557   0.613   5.316   3.683 -0.1398 -0.1015 -0.0999
   12SAPS   H6X 1558   0.513   5.273   3.705 -1.1348  2.0028 -0.2782
   12SAPS   H6Y 1559   0.619   5.427   3.687 -0.7175  0.0302 -1.8796
   12SAPS   C37 1560   0.712   5.262   3.787  0.3438  0.1270  0.4348
   12SAPS   H7X 1561   0.818   5.282   3.760 -0.7794  2.3418 -3.0105
   12SAPS   H7Y 1562   0.699   5.152   3.780  2.2564 -0.1942  1.3860
   12SAPS   C38 1563   0.683   5.312   3.933 -0.1629  0.4192  0.0482
   12SAPS   H8X 1564   0.574   5.297   3.950 -0.4638  0.9690 -1.3033
   12SAPS   H8Y 1565   0.704   5.421   3.925  1.1378  0.2448  0.7871
   12SAPS   C39 1566   0.757   5.244   4.044 -0.2492  0.0393  0.7334
   12SAPS   H9X 1567   0.862   5.281   4.050 -0.4003  1.1141 -1.8130
   12SAPS   H9Y 1568   0.768   5.136   4.022  1.1863  0.2719  0.1552
   12SAPS  C310 1569   0.687   5.266   4.179 -0.2011 -0.3544 -0.7756
   12SAPS  H10X 1570   0.735   5.188   4.243 -0.2265 -0.3042 -0.6946
   12SAPS  H10Y 1571   0.580   5.236   4.165 -0.3882  0.7322 -1.7319
   12SAPS  C311 1572   0.709   5.406   4.244  0.0395  0.1215 -0.9697
   12SAPS  H11X 1573   0.652   5.484   4.188  0.4128 -0.0039 -1.5284
   12SAPS  H11Y 1574   0.818   5.427   4.251 -0.4026  2.1774  1.1663
   12SAPS  C312 1575   0.667   5.410   4.396 -0.0307  0.2192 -0.0334
   12SAPS  H12X 1576   0.733   5.336   4.446  1.0003  0.1370 -1.4474
   12SAPS  H12Y 1577   0.559   5.387   4.386  0.2768 -0.8426 -1.2391
   12SAPS  C313 1578   0.681   5.545   4.463  0.6307 -0.5042  1.0737
   12SAPS  H13X 1579   0.613   5.618   4.412 -0.7847 -1.6667  1.2316
   12SAPS  H13Y 1580   0.781   5.593   4.454  0.6115 -0.4478  1.1531
   12SAPS  C314 1581   0.647   5.530   4.612 -0.1823 -0.5310 -0.3330
   12SAPS  H14X 1582   0.724   5.463   4.657 -0.3488  0.4215  1.4227
   12SAPS  H14Y 1583   0.552   5.475   4.626 -0.1433 -1.1562 -2.1797
   12SAPS  C315 1584   0.654   5.663   4.689 -0.0601  0.4291  0.1508
   12SAPS  H15X 1585   0.598   5.733   4.623 -0.0214 -2.9714 -3.8843
   12SAPS  H15Y 1586   0.761   5.696   4.694  0.5809 -1.7000  1.9809
   12SAPS  C316 1587   0.578   5.660   4.822  0.7950 -0.2117  0.2132
   12SAPS  H16X 1588   0.472   5.654   4.790  0.6333  1.1192  0.4393
   12SAPS  H16Y 1589   0.589   5.761   4.869 -1.4307  1.1740 -2.0124
   12SAPS  C317 1590   0.607   5.543   4.915  0.0200 -0.0889  0.4030
   12SAPS  H17X 1591   0.699   5.567   4.971  0.5242  0.1716 -0.5144
   12SAPS  H17Y 1592   0.620   5.444   4.866 -1.5676 -0.3770  0.5033
   12SAPS  C318 1593   0.492   5.515   5.014  0.2118  0.2814 -0.3072
   12SAPS  H18X 1594   0.442   5.608   5.047 -1.9900 -1.0593  0.3706
   12SAPS  H18Y 1595   0.527   5.451   5.098  0.3988 -0.8931 -1.2389
   12SAPS  H18Z 1596   0.416   5.446   4.971 -1.0351  0.0941  2.0603
   13SAPS     N 1597   4.848   4.361   2.673 -0.0319  0.3815  0.0205
   13SAPS   HN1 1598   4.877   4.456   2.705 -1.0830  1.0958 -1.0985
   13SAPS   HN2 1599   4.774   4.319   2.733 -1.7480  0.6328 -1.8422
   13SAPS   HN3 1600   4.933   4.301   2.674  1.0715  1.8950  0.2864
   13SAPS   C12 1601   4.799   4.384   2.537 -0.5067  0.3618 -0.4552
   13SAPS  H12A 1602   4.720   4.456   2.551  0.7335  1.4154  1.6764
   13SAPS   C13 1603   4.890   4.449   2.431  1.0735 -0.6836 -0.0900
   13SAPS  O13A 1604   5.008   4.479   2.464 -0.3679  0.4655 -0.2445
   13SAPS  O13B 1605   4.848   4.475   2.318  0.0202  0.1992 -0.1687
   13SAPS   C11 1606   4.731   4.255   2.490  0.0342  0.1997  0.8349
   13SAPS  H11A 1607   4.807   4.181   2.459 -1.0990 -1.4685  1.8207
   13SAPS  H11B 1608   4.680   4.286   2.396 -0.5118 -0.4298  0.9129
   13SAPS     P 1609   4.530   4.085   2.554 -0.4836 -0.4187 -0.0097
   13SAPS   O13 1610   4.400   4.148   2.532  0.0370  0.1060 -0.6409
   13SAPS   O14 1611   4.577   4.002   2.441  0.2244  0.5485 -0.8595
   13SAPS   O12 1612   4.638   4.197   2.584 -0.0770 -0.2782 -0.9523
   13SAPS   O11 1613   4.537   4.002   2.689  0.1656  0.2818  0.2345
   13SAPS    C1 1614   4.426   3.931   2.745 -0.3530  0.6278  0.1053
   13SAPS    HA 1615   4.350   3.907   2.668 -0.7568 -0.5613  0.8537
   13SAPS    HB 1616   4.466   3.842   2.799 -0.1972  0.1526 -0.7689
   13SAPS    C2 1617   4.343   4.018   2.843 -0.5233  0.1243  0.1529
   13SAPS    HS 1618   4.336   4.118   2.796  1.3172  0.4996  0.6121
   13SAPS   O21 1619   4.422   4.006   2.965 -0.3949  0.0433  0.3674
   13SAPS   C21 1620   4.390   4.096   3.063 -0.9233  0.2087 -0.2505
   13SAPS   O22 1621   4.309   4.186   3.052  0.3104  0.1338 -0.0505
   13SAPS   C22 1622   4.454   4.047   3.187 -0.3078  0.0794 -0.3802
   13SAPS   H2R 1623   4.390   3.965   3.226 -2.2690  2.1013  0.9497
   13SAPS   H2S 1624   4.552   4.001   3.163 -1.0492 -1.9207  0.2014
   13SAPS    C3 1625   4.206   3.951   2.864  0.8356  0.0197  0.4217
   13SAPS    HX 1626   4.205   3.844   2.891  0.4474 -1.2153 -3.7799
   13SAPS    HY 1627   4.176   3.951   2.757  0.1695 -2.7479  0.5519
   13SAPS   O31 1628   4.111   4.038   2.926 -0.5465 -0.4108  0.1457
   13SAPS   C31 1629   4.064   3.988   3.040 -0.4568  0.4659  0.2758
   13SAPS   O32 1630   4.092   3.875   3.079 -0.1858 -0.0902  0.2896
   13SAPS   C32 1631   3.994   4.102   3.112 -0.2377 -0.3460 -0.5394
   13SAPS   H2X 1632   3.903   4.114   3.049  0.0548  0.7523 -0.7816
   13SAPS   H2Y 1633   4.049   4.197   3.099 -1.7436  0.4682 -1.2740
   13SAPS   C23 1634   4.486   4.163   3.297 -0.4149  0.6296 -0.6325
   13SAPS   H3R 1635   4.397   4.224   3.326 -1.3886 -1.6982  1.6953
   13SAPS   H3S 1636   4.568   4.227   3.258 -1.4936  1.6879 -1.2308
   13SAPS   C24 1637   4.529   4.108   3.440  0.6554  0.0598 -0.0587
   13SAPS   H4R 1638   4.552   4.200   3.498 -1.4478  1.2060 -0.9177
   13SAPS   H4S 1639   4.622   4.055   3.411  0.1562  0.5374 -2.8401
   13SAPS   C25 1640   4.439   4.013   3.516  0.5153 -0.4262  0.0070
   13SAPS   H5R 1641   4.352   3.981   3.457  0.3464 -0.8030  0.4574
   13SAPS   C26 1642   4.446   4.003   3.654  0.1724  0.3398 -0.1646
   13SAPS   H6R 1643   4.371   3.941   3.706 -0.6307  0.3693 -1.2579
   13SAPS   C27 1644   4.551   4.058   3.754 -0.2432  0.2149 -0.9230
   13SAPS   H7R 1645   4.644   4.073   3.696  2.1883 -1.1421  2.3395
   13SAPS   H7S 1646   4.571   3.984   3.834 -1.0214 -1.9156 -2.5790
   13SAPS   C28 1647   4.514   4.194   3.810 -0.6246  0.1957  0.2383
   13SAPS   H8R 1648   4.499   4.274   3.736  0.4834 -1.5684 -2.0326
   13SAPS   C29 1649   4.493   4.220   3.946 -0.3304 -0.0183  0.1102
   13SAPS   H9R 1650   4.468   4.318   3.989 -0.3187 -0.7120  1.7977
   13SAPS  C210 1651   4.527   4.120   4.057 -0.1404  0.1303 -0.4446
   13SAPS  H10R 1652   4.560   4.173   4.149  0.6083 -2.0386  0.6150
   13SAPS  H10S 1653   4.614   4.054   4.040  0.3687  0.8207 -0.5733
   13SAPS  C211 1654   4.398   4.037   4.083 -1.0289  0.0473 -0.4013
   13SAPS  H11R 1655   4.358   3.999   3.988 -1.4531  0.8418 -0.5474
   13SAPS  C212 1656   4.362   3.982   4.204  0.4032  0.3675  0.2390
   13SAPS  H12R 1657   4.266   3.929   4.203  1.6953 -2.1166  0.5244
   13SAPS  C213 1658   4.412   4.019   4.335 -0.5763  0.2217 -0.2487
   13SAPS  H13R 1659   4.336   4.092   4.372  0.5182  0.0759  2.4854
   13SAPS  H13S 1660   4.512   4.067   4.328 -0.7090  0.4765 -0.4444
   13SAPS  C214 1661   4.428   3.888   4.411 -0.3857 -0.5669 -0.1331
   13SAPS  H14R 1662   4.342   3.822   4.423 -1.3372  0.6668  0.0298
   13SAPS  C215 1663   4.542   3.858   4.484 -0.6639 -0.4385  0.4545
   13SAPS  H15R 1664   4.551   3.756   4.524  1.4077 -0.8595 -0.9459
   13SAPS  C216 1665   4.663   3.945   4.523 -0.2507  0.0452  0.2555
   13SAPS  H16R 1666   4.630   4.051   4.519 -2.1120 -0.5053 -2.6243
   13SAPS  H16S 1667   4.746   3.929   4.452 -2.3242  0.0405 -2.3479
   13SAPS  C217 1668   4.696   3.916   4.674  0.1365 -0.2463 -0.0725
   13SAPS  H17R 1669   4.716   3.807   4.677 -1.5252 -0.6047 -1.0377
   13SAPS  H17S 1670   4.603   3.947   4.727 -1.9177  0.1279 -3.5852
   13SAPS  C218 1671   4.809   4.011   4.721  0.0673  0.3976 -0.0197
   13SAPS  H18R 1672   4.787   4.120   4.710 -0.1984  0.2002 -1.7816
   13SAPS  H18S 1673   4.902   3.999   4.663  0.1584  1.6188 -0.1535
   13SAPS  C219 1674   4.847   3.998   4.869 -0.3867 -0.3782  0.2407
   13SAPS  H19R 1675   4.944   4.049   4.883 -1.2933  1.0228  1.8362
   13SAPS  H19S 1676   4.859   3.890   4.893  3.6742 -0.0921  0.1649
   13SAPS  C220 1677   4.747   4.057   4.970  0.1298 -0.3041  0.0774
   13SAPS  H20R 1678   4.645   4.014   4.968  0.6703 -1.6454 -0.2954
   13SAPS  H20S 1679   4.736   4.166   4.956 -0.0052 -0.2872  0.3321
   13SAPS  H20T 1680   4.787   4.039   5.072  0.3438 -0.6146 -0.0564
   13SAPS   C33 1681   3.948   4.083   3.254 -0.7630  0.5230  0.7951
   13SAPS   H3X 1682   3.897   3.985   3.266  2.1284 -1.0114  1.4695
   13SAPS   H3Y 1683   3.868   4.160   3.259  0.5942  1.9629  1.1414
   13SAPS   C34 1684   4.059   4.122   3.357  0.1329 -0.0961 -0.2567
   13SAPS   H4X 1685   4.122   4.209   3.327  0.8593 -0.0516  1.3098
   13SAPS   H4Y 1686   4.129   4.037   3.356 -0.0070 -0.3504 -3.9584
   13SAPS   C35 1687   4.005   4.147   3.501 -0.6929 -0.4867  0.6215
   13SAPS   H5X 1688   3.984   4.040   3.523 -0.2651 -0.8359 -0.5849
   13SAPS   H5Y 1689   3.911   4.205   3.492  0.9123  2.2231  0.3286
   13SAPS   C36 1690   4.102   4.182   3.616 -0.3936 -1.0535  0.5451
   13SAPS   H6X 1691   4.114   4.292   3.609  0.0280 -1.0812  0.8122
   13SAPS   H6Y 1692   4.204   4.145   3.590  0.3762  1.1266  0.3023
   13SAPS   C37 1693   4.066   4.128   3.751 -1.1360  0.2708  0.0125
   13SAPS   H7X 1694   4.142   4.154   3.828  0.0165  1.1235 -1.3413
   13SAPS   H7Y 1695   4.053   4.018   3.751 -2.8618  0.4135 -2.1503
   13SAPS   C38 1696   3.935   4.188   3.798  0.2703  0.2027  0.1028
   13SAPS   H8X 1697   3.854   4.160   3.726 -1.8795  2.9369  1.2706
   13SAPS   H8Y 1698   3.948   4.298   3.796 -0.3672  0.3658  2.4266
   13SAPS   C39 1699   3.891   4.146   3.942  0.3706  0.6451  0.0088
   13SAPS   H9X 1700   3.889   4.035   3.948  3.3864  0.5766  1.9580
   13SAPS   H9Y 1701   3.797   4.200   3.967  0.1207  0.1900  0.0615
   13SAPS  C310 1702   3.979   4.194   4.060  0.5138 -0.7910 -0.5658
   13SAPS  H10X 1703   3.959   4.302   4.076  2.9290 -0.3810  0.1806
   13SAPS  H10Y 1704   4.087   4.186   4.035  0.8393  0.9803  0.1057
   13SAPS  C311 1705   3.950   4.121   4.194  0.2501  0.3140 -0.9669
   13SAPS  H11X 1706   4.012   4.029   4.201  0.9980  0.7851 -1.2367
   13SAPS  H11Y 1707   3.842   4.094   4.195 -0.1620  1.7167  1.5331
   13SAPS  C312 1708   3.961   4.207   4.322  0.4845  0.2808  0.1897
   13SAPS  H12X 1709   3.927   4.308   4.292  0.6092 -0.1138 -1.3392
   13SAPS  H12Y 1710   4.069   4.227   4.343  0.8318  1.8177 -2.5371
   13SAPS  C313 1711   3.893   4.154   4.447 -0.3092  0.0246  0.0899
   13SAPS  H13X 1712   3.894   4.043   4.445 -0.7119  0.0281 -0.9094
   13SAPS  H13Y 1713   3.789   4.193   4.453 -0.1427  0.2643  1.7724
   13SAPS  C314 1714   3.970   4.197   4.576  0.1005  0.1435 -0.3666
   13SAPS  H14X 1715   3.973   4.308   4.580 -0.2287  0.2200 -1.7969
   13SAPS  H14Y 1716   4.075   4.171   4.551  1.2110  1.7063  2.1978
   13SAPS  C315 1717   3.924   4.147   4.707 -0.0443 -0.5719  0.0985
   13SAPS  H15X 1718   3.888   4.043   4.694 -0.4690 -0.4247  0.0669
   13SAPS  H15Y 1719   3.840   4.211   4.743 -0.5620 -0.6520 -0.9158
   13SAPS  C316 1720   4.034   4.127   4.802 -0.1702  0.5487 -0.3582
   13SAPS  H16X 1721   4.084   4.226   4.794 -0.4920  0.8375  0.8776
   13SAPS  H16Y 1722   4.104   4.054   4.757  0.8352  0.9376  0.5315
   13SAPS  C317 1723   3.971   4.078   4.934  0.0980 -0.5267 -0.6095
   13SAPS  H17X 1724   3.936   3.972   4.928 -0.0339 -0.4990 -0.3269
   13SAPS  H17Y 1725   3.885   4.146   4.953 -0.9229 -2.0243  0.3872
   13SAPS  C318 1726   4.058   4.095   5.061 -0.4113 -0.3227  0.2622
   13SAPS  H18X 1727   4.153   4.041   5.042 -0.3222 -0.1593  0.2509
   13SAPS  H18Y 1728   4.003   4.047   5.145 -0.0100  0.3279  0.9029
   13SAPS  H18Z 1729   4.071   4.203   5.080 -0.3632 -0.6674  2.3966
   14SAPS     N 1730   1.223   6.580   2.592  0.1445 -0.1385 -0.5602
   14SAPS   HN1 1731   1.138   6.583   2.533 -0.9872 -0.0853  0.9980
   14SAPS   HN2 1732   1.223   6.666   2.651  0.6046  1.3711 -2.6774
   14SAPS   HN3 1733   1.311   6.585   2.537  0.0432  0.0578 -0.7022
   14SAPS   C12 1734   1.230   6.460   2.677  0.6380 -0.0532  0.1030
   14SAPS  H12A 1735   1.134   6.457   2.726 -0.1129  0.3991 -1.2828
   14SAPS   C13 1736   1.256   6.321   2.620  0.2998 -0.5113 -0.0389
   14SAPS  O13A 1737   1.249   6.313   2.491 -0.2167  0.1629 -0.0318
   14SAPS  O13B 1738   1.262   6.223   2.698  0.0287  0.3169  0.1963
   14SAPS   C11 1739   1.338   6.498   2.786  0.2334 -0.5531 -1.0220
   14SAPS  H11A 1740   1.350   6.407   2.849  3.9169 -0.0118 -0.7207
   14SAPS  H11B 1741   1.318   6.582   2.857  1.7876  0.3296 -1.5779
   14SAPS     P 1742   1.591   6.544   2.827  0.1453  0.8197 -0.6856
   14SAPS   O13 1743   1.720   6.519   2.758  0.2901 -0.6205 -0.5730
   14SAPS   O14 1744   1.584   6.677   2.894 -0.0107  0.0711 -0.4709
   14SAPS   O12 1745   1.467   6.535   2.736  0.1277 -0.1898 -0.4165
   14SAPS   O11 1746   1.565   6.431   2.945  0.6133  0.5059 -0.3162
   14SAPS    C1 1747   1.618   6.457   3.072  0.6250  0.3303  0.2524
   14SAPS    HA 1748   1.728   6.452   3.065  0.5863 -2.0861  0.5010
   14SAPS    HB 1749   1.602   6.563   3.102 -0.3072 -0.0584  1.2288
   14SAPS    C2 1750   1.568   6.361   3.186  0.3942 -0.3447 -0.4094
   14SAPS    HS 1751   1.559   6.262   3.136  1.0485  0.4610 -2.2092
   14SAPS   O21 1752   1.450   6.424   3.238  0.8805  0.2666 -0.2897
   14SAPS   C21 1753   1.362   6.332   3.272  0.5066  0.6894  0.0696
   14SAPS   O22 1754   1.384   6.213   3.283 -0.2945 -0.2500 -0.0088
   14SAPS   C22 1755   1.243   6.407   3.327 -0.2762 -0.2266  0.8354
   14SAPS   H2R 1756   1.203   6.469   3.244  2.4360  0.6333  0.0661
   14SAPS   H2S 1757   1.174   6.321   3.340 -0.6474 -0.3725 -1.6824
   14SAPS    C3 1758   1.675   6.356   3.298 -0.0193  0.2726  0.6248
   14SAPS    HX 1759   1.687   6.459   3.338 -0.2875  1.5222 -2.2815
   14SAPS    HY 1760   1.772   6.321   3.256 -0.5719 -2.7319  1.5841
   14SAPS   O31 1761   1.633   6.273   3.407  0.1428 -0.3367  0.0489
   14SAPS   C31 1762   1.657   6.139   3.401  0.0775  0.8224 -0.0615
   14SAPS   O32 1763   1.705   6.079   3.305  0.1481  0.5330 -0.2051
   14SAPS   C32 1764   1.617   6.078   3.532  1.2046  0.1344 -0.8225
   14SAPS   H2X 1765   1.528   6.013   3.515  1.1848  0.1874 -0.9284
   14SAPS   H2Y 1766   1.571   6.164   3.586 -0.2508 -0.3139 -1.2754
   14SAPS   C23 1767   1.277   6.484   3.455 -0.5715  0.1337 -0.5069
   14SAPS   H3R 1768   1.180   6.508   3.503 -0.0546 -2.1881  1.9373
   14SAPS   H3S 1769   1.326   6.583   3.441  0.1317  0.2023  1.8941
   14SAPS   C24 1770   1.358   6.399   3.555 -0.8005 -0.1888 -0.3635
   14SAPS   H4R 1771   1.393   6.462   3.640  0.4009 -1.6575  0.2648
   14SAPS   H4S 1772   1.461   6.376   3.520  0.7827 -0.3004  3.8015
   14SAPS   C25 1773   1.303   6.277   3.612  0.2033 -0.5975 -0.2712
   14SAPS   H5R 1774   1.299   6.192   3.542 -1.2768 -2.4103  1.8382
   14SAPS   C26 1775   1.255   6.257   3.738  0.5892 -0.8040 -0.5831
   14SAPS   H6R 1776   1.216   6.157   3.761 -0.5361 -0.2712 -0.0993
   14SAPS   C27 1777   1.249   6.360   3.847 -0.6283 -0.3901 -0.9523
   14SAPS   H7R 1778   1.163   6.335   3.913  1.0551  1.0847  2.0363
   14SAPS   H7S 1779   1.218   6.460   3.808 -2.1541  0.3281  1.7904
   14SAPS   C28 1780   1.365   6.373   3.946  0.0667  0.0208  0.3050
   14SAPS   H8R 1781   1.464   6.388   3.900 -0.5669 -0.7835 -1.3742
   14SAPS   C29 1782   1.354   6.370   4.082  0.9368  0.3701 -0.5825
   14SAPS   H9R 1783   1.447   6.365   4.141  2.5744 -1.6883 -3.1166
   14SAPS  C210 1784   1.229   6.350   4.161 -0.0901  0.4071 -0.5064
   14SAPS  H10R 1785   1.154   6.285   4.110  0.9664 -0.4641 -0.9832
   14SAPS  H10S 1786   1.185   6.452   4.168  1.5224  1.1182 -0.3955
   14SAPS  C211 1787   1.256   6.292   4.298 -0.5057 -0.4582  0.6000
   14SAPS  H11R 1788   1.278   6.185   4.284  0.0619 -0.1176 -1.3001
   14SAPS  C212 1789   1.248   6.356   4.414 -0.6687 -0.1256  0.2449
   14SAPS  H12R 1790   1.297   6.318   4.505 -1.1139  1.2132  1.0744
   14SAPS  C213 1791   1.212   6.505   4.434 -0.1730  1.1937 -0.4086
   14SAPS  H13R 1792   1.245   6.567   4.348  5.4934  0.8500  1.1249
   14SAPS  H13S 1793   1.283   6.541   4.512  0.3676  0.3044 -0.4769
   14SAPS  C214 1794   1.074   6.528   4.471  0.4563  0.0824  0.1445
   14SAPS  H14R 1795   1.016   6.575   4.391  0.2517  0.3287  0.4363
   14SAPS  C215 1796   1.016   6.508   4.589  0.2743  0.1000 -0.8906
   14SAPS  H15R 1797   0.906   6.505   4.589  0.2947 -0.8797 -1.4881
   14SAPS  C216 1798   1.075   6.465   4.717 -0.5972  0.1330 -0.6145
   14SAPS  H16R 1799   1.165   6.409   4.684 -0.3685 -1.3335  2.2293
   14SAPS  H16S 1800   1.013   6.396   4.778  0.0543  1.0300  1.1421
   14SAPS  C217 1801   1.123   6.587   4.811  0.0041  0.2305 -0.1289
   14SAPS  H17R 1802   1.181   6.655   4.746 -0.2548  1.3201  0.7451
   14SAPS  H17S 1803   1.197   6.553   4.886 -1.6611 -0.2351  1.3800
   14SAPS  C218 1804   1.017   6.667   4.896  0.8488 -0.3073 -0.5755
   14SAPS  H18R 1805   0.951   6.609   4.966 -1.1714 -0.5068 -2.5274
   14SAPS  H18S 1806   0.940   6.707   4.827 -1.2062 -1.0559  1.1693
   14SAPS  C219 1807   1.072   6.793   4.968 -0.1100 -0.0389 -0.5353
   14SAPS  H19R 1808   1.163   6.833   4.918  2.1600 -0.4511  2.9426
   14SAPS  H19S 1809   1.119   6.764   5.064  0.8203 -0.9191 -1.2336
   14SAPS  C220 1810   0.966   6.896   5.009  0.4278  0.3350  0.0778
   14SAPS  H20R 1811   0.938   6.963   4.925 -0.0246  1.3272  0.9932
   14SAPS  H20S 1812   1.005   6.972   5.081 -0.0391  1.3934 -0.7663
   14SAPS  H20T 1813   0.872   6.854   5.051 -1.3125  1.4674 -2.4355
   14SAPS   C33 1814   1.728   6.007   3.605  0.1841  0.0223 -0.5678
   14SAPS   H3X 1815   1.826   6.059   3.601  0.6540 -0.6971  0.7706
   14SAPS   H3Y 1816   1.750   5.906   3.564  1.7861 -0.6515  1.7184
   14SAPS   C34 1817   1.694   5.999   3.757  0.2687 -0.2475  0.0413
   14SAPS   H4X 1818   1.648   6.088   3.806  1.2057  0.5831 -0.5421
   14SAPS   H4Y 1819   1.787   5.974   3.811  0.4946  0.8573  0.1895
   14SAPS   C35 1820   1.590   5.885   3.782  0.0085 -0.6493  0.2091
   14SAPS   H5X 1821   1.646   5.792   3.758  0.0829 -0.4121 -0.5792
   14SAPS   H5Y 1822   1.521   5.899   3.696  0.8248  0.6861 -0.2769
   14SAPS   C36 1823   1.531   5.859   3.921  0.2271 -0.3308 -0.9927
   14SAPS   H6X 1824   1.461   5.773   3.913 -1.7286  1.3765 -4.6320
   14SAPS   H6Y 1825   1.468   5.946   3.949 -0.6957 -1.7392  1.7469
   14SAPS   C37 1826   1.632   5.835   4.036  0.5987  0.0373 -0.3308
   14SAPS   H7X 1827   1.709   5.915   4.028  1.2729 -0.6308 -0.6192
   14SAPS   H7Y 1828   1.684   5.737   4.031  1.8513  0.1625  4.8146
   14SAPS   C38 1829   1.574   5.845   4.179 -0.4247 -0.3672 -0.6799
   14SAPS   H8X 1830   1.621   5.770   4.246 -1.4459  0.8080  1.4788
   14SAPS   H8Y 1831   1.471   5.805   4.172 -0.4041 -1.0923  2.0607
   14SAPS   C39 1832   1.571   5.987   4.238 -0.6215 -0.5691  0.1740
   14SAPS   H9X 1833   1.519   6.067   4.181  3.3403  1.7803 -0.5608
   14SAPS   H9Y 1834   1.676   6.023   4.234 -0.6679 -0.4484  0.0329
   14SAPS  C310 1835   1.509   5.994   4.374  0.2848 -0.1912 -0.8323
   14SAPS  H10X 1836   1.535   5.903   4.431 -1.0353  0.1466  0.3627
   14SAPS  H10Y 1837   1.398   5.993   4.376  0.2757  0.1452 -1.0063
   14SAPS  C311 1838   1.554   6.113   4.462  0.0158 -0.2543 -0.3239
   14SAPS  H11X 1839   1.541   6.215   4.422  3.7212  1.0846  1.4500
   14SAPS  H11Y 1840   1.664   6.102   4.472  0.3907  0.1168 -3.1459
   14SAPS  C312 1841   1.473   6.094   4.593 -0.1763  0.4592  0.0669
   14SAPS  H12X 1842   1.515   6.006   4.646 -1.4707  0.2600  0.7753
   14SAPS  H12Y 1843   1.366   6.069   4.582 -0.1614 -0.2052  1.2485
   14SAPS  C313 1844   1.485   6.212   4.687  0.6178  0.2536 -0.1947
   14SAPS  H13X 1845   1.439   6.309   4.656 -1.0008 -0.3314  0.2497
   14SAPS  H13Y 1846   1.594   6.235   4.686  0.5427  0.6678 -2.0329
   14SAPS  C314 1847   1.451   6.205   4.837 -0.4365 -0.1694  1.0611
   14SAPS  H14X 1848   1.495   6.299   4.876  2.4697 -0.4464 -1.2486
   14SAPS  H14Y 1849   1.507   6.120   4.881 -1.1517 -1.5046 -0.4767
   14SAPS  C315 1850   1.302   6.189   4.872 -0.3046 -0.1220 -0.4128
   14SAPS  H15X 1851   1.258   6.095   4.832 -0.0393 -1.0415  1.3662
   14SAPS  H15Y 1852   1.241   6.274   4.836 -0.1963  0.4137  0.6246
   14SAPS  C316 1853   1.275   6.150   5.016  0.2880 -1.0223 -0.9520
   14SAPS  H16X 1854   1.323   6.236   5.066 -1.8658 -1.1082  1.4753
   14SAPS  H16Y 1855   1.335   6.064   5.052  1.5266  0.7230  1.4186
   14SAPS  C317 1856   1.126   6.142   5.048  0.2359 -0.0161 -0.1711
   14SAPS  H17X 1857   1.073   6.223   4.993  0.0896 -0.2176 -0.3284
   14SAPS  H17Y 1858   1.104   6.174   5.152 -0.9700 -0.7692 -0.1860
   14SAPS  C318 1859   1.056   6.005   5.008 -0.2130  0.3176  0.2599
   14SAPS  H18X 1860   1.004   6.027   4.912 -1.2876  0.8295  0.9316
   14SAPS  H18Y 1861   0.987   5.979   5.091 -1.1979  0.8895 -0.3607
   14SAPS  H18Z 1862   1.146   5.941   5.015 -1.2396 -1.0622  1.4060
   15SAPS     N 1863   6.668   6.354   2.431  0.4596  0.4715  0.5558
   15SAPS   HN1 1864   6.568   6.326   2.429  0.4088  0.4448  2.0619
   15SAPS   HN2 1865   6.693   6.387   2.526  1.0169 -0.0842  0.6064
   15SAPS   HN3 1866   6.679   6.435   2.366  0.5705  2.8689  3.3596
   15SAPS   C12 1867   6.774   6.247   2.392  0.1343  0.2745 -0.7396
   15SAPS  H12A 1868   6.734   6.196   2.306 -0.2977 -2.9551  1.1998
   15SAPS   C13 1869   6.906   6.306   2.351  0.1885 -0.2814 -0.2705
   15SAPS  O13A 1870   6.933   6.429   2.341  0.2289 -0.4533  0.4366
   15SAPS  O13B 1871   7.004   6.222   2.344  0.8849 -0.3202 -0.0328
   15SAPS   C11 1872   6.788   6.152   2.516  0.4432 -0.1026 -0.3746
   15SAPS  H11A 1873   6.809   6.212   2.607 -1.3619 -0.7932  0.5517
   15SAPS  H11B 1874   6.869   6.079   2.498 -1.0285 -1.6517 -0.9928
   15SAPS     P 1875   6.677   5.947   2.622  0.0194  0.7450  0.6576
   15SAPS   O13 1876   6.550   5.869   2.611 -0.3043  0.8329  0.7706
   15SAPS   O14 1877   6.805   5.878   2.579  0.5700  0.1676  0.0154
   15SAPS   O12 1878   6.665   6.076   2.539 -0.2613  0.8954  0.3273
   15SAPS   O11 1879   6.691   6.001   2.771 -0.4947  0.5229 -0.0593
   15SAPS    C1 1880   6.813   6.057   2.823  0.2434  0.1773  1.4279
   15SAPS    HA 1881   6.895   6.069   2.749 -1.4882 -1.4930 -0.8939
   15SAPS    HB 1882   6.793   6.160   2.859 -0.6497  0.3887  0.3592
   15SAPS    C2 1883   6.872   5.970   2.945 -0.6003  0.3055  0.8790
   15SAPS    HS 1884   6.948   6.035   2.993  0.0518  1.7910 -1.9600
   15SAPS   O21 1885   6.923   5.844   2.901 -0.2371 -0.3572 -0.2358
   15SAPS   C21 1886   7.051   5.869   2.858 -0.2220  0.4810  0.6766
   15SAPS   O22 1887   7.109   5.973   2.858  0.5048 -0.0720  0.3599
   15SAPS   C22 1888   7.123   5.739   2.825 -0.1858 -0.5202 -0.4283
   15SAPS   H2R 1889   7.076   5.684   2.740  2.7938 -3.3483 -0.4635
   15SAPS   H2S 1890   7.219   5.761   2.772 -0.4385 -0.5285 -0.8936
   15SAPS    C3 1891   6.769   5.947   3.053 -0.4377 -0.1330  0.4544
   15SAPS    HX 1892   6.697   5.870   3.020  1.1960 -0.5419 -2.4981
   15SAPS    HY 1893   6.718   6.040   3.084 -0.3997  0.3693 -0.9571
   15SAPS   O31 1894   6.834   5.903   3.169 -0.3865 -0.2807 -0.6801
   15SAPS   C31 1895   6.843   5.773   3.197  0.0709  0.8699  0.5274
   15SAPS   O32 1896   6.789   5.680   3.128  0.0539  0.9473 -0.4850
   15SAPS   C32 1897   6.911   5.752   3.331 -0.1372  0.5190 -0.6806
   15SAPS   H2X 1898   7.018   5.729   3.313  0.5767  1.4892  1.9376
   15SAPS   H2Y 1899   6.867   5.660   3.375 -1.0257 -0.3924 -3.2706
   15SAPS   C23 1900   7.149   5.641   2.944 -0.2346  0.0970 -0.2612
   15SAPS   H3R 1901   7.170   5.542   2.896  1.2427  1.1338 -1.8729
   15SAPS   H3S 1902   7.051   5.631   2.995 -0.2132  0.0425 -0.2305
   15SAPS   C24 1903   7.259   5.683   3.042 -0.0171  0.1822 -0.0581
   15SAPS   H4R 1904   7.236   5.785   3.080 -0.5740 -0.2748  0.8707
   15SAPS   H4S 1905   7.354   5.685   2.985 -0.5850 -1.8617 -1.1534
   15SAPS   C25 1906   7.279   5.602   3.166  0.4982 -0.4119 -1.1260
   15SAPS   H5R 1907   7.215   5.624   3.253 -0.0998 -0.4322 -1.5569
   15SAPS   C26 1908   7.363   5.500   3.183  0.3981  0.4609 -0.2697
   15SAPS   H6R 1909   7.374   5.445   3.277 -1.8282  0.5637  0.0931
   15SAPS   C27 1910   7.446   5.439   3.073 -0.9710  0.9183  0.3139
   15SAPS   H7R 1911   7.390   5.441   2.978  0.0005 -1.6495 -0.3954
   15SAPS   H7S 1912   7.452   5.333   3.106  2.6808  0.8294 -0.1854
   15SAPS   C28 1913   7.587   5.499   3.052  0.1548 -0.8644 -0.1113
   15SAPS   H8R 1914   7.583   5.591   2.993 -1.2441  1.2749  3.0135
   15SAPS   C29 1915   7.703   5.473   3.122  0.1916 -0.4070 -0.4064
   15SAPS   H9R 1916   7.790   5.517   3.071  0.3736  0.6680  0.7717
   15SAPS  C210 1917   7.742   5.365   3.224  0.5195 -1.0097 -0.1114
   15SAPS  H10R 1918   7.655   5.336   3.287  0.7158  0.3104  0.8048
   15SAPS  H10S 1919   7.812   5.397   3.304 -0.4284 -0.0506  0.3599
   15SAPS  C211 1920   7.788   5.237   3.157  0.1972 -0.2942 -0.0287
   15SAPS  H11R 1921   7.752   5.223   3.054 -0.0764  1.4187 -0.1893
   15SAPS  C212 1922   7.846   5.127   3.215 -0.3575  0.3492  1.1230
   15SAPS  H12R 1923   7.869   5.040   3.152 -0.9071  1.0497 -0.1006
   15SAPS  C213 1924   7.884   5.119   3.358 -0.4890  0.5899 -0.2344
   15SAPS  H13R 1925   7.800   5.117   3.430 -0.2790 -0.7048 -0.0007
   15SAPS  H13S 1926   7.944   5.208   3.387  1.1081 -0.9426  1.3479
   15SAPS  C214 1927   7.973   4.999   3.387 -0.1045  0.1640  0.1782
   15SAPS  H14R 1928   7.926   4.907   3.424 -0.3898 -0.0311 -0.6623
   15SAPS  C215 1929   8.101   4.978   3.361 -0.1995 -0.2078  0.4667
   15SAPS  H15R 1930   8.144   4.880   3.385  0.3491  0.2468  1.4183
   15SAPS  C216 1931   8.187   5.076   3.286 -0.3284 -1.1319  0.0696
   15SAPS  H16R 1932   8.122   5.147   3.231  0.1246  0.6162  1.6832
   15SAPS  H16S 1933   8.253   5.012   3.222 -1.0096 -1.4590 -0.3121
   15SAPS  C217 1934   8.279   5.175   3.358 -0.2936  0.5844 -0.2120
   15SAPS  H17R 1935   8.258   5.174   3.468  1.8904  0.7886  0.2606
   15SAPS  H17S 1936   8.272   5.278   3.317  0.0586  0.3965 -0.7477
   15SAPS  C218 1937   8.431   5.137   3.346  0.3770 -0.4499  0.5268
   15SAPS  H18R 1938   8.492   5.219   3.390 -0.0483 -1.3103  2.8699
   15SAPS  H18S 1939   8.459   5.121   3.240  0.1510 -0.7291  0.5087
   15SAPS  C219 1940   8.467   5.013   3.428  0.2201  0.3506 -0.1696
   15SAPS  H19R 1941   8.409   4.931   3.379  0.1854 -0.7721  1.6411
   15SAPS  H19S 1942   8.418   5.027   3.527  0.5898  1.1063 -0.0928
   15SAPS  C220 1943   8.616   4.962   3.436  0.9268 -0.2219 -0.2988
   15SAPS  H20R 1944   8.680   5.022   3.504  0.5742  1.3578 -1.3055
   15SAPS  H20S 1945   8.657   4.983   3.335 -2.3788  2.5785 -1.2896
   15SAPS  H20T 1946   8.619   4.852   3.452  2.5101 -0.0737  0.6331
   15SAPS   C33 1947   6.899   5.870   3.428 -0.6279 -0.3743  0.1083
   15SAPS   H3X 1948   6.794   5.906   3.438  0.0866  2.4238 -1.4988
   15SAPS   H3Y 1949   6.960   5.951   3.383 -1.1154 -0.4747 -0.7712
   15SAPS   C34 1950   6.954   5.845   3.571  0.1140  0.1711  0.4990
   15SAPS   H4X 1951   6.958   5.942   3.625  1.0169 -0.4738  1.6322
   15SAPS   H4Y 1952   7.054   5.798   3.562  0.8312  1.4105  1.6398
   15SAPS   C35 1953   6.855   5.757   3.644 -0.4407  0.2685  0.1102
   15SAPS   H5X 1954   6.851   5.653   3.604  0.7610  0.7969 -1.4644
   15SAPS   H5Y 1955   6.756   5.805   3.627 -0.8488 -1.0315 -1.4599
   15SAPS   C36 1956   6.882   5.749   3.797  0.0222  0.1525  0.0879
   15SAPS   H6X 1957   6.986   5.720   3.824 -0.1593  1.6302  2.6489
   15SAPS   H6Y 1958   6.820   5.668   3.839 -0.6472  1.5527  1.8966
   15SAPS   C37 1959   6.846   5.873   3.884  0.3324  0.0262  0.0541
   15SAPS   H7X 1960   6.743   5.912   3.874  0.6842  1.7165  2.2058
   15SAPS   H7Y 1961   6.912   5.957   3.852 -0.0841 -0.5167 -2.3522
   15SAPS   C38 1962   6.843   5.838   4.034  0.8523 -0.0118  0.1019
   15SAPS   H8X 1963   6.949   5.826   4.065  0.6825 -1.5577  0.1866
   15SAPS   H8Y 1964   6.797   5.738   4.053  0.3966 -0.0176 -0.9458
   15SAPS   C39 1965   6.789   5.938   4.137  0.0593  0.5345 -0.4675
   15SAPS   H9X 1966   6.682   5.953   4.114 -0.1770 -0.6394 -0.1962
   15SAPS   H9Y 1967   6.841   6.034   4.115  1.4663 -0.4784 -1.8016
   15SAPS  C310 1968   6.812   5.888   4.281  0.0114 -0.1937  0.0086
   15SAPS  H10X 1969   6.906   5.830   4.279  0.4723  0.5103  0.4699
   15SAPS  H10Y 1970   6.736   5.810   4.301 -0.6201  0.9773  2.6546
   15SAPS  C311 1971   6.801   5.997   4.386  0.5702  0.4861  0.1042
   15SAPS  H11X 1972   6.704   6.048   4.371  1.0710  1.4850  0.1468
   15SAPS  H11Y 1973   6.876   6.079   4.380  0.4243  0.6240  0.1420
   15SAPS  C312 1974   6.770   5.939   4.527 -0.4635 -0.4125 -0.2467
   15SAPS  H12X 1975   6.728   5.837   4.519  1.3893 -1.2380 -0.0539
   15SAPS  H12Y 1976   6.696   5.996   4.588 -0.4972 -1.7008  0.9846
   15SAPS  C313 1977   6.898   5.939   4.611 -0.1663 -0.6384 -0.0556
   15SAPS  H13X 1978   6.940   6.041   4.623  1.8075 -1.5703  1.9603
   15SAPS  H13Y 1979   6.982   5.885   4.562  0.0752 -0.7927  0.5182
   15SAPS  C314 1980   6.874   5.906   4.762  0.0019  0.6118 -0.1177
   15SAPS  H14X 1981   6.846   5.801   4.784 -2.8334  1.4441  0.6630
   15SAPS  H14Y 1982   6.798   5.978   4.799  0.3355  0.4567  0.8806
   15SAPS  C315 1983   6.999   5.941   4.850 -0.2863 -0.2475  0.6443
   15SAPS  H15X 1984   7.040   6.031   4.799 -1.2424  1.4108  2.6171
   15SAPS  H15Y 1985   7.070   5.857   4.832  1.8825  1.4050  1.0353
   15SAPS  C316 1986   6.958   5.958   4.992 -0.2157  0.3757  0.0492
   15SAPS  H16X 1987   6.918   5.862   5.031 -0.2469  1.2218  2.2467
   15SAPS  H16Y 1988   6.879   6.036   4.985  0.9746  1.5951 -0.2414
   15SAPS  C317 1989   7.076   5.995   5.078  0.8806  0.0735  0.2739
   15SAPS  H17X 1990   7.057   6.021   5.184 -1.0867  0.1517 -0.0754
   15SAPS  H17Y 1991   7.118   6.092   5.043  1.0002  0.1865  0.7214
   15SAPS  C318 1992   7.193   5.896   5.077  0.0421 -0.4988  1.2038
   15SAPS  H18X 1993   7.158   5.792   5.061  1.9513 -1.1336  0.8744
   15SAPS  H18Y 1994   7.247   5.898   5.174  1.1459 -0.3394  0.5991
   15SAPS  H18Z 1995   7.270   5.930   5.004 -1.6014 -2.0462 -1.4027
   16SAPS     N 1996   1.568   0.285   2.523 -0.1876  0.4374  0.4688
   16SAPS   HN1 1997   1.528   0.348   2.595  1.8611  1.3038  0.9411
   16SAPS   HN2 1998   1.567   0.182   2.541  3.2240  0.0243 -0.8531
   16SAPS   HN3 1999   1.668   0.315   2.516  0.8741 -2.7325  0.1711
   16SAPS   C12 2000   1.505   0.314   2.390 -0.5221  0.3044 -0.8996
   16SAPS  H12A 2001   1.561   0.270   2.309  0.4929 -1.9855  0.9015
   16SAPS   C13 2002   1.369   0.247   2.365 -0.3336 -0.2253  0.1252
   16SAPS  O13A 2003   1.313   0.186   2.462  0.2073 -0.4394  0.3385
   16SAPS  O13B 2004   1.310   0.275   2.256  0.5402  0.2217 -0.1316
   16SAPS   C11 2005   1.503   0.468   2.377  0.2650 -0.3264  0.0227
   16SAPS  H11A 2006   1.449   0.505   2.287  0.3022  1.3916  0.6854
   16SAPS  H11B 2007   1.608   0.501   2.368  0.0850  0.9115  2.0271
   16SAPS     P 2008   1.368   0.664   2.497 -0.1595 -0.0567  0.1712
   16SAPS   O13 2009   1.446   0.775   2.425  0.2301 -0.6186 -0.1891
   16SAPS   O14 2010   1.233   0.636   2.445 -0.4840  0.6006 -0.0321
   16SAPS   O12 2011   1.444   0.532   2.495 -0.4768 -0.1732  0.3655
   16SAPS   O11 2012   1.354   0.692   2.647  0.6839  0.1699  0.2680
   16SAPS    C1 2013   1.468   0.757   2.705 -0.7001 -0.3204 -0.2746
   16SAPS    HA 2014   1.526   0.673   2.749  1.0940  1.4965  1.0497
   16SAPS    HB 2015   1.532   0.806   2.629 -1.7124 -0.2326 -1.0897
   16SAPS    C2 2016   1.436   0.866   2.810  0.2192  0.1140  0.3764
   16SAPS    HS 2017   1.527   0.914   2.852 -0.6935  0.9004  1.5028
   16SAPS   O21 2018   1.363   0.807   2.917  0.2312  0.2875  0.4836
   16SAPS   C21 2019   1.411   0.725   3.001 -0.5863  0.0577 -1.1489
   16SAPS   O22 2020   1.523   0.679   3.000  0.2682  0.3771 -0.8251
   16SAPS   C22 2021   1.302   0.693   3.113  0.5180  0.5092 -0.0094
   16SAPS   H2R 2022   1.270   0.794   3.148 -0.5714 -0.2393  1.2299
   16SAPS   H2S 2023   1.209   0.651   3.069 -0.6377  1.7246  1.1743
   16SAPS    C3 2024   1.339   0.968   2.744 -0.6501  0.6989 -0.1604
   16SAPS    HX 2025   1.270   0.918   2.673 -0.8347  1.3921 -0.4763
   16SAPS    HY 2026   1.397   1.033   2.676 -0.1314  0.3904 -0.0136
   16SAPS   O31 2027   1.262   1.040   2.845  0.2399  0.2675 -0.0209
   16SAPS   C31 2028   1.341   1.122   2.913 -0.4285 -0.1741 -0.3069
   16SAPS   O32 2029   1.460   1.140   2.894  0.5263  0.2451  0.2515
   16SAPS   C32 2030   1.257   1.180   3.033 -0.1945 -0.5778 -0.1712
   16SAPS   H2X 2031   1.169   1.113   3.041  1.0847 -2.3620 -0.5054
   16SAPS   H2Y 2032   1.219   1.280   3.003  0.0950 -0.5946 -0.6142
   16SAPS   C23 2033   1.364   0.611   3.223 -0.1902 -0.1194  0.0601
   16SAPS   H3R 2034   1.455   0.653   3.271 -0.6563 -1.4203  2.2209
   16SAPS   H3S 2035   1.394   0.507   3.195  1.7994 -0.0889  1.7787
   16SAPS   C24 2036   1.273   0.603   3.348  0.0613 -0.1932 -0.0179
   16SAPS   H4R 2037   1.180   0.558   3.307 -0.3838  0.4860  0.2335
   16SAPS   H4S 2038   1.252   0.709   3.375 -0.1469  0.2537 -1.7753
   16SAPS   C25 2039   1.335   0.514   3.452 -0.3392  0.0874 -1.1984
   16SAPS   H5R 2040   1.354   0.415   3.410 -0.7947 -0.4922 -0.0703
   16SAPS   C26 2041   1.380   0.550   3.578 -0.2303 -0.0916  0.1380
   16SAPS   H6R 2042   1.418   0.482   3.656 -1.2374 -0.0269  0.7052
   16SAPS   C27 2043   1.360   0.691   3.635 -0.3463  0.3868  0.0421
   16SAPS   H7R 2044   1.256   0.731   3.631 -0.3291  0.6092  1.4697
   16SAPS   H7S 2045   1.406   0.767   3.567  0.6686 -0.7808 -0.6099
   16SAPS   C28 2046   1.412   0.714   3.773 -0.3003 -0.5523 -0.0891
   16SAPS   H8R 2047   1.497   0.652   3.807 -0.7135 -0.9334  0.2659
   16SAPS   C29 2048   1.358   0.805   3.865 -0.8465  0.5192 -0.2958
   16SAPS   H9R 2049   1.413   0.813   3.959 -1.1816  0.6532 -0.1110
   16SAPS  C210 2050   1.255   0.911   3.837  1.2967 -0.3428 -0.7486
   16SAPS  H10R 2051   1.178   0.897   3.759  0.1978  1.8317 -0.1299
   16SAPS  H10S 2052   1.313   1.004   3.816  0.5290  0.9549  2.3048
   16SAPS  C211 2053   1.184   0.945   3.966  1.1213  0.3776 -0.0962
   16SAPS  H11R 2054   1.109   0.870   3.997 -0.2323  1.6180 -0.2959
   16SAPS  C212 2055   1.184   1.054   4.046  0.1218  0.1232  0.3365
   16SAPS  H12R 2056   1.121   1.044   4.136 -0.1461  0.1043  0.1477
   16SAPS  C213 2057   1.275   1.171   4.013 -0.5254  0.1392  0.4671
   16SAPS  H13R 2058   1.221   1.246   3.950 -2.4720 -0.7415  1.0214
   16SAPS  H13S 2059   1.367   1.138   3.960 -0.4730  1.7483 -0.5374
   16SAPS  C214 2060   1.318   1.247   4.140 -0.2510  0.4141 -0.2927
   16SAPS  H14R 2061   1.258   1.335   4.165 -0.2695  0.0810  0.8689
   16SAPS  C215 2062   1.399   1.204   4.245  0.1674  0.1267  0.6190
   16SAPS  H15R 2063   1.403   1.265   4.336 -0.1106  1.8594 -0.4775
   16SAPS  C216 2064   1.493   1.083   4.242 -0.1729 -0.3802 -0.3355
   16SAPS  H16R 2065   1.588   1.120   4.286 -0.6124  1.7926 -1.0840
   16SAPS  H16S 2066   1.525   1.046   4.142  1.8233 -0.9847  0.4642
   16SAPS  C217 2067   1.442   0.957   4.308 -0.4821 -0.0987  0.1256
   16SAPS  H17R 2068   1.528   0.886   4.304  1.1815  1.5109  3.3316
   16SAPS  H17S 2069   1.350   0.912   4.264  0.6781 -1.8642 -0.6397
   16SAPS  C218 2070   1.416   0.984   4.460  0.4107  0.4470 -0.4220
   16SAPS  H18R 2071   1.360   0.904   4.512  4.3552 -2.1341  0.3348
   16SAPS  H18S 2072   1.352   1.075   4.459  0.6434  0.6235  0.2209
   16SAPS  C219 2073   1.538   1.025   4.542 -0.8815 -0.3529  0.5855
   16SAPS  H19R 2074   1.595   1.098   4.481 -1.0206 -0.8793 -0.1976
   16SAPS  H19S 2075   1.616   0.947   4.554  1.7351  1.7374 -1.6566
   16SAPS  C220 2076   1.493   1.083   4.675  0.2082 -0.2584  0.4560
   16SAPS  H20R 2077   1.582   1.113   4.735  0.6352  1.6535 -1.0308
   16SAPS  H20S 2078   1.427   1.014   4.731  0.0790  1.4825  2.5834
   16SAPS  H20T 2079   1.438   1.180   4.673  0.3380 -0.1952 -1.0410
   16SAPS   C33 2080   1.343   1.192   3.166  0.1640 -0.9433 -0.0024
   16SAPS   H3X 2081   1.417   1.273   3.153 -0.4515 -0.2788  0.5484
   16SAPS   H3Y 2082   1.390   1.092   3.181 -1.3478 -1.6107  0.5532
   16SAPS   C34 2083   1.268   1.222   3.289 -0.1388 -0.2454 -0.2447
   16SAPS   H4X 2084   1.196   1.141   3.316 -1.4512  1.2224  0.9075
   16SAPS   H4Y 2085   1.203   1.312   3.288  0.4108  0.1919  1.0797
   16SAPS   C35 2086   1.358   1.237   3.417  0.3152 -0.6757 -0.3930
   16SAPS   H5X 2087   1.421   1.328   3.411  1.4593 -1.3233  1.2188
   16SAPS   H5Y 2088   1.428   1.151   3.430 -0.8317 -1.3867  1.3465
   16SAPS   C36 2089   1.267   1.254   3.544 -0.2464 -0.1513 -0.1353
   16SAPS   H6X 2090   1.214   1.159   3.565  0.7707 -0.7544 -0.2656
   16SAPS   H6Y 2091   1.185   1.328   3.530 -2.2572 -2.3609 -0.7104
   16SAPS   C37 2092   1.350   1.298   3.672  0.0657 -1.0982 -0.3349
   16SAPS   H7X 2093   1.423   1.219   3.698 -0.3928 -1.5620 -0.4413
   16SAPS   H7Y 2094   1.277   1.306   3.755  1.7149 -1.9653  1.2603
   16SAPS   C38 2095   1.420   1.435   3.661 -1.4951 -0.9234 -0.0385
   16SAPS   H8X 2096   1.359   1.524   3.635  1.8091  1.3028 -0.6486
   16SAPS   H8Y 2097   1.499   1.423   3.585 -2.2207 -2.1656 -0.6355
   16SAPS   C39 2098   1.475   1.467   3.800  0.1180  0.4248  0.5477
   16SAPS   H9X 2099   1.537   1.380   3.830 -1.8792 -0.8035  1.2679
   16SAPS   H9Y 2100   1.393   1.483   3.873 -0.9575  1.4601 -0.8256
   16SAPS  C310 2101   1.548   1.596   3.801 -0.3324  0.4669 -0.4504
   16SAPS  H10X 2102   1.476   1.681   3.795 -1.1723 -0.1792  0.2868
   16SAPS  H10Y 2103   1.623   1.597   3.718 -0.8388 -0.7666 -0.9365
   16SAPS  C311 2104   1.620   1.621   3.938  0.6343  0.3392  0.5227
   16SAPS  H11X 2105   1.674   1.718   3.930  1.0377  0.0448 -0.4578
   16SAPS  H11Y 2106   1.703   1.547   3.942  3.8055  3.4146 -2.1644
   16SAPS  C312 2107   1.529   1.624   4.060 -0.0779 -0.9085 -0.4978
   16SAPS  H12X 2108   1.483   1.524   4.068  0.8181 -1.3873 -1.1601
   16SAPS  H12Y 2109   1.437   1.678   4.028 -1.2139 -1.0045  2.3244
   16SAPS  C313 2110   1.603   1.691   4.183  0.2833 -0.3507 -0.1885
   16SAPS  H13X 2111   1.656   1.782   4.146  0.3933 -0.2966  0.1008
   16SAPS  H13Y 2112   1.689   1.629   4.216 -0.0764 -0.6419  0.1959
   16SAPS  C314 2113   1.509   1.726   4.298  0.8343 -0.6972  0.1020
   16SAPS  H14X 2114   1.442   1.808   4.266  0.0352 -0.9757  1.0155
   16SAPS  H14Y 2115   1.570   1.770   4.380 -0.0108  0.2562  0.2420
   16SAPS  C315 2116   1.418   1.605   4.341  0.2978  0.3117 -1.0434
   16SAPS  H15X 2117   1.491   1.529   4.376 -0.5641 -0.2134 -0.3656
   16SAPS  H15Y 2118   1.364   1.570   4.250  0.0614 -1.8209 -0.1301
   16SAPS  C316 2119   1.322   1.647   4.452  0.3092 -1.2345  0.7172
   16SAPS  H16X 2120   1.252   1.562   4.469  1.2213 -2.5489 -1.6482
   16SAPS  H16Y 2121   1.252   1.726   4.418 -0.8198 -3.2387 -1.9474
   16SAPS  C317 2122   1.387   1.669   4.588 -0.1714  0.0406 -0.9706
   16SAPS  H17X 2123   1.300   1.694   4.653  1.4520 -1.0238  1.7495
   16SAPS  H17Y 2124   1.452   1.759   4.582  0.1812 -0.1360  0.1139
   16SAPS  C318 2125   1.457   1.553   4.649 -0.6282 -0.3900 -0.2153
   16SAPS  H18X 2126   1.386   1.473   4.680 -1.3601  0.6273  0.8750
   16SAPS  H18Y 2127   1.515   1.588   4.737 -1.6561  0.6455  0.0759
   16SAPS  H18Z 2128   1.523   1.514   4.570 -1.8948  0.3063 -1.6752
   17SAPS     N 2129   6.245   2.771   2.608  0.2694 -0.2297 -0.1316
   17SAPS   HN1 2130   6.269   2.763   2.709 -0.9423 -0.1275  0.1782
   17SAPS   HN2 2131   6.278   2.684   2.562  2.5594 -0.5726  1.9578
   17SAPS   HN3 2132   6.295   2.855   2.570 -2.6568  1.3914 -0.6610
   17SAPS   C12 2133   6.102   2.799   2.588 -0.3980  0.1132  0.2455
   17SAPS  H12A 2134   6.072   2.896   2.625 -1.9186 -1.1950  2.7528
   17SAPS   C13 2135   6.054   2.806   2.446 -0.1693 -0.2095 -0.7687
   17SAPS  O13A 2136   6.137   2.791   2.350 -0.0275  0.3194  0.1453
   17SAPS  O13B 2137   5.943   2.854   2.431  0.5770 -0.0429 -0.6467
   17SAPS   C11 2138   6.017   2.699   2.660  1.0294  0.0785 -0.0353
   17SAPS  H11A 2139   5.914   2.731   2.637  0.4142 -0.4056  1.8696
   17SAPS  H11B 2140   6.035   2.702   2.770  0.4464 -0.0080  0.0617
   17SAPS     P 2141   5.952   2.443   2.657  0.1792 -0.3935  0.0209
   17SAPS   O13 2142   5.814   2.455   2.611  0.6971 -0.5573  0.7238
   17SAPS   O14 2143   6.029   2.328   2.618 -0.0542  0.4682  0.1489
   17SAPS   O12 2144   6.034   2.568   2.613 -0.2740 -0.1952 -0.1653
   17SAPS   O11 2145   5.948   2.450   2.815 -0.4247 -0.0638 -0.3306
   17SAPS    C1 2146   6.064   2.450   2.892 -0.0012 -0.4187  0.4200
   17SAPS    HA 2147   6.127   2.365   2.859  0.2567 -0.5932  1.3168
   17SAPS    HB 2148   6.136   2.534   2.883  1.1520 -1.3845  0.3244
   17SAPS    C2 2149   6.052   2.416   3.041 -0.0544  0.2180 -0.0171
   17SAPS    HS 2150   5.996   2.321   3.040 -0.8328  0.6713 -0.4567
   17SAPS   O21 2151   5.979   2.520   3.111  0.4538 -0.4618  0.3645
   17SAPS   C21 2152   5.885   2.475   3.196  0.2302  0.1991  0.0085
   17SAPS   O22 2153   5.877   2.355   3.221  0.5016  0.1557 -0.0555
   17SAPS   C22 2154   5.801   2.588   3.249 -0.3799  0.2767 -0.0527
   17SAPS   H2R 2155   5.839   2.686   3.212 -1.1246  0.8240  0.6060
   17SAPS   H2S 2156   5.697   2.578   3.211 -0.8629  2.8670  0.4012
   17SAPS    C3 2157   6.195   2.407   3.108 -0.4338 -0.1121 -0.2741
   17SAPS    HX 2158   6.254   2.500   3.101 -1.9681  0.7958 -2.4202
   17SAPS    HY 2159   6.254   2.334   3.049 -1.6651 -0.2106 -1.4470
   17SAPS   O31 2160   6.186   2.365   3.242  0.2104 -0.1201 -0.0889
   17SAPS   C31 2161   6.173   2.236   3.257 -0.2680 -0.3370 -0.9316
   17SAPS   O32 2162   6.181   2.156   3.166  0.3571 -0.5739  0.5650
   17SAPS   C32 2163   6.143   2.203   3.404 -0.9102  0.0383 -1.0327
   17SAPS   H2X 2164   6.228   2.169   3.467 -1.9685 -3.5579 -1.3304
   17SAPS   H2Y 2165   6.074   2.116   3.405 -0.8069 -0.0537  0.4386
   17SAPS   C23 2166   5.797   2.601   3.406  0.6059 -0.0512 -0.1225
   17SAPS   H3R 2167   5.760   2.507   3.452 -0.1447  0.0555 -0.5010
   17SAPS   H3S 2168   5.720   2.679   3.422  0.5845 -0.2319  0.7058
   17SAPS   C24 2169   5.927   2.647   3.465 -0.1044 -0.5911 -0.4272
   17SAPS   H4R 2170   6.003   2.580   3.418  0.4617 -0.8180  0.7708
   17SAPS   H4S 2171   5.922   2.634   3.575 -0.5333  2.3650 -0.0192
   17SAPS   C25 2172   5.955   2.790   3.428 -0.5381 -0.6854  0.2277
   17SAPS   H5R 2173   5.996   2.819   3.330 -0.8662  0.9169  0.5394
   17SAPS   C26 2174   5.932   2.891   3.516 -0.4314  0.6278 -0.0468
   17SAPS   H6R 2175   5.964   2.990   3.482 -0.1082  0.1624 -1.1366
   17SAPS   C27 2176   5.875   2.878   3.655 -0.1370  0.5117 -0.0085
   17SAPS   H7R 2177   5.946   2.822   3.720  0.3310  0.5643 -0.4702
   17SAPS   H7S 2178   5.783   2.816   3.659  0.7818 -0.8832  3.2233
   17SAPS   C28 2179   5.848   3.012   3.713  0.1767  0.6110 -0.6475
   17SAPS   H8R 2180   5.876   3.100   3.652  0.0783  0.6630 -0.6173
   17SAPS   C29 2181   5.779   3.030   3.824  0.1869 -0.8665  0.0455
   17SAPS   H9R 2182   5.765   3.136   3.851 -0.8639 -1.0564  0.3035
   17SAPS  C210 2183   5.742   2.932   3.925 -0.4126  0.2577 -0.3608
   17SAPS  H10R 2184   5.836   2.883   3.957 -0.0053 -0.2438 -2.2270
   17SAPS  H10S 2185   5.680   2.849   3.885  0.0526  0.1040 -0.7693
   17SAPS  C211 2186   5.669   2.995   4.044 -0.7745 -0.2766 -0.1309
   17SAPS  H11R 2187   5.614   3.086   4.016  2.0289  1.8108  0.6054
   17SAPS  C212 2188   5.683   2.971   4.181 -0.3206  0.6157  0.1352
   17SAPS  H12R 2189   5.629   3.028   4.258 -2.7458 -0.4716 -0.6551
   17SAPS  C213 2190   5.764   2.858   4.229 -0.7806  0.6616 -0.7080
   17SAPS  H13R 2191   5.868   2.896   4.237 -0.6758  0.2197  0.0515
   17SAPS  H13S 2192   5.763   2.773   4.156 -0.0498 -0.7764  0.8996
   17SAPS  C214 2193   5.714   2.801   4.354  0.0864  0.1054  0.5612
   17SAPS  H14R 2194   5.604   2.794   4.356  0.0123  0.3959 -1.2294
   17SAPS  C215 2195   5.786   2.763   4.465 -0.6506  0.5033  0.3918
   17SAPS  H15R 2196   5.733   2.723   4.552 -0.9346 -0.8470 -0.3765
   17SAPS  C216 2197   5.934   2.781   4.471  0.7034  0.1455 -0.3789
   17SAPS  H16R 2198   5.957   2.856   4.550  0.6428 -0.3612  0.1253
   17SAPS  H16S 2199   5.993   2.828   4.389  0.9153  0.1407 -0.2308
   17SAPS  C217 2200   6.012   2.661   4.521 -0.9641 -0.9067 -0.0936
   17SAPS  H17R 2201   5.964   2.650   4.620 -1.3851  2.6578  0.2293
   17SAPS  H17S 2202   6.119   2.687   4.536 -1.6367  0.8370  2.1482
   17SAPS  C218 2203   5.999   2.530   4.438  0.0737 -0.7822 -0.3950
   17SAPS  H18R 2204   5.889   2.516   4.443 -0.3951  2.5072  1.3187
   17SAPS  H18S 2205   6.046   2.454   4.504  1.9041  1.5400  1.1842
   17SAPS  C219 2206   6.045   2.530   4.295 -0.2745  0.4430  0.8828
   17SAPS  H19R 2207   6.154   2.553   4.297 -0.0691 -0.1531 -1.4048
   17SAPS  H19S 2208   5.996   2.613   4.240 -1.0457 -0.0174  0.8598
   17SAPS  C220 2209   6.033   2.396   4.223  0.1567  0.3893  0.2399
   17SAPS  H20R 2210   6.038   2.409   4.113  3.3222  2.5766  0.5168
   17SAPS  H20S 2211   5.938   2.342   4.244 -0.7358  1.2328 -1.4172
   17SAPS  H20T 2212   6.117   2.330   4.252  1.2930  1.7889  0.2421
   17SAPS   C33 2213   6.070   2.310   3.492 -0.2630  0.0098  0.3375
   17SAPS   H3X 2214   5.972   2.338   3.448 -0.1594 -0.0991  0.0370
   17SAPS   H3Y 2215   6.121   2.408   3.496 -0.2017 -0.0272  0.4946
   17SAPS   C34 2216   6.033   2.261   3.636 -0.1320  0.1839  0.0073
   17SAPS   H4X 2217   5.982   2.164   3.626 -0.0955 -0.1984  2.8556
   17SAPS   H4Y 2218   5.961   2.320   3.697 -0.6114 -0.3934  0.0114
   17SAPS   C35 2219   6.158   2.230   3.730 -1.1848 -0.2177  0.0644
   17SAPS   H5X 2220   6.219   2.322   3.736 -0.6036 -0.5383 -0.7286
   17SAPS   H5Y 2221   6.222   2.150   3.686 -1.9405 -0.2261 -1.0714
   17SAPS   C36 2222   6.120   2.175   3.870  0.5265  0.3227  0.2402
   17SAPS   H6X 2223   6.040   2.099   3.867  0.3834  0.4656 -2.7817
   17SAPS   H6Y 2224   6.070   2.248   3.936 -1.5465  0.4689 -1.3963
   17SAPS   C37 2225   6.249   2.130   3.947  0.2994 -0.7305  0.5113
   17SAPS   H7X 2226   6.317   2.217   3.944  0.6047 -0.9211  1.5518
   17SAPS   H7Y 2227   6.306   2.054   3.889  0.8211  0.4212 -0.5314
   17SAPS   C38 2228   6.230   2.080   4.089  0.5293  0.0432  1.3676
   17SAPS   H8X 2229   6.172   1.985   4.087  0.7696 -0.1409  2.3079
   17SAPS   H8Y 2230   6.160   2.149   4.141 -1.1129 -1.0509  0.6672
   17SAPS   C39 2231   6.365   2.065   4.165  0.3357  0.6480 -0.8094
   17SAPS   H9X 2232   6.427   2.156   4.153 -1.9284  2.3680 -0.0823
   17SAPS   H9Y 2233   6.420   1.982   4.115  1.2514  0.3337  0.6761
   17SAPS  C310 2234   6.363   2.020   4.311 -0.1483  1.3994  0.2779
   17SAPS  H10X 2235   6.295   1.932   4.306  3.5859 -1.7384  0.1663
   17SAPS  H10Y 2236   6.312   2.099   4.370 -0.5343  0.6986  0.9094
   17SAPS  C311 2237   6.499   1.986   4.365 -0.3712 -0.4707 -0.0903
   17SAPS  H11X 2238   6.569   2.072   4.355 -0.4604 -0.6060 -2.6709
   17SAPS  H11Y 2239   6.551   1.904   4.310 -1.5724 -1.2384 -0.1167
   17SAPS  C312 2240   6.499   1.947   4.517  0.0210 -0.1114  0.5406
   17SAPS  H12X 2241   6.457   1.845   4.532 -1.5495  0.6574  1.6926
   17SAPS  H12Y 2242   6.424   2.014   4.565 -0.4160 -0.1664 -0.0567
   17SAPS  C313 2243   6.630   1.981   4.595  0.2888  0.7809  0.4290
   17SAPS  H13X 2244   6.682   2.076   4.569  0.5079  0.6947  0.5468
   17SAPS  H13Y 2245   6.702   1.897   4.580  1.0376  1.4204  0.3709
   17SAPS  C314 2246   6.589   1.985   4.747 -0.4341  0.0022  0.4750
   17SAPS  H14X 2247   6.540   1.886   4.760 -0.9345  0.0103 -1.0799
   17SAPS  H14Y 2248   6.507   2.059   4.758 -1.2667 -0.8516  0.1766
   17SAPS  C315 2249   6.703   2.012   4.832 -0.3470 -0.3374 -0.2348
   17SAPS  H15X 2250   6.766   1.924   4.858  0.2741  0.4485  0.9871
   17SAPS  H15Y 2251   6.676   2.057   4.930  3.1100 -0.8724  1.0967
   17SAPS  C316 2252   6.799   2.127   4.788 -0.4198 -0.1961  0.0258
   17SAPS  H16X 2253   6.747   2.214   4.742 -0.2183  0.0956  0.3395
   17SAPS  H16Y 2254   6.860   2.087   4.705  0.2654 -1.2517  1.0053
   17SAPS  C317 2255   6.896   2.180   4.895 -0.0560 -0.1471 -0.3003
   17SAPS  H17X 2256   6.920   2.092   4.958  1.8178  1.3300  1.1715
   17SAPS  H17Y 2257   6.833   2.243   4.961 -0.0720 -0.9458  0.4540
   17SAPS  C318 2258   7.025   2.245   4.845  0.1993  0.3812 -0.9386
   17SAPS  H18X 2259   7.080   2.286   4.932 -1.0065 -1.4427  0.7878
   17SAPS  H18Y 2260   7.018   2.322   4.766  3.8796  0.1527 -1.6715
   17SAPS  H18Z 2261   7.091   2.173   4.792  1.0837  0.5483 -0.0845
   18SAPS     N 2262   3.550   3.264   2.729 -0.5087 -0.4150  0.1695
   18SAPS   HN1 2263   3.624   3.287   2.660  0.2297  0.7325  1.2931
   18SAPS   HN2 2264   3.510   3.348   2.776 -0.7226  0.2443 -1.1322
   18SAPS   HN3 2265   3.579   3.188   2.794 -3.6928 -0.7743  1.3329
   18SAPS   C12 2266   3.426   3.201   2.662  0.1845  0.5511 -0.1415
   18SAPS  H12A 2267   3.348   3.186   2.734 -0.5994 -1.3691 -1.3414
   18SAPS   C13 2268   3.364   3.299   2.558 -0.4231 -0.3288  0.1827
   18SAPS  O13A 2269   3.438   3.397   2.508  0.1425 -0.3676 -0.2485
   18SAPS  O13B 2270   3.258   3.267   2.501 -0.2086 -0.3984 -0.7076
   18SAPS   C11 2271   3.456   3.067   2.584 -0.1439  0.6945 -0.1697
   18SAPS  H11A 2272   3.539   3.095   2.516  1.0841  1.6764  1.6670
   18SAPS  H11B 2273   3.365   3.036   2.528 -0.7774  1.2270  0.5553
   18SAPS     P 2274   3.416   2.874   2.750  0.1649  0.0311 -0.0675
   18SAPS   O13 2275   3.341   2.809   2.642  0.0631  0.9648  0.0990
   18SAPS   O14 2276   3.494   2.788   2.843  0.3512  0.1025  0.0030
   18SAPS   O12 2277   3.512   2.977   2.686 -0.0767 -0.0532  0.3268
   18SAPS   O11 2278   3.334   2.969   2.839  0.5861  0.2172  0.5842
   18SAPS    C1 2279   3.371   3.031   2.959  0.6076  0.0108 -0.0319
   18SAPS    HA 2280   3.482   3.030   2.959  0.6136 -1.0252 -0.9180
   18SAPS    HB 2281   3.337   3.137   2.960 -2.9974 -1.0005  1.3836
   18SAPS    C2 2282   3.308   2.958   3.076 -0.6191  0.0236  0.5966
   18SAPS    HS 2283   3.346   2.854   3.068 -3.4200 -1.0846  0.5964
   18SAPS   O21 2284   3.167   2.975   3.071 -0.0581  0.2848 -0.6811
   18SAPS   C21 2285   3.097   2.887   3.143  0.2734 -0.7016 -0.9576
   18SAPS   O22 2286   3.141   2.790   3.209 -0.1640 -0.0684 -0.2262
   18SAPS   C22 2287   2.956   2.922   3.139  0.7962  0.3850  0.4311
   18SAPS   H2R 2288   2.919   2.946   3.036  1.2664 -0.7588 -0.0161
   18SAPS   H2S 2289   2.896   2.833   3.167 -1.2265  0.9693 -1.6831
   18SAPS    C3 2290   3.370   3.017   3.207  0.3542 -0.0581  0.4016
   18SAPS    HX 2291   3.316   2.962   3.287  0.3092 -0.6732 -0.0453
   18SAPS    HY 2292   3.353   3.127   3.206  3.5175  0.6581 -3.3322
   18SAPS   O31 2293   3.508   3.000   3.215 -0.4076  0.2215  0.2806
   18SAPS   C31 2294   3.560   3.017   3.340  0.0630 -0.2505 -0.5138
   18SAPS   O32 2295   3.488   3.041   3.436 -0.0226 -0.3834  0.5480
   18SAPS   C32 2296   3.711   2.989   3.344  0.5205 -0.2939 -0.0438
   18SAPS   H2X 2297   3.755   3.058   3.269  1.2005  1.9184  2.2529
   18SAPS   H2Y 2298   3.734   2.887   3.306  1.9225  0.7305 -2.1315
   18SAPS   C23 2299   2.933   3.047   3.222  0.7063 -0.2182  0.0709
   18SAPS   H3R 2300   2.830   3.084   3.205  0.3512 -1.5959 -0.8841
   18SAPS   H3S 2301   2.991   3.136   3.189 -0.8063  0.3845 -1.0717
   18SAPS   C24 2302   2.942   3.020   3.381 -0.4472 -0.1598  0.4824
   18SAPS   H4R 2303   3.040   2.971   3.399  0.1235  1.3537  1.7363
   18SAPS   H4S 2304   2.869   2.939   3.400  1.2052 -1.6716  0.5865
   18SAPS   C25 2305   2.927   3.150   3.465  0.2496  0.9343  0.8282
   18SAPS   H5R 2306   2.980   3.241   3.433  1.1748  0.2712  0.4497
   18SAPS   C26 2307   2.870   3.166   3.584 -0.0672  0.8726  0.3577
   18SAPS   H6R 2308   2.881   3.259   3.640 -2.0914  0.6560  1.1888
   18SAPS   C27 2309   2.791   3.055   3.659  0.3908  0.5004  0.4445
   18SAPS   H7R 2310   2.730   2.988   3.594  0.2021  1.4478 -0.3840
   18SAPS   H7S 2311   2.722   3.104   3.731 -0.7235 -1.8876  1.1233
   18SAPS   C28 2312   2.890   2.980   3.738  0.1195 -0.0810 -0.1748
   18SAPS   H8R 2313   2.964   2.929   3.674 -0.9187  0.6886 -2.0669
   18SAPS   C29 2314   2.896   2.966   3.876  0.1045  0.1884  0.0026
   18SAPS   H9R 2315   2.964   2.899   3.930 -1.3420  0.2215  1.9850
   18SAPS  C210 2316   2.800   3.029   3.970 -0.3562 -0.1173 -0.2177
   18SAPS  H10R 2317   2.774   2.949   4.043  1.1022 -1.4943 -1.1604
   18SAPS  H10S 2318   2.704   3.066   3.927 -0.8056  1.5737  2.0516
   18SAPS  C211 2319   2.879   3.139   4.043  0.1710 -0.3108  0.5152
   18SAPS  H11R 2320   2.961   3.182   3.983 -0.3421 -2.4213 -1.8549
   18SAPS  C212 2321   2.865   3.179   4.174 -0.4661  0.1299  0.2495
   18SAPS  H12R 2322   2.943   3.250   4.206  0.9237 -0.7769 -0.9765
   18SAPS  C213 2323   2.777   3.127   4.282  0.2453 -0.1163  0.1297
   18SAPS  H13R 2324   2.696   3.064   4.238  0.3265  2.0217 -3.4783
   18SAPS  H13S 2325   2.722   3.216   4.319  0.0074 -0.6998  1.2247
   18SAPS  C214 2326   2.857   3.054   4.383 -0.1980 -0.1935 -0.2469
   18SAPS  H14R 2327   2.904   2.962   4.345 -0.3105  0.1527 -1.2433
   18SAPS  C215 2328   2.857   3.073   4.517  0.1603 -0.2434  0.1296
   18SAPS  H15R 2329   2.923   3.010   4.578 -1.4715 -1.8836  0.2790
   18SAPS  C216 2330   2.783   3.186   4.592  0.5982 -0.4591 -0.7455
   18SAPS  H16R 2331   2.680   3.184   4.550  0.1125 -1.1969  0.4339
   18SAPS  H16S 2332   2.829   3.282   4.561 -0.1993 -0.1942 -1.1469
   18SAPS  C217 2333   2.801   3.176   4.738 -0.5612 -0.3644 -0.2492
   18SAPS  H17R 2334   2.767   3.077   4.775 -1.2795  0.1813  0.5987
   18SAPS  H17S 2335   2.753   3.256   4.799 -0.6756  0.9431 -1.9912
   18SAPS  C218 2336   2.953   3.193   4.779  0.0300  0.3967 -0.3054
   18SAPS  H18R 2337   3.015   3.122   4.720 -2.6206 -0.4236 -2.2497
   18SAPS  H18S 2338   2.949   3.155   4.883 -0.4749 -1.4047 -0.9468
   18SAPS  C219 2339   3.012   3.338   4.789  0.4022 -0.3872 -0.5504
   18SAPS  H19R 2340   2.945   3.390   4.861  0.8632 -0.5364 -0.0101
   18SAPS  H19S 2341   2.990   3.392   4.694 -1.4492  0.7481  0.4603
   18SAPS  C220 2342   3.159   3.333   4.828  1.0505  0.3553  0.1921
   18SAPS  H20R 2343   3.165   3.279   4.925 -0.3191  4.4646  2.8322
   18SAPS  H20S 2344   3.205   3.432   4.850  0.2154  0.6229  0.7752
   18SAPS  H20T 2345   3.212   3.286   4.743  1.7882  0.0590  0.7946
   18SAPS   C33 2346   3.770   3.003   3.484 -0.4130  0.3702  0.2197
   18SAPS   H3X 2347   3.870   2.955   3.482 -0.8999 -0.6386 -1.1370
   18SAPS   H3Y 2348   3.712   2.940   3.555 -0.0358 -1.2043 -0.8373
   18SAPS   C34 2349   3.785   3.145   3.528 -0.7085 -0.3437 -0.5419
   18SAPS   H4X 2350   3.687   3.196   3.520  0.6592  2.3536 -1.1936
   18SAPS   H4Y 2351   3.864   3.198   3.471  0.1796 -1.6308 -0.5526
   18SAPS   C35 2352   3.844   3.150   3.675  0.3916 -0.2160 -0.2992
   18SAPS   H5X 2353   3.952   3.122   3.675  0.8789  1.5334 -0.2656
   18SAPS   H5Y 2354   3.792   3.080   3.743  0.2365  0.8534  0.7325
   18SAPS   C36 2355   3.816   3.295   3.726 -0.5047 -0.6867 -0.2259
   18SAPS   H6X 2356   3.711   3.327   3.708  0.6744  2.2005 -2.9103
   18SAPS   H6Y 2357   3.879   3.378   3.689  1.4240  0.0606  4.0481
   18SAPS   C37 2358   3.829   3.310   3.879  0.4923 -0.2573  0.4436
   18SAPS   H7X 2359   3.934   3.285   3.904  1.3066 -1.8844 -3.7247
   18SAPS   H7Y 2360   3.776   3.227   3.930  1.5750 -1.0031  0.3745
   18SAPS   C38 2361   3.764   3.441   3.935 -0.9842  0.1019 -0.7733
   18SAPS   H8X 2362   3.663   3.463   3.893 -0.6925  0.1603 -1.4672
   18SAPS   H8Y 2363   3.830   3.527   3.909  0.5170 -0.3763  1.1682
   18SAPS   C39 2364   3.761   3.429   4.090  0.5844 -0.2132 -0.3075
   18SAPS   H9X 2365   3.857   3.396   4.135  0.6133 -1.2524 -1.0640
   18SAPS   H9Y 2366   3.682   3.356   4.117  0.8889 -0.2766  0.4147
   18SAPS  C310 2367   3.739   3.569   4.162  0.2971  0.0513 -0.1186
   18SAPS  H10X 2368   3.645   3.614   4.123  1.2058  1.4940 -0.7372
   18SAPS  H10Y 2369   3.811   3.646   4.126  0.5468 -0.3958 -0.5998
   18SAPS  C311 2370   3.757   3.574   4.314  0.4933 -0.6381 -0.3709
   18SAPS  H11X 2371   3.866   3.557   4.327  0.9269  0.7985 -1.8411
   18SAPS  H11Y 2372   3.709   3.483   4.357 -1.4284  1.3962  2.0676
   18SAPS  C312 2373   3.708   3.709   4.378  0.4482  0.6579  0.0153
   18SAPS  H12X 2374   3.600   3.727   4.355  0.7395  0.4404 -1.6542
   18SAPS  H12Y 2375   3.769   3.798   4.354 -0.5652  1.5595  0.6616
   18SAPS  C313 2376   3.706   3.693   4.527 -0.5155 -0.4682  0.7761
   18SAPS  H13X 2377   3.808   3.667   4.561 -0.7476 -1.2455  0.8883
   18SAPS  H13Y 2378   3.635   3.611   4.551  0.8365 -1.7455  0.5287
   18SAPS  C314 2379   3.657   3.824   4.594  0.1224  0.2263  0.6179
   18SAPS  H14X 2380   3.555   3.832   4.550  0.3302 -0.8174 -0.0981
   18SAPS  H14Y 2381   3.729   3.902   4.561  0.3668  0.1263  0.9101
   18SAPS  C315 2382   3.667   3.812   4.748 -0.0857 -0.0461 -0.5798
   18SAPS  H15X 2383   3.770   3.787   4.782  0.0872  0.1574 -0.9464
   18SAPS  H15Y 2384   3.599   3.730   4.780  1.3564 -1.0780 -0.0418
   18SAPS  C316 2385   3.621   3.941   4.825 -0.0876  0.4278  0.0607
   18SAPS  H16X 2386   3.518   3.973   4.798  0.3955  0.0434 -2.5662
   18SAPS  H16Y 2387   3.686   4.027   4.796  1.5135  0.2963  2.9076
   18SAPS  C317 2388   3.638   3.920   4.979 -0.2491  0.5132 -0.2578
   18SAPS  H17X 2389   3.747   3.898   4.983 -0.4430 -0.3252  0.8207
   18SAPS  H17Y 2390   3.582   3.826   5.000 -0.9493  0.9140 -0.2921
   18SAPS  C318 2391   3.603   4.029   5.073 -0.3533  0.4416 -0.3248
   18SAPS  H18X 2392   3.667   4.012   5.162 -0.8005 -2.3338 -0.4494
   18SAPS  H18Y 2393   3.494   4.037   5.090 -0.6045 -0.2346 -1.4849
   18SAPS  H18Z 2394   3.635   4.123   5.023  2.1673  0.0687  0.4565
   19SAPS     N 2395   1.951   4.193   2.292  0.0685 -0.0646  0.0530
   19SAPS   HN1 2396   1.988   4.101   2.259 -1.0237 -1.1517  1.6640
   19SAPS   HN2 2397   1.946   4.257   2.211  1.5252 -1.6317 -1.3510
   19SAPS   HN3 2398   2.009   4.230   2.370  1.5042 -0.1116 -0.9655
   19SAPS   C12 2399   1.817   4.171   2.337  0.4323 -0.5082 -0.6214
   19SAPS  H12A 2400   1.780   4.270   2.360 -0.0014 -0.8868  0.3892
   19SAPS   C13 2401   1.724   4.114   2.232 -0.2668 -0.2274  0.2808
   19SAPS  O13A 2402   1.765   4.070   2.119  0.0025 -0.3434  0.1905
   19SAPS  O13B 2403   1.603   4.107   2.259 -0.0287  0.3305 -0.5701
   19SAPS   C11 2404   1.816   4.078   2.464 -1.2985 -0.3850  0.1570
   19SAPS  H11A 2405   1.857   3.977   2.440  0.4578 -0.1041  1.7668
   19SAPS  H11B 2406   1.708   4.066   2.488 -1.3616 -0.6858 -0.2657
   19SAPS     P 2407   2.025   4.072   2.632 -0.0617 -0.2399  0.1679
   19SAPS   O13 2408   2.109   4.025   2.519 -0.2098  0.1012 -0.1315
   19SAPS   O14 2409   2.080   4.170   2.728  0.6345  0.3724  0.1152
   19SAPS   O12 2410   1.898   4.142   2.568 -0.1896 -0.3329  0.6694
   19SAPS   O11 2411   1.954   3.949   2.707  0.0777  0.3040  0.3905
   19SAPS    C1 2412   1.876   3.972   2.821 -0.3371 -0.4116  0.1520
   19SAPS    HA 2413   1.863   4.075   2.862 -2.9950 -1.1545  1.4105
   19SAPS    HB 2414   1.769   3.955   2.799 -0.1249 -1.2775 -0.2453
   19SAPS    C2 2415   1.936   3.895   2.938 -0.3937  0.2549  0.6774
   19SAPS    HS 2416   1.861   3.907   3.019 -0.4311  0.2841  0.6381
   19SAPS   O21 2417   2.063   3.953   2.972 -0.5322 -0.0177  0.0006
   19SAPS   C21 2418   2.059   4.057   3.052 -0.0055 -0.1621  0.2645
   19SAPS   O22 2419   1.960   4.105   3.104  0.2572  0.0156  0.5527
   19SAPS   C22 2420   2.203   4.095   3.075  0.5583  0.0862  0.4474
   19SAPS   H2R 2421   2.254   4.003   3.112  1.0461  0.3657  0.4710
   19SAPS   H2S 2422   2.250   4.106   2.975  0.2835  0.6120  0.3780
   19SAPS    C3 2423   1.952   3.744   2.923 -0.7202 -0.4714  0.1520
   19SAPS    HX 2424   2.038   3.728   2.855 -0.9347  1.9431 -0.7549
   19SAPS    HY 2425   1.857   3.709   2.877 -0.2303 -0.4190 -0.9287
   19SAPS   O31 2426   1.962   3.684   3.052 -0.2571  0.0398 -0.1062
   19SAPS   C31 2427   1.990   3.552   3.045 -0.2715 -0.4995 -0.0203
   19SAPS   O32 2428   2.023   3.488   2.947  0.3868  0.1269  0.5789
   19SAPS   C32 2429   1.991   3.488   3.181  0.2021  0.0140  0.6012
   19SAPS   H2X 2430   1.889   3.512   3.219  0.1181 -0.3664  0.6185
   19SAPS   H2Y 2431   2.067   3.534   3.248 -0.3216  0.7330  0.7152
   19SAPS   C23 2432   2.232   4.212   3.163  0.1078 -0.1179 -0.0787
   19SAPS   H3R 2433   2.166   4.292   3.125  1.4000  0.8619 -0.3458
   19SAPS   H3S 2434   2.336   4.244   3.140  0.6306  1.7086  3.9541
   19SAPS   C24 2435   2.221   4.189   3.313  0.7757  0.4441 -0.2827
   19SAPS   H4R 2436   2.286   4.268   3.356  0.4948  1.5648 -1.8318
   19SAPS   H4S 2437   2.269   4.092   3.336  4.0793  2.3097  1.3329
   19SAPS   C25 2438   2.079   4.198   3.371 -0.6619 -0.6736  0.1178
   19SAPS   H5R 2439   2.013   4.273   3.325  0.2986  0.3508  0.3510
   19SAPS   C26 2440   2.028   4.118   3.458  0.1844 -0.1178  0.1933
   19SAPS   H6R 2441   1.921   4.129   3.482  0.3615 -0.4920  1.2092
   19SAPS   C27 2442   2.098   4.013   3.529  0.2946 -0.2966 -0.2161
   19SAPS   H7R 2443   2.173   4.070   3.587  0.1839 -1.1235  0.7615
   19SAPS   H7S 2444   2.149   3.948   3.455 -0.3702 -0.6253 -0.4000
   19SAPS   C28 2445   2.011   3.924   3.607 -0.0691 -0.0734 -0.4405
   19SAPS   H8R 2446   1.963   3.852   3.540  0.8787 -1.1678  0.0175
   19SAPS   C29 2447   2.003   3.927   3.739  0.5866 -0.8960  0.4571
   19SAPS   H9R 2448   1.931   3.849   3.770 -2.4759  0.9969 -1.2851
   19SAPS  C210 2449   2.070   4.012   3.843 -0.4708 -0.8274 -0.9654
   19SAPS  H10R 2450   2.173   4.046   3.818 -0.8491  2.6648  1.4091
   19SAPS  H10S 2451   2.078   3.944   3.931 -0.0670 -0.7225 -0.9180
   19SAPS  C211 2452   2.015   4.150   3.873 -0.3928  0.3490  0.2031
   19SAPS  H11R 2453   1.977   4.204   3.785  0.2121  2.5173  1.2138
   19SAPS  C212 2454   2.013   4.213   3.991 -0.4361  0.0561 -0.3093
   19SAPS  H12R 2455   1.976   4.317   3.999 -2.9751 -0.9308  3.6834
   19SAPS  C213 2456   2.064   4.158   4.119 -0.1177  0.1456  0.0720
   19SAPS  H13R 2457   2.134   4.237   4.157  0.4192  0.2456 -1.0810
   19SAPS  H13S 2458   2.131   4.072   4.100  0.0524  0.4722 -0.8327
   19SAPS  C214 2459   1.954   4.111   4.212 -0.3588 -0.3340 -0.1245
   19SAPS  H14R 2460   1.906   4.017   4.182 -3.1860  0.1603  2.4138
   19SAPS  C215 2461   1.927   4.173   4.328 -0.2877  0.0315  0.1391
   19SAPS  H15R 2462   1.848   4.130   4.391 -0.4886 -1.5493 -1.0963
   19SAPS  C216 2463   2.007   4.283   4.400 -0.3121  0.0028 -0.5478
   19SAPS  H16R 2464   2.077   4.329   4.327  0.8236  0.4963  0.7873
   19SAPS  H16S 2465   2.068   4.233   4.479 -2.5319 -0.3615  1.0207
   19SAPS  C217 2466   1.938   4.404   4.462 -0.4406 -0.3407  0.0535
   19SAPS  H17R 2467   1.865   4.450   4.392  0.6858  1.4444  0.0058
   19SAPS  H17S 2468   2.022   4.472   4.485 -0.3814 -0.0808 -0.9023
   19SAPS  C218 2469   1.855   4.379   4.586 -0.0757  0.2741  0.0199
   19SAPS  H18R 2470   1.912   4.320   4.661 -0.5684 -0.8998 -0.5006
   19SAPS  H18S 2471   1.775   4.308   4.558 -0.3271  0.3055  0.6483
   19SAPS  C219 2472   1.800   4.513   4.630  0.1129  0.5415  0.3427
   19SAPS  H19R 2473   1.749   4.549   4.538 -0.1734 -0.6541  0.0082
   19SAPS  H19S 2474   1.881   4.582   4.662  1.3997 -0.4322 -0.6802
   19SAPS  C220 2475   1.686   4.509   4.737 -0.0912  0.0172 -0.2215
   19SAPS  H20R 2476   1.589   4.471   4.698 -0.1273  0.8257 -0.9425
   19SAPS  H20S 2477   1.672   4.615   4.767  0.7612 -0.3222  1.4636
   19SAPS  H20T 2478   1.728   4.457   4.826 -1.0492  0.8809  0.7494
   19SAPS   C33 2479   1.990   3.341   3.198 -0.2248  0.7659 -0.1454
   19SAPS   H3X 2480   2.092   3.302   3.174 -0.8294 -1.4824  0.7359
   19SAPS   H3Y 2481   1.916   3.301   3.126 -0.3331 -0.6303  0.7034
   19SAPS   C34 2482   1.958   3.291   3.340 -0.3414  0.4075 -0.4055
   19SAPS   H4X 2483   1.948   3.181   3.330  0.2004  0.5467 -3.6236
   19SAPS   H4Y 2484   1.857   3.327   3.370  1.1008  4.0594  0.6010
   19SAPS   C35 2485   2.077   3.330   3.428 -0.3557  0.2772  0.3583
   19SAPS   H5X 2486   2.109   3.437   3.431 -0.0961  0.1985  0.4054
   19SAPS   H5Y 2487   2.163   3.271   3.388 -1.3464 -0.7706 -0.2702
   19SAPS   C36 2488   2.045   3.303   3.568  0.1418  0.0979  1.0118
   19SAPS   H6X 2489   2.134   3.301   3.634  0.6107 -0.8975  0.3722
   19SAPS   H6Y 2490   2.006   3.199   3.572  0.3444  0.0508  2.1999
   19SAPS   C37 2491   1.938   3.396   3.634  0.8493 -0.6311  0.0228
   19SAPS   H7X 2492   1.841   3.385   3.580  1.0423 -0.4573 -0.3667
   19SAPS   H7Y 2493   1.970   3.501   3.619  1.6005 -0.8730 -0.1381
   19SAPS   C38 2494   1.945   3.360   3.776  0.6803  0.2986 -0.1695
   19SAPS   H8X 2495   1.956   3.251   3.794 -2.5548 -0.1975 -0.6459
   19SAPS   H8Y 2496   1.844   3.380   3.817  0.2138 -1.3474 -0.4345
   19SAPS   C39 2497   2.048   3.440   3.852  0.3155 -0.4397 -0.5312
   19SAPS   H9X 2498   2.041   3.545   3.814 -1.0722 -0.8961 -1.6203
   19SAPS   H9Y 2499   2.154   3.412   3.832  0.5094  0.1497 -0.3574
   19SAPS  C310 2500   2.013   3.450   4.004  0.4456 -0.2291 -0.3515
   19SAPS  H10X 2501   2.059   3.358   4.044  0.7625 -0.4027 -1.0971
   19SAPS  H10Y 2502   1.902   3.454   4.011  0.4306 -1.3608  0.2864
   19SAPS  C311 2503   2.068   3.575   4.069  0.1714 -0.0106 -0.4265
   19SAPS  H11X 2504   2.027   3.659   4.010  0.8693  1.5279  1.1832
   19SAPS  H11Y 2505   2.179   3.577   4.066  0.1874  0.2047  0.1023
   19SAPS  C312 2506   2.022   3.584   4.217 -0.0747 -0.8890  0.2635
   19SAPS  H12X 2507   1.914   3.564   4.234 -0.1844 -0.9732 -0.4655
   19SAPS  H12Y 2508   2.037   3.691   4.240  0.9218 -1.1560  0.9110
   19SAPS  C313 2509   2.094   3.488   4.318 -0.1466  0.1735 -0.1502
   19SAPS  H13X 2510   2.202   3.489   4.290  0.0718  1.0905  0.6616
   19SAPS  H13Y 2511   2.056   3.384   4.312 -0.1816  0.1943 -0.2903
   19SAPS  C314 2512   2.094   3.532   4.468  0.1538  0.4036 -0.3818
   19SAPS  H14X 2513   1.992   3.527   4.511  0.8233  1.3177  1.3793
   19SAPS  H14Y 2514   2.129   3.636   4.483 -0.9573  0.7742 -0.2750
   19SAPS  C315 2515   2.188   3.443   4.558  0.0266  0.6090 -0.2885
   19SAPS  H15X 2516   2.290   3.451   4.514  0.6803  1.5049  1.2705
   19SAPS  H15Y 2517   2.167   3.334   4.552 -3.7140  1.1515  0.4399
   19SAPS  C316 2518   2.194   3.493   4.705 -0.0228  0.0184  1.1058
   19SAPS  H16X 2519   2.104   3.454   4.758  0.5571 -1.2756  1.1770
   19SAPS  H16Y 2520   2.193   3.604   4.714  1.1434 -0.0646  2.4380
   19SAPS  C317 2521   2.316   3.444   4.784  0.0907  0.0128  0.4372
   19SAPS  H17X 2522   2.408   3.503   4.763  0.5108 -0.8616 -0.2604
   19SAPS  H17Y 2523   2.329   3.342   4.741 -2.3082  0.0202 -0.4856
   19SAPS  C318 2524   2.293   3.425   4.931  0.2531 -0.1713 -0.4513
   19SAPS  H18X 2525   2.386   3.430   4.991  1.0747  1.6146 -1.7611
   19SAPS  H18Y 2526   2.247   3.325   4.942 -0.5005  0.3308  1.3463
   19SAPS  H18Z 2527   2.224   3.502   4.971 -1.4106 -1.8707  0.0814
   20SAPS     N 2528   2.125   2.741   2.264 -0.1672  0.5295  0.0203
   20SAPS   HN1 2529   2.172   2.776   2.177 -2.2154  2.6802 -0.3270
   20SAPS   HN2 2530   2.117   2.819   2.332 -1.6059  0.3207  0.1154
   20SAPS   HN3 2531   2.170   2.657   2.305  0.8170  0.4650 -1.1280
   20SAPS   C12 2532   1.988   2.714   2.237  0.1055 -0.3582  0.4824
   20SAPS  H12A 2533   1.949   2.803   2.189  1.2087  1.8926  3.4602
   20SAPS   C13 2534   1.963   2.612   2.126 -0.0742  0.5288 -0.9715
   20SAPS  O13A 2535   2.050   2.533   2.085 -0.3303 -0.2081  0.6886
   20SAPS  O13B 2536   1.850   2.599   2.085  0.4327 -0.1220  0.9684
   20SAPS   C11 2537   1.917   2.665   2.370  0.9939  0.2609 -0.6627
   20SAPS  H11A 2538   1.967   2.570   2.399  0.9129  0.7998  1.3302
   20SAPS  H11B 2539   1.809   2.656   2.347  0.6732  1.4083  0.3078
   20SAPS     P 2540   1.889   2.736   2.619 -0.0502  0.2648 -0.1036
   20SAPS   O13 2541   1.866   2.862   2.688 -0.4530  0.4297  0.2901
   20SAPS   O14 2542   1.790   2.628   2.627  0.3120  0.1225 -0.2846
   20SAPS   O12 2543   1.934   2.760   2.474  0.1407 -0.1511 -0.3202
   20SAPS   O11 2544   2.027   2.687   2.673 -0.5969 -0.3103 -0.5185
   20SAPS    C1 2545   2.079   2.557   2.664 -0.6303  0.4413 -0.2006
   20SAPS    HA 2546   2.023   2.487   2.598 -0.8932  1.4285 -1.0490
   20SAPS    HB 2547   2.172   2.571   2.605 -2.0553  2.7591 -2.0508
   20SAPS    C2 2548   2.126   2.491   2.792  0.3155 -0.4633 -0.0598
   20SAPS    HS 2549   2.162   2.387   2.777  1.3181 -0.5859  2.6857
   20SAPS   O21 2550   2.021   2.495   2.894 -0.1112  0.2069  0.0865
   20SAPS   C21 2551   2.020   2.397   2.989  0.0151  0.1187 -0.7440
   20SAPS   O22 2552   2.091   2.296   2.988  0.3825 -0.2443  0.4118
   20SAPS   C22 2553   1.941   2.465   3.103  0.4094  0.2651  0.0575
   20SAPS   H2R 2554   2.011   2.544   3.137 -0.1137  0.5082  0.5648
   20SAPS   H2S 2555   1.854   2.515   3.056  0.8503  2.4595  1.4249
   20SAPS    C3 2556   2.251   2.573   2.850  0.3896 -0.3377 -0.1142
   20SAPS    HX 2557   2.211   2.676   2.862 -0.2741 -0.4963 -0.8833
   20SAPS    HY 2558   2.331   2.574   2.772 -0.6306  1.3450 -1.2015
   20SAPS   O31 2559   2.292   2.512   2.971 -0.1809  0.1004 -0.3721
   20SAPS   C31 2560   2.353   2.585   3.064 -0.1932  0.5080 -0.2337
   20SAPS   O32 2561   2.380   2.702   3.049 -0.7606  0.0190  0.5634
   20SAPS   C32 2562   2.385   2.506   3.188 -0.8544  0.0766  0.2239
   20SAPS   H2X 2563   2.461   2.559   3.249 -0.4544  0.8618 -0.9304
   20SAPS   H2Y 2564   2.432   2.413   3.149 -3.0522 -0.1734 -2.1261
   20SAPS   C23 2565   1.891   2.377   3.219  0.4373 -0.2542  0.4079
   20SAPS   H3R 2566   1.843   2.448   3.290  0.5645 -0.5322  0.7748
   20SAPS   H3S 2567   1.970   2.320   3.273  0.0840  0.5233  1.8074
   20SAPS   C24 2568   1.769   2.284   3.188  0.1483 -0.1011  0.8943
   20SAPS   H4R 2569   1.747   2.224   3.279 -1.4370 -1.6880 -0.4648
   20SAPS   H4S 2570   1.784   2.215   3.102 -3.0954  1.7553 -1.3454
   20SAPS   C25 2571   1.644   2.364   3.155  0.1886 -0.6943 -0.6119
   20SAPS   H5R 2572   1.642   2.409   3.054 -0.1788  0.9948  0.1138
   20SAPS   C26 2573   1.536   2.375   3.227 -0.2949 -0.1732 -0.1241
   20SAPS   H6R 2574   1.458   2.444   3.191 -1.8660 -0.7386  1.9536
   20SAPS   C27 2575   1.524   2.332   3.369  0.4740 -0.0776  0.4456
   20SAPS   H7R 2576   1.487   2.418   3.428 -0.4488 -1.0956  1.4018
   20SAPS   H7S 2577   1.616   2.299   3.422 -0.8039 -3.0309  1.0452
   20SAPS   C28 2578   1.420   2.225   3.381  0.0336 -0.1992 -0.7638
   20SAPS   H8R 2579   1.384   2.173   3.291  0.5424  2.0410 -2.3453
   20SAPS   C29 2580   1.339   2.221   3.487  0.0387  0.2120  0.6234
   20SAPS   H9R 2581   1.260   2.147   3.470  0.6713  0.0568 -2.1152
   20SAPS  C210 2582   1.359   2.277   3.622  0.4732  1.0715  0.6619
   20SAPS  H10R 2583   1.443   2.349   3.618  1.1677  0.2276 -0.6553
   20SAPS  H10S 2584   1.387   2.192   3.689  0.7958  1.8748  1.5691
   20SAPS  C211 2585   1.238   2.351   3.665 -0.5450 -0.2772  0.1297
   20SAPS  H11R 2586   1.163   2.381   3.590 -1.6312 -0.8491  0.9572
   20SAPS  C212 2587   1.212   2.406   3.785 -0.1071 -0.1311 -0.0646
   20SAPS  H12R 2588   1.113   2.452   3.795  0.3336  1.2711 -1.6791
   20SAPS  C213 2589   1.303   2.404   3.910  0.1426 -0.1345  0.2944
   20SAPS  H13R 2590   1.348   2.304   3.923 -0.4809 -0.2930  1.3689
   20SAPS  H13S 2591   1.248   2.436   4.002  1.0753  1.3735  0.3634
   20SAPS  C214 2592   1.415   2.502   3.895 -1.0659 -0.0657 -0.5116
   20SAPS  H14R 2593   1.463   2.503   3.796 -0.1943 -1.1235 -0.1144
   20SAPS  C215 2594   1.441   2.608   3.980  0.1155  0.0741 -0.3220
   20SAPS  H15R 2595   1.517   2.682   3.950 -1.6732  1.0529 -2.7111
   20SAPS  C216 2596   1.377   2.650   4.108  0.2650  0.7522 -0.2395
   20SAPS  H16R 2597   1.456   2.638   4.185 -2.2801  0.5152  2.4810
   20SAPS  H16S 2598   1.290   2.592   4.143 -0.7135  1.3399 -1.6038
   20SAPS  C217 2599   1.329   2.797   4.094  0.7551  0.2882 -0.1003
   20SAPS  H17R 2600   1.247   2.806   4.019  1.6265 -1.7931 -1.3749
   20SAPS  H17S 2601   1.407   2.865   4.054  0.9231 -0.1386 -0.5071
   20SAPS  C218 2602   1.289   2.843   4.230  0.3223 -0.3567  0.1550
   20SAPS  H18R 2603   1.357   2.807   4.309 -0.8936  0.0910  1.4461
   20SAPS  H18S 2604   1.189   2.805   4.259  0.5993 -0.6811  0.7011
   20SAPS  C219 2605   1.284   2.991   4.247  0.3204  0.1825  0.2210
   20SAPS  H19R 2606   1.207   3.046   4.189 -0.1181 -0.1973  0.4358
   20SAPS  H19S 2607   1.389   3.008   4.214 -0.1295 -3.0613 -3.8467
   20SAPS  C220 2608   1.275   3.027   4.391 -0.1862  0.5332  0.4374
   20SAPS  H20R 2609   1.254   3.136   4.402  1.5950  1.1574 -1.6997
   20SAPS  H20S 2610   1.369   3.016   4.448  0.9039  1.4214 -1.1090
   20SAPS  H20T 2611   1.194   2.964   4.433 -0.1571 -0.6616 -1.2264
   20SAPS   C33 2612   2.258   2.452   3.262 -0.3814 -0.2764  0.0962
   20SAPS   H3X 2613   2.306   2.376   3.328  1.0663  1.1422  0.7661
   20SAPS   H3Y 2614   2.175   2.408   3.203  1.1611  0.1979 -2.5717
   20SAPS   C34 2615   2.206   2.561   3.359 -0.2723 -0.0187  0.3491
   20SAPS   H4X 2616   2.151   2.639   3.302 -1.3697  0.2375  1.7182
   20SAPS   H4Y 2617   2.301   2.606   3.393  1.1366 -1.1358 -1.8793
   20SAPS   C35 2618   2.129   2.507   3.476 -0.3623 -0.0070 -0.2436
   20SAPS   H5X 2619   2.174   2.410   3.505  0.7762  0.6532  0.2676
   20SAPS   H5Y 2620   2.026   2.481   3.442 -0.2702  0.4935 -0.9274
   20SAPS   C36 2621   2.125   2.592   3.598  0.4656 -0.2631 -0.0223
   20SAPS   H6X 2622   2.086   2.692   3.570  0.5425 -0.7607 -2.0588
   20SAPS   H6Y 2623   2.230   2.609   3.632  1.2018 -2.0320 -1.2027
   20SAPS   C37 2624   2.064   2.523   3.715 -0.3839 -0.1782  0.0773
   20SAPS   H7X 2625   2.110   2.424   3.731 -1.6605 -0.9755 -0.9634
   20SAPS   H7Y 2626   1.955   2.506   3.700 -0.6164  1.4198 -0.2106
   20SAPS   C38 2627   2.096   2.608   3.838 -0.1455 -0.5188  0.3058
   20SAPS   H8X 2628   2.054   2.709   3.819  2.6911  0.8200  0.5045
   20SAPS   H8Y 2629   2.206   2.624   3.849 -0.3691 -0.1469  2.3185
   20SAPS   C39 2630   2.045   2.547   3.965  0.2056 -0.5809 -0.3297
   20SAPS   H9X 2631   2.111   2.460   3.986 -1.3007 -1.2819  1.8410
   20SAPS   H9Y 2632   1.941   2.511   3.949 -0.2850 -0.3415  2.0682
   20SAPS  C310 2633   2.062   2.641   4.089  0.4716  0.2320  0.1560
   20SAPS  H10X 2634   2.003   2.729   4.057 -1.1088 -0.9447 -0.2697
   20SAPS  H10Y 2635   2.168   2.672   4.105  0.8968 -1.7110  1.5243
   20SAPS  C311 2636   2.003   2.582   4.215 -0.0353 -0.0747 -0.3283
   20SAPS  H11X 2637   2.003   2.647   4.304 -0.4831 -2.4304  1.4941
   20SAPS  H11Y 2638   2.054   2.490   4.252 -1.0224  0.3484  2.3015
   20SAPS  C312 2639   1.864   2.525   4.199 -0.2632  0.0254 -0.4005
   20SAPS  H12X 2640   1.871   2.423   4.156  0.1741 -0.8902  1.7114
   20SAPS  H12Y 2641   1.812   2.575   4.114 -1.4820 -2.0114 -0.9145
   20SAPS  C313 2642   1.780   2.540   4.326 -0.4750 -0.0086  0.5058
   20SAPS  H13X 2643   1.836   2.508   4.417  0.6366 -2.5906 -0.9782
   20SAPS  H13Y 2644   1.690   2.476   4.314 -0.2042  0.0030 -1.9223
   20SAPS  C314 2645   1.725   2.685   4.345 -0.3108  0.1060 -0.4518
   20SAPS  H14X 2646   1.713   2.738   4.248 -1.2772 -0.1987 -0.5037
   20SAPS  H14Y 2647   1.813   2.744   4.380 -0.9796  2.6763 -2.8115
   20SAPS  C315 2648   1.612   2.709   4.442  0.1607  0.5483 -0.0024
   20SAPS  H15X 2649   1.529   2.635   4.448 -1.3669  2.0562 -1.3151
   20SAPS  H15Y 2650   1.577   2.808   4.405 -0.7039  0.9094  1.6744
   20SAPS  C316 2651   1.659   2.737   4.585  0.5614  0.1006 -0.5783
   20SAPS  H16X 2652   1.740   2.813   4.582  1.4102 -0.7306  0.3359
   20SAPS  H16Y 2653   1.707   2.640   4.613 -0.5549 -0.5670 -0.9268
   20SAPS  C317 2654   1.550   2.779   4.691  0.2775  0.5487 -0.7329
   20SAPS  H17X 2655   1.473   2.700   4.698 -0.2402  1.1290  0.5343
   20SAPS  H17Y 2656   1.494   2.867   4.653 -2.9418 -1.3163 -0.6645
   20SAPS  C318 2657   1.601   2.802   4.832 -0.7998 -0.1072 -0.2467
   20SAPS  H18X 2658   1.661   2.896   4.828  1.9528 -1.6931  0.7891
   20SAPS  H18Y 2659   1.677   2.729   4.865 -0.1781  0.4878 -0.3333
   20SAPS  H18Z 2660   1.517   2.794   4.905 -0.0743 -3.1516  0.3743
   21CHL1    C3 2661   6.591   3.557   6.448  0.3982  0.1812  0.7072
   21CHL1    H3 2662   6.595   3.454   6.406  0.1362 -0.3351  1.9048
   21CHL1    O3 2663   6.612   3.542   6.584 -0.0963  0.0644  0.4486
   21CHL1   H3' 2664   6.636   3.627   6.620 -0.8315  0.0655  0.9607
   21CHL1    C4 2665   6.697   3.637   6.377  0.0670 -0.7856  0.3655
   21CHL1   H4A 2666   6.708   3.733   6.432  0.0797  0.0046 -0.9765
   21CHL1   H4B 2667   6.796   3.589   6.392 -0.3022 -1.0270  2.4565
   21CHL1    C5 2668   6.669   3.667   6.230  0.3513  0.0099  0.6317
   21CHL1    C6 2669   6.762   3.633   6.140  0.3337 -0.4667 -0.5953
   21CHL1    H6 2670   6.856   3.587   6.173 -0.5326 -0.7882  1.6612
   21CHL1    C7 2671   6.746   3.660   5.996 -0.4526  0.1207  0.0771
   21CHL1   H7A 2672   6.836   3.713   5.957  0.2552 -2.3247 -1.9299
   21CHL1   H7B 2673   6.755   3.565   5.938  1.9253  0.8079 -0.8234
   21CHL1    C8 2674   6.621   3.741   5.954 -0.2267  0.5110 -1.0569
   21CHL1    H8 2675   6.639   3.847   5.980 -0.2990  0.2139  0.2502
   21CHL1   C14 2676   6.587   3.707   5.810  0.2149 -0.1583  0.0427
   21CHL1   H14 2677   6.561   3.599   5.812  1.6813 -0.5276  0.7314
   21CHL1   C15 2678   6.698   3.740   5.706 -0.3254  0.0244  0.1469
   21CHL1  H15A 2679   6.754   3.830   5.740  0.6040 -0.6361  0.3899
   21CHL1  H15B 2680   6.783   3.669   5.702 -0.4388 -0.0628 -2.8786
   21CHL1   C16 2681   6.628   3.746   5.567  0.0959 -0.7836  0.1724
   21CHL1  H16A 2682   6.663   3.830   5.503  0.1605 -0.0546  1.1462
   21CHL1  H16B 2683   6.646   3.654   5.507 -0.3860 -0.5729 -0.3018
   21CHL1   C17 2684   6.474   3.756   5.603 -0.2581 -0.0705 -0.0568
   21CHL1   H17 2685   6.432   3.653   5.595 -1.7314  0.5735 -0.9187
   21CHL1   C13 2686   6.464   3.790   5.756  0.7072  0.5511  0.4396
   21CHL1   C18 2687   6.492   3.942   5.761  0.0798  0.1562 -0.1434
   21CHL1  H18A 2688   6.583   3.978   5.707 -0.6005 -0.0355 -1.4602
   21CHL1  H18B 2689   6.404   4.004   5.735  0.1834  0.5797  0.5086
   21CHL1  H18C 2690   6.501   3.979   5.865 -0.2042 -0.4047  0.0815
   21CHL1   C12 2691   6.342   3.750   5.836  0.3988 -0.1152  0.1574
   21CHL1  H12A 2692   6.260   3.820   5.812  0.4888 -0.0531  0.0288
   21CHL1  H12B 2693   6.308   3.644   5.828  2.1555 -0.9660  2.5775
   21CHL1   C11 2694   6.369   3.770   5.989  0.7528 -0.0778 -0.0032
   21CHL1  H11A 2695   6.378   3.880   6.007 -0.0402 -0.3357  2.3362
   21CHL1  H11B 2696   6.283   3.730   6.047  0.2489  0.7336 -0.1708
   21CHL1    C9 2697   6.500   3.701   6.039 -0.2892 -1.1064  0.3203
   21CHL1    H9 2698   6.477   3.594   6.020 -2.3825 -0.5690 -0.4115
   21CHL1   C10 2699   6.522   3.722   6.195 -0.2744 -1.1538  0.7662
   21CHL1   C19 2700   6.519   3.873   6.242 -0.2755 -0.0864 -0.0154
   21CHL1  H19A 2701   6.517   3.880   6.353 -1.8908 -1.2782  0.0644
   21CHL1  H19B 2702   6.616   3.915   6.207  0.8035 -1.1336  1.5914
   21CHL1  H19C 2703   6.436   3.937   6.205 -0.1393  1.8573  2.7190
   21CHL1    C1 2704   6.418   3.639   6.275  0.3966 -0.0622  0.5686
   21CHL1   H1A 2705   6.321   3.685   6.250  0.1719 -1.3893 -1.2823
   21CHL1   H1B 2706   6.425   3.537   6.230  2.0858 -0.3583  1.4074
   21CHL1    C2 2707   6.450   3.614   6.419  0.2215 -0.1390  1.0808
   21CHL1   H2A 2708   6.375   3.549   6.469  0.6808 -0.4370  1.3863
   21CHL1   H2B 2709   6.443   3.715   6.463  0.1407 -0.2813  1.3974
   21CHL1   C20 2710   6.395   3.835   5.497 -1.1608  0.4571 -0.5299
   21CHL1   H20 2711   6.431   3.940   5.499 -0.0017  0.0790 -0.4588
   21CHL1   C21 2712   6.250   3.829   5.526  0.3803 -1.1499  0.2947
   21CHL1  H21A 2713   6.185   3.864   5.443 -0.7756 -0.4167  1.4744
   21CHL1  H21B 2714   6.223   3.885   5.618  0.5560 -1.1919  0.3732
   21CHL1  H21C 2715   6.218   3.724   5.540 -1.1856 -0.5315  1.6320
   21CHL1   C22 2716   6.419   3.776   5.356  0.2645  0.4800 -0.4380
   21CHL1  H22A 2717   6.529   3.770   5.342  0.4669 -0.8795  1.4392
   21CHL1  H22B 2718   6.370   3.677   5.343  2.0350 -0.6010  0.7492
   21CHL1   C23 2719   6.365   3.882   5.255 -0.3251  0.5426 -0.0327
   21CHL1  H23A 2720   6.255   3.864   5.248 -0.1817 -0.0081 -1.2636
   21CHL1  H23B 2721   6.395   3.985   5.282  2.7034 -0.1964 -0.2186
   21CHL1   C24 2722   6.421   3.859   5.111 -0.2581  0.4313  0.4667
   21CHL1  H24A 2723   6.527   3.891   5.107  0.4922 -1.9430 -0.6659
   21CHL1  H24B 2724   6.420   3.752   5.083  1.6863  0.3450  0.5705
   21CHL1   C25 2725   6.363   3.947   4.993  0.1490 -0.2437  0.4421
   21CHL1   H25 2726   6.263   3.902   4.973 -0.6824  1.3426  0.8548
   21CHL1   C26 2727   6.349   4.091   5.028 -0.3005  0.2873  0.7802
   21CHL1  H26A 2728   6.447   4.136   5.051  0.0273 -0.4716  0.9231
   21CHL1  H26B 2729   6.306   4.134   4.935 -0.8266 -1.0478  0.3796
   21CHL1  H26C 2730   6.278   4.105   5.113 -1.8134 -2.2840  0.0735
   21CHL1   C27 2731   6.456   3.915   4.866 -0.1710 -1.0022 -0.0466
   21CHL1  H27A 2732   6.427   3.973   4.776 -0.9490 -0.5088  0.5104
   21CHL1  H27B 2733   6.560   3.948   4.886 -0.2920 -0.7942  0.2503
   21CHL1  H27C 2734   6.456   3.807   4.838  0.6097 -0.9109 -0.4011
   22CHL1    C3 2735   1.061   2.810   6.712  0.0132 -0.8100  0.3397
   22CHL1    H3 2736   1.015   2.911   6.717  0.4453 -0.6509  1.2737
   22CHL1    O3 2737   1.053   2.770   6.848  0.0902 -0.1824 -0.2552
   22CHL1   H3' 2738   0.964   2.733   6.851 -0.3315  0.7046 -1.1773
   22CHL1    C4 2739   0.978   2.721   6.617  0.0118 -0.4123 -0.0268
   22CHL1   H4A 2740   1.019   2.621   6.640  2.1538  0.0382 -1.5003
   22CHL1   H4B 2741   0.875   2.718   6.657  1.1093 -0.7630  3.0377
   22CHL1    C5 2742   0.994   2.758   6.468 -0.8963  0.5061  0.3970
   22CHL1    C6 2743   0.894   2.788   6.388 -0.0543  0.0094 -0.0430
   22CHL1    H6 2744   0.791   2.772   6.422  0.0367 -3.1828 -0.9113
   22CHL1    C7 2745   0.899   2.805   6.239 -0.3871 -0.0095 -0.1439
   22CHL1   H7A 2746   0.813   2.753   6.192 -0.8534  0.3031  0.3524
   22CHL1   H7B 2747   0.881   2.908   6.202 -1.2651 -0.7292 -1.8744
   22CHL1    C8 2748   1.039   2.750   6.187  0.6443 -0.5289  0.4502
   22CHL1    H8 2749   1.036   2.639   6.189  0.9725 -0.5771 -0.8724
   22CHL1   C14 2750   1.050   2.791   6.036 -0.0730  0.4808 -0.5879
   22CHL1   H14 2751   1.059   2.901   6.045  2.8220  0.2163  1.1002
   22CHL1   C15 2752   0.936   2.758   5.933  0.5454  0.7340  0.6120
   22CHL1  H15A 2753   0.900   2.656   5.961  1.2349  0.4372  0.4495
   22CHL1  H15B 2754   0.872   2.848   5.943  2.8639  2.3948  1.2969
   22CHL1   C16 2755   1.012   2.760   5.801  0.2194 -0.9832 -0.0730
   22CHL1  H16A 2756   1.017   2.663   5.748  0.8736  1.3873 -4.9734
   22CHL1  H16B 2757   0.974   2.834   5.726  0.9180 -1.4475 -0.8984
   22CHL1   C17 2758   1.162   2.801   5.836 -1.2956  0.0892  0.4539
   22CHL1   H17 2759   1.154   2.912   5.830 -0.2784  0.1392 -0.1760
   22CHL1   C13 2760   1.190   2.752   5.980  0.0938  0.3187  0.1101
   22CHL1   C18 2761   1.191   2.595   5.986  0.2922  0.5895 -0.2700
   22CHL1  H18A 2762   1.210   2.554   6.088 -1.0516  1.5411  0.3952
   22CHL1  H18B 2763   1.092   2.552   5.961  0.0761  0.8357  0.1492
   22CHL1  H18C 2764   1.258   2.550   5.910  2.3338  3.8226 -0.6214
   22CHL1   C12 2765   1.301   2.819   6.055 -0.1874 -0.2405  0.9976
   22CHL1  H12A 2766   1.406   2.804   6.022 -0.3024  0.5594  0.2251
   22CHL1  H12B 2767   1.299   2.929   6.038  1.9866 -0.4738 -1.4926
   22CHL1   C11 2768   1.294   2.794   6.202 -0.2387 -0.1327 -0.1065
   22CHL1  H11A 2769   1.329   2.690   6.218  0.9098 -0.0897 -1.9993
   22CHL1  H11B 2770   1.361   2.860   6.261 -1.7844 -0.8825  2.6293
   22CHL1    C9 2771   1.152   2.811   6.268 -0.3792  0.5266  0.0984
   22CHL1    H9 2772   1.128   2.919   6.267 -0.5165  0.6539  3.6938
   22CHL1   C10 2773   1.141   2.765   6.414  0.6574  0.0595  0.2464
   22CHL1   C19 2774   1.203   2.615   6.429 -0.1788 -0.4327  0.1901
   22CHL1  H19A 2775   1.309   2.613   6.397 -0.5988 -2.6151 -1.2910
   22CHL1  H19B 2776   1.207   2.576   6.534  1.5155  1.0809  0.7344
   22CHL1  H19C 2777   1.142   2.544   6.368  0.1083 -1.7192  1.3379
   22CHL1    C1 2778   1.229   2.849   6.511 -0.4986  0.0465 -0.5389
   22CHL1   H1A 2779   1.337   2.833   6.495  0.2088  1.3139  2.3099
   22CHL1   H1B 2780   1.207   2.957   6.493  1.1880  0.0423 -3.0971
   22CHL1    C2 2781   1.207   2.813   6.657  1.2194  0.2914  0.1683
   22CHL1   H2A 2782   1.257   2.887   6.722 -1.9606  0.3623  2.8477
   22CHL1   H2B 2783   1.246   2.710   6.672  0.8248  0.0707 -0.2715
   22CHL1   C20 2784   1.268   2.770   5.731 -0.1694  0.7123  0.4467
   22CHL1   H20 2785   1.314   2.672   5.753 -3.0055 -1.7129 -3.1451
   22CHL1   C21 2786   1.386   2.874   5.730 -0.3193 -0.2779  0.4650
   22CHL1  H21A 2787   1.460   2.841   5.654  0.8743 -1.3196  2.0144
   22CHL1  H21B 2788   1.441   2.867   5.826  0.3533 -1.5086  0.0205
   22CHL1  H21C 2789   1.346   2.976   5.716  0.8059 -0.0680 -1.5693
   22CHL1   C22 2790   1.222   2.734   5.587  0.2877 -0.0838 -0.0408
   22CHL1  H22A 2791   1.316   2.700   5.539 -0.3967 -1.7542 -0.2619
   22CHL1  H22B 2792   1.152   2.649   5.598  0.1447  0.1189  0.6416
   22CHL1   C23 2793   1.152   2.843   5.497 -0.2057 -0.4522  0.2776
   22CHL1  H23A 2794   1.059   2.874   5.549 -0.2508 -0.6391  0.3073
   22CHL1  H23B 2795   1.221   2.929   5.487  0.1029 -0.7872 -0.5987
   22CHL1   C24 2796   1.126   2.794   5.357  0.0268 -0.8746 -1.1674
   22CHL1  H24A 2797   1.230   2.766   5.333  1.1877  2.1576 -0.2204
   22CHL1  H24B 2798   1.061   2.704   5.352 -0.4309 -0.5127 -1.8435
   22CHL1   C25 2799   1.078   2.905   5.265  0.6617  0.5459 -0.5282
   22CHL1   H25 2800   1.015   2.976   5.322  0.0067 -0.2606 -0.2370
   22CHL1   C26 2801   1.203   2.991   5.231  0.3751  0.4786  0.0435
   22CHL1  H26A 2802   1.159   3.058   5.154 -2.4341  1.5322  2.3604
   22CHL1  H26B 2803   1.237   3.051   5.318 -1.0404  1.2309  0.1126
   22CHL1  H26C 2804   1.275   2.922   5.184  0.6777  0.1619  0.9483
   22CHL1   C27 2805   1.013   2.856   5.138  0.0127  0.0792 -0.0290
   22CHL1  H27A 2806   0.924   2.791   5.154 -0.2952  0.6874  0.8422
   22CHL1  H27B 2807   0.976   2.938   5.074 -0.9238  0.6675  1.2082
   22CHL1  H27C 2808   1.093   2.809   5.077  0.2147 -0.2173  0.4559
   23CHL1    C3 2809   6.476   2.911   6.488  0.7045 -0.4411  1.2005
   23CHL1    H3 2810   6.383   2.853   6.471  0.6685  0.2295 -1.3666
   23CHL1    O3 2811   6.526   2.870   6.610 -0.2842  0.2849 -0.2258
   23CHL1   H3' 2812   6.594   2.937   6.623 -0.3103 -0.0238  1.9463
   23CHL1    C4 2813   6.579   2.873   6.378  0.4084  0.3389 -0.9625
   23CHL1   H4A 2814   6.670   2.928   6.411  0.0642  0.4955 -0.2633
   23CHL1   H4B 2815   6.597   2.764   6.387 -1.4906 -0.0037 -0.9894
   23CHL1    C5 2816   6.529   2.908   6.243 -0.5243 -0.0035  0.9711
   23CHL1    C6 2817   6.520   2.816   6.141  0.7719  0.2422 -0.7435
   23CHL1    H6 2818   6.554   2.713   6.158  0.9366  0.1834 -1.4234
   23CHL1    C7 2819   6.484   2.846   5.995  0.3059 -0.7092  0.0172
   23CHL1   H7A 2820   6.560   2.793   5.935 -0.0184  0.2795 -1.3042
   23CHL1   H7B 2821   6.379   2.815   5.979  0.5776 -0.9771 -1.3139
   23CHL1    C8 2822   6.504   3.001   5.972 -0.3239 -0.6297  0.1676
   23CHL1    H8 2823   6.613   3.017   5.965 -0.1148 -1.9795  0.1412
   23CHL1   C14 2824   6.441   3.045   5.841  0.0518  0.0506 -0.1060
   23CHL1   H14 2825   6.334   3.018   5.857 -0.4102  1.6376 -0.3954
   23CHL1   C15 2826   6.485   2.967   5.714  0.5151 -0.2851 -0.4237
   23CHL1  H15A 2827   6.595   2.961   5.730  0.8663  3.1943 -0.7251
   23CHL1  H15B 2828   6.431   2.871   5.696 -1.5742 -0.1131  3.8255
   23CHL1   C16 2829   6.445   3.065   5.598  0.2087  0.0718  0.2728
   23CHL1  H16A 2830   6.545   3.095   5.561 -0.2015 -0.7393 -1.6371
   23CHL1  H16B 2831   6.389   3.015   5.516  0.9058 -0.2689 -0.0067
   23CHL1   C17 2832   6.382   3.195   5.657  0.2724  0.7170  0.1717
   23CHL1   H17 2833   6.274   3.167   5.660 -0.5916  3.4247 -1.9468
   23CHL1   C13 2834   6.437   3.193   5.805  0.5223  0.1154  0.2125
   23CHL1   C18 2835   6.582   3.252   5.805  0.1710  0.3278  0.0818
   23CHL1  H18A 2836   6.632   3.208   5.716  1.0742  0.0602  0.7029
   23CHL1  H18B 2837   6.583   3.363   5.799  0.0845  0.2853 -0.8182
   23CHL1  H18C 2838   6.651   3.221   5.887  0.5365 -2.3414 -1.1203
   23CHL1   C12 2839   6.354   3.267   5.915 -0.1093 -0.7304 -0.4026
   23CHL1  H12A 2840   6.348   3.377   5.901 -0.4491 -0.8862 -1.5954
   23CHL1  H12B 2841   6.246   3.241   5.912 -0.6051  1.0345  0.7523
   23CHL1   C11 2842   6.418   3.236   6.050 -0.4323 -0.1920  0.0762
   23CHL1  H11A 2843   6.518   3.286   6.054  0.8688 -2.4504 -1.5488
   23CHL1  H11B 2844   6.364   3.286   6.132  0.6526 -0.5554  1.0441
   23CHL1    C9 2845   6.438   3.084   6.085  0.1045  0.0487  0.4299
   23CHL1    H9 2846   6.336   3.043   6.097  1.1634 -4.2206 -2.6569
   23CHL1   C10 2847   6.514   3.058   6.221  0.1255 -0.7162 -0.8212
   23CHL1   C19 2848   6.660   3.128   6.216  0.5212 -0.8662 -0.3795
   23CHL1  H19A 2849   6.723   3.095   6.300  0.9056  0.0323 -0.3006
   23CHL1  H19B 2850   6.705   3.104   6.117 -1.2266  0.3343 -1.5493
   23CHL1  H19C 2851   6.642   3.238   6.220 -2.3835 -1.2280 -1.1817
   23CHL1    C1 2852   6.421   3.114   6.332  0.2576 -0.2077  0.5088
   23CHL1   H1A 2853   6.424   3.225   6.335  0.4006 -0.1634 -0.7584
   23CHL1   H1B 2854   6.315   3.086   6.315  0.5005 -2.8500  2.7722
   23CHL1    C2 2855   6.442   3.063   6.479 -0.3551 -0.5309  0.5440
   23CHL1   H2A 2856   6.346   3.078   6.534  0.4715  0.2897  1.8013
   23CHL1   H2B 2857   6.522   3.126   6.523  2.1490 -0.6450 -3.3792
   23CHL1   C20 2858   6.400   3.319   5.570  0.2759 -0.7054 -0.1450
   23CHL1   H20 2859   6.500   3.363   5.589 -0.8768  1.2898  1.8881
   23CHL1   C21 2860   6.286   3.422   5.607 -0.1596  0.2382 -0.7989
   23CHL1  H21A 2861   6.286   3.504   5.532 -0.0484  0.5453 -0.4608
   23CHL1  H21B 2862   6.298   3.461   5.710 -0.2491 -2.5463  0.3788
   23CHL1  H21C 2863   6.194   3.360   5.595 -0.0793  0.2285 -1.4250
   23CHL1   C22 2864   6.372   3.300   5.413 -0.1714 -0.2943  0.4856
   23CHL1  H22A 2865   6.292   3.224   5.399 -1.8034  1.2073  1.1996
   23CHL1  H22B 2866   6.324   3.394   5.376  0.5162 -0.4847 -0.9251
   23CHL1   C23 2867   6.494   3.262   5.331  0.5417 -0.3875 -0.0787
   23CHL1  H23A 2868   6.531   3.169   5.378 -1.7304 -1.9169 -1.1072
   23CHL1  H23B 2869   6.471   3.234   5.226  3.9304 -2.8827 -0.3194
   23CHL1   C24 2870   6.598   3.378   5.322 -0.5976 -0.4797  0.3714
   23CHL1  H24A 2871   6.545   3.470   5.291 -1.0539 -1.0572 -0.6198
   23CHL1  H24B 2872   6.647   3.391   5.421  0.7014 -0.3845 -0.2719
   23CHL1   C25 2873   6.706   3.353   5.214 -0.6187  0.6426 -0.0879
   23CHL1   H25 2874   6.663   3.300   5.127  1.2859  0.7801 -1.1537
   23CHL1   C26 2875   6.770   3.489   5.166 -0.2921 -0.4466 -0.4106
   23CHL1  H26A 2876   6.816   3.544   5.251 -1.6007  0.1005 -0.0376
   23CHL1  H26B 2877   6.843   3.484   5.083  0.0254 -0.4662 -0.1325
   23CHL1  H26C 2878   6.687   3.550   5.126 -2.1434 -2.4818  0.1562
   23CHL1   C27 2879   6.820   3.261   5.271 -0.2611  0.4745  0.3478
   23CHL1  H27A 2880   6.869   3.298   5.364  1.4325 -0.2428 -0.2339
   23CHL1  H27B 2881   6.779   3.159   5.291 -2.9514  1.4877  0.3765
   23CHL1  H27C 2882   6.903   3.242   5.200 -0.4083 -1.5278  0.6515
   24CHL1    C3 2883   1.449   4.259   6.598  0.2511 -0.2415  0.3850
   24CHL1    H3 2884   1.348   4.296   6.573  0.2190 -1.1024 -0.8149
   24CHL1    O3 2885   1.465   4.211   6.732  0.5236 -0.3693  0.2453
   24CHL1   H3' 2886   1.560   4.210   6.744  0.5337  0.8086  0.3124
   24CHL1    C4 2887   1.485   4.157   6.495 -0.2448  0.2126  0.3888
   24CHL1   H4A 2888   1.563   4.082   6.521 -1.6689 -1.3796  0.3020
   24CHL1   H4B 2889   1.406   4.080   6.511  1.5900 -1.8914 -0.0706
   24CHL1    C5 2890   1.495   4.211   6.357  0.5462  0.2626  1.4770
   24CHL1    C6 2891   1.409   4.172   6.260  1.1396 -0.3189 -0.2945
   24CHL1    H6 2892   1.342   4.086   6.278  0.3714  0.0693 -1.2222
   24CHL1    C7 2893   1.406   4.216   6.116 -0.2391  0.0280 -0.5290
   24CHL1   H7A 2894   1.396   4.124   6.055 -3.6350 -0.4804  0.5490
   24CHL1   H7B 2895   1.314   4.279   6.108 -0.0833  0.2561 -0.5306
   24CHL1    C8 2896   1.531   4.298   6.079 -0.2145  0.5164 -0.4050
   24CHL1    H8 2897   1.609   4.223   6.054  0.7680  2.2086 -2.7312
   24CHL1   C14 2898   1.525   4.378   5.945  0.0452  0.5332  0.1983
   24CHL1   H14 2899   1.445   4.452   5.965 -2.3017 -2.0922  1.2818
   24CHL1   C15 2900   1.471   4.308   5.813  0.4544  0.2353 -0.0235
   24CHL1  H15A 2901   1.505   4.202   5.803 -0.8265 -0.2588  0.6561
   24CHL1  H15B 2902   1.360   4.309   5.812  0.4526  0.2746  0.2330
   24CHL1   C16 2903   1.535   4.396   5.709 -0.1664 -0.2900 -0.8001
   24CHL1  H16A 2904   1.614   4.342   5.652  0.2626  0.7440 -1.2093
   24CHL1  H16B 2905   1.458   4.427   5.636 -0.0663  1.0513 -0.3627
   24CHL1   C17 2906   1.604   4.516   5.783 -0.4375  0.0767  0.1387
   24CHL1   H17 2907   1.531   4.591   5.819  0.9294  0.8127  1.4837
   24CHL1   C13 2908   1.653   4.454   5.906 -0.3426 -0.1558  0.5472
   24CHL1   C18 2909   1.776   4.357   5.883 -0.0601 -0.1968 -0.4676
   24CHL1  H18A 2910   1.767   4.278   5.805  1.3244 -0.0620 -0.7833
   24CHL1  H18B 2911   1.865   4.421   5.863 -1.4931  1.6682 -1.1396
   24CHL1  H18C 2912   1.794   4.292   5.972 -3.7644 -0.6500  0.1276
   24CHL1   C12 2913   1.675   4.549   6.031 -0.7811  0.7248 -0.7895
   24CHL1  H12A 2914   1.752   4.629   6.024  0.7938 -0.1824  3.2979
   24CHL1  H12B 2915   1.584   4.610   6.049  0.1945  1.8397  0.6268
   24CHL1   C11 2916   1.704   4.472   6.160 -0.0396  0.1797  0.9432
   24CHL1  H11A 2917   1.792   4.407   6.141 -1.1596 -0.5651 -2.5236
   24CHL1  H11B 2918   1.726   4.546   6.240 -0.5581  0.6523  0.6546
   24CHL1    C9 2919   1.578   4.384   6.198 -0.5446 -1.0560 -0.4656
   24CHL1    H9 2920   1.498   4.461   6.205  0.6914  0.3270 -1.0465
   24CHL1   C10 2921   1.595   4.317   6.342  0.8528 -0.8106  0.9876
   24CHL1   C19 2922   1.734   4.264   6.358  0.4602 -0.3579 -0.2886
   24CHL1  H19A 2923   1.744   4.194   6.444 -0.4512  0.3542  0.4118
   24CHL1  H19B 2924   1.754   4.209   6.264  0.1079  0.1819 -0.6902
   24CHL1  H19C 2925   1.801   4.352   6.361 -0.3441  0.2363  1.6267
   24CHL1    C1 2926   1.567   4.427   6.444  0.5023  0.0116 -0.2788
   24CHL1   H1A 2927   1.646   4.505   6.436  1.6307 -0.9458  1.0272
   24CHL1   H1B 2928   1.473   4.482   6.420  0.0662 -0.6673 -0.1487
   24CHL1    C2 2929   1.546   4.379   6.584  0.8880 -0.0194 -0.1032
   24CHL1   H2A 2930   1.499   4.458   6.646 -0.3253  0.7035 -1.8492
   24CHL1   H2B 2931   1.649   4.359   6.619  1.1148  1.2133 -0.0145
   24CHL1   C20 2932   1.704   4.590   5.697 -0.4856  0.0914  0.2565
   24CHL1   H20 2933   1.795   4.528   5.688 -0.1643  0.8430 -2.6724
   24CHL1   C21 2934   1.745   4.719   5.776  0.0193  0.5559 -0.1775
   24CHL1  H21A 2935   1.827   4.699   5.848 -0.1076  1.4112  0.2168
   24CHL1  H21B 2936   1.657   4.767   5.823 -1.2935 -1.6890 -0.1740
   24CHL1  H21C 2937   1.788   4.795   5.707 -1.2044  1.2121 -0.2435
   24CHL1   C22 2938   1.666   4.624   5.549  0.1814 -0.1336  0.3994
   24CHL1  H22A 2939   1.622   4.540   5.490  1.6537 -0.4774 -0.2353
   24CHL1  H22B 2940   1.588   4.703   5.550  0.9059  0.5859  0.8082
   24CHL1   C23 2941   1.780   4.683   5.463  0.5218  0.2448 -0.7148
   24CHL1  H23A 2942   1.784   4.794   5.467 -1.6119  0.3757 -1.2703
   24CHL1  H23B 2943   1.880   4.637   5.483  1.2861  2.0715 -0.1421
   24CHL1   C24 2944   1.749   4.643   5.315  0.5031 -0.2228  0.2596
   24CHL1  H24A 2945   1.728   4.534   5.309 -1.3590 -0.0581  2.5108
   24CHL1  H24B 2946   1.654   4.694   5.288  0.9257  0.0420 -0.7734
   24CHL1   C25 2947   1.855   4.687   5.211  0.0086  0.0039  0.2918
   24CHL1   H25 2948   1.872   4.793   5.238  0.3654  0.2739 -0.9215
   24CHL1   C26 2949   1.995   4.625   5.224 -0.5779  0.6830 -0.6913
   24CHL1  H26A 2950   1.993   4.516   5.244 -0.9708  0.8699  0.3723
   24CHL1  H26B 2951   2.056   4.645   5.134 -0.6156 -0.3278 -0.9513
   24CHL1  H26C 2952   2.047   4.663   5.314 -0.7500  0.1808 -0.3761
   24CHL1   C27 2953   1.803   4.681   5.071  0.1282  0.4070 -0.7953
   24CHL1  H27A 2954   1.876   4.723   4.999 -0.6232  0.5376 -1.5001
   24CHL1  H27B 2955   1.776   4.576   5.046 -0.3606  0.4185 -0.3418
   24CHL1  H27C 2956   1.708   4.740   5.065 -0.1456  0.6398  3.1380
   25CHL1    C3 2957   6.300   6.650   6.729 -1.0124 -0.1372 -0.3875
   25CHL1    H3 2958   6.278   6.754   6.698 -1.2765 -0.9413 -3.1152
   25CHL1    O3 2959   6.357   6.647   6.860  0.1454  0.5404 -0.4050
   25CHL1   H3' 2960   6.450   6.622   6.862  0.4851  1.6538  2.3652
   25CHL1    C4 2961   6.175   6.564   6.716  0.4012 -0.3275  0.1362
   25CHL1   H4A 2962   6.188   6.459   6.749 -0.6323 -1.2549 -2.2009
   25CHL1   H4B 2963   6.101   6.618   6.779  1.2626  0.2887  0.6446
   25CHL1    C5 2964   6.124   6.560   6.571 -0.8235 -0.0446  0.1554
   25CHL1    C6 2965   6.006   6.604   6.529 -0.9912  0.2210  1.1030
   25CHL1    H6 2966   5.928   6.636   6.598 -2.2869  1.1494 -0.7123
   25CHL1    C7 2967   5.960   6.609   6.383 -0.2166 -0.5430 -0.3604
   25CHL1   H7A 2968   5.850   6.600   6.379 -0.2508  0.1419 -1.1745
   25CHL1   H7B 2969   5.970   6.714   6.350  0.6420  0.1502  1.8994
   25CHL1    C8 2970   6.042   6.525   6.285 -0.4925  0.1445  0.1942
   25CHL1    H8 2971   6.019   6.417   6.302 -0.1948 -0.0039 -0.3307
   25CHL1   C14 2972   6.009   6.567   6.138  0.1355  0.1448  0.1323
   25CHL1   H14 2973   6.041   6.673   6.138 -0.7027  0.4364 -2.0870
   25CHL1   C15 2974   5.868   6.563   6.091  0.5015 -0.0847 -0.0263
   25CHL1  H15A 2975   5.817   6.468   6.119 -0.7806  0.3558 -0.7904
   25CHL1  H15B 2976   5.807   6.649   6.126 -1.8715 -1.2455 -1.0970
   25CHL1   C16 2977   5.876   6.583   5.936 -0.1055 -0.0227 -0.5911
   25CHL1  H16A 2978   5.815   6.502   5.891  0.4568 -0.8637  0.1581
   25CHL1  H16B 2979   5.839   6.685   5.911 -0.6043  0.3408  1.4753
   25CHL1   C17 2980   6.026   6.556   5.891  0.3446  0.2554 -0.0284
   25CHL1   H17 2981   6.067   6.656   5.867 -1.5372  0.7384 -1.5409
   25CHL1   C13 2982   6.087   6.496   6.027  0.2641 -0.5334  0.0711
   25CHL1   C18 2983   6.043   6.350   6.034 -0.4097  0.3114  0.2026
   25CHL1  H18A 2984   5.939   6.337   5.999 -0.3180 -0.7030  0.2872
   25CHL1  H18B 2985   6.114   6.284   5.979  2.8004  1.2937  2.7921
   25CHL1  H18C 2986   6.059   6.307   6.135  0.5387  1.3522  0.5242
   25CHL1   C12 2987   6.241   6.508   6.053  0.4479 -0.4882  0.4561
   25CHL1  H12A 2988   6.295   6.437   5.987  1.7032  2.6671 -2.2292
   25CHL1  H12B 2989   6.273   6.614   6.039 -1.6051  0.3312  1.5030
   25CHL1   C11 2990   6.279   6.478   6.204  0.2059 -0.0056 -0.9700
   25CHL1  H11A 2991   6.250   6.372   6.217  3.4983 -0.7875  1.0724
   25CHL1  H11B 2992   6.389   6.494   6.205 -0.1039  2.6606  0.5427
   25CHL1    C9 2993   6.194   6.546   6.309  0.1503  0.7839 -0.1008
   25CHL1    H9 2994   6.213   6.654   6.288 -0.2918  0.4168 -2.6751
   25CHL1   C10 2995   6.229   6.519   6.461  0.0844  0.2500  0.0964
   25CHL1   C19 2996   6.242   6.364   6.482  0.3674  0.0407 -1.0715
   25CHL1  H19A 2997   6.295   6.342   6.577 -1.7146 -2.5828 -0.3806
   25CHL1  H19B 2998   6.146   6.310   6.468  1.3373 -1.5809 -1.7091
   25CHL1  H19C 2999   6.320   6.329   6.411  0.6306 -2.6669  0.4208
   25CHL1    C1 3000   6.369   6.589   6.486  0.1457  0.0883 -0.5879
   25CHL1   H1A 3001   6.442   6.537   6.421 -1.2080 -0.6554 -1.5445
   25CHL1   H1B 3002   6.361   6.696   6.458  1.3484  0.8953  1.8374
   25CHL1    C2 3003   6.411   6.599   6.635  0.0945  0.3059 -0.3185
   25CHL1   H2A 3004   6.504   6.659   6.644 -0.5698  1.1853  0.8831
   25CHL1   H2B 3005   6.420   6.496   6.675  0.2261  0.7275  0.7676
   25CHL1   C20 3006   6.040   6.475   5.759 -0.5759  0.2356 -0.0929
   25CHL1   H20 3007   6.000   6.372   5.768  1.2337 -0.5803 -0.7744
   25CHL1   C21 3008   6.193   6.457   5.716 -0.1285  0.0935  0.3275
   25CHL1  H21A 3009   6.219   6.545   5.652  1.4400 -0.8339 -0.3560
   25CHL1  H21B 3010   6.211   6.363   5.661 -0.8766 -1.7254  3.0218
   25CHL1  H21C 3011   6.262   6.433   5.800  0.0854 -1.3581 -0.2503
   25CHL1   C22 3012   5.973   6.551   5.644  0.5774  0.2762 -0.1044
   25CHL1  H22A 3013   5.869   6.571   5.674  1.5073  2.6149  1.8669
   25CHL1  H22B 3014   6.028   6.646   5.629  1.0870  0.0339  0.1860
   25CHL1   C23 3015   5.978   6.475   5.506  0.4111 -0.4520  0.1465
   25CHL1  H23A 3016   5.932   6.550   5.439  0.0101 -1.3634 -0.6180
   25CHL1  H23B 3017   6.082   6.451   5.473  0.4613  1.0374 -0.8570
   25CHL1   C24 3018   5.876   6.355   5.511 -0.4714  0.3422 -0.7728
   25CHL1  H24A 3019   5.887   6.301   5.607 -3.3852  2.0060  0.6345
   25CHL1  H24B 3020   5.774   6.399   5.504 -0.9339 -0.3102  1.2847
   25CHL1   C25 3021   5.896   6.250   5.397 -0.0464 -0.2253 -0.1852
   25CHL1   H25 3022   5.998   6.207   5.398  0.1724  0.2832  0.2514
   25CHL1   C26 3023   5.793   6.137   5.402  0.7605 -0.3405  0.3384
   25CHL1  H26A 3024   5.797   6.068   5.315 -0.5001 -2.9954  2.2628
   25CHL1  H26B 3025   5.808   6.066   5.485  4.1785 -2.0002 -1.4931
   25CHL1  H26C 3026   5.687   6.170   5.402  1.1406  1.3950 -3.1197
   25CHL1   C27 3027   5.896   6.328   5.258 -0.4409  0.1768  0.2676
   25CHL1  H27A 3028   5.976   6.405   5.250  0.0876 -0.0838  2.3476
   25CHL1  H27B 3029   5.908   6.252   5.178  0.1444  0.8173 -0.2588
   25CHL1  H27C 3030   5.800   6.377   5.235 -0.5671 -0.5881 -0.9145
   26CHL1    C3 3031   1.567   1.997   6.562 -0.4820 -0.6222  0.5416
   26CHL1    H3 3032   1.666   2.045   6.547 -0.8264 -0.8855 -3.8375
   26CHL1    O3 3033   1.539   1.986   6.697  0.8105 -0.9062  0.9722
   26CHL1   H3' 3034   1.584   1.911   6.735 -0.0003 -1.3615  1.0606
   26CHL1    C4 3035   1.451   2.082   6.501 -0.4870 -0.1968 -0.2090
   26CHL1   H4A 3036   1.349   2.045   6.526  0.3656 -1.2741  1.8865
   26CHL1   H4B 3037   1.454   2.180   6.553 -0.3935  0.8678 -2.1288
   26CHL1    C5 3038   1.449   2.098   6.354  0.3452 -0.1646 -0.7345
   26CHL1    C6 3039   1.473   2.215   6.292 -0.1779 -0.0216 -0.2258
   26CHL1    H6 3040   1.484   2.302   6.357 -1.9847 -0.0861  0.2179
   26CHL1    C7 3041   1.473   2.245   6.142  0.2250  0.1842 -0.2687
   26CHL1   H7A 3042   1.411   2.332   6.113  0.3095  0.5266  0.5624
   26CHL1   H7B 3043   1.578   2.262   6.107  0.3237 -2.2927 -1.3874
   26CHL1    C8 3044   1.415   2.117   6.069 -0.1387 -0.2920 -0.7971
   26CHL1    H8 3045   1.304   2.121   6.069 -0.1801  0.7986  1.9386
   26CHL1   C14 3046   1.455   2.123   5.925 -0.3375 -0.1143 -0.0851
   26CHL1   H14 3047   1.566   2.130   5.927 -0.2653 -1.0997 -0.0294
   26CHL1   C15 3048   1.398   2.241   5.840  0.5555 -0.5120 -0.7590
   26CHL1  H15A 3049   1.290   2.239   5.865  0.8808  1.2548  1.0265
   26CHL1  H15B 3050   1.435   2.336   5.884 -0.4815 -1.8520  3.5664
   26CHL1   C16 3051   1.433   2.213   5.695 -0.3543  0.5477  0.2133
   26CHL1  H16A 3052   1.346   2.227   5.628 -0.3122 -0.4391 -0.0663
   26CHL1  H16B 3053   1.518   2.262   5.642 -0.7232 -0.9195 -1.8456
   26CHL1   C17 3054   1.478   2.053   5.691  0.2024  0.6931 -0.4378
   26CHL1   H17 3055   1.588   2.043   5.698  0.2079 -0.6486 -1.9253
   26CHL1   C13 3056   1.428   1.999   5.831 -0.5752  0.1725  0.0838
   26CHL1   C18 3057   1.281   1.959   5.826  0.4864  0.1003  0.3732
   26CHL1  H18A 3058   1.274   1.884   5.745 -1.9720  0.1700  0.4356
   26CHL1  H18B 3059   1.235   1.906   5.913  0.8860 -0.3798  0.2988
   26CHL1  H18C 3060   1.222   2.049   5.801  0.6471  0.3918  1.0145
   26CHL1   C12 3061   1.506   1.879   5.894 -0.2686 -0.5124 -0.0969
   26CHL1  H12A 3062   1.476   1.781   5.850 -1.1435 -1.1168  1.7413
   26CHL1  H12B 3063   1.616   1.889   5.886 -0.1609 -0.5143  1.1796
   26CHL1   C11 3064   1.463   1.862   6.042  0.0649 -0.2220  0.6756
   26CHL1  H11A 3065   1.356   1.829   6.041 -0.3554  1.1030  0.4381
   26CHL1  H11B 3066   1.518   1.772   6.077 -1.2373 -1.5299 -0.5013
   26CHL1    C9 3067   1.476   1.982   6.134 -0.3283  0.0772  0.4961
   26CHL1    H9 3068   1.583   2.008   6.123 -0.1819 -1.3452 -2.3222
   26CHL1   C10 3069   1.447   1.961   6.280 -0.1460 -0.1733  0.1262
   26CHL1   C19 3070   1.326   1.871   6.303 -0.0267  0.6382  0.2198
   26CHL1  H19A 3071   1.331   1.777   6.245 -0.1805  0.0264  1.1675
   26CHL1  H19B 3072   1.298   1.858   6.410 -0.9864 -1.6400 -0.2547
   26CHL1  H19C 3073   1.241   1.927   6.261  0.5969  1.3480 -0.1218
   26CHL1    C1 3074   1.559   1.875   6.345 -0.4397  0.6631  0.4574
   26CHL1   H1A 3075   1.562   1.773   6.302 -0.1516  0.4868  0.8856
   26CHL1   H1B 3076   1.658   1.917   6.316  0.2926 -0.4174  1.2878
   26CHL1    C2 3077   1.561   1.859   6.494 -0.2192  0.8334  0.2945
   26CHL1   H2A 3078   1.650   1.800   6.524 -0.1826  1.1835  0.8882
   26CHL1   H2B 3079   1.470   1.814   6.540 -0.8773  2.5007  0.6637
   26CHL1   C20 3080   1.432   1.990   5.554  0.1029  0.5457 -0.6034
   26CHL1   H20 3081   1.321   1.984   5.551  0.1359 -0.3428 -0.2689
   26CHL1   C21 3082   1.471   1.842   5.547 -1.2358  0.8898 -0.6608
   26CHL1  H21A 3083   1.424   1.771   5.618 -0.4253 -1.2983 -2.2107
   26CHL1  H21B 3084   1.582   1.836   5.555 -1.3457 -2.9745 -0.2363
   26CHL1  H21C 3085   1.439   1.795   5.451  2.3890 -0.5389 -1.3459
   26CHL1   C22 3086   1.478   2.068   5.425  1.1764  0.2862  0.9124
   26CHL1  H22A 3087   1.506   2.170   5.459  0.3147  0.9189 -0.2074
   26CHL1  H22B 3088   1.562   2.020   5.370 -0.9047  0.9148 -3.1888
   26CHL1   C23 3089   1.357   2.080   5.331  0.5992  0.2034  0.0627
   26CHL1  H23A 3090   1.321   1.977   5.309  1.3758  0.4144 -2.4762
   26CHL1  H23B 3091   1.271   2.134   5.376  1.8869  1.0737  1.5930
   26CHL1   C24 3092   1.394   2.143   5.198  0.2560 -0.3541 -0.4585
   26CHL1  H24A 3093   1.443   2.063   5.138 -0.0092 -1.6394  0.9859
   26CHL1  H24B 3094   1.297   2.166   5.150  0.8023  0.1209 -1.3751
   26CHL1   C25 3095   1.485   2.273   5.200  0.2706 -0.2044  0.4547
   26CHL1   H25 3096   1.588   2.252   5.236  0.4936 -1.9439 -1.0874
   26CHL1   C26 3097   1.501   2.320   5.050 -0.0085 -0.2803  0.2675
   26CHL1  H26A 3098   1.404   2.336   4.999  0.2238 -0.9363 -0.4002
   26CHL1  H26B 3099   1.550   2.419   5.060 -2.4036  0.9247  0.9298
   26CHL1  H26C 3100   1.573   2.252   4.999 -0.7917 -0.1789 -0.9995
   26CHL1   C27 3101   1.435   2.389   5.299 -0.1856 -0.0475 -0.1588
   26CHL1  H27A 3102   1.343   2.428   5.251 -1.9079 -1.9809  1.3962
   26CHL1  H27B 3103   1.407   2.340   5.395  1.9916  0.2296  0.6857
   26CHL1  H27C 3104   1.514   2.466   5.309 -0.4946  0.0818  1.5919
   27CHL1    C3 3105   5.917   3.460   6.583  0.1218 -0.6850  0.0025
   27CHL1    H3 3106   5.845   3.376   6.574 -1.6437  0.7755 -0.1684
   27CHL1    O3 3107   5.959   3.490   6.719  0.1080  0.3470 -0.3245
   27CHL1   H3' 3108   6.005   3.416   6.760 -0.5119  0.1337 -0.0011
   27CHL1    C4 3109   6.042   3.433   6.492  0.7397  0.2804  0.1859
   27CHL1   H4A 3110   6.120   3.509   6.512 -1.2293  2.3907  0.1757
   27CHL1   H4B 3111   6.078   3.336   6.535  1.1671 -0.0968 -0.9970
   27CHL1    C5 3112   6.008   3.415   6.342 -0.4494 -0.0796 -0.3809
   27CHL1    C6 3113   6.047   3.301   6.274  0.3909  0.2871  0.0210
   27CHL1    H6 3114   6.114   3.226   6.319  0.2356 -1.1379 -1.9957
   27CHL1    C7 3115   6.014   3.287   6.127 -0.3088 -0.3098 -0.0238
   27CHL1   H7A 3116   6.104   3.253   6.071  0.9242 -1.2665  2.3609
   27CHL1   H7B 3117   5.933   3.213   6.112 -0.7661  0.1382  0.2218
   27CHL1    C8 3118   5.968   3.418   6.052 -0.5896 -0.6553 -0.2810
   27CHL1    H8 3119   6.062   3.473   6.032  0.1637 -1.2435  1.4166
   27CHL1   C14 3120   5.894   3.382   5.929 -0.4009 -0.0840  0.5148
   27CHL1   H14 3121   5.809   3.319   5.961 -0.6729  0.7066  1.3896
   27CHL1   C15 3122   5.965   3.286   5.834 -0.6287  0.3229  0.4012
   27CHL1  H15A 3123   6.069   3.326   5.835 -0.1674 -0.5784 -2.5805
   27CHL1  H15B 3124   5.962   3.180   5.866 -2.3841  0.3370  0.3724
   27CHL1   C16 3125   5.887   3.309   5.703  0.4803 -0.0197  0.8386
   27CHL1  H16A 3126   5.958   3.301   5.618  0.5745 -0.8963  0.9893
   27CHL1  H16B 3127   5.821   3.220   5.698  1.4571 -0.6846 -2.2873
   27CHL1   C17 3128   5.792   3.429   5.728  0.2402 -0.2487  0.0114
   27CHL1   H17 3129   5.694   3.387   5.758  1.1137 -0.9444  2.1492
   27CHL1   C13 3130   5.842   3.499   5.854  0.9843 -0.9999 -0.3139
   27CHL1   C18 3131   5.965   3.592   5.816  0.5149  0.1798 -0.6876
   27CHL1  H18A 3132   6.011   3.627   5.911 -0.6177  2.4049 -0.8896
   27CHL1  H18B 3133   6.031   3.527   5.756 -1.0036 -1.3269 -0.8060
   27CHL1  H18C 3134   5.934   3.678   5.753  1.5105 -0.2443 -1.7950
   27CHL1   C12 3135   5.740   3.575   5.934 -0.2029 -0.2521  0.7218
   27CHL1  H12A 3136   5.741   3.676   5.888  0.3710 -0.7306 -0.3489
   27CHL1  H12B 3137   5.644   3.519   5.930 -0.9203  1.0076 -0.4125
   27CHL1   C11 3138   5.784   3.604   6.080  0.7188 -0.2849 -0.3323
   27CHL1  H11A 3139   5.854   3.689   6.063 -0.3338  0.9780  1.2474
   27CHL1  H11B 3140   5.697   3.638   6.141  0.7370  1.3017 -1.1326
   27CHL1    C9 3141   5.867   3.494   6.147 -0.3953 -0.1494  0.2319
   27CHL1    H9 3142   5.795   3.414   6.173  0.2526 -0.7008  0.3531
   27CHL1   C10 3143   5.927   3.531   6.286  0.1379  0.0827  0.2905
   27CHL1   C19 3144   6.004   3.659   6.271  0.0722  0.3363  0.1750
   27CHL1  H19A 3145   6.061   3.643   6.177 -0.2875 -1.0137  0.1671
   27CHL1  H19B 3146   5.946   3.752   6.256  0.0191  0.6486  2.1079
   27CHL1  H19C 3147   6.066   3.685   6.359 -1.2037 -1.8394  1.8134
   27CHL1    C1 3148   5.808   3.557   6.382 -0.3753 -0.5362  0.0649
   27CHL1   H1A 3149   5.763   3.651   6.344  0.7823 -0.3815 -1.0158
   27CHL1   H1B 3150   5.735   3.473   6.384 -0.3419 -0.5696 -0.0960
   27CHL1    C2 3151   5.843   3.582   6.528  0.2111  0.2953  0.3784
   27CHL1   H2A 3152   5.747   3.595   6.582  0.5893 -0.3110  1.2181
   27CHL1   H2B 3153   5.910   3.670   6.539 -0.4141  0.8203  0.0658
   27CHL1   C20 3154   5.772   3.515   5.598 -0.7454 -0.0538  0.6011
   27CHL1   H20 3155   5.866   3.570   5.576 -2.2381  1.3152 -3.2697
   27CHL1   C21 3156   5.672   3.626   5.613 -0.7120 -0.0350  0.3974
   27CHL1  H21A 3157   5.573   3.583   5.640 -1.1289  0.4120 -0.3677
   27CHL1  H21B 3158   5.667   3.683   5.518  0.9938 -2.0847 -1.0045
   27CHL1  H21C 3159   5.702   3.692   5.697  1.6561  1.6737 -1.6453
   27CHL1   C22 3160   5.757   3.433   5.462 -1.0901  0.0031  0.1643
   27CHL1  H22A 3161   5.840   3.360   5.451  0.6479  1.9332 -0.2182
   27CHL1  H22B 3162   5.659   3.380   5.458 -0.6771 -0.6927 -1.2153
   27CHL1   C23 3163   5.758   3.516   5.331  0.0991 -0.4613  0.1405
   27CHL1  H23A 3164   5.676   3.592   5.334 -0.1836 -0.7351 -0.5072
   27CHL1  H23B 3165   5.854   3.561   5.298 -0.2815 -0.1583 -0.5773
   27CHL1   C24 3166   5.715   3.426   5.214  0.2631 -0.6360 -0.5644
   27CHL1  H24A 3167   5.775   3.333   5.222  0.8085 -0.2987 -0.6750
   27CHL1  H24B 3168   5.609   3.404   5.239 -0.0458  0.9848 -0.3252
   27CHL1   C25 3169   5.733   3.495   5.075 -0.0802 -0.1356 -0.2634
   27CHL1   H25 3170   5.700   3.600   5.079  0.4481  0.0376 -0.4044
   27CHL1   C26 3171   5.885   3.499   5.030  0.0817 -0.2886 -0.6330
   27CHL1  H26A 3172   5.900   3.569   4.944 -3.3073  0.1043 -1.0575
   27CHL1  H26B 3173   5.947   3.543   5.111 -1.1977 -2.5289  1.6701
   27CHL1  H26C 3174   5.917   3.395   5.008 -1.2194 -0.9720  0.5224
   27CHL1   C27 3175   5.643   3.422   4.971  0.7489 -0.3659 -1.0989
   27CHL1  H27A 3176   5.692   3.327   4.943  0.7759 -1.3892  2.0787
   27CHL1  H27B 3177   5.616   3.478   4.878  1.5819 -1.5807 -2.0987
   27CHL1  H27C 3178   5.552   3.378   5.017  0.4418  1.2405 -0.0700
   28CHL1    C3 3179   4.012   3.179   6.674 -0.6534  0.4246  0.6264
   28CHL1    H3 3180   4.062   3.250   6.605  0.1228 -1.4874 -0.8779
   28CHL1    O3 3181   4.054   3.180   6.803  0.0738 -0.4016 -0.9139
   28CHL1   H3' 3182   3.977   3.150   6.852 -0.2259 -0.2508 -1.2885
   28CHL1    C4 3183   3.863   3.207   6.653  0.4594  0.0335  0.3494
   28CHL1   H4A 3184   3.794   3.152   6.720 -1.1518 -1.7450 -2.5561
   28CHL1   H4B 3185   3.860   3.312   6.689 -2.2595 -0.3337  1.4789
   28CHL1    C5 3186   3.815   3.182   6.508  0.9480  0.2379 -0.0183
   28CHL1    C6 3187   3.755   3.279   6.438  0.2278  0.2073  0.4312
   28CHL1    H6 3188   3.733   3.374   6.490  2.6758 -0.9077  3.9002
   28CHL1    C7 3189   3.715   3.270   6.295 -0.0043 -1.1283  0.0929
   28CHL1   H7A 3190   3.605   3.284   6.289  0.2493  0.9071 -0.4533
   28CHL1   H7B 3191   3.767   3.344   6.231 -0.1594 -1.2730 -0.2071
   28CHL1    C8 3192   3.729   3.127   6.232 -0.3711 -0.4762 -0.0578
   28CHL1    H8 3193   3.637   3.072   6.263 -0.3124 -1.1619 -1.0510
   28CHL1   C14 3194   3.730   3.134   6.080  0.1021  0.8062  0.3351
   28CHL1   H14 3195   3.827   3.184   6.059  0.1911  0.2151 -0.7250
   28CHL1   C15 3196   3.623   3.202   6.000 -0.5088  0.0774  0.4921
   28CHL1  H15A 3197   3.521   3.189   6.042  0.4502 -1.1288  2.6407
   28CHL1  H15B 3198   3.642   3.311   6.009 -0.1584  0.1777 -1.1481
   28CHL1   C16 3199   3.629   3.146   5.852 -0.0957  0.4758 -0.0699
   28CHL1  H16A 3200   3.525   3.111   5.839 -0.6272  1.3577  1.5116
   28CHL1  H16B 3201   3.650   3.231   5.783  0.0968  2.1065  1.8942
   28CHL1   C17 3202   3.743   3.042   5.858 -0.6337  0.0359 -0.5830
   28CHL1   H17 3203   3.842   3.088   5.838  0.7813 -2.4882  0.2402
   28CHL1   C13 3204   3.751   3.000   6.007 -0.3523  0.2383 -0.7326
   28CHL1   C18 3205   3.626   2.908   6.028  0.2729 -0.5466 -0.0628
   28CHL1  H18A 3206   3.528   2.943   5.989  1.0323 -1.2633 -2.8593
   28CHL1  H18B 3207   3.646   2.806   5.989 -2.9526 -2.1973  2.1262
   28CHL1  H18C 3208   3.616   2.886   6.136  1.7356 -1.6132 -0.1204
   28CHL1   C12 3209   3.883   2.938   6.062 -0.3615  0.2500  0.3483
   28CHL1  H12A 3210   3.905   2.845   6.005 -0.2888  0.3291  0.2461
   28CHL1  H12B 3211   3.973   3.001   6.040  0.5776 -1.7771 -2.1673
   28CHL1   C11 3212   3.886   2.929   6.216 -0.4336  0.4094 -0.7889
   28CHL1  H11A 3213   3.820   2.848   6.254 -0.1787  0.2461 -0.6881
   28CHL1  H11B 3214   3.987   2.886   6.234 -0.7306 -0.1451 -0.4265
   28CHL1    C9 3215   3.849   3.060   6.296 -0.1958 -0.5800  0.1615
   28CHL1    H9 3216   3.931   3.131   6.276  0.5863 -0.7869  2.3977
   28CHL1   C10 3217   3.856   3.048   6.450 -0.6651  0.1501  0.2802
   28CHL1   C19 3218   3.763   2.933   6.496  0.1600 -0.1431  0.8726
   28CHL1  H19A 3219   3.747   2.926   6.606 -3.4888 -4.2487  0.3647
   28CHL1  H19B 3220   3.661   2.945   6.454 -0.0696 -0.1350  1.4154
   28CHL1  H19C 3221   3.799   2.834   6.461 -0.1777 -0.4172  1.2846
   28CHL1    C1 3222   4.010   3.016   6.479  0.1298  0.4984 -0.4107
   28CHL1   H1A 3223   4.045   2.919   6.440 -1.8090 -0.4364  0.0528
   28CHL1   H1B 3224   4.076   3.087   6.425 -1.3893  1.3810 -1.1845
   28CHL1    C2 3225   4.046   3.034   6.624 -0.0201  0.1984  0.6299
   28CHL1   H2A 3226   4.154   3.012   6.637 -0.3464 -2.0048  0.0221
   28CHL1   H2B 3227   4.001   2.958   6.692 -1.0020 -1.2276 -1.5021
   28CHL1   C20 3228   3.721   2.938   5.751 -0.3382 -0.9914  0.4874
   28CHL1   H20 3229   3.636   2.877   5.788 -0.0180 -1.5731  0.2892
   28CHL1   C21 3230   3.849   2.849   5.742  0.9155  0.4884  0.0368
   28CHL1  H21A 3231   3.936   2.901   5.787  1.8087 -2.2431  1.6997
   28CHL1  H21B 3232   3.879   2.817   5.640 -0.2654 -0.2023 -0.1161
   28CHL1  H21C 3233   3.839   2.755   5.800 -1.9664 -0.5917 -1.9860
   28CHL1   C22 3234   3.685   2.990   5.607  0.0960  0.5784 -0.3744
   28CHL1  H22A 3235   3.701   2.914   5.528 -0.8035  0.0862 -0.0878
   28CHL1  H22B 3236   3.577   3.013   5.609  0.1540  0.9026  2.3745
   28CHL1   C23 3237   3.769   3.103   5.550  0.7401  0.1778  0.6820
   28CHL1  H23A 3238   3.743   3.205   5.588 -1.5493  0.7176 -2.0165
   28CHL1  H23B 3239   3.872   3.078   5.582  0.7375 -0.9576 -0.1623
   28CHL1   C24 3240   3.754   3.109   5.397  0.0244  0.2862  0.1398
   28CHL1  H24A 3241   3.795   3.015   5.354 -1.0456 -0.2426  0.2409
   28CHL1  H24B 3242   3.648   3.110   5.364 -0.1882  3.1306  0.5970
   28CHL1   C25 3243   3.835   3.225   5.332  0.2409 -0.2416 -0.0213
   28CHL1   H25 3244   3.804   3.322   5.377  1.5404  0.5562 -0.7951
   28CHL1   C26 3245   3.987   3.213   5.367  0.5949 -0.1236 -0.6893
   28CHL1  H26A 3246   4.045   3.259   5.285  0.3429  1.0681 -0.2352
   28CHL1  H26B 3247   4.015   3.259   5.465 -1.9188 -1.8241  0.9680
   28CHL1  H26C 3248   4.016   3.106   5.376 -0.7196 -0.4838 -0.4776
   28CHL1   C27 3249   3.813   3.230   5.177 -0.1284  0.0769  0.6741
   28CHL1  H27A 3250   3.866   3.316   5.131 -1.0429  0.4929  0.3768
   28CHL1  H27B 3251   3.877   3.146   5.142  2.4471  1.9657  0.5662
   28CHL1  H27C 3252   3.712   3.218   5.134  0.5632  0.3295 -1.1126
   29CHL1    C3 3253   1.727   3.153   6.486 -0.5865  0.3444  0.6381
   29CHL1    H3 3254   1.758   3.259   6.501  3.9992 -1.1440  4.3859
   29CHL1    O3 3255   1.705   3.090   6.609 -0.3743  0.0597  0.2823
   29CHL1   H3' 3256   1.782   3.115   6.662 -1.2215  3.1843  0.2218
   29CHL1    C4 3257   1.591   3.144   6.412  0.2536 -0.4221 -0.0611
   29CHL1   H4A 3258   1.556   3.039   6.404 -1.7606  0.2328 -0.3041
   29CHL1   H4B 3259   1.519   3.196   6.479  0.4238 -1.7277  1.2001
   29CHL1    C5 3260   1.597   3.211   6.278  0.2101 -0.1439  0.1202
   29CHL1    C6 3261   1.529   3.325   6.243  0.3776  0.3902  0.7163
   29CHL1    H6 3262   1.446   3.361   6.305 -1.5742  0.7537 -1.8992
   29CHL1    C7 3263   1.534   3.395   6.104 -0.1760  0.0762 -0.5966
   29CHL1   H7A 3264   1.429   3.417   6.075 -0.4338 -2.3864 -1.8045
   29CHL1   H7B 3265   1.595   3.487   6.104  0.9073 -0.6178  0.0582
   29CHL1    C8 3266   1.598   3.306   5.995 -0.2656 -0.6112 -0.4351
   29CHL1    H8 3267   1.528   3.224   5.971  0.0718  0.1770 -4.9816
   29CHL1   C14 3268   1.630   3.374   5.867  0.6617 -0.0706 -0.6780
   29CHL1   H14 3269   1.694   3.461   5.891  1.3642 -0.8164  0.2162
   29CHL1   C15 3270   1.511   3.430   5.788 -0.9399  0.4660 -0.2704
   29CHL1  H15A 3271   1.425   3.361   5.791  0.5956 -1.4987  0.2615
   29CHL1  H15B 3272   1.487   3.529   5.833 -0.9868  0.6890 -0.7765
   29CHL1   C16 3273   1.575   3.472   5.655 -1.2548  0.2740  0.3196
   29CHL1  H16A 3274   1.503   3.450   5.574 -0.5621 -0.2078 -0.1789
   29CHL1  H16B 3275   1.591   3.582   5.649  0.6310  0.0845  0.9150
   29CHL1   C17 3276   1.717   3.401   5.649 -0.3078  0.2287  0.6116
   29CHL1   H17 3277   1.791   3.482   5.668 -0.5725  0.6116  0.0358
   29CHL1   C13 3278   1.711   3.299   5.765 -1.3940  0.1730  0.2772
   29CHL1   C18 3279   1.630   3.184   5.713  0.6233 -0.4674 -0.4395
   29CHL1  H18A 3280   1.539   3.213   5.657 -0.0000 -1.5418 -0.0054
   29CHL1  H18B 3281   1.689   3.113   5.651 -0.7589 -1.8122 -0.2818
   29CHL1  H18C 3282   1.597   3.121   5.798 -0.3632  1.0749  0.3514
   29CHL1   C12 3283   1.848   3.256   5.828 -0.1724 -0.1804 -0.0168
   29CHL1  H12A 3284   1.919   3.211   5.756  0.6288 -1.6801  1.6475
   29CHL1  H12B 3285   1.906   3.347   5.852 -0.1462 -0.3033  0.3947
   29CHL1   C11 3286   1.834   3.192   5.965 -0.9418 -0.0280 -0.1176
   29CHL1  H11A 3287   1.812   3.086   5.939  0.4754 -0.4467  0.2839
   29CHL1  H11B 3288   1.934   3.188   6.014 -0.7038 -2.3379 -0.6467
   29CHL1    C9 3289   1.732   3.257   6.059 -0.4895  0.6247  0.7934
   29CHL1    H9 3290   1.779   3.349   6.100  0.6683  1.4505 -2.1478
   29CHL1   C10 3291   1.714   3.170   6.184  0.1329  0.1765  0.4464
   29CHL1   C19 3292   1.677   3.030   6.138  1.0508 -0.2863  0.1205
   29CHL1  H19A 3293   1.769   2.979   6.102  1.8823  1.1761  0.0794
   29CHL1  H19B 3294   1.629   2.968   6.216 -1.2373  2.8245  1.3989
   29CHL1  H19C 3295   1.606   3.031   6.052  1.8783 -0.4910 -0.5850
   29CHL1    C1 3296   1.846   3.161   6.262  0.2376 -0.1609  0.7369
   29CHL1   H1A 3297   1.927   3.106   6.210  0.3886  0.5967  0.1488
   29CHL1   H1B 3298   1.881   3.263   6.288  0.6459 -0.0612 -0.1895
   29CHL1    C2 3299   1.838   3.091   6.398  0.5140 -0.1443  0.1854
   29CHL1   H2A 3300   1.925   3.109   6.465 -0.0583 -0.1000  0.9261
   29CHL1   H2B 3301   1.815   2.984   6.379  0.7509  0.1804 -2.2843
   29CHL1   C20 3302   1.755   3.357   5.507 -0.0552 -0.4920  0.3835
   29CHL1   H20 3303   1.688   3.281   5.462  0.4912 -1.6162  1.4326
   29CHL1   C21 3304   1.892   3.292   5.501  0.3459 -0.1751 -0.3391
   29CHL1  H21A 3305   1.957   3.356   5.565 -2.6912  0.1493  2.7429
   29CHL1  H21B 3306   1.924   3.274   5.396 -0.2227 -1.2337 -0.3502
   29CHL1  H21C 3307   1.887   3.192   5.548  1.2140 -0.1007 -0.0731
   29CHL1   C22 3308   1.741   3.474   5.411  0.1502  0.1091  0.6110
   29CHL1  H22A 3309   1.639   3.515   5.399  0.3834  0.2160 -1.5051
   29CHL1  H22B 3310   1.798   3.556   5.462  0.8272 -1.1336  1.9237
   29CHL1   C23 3311   1.802   3.469   5.268  0.3287 -0.4054  0.1111
   29CHL1  H23A 3312   1.912   3.482   5.274  0.1354  1.4385  0.0022
   29CHL1  H23B 3313   1.794   3.374   5.211  2.8269  0.3402 -1.6639
   29CHL1   C24 3314   1.759   3.592   5.181  0.2882  0.4304  0.0610
   29CHL1  H24A 3315   1.650   3.578   5.164 -0.3920  0.5173  3.5666
   29CHL1  H24B 3316   1.762   3.681   5.248 -1.2733 -1.3600  2.7178
   29CHL1   C25 3317   1.838   3.614   5.053 -0.4166 -0.4934  0.0959
   29CHL1   H25 3318   1.945   3.603   5.084 -0.4775  1.3856  1.0959
   29CHL1   C26 3319   1.818   3.502   4.951 -0.1025 -0.6342  0.3569
   29CHL1  H26A 3320   1.810   3.404   5.003 -1.5939  0.3710  2.1796
   29CHL1  H26B 3321   1.715   3.522   4.913  0.8175  0.2845 -1.7616
   29CHL1  H26C 3322   1.893   3.515   4.870 -1.4466 -0.1544 -0.8534
   29CHL1   C27 3323   1.809   3.747   4.988  0.7251  0.1936 -0.3863
   29CHL1  H27A 3324   1.828   3.735   4.879  3.3658  0.6176 -0.0434
   29CHL1  H27B 3325   1.699   3.754   4.997  0.7866 -0.0980  0.7310
   29CHL1  H27C 3326   1.867   3.834   5.024 -2.0585  1.3179  1.7674
   30CHL1    C3 3327   0.644   5.366   6.695 -0.3630  0.3641 -0.1483
   30CHL1    H3 3328   0.708   5.456   6.694 -0.7827  0.7396  2.0373
   30CHL1    O3 3329   0.648   5.316   6.825  0.0661 -0.3165  0.2699
   30CHL1   H3' 3330   0.567   5.276   6.858  1.0482 -0.2417  2.9737
   30CHL1    C4 3331   0.505   5.403   6.647  0.4711 -0.0574  0.2654
   30CHL1   H4A 3332   0.438   5.315   6.649 -1.3051  1.2451  1.5777
   30CHL1   H4B 3333   0.469   5.483   6.716 -1.1094  0.7618 -1.4450
   30CHL1    C5 3334   0.502   5.462   6.508 -0.7403  1.0144  0.3437
   30CHL1    C6 3335   0.465   5.585   6.476  0.0116  0.4346 -0.4436
   30CHL1    H6 3336   0.424   5.651   6.554  0.2552 -1.2096  1.1628
   30CHL1    C7 3337   0.469   5.642   6.339  1.1782 -0.0753  0.3190
   30CHL1   H7A 3338   0.380   5.705   6.317  2.1608  0.6339 -1.9732
   30CHL1   H7B 3339   0.554   5.713   6.333 -0.0512  1.6308  1.7829
   30CHL1    C8 3340   0.473   5.532   6.233 -0.2380  0.5440 -0.2675
   30CHL1    H8 3341   0.374   5.481   6.233 -0.0396  0.1429  0.8121
   30CHL1   C14 3342   0.499   5.592   6.099  0.1624 -0.0664 -0.1112
   30CHL1   H14 3343   0.600   5.638   6.097  0.3541 -0.4927 -0.2152
   30CHL1   C15 3344   0.406   5.701   6.051  0.6256 -1.7028  0.3065
   30CHL1  H15A 3345   0.298   5.677   6.063  0.0520  0.7206  0.3655
   30CHL1  H15B 3346   0.423   5.795   6.107 -1.7266 -2.0124  1.6472
   30CHL1   C16 3347   0.444   5.722   5.904 -0.4239 -0.1947  0.2765
   30CHL1  H16A 3348   0.352   5.736   5.844 -0.6039 -3.3004 -0.3408
   30CHL1  H16B 3349   0.520   5.803   5.913 -0.6737 -0.1392  2.4013
   30CHL1   C17 3350   0.510   5.582   5.861 -0.1161 -0.6224  1.0211
   30CHL1   H17 3351   0.618   5.606   5.852 -0.1371  0.0919  2.4548
   30CHL1   C13 3352   0.501   5.495   5.984  0.5235 -0.6796 -0.4442
   30CHL1   C18 3353   0.359   5.424   5.980 -1.4378 -0.6270  0.6797
   30CHL1  H18A 3354   0.339   5.369   6.075 -3.4205 -1.4967 -0.1981
   30CHL1  H18B 3355   0.274   5.490   5.956  0.6399  2.1647  0.5129
   30CHL1  H18C 3356   0.363   5.343   5.904  1.7500  1.2391 -1.3635
   30CHL1   C12 3357   0.622   5.393   6.011  0.1269 -0.2208  0.5048
   30CHL1  H12A 3358   0.629   5.313   5.934  0.7799 -2.3226  2.6382
   30CHL1  H12B 3359   0.715   5.453   5.999  0.0930  0.3688  2.7146
   30CHL1   C11 3360   0.600   5.333   6.149 -0.1202 -0.1577 -0.7859
   30CHL1  H11A 3361   0.505   5.276   6.145  0.2138 -0.6627 -2.1388
   30CHL1  H11B 3362   0.682   5.261   6.170  1.0462  1.6985  1.4325
   30CHL1    C9 3363   0.582   5.430   6.264  0.0632 -0.0629 -0.3967
   30CHL1    H9 3364   0.672   5.495   6.278 -0.7696  1.0415 -0.0442
   30CHL1   C10 3365   0.561   5.364   6.407  0.1378  0.0091  0.2846
   30CHL1   C19 3366   0.471   5.242   6.392 -0.4008 -0.1836  0.2653
   30CHL1  H19A 3367   0.381   5.259   6.329  1.1542  0.8413 -1.8062
   30CHL1  H19B 3368   0.532   5.164   6.341 -0.3402  0.3688 -0.5293
   30CHL1  H19C 3369   0.451   5.199   6.492  0.0886  2.9623  1.8553
   30CHL1    C1 3370   0.699   5.318   6.454  0.3961  0.7525  0.4233
   30CHL1   H1A 3371   0.757   5.251   6.388  1.6963  2.1103  0.1441
   30CHL1   H1B 3372   0.757   5.412   6.447  0.5612  0.6038 -0.2387
   30CHL1    C2 3373   0.699   5.262   6.591  0.1252 -0.4301 -0.6387
   30CHL1   H2A 3374   0.803   5.235   6.616 -0.0561 -0.8800 -0.3656
   30CHL1   H2B 3375   0.632   5.176   6.615 -0.8821  1.3684  4.2042
   30CHL1   C20 3376   0.460   5.537   5.728 -0.0317  0.6220  0.0616
   30CHL1   H20 3377   0.351   5.521   5.739  0.2476  0.1759  3.5635
   30CHL1   C21 3378   0.524   5.405   5.675 -0.0198  0.2532  0.1791
   30CHL1  H21A 3379   0.511   5.311   5.734 -0.0147  0.8889  1.2137
   30CHL1  H21B 3380   0.634   5.422   5.666 -0.1140 -0.2442 -3.6235
   30CHL1  H21C 3381   0.496   5.388   5.569 -0.9622 -1.1458  0.6168
   30CHL1   C22 3382   0.489   5.640   5.622  0.0167  0.4261  0.3161
   30CHL1  H22A 3383   0.470   5.742   5.662 -1.7622  0.7165 -1.0944
   30CHL1  H22B 3384   0.595   5.630   5.590  0.2078  2.8852 -0.0360
   30CHL1   C23 3385   0.402   5.639   5.490  0.4965 -0.4768 -1.0587
   30CHL1  H23A 3386   0.456   5.693   5.410  0.9711 -0.2963 -0.6217
   30CHL1  H23B 3387   0.388   5.536   5.449 -2.6030 -0.7340  0.3849
   30CHL1   C24 3388   0.265   5.700   5.503  0.8477 -0.3563  0.0975
   30CHL1  H24A 3389   0.199   5.638   5.567  1.5818 -0.1070  1.1061
   30CHL1  H24B 3390   0.267   5.798   5.554  0.4785  0.6005 -1.6356
   30CHL1   C25 3391   0.204   5.719   5.366 -0.4210 -0.2318  0.4085
   30CHL1   H25 3392   0.277   5.779   5.307 -0.4485 -1.1618 -0.6008
   30CHL1   C26 3393   0.175   5.591   5.284 -0.3232 -0.2154 -0.3046
   30CHL1  H26A 3394   0.097   5.516   5.313 -0.5882 -1.5339 -3.8871
   30CHL1  H26B 3395   0.155   5.619   5.178  0.1085 -0.3514 -0.4212
   30CHL1  H26C 3396   0.271   5.536   5.272 -2.2738 -3.7491 -1.5411
   30CHL1   C27 3397   0.079   5.805   5.375  0.5883  0.0426 -0.1524
   30CHL1  H27A 3398  -0.016   5.749   5.389 -0.5516  1.4387 -1.8803
   30CHL1  H27B 3399   0.096   5.868   5.465  2.3339 -1.4297  0.6047
   30CHL1  H27C 3400   0.054   5.871   5.289  1.0911 -0.1002 -0.4091
   31CHL1    C3 3401   4.411   4.503   6.611  0.1007  0.2686  0.6578
   31CHL1    H3 3402   4.445   4.399   6.592  1.9382  1.2321 -1.9193
   31CHL1    O3 3403   4.421   4.524   6.752 -0.0100 -0.2439  0.3511
   31CHL1   H3' 3404   4.361   4.461   6.792  1.9880 -2.5770 -0.0609
   31CHL1    C4 3405   4.503   4.596   6.530  0.0880 -0.0954  0.2543
   31CHL1   H4A 3406   4.493   4.705   6.551  1.5288  0.7389 -2.8535
   31CHL1   H4B 3407   4.605   4.574   6.568  0.3730  2.5037  1.2130
   31CHL1    C5 3408   4.494   4.577   6.380 -0.1269 -0.3225 -0.8660
   31CHL1    C6 3409   4.606   4.551   6.308  0.0721 -0.3772 -0.2644
   31CHL1    H6 3410   4.706   4.561   6.351  0.1035  1.4994 -0.6852
   31CHL1    C7 3411   4.596   4.538   6.155 -0.2717 -0.4008 -0.0448
   31CHL1   H7A 3412   4.677   4.597   6.106  1.0426 -1.1352  1.1488
   31CHL1   H7B 3413   4.607   4.434   6.118  1.3074 -0.3673  0.2305
   31CHL1    C8 3414   4.460   4.595   6.096 -0.6339 -0.0774  0.2589
   31CHL1    H8 3415   4.469   4.705   6.093  1.6163 -0.2029  0.7173
   31CHL1   C14 3416   4.448   4.540   5.950  0.0312 -0.3973  0.4903
   31CHL1   H14 3417   4.438   4.430   5.955  0.4354 -0.4022  3.7386
   31CHL1   C15 3418   4.558   4.555   5.842  0.1171 -0.3722 -0.2668
   31CHL1  H15A 3419   4.604   4.656   5.843 -0.5146 -0.0860  0.8764
   31CHL1  H15B 3420   4.637   4.480   5.866  0.4238  0.8346  2.9418
   31CHL1   C16 3421   4.478   4.534   5.709 -0.2894  0.3478 -0.5346
   31CHL1  H16A 3422   4.494   4.608   5.627  4.0060 -0.7718 -0.9290
   31CHL1  H16B 3423   4.509   4.434   5.671  3.2257  1.9255 -2.3130
   31CHL1   C17 3424   4.328   4.519   5.751  0.4308 -0.0216 -0.1911
   31CHL1   H17 3425   4.313   4.410   5.767 -3.4896  0.4948  0.7410
   31CHL1   C13 3426   4.314   4.582   5.885 -0.1753  0.1218  0.0917
   31CHL1   C18 3427   4.308   4.737   5.863 -0.0542  0.2412 -0.6957
   31CHL1  H18A 3428   4.401   4.768   5.811  0.0895  0.0873 -0.5345
   31CHL1  H18B 3429   4.223   4.764   5.798  0.1049  1.3598 -0.4522
   31CHL1  H18C 3430   4.298   4.792   5.959 -1.5633  0.0937 -0.7535
   31CHL1   C12 3431   4.202   4.525   5.970  0.1739  0.4965  0.1592
   31CHL1  H12A 3432   4.116   4.580   5.927  0.6137 -1.4313 -3.5855
   31CHL1  H12B 3433   4.187   4.418   5.944 -1.0430  1.4042 -3.4363
   31CHL1   C11 3434   4.215   4.571   6.114  0.2887  0.0503  0.1185
   31CHL1  H11A 3435   4.203   4.681   6.115  1.3754  0.1962 -0.7518
   31CHL1  H11B 3436   4.139   4.513   6.169  0.8775 -1.7978 -0.9166
   31CHL1    C9 3437   4.351   4.544   6.179  0.3392  0.0096 -0.7405
   31CHL1    H9 3438   4.355   4.433   6.175 -3.4610 -0.3485  0.8745
   31CHL1   C10 3439   4.353   4.584   6.327  0.0910 -0.0684 -0.4916
   31CHL1   C19 3440   4.321   4.734   6.340 -0.1710  0.2364 -0.4108
   31CHL1  H19A 3441   4.332   4.776   6.442  0.0665 -0.3996 -0.1690
   31CHL1  H19B 3442   4.372   4.802   6.268  2.3842  1.4427  2.3628
   31CHL1  H19C 3443   4.214   4.753   6.317  0.1908  0.2597 -2.2934
   31CHL1    C1 3444   4.256   4.500   6.408 -0.6444  1.0730 -0.6537
   31CHL1   H1A 3445   4.152   4.519   6.371 -1.1948 -1.4446 -0.6010
   31CHL1   H1B 3446   4.269   4.394   6.377  2.7264  1.7518 -1.9408
   31CHL1    C2 3447   4.264   4.516   6.556 -0.1152 -0.0970  0.1009
   31CHL1   H2A 3448   4.203   4.441   6.611 -0.2144 -0.8779 -1.0527
   31CHL1   H2B 3449   4.243   4.622   6.583 -1.2192 -0.4251  0.5611
   31CHL1   C20 3450   4.230   4.557   5.638 -0.5781 -0.1893  1.2212
   31CHL1   H20 3451   4.243   4.666   5.618 -3.8342  0.6640  2.9936
   31CHL1   C21 3452   4.084   4.532   5.663 -0.6610  0.4156 -0.4076
   31CHL1  H21A 3453   4.021   4.547   5.574  0.0376 -2.5069 -1.5058
   31CHL1  H21B 3454   4.045   4.603   5.740 -2.8722  0.0715 -1.1450
   31CHL1  H21C 3455   4.057   4.432   5.705 -0.5545  0.9471  0.9964
   31CHL1   C22 3456   4.269   4.481   5.505  0.0410 -0.8027 -1.0822
   31CHL1  H22A 3457   4.379   4.491   5.493  0.1152  1.7310  0.7917
   31CHL1  H22B 3458   4.236   4.375   5.514 -1.2072 -0.3662 -0.0781
   31CHL1   C23 3459   4.210   4.546   5.377  0.0672  0.2769  0.0365
   31CHL1  H23A 3460   4.100   4.546   5.384 -0.0918 -2.6539 -1.0122
   31CHL1  H23B 3461   4.239   4.654   5.373 -0.9367  0.5541  0.1574
   31CHL1   C24 3462   4.261   4.480   5.245  0.8182 -0.4194  0.2788
   31CHL1  H24A 3463   4.355   4.426   5.268  1.9022  1.5276  0.5868
   31CHL1  H24B 3464   4.188   4.399   5.224 -0.2568  0.8348 -1.0439
   31CHL1   C25 3465   4.285   4.566   5.122 -0.3590  0.1184  0.1705
   31CHL1   H25 3466   4.190   4.611   5.087  0.2319 -0.9952 -3.2128
   31CHL1   C26 3467   4.388   4.675   5.153  0.5644  0.3762  0.0406
   31CHL1  H26A 3468   4.466   4.640   5.225 -0.2005 -2.0759 -0.2381
   31CHL1  H26B 3469   4.433   4.724   5.064 -0.6398  0.1997 -0.6697
   31CHL1  H26C 3470   4.336   4.763   5.197  0.6658  0.6905 -0.4568
   31CHL1   C27 3471   4.330   4.472   5.003 -0.8499 -0.0920  0.2490
   31CHL1  H27A 3472   4.437   4.445   5.016 -1.5344 -3.6064 -0.5662
   31CHL1  H27B 3473   4.269   4.380   4.997 -0.1650 -0.4586 -1.8254
   31CHL1  H27C 3474   4.305   4.522   4.907  0.5446 -0.1050 -0.1462
   32CHL1    C3 3475   0.287   1.917   6.660 -0.1893 -0.2209 -0.1155
   32CHL1    H3 3476   0.196   1.870   6.616  0.5399 -0.3247 -1.5765
   32CHL1    O3 3477   0.271   1.910   6.801 -0.2687  0.0531  0.2911
   32CHL1   H3' 3478   0.184   1.945   6.823  0.0652 -0.6117  3.0502
   32CHL1    C4 3479   0.418   1.842   6.621  0.2672  0.8923 -1.0925
   32CHL1   H4A 3480   0.512   1.884   6.663  2.2897 -2.6397 -1.7468
   32CHL1   H4B 3481   0.418   1.735   6.650  1.8816  0.4213 -2.6630
   32CHL1    C5 3482   0.437   1.858   6.474  0.2297 -0.1453  0.7820
   32CHL1    C6 3483   0.455   1.745   6.405  1.2741 -0.4524 -0.0381
   32CHL1    H6 3484   0.456   1.643   6.448  0.9316  0.0774  1.2728
   32CHL1    C7 3485   0.456   1.739   6.253 -0.0508  0.4798  0.1116
   32CHL1   H7A 3486   0.528   1.659   6.224 -2.5319 -2.8596  2.3158
   32CHL1   H7B 3487   0.357   1.700   6.222  0.0048 -1.6955  2.3151
   32CHL1    C8 3488   0.477   1.871   6.190  0.3058  1.0005  0.6831
   32CHL1    H8 3489   0.584   1.891   6.215  0.8013 -0.2348 -0.3548
   32CHL1   C14 3490   0.448   1.866   6.042 -0.2894 -0.2002  0.4628
   32CHL1   H14 3491   0.345   1.828   6.029  0.2555 -1.4792 -0.2209
   32CHL1   C15 3492   0.523   1.751   5.959  0.1398 -0.1274  1.1964
   32CHL1  H15A 3493   0.631   1.758   5.984  0.4353  1.6637 -0.3989
   32CHL1  H15B 3494   0.491   1.645   5.972  1.9107 -1.0161 -0.9293
   32CHL1   C16 3495   0.520   1.798   5.809 -0.1664 -0.3192 -0.2233
   32CHL1  H16A 3496   0.624   1.805   5.773  0.2100  0.5179  0.9675
   32CHL1  H16B 3497   0.449   1.735   5.751  0.7105 -0.9066 -0.6827
   32CHL1   C17 3498   0.445   1.937   5.819 -0.3706 -0.2515 -0.3971
   32CHL1   H17 3499   0.337   1.928   5.799  0.0267  0.7566 -3.4382
   32CHL1   C13 3500   0.467   1.999   5.964  0.0175  0.0234 -0.0320
   32CHL1   C18 3501   0.618   2.037   5.985 -0.3882 -0.5084 -0.3670
   32CHL1  H18A 3502   0.654   2.089   5.894 -2.9788 -0.0596 -1.2124
   32CHL1  H18B 3503   0.635   2.101   6.074  2.5620 -0.3657 -0.9419
   32CHL1  H18C 3504   0.680   1.945   5.998 -1.9627 -1.7951 -1.6147
   32CHL1   C12 3505   0.365   2.101   6.027  0.3536 -0.0182 -0.0800
   32CHL1  H12A 3506   0.394   2.202   5.991  0.1400  1.0143  2.4321
   32CHL1  H12B 3507   0.259   2.074   6.009  0.4645 -1.4180  1.1154
   32CHL1   C11 3508   0.378   2.119   6.178 -0.1392  0.3206 -0.0345
   32CHL1  H11A 3509   0.478   2.168   6.181 -0.2429  0.5312 -0.0288
   32CHL1  H11B 3510   0.305   2.182   6.233 -1.2294 -0.4783 -0.5339
   32CHL1    C9 3511   0.391   1.980   6.256  0.7095  0.1309  0.3160
   32CHL1    H9 3512   0.288   1.939   6.243  1.0467 -0.4519 -0.6224
   32CHL1   C10 3513   0.421   1.997   6.404 -0.9607  0.0225 -0.4152
   32CHL1   C19 3514   0.558   2.072   6.425  0.8601 -0.4708  0.3605
   32CHL1  H19A 3515   0.541   2.180   6.409  0.5059 -0.6350 -0.4029
   32CHL1  H19B 3516   0.589   2.063   6.531 -1.3785  0.0000  1.0930
   32CHL1  H19C 3517   0.637   2.030   6.358 -0.4258 -1.4738 -0.5804
   32CHL1    C1 3518   0.300   2.081   6.466 -0.7916  0.6386  0.0256
   32CHL1   H1A 3519   0.304   2.185   6.429  0.6060  0.2796 -0.9137
   32CHL1   H1B 3520   0.214   2.037   6.411  1.0776 -0.8000 -1.8857
   32CHL1    C2 3521   0.282   2.067   6.618 -0.6384 -0.6986  0.0578
   32CHL1   H2A 3522   0.183   2.105   6.650 -0.5032  0.1986 -0.5329
   32CHL1   H2B 3523   0.370   2.111   6.668  1.0563 -0.8957 -2.5323
   32CHL1   C20 3524   0.489   2.026   5.707 -0.4553 -0.9179  0.5893
   32CHL1   H20 3525   0.600   2.024   5.698 -0.1888  2.6191  1.8402
   32CHL1   C21 3526   0.450   2.173   5.721  0.2922  0.8635  0.1303
   32CHL1  H21A 3527   0.482   2.216   5.623  0.0456 -0.4533 -0.5631
   32CHL1  H21B 3528   0.504   2.214   5.808 -0.6477  1.5097  0.4184
   32CHL1  H21C 3529   0.339   2.179   5.730 -0.2381 -3.2287 -1.1602
   32CHL1   C22 3530   0.433   1.958   5.575 -0.2060  0.5453  0.4686
   32CHL1  H22A 3531   0.435   1.847   5.579 -3.2369  0.2745 -1.7796
   32CHL1  H22B 3532   0.326   1.982   5.559 -0.1425 -0.1359 -1.0882
   32CHL1   C23 3533   0.516   1.997   5.445  0.2560  1.1379 -0.7196
   32CHL1  H23A 3534   0.510   2.107   5.434  0.9843  1.1532 -1.0130
   32CHL1  H23B 3535   0.619   1.968   5.473 -0.0128  0.6158 -0.2399
   32CHL1   C24 3536   0.475   1.913   5.317 -0.4682 -0.1252 -0.3358
   32CHL1  H24A 3537   0.528   1.815   5.318  1.2606  0.7717  0.4547
   32CHL1  H24B 3538   0.364   1.900   5.321 -0.5010  0.4179  1.9422
   32CHL1   C25 3539   0.530   1.977   5.187  0.1822  0.0176  0.7243
   32CHL1   H25 3540   0.641   1.972   5.188  0.3537  2.6733  1.0651
   32CHL1   C26 3541   0.469   1.891   5.069 -0.4014 -0.4594 -0.1305
   32CHL1  H26A 3542   0.470   1.780   5.080  1.0347 -0.3994  0.5065
   32CHL1  H26B 3543   0.362   1.916   5.052 -0.0602  0.3023 -1.1985
   32CHL1  H26C 3544   0.538   1.918   4.987  1.0795  0.5688  1.3994
   32CHL1   C27 3545   0.499   2.127   5.170  0.0841 -0.0280 -0.0952
   32CHL1  H27A 3546   0.559   2.155   5.080  1.6218  1.6320  1.3632
   32CHL1  H27B 3547   0.391   2.142   5.152  0.4814  1.7200 -1.2944
   32CHL1  H27C 3548   0.523   2.190   5.258 -2.4171  0.2248  0.4817
   33CHL1    C3 3549   3.235   1.164   6.570  0.3438  0.2980  0.3621
   33CHL1    H3 3550   3.252   1.059   6.537  3.0292  1.1455 -1.3051
   33CHL1    O3 3551   3.273   1.166   6.704 -1.0410  0.0863 -0.6329
   33CHL1   H3' 3552   3.192   1.166   6.756 -0.6144  1.5601  0.0895
   33CHL1    C4 3553   3.343   1.247   6.491  0.1885 -0.4208 -0.1198
   33CHL1   H4A 3554   3.367   1.338   6.550  2.9436 -0.9271 -0.3365
   33CHL1   H4B 3555   3.435   1.186   6.501 -0.0192 -0.7416 -0.1408
   33CHL1    C5 3556   3.305   1.267   6.349  0.3556 -0.2660  0.0934
   33CHL1    C6 3557   3.391   1.225   6.246 -0.4562 -0.1081 -0.4383
   33CHL1    H6 3558   3.487   1.176   6.271  0.6239  2.0925 -0.0760
   33CHL1    C7 3559   3.368   1.251   6.097  0.4449  0.1563  0.1602
   33CHL1   H7A 3560   3.462   1.296   6.058  0.7666  0.5307  1.3137
   33CHL1   H7B 3561   3.336   1.154   6.053 -0.2436  0.5875 -0.2954
   33CHL1    C8 3562   3.256   1.349   6.065  0.3348 -0.0901  0.0781
   33CHL1    H8 3563   3.294   1.452   6.084 -0.2645 -0.0413  1.0538
   33CHL1   C14 3564   3.208   1.327   5.924  0.5985 -0.0599  0.2603
   33CHL1   H14 3565   3.159   1.227   5.922 -1.4991  0.9299 -0.6381
   33CHL1   C15 3566   3.308   1.311   5.812  0.6705  0.0613 -0.7617
   33CHL1  H15A 3567   3.389   1.386   5.821 -0.9916  1.8515 -0.2846
   33CHL1  H15B 3568   3.350   1.208   5.805 -1.4907 -1.0507  1.4907
   33CHL1   C16 3569   3.232   1.337   5.681  0.0216 -0.2587 -0.1956
   33CHL1  H16A 3570   3.275   1.428   5.634 -0.3714  0.1572  0.2443
   33CHL1  H16B 3571   3.219   1.245   5.619 -2.8590 -1.1152  1.4561
   33CHL1   C17 3572   3.091   1.373   5.731 -0.7887  0.2000  0.6509
   33CHL1   H17 3573   3.052   1.270   5.741  0.3116 -0.5963 -2.0849
   33CHL1   C13 3574   3.099   1.424   5.877  0.0769  0.6140 -0.0098
   33CHL1   C18 3575   3.159   1.564   5.865  0.2736 -0.1529  1.2255
   33CHL1  H18A 3576   3.084   1.635   5.823  0.2119 -0.3639  0.9738
   33CHL1  H18B 3577   3.195   1.605   5.961  0.5813 -2.4117  2.1386
   33CHL1  H18C 3578   3.236   1.579   5.786 -2.0455  2.8715 -0.7229
   33CHL1   C12 3579   2.978   1.408   5.970  0.2801 -0.1334 -0.3633
   33CHL1  H12A 3580   2.897   1.476   5.935  2.1174  2.3433 -0.0274
   33CHL1  H12B 3581   2.949   1.301   5.967 -1.6505  0.3560 -0.6291
   33CHL1   C11 3582   3.013   1.422   6.120  0.4665 -0.5243 -0.2440
   33CHL1  H11A 3583   3.038   1.526   6.153  0.6604 -1.1635  1.7736
   33CHL1  H11B 3584   2.928   1.391   6.184 -0.9401  0.2511 -1.6822
   33CHL1    C9 3585   3.133   1.333   6.169 -0.4835 -0.5035  0.5002
   33CHL1    H9 3586   3.095   1.229   6.164  2.1300 -1.6502  2.1946
   33CHL1   C10 3587   3.166   1.336   6.316  0.7655 -0.7506 -0.1901
   33CHL1   C19 3588   3.166   1.480   6.367 -0.1360 -0.2049 -0.1721
   33CHL1  H19A 3589   3.187   1.497   6.475  2.4590  0.1023 -0.6821
   33CHL1  H19B 3590   3.231   1.539   6.300 -0.6841 -0.7184 -1.1663
   33CHL1  H19C 3591   3.062   1.515   6.347  0.5899  0.4601 -3.2921
   33CHL1    C1 3592   3.069   1.243   6.391  0.6098  0.1212  0.4545
   33CHL1   H1A 3593   2.962   1.269   6.381  0.7664  0.2306 -1.1060
   33CHL1   H1B 3594   3.075   1.139   6.352  1.0938  1.1211 -2.2970
   33CHL1    C2 3595   3.095   1.216   6.543  0.4240 -0.2457  0.3323
   33CHL1   H2A 3596   3.022   1.143   6.585  0.1757 -0.2075 -0.0207
   33CHL1   H2B 3597   3.087   1.316   6.590  0.5332  0.8570 -1.8717
   33CHL1   C20 3598   2.990   1.443   5.632  0.3619 -0.4094  0.2063
   33CHL1   H20 3599   2.924   1.501   5.700  1.0792 -0.4152  0.9388
   33CHL1   C21 3600   2.922   1.336   5.556 -0.1143  0.3462  0.0385
   33CHL1  H21A 3601   2.999   1.276   5.502  0.1552  0.7202  0.0105
   33CHL1  H21B 3602   2.843   1.362   5.482 -0.7113  0.0529  0.5623
   33CHL1  H21C 3603   2.868   1.265   5.623  1.4723 -2.1346 -1.1444
   33CHL1   C22 3604   3.059   1.541   5.531  0.1471 -0.9346  0.1976
   33CHL1  H22A 3605   3.109   1.624   5.585  1.6442 -1.5007 -0.2670
   33CHL1  H22B 3606   3.137   1.484   5.475  0.0411  0.1930 -1.1654
   33CHL1   C23 3607   2.969   1.619   5.428  0.5600  0.2352 -0.4612
   33CHL1  H23A 3608   2.915   1.542   5.367 -1.2109  0.5325  0.6500
   33CHL1  H23B 3609   2.881   1.669   5.474  0.5470 -0.4816  0.3193
   33CHL1   C24 3610   3.054   1.698   5.325  0.3865  0.1604 -0.2134
   33CHL1  H24A 3611   3.114   1.780   5.369  3.3081 -0.2948 -2.9485
   33CHL1  H24B 3612   3.123   1.631   5.269  0.5464  1.3906 -1.5618
   33CHL1   C25 3613   2.963   1.744   5.207 -0.3319  0.2645 -0.1129
   33CHL1   H25 3614   2.894   1.660   5.186  0.4112 -0.7135  1.1516
   33CHL1   C26 3615   2.871   1.862   5.250 -0.1805 -0.6600  0.7530
   33CHL1  H26A 3616   2.833   1.899   5.152  0.6154  2.2398  1.4408
   33CHL1  H26B 3617   2.782   1.832   5.310 -0.2809 -3.4628 -0.6179
   33CHL1  H26C 3618   2.927   1.949   5.291  0.5537 -1.4700  1.4867
   33CHL1   C27 3619   3.050   1.787   5.096 -0.7407 -0.6938  0.1341
   33CHL1  H27A 3620   3.126   1.851   5.146 -2.0185  0.8305  0.2009
   33CHL1  H27B 3621   3.106   1.706   5.044  0.0345 -0.0874  0.0133
   33CHL1  H27C 3622   2.998   1.831   5.009 -1.4903  1.0200  1.3953
   34CHL1    C3 3623   0.782   4.304   6.771 -0.5364 -0.2386  0.1147
   34CHL1    H3 3624   0.678   4.321   6.735 -0.8537 -2.0489  0.0981
   34CHL1    O3 3625   0.777   4.299   6.913 -0.3861 -0.2337  0.4090
   34CHL1   H3' 3626   0.862   4.331   6.942  0.0263 -0.2477 -0.7158
   34CHL1    C4 3627   0.822   4.166   6.703  0.0373 -0.3260  0.4958
   34CHL1   H4A 3628   0.927   4.140   6.726 -0.6035 -3.9187 -0.0319
   34CHL1   H4B 3629   0.758   4.082   6.738 -0.4754 -0.4589 -0.7171
   34CHL1    C5 3630   0.812   4.178   6.550 -0.2234 -0.1031 -0.4168
   34CHL1    C6 3631   0.717   4.107   6.485 -0.4744  0.0608 -0.5383
   34CHL1    H6 3632   0.659   4.032   6.540  0.5890 -2.0473 -2.1646
   34CHL1    C7 3633   0.713   4.099   6.338 -0.5609  0.1642  0.2377
   34CHL1   H7A 3634   0.700   4.000   6.288 -1.6865  1.3793 -2.0431
   34CHL1   H7B 3635   0.617   4.153   6.320 -1.0069 -0.2207  1.4065
   34CHL1    C8 3636   0.839   4.162   6.266  0.1268 -0.0518 -0.1200
   34CHL1    H8 3637   0.923   4.094   6.290  0.3247 -1.2146 -3.6212
   34CHL1   C14 3638   0.816   4.174   6.115 -0.2385 -0.7352 -0.1405
   34CHL1   H14 3639   0.722   4.233   6.109  0.4762  0.6795  1.4849
   34CHL1   C15 3640   0.791   4.049   6.038  0.1484 -0.6164  0.0437
   34CHL1  H15A 3641   0.870   3.974   6.060  1.1867  0.8234  1.5582
   34CHL1  H15B 3642   0.689   4.008   6.052 -0.4798  0.3932 -1.3353
   34CHL1   C16 3643   0.800   4.092   5.889  0.3545  0.1974  0.0888
   34CHL1  H16A 3644   0.858   4.018   5.831 -1.2933 -1.8474  0.9461
   34CHL1  H16B 3645   0.704   4.087   5.833 -0.0463 -1.9340  0.8950
   34CHL1   C17 3646   0.868   4.234   5.891 -0.4747 -0.0174 -0.1217
   34CHL1   H17 3647   0.785   4.305   5.875 -0.2375  0.3830  0.4159
   34CHL1   C13 3648   0.924   4.248   6.037  0.1920 -0.1928  1.2284
   34CHL1   C18 3649   1.059   4.172   6.051  0.0180  0.2318 -0.0250
   34CHL1  H18A 3650   1.090   4.164   6.157  0.3901  1.3967 -0.0280
   34CHL1  H18B 3651   1.047   4.076   5.997 -1.3393  0.0817  0.5230
   34CHL1  H18C 3652   1.139   4.230   5.999 -0.6417  1.7021  0.5561
   34CHL1   C12 3653   0.923   4.388   6.096 -1.1791  0.2764 -0.1123
   34CHL1  H12A 3654   1.003   4.451   6.051 -1.9728  0.5427 -1.1687
   34CHL1  H12B 3655   0.824   4.437   6.086 -1.0399  0.6899  0.4650
   34CHL1   C11 3656   0.959   4.384   6.249  0.0595 -0.6851 -0.5573
   34CHL1  H11A 3657   1.064   4.348   6.249  0.6214  0.8372 -1.2244
   34CHL1  H11B 3658   0.970   4.487   6.291 -1.1566 -0.2127 -1.3378
   34CHL1    C9 3659   0.859   4.304   6.333  0.0435  0.8117  0.4108
   34CHL1    H9 3660   0.756   4.346   6.333 -0.8612 -1.2704  0.6512
   34CHL1   C10 3661   0.898   4.285   6.483 -0.2512  0.0790  0.2624
   34CHL1   C19 3662   1.047   4.252   6.508  0.0671 -0.2078 -0.2986
   34CHL1  H19A 3663   1.070   4.249   6.616  0.2411 -0.5330 -0.3420
   34CHL1  H19B 3664   1.073   4.153   6.463  1.0955 -0.1784  0.2086
   34CHL1  H19C 3665   1.121   4.321   6.463  1.0266 -0.7196  0.4638
   34CHL1    C1 3666   0.873   4.416   6.558  0.4697  0.4335  0.0114
   34CHL1   H1A 3667   0.941   4.492   6.515  0.0030  0.7356 -0.1927
   34CHL1   H1B 3668   0.768   4.446   6.538 -0.5273 -2.5035  0.2692
   34CHL1    C2 3669   0.869   4.415   6.720 -0.2376 -0.2144 -0.1149
   34CHL1   H2A 3670   0.849   4.517   6.759  1.6902  0.9050 -1.8573
   34CHL1   H2B 3671   0.966   4.385   6.766 -1.0885 -1.9468  0.6652
   34CHL1   C20 3672   0.958   4.251   5.772 -1.3755 -0.5026  0.0974
   34CHL1   H20 3673   1.048   4.186   5.772  0.8230  2.2511  2.4471
   34CHL1   C21 3674   1.014   4.393   5.774  0.0570  0.1395 -0.1562
   34CHL1  H21A 3675   1.071   4.418   5.866 -0.0612 -1.1309  0.2852
   34CHL1  H21B 3676   0.933   4.466   5.756  0.2986  0.6404  0.6962
   34CHL1  H21C 3677   1.078   4.425   5.689 -0.3445  1.7415  0.1131
   34CHL1   C22 3678   0.881   4.232   5.636  0.2025  0.0810  0.4382
   34CHL1  H22A 3679   0.862   4.123   5.624 -0.6355  0.3416 -0.7821
   34CHL1  H22B 3680   0.785   4.286   5.654  0.8505  0.9392  1.4730
   34CHL1   C23 3681   0.954   4.269   5.509 -0.2816  0.8390 -0.3389
   34CHL1  H23A 3682   0.988   4.375   5.505  1.7103  0.3499  1.6860
   34CHL1  H23B 3683   1.047   4.209   5.498 -1.4096 -2.2323  4.2698
   34CHL1   C24 3684   0.872   4.247   5.380  0.2863  0.3753  0.4608
   34CHL1  H24A 3685   0.848   4.140   5.362  0.3467  0.1848  1.4717
   34CHL1  H24B 3686   0.776   4.301   5.394  0.7769  2.2762 -2.5530
   34CHL1   C25 3687   0.937   4.298   5.251  0.1944 -0.6740  0.1727
   34CHL1   H25 3688   0.861   4.276   5.172  0.9899 -1.8850 -0.2819
   34CHL1   C26 3689   0.952   4.457   5.251  0.7986  0.4674 -0.5796
   34CHL1  H26A 3690   1.013   4.473   5.343  0.2355  0.3561 -0.1790
   34CHL1  H26B 3691   1.003   4.498   5.161 -0.9508  1.6330 -1.0733
   34CHL1  H26C 3692   0.857   4.510   5.269  0.2439 -1.1887  1.9396
   34CHL1   C27 3693   1.067   4.227   5.211 -0.2309 -0.1989 -0.1751
   34CHL1  H27A 3694   1.098   4.271   5.114 -0.3140 -0.5644 -0.3687
   34CHL1  H27B 3695   1.134   4.249   5.297 -0.6591  0.1356  0.0759
   34CHL1  H27C 3696   1.052   4.119   5.191  0.1946  0.0710 -2.1732
   35CHL1    C3 3697   5.492   5.127   6.615  0.8233 -0.2203 -0.2851
   35CHL1    H3 3698   5.558   5.038   6.609  0.2931 -0.6651  0.3131
   35CHL1    O3 3699   5.493   5.176   6.745 -0.0355  0.3745  0.0172
   35CHL1   H3' 3700   5.584   5.201   6.762 -0.2776  0.8239  0.7353
   35CHL1    C4 3701   5.537   5.233   6.516 -0.0502 -0.5007  0.1983
   35CHL1   H4A 3702   5.496   5.335   6.533  0.8374  0.1028 -1.1184
   35CHL1   H4B 3703   5.645   5.246   6.537 -0.1239  0.5408 -0.0069
   35CHL1    C5 3704   5.526   5.183   6.373  0.3098 -1.1136 -0.7647
   35CHL1    C6 3705   5.623   5.174   6.284  0.4487 -0.7712  0.2384
   35CHL1    H6 3706   5.718   5.221   6.314  0.4467  0.2068 -1.1719
   35CHL1    C7 3707   5.600   5.154   6.135  0.3402  0.9806 -0.4367
   35CHL1   H7A 3708   5.671   5.210   6.071 -0.5779  0.9938 -1.4697
   35CHL1   H7B 3709   5.633   5.052   6.105 -0.8349  0.4219  0.0826
   35CHL1    C8 3710   5.451   5.170   6.094  0.2412 -0.0241  0.3206
   35CHL1    H8 3711   5.428   5.277   6.109 -0.3516 -0.2362  0.9856
   35CHL1   C14 3712   5.435   5.131   5.950  0.3954  0.3703 -0.7808
   35CHL1   H14 3713   5.484   5.031   5.946  0.2943  0.1199  2.0180
   35CHL1   C15 3714   5.498   5.215   5.841  0.6688  0.3538  0.0652
   35CHL1  H15A 3715   5.472   5.323   5.847 -1.6430 -0.1231 -0.5844
   35CHL1  H15B 3716   5.606   5.191   5.837  0.7343  0.6198  0.1788
   35CHL1   C16 3717   5.436   5.158   5.705  0.4044  0.7321  0.0544
   35CHL1  H16A 3718   5.392   5.242   5.647 -3.6850 -2.2133 -1.4880
   35CHL1  H16B 3719   5.509   5.096   5.649 -1.1592 -2.3694  1.2227
   35CHL1   C17 3720   5.323   5.058   5.751  0.7738 -0.0932  0.2822
   35CHL1   H17 3721   5.375   4.961   5.768  0.9097 -0.1536 -0.4585
   35CHL1   C13 3722   5.287   5.106   5.897 -0.5346  0.0658  0.7417
   35CHL1   C18 3723   5.206   5.236   5.899 -0.4085 -0.3799  0.3491
   35CHL1  H18A 3724   5.107   5.185   5.895 -0.8775  0.4977 -3.0463
   35CHL1  H18B 3725   5.198   5.298   5.991 -2.5407 -0.0050 -0.0333
   35CHL1  H18C 3726   5.216   5.294   5.804 -2.0027  3.8623  2.4993
   35CHL1   C12 3727   5.222   5.000   5.988 -0.7656 -0.1012 -0.1304
   35CHL1  H12A 3728   5.121   4.973   5.952 -0.7414  0.1095 -0.3599
   35CHL1  H12B 3729   5.284   4.908   5.986  0.1801  0.5415 -1.0075
   35CHL1   C11 3730   5.223   5.055   6.135  0.7063 -0.7486  0.1341
   35CHL1  H11A 3731   5.151   5.138   6.145  1.2995 -0.1043 -0.8043
   35CHL1  H11B 3732   5.181   4.971   6.195 -0.6790  0.1914  0.5200
   35CHL1    C9 3733   5.370   5.084   6.185 -0.3328 -0.7082  0.2063
   35CHL1    H9 3734   5.426   4.988   6.188  0.7287 -0.0846  1.4418
   35CHL1   C10 3735   5.378   5.141   6.336 -0.6776  0.1580 -0.0076
   35CHL1   C19 3736   5.293   5.268   6.349 -0.5406 -0.3590  0.2038
   35CHL1  H19A 3737   5.280   5.298   6.455 -4.3498 -1.3801  0.1483
   35CHL1  H19B 3738   5.329   5.352   6.285  3.1638 -3.3386 -2.1220
   35CHL1  H19C 3739   5.187   5.243   6.327 -0.9504  2.1264 -0.9944
   35CHL1    C1 3740   5.338   5.034   6.437  0.2911  0.4994 -0.0203
   35CHL1   H1A 3741   5.230   5.011   6.425  0.0850  0.0771  2.2255
   35CHL1   H1B 3742   5.397   4.941   6.423  0.1030  0.2310  0.9350
   35CHL1    C2 3743   5.349   5.080   6.587 -0.3463 -0.5582  0.3317
   35CHL1   H2A 3744   5.324   4.999   6.658  0.7927 -0.1442  1.2270
   35CHL1   H2B 3745   5.282   5.164   6.616  0.3076 -0.6458  2.1510
   35CHL1   C20 3746   5.197   5.034   5.656  0.2391 -0.2664  0.6406
   35CHL1   H20 3747   5.127   5.118   5.674  0.6513  0.3773 -0.6527
   35CHL1   C21 3748   5.137   4.892   5.680 -0.1071  0.0658 -1.2719
   35CHL1  H21A 3749   5.133   4.861   5.786 -1.0562 -1.0374 -1.5979
   35CHL1  H21B 3750   5.205   4.822   5.628  0.6235  0.7224 -1.2102
   35CHL1  H21C 3751   5.031   4.884   5.645 -0.5580  0.9971 -0.1768
   35CHL1   C22 3752   5.237   5.037   5.503 -0.0878  0.4566 -0.3476
   35CHL1  H22A 3753   5.329   5.100   5.500  0.8030 -0.7026  1.1757
   35CHL1  H22B 3754   5.285   4.942   5.471 -1.5910 -1.1542  1.8628
   35CHL1   C23 3755   5.138   5.112   5.418 -0.0362  0.2176 -0.6578
   35CHL1  H23A 3756   5.038   5.069   5.440  0.5731 -0.2882  1.2657
   35CHL1  H23B 3757   5.134   5.218   5.453  0.9290  0.2076 -0.5056
   35CHL1   C24 3758   5.158   5.107   5.263 -0.5468  0.2404 -0.4248
   35CHL1  H24A 3759   5.245   5.171   5.238  0.3982 -0.3023  1.3205
   35CHL1  H24B 3760   5.186   5.006   5.228  1.3936  0.2189  1.0419
   35CHL1   C25 3761   5.041   5.158   5.172 -0.4661  0.2760  0.1727
   35CHL1   H25 3762   4.952   5.106   5.214 -0.2226 -1.8501 -1.7640
   35CHL1   C26 3763   5.024   5.312   5.178 -0.1969 -0.2227  0.1885
   35CHL1  H26A 3764   4.920   5.339   5.148  0.5606  1.0764 -1.3679
   35CHL1  H26B 3765   5.045   5.347   5.281  0.4664  1.0660 -0.3631
   35CHL1  H26C 3766   5.104   5.355   5.115 -0.5648 -2.5494 -2.0464
   35CHL1   C27 3767   5.046   5.114   5.027 -0.0788 -0.3321  0.0443
   35CHL1  H27A 3768   5.046   5.004   5.012  0.2498 -0.2364 -0.6901
   35CHL1  H27B 3769   4.960   5.152   4.968  0.2741  1.8866  0.8538
   35CHL1  H27C 3770   5.140   5.154   4.983  0.2249 -1.0737  0.0066
   36CHL1    C3 3771   4.481   3.446   6.573 -1.0250 -0.6707 -0.8091
   36CHL1    H3 3772   4.502   3.539   6.516 -0.9982 -0.1348  0.0504
   36CHL1    O3 3773   4.489   3.487   6.716 -0.2830 -0.5481 -0.4814
   36CHL1   H3' 3774   4.522   3.577   6.709  0.7986 -0.9809 -1.2777
   36CHL1    C4 3775   4.342   3.402   6.544 -0.3066 -0.5769  0.3208
   36CHL1   H4A 3776   4.323   3.317   6.613 -0.1647 -0.5916  0.3428
   36CHL1   H4B 3777   4.277   3.489   6.565  0.0051 -0.4938  0.9600
   36CHL1    C5 3778   4.327   3.355   6.393 -0.1320 -0.6247 -1.0073
   36CHL1    C6 3779   4.246   3.419   6.307 -0.1143 -0.2426 -0.6277
   36CHL1    H6 3780   4.173   3.491   6.346 -2.6631 -2.6056 -0.7470
   36CHL1    C7 3781   4.230   3.380   6.162 -0.0371 -0.1407 -0.3717
   36CHL1   H7A 3782   4.123   3.381   6.133 -0.1704 -0.3358  0.0949
   36CHL1   H7B 3783   4.276   3.456   6.095  0.2530 -0.9330 -1.0803
   36CHL1    C8 3784   4.298   3.250   6.128  0.8589  0.1940  0.2306
   36CHL1    H8 3785   4.232   3.168   6.164  1.6277 -0.4036  0.3023
   36CHL1   C14 3786   4.308   3.240   5.970  0.4017 -0.2362 -0.1194
   36CHL1   H14 3787   4.371   3.325   5.939  0.0996  0.3272  0.7644
   36CHL1   C15 3788   4.176   3.251   5.892  0.3099  0.4446  0.0821
   36CHL1  H15A 3789   4.090   3.193   5.930  0.2953 -0.2989 -1.0416
   36CHL1  H15B 3790   4.141   3.355   5.875  1.3483  1.0041  1.2090
   36CHL1   C16 3791   4.212   3.192   5.757  0.1285  0.1170 -0.1667
   36CHL1  H16A 3792   4.152   3.102   5.731  0.5004 -0.2720  0.2853
   36CHL1  H16B 3793   4.207   3.272   5.680 -1.0990 -0.2016 -0.4326
   36CHL1   C17 3794   4.358   3.142   5.766  0.1390  0.6729  0.2881
   36CHL1   H17 3795   4.419   3.229   5.733 -0.4588  2.0365  2.5926
   36CHL1   C13 3796   4.374   3.113   5.917 -0.8497  0.5020 -0.3530
   36CHL1   C18 3797   4.285   2.986   5.948  0.4428  0.2251  1.7011
   36CHL1  H18A 3798   4.179   2.990   5.913  0.9773 -0.2185 -0.0893
   36CHL1  H18B 3799   4.342   2.903   5.901  0.7681  0.6280  1.3770
   36CHL1  H18C 3800   4.284   2.978   6.059  1.8547  0.8807  1.7762
   36CHL1   C12 3801   4.518   3.098   5.980  0.0915  0.0832  0.3835
   36CHL1  H12A 3802   4.558   2.996   5.964  0.1070 -0.0150  1.0228
   36CHL1  H12B 3803   4.588   3.166   5.927  0.4480 -0.6355 -0.0809
   36CHL1   C11 3804   4.518   3.123   6.130 -0.4100  1.0652  0.6361
   36CHL1  H11A 3805   4.472   3.029   6.167  0.4773  0.9917  1.5892
   36CHL1  H11B 3806   4.621   3.113   6.169 -0.7118 -1.2297  0.9713
   36CHL1    C9 3807   4.437   3.246   6.184  0.3451  0.7292  0.0555
   36CHL1    H9 3808   4.484   3.337   6.144  1.2179 -0.0139 -0.6491
   36CHL1   C10 3809   4.432   3.253   6.342  0.3763  0.7560  0.6258
   36CHL1   C19 3810   4.396   3.112   6.412  0.1474 -0.3256 -0.1153
   36CHL1  H19A 3811   4.386   3.117   6.523 -0.4642 -0.4135 -0.1661
   36CHL1  H19B 3812   4.303   3.069   6.370  0.6577 -1.0460 -0.5341
   36CHL1  H19C 3813   4.471   3.032   6.393  0.1550 -0.7044  1.3790
   36CHL1    C1 3814   4.577   3.289   6.399  0.3560 -0.0845  0.0873
   36CHL1   H1A 3815   4.654   3.211   6.384 -1.2761 -2.0377  1.3240
   36CHL1   H1B 3816   4.602   3.374   6.332 -2.4142 -0.5084 -1.6549
   36CHL1    C2 3817   4.580   3.338   6.543  0.1937  0.4139 -0.8043
   36CHL1   H2A 3818   4.687   3.365   6.560  1.0458 -2.6242 -0.7716
   36CHL1   H2B 3819   4.562   3.259   6.619  0.1868 -0.1633 -1.3985
   36CHL1   C20 3820   4.389   3.029   5.669  0.4404 -0.0472  0.4037
   36CHL1   H20 3821   4.327   2.941   5.696  0.0188  0.5775  1.5218
   36CHL1   C21 3822   4.540   3.007   5.670 -0.0901 -0.0320  0.6630
   36CHL1  H21A 3823   4.572   2.952   5.761  3.4356 -3.1862 -2.1326
   36CHL1  H21B 3824   4.583   3.109   5.665 -0.7818  0.2377  0.0214
   36CHL1  H21C 3825   4.579   2.955   5.580  1.1411 -1.1409  1.7835
   36CHL1   C22 3826   4.344   3.050   5.514 -0.3493  0.8279  0.0015
   36CHL1  H22A 3827   4.241   3.093   5.512 -0.2918  1.2220  2.3808
   36CHL1  H22B 3828   4.422   3.118   5.474  3.6976 -2.9200  0.8146
   36CHL1   C23 3829   4.344   2.923   5.427  0.0990  0.2473 -0.4773
   36CHL1  H23A 3830   4.442   2.870   5.432 -2.2649 -4.5797  3.0583
   36CHL1  H23B 3831   4.276   2.849   5.473  1.4717 -0.3106  0.7490
   36CHL1   C24 3832   4.315   2.952   5.279  0.6156 -0.5403  0.0916
   36CHL1  H24A 3833   4.304   2.856   5.224 -1.3686  0.3819 -1.2505
   36CHL1  H24B 3834   4.213   2.998   5.275  1.3709  1.1777 -2.1909
   36CHL1   C25 3835   4.408   3.048   5.207 -0.0699 -0.1095 -0.1049
   36CHL1   H25 3836   4.438   3.127   5.280 -4.2072  0.6405  1.0421
   36CHL1   C26 3837   4.541   2.973   5.178  0.7961 -0.2127  0.2630
   36CHL1  H26A 3838   4.624   3.041   5.150  1.3598 -2.0000 -2.8819
   36CHL1  H26B 3839   4.576   2.905   5.258 -0.9085 -0.9402  0.4313
   36CHL1  H26C 3840   4.519   2.912   5.088  0.7317  0.8428 -0.4577
   36CHL1   C27 3841   4.353   3.108   5.072  0.4022  0.1267  0.2288
   36CHL1  H27A 3842   4.337   3.027   4.997 -0.0821  0.0756  0.3818
   36CHL1  H27B 3843   4.258   3.165   5.087 -1.0486 -2.2254  0.5250
   36CHL1  H27C 3844   4.410   3.190   5.024  1.7961 -0.2267  1.2309
   37CHL1    C3 3845   5.209   5.546   6.837  0.3610  0.0224  0.0254
   37CHL1    H3 3846   5.120   5.532   6.902  1.2617 -1.1088  1.0723
   37CHL1    O3 3847   5.325   5.534   6.915  0.0306  0.1230 -0.0576
   37CHL1   H3' 3848   5.380   5.467   6.872  1.5869  1.3453 -0.0757
   37CHL1    C4 3849   5.209   5.441   6.716  0.1987 -0.0249  0.2085
   37CHL1   H4A 3850   5.307   5.442   6.664 -1.1348 -1.9025 -2.5276
   37CHL1   H4B 3851   5.212   5.340   6.763  1.8773  0.3547  1.0080
   37CHL1    C5 3852   5.100   5.459   6.613  0.0168 -0.4508  0.1494
   37CHL1    C6 3853   5.015   5.364   6.585  0.3943 -0.4763 -0.6097
   37CHL1    H6 3854   5.027   5.267   6.635  0.3869 -0.2441 -0.1570
   37CHL1    C7 3855   4.926   5.372   6.464 -0.7416  0.2473  0.4694
   37CHL1   H7A 3856   4.944   5.278   6.408  0.0786 -0.0907  1.2764
   37CHL1   H7B 3857   4.821   5.375   6.500 -1.7055  2.4999 -2.1476
   37CHL1    C8 3858   4.952   5.496   6.381 -0.2867 -0.6615  0.1856
   37CHL1    H8 3859   5.045   5.478   6.322 -0.0037  1.3092 -0.0278
   37CHL1   C14 3860   4.839   5.519   6.279 -0.5979 -0.2466 -0.0942
   37CHL1   H14 3861   4.752   5.541   6.344 -0.2007  0.1191  0.3162
   37CHL1   C15 3862   4.797   5.399   6.188  0.1729 -0.0394  0.6566
   37CHL1  H15A 3863   4.887   5.353   6.143 -0.8916 -1.7180  0.1705
   37CHL1  H15B 3864   4.748   5.320   6.249  1.6953 -0.1088  1.8650
   37CHL1   C16 3865   4.692   5.465   6.092 -0.0524  0.1767  0.7182
   37CHL1  H16A 3866   4.726   5.438   5.990  0.3847 -0.3824  1.0018
   37CHL1  H16B 3867   4.585   5.439   6.105  0.0168 -1.9920 -1.9512
   37CHL1   C17 3868   4.710   5.618   6.107 -0.4049 -0.2536  0.0428
   37CHL1   H17 3869   4.630   5.648   6.178  2.4148 -0.8008  3.7259
   37CHL1   C13 3870   4.839   5.644   6.193  0.8557  0.0176 -0.3876
   37CHL1   C18 3871   4.968   5.645   6.105  0.1084  0.1202 -0.0222
   37CHL1  H18A 3872   4.961   5.730   6.034 -0.4708 -1.3238 -1.7500
   37CHL1  H18B 3873   5.063   5.664   6.159  1.5813  2.3051 -3.0995
   37CHL1  H18C 3874   4.985   5.550   6.051 -0.5711  0.1089 -0.2269
   37CHL1   C12 3875   4.848   5.763   6.290 -0.7066 -0.7791  0.0538
   37CHL1  H12A 3876   4.876   5.853   6.232  1.1386 -1.1736  0.2854
   37CHL1  H12B 3877   4.748   5.786   6.333 -1.2752 -1.8905 -0.6156
   37CHL1   C11 3878   4.962   5.756   6.391 -0.0447 -0.0609 -0.6873
   37CHL1  H11A 3879   5.057   5.775   6.337  0.7853 -0.1455  0.6744
   37CHL1  H11B 3880   4.945   5.837   6.465 -1.5130 -1.3078  0.4256
   37CHL1    C9 3881   4.969   5.622   6.466  0.0564 -0.2953  0.2177
   37CHL1    H9 3882   4.878   5.622   6.531 -0.4660 -2.4534 -0.4100
   37CHL1   C10 3883   5.087   5.602   6.557 -0.0845  0.2486  0.3671
   37CHL1   C19 3884   5.213   5.625   6.468 -0.1420  0.2775  0.6468
   37CHL1  H19A 3885   5.304   5.594   6.524 -0.7655 -2.1590  0.4024
   37CHL1  H19B 3886   5.226   5.563   6.377 -1.3211 -0.3828  0.9187
   37CHL1  H19C 3887   5.225   5.733   6.443  1.3313 -0.4131 -2.1574
   37CHL1    C1 3888   5.083   5.706   6.680 -0.0062 -0.7497 -0.3751
   37CHL1   H1A 3889   5.076   5.813   6.651  2.0644  0.0575  1.7575
   37CHL1   H1B 3890   4.989   5.698   6.739 -0.5236  2.2987 -0.6348
   37CHL1    C2 3891   5.199   5.689   6.778  0.0947 -0.5658 -0.3254
   37CHL1   H2A 3892   5.191   5.752   6.868  1.7477 -0.0186 -0.5131
   37CHL1   H2B 3893   5.296   5.711   6.726 -0.0329  1.0739  0.0786
   37CHL1   C20 3894   4.697   5.701   5.984  1.0070  0.1499 -0.4538
   37CHL1   H20 3895   4.787   5.680   5.922  0.3202 -2.5923 -0.6773
   37CHL1   C21 3896   4.701   5.848   6.011  0.5757 -0.1103 -0.3256
   37CHL1  H21A 3897   4.796   5.886   6.052 -0.2152  0.7254  0.7755
   37CHL1  H21B 3898   4.621   5.882   6.080  0.3173  2.9182 -1.9664
   37CHL1  H21C 3899   4.691   5.904   5.916 -0.0329 -1.1775 -0.9158
   37CHL1   C22 3900   4.569   5.657   5.907  0.4187 -0.1701 -0.0105
   37CHL1  H22A 3901   4.571   5.546   5.897  0.0864 -0.0804 -1.2506
   37CHL1  H22B 3902   4.477   5.696   5.955 -0.9734  1.3174 -3.5259
   37CHL1   C23 3903   4.552   5.712   5.764 -0.5577  0.1344  0.0743
   37CHL1  H23A 3904   4.511   5.815   5.761 -0.1923  0.2877  0.2683
   37CHL1  H23B 3905   4.650   5.711   5.712 -0.3540 -0.1911  0.4570
   37CHL1   C24 3906   4.455   5.621   5.679 -0.7886  0.1414 -0.4111
   37CHL1  H24A 3907   4.507   5.524   5.666 -1.8527 -0.6152  0.7795
   37CHL1  H24B 3908   4.361   5.610   5.738 -1.2617  0.4808 -1.0880
   37CHL1   C25 3909   4.418   5.674   5.539 -0.1066 -0.2862  0.1037
   37CHL1   H25 3910   4.357   5.763   5.564 -1.3716 -1.2871  0.7060
   37CHL1   C26 3911   4.534   5.721   5.446  0.4977 -0.3571 -1.0569
   37CHL1  H26A 3912   4.598   5.634   5.421  0.2642 -0.2243 -2.1516
   37CHL1  H26B 3913   4.495   5.766   5.352 -0.5464  0.6079 -0.1853
   37CHL1  H26C 3914   4.609   5.792   5.487  0.1608 -0.9574  0.6687
   37CHL1   C27 3915   4.327   5.581   5.459  0.1636  0.2161  0.3464
   37CHL1  H27A 3916   4.307   5.611   5.354  0.0511 -0.7715  0.0730
   37CHL1  H27B 3917   4.370   5.478   5.452  2.4720  1.0158  2.0023
   37CHL1  H27C 3918   4.230   5.568   5.511  0.5317 -1.4691  0.6889
   38CHL1    C3 3919   5.998   2.800   6.701 -0.0386  0.0451  0.2934
   38CHL1    H3 3920   5.906   2.861   6.711  1.1660  2.0978 -0.5585
   38CHL1    O3 3921   6.032   2.766   6.829  0.4950 -0.4462  0.0809
   38CHL1   H3' 3922   6.088   2.688   6.824  1.1155 -0.0284  0.2415
   38CHL1    C4 3923   5.947   2.676   6.628  0.0807  0.4739 -0.2406
   38CHL1   H4A 3924   6.016   2.589   6.637 -1.0316 -0.4878 -0.7912
   38CHL1   H4B 3925   5.853   2.641   6.675  0.5249 -1.7111 -0.8505
   38CHL1    C5 3926   5.912   2.703   6.484 -0.4210 -0.2913  0.2327
   38CHL1    C6 3927   5.796   2.673   6.427 -0.4571 -0.3076 -0.4555
   38CHL1    H6 3928   5.717   2.621   6.483  1.6122 -3.2304  0.0042
   38CHL1    C7 3929   5.765   2.686   6.286 -1.0262 -0.0341  0.7122
   38CHL1   H7A 3930   5.727   2.591   6.244 -0.7241  0.2641 -0.2615
   38CHL1   H7B 3931   5.688   2.766   6.284 -1.2766 -0.2655 -1.3482
   38CHL1    C8 3932   5.897   2.720   6.202 -0.8300 -0.2865 -0.2439
   38CHL1    H8 3933   5.957   2.628   6.209 -1.1982 -0.4777  0.6041
   38CHL1   C14 3934   5.869   2.759   6.062  0.4650  0.4500  0.5865
   38CHL1   H14 3935   5.806   2.850   6.075  0.8440  0.5491  1.9075
   38CHL1   C15 3936   5.787   2.660   5.968 -0.0058  0.0653  0.2997
   38CHL1  H15A 3937   5.820   2.554   5.976  1.0481  0.5062  2.3534
   38CHL1  H15B 3938   5.681   2.670   5.999 -0.2844 -2.4258  0.3668
   38CHL1   C16 3939   5.822   2.715   5.824 -0.0257 -0.2433 -0.2547
   38CHL1  H16A 3940   5.845   2.624   5.766  1.2358 -1.4601  2.0195
   38CHL1  H16B 3941   5.729   2.768   5.793 -1.9558 -2.8814  0.6656
   38CHL1   C17 3942   5.944   2.810   5.840 -1.2620 -0.2813 -0.4376
   38CHL1   H17 3943   5.907   2.914   5.837  0.1527  0.2719  0.5961
   38CHL1   C13 3944   5.999   2.785   5.981 -0.2962  0.1920  0.4713
   38CHL1   C18 3945   6.097   2.659   5.990  0.6127 -0.3961 -0.3273
   38CHL1  H18A 3946   6.130   2.630   6.092  1.1267  1.8051  0.2014
   38CHL1  H18B 3947   6.042   2.569   5.956  1.8602 -2.3513  2.4382
   38CHL1  H18C 3948   6.195   2.684   5.944  2.8064 -0.4436  3.8647
   38CHL1   C12 3949   6.054   2.912   6.042  0.8288  0.3583 -0.0233
   38CHL1  H12A 3950   6.151   2.937   5.994  1.1330 -0.7557 -0.0212
   38CHL1  H12B 3951   5.981   2.994   6.026 -1.3171 -1.3698  0.2959
   38CHL1   C11 3952   6.091   2.896   6.185 -0.1020 -0.5436 -0.4292
   38CHL1  H11A 3953   6.192   2.850   6.192  0.1125 -0.3255 -1.7364
   38CHL1  H11B 3954   6.109   2.996   6.230  2.2584 -0.4946 -1.3178
   38CHL1    C9 3955   5.975   2.835   6.268  0.2068  1.0384 -0.0897
   38CHL1    H9 3956   5.903   2.919   6.284 -0.9695 -0.3914  2.8759
   38CHL1   C10 3957   6.025   2.784   6.407  0.3348 -0.0756 -0.9469
   38CHL1   C19 3958   6.147   2.683   6.396  0.8634 -0.5333 -0.5343
   38CHL1  H19A 3959   6.175   2.634   6.492 -0.2253 -3.0450 -1.4184
   38CHL1  H19B 3960   6.122   2.604   6.321  2.1146 -0.9363 -0.5535
   38CHL1  H19C 3961   6.240   2.733   6.361  0.4364  0.7064  0.0498
   38CHL1    C1 3962   6.073   2.910   6.494  0.3752  0.0212  0.0425
   38CHL1   H1A 3963   6.169   2.952   6.456  0.3992  1.2324  1.3758
   38CHL1   H1B 3964   6.002   2.993   6.481  0.8363  0.4658  0.3194
   38CHL1    C2 3965   6.115   2.869   6.635 -0.3795  0.0853  0.2473
   38CHL1   H2A 3966   6.127   2.962   6.693  0.5396 -0.2498  0.6165
   38CHL1   H2B 3967   6.211   2.812   6.640  0.1002  0.7337 -1.0638
   38CHL1   C20 3968   6.031   2.793   5.710  0.3507  0.9984  0.3367
   38CHL1   H20 3969   6.061   2.687   5.700 -3.7346 -0.3742  0.7610
   38CHL1   C21 3970   6.157   2.883   5.724  0.7808  0.0363 -0.2986
   38CHL1  H21A 3971   6.106   2.975   5.759 -3.1975 -2.5397  1.3504
   38CHL1  H21B 3972   6.210   2.906   5.629 -1.9337 -0.0115 -1.9170
   38CHL1  H21C 3973   6.223   2.852   5.809 -1.4725 -0.0701  1.5134
   38CHL1   C22 3974   5.959   2.827   5.582 -0.3475  0.3578 -0.0277
   38CHL1  H22A 3975   6.021   2.816   5.491 -3.0756  1.0702 -2.1263
   38CHL1  H22B 3976   5.884   2.748   5.559 -0.0888  0.0331  0.2335
   38CHL1   C23 3977   5.891   2.963   5.562  1.2384 -0.6629 -0.5251
   38CHL1  H23A 3978   5.804   2.968   5.631  1.0646  0.4698 -0.8180
   38CHL1  H23B 3979   5.958   3.047   5.590 -2.7084  1.7837  2.6296
   38CHL1   C24 3980   5.828   2.999   5.423 -0.2435 -0.0669 -0.4423
   38CHL1  H24A 3981   5.763   2.917   5.388 -2.6672  1.5385  0.0101
   38CHL1  H24B 3982   5.760   3.086   5.437 -2.2358 -1.6790  0.3935
   38CHL1   C25 3983   5.925   3.030   5.305 -0.2345  0.1589  0.2200
   38CHL1   H25 3984   5.982   2.939   5.276  0.7750  0.9043 -0.1883
   38CHL1   C26 3985   5.847   3.046   5.174 -0.7247 -0.0543 -0.8216
   38CHL1  H26A 3986   5.776   2.961   5.164 -2.8106  1.3888  0.5355
   38CHL1  H26B 3987   5.796   3.145   5.169 -1.1547 -0.0313  2.1451
   38CHL1  H26C 3988   5.911   3.048   5.084 -0.8063 -0.4586 -0.8873
   38CHL1   C27 3989   6.019   3.143   5.322 -0.4108 -0.2812 -0.3078
   38CHL1  H27A 3990   6.106   3.128   5.255  2.3040 -0.4819  3.0070
   38CHL1  H27B 3991   5.972   3.244   5.316  0.5918  0.2304  0.2719
   38CHL1  H27C 3992   6.058   3.142   5.425 -1.3435  1.5052  0.1029
   39CHL1    C3 3993   0.955   1.001   6.525 -0.6496  0.0783 -0.4277
   39CHL1    H3 3994   0.856   0.951   6.516 -0.6175  0.1557 -1.2375
   39CHL1    O3 3995   0.991   1.013   6.672  0.3037 -0.1775 -0.4445
   39CHL1   H3' 3996   0.927   1.076   6.707 -1.6205 -0.2101 -3.4842
   39CHL1    C4 3997   1.063   0.918   6.450 -0.1051 -0.6608  0.2498
   39CHL1   H4A 3998   1.156   0.975   6.469 -0.8204  1.3205 -1.7640
   39CHL1   H4B 3999   1.063   0.821   6.504  0.0166 -0.4979  0.5435
   39CHL1    C5 4000   1.028   0.909   6.304  0.2648  0.3092  0.4551
   39CHL1    C6 4001   1.011   0.791   6.238  0.2784 -0.6353 -0.3547
   39CHL1    H6 4002   1.023   0.694   6.288 -0.0072  0.2061  1.4116
   39CHL1    C7 4003   0.990   0.787   6.091  0.6121  0.1207  0.4085
   39CHL1   H7A 4004   1.050   0.711   6.038 -2.0325 -0.0061 -2.7273
   39CHL1   H7B 4005   0.886   0.756   6.071  0.5915  0.5199 -0.1342
   39CHL1    C8 4006   1.011   0.914   6.012  0.6292  0.1544  0.2039
   39CHL1    H8 4007   1.118   0.944   6.007  0.3665  0.8581 -3.0272
   39CHL1   C14 4008   0.950   0.913   5.873 -0.3288 -0.1908  0.8985
   39CHL1   H14 4009   0.842   0.894   5.888 -0.2091 -0.9535  0.8234
   39CHL1   C15 4010   0.985   0.807   5.767  0.9885  0.6431 -0.2002
   39CHL1  H15A 4011   1.085   0.762   5.783  0.4876 -0.3866  0.1403
   39CHL1  H15B 4012   0.905   0.733   5.791  0.2132  1.6368  0.3755
   39CHL1   C16 4013   0.957   0.865   5.629 -0.7618  0.2591 -0.2350
   39CHL1  H16A 4014   1.056   0.880   5.581 -1.3860  0.4409 -1.5010
   39CHL1  H16B 4015   0.891   0.814   5.555 -0.2654  2.3279 -2.1992
   39CHL1   C17 4016   0.897   1.007   5.659 -0.5630  0.5593  0.3407
   39CHL1   H17 4017   0.791   0.995   5.690 -0.8874  1.3771 -0.4170
   39CHL1   C13 4018   0.946   1.044   5.796 -0.5212  0.0939  0.0226
   39CHL1   C18 4019   1.096   1.079   5.779 -1.1483 -0.0227  0.2219
   39CHL1  H18A 4020   1.148   1.090   5.877 -0.3284 -0.5842 -0.1316
   39CHL1  H18B 4021   1.162   1.005   5.728 -0.8191  0.0121  0.5869
   39CHL1  H18C 4022   1.114   1.178   5.733 -2.9680 -1.1151 -3.1706
   39CHL1   C12 4023   0.877   1.151   5.879  0.4988  0.6548  0.2858
   39CHL1  H12A 4024   0.887   1.246   5.822  2.7142  1.3073  1.6248
   39CHL1  H12B 4025   0.770   1.123   5.894  0.1060  1.8600 -0.1398
   39CHL1   C11 4026   0.945   1.168   6.015 -0.2175 -0.9715 -0.6219
   39CHL1  H11A 4027   1.040   1.224   5.996 -0.7279  0.0321 -0.3170
   39CHL1  H11B 4028   0.883   1.249   6.060  1.5340  0.2203 -0.2211
   39CHL1    C9 4029   0.952   1.039   6.094  0.1277  0.2463 -0.7828
   39CHL1    H9 4030   0.849   1.001   6.114  1.0319 -0.6273  2.9558
   39CHL1   C10 4031   1.010   1.051   6.238 -0.1585 -0.3034 -0.0824
   39CHL1   C19 4032   1.146   1.127   6.235  0.2366  0.5466 -0.3056
   39CHL1  H19A 4033   1.210   1.096   6.150  1.8149  1.0660  0.6551
   39CHL1  H19B 4034   1.120   1.230   6.204 -1.0366  0.0185 -1.0925
   39CHL1  H19C 4035   1.201   1.116   6.331  1.6878  1.3758 -1.0162
   39CHL1    C1 4036   0.914   1.136   6.321  0.3019  0.6974 -0.1811
   39CHL1   H1A 4037   0.923   1.241   6.284  1.8979  1.0000  0.9316
   39CHL1   H1B 4038   0.815   1.089   6.306  1.1911 -0.8714 -1.5327
   39CHL1    C2 4039   0.936   1.140   6.471 -0.0175 -0.0978  0.1214
   39CHL1   H2A 4040   0.854   1.187   6.529  0.0959 -1.5482  1.5177
   39CHL1   H2B 4041   1.028   1.199   6.488 -0.1907  0.4149 -0.6563
   39CHL1   C20 4042   0.899   1.117   5.550 -0.7189 -0.1143 -0.1348
   39CHL1   H20 4043   0.908   1.213   5.605  0.9685 -0.5628  0.4576
   39CHL1   C21 4044   0.765   1.112   5.472  0.4000  0.0689  0.9278
   39CHL1  H21A 4045   0.689   1.125   5.552 -2.0920 -0.9158 -1.1390
   39CHL1  H21B 4046   0.761   1.009   5.431  1.0640 -0.7954  2.9077
   39CHL1  H21C 4047   0.758   1.188   5.392  0.5262 -0.7547  0.1111
   39CHL1   C22 4048   1.021   1.119   5.454 -0.1325 -0.0367  0.4545
   39CHL1  H22A 4049   1.118   1.115   5.510  0.8656 -1.0914 -1.2551
   39CHL1  H22B 4050   1.014   1.021   5.402 -0.6025 -0.8866  2.0374
   39CHL1   C23 4051   1.036   1.242   5.362 -0.0893 -0.0960  0.0415
   39CHL1  H23A 4052   0.941   1.269   5.311  0.5795  1.2269 -0.5416
   39CHL1  H23B 4053   1.051   1.334   5.422 -1.7106  1.0082 -1.1599
   39CHL1   C24 4054   1.154   1.224   5.267  0.6716 -0.4470  0.4150
   39CHL1  H24A 4055   1.185   1.326   5.237  0.1111 -0.6272 -0.8506
   39CHL1  H24B 4056   1.236   1.168   5.316  1.0303 -1.8823 -1.6830
   39CHL1   C25 4057   1.123   1.132   5.138 -0.5838  0.7796  0.1788
   39CHL1   H25 4058   1.050   1.052   5.162 -0.3832  0.2717 -0.8678
   39CHL1   C26 4059   1.062   1.207   5.023  0.4328 -0.3578 -0.0802
   39CHL1  H26A 4060   1.061   1.154   4.926 -0.9409  1.8398 -1.3494
   39CHL1  H26B 4061   0.961   1.246   5.048  0.7926  0.0917  0.7194
   39CHL1  H26C 4062   1.127   1.295   5.006 -0.0143 -0.0338 -0.1446
   39CHL1   C27 4063   1.253   1.062   5.091  0.3813  0.7098  0.1505
   39CHL1  H27A 4064   1.290   0.992   5.169  3.3804  1.2413 -0.6552
   39CHL1  H27B 4065   1.229   1.005   4.998 -1.3601  0.8910  0.4580
   39CHL1  H27C 4066   1.328   1.142   5.071 -0.8952  1.2639 -3.0739
   40CHL1    C3 4067   0.278   0.657   6.638  0.2661 -0.2348 -0.1132
   40CHL1    H3 4068   0.348   0.575   6.610  1.2423  1.0328 -1.5751
   40CHL1    O3 4069   0.250   0.649   6.775  0.7285  0.2427 -0.2088
   40CHL1   H3' 4070   0.189   0.720   6.795  0.5031  0.2994 -1.0670
   40CHL1    C4 4071   0.335   0.800   6.602  0.1439  1.1374 -0.2390
   40CHL1   H4A 4072   0.266   0.883   6.630 -0.1670  0.8700 -0.2087
   40CHL1   H4B 4073   0.423   0.821   6.667 -0.0863 -1.1363  0.9037
   40CHL1    C5 4074   0.371   0.819   6.454  0.5901  0.1736  0.5379
   40CHL1    C6 4075   0.493   0.852   6.414 -0.7327  0.1684  0.2740
   40CHL1    H6 4076   0.554   0.876   6.503 -1.3448  0.5710  0.5894
   40CHL1    C7 4077   0.540   0.859   6.265 -0.2859 -0.7181 -0.3619
   40CHL1   H7A 4078   0.586   0.957   6.239  1.2282 -1.4793 -0.6829
   40CHL1   H7B 4079   0.614   0.780   6.240  0.5396 -0.0485 -0.1173
   40CHL1    C8 4080   0.410   0.850   6.174 -0.7835 -0.0262  0.7256
   40CHL1    H8 4081   0.364   0.951   6.174  0.3885  0.5551 -0.8027
   40CHL1   C14 4082   0.451   0.806   6.028  0.8144 -0.4098 -0.4729
   40CHL1   H14 4083   0.501   0.707   6.036 -1.3500 -1.4223  1.7815
   40CHL1   C15 4084   0.560   0.892   5.967  0.3188  0.2899 -0.0843
   40CHL1  H15A 4085   0.545   0.998   5.995 -1.6471 -0.9747  4.5431
   40CHL1  H15B 4086   0.664   0.864   5.994  0.2233  0.4547  0.4514
   40CHL1   C16 4087   0.540   0.863   5.816 -0.9754  1.0202  0.8948
   40CHL1  H16A 4088   0.532   0.958   5.758 -1.4999  1.9896  2.4932
   40CHL1  H16B 4089   0.627   0.808   5.773 -1.5435  0.3138  0.6337
   40CHL1   C17 4090   0.415   0.781   5.799 -0.0492  0.1871  0.5192
   40CHL1   H17 4091   0.455   0.678   5.796  1.6006  0.8212 -0.5132
   40CHL1   C13 4092   0.329   0.804   5.929 -0.8468  0.1722  0.1626
   40CHL1   C18 4093   0.250   0.939   5.925 -0.1167  1.2010  0.1780
   40CHL1  H18A 4094   0.313   1.025   5.895 -1.1777  1.0003 -2.9145
   40CHL1  H18B 4095   0.168   0.933   5.851  0.5088  0.9425 -0.4971
   40CHL1  H18C 4096   0.211   0.961   6.027 -0.2717  0.1856  0.3492
   40CHL1   C12 4097   0.237   0.697   5.974  0.2583 -0.1673  0.6493
   40CHL1  H12A 4098   0.145   0.685   5.912  1.1152 -0.9572 -0.5353
   40CHL1  H12B 4099   0.286   0.598   5.959  0.8442  0.3440 -1.1124
   40CHL1   C11 4100   0.195   0.716   6.120 -0.8885  0.9525 -0.2423
   40CHL1  H11A 4101   0.123   0.801   6.124 -0.0203  1.6484  0.9446
   40CHL1  H11B 4102   0.135   0.627   6.149  0.7279 -0.5599 -1.3014
   40CHL1    C9 4103   0.307   0.750   6.225 -0.2114  0.3987  0.1349
   40CHL1    H9 4104   0.360   0.655   6.244 -0.4936  0.3816  0.8407
   40CHL1   C10 4105   0.253   0.790   6.359 -0.3181 -0.0520  0.4579
   40CHL1   C19 4106   0.163   0.916   6.373 -0.2605  0.2977 -0.4143
   40CHL1  H19A 4107   0.102   0.932   6.281  1.0670 -0.6528 -1.4848
   40CHL1  H19B 4108   0.085   0.883   6.445 -0.4334 -3.8781 -2.2123
   40CHL1  H19C 4109   0.211   1.014   6.392  2.1774 -0.0246 -3.9670
   40CHL1    C1 4110   0.165   0.666   6.412 -0.4019 -0.3901 -0.0259
   40CHL1   H1A 4111   0.062   0.667   6.371 -0.5200  0.5729  0.2750
   40CHL1   H1B 4112   0.215   0.577   6.368  1.8849  0.9368 -0.2533
   40CHL1    C2 4113   0.144   0.645   6.562  0.0716 -0.6583 -0.0443
   40CHL1   H2A 4114   0.103   0.542   6.572  1.7901 -1.7557 -3.0631
   40CHL1   H2B 4115   0.071   0.713   6.611  0.6502  0.5964 -0.8688
   40CHL1   C20 4116   0.343   0.802   5.667 -0.6515 -0.1385 -0.4957
   40CHL1   H20 4117   0.322   0.911   5.667  1.1066  0.2541 -1.3500
   40CHL1   C21 4118   0.218   0.715   5.654  0.6318  0.2269  0.5245
   40CHL1  H21A 4119   0.188   0.718   5.547  2.2016 -0.6350  0.0414
   40CHL1  H21B 4120   0.136   0.748   5.722  2.2749  0.1361  2.6666
   40CHL1  H21C 4121   0.236   0.607   5.668  0.3178 -0.1068 -1.3438
   40CHL1   C22 4122   0.443   0.781   5.552  0.2359  0.6345  0.4281
   40CHL1  H22A 4123   0.530   0.848   5.567 -0.2742  1.7874 -1.4050
   40CHL1  H22B 4124   0.481   0.677   5.552 -1.8816 -0.1854  0.0332
   40CHL1   C23 4125   0.387   0.818   5.413  0.8593 -0.8912 -0.5182
   40CHL1  H23A 4126   0.276   0.814   5.408  0.7827 -2.0525  1.1423
   40CHL1  H23B 4127   0.417   0.922   5.389 -1.0486 -0.2906 -0.5058
   40CHL1   C24 4128   0.438   0.733   5.302  0.3322  0.0628 -0.0244
   40CHL1  H24A 4129   0.548   0.752   5.296  0.4543 -0.2557  1.0615
   40CHL1  H24B 4130   0.416   0.628   5.330  0.5360  0.2000  0.6729
   40CHL1   C25 4131   0.383   0.766   5.158 -0.0304 -0.0650  0.6809
   40CHL1   H25 4132   0.274   0.764   5.179 -0.0737  2.2616  0.9479
   40CHL1   C26 4133   0.409   0.919   5.112 -0.2491  0.1563  0.1205
   40CHL1  H26A 4134   0.405   0.989   5.198 -1.4035  0.1347  0.0963
   40CHL1  H26B 4135   0.517   0.914   5.085 -0.3901  0.9046 -0.6399
   40CHL1  H26C 4136   0.342   0.946   5.027 -1.3778 -1.6595  0.3787
   40CHL1   C27 4137   0.432   0.651   5.066  0.0817 -0.1009  0.9347
   40CHL1  H27A 4138   0.420   0.553   5.115  0.6905 -1.0221 -0.6691
   40CHL1  H27B 4139   0.380   0.647   4.967  1.9385  0.1054 -0.0922
   40CHL1  H27C 4140   0.538   0.668   5.038  0.2667  1.2820  2.3277
   41CHL1    C3 4141   5.792   4.557   6.681 -0.7165 -0.6685 -0.1469
   41CHL1    H3 4142   5.868   4.633   6.654 -0.5796 -0.3317  1.1370
   41CHL1    O3 4143   5.791   4.541   6.819  0.4206  0.0109 -0.1543
   41CHL1   H3' 4144   5.744   4.610   6.868 -0.1154 -0.7597  0.4614
   41CHL1    C4 4145   5.652   4.620   6.647  0.4467  0.1996  0.1150
   41CHL1   H4A 4146   5.578   4.548   6.687  0.9008  0.1547  0.9044
   41CHL1   H4B 4147   5.643   4.717   6.701 -1.1422  0.4169 -0.4957
   41CHL1    C5 4148   5.636   4.629   6.496  0.1315  0.1573 -0.7050
   41CHL1    C6 4149   5.596   4.744   6.434  0.6477 -0.1155 -0.5672
   41CHL1    H6 4150   5.567   4.830   6.495  0.6499  0.7127 -1.6977
   41CHL1    C7 4151   5.563   4.752   6.288  0.3300  0.1798  0.5856
   41CHL1   H7A 4152   5.458   4.785   6.280  0.4019  1.9624  4.5247
   41CHL1   H7B 4153   5.627   4.834   6.248  0.7590 -1.0354 -1.3481
   41CHL1    C8 4154   5.566   4.618   6.214  0.3484 -0.2488  0.6350
   41CHL1    H8 4155   5.467   4.572   6.233 -1.0857  1.6339 -1.6790
   41CHL1   C14 4156   5.576   4.638   6.059  0.4914 -0.3394 -0.6680
   41CHL1   H14 4157   5.682   4.665   6.041  0.5019  0.8562  0.9381
   41CHL1   C15 4158   5.482   4.732   5.986 -0.1046 -0.1438 -0.0916
   41CHL1  H15A 4159   5.385   4.714   6.038  0.7525  0.2643  1.7196
   41CHL1  H15B 4160   5.520   4.836   6.000  0.4889 -0.5710  1.6273
   41CHL1   C16 4161   5.471   4.690   5.846  0.5332  0.2278  0.1747
   41CHL1  H16A 4162   5.365   4.663   5.823 -0.4084  1.3134  2.8522
   41CHL1  H16B 4163   5.516   4.765   5.777 -0.9798 -0.3902 -1.5578
   41CHL1   C17 4164   5.566   4.561   5.836 -0.0592  0.1086  0.2630
   41CHL1   H17 4165   5.664   4.609   5.820 -0.5645  1.5437  1.2360
   41CHL1   C13 4166   5.576   4.506   5.984 -0.4068 -0.1364 -0.3687
   41CHL1   C18 4167   5.449   4.423   6.011  0.2612 -0.3887 -0.3932
   41CHL1  H18A 4168   5.356   4.481   5.994  1.8261  2.6239  0.5578
   41CHL1  H18B 4169   5.445   4.329   5.953 -2.3398  0.2136 -1.3083
   41CHL1  H18C 4170   5.441   4.384   6.115  1.0783  0.3440 -0.0416
   41CHL1   C12 4171   5.710   4.435   6.023  0.9883 -0.5530 -0.0404
   41CHL1  H12A 4172   5.722   4.339   5.968  0.4301 -0.6936  0.0810
   41CHL1  H12B 4173   5.793   4.503   5.994 -0.8948  1.3740 -1.1956
   41CHL1   C11 4174   5.720   4.406   6.175  0.0115 -0.8902 -0.5815
   41CHL1  H11A 4175   5.642   4.329   6.196 -1.5265  0.8715  0.5814
   41CHL1  H11B 4176   5.821   4.366   6.197  0.6684  1.8739  2.1141
   41CHL1    C9 4177   5.686   4.535   6.265 -0.0710  0.6583 -0.2155
   41CHL1    H9 4178   5.777   4.598   6.262  1.6931 -1.6384  1.4484
   41CHL1   C10 4179   5.667   4.500   6.415 -0.1990 -0.2728 -0.3101
   41CHL1   C19 4180   5.544   4.397   6.429 -0.0363  0.4571  0.1308
   41CHL1  H19A 4181   5.523   4.372   6.535  1.0494 -1.2876 -0.0186
   41CHL1  H19B 4182   5.455   4.439   6.378 -0.0809 -0.5206 -0.6233
   41CHL1  H19C 4183   5.580   4.303   6.381 -1.0905  0.9326 -1.6843
   41CHL1    C1 4184   5.801   4.440   6.456 -0.8018 -0.2674 -0.4504
   41CHL1   H1A 4185   5.815   4.341   6.407  0.8423 -0.4534  0.2982
   41CHL1   H1B 4186   5.877   4.512   6.419 -0.1747 -0.1252  1.0097
   41CHL1    C2 4187   5.820   4.430   6.609 -0.6172 -0.1944 -0.3708
   41CHL1   H2A 4188   5.924   4.394   6.619 -1.3243 -2.1673  0.4284
   41CHL1   H2B 4189   5.753   4.348   6.642 -0.5439  0.0046  0.2726
   41CHL1   C20 4190   5.527   4.468   5.719 -0.3136  0.2138  0.1242
   41CHL1   H20 4191   5.430   4.418   5.735 -0.6560 -0.9710 -4.3494
   41CHL1   C21 4192   5.644   4.361   5.709  0.0236 -0.3693  0.0131
   41CHL1  H21A 4193   5.748   4.394   5.691 -0.5108  1.1783 -0.4215
   41CHL1  H21B 4194   5.615   4.296   5.624 -2.0699  1.0227 -0.4218
   41CHL1  H21C 4195   5.634   4.292   5.796  0.4163  1.6007  1.6907
   41CHL1   C22 4196   5.511   4.545   5.581  0.3713 -0.2282 -0.1298
   41CHL1  H22A 4197   5.488   4.463   5.510  2.3312 -1.8102  0.9656
   41CHL1  H22B 4198   5.419   4.604   5.604 -0.6989 -2.4539  1.7904
   41CHL1   C23 4199   5.635   4.624   5.527  0.1754  0.3966 -0.5778
   41CHL1  H23A 4200   5.656   4.708   5.597  2.9491 -1.5839  1.1722
   41CHL1  H23B 4201   5.728   4.564   5.515 -0.5493 -0.2180 -5.0683
   41CHL1   C24 4202   5.609   4.663   5.381  0.0161  0.0944  0.2218
   41CHL1  H24A 4203   5.573   4.572   5.329  0.0852  0.5830 -0.7016
   41CHL1  H24B 4204   5.528   4.739   5.384  0.5596  0.7194 -0.4267
   41CHL1   C25 4205   5.727   4.720   5.299  0.5585  0.8157  0.5742
   41CHL1   H25 4206   5.694   4.729   5.193  1.8462 -0.4162  0.0197
   41CHL1   C26 4207   5.781   4.859   5.348  0.1694  0.0171  0.2617
   41CHL1  H26A 4208   5.864   4.850   5.422  0.8529 -3.4287 -0.7107
   41CHL1  H26B 4209   5.820   4.907   5.256  1.2878  1.8050  1.6103
   41CHL1  H26C 4210   5.696   4.921   5.383 -0.0932  1.3885 -2.5695
   41CHL1   C27 4211   5.843   4.617   5.286  0.2487  0.4762 -0.1886
   41CHL1  H27A 4212   5.813   4.511   5.272 -1.8394  0.7533  1.6393
   41CHL1  H27B 4213   5.922   4.640   5.212  0.0950 -3.7973 -1.9252
   41CHL1  H27C 4214   5.903   4.624   5.380  0.5654 -1.7461 -0.1801
   42CHL1    C3 4215   2.246   0.193   6.686  0.1294 -0.0898 -0.8232
   42CHL1    H3 4216   2.152   0.247   6.664  0.3115  2.4281  3.4343
   42CHL1    O3 4217   2.268   0.213   6.829 -0.4219 -0.5926  0.2655
   42CHL1   H3' 4218   2.331   0.143   6.848 -1.1831 -1.9015 -1.7254
   42CHL1    C4 4219   2.231   0.040   6.655 -0.4202  0.4082 -0.3546
   42CHL1   H4A 4220   2.318  -0.004   6.709 -0.3724 -1.6955 -2.0057
   42CHL1   H4B 4221   2.138   0.011   6.709  0.6062  2.3273  2.6992
   42CHL1    C5 4222   2.234   0.009   6.508 -0.5387 -0.5309 -0.0530
   42CHL1    C6 4223   2.137  -0.053   6.449  1.2817  0.5907  0.8739
   42CHL1    H6 4224   2.051  -0.095   6.503  1.2131 -0.0838  0.2521
   42CHL1    C7 4225   2.132  -0.085   6.307 -0.3203 -0.0757  0.8562
   42CHL1   H7A 4226   2.086  -0.183   6.282  0.0327  0.6695 -3.5372
   42CHL1   H7B 4227   2.056  -0.017   6.262  2.0544  2.4567  0.4214
   42CHL1    C8 4228   2.271  -0.063   6.241 -0.1467 -0.2959  0.3094
   42CHL1    H8 4229   2.333  -0.147   6.275  0.3788  0.1336  0.4197
   42CHL1   C14 4230   2.265  -0.073   6.088  0.6363  0.5101 -0.8183
   42CHL1   H14 4231   2.201   0.007   6.046  1.3193  0.5140 -1.8911
   42CHL1   C15 4232   2.186  -0.190   6.023  0.4584 -0.1052  0.4997
   42CHL1  H15A 4233   2.226  -0.283   6.068 -2.8385 -1.4348  0.9539
   42CHL1  H15B 4234   2.080  -0.185   6.053  0.4254 -0.0882  0.3813
   42CHL1   C16 4235   2.227  -0.181   5.876 -0.0069 -0.1268  0.1429
   42CHL1  H16A 4236   2.251  -0.286   5.847  2.5085 -0.1242  1.9346
   42CHL1  H16B 4237   2.156  -0.147   5.797  0.0806  0.3097  0.2516
   42CHL1   C17 4238   2.354  -0.089   5.869 -0.6358 -0.2859  0.0109
   42CHL1   H17 4239   2.320   0.012   5.837 -0.9029 -0.7985 -1.3713
   42CHL1   C13 4240   2.397  -0.062   6.015 -0.4222 -0.3032 -0.5832
   42CHL1   C18 4241   2.492  -0.173   6.053 -1.0068 -0.2725  0.0404
   42CHL1  H18A 4242   2.592  -0.148   6.010 -2.4627  0.2308 -3.3295
   42CHL1  H18B 4243   2.511  -0.163   6.162  0.8573  0.2010 -0.2852
   42CHL1  H18C 4244   2.448  -0.270   6.023 -2.4583  0.5175 -0.4844
   42CHL1   C12 4245   2.452   0.074   6.041  0.0114  0.2535 -0.1791
   42CHL1  H12A 4246   2.538   0.106   5.977 -0.2998  0.0152 -0.7279
   42CHL1  H12B 4247   2.376   0.148   6.006  0.1454 -0.4904 -2.2033
   42CHL1   C11 4248   2.475   0.092   6.193 -0.8657  0.1277 -0.6334
   42CHL1  H11A 4249   2.558   0.027   6.227 -1.5455 -1.2452 -1.4890
   42CHL1  H11B 4250   2.505   0.197   6.216 -0.0029 -0.5263  1.4878
   42CHL1    C9 4251   2.337   0.070   6.276 -0.5712 -0.2283 -0.3056
   42CHL1    H9 4252   2.278   0.159   6.245 -0.3788 -0.6234 -1.9109
   42CHL1   C10 4253   2.358   0.077   6.434  0.1039  0.9624  0.5496
   42CHL1   C19 4254   2.488   0.007   6.481  0.8173  0.2244  0.0500
   42CHL1  H19A 4255   2.498   0.005   6.591  1.2028  0.0692  0.0148
   42CHL1  H19B 4256   2.496  -0.096   6.440  2.7763  0.6301 -0.6758
   42CHL1  H19C 4257   2.577   0.064   6.447  0.9097  0.1539  0.1749
   42CHL1    C1 4258   2.369   0.225   6.470 -0.3077 -0.5651 -0.5874
   42CHL1   H1A 4259   2.468   0.260   6.432  0.0258  0.8235  1.3974
   42CHL1   H1B 4260   2.288   0.282   6.419 -0.0647  0.5904  0.2780
   42CHL1    C2 4261   2.366   0.253   6.615 -0.0564 -0.0265 -0.1723
   42CHL1   H2A 4262   2.378   0.360   6.643  0.2641 -0.2519  0.5798
   42CHL1   H2B 4263   2.461   0.206   6.649 -0.0930  0.8300  1.1862
   42CHL1   C20 4264   2.457  -0.127   5.756  0.0369  0.2541 -0.2691
   42CHL1   H20 4265   2.493  -0.228   5.786 -1.1543  0.1017  0.7472
   42CHL1   C21 4266   2.578  -0.037   5.755 -0.2134 -0.2496 -0.2805
   42CHL1  H21A 4267   2.645  -0.080   5.833 -1.1143 -1.7399 -0.2868
   42CHL1  H21B 4268   2.563   0.070   5.781  1.1489 -0.3869  1.2428
   42CHL1  H21C 4269   2.629  -0.049   5.657  2.3339 -1.6100  1.1016
   42CHL1   C22 4270   2.380  -0.130   5.621  0.0072  0.4022  0.0663
   42CHL1  H22A 4271   2.301  -0.208   5.628  0.9295 -1.0937 -3.6709
   42CHL1  H22B 4272   2.350  -0.025   5.603  1.3861  1.3047  2.5448
   42CHL1   C23 4273   2.465  -0.183   5.505 -0.4744  0.2086  0.0128
   42CHL1  H23A 4274   2.421  -0.169   5.404 -0.2902 -0.3993 -0.1603
   42CHL1  H23B 4275   2.563  -0.134   5.488  0.5239 -1.7468 -0.1153
   42CHL1   C24 4276   2.504  -0.334   5.535 -0.0825 -0.2734 -0.0106
   42CHL1  H24A 4277   2.561  -0.337   5.630  2.4055 -2.0620 -1.4332
   42CHL1  H24B 4278   2.403  -0.380   5.539 -1.9585  3.3369 -1.7297
   42CHL1   C25 4279   2.582  -0.402   5.419 -0.3603  0.6964 -0.2173
   42CHL1   H25 4280   2.665  -0.340   5.380  0.4327 -1.3038 -1.8435
   42CHL1   C26 4281   2.642  -0.528   5.478  0.1113  0.2884  0.6124
   42CHL1  H26A 4282   2.661  -0.604   5.400 -0.7153  0.8770 -0.1779
   42CHL1  H26B 4283   2.737  -0.518   5.535 -0.5842 -0.5286  1.9852
   42CHL1  H26C 4284   2.562  -0.563   5.547 -1.1897  1.0874 -0.4492
   42CHL1   C27 4285   2.493  -0.435   5.297  0.2206  0.2290  0.8996
   42CHL1  H27A 4286   2.409  -0.499   5.330  0.0954  0.4541  1.0199
   42CHL1  H27B 4287   2.449  -0.341   5.258 -0.9774 -0.3108  0.9159
   42CHL1  H27C 4288   2.550  -0.488   5.218 -2.0181 -0.0357 -0.5982
   43CHL1    C3 4289   1.228   0.350   6.586  0.1648  0.0472 -0.1831
   43CHL1    H3 4290   1.123   0.317   6.570  0.4652 -0.8421 -0.3966
   43CHL1    O3 4291   1.244   0.355   6.728  0.8489 -0.0646  0.2556
   43CHL1   H3' 4292   1.335   0.387   6.734  1.2132 -0.9973 -0.1820
   43CHL1    C4 4293   1.320   0.249   6.522 -0.9620 -1.1271 -0.1832
   43CHL1   H4A 4294   1.420   0.289   6.546 -0.8190 -1.6076  0.0412
   43CHL1   H4B 4295   1.301   0.154   6.577 -2.1045 -0.3032  0.9034
   43CHL1    C5 4296   1.307   0.248   6.372  0.6775 -0.6544  0.0719
   43CHL1    C6 4297   1.280   0.134   6.300 -0.1164 -0.5689 -0.6627
   43CHL1    H6 4298   1.284   0.038   6.354  3.8846 -0.4662 -0.4492
   43CHL1    C7 4299   1.259   0.122   6.156 -0.5244  0.9020  0.0895
   43CHL1   H7A 4300   1.309   0.029   6.121  0.7488  1.7504 -0.4321
   43CHL1   H7B 4301   1.153   0.111   6.127 -0.8463 -0.1065  1.5133
   43CHL1    C8 4302   1.311   0.249   6.081  0.6012  0.3375  1.0932
   43CHL1    H8 4303   1.420   0.232   6.083  0.9833  2.6566  2.7664
   43CHL1   C14 4304   1.257   0.253   5.930 -0.1917 -0.0169 -0.6428
   43CHL1   H14 4305   1.148   0.243   5.947 -0.4158  1.9867 -0.7002
   43CHL1   C15 4306   1.293   0.131   5.844  0.6732  0.3797 -1.0775
   43CHL1  H15A 4307   1.400   0.103   5.857  0.2494 -1.1045 -0.4698
   43CHL1  H15B 4308   1.225   0.045   5.863  0.0852  1.0006 -0.3042
   43CHL1   C16 4309   1.269   0.174   5.693  0.2660  0.7199 -0.1684
   43CHL1  H16A 4310   1.358   0.156   5.629 -0.0352 -1.4070 -0.0596
   43CHL1  H16B 4311   1.182   0.113   5.662 -0.1685  0.3188  1.7033
   43CHL1   C17 4312   1.238   0.323   5.709 -0.0519 -0.3230  0.6915
   43CHL1   H17 4313   1.127   0.334   5.714 -0.2882 -1.9945 -0.2732
   43CHL1   C13 4314   1.298   0.370   5.852 -0.5954 -0.3230  0.7220
   43CHL1   C18 4315   1.452   0.375   5.843  0.0083  0.1412 -0.3016
   43CHL1  H18A 4316   1.489   0.288   5.785  0.5087 -1.1052  1.7927
   43CHL1  H18B 4317   1.485   0.460   5.779 -1.2541  0.4928 -0.5054
   43CHL1  H18C 4318   1.506   0.375   5.940  2.5849  2.4594 -1.5686
   43CHL1   C12 4319   1.237   0.493   5.925 -0.5985 -0.2029 -0.1147
   43CHL1  H12A 4320   1.268   0.588   5.878 -0.8103  0.6063  1.3214
   43CHL1  H12B 4321   1.126   0.495   5.925 -0.5845  0.9716 -0.1026
   43CHL1   C11 4322   1.288   0.513   6.071  1.1067 -0.1205  0.5522
   43CHL1  H11A 4323   1.398   0.521   6.058  1.0230 -0.9756 -0.9826
   43CHL1  H11B 4324   1.231   0.596   6.117  0.4942  0.7980 -1.7395
   43CHL1    C9 4325   1.266   0.378   6.157 -0.0476 -0.4773 -0.3201
   43CHL1    H9 4326   1.155   0.368   6.164 -0.2145  1.8054  1.6354
   43CHL1   C10 4327   1.314   0.390   6.306 -0.0061 -0.3678 -0.4503
   43CHL1   C19 4328   1.464   0.434   6.305  1.2876  0.2005  0.5581
   43CHL1  H19A 4329   1.529   0.360   6.254  1.4093  2.1767 -2.4133
   43CHL1  H19B 4330   1.491   0.531   6.258  0.1180 -0.6950 -2.1633
   43CHL1  H19C 4331   1.491   0.444   6.412 -0.0426  0.4144  0.8902
   43CHL1    C1 4332   1.227   0.495   6.380 -0.0341 -0.0860 -0.2083
   43CHL1   H1A 4333   1.274   0.590   6.349  2.9626 -0.3515  2.8781
   43CHL1   H1B 4334   1.119   0.488   6.353 -0.0284 -0.4126 -0.1538
   43CHL1    C2 4335   1.249   0.490   6.526  0.2721 -0.2035 -0.0094
   43CHL1   H2A 4336   1.186   0.566   6.577  0.8023 -0.1025  0.5018
   43CHL1   H2B 4337   1.355   0.505   6.557  1.5726 -4.2312 -1.8360
   43CHL1   C20 4338   1.267   0.411   5.587 -0.1078  1.1888 -0.6793
   43CHL1   H20 4339   1.376   0.424   5.574  0.5861 -0.8015  2.0795
   43CHL1   C21 4340   1.220   0.559   5.604  1.2115 -0.2280 -0.2938
   43CHL1  H21A 4341   1.235   0.606   5.505 -1.3410  2.2337  0.3829
   43CHL1  H21B 4342   1.274   0.613   5.685  1.6838 -1.1032 -0.0050
   43CHL1  H21C 4343   1.114   0.571   5.634  1.2414 -0.2324 -0.1828
   43CHL1   C22 4344   1.204   0.353   5.458 -0.0493  0.3705  0.6281
   43CHL1  H22A 4345   1.154   0.255   5.476 -0.4083  0.3356 -0.5093
   43CHL1  H22B 4346   1.120   0.413   5.416  0.9708  1.7743  0.5350
   43CHL1   C23 4347   1.310   0.329   5.347  0.6580  0.0786  0.5156
   43CHL1  H23A 4348   1.356   0.429   5.332  0.4227  0.2145  0.6997
   43CHL1  H23B 4349   1.389   0.263   5.390  0.4074 -0.3085  0.3870
   43CHL1   C24 4350   1.257   0.273   5.216 -0.0782 -0.3440 -1.0538
   43CHL1  H24A 4351   1.212   0.175   5.243  0.9666 -0.5095  0.1793
   43CHL1  H24B 4352   1.180   0.341   5.173 -1.0063 -0.4157  0.4201
   43CHL1   C25 4353   1.363   0.247   5.110 -0.5290  0.5496  0.1148
   43CHL1   H25 4354   1.312   0.203   5.021 -2.3468 -0.2248  1.4694
   43CHL1   C26 4355   1.439   0.373   5.068  0.3864  0.0119 -0.3433
   43CHL1  H26A 4356   1.503   0.421   5.145  0.2653 -1.4421  0.7209
   43CHL1  H26B 4357   1.504   0.354   4.980  1.3350 -0.1792  0.3896
   43CHL1  H26C 4358   1.373   0.451   5.023  1.7102  1.2843 -0.1451
   43CHL1   C27 4359   1.469   0.142   5.150 -0.3664 -0.0690 -1.0917
   43CHL1  H27A 4360   1.519   0.190   5.237 -2.0360  1.1545 -0.7549
   43CHL1  H27B 4361   1.429   0.040   5.169 -0.2884 -0.3273 -2.2758
   43CHL1  H27C 4362   1.543   0.133   5.068  0.0738  1.7892 -0.9429
   44CHL1    C3 4363   2.127   1.789   6.575 -0.5023  0.5173 -1.1075
   44CHL1    H3 4364   2.061   1.878   6.581 -1.5425 -0.3289  0.6247
   44CHL1    O3 4365   2.172   1.754   6.709  0.3677 -0.1967 -0.0935
   44CHL1   H3' 4366   2.227   1.676   6.696 -2.0512 -2.1488  0.7119
   44CHL1    C4 4367   2.044   1.668   6.524  0.3540 -0.4759 -0.2341
   44CHL1   H4A 4368   2.099   1.572   6.537  1.4202  0.0739 -0.5748
   44CHL1   H4B 4369   1.958   1.659   6.594  0.2856 -0.7198 -0.3485
   44CHL1    C5 4370   2.008   1.695   6.385  0.4539  0.3579  0.0227
   44CHL1    C6 4371   1.879   1.690   6.348  0.2711  0.2762  0.2563
   44CHL1    H6 4372   1.798   1.669   6.420  0.2410  0.9995  0.4443
   44CHL1    C7 4373   1.844   1.700   6.202  0.9090  0.0726  0.4122
   44CHL1   H7A 4374   1.756   1.636   6.181 -0.1113  2.0814 -1.9482
   44CHL1   H7B 4375   1.822   1.806   6.174  1.0751  0.5402  1.9565
   44CHL1    C8 4376   1.956   1.662   6.102 -1.2134 -0.5881  0.5194
   44CHL1    H8 4377   1.980   1.553   6.104 -1.6002 -0.6595  1.2769
   44CHL1   C14 4378   1.912   1.699   5.964  0.1847  0.6842  0.3332
   44CHL1   H14 4379   1.892   1.808   5.973 -1.5941  0.4397 -0.4056
   44CHL1   C15 4380   1.791   1.626   5.904 -0.1201 -0.5865  0.4927
   44CHL1  H15A 4381   1.782   1.518   5.924 -2.4237 -0.3012  1.2013
   44CHL1  H15B 4382   1.700   1.672   5.948  1.3687  1.8216  1.2684
   44CHL1   C16 4383   1.789   1.658   5.754 -0.3226 -0.5314 -0.5661
   44CHL1  H16A 4384   1.757   1.575   5.689  0.3402 -0.7922 -0.5677
   44CHL1  H16B 4385   1.711   1.737   5.746  1.3482  1.1952 -0.7110
   44CHL1   C17 4386   1.928   1.709   5.722 -0.4361 -0.1639 -0.8058
   44CHL1   H17 4387   1.922   1.819   5.713  2.1894 -0.0936 -2.9184
   44CHL1   C13 4388   2.013   1.678   5.852 -0.7623 -0.3872 -0.4673
   44CHL1   C18 4389   2.049   1.526   5.840 -0.3163  0.6012 -0.0779
   44CHL1  H18A 4390   2.091   1.488   5.936  1.3005  1.4083 -0.4220
   44CHL1  H18B 4391   1.960   1.461   5.831  0.6698 -0.6806 -0.9505
   44CHL1  H18C 4392   2.125   1.504   5.763  0.6458  0.5162  0.8669
   44CHL1   C12 4393   2.143   1.763   5.885 -0.3700 -0.9910  0.9382
   44CHL1  H12A 4394   2.234   1.746   5.822 -2.6439 -0.5168 -2.8081
   44CHL1  H12B 4395   2.119   1.870   5.871  1.3133 -0.9479 -2.7457
   44CHL1   C11 4396   2.193   1.733   6.029  0.1556 -0.4126  0.3913
   44CHL1  H11A 4397   2.227   1.628   6.027 -0.7650 -0.7121 -1.1730
   44CHL1  H11B 4398   2.271   1.811   6.042 -0.5035  0.0796  1.6470
   44CHL1    C9 4399   2.083   1.750   6.142 -0.6516  0.0832  0.5238
   44CHL1    H9 4400   2.048   1.856   6.140 -0.0365  0.2844 -0.9175
   44CHL1   C10 4401   2.138   1.718   6.291  0.2023 -1.4113 -0.4006
   44CHL1   C19 4402   2.229   1.596   6.291  0.1610 -0.3355 -0.1209
   44CHL1  H19A 4403   2.242   1.554   6.393 -2.0108 -2.1066 -0.4919
   44CHL1  H19B 4404   2.166   1.520   6.241 -3.0081  1.0716  1.4425
   44CHL1  H19C 4405   2.323   1.619   6.236 -1.3369  1.0855 -2.2178
   44CHL1    C1 4406   2.216   1.842   6.344 -0.4307 -0.0899 -0.3081
   44CHL1   H1A 4407   2.304   1.862   6.279 -0.6600  2.2201  0.0031
   44CHL1   H1B 4408   2.148   1.929   6.335 -1.1240 -0.2696  2.4399
   44CHL1    C2 4409   2.250   1.814   6.488 -0.4910 -0.1155  0.0012
   44CHL1   H2A 4410   2.309   1.898   6.530 -0.7916  0.5045 -0.8000
   44CHL1   H2B 4411   2.319   1.727   6.499 -1.8900 -1.1424  0.9008
   44CHL1   C20 4412   1.980   1.668   5.579  0.3266  0.0579 -0.4810
   44CHL1   H20 4413   1.976   1.557   5.570 -1.6027  0.1819 -1.7676
   44CHL1   C21 4414   2.124   1.712   5.558  0.2798 -0.2082  0.2320
   44CHL1  H21A 4415   2.186   1.660   5.634  0.6734  0.1721  0.1737
   44CHL1  H21B 4416   2.131   1.821   5.576 -2.0571  0.4931 -2.3497
   44CHL1  H21C 4417   2.169   1.693   5.458  0.3771 -0.4690  0.3246
   44CHL1   C22 4418   1.883   1.730   5.472 -0.4394 -0.3932 -0.0452
   44CHL1  H22A 4419   1.776   1.704   5.488 -0.6034  0.8371  1.0218
   44CHL1  H22B 4420   1.893   1.839   5.490 -2.6564 -0.3352  1.1174
   44CHL1   C23 4421   1.927   1.706   5.332 -0.5137  0.2576  0.0487
   44CHL1  H23A 4422   2.033   1.729   5.307  0.3638 -0.9249  2.3513
   44CHL1  H23B 4423   1.920   1.595   5.321 -4.5829  0.3483  0.1698
   44CHL1   C24 4424   1.840   1.784   5.233 -0.3026  0.2910  1.1930
   44CHL1  H24A 4425   1.847   1.734   5.134 -0.4114  3.3095 -0.4774
   44CHL1  H24B 4426   1.735   1.784   5.268 -0.4205 -1.2226  0.8912
   44CHL1   C25 4427   1.874   1.934   5.232  0.7177  0.2728  0.0280
   44CHL1   H25 4428   1.850   1.979   5.331  0.3750 -1.0247  0.5525
   44CHL1   C26 4429   2.017   1.966   5.215 -0.6223 -0.1564  0.5952
   44CHL1  H26A 4430   2.070   1.945   5.311 -0.9371  2.8540  1.5296
   44CHL1  H26B 4431   2.068   1.911   5.132  0.9254  2.4505 -0.2757
   44CHL1  H26C 4432   2.034   2.071   5.185  1.0097 -0.8434 -1.1134
   44CHL1   C27 4433   1.788   1.998   5.125 -0.2335 -0.1140  0.0096
   44CHL1  H27A 4434   1.679   1.986   5.144 -0.3177  1.0269  0.2959
   44CHL1  H27B 4435   1.799   2.108   5.130 -0.7190 -0.1080  1.7853
   44CHL1  H27C 4436   1.815   1.955   5.026  3.0493  0.1481  0.7037
   45CHL1    C3 4437   1.735   5.534   6.953  0.0282 -0.5256 -0.5813
   45CHL1    H3 4438   1.722   5.643   6.940 -1.7553 -0.0624  3.7323
   45CHL1    O3 4439   1.767   5.510   7.086 -0.3103  0.0495  0.5018
   45CHL1   H3' 4440   1.732   5.422   7.102  0.9114 -1.0695 -2.3392
   45CHL1    C4 4441   1.610   5.452   6.912  0.5950 -0.2187 -0.4153
   45CHL1   H4A 4442   1.614   5.345   6.943 -0.2033 -0.6037 -1.5884
   45CHL1   H4B 4443   1.534   5.497   6.980  2.7641 -0.3609  2.2822
   45CHL1    C5 4444   1.584   5.466   6.765 -0.7916  0.0336 -0.0277
   45CHL1    C6 4445   1.463   5.513   6.730  0.2643 -0.5864 -0.8182
   45CHL1    H6 4446   1.384   5.546   6.800 -0.6094  0.6120 -2.3072
   45CHL1    C7 4447   1.425   5.539   6.587  0.3231  0.2966  0.5229
   45CHL1   H7A 4448   1.322   5.506   6.562  0.8126 -0.8007 -0.1118
   45CHL1   H7B 4449   1.432   5.650   6.585  1.3488  0.2366  0.4466
   45CHL1    C8 4450   1.522   5.488   6.478 -0.4192 -0.2728  0.7032
   45CHL1    H8 4451   1.516   5.377   6.467  0.8848 -0.3848  0.9533
   45CHL1   C14 4452   1.509   5.558   6.347 -0.4926 -0.9095 -0.0079
   45CHL1   H14 4453   1.545   5.662   6.367 -2.3921 -0.0260 -0.8803
   45CHL1   C15 4454   1.361   5.564   6.295 -0.1845 -0.6101  0.0839
   45CHL1  H15A 4455   1.300   5.476   6.322  0.0253 -0.4287  1.1727
   45CHL1  H15B 4456   1.314   5.653   6.342  1.0581 -0.1526  0.5103
   45CHL1   C16 4457   1.373   5.583   6.147 -0.1409  0.7216 -0.0384
   45CHL1  H16A 4458   1.334   5.492   6.095 -1.8451  1.4564 -0.0999
   45CHL1  H16B 4459   1.330   5.679   6.111 -1.1726  1.5023  3.0259
   45CHL1   C17 4460   1.531   5.577   6.110 -0.0283 -0.1493 -1.6121
   45CHL1   H17 4461   1.576   5.679   6.119  0.4235 -0.5352  1.9320
   45CHL1   C13 4462   1.600   5.504   6.235  0.4389  0.2688  0.0053
   45CHL1   C18 4463   1.582   5.351   6.211 -0.4211  0.3478  0.3637
   45CHL1  H18A 4464   1.619   5.287   6.294  3.4228 -0.9552 -2.0653
   45CHL1  H18B 4465   1.477   5.324   6.188 -0.5935  1.9576 -0.9144
   45CHL1  H18C 4466   1.647   5.318   6.126  0.0833  0.6418  0.6292
   45CHL1   C12 4467   1.741   5.534   6.277  0.2447 -0.7281 -0.1175
   45CHL1  H12A 4468   1.819   5.498   6.206 -0.0835 -1.4455 -0.1275
   45CHL1  H12B 4469   1.752   5.644   6.280 -2.0910 -0.4650  1.9848
   45CHL1   C11 4470   1.780   5.492   6.415  0.2168 -0.2445 -0.5053
   45CHL1  H11A 4471   1.803   5.384   6.419 -0.1749 -0.4496 -2.8732
   45CHL1  H11B 4472   1.873   5.538   6.455  0.3698 -2.0426  1.3720
   45CHL1    C9 4473   1.665   5.512   6.523 -0.3496 -0.3654  0.1433
   45CHL1    H9 4474   1.666   5.622   6.536  2.2642 -0.6071  3.0488
   45CHL1   C10 4475   1.700   5.442   6.659  0.2173 -0.6145 -0.3543
   45CHL1   C19 4476   1.714   5.288   6.653 -0.1533  0.2682  0.5478
   45CHL1  H19A 4477   1.723   5.250   6.757  1.5581 -1.6130 -0.2170
   45CHL1  H19B 4478   1.616   5.249   6.619 -0.1300 -0.3071  1.1261
   45CHL1  H19C 4479   1.796   5.247   6.590 -1.5277 -1.6528 -0.0802
   45CHL1    C1 4480   1.828   5.496   6.717 -0.3912  0.7940  0.1162
   45CHL1   H1A 4481   1.911   5.445   6.664 -0.6311  0.8584 -0.3232
   45CHL1   H1B 4482   1.840   5.605   6.697 -1.7711  1.1202  0.9057
   45CHL1    C2 4483   1.849   5.480   6.866 -0.1639  0.5313 -0.8550
   45CHL1   H2A 4484   1.941   5.534   6.895 -0.9369  1.5052 -0.1394
   45CHL1   H2B 4485   1.869   5.377   6.901  0.6889  1.2456  0.8590
   45CHL1   C20 4486   1.555   5.526   5.966  0.0867 -0.6778 -1.2485
   45CHL1   H20 4487   1.549   5.415   5.965 -0.2030 -0.7087  0.6214
   45CHL1   C21 4488   1.698   5.577   5.926 -0.2333 -0.3084 -0.0044
   45CHL1  H21A 4489   1.774   5.558   6.004 -0.0349  0.0966 -0.0941
   45CHL1  H21B 4490   1.699   5.685   5.899  1.2492 -0.0029  1.1234
   45CHL1  H21C 4491   1.721   5.524   5.831  0.8531  2.8761 -1.7000
   45CHL1   C22 4492   1.448   5.582   5.866  0.0878  0.0832 -0.0439
   45CHL1  H22A 4493   1.349   5.548   5.904  1.1418 -1.3963  1.5479
   45CHL1  H22B 4494   1.426   5.691   5.861 -4.0091 -0.6379 -2.9135
   45CHL1   C23 4495   1.466   5.524   5.723 -0.4342  0.0123  0.0762
   45CHL1  H23A 4496   1.560   5.568   5.683  0.0442 -0.7590  0.3476
   45CHL1  H23B 4497   1.484   5.415   5.731 -0.6686 -0.0130  0.2596
   45CHL1   C24 4498   1.344   5.556   5.641  0.4901 -0.7524  0.1813
   45CHL1  H24A 4499   1.248   5.532   5.692 -0.3736  0.4977 -0.7912
   45CHL1  H24B 4500   1.340   5.664   5.617 -3.8230 -0.6341  0.6613
   45CHL1   C25 4501   1.350   5.473   5.516 -0.4583 -0.0657 -0.4508
   45CHL1   H25 4502   1.373   5.366   5.536 -2.0092 -0.3211  0.1366
   45CHL1   C26 4503   1.221   5.490   5.445 -0.0568 -0.8157 -0.2792
   45CHL1  H26A 4504   1.202   5.599   5.429 -1.3570 -0.5295  2.5289
   45CHL1  H26B 4505   1.242   5.450   5.344 -0.8044  1.8283 -1.5874
   45CHL1  H26C 4506   1.139   5.436   5.497  0.4366 -0.0812  1.3422
   45CHL1   C27 4507   1.457   5.522   5.416  0.5227 -0.9102  0.2421
   45CHL1  H27A 4508   1.463   5.460   5.324  0.3101 -1.1388  0.3832
   45CHL1  H27B 4509   1.432   5.627   5.389 -2.7936 -1.5565  0.3640
   45CHL1  H27C 4510   1.559   5.530   5.459 -0.0681  0.2278  1.5184
   46CHL1    C3 4511   4.495   0.839   6.896  0.4148  0.1390  0.1875
   46CHL1    H3 4512   4.411   0.770   6.919 -0.2875  0.9300  0.0474
   46CHL1    O3 4513   4.519   0.919   7.012  0.5721 -0.0211 -0.3426
   46CHL1   H3' 4514   4.580   0.986   6.980 -1.8822  1.8838 -1.3267
   46CHL1    C4 4515   4.625   0.754   6.871  0.4337  0.3130 -0.0660
   46CHL1   H4A 4516   4.704   0.832   6.858 -0.3648  1.1132 -0.2137
   46CHL1   H4B 4517   4.653   0.704   6.966 -1.6620 -0.3369  0.2659
   46CHL1    C5 4518   4.612   0.662   6.751 -0.4197  0.1175 -0.4414
   46CHL1    C6 4519   4.615   0.535   6.756  0.0419 -0.4864  0.2090
   46CHL1    H6 4520   4.651   0.489   6.849  1.3602 -1.3316 -0.6715
   46CHL1    C7 4521   4.600   0.444   6.634  0.8345  0.3304  0.4934
   46CHL1   H7A 4522   4.681   0.369   6.632 -0.7565 -1.4665  0.9472
   46CHL1   H7B 4523   4.505   0.388   6.644  1.3033 -0.4683  0.4952
   46CHL1    C8 4524   4.604   0.518   6.497 -0.4127 -0.4585 -0.2961
   46CHL1    H8 4525   4.710   0.545   6.476 -1.0124  2.5938  0.1918
   46CHL1   C14 4526   4.558   0.432   6.384 -0.8358  0.7338 -0.9122
   46CHL1   H14 4527   4.458   0.400   6.420 -0.2129 -0.6174 -0.3154
   46CHL1   C15 4528   4.635   0.294   6.365  0.1504 -0.0288  0.0383
   46CHL1  H15A 4529   4.743   0.318   6.375  0.3678  0.0230 -2.0543
   46CHL1  H15B 4530   4.608   0.229   6.451 -0.6657  2.1316  1.5205
   46CHL1   C16 4531   4.586   0.262   6.216 -0.9614 -0.7286  0.2290
   46CHL1  H16A 4532   4.680   0.264   6.156 -1.0060 -3.0512 -0.0064
   46CHL1  H16B 4533   4.544   0.160   6.212 -0.2940 -1.1922  2.8893
   46CHL1   C17 4534   4.499   0.382   6.167 -0.7741 -0.0815 -0.0993
   46CHL1   H17 4535   4.399   0.363   6.210 -0.8785 -0.6252 -0.5651
   46CHL1   C13 4536   4.542   0.503   6.248 -0.2779  0.7522  0.4682
   46CHL1   C18 4537   4.671   0.560   6.197 -0.2948  0.2474 -0.1482
   46CHL1  H18A 4538   4.727   0.603   6.283  0.8099 -2.7519  0.7774
   46CHL1  H18B 4539   4.746   0.483   6.165 -2.3813 -1.7817 -0.4077
   46CHL1  H18C 4540   4.644   0.642   6.128 -1.0059 -1.3896 -1.9149
   46CHL1   C12 4541   4.444   0.619   6.267  0.3617  0.0902 -0.4272
   46CHL1  H12A 4542   4.404   0.661   6.172 -2.8353  0.2092  0.8481
   46CHL1  H12B 4543   4.354   0.565   6.307 -0.1948 -1.3481 -3.3421
   46CHL1   C11 4544   4.490   0.717   6.375  0.0594 -0.7205 -0.0795
   46CHL1  H11A 4545   4.583   0.768   6.340  0.5166 -0.9682  0.7370
   46CHL1  H11B 4546   4.408   0.791   6.381  2.7705  2.4271  2.4887
   46CHL1    C9 4547   4.513   0.644   6.509  0.3783  0.1431  0.1708
   46CHL1    H9 4548   4.413   0.602   6.535  0.8569 -2.2297 -1.4973
   46CHL1   C10 4549   4.555   0.734   6.622 -0.7229  0.6098 -0.0266
   46CHL1   C19 4550   4.679   0.819   6.571  0.1732  0.0239 -0.1227
   46CHL1  H19A 4551   4.722   0.870   6.659 -1.3232  2.9553 -0.9466
   46CHL1  H19B 4552   4.751   0.751   6.521  0.8878 -1.6678  3.0042
   46CHL1  H19C 4553   4.636   0.899   6.506 -2.0604  0.6007  1.8904
   46CHL1    C1 4554   4.443   0.838   6.648  0.9763  0.3286  0.9288
   46CHL1   H1A 4555   4.423   0.913   6.568  0.6004  1.7360  2.2936
   46CHL1   H1B 4556   4.352   0.775   6.659  0.9186  0.4972  1.4137
   46CHL1    C2 4557   4.462   0.925   6.774 -0.1577  0.0620 -0.0970
   46CHL1   H2A 4558   4.373   0.982   6.809  0.5740  0.2052  1.6266
   46CHL1   H2B 4559   4.548   0.994   6.758  0.8439 -0.6743  1.8701
   46CHL1   C20 4560   4.482   0.397   6.020  1.4566  0.1303  0.5783
   46CHL1   H20 4561   4.452   0.502   6.000  0.2275 -0.5927 -1.7259
   46CHL1   C21 4562   4.353   0.320   5.982 -0.1099  0.2387  0.2689
   46CHL1  H21A 4563   4.326   0.317   5.874  1.3941 -0.4242 -0.1168
   46CHL1  H21B 4564   4.274   0.371   6.041 -0.5181  0.0351 -0.0908
   46CHL1  H21C 4565   4.358   0.215   6.019 -0.6901 -0.7835 -2.2874
   46CHL1   C22 4566   4.599   0.350   5.926 -0.4521  0.5393 -0.6581
   46CHL1  H22A 4567   4.690   0.410   5.945 -0.4798  0.7107 -1.0563
   46CHL1  H22B 4568   4.607   0.241   5.943 -2.6738  0.4840  0.4341
   46CHL1   C23 4569   4.572   0.385   5.777 -0.5058  0.4327  0.6017
   46CHL1  H23A 4570   4.472   0.348   5.746  0.2412 -1.1258 -0.0681
   46CHL1  H23B 4571   4.560   0.495   5.766  0.9251  0.6295  0.8889
   46CHL1   C24 4572   4.661   0.307   5.671 -0.0823 -0.7402 -0.6475
   46CHL1  H24A 4573   4.771   0.320   5.682  0.2511 -1.7316 -2.3960
   46CHL1  H24B 4574   4.647   0.197   5.674  1.7153 -0.9745  1.1482
   46CHL1   C25 4575   4.623   0.337   5.519 -0.5428  0.0661 -0.2877
   46CHL1   H25 4576   4.636   0.442   5.485  1.6735 -0.2069 -0.4098
   46CHL1   C26 4577   4.740   0.266   5.435  0.1118 -1.5755 -0.2439
   46CHL1  H26A 4578   4.810   0.351   5.442 -0.9996 -0.7564  2.6796
   46CHL1  H26B 4579   4.784   0.181   5.493 -1.8877 -0.9262  2.4300
   46CHL1  H26C 4580   4.698   0.242   5.335 -1.5221  1.1770 -0.3114
   46CHL1   C27 4581   4.484   0.293   5.473 -0.1533 -0.1046 -0.0528
   46CHL1  H27A 4582   4.459   0.190   5.506 -1.6469 -0.4993 -2.2306
   46CHL1  H27B 4583   4.408   0.368   5.504  0.5401  0.1071  1.2344
   46CHL1  H27C 4584   4.474   0.281   5.363 -2.2642 -0.3618  0.1306
   47CHL1    C3 4585   5.599   1.565   6.477 -0.1395 -0.7308 -0.4289
   47CHL1    H3 4586   5.598   1.455   6.464  0.0792 -0.6783 -0.9163
   47CHL1    O3 4587   5.617   1.592   6.619  0.2885 -0.2915  0.1079
   47CHL1   H3' 4588   5.622   1.687   6.630 -0.4234 -0.2466  0.0974
   47CHL1    C4 4589   5.718   1.619   6.398  0.6344 -0.8565 -0.0630
   47CHL1   H4A 4590   5.729   1.726   6.423  0.5736 -1.4793  2.9754
   47CHL1   H4B 4591   5.808   1.566   6.436  1.4055 -0.1294 -0.8321
   47CHL1    C5 4592   5.698   1.603   6.247 -0.0424 -0.0409  0.1849
   47CHL1    C6 4593   5.798   1.544   6.174 -0.1074 -0.8886 -0.0146
   47CHL1    H6 4594   5.877   1.498   6.236 -0.2211 -0.4290  0.4811
   47CHL1    C7 4595   5.787   1.517   6.031 -0.3016 -0.2201  0.5545
   47CHL1   H7A 4596   5.881   1.548   5.981  0.3877 -2.9401 -0.0042
   47CHL1   H7B 4597   5.768   1.410   6.011 -2.3071  0.1460  0.3487
   47CHL1    C8 4598   5.670   1.594   5.962 -0.5154  0.3444 -0.0640
   47CHL1    H8 4599   5.709   1.698   5.961  1.8796 -0.4600  1.2902
   47CHL1   C14 4600   5.645   1.539   5.825 -0.4016  0.1045  0.2061
   47CHL1   H14 4601   5.602   1.437   5.837 -0.5836 -0.0528 -1.5077
   47CHL1   C15 4602   5.771   1.522   5.741 -0.5059 -0.3157 -0.2237
   47CHL1  H15A 4603   5.841   1.606   5.757 -0.2753 -0.1363 -2.0297
   47CHL1  H15B 4604   5.828   1.426   5.745 -0.4462 -0.3619 -1.6904
   47CHL1   C16 4605   5.716   1.540   5.597 -0.3772 -0.1500  0.5687
   47CHL1  H16A 4606   5.767   1.626   5.548 -1.3282  1.5567  2.4066
   47CHL1  H16B 4607   5.747   1.450   5.540 -3.2422 -1.0297  0.2353
   47CHL1   C17 4608   5.560   1.565   5.605  0.8374 -0.3802  0.4591
   47CHL1   H17 4609   5.512   1.465   5.611  0.6657 -0.3278 -0.0195
   47CHL1   C13 4610   5.541   1.622   5.742  0.5203 -0.2933 -0.3594
   47CHL1   C18 4611   5.576   1.772   5.740 -0.2776 -0.5146 -0.0094
   47CHL1  H18A 4612   5.679   1.788   5.702 -0.7400  2.0761 -0.3274
   47CHL1  H18B 4613   5.509   1.832   5.675 -0.1981 -0.2678  0.1382
   47CHL1  H18C 4614   5.576   1.824   5.838 -0.8693 -0.0349 -0.2572
   47CHL1   C12 4615   5.404   1.603   5.819  0.4214  1.1962  0.1345
   47CHL1  H12A 4616   5.324   1.662   5.769 -1.5187 -1.6510 -0.3084
   47CHL1  H12B 4617   5.385   1.494   5.816 -0.6787  1.3856 -0.1229
   47CHL1   C11 4618   5.412   1.644   5.974  0.6861  0.2624 -0.1453
   47CHL1  H11A 4619   5.406   1.754   5.964 -0.7999  0.3075  0.9194
   47CHL1  H11B 4620   5.316   1.613   6.020  0.4470  0.8836 -0.2240
   47CHL1    C9 4621   5.544   1.588   6.043 -0.5555  0.2443  0.5762
   47CHL1    H9 4622   5.525   1.478   6.050 -0.7867 -0.2972 -4.4490
   47CHL1   C10 4623   5.568   1.656   6.180 -0.3515  0.0614 -0.0453
   47CHL1   C19 4624   5.575   1.818   6.170  0.1541 -0.2350 -1.0572
   47CHL1  H19A 4625   5.602   1.861   6.268  0.9028 -0.0777 -1.3296
   47CHL1  H19B 4626   5.662   1.843   6.106 -0.1859 -0.7197 -1.7230
   47CHL1  H19C 4627   5.485   1.861   6.121 -0.0688  0.2220 -0.2561
   47CHL1    C1 4628   5.461   1.608   6.274 -0.1072  0.3274 -0.1840
   47CHL1   H1A 4629   5.362   1.652   6.249 -0.9944 -1.6300 -0.3231
   47CHL1   H1B 4630   5.443   1.499   6.264  0.4040 -0.0484  2.2727
   47CHL1    C2 4631   5.470   1.632   6.422 -0.0456 -0.4199 -0.0034
   47CHL1   H2A 4632   5.381   1.588   6.472 -0.0035  0.3687  0.7943
   47CHL1   H2B 4633   5.470   1.740   6.450  1.1734 -0.2007 -0.7808
   47CHL1   C20 4634   5.506   1.646   5.483 -0.9360 -0.0345  0.6352
   47CHL1   H20 4635   5.529   1.755   5.489  1.2812 -0.3135 -1.5545
   47CHL1   C21 4636   5.355   1.634   5.476 -0.3921  0.5970  0.0179
   47CHL1  H21A 4637   5.307   1.713   5.415 -3.4711 -0.0827  1.3628
   47CHL1  H21B 4638   5.301   1.628   5.573  1.3689 -0.4897  0.9802
   47CHL1  H21C 4639   5.327   1.538   5.427 -2.7198  1.2824 -0.0933
   47CHL1   C22 4640   5.557   1.601   5.338 -0.0529 -0.0285  0.2608
   47CHL1  H22A 4641   5.667   1.599   5.321  0.3010 -0.3690  2.3237
   47CHL1  H22B 4642   5.531   1.494   5.324  1.7251 -0.6746  1.4720
   47CHL1   C23 4643   5.494   1.688   5.230 -0.2612  1.1499  0.0463
   47CHL1  H23A 4644   5.389   1.661   5.209 -0.6150  1.0845  1.7437
   47CHL1  H23B 4645   5.493   1.791   5.272 -1.5185  0.7789  0.9800
   47CHL1   C24 4646   5.572   1.666   5.102  0.4284 -0.1135  0.5028
   47CHL1  H24A 4647   5.680   1.666   5.129  0.8926 -1.2403 -1.1723
   47CHL1  H24B 4648   5.544   1.564   5.069  3.5825 -0.9741  0.2013
   47CHL1   C25 4649   5.541   1.778   4.996 -0.2849  0.8266 -0.4588
   47CHL1   H25 4650   5.532   1.879   5.042 -2.5192  0.9421 -1.0443
   47CHL1   C26 4651   5.656   1.783   4.892 -0.3862  0.4275  0.5839
   47CHL1  H26A 4652   5.653   1.883   4.844  1.1999  0.3820  0.3237
   47CHL1  H26B 4653   5.755   1.768   4.941  0.0349  1.6905  0.1542
   47CHL1  H26C 4654   5.643   1.699   4.821 -0.9055  0.1984  0.9463
   47CHL1   C27 4655   5.418   1.743   4.918  0.8495 -0.4283 -0.4162
   47CHL1  H27A 4656   5.327   1.767   4.977  0.9926 -2.4799  0.7456
   47CHL1  H27B 4657   5.406   1.796   4.821 -1.8106  0.1168  0.1367
   47CHL1  H27C 4658   5.408   1.633   4.903 -0.1043 -0.0373 -3.3844
   48CHL1    C3 4659   1.529   5.899   6.908  0.5345 -0.1652  0.4092
   48CHL1    H3 4660   1.514   5.790   6.894  0.7428 -0.3433  1.5480
   48CHL1    O3 4661   1.525   5.911   7.054 -0.5174  0.0457  0.0887
   48CHL1   H3' 4662   1.598   5.966   7.084  0.2680 -0.0065 -1.5909
   48CHL1    C4 4663   1.665   5.949   6.874 -0.2595  0.4009 -0.3596
   48CHL1   H4A 4664   1.682   6.051   6.913  0.2162  0.8568 -1.6929
   48CHL1   H4B 4665   1.741   5.877   6.911 -0.8624  0.1556  0.4236
   48CHL1    C5 4666   1.677   5.952   6.722 -0.4190  0.8136  0.6720
   48CHL1    C6 4667   1.791   5.907   6.666 -0.3353  0.1131 -0.1915
   48CHL1    H6 4668   1.875   5.875   6.730 -0.9106 -0.2959  0.3789
   48CHL1    C7 4669   1.831   5.904   6.522 -0.7243 -0.0777  0.3622
   48CHL1   H7A 4670   1.931   5.953   6.523  0.2071 -1.9042  0.4020
   48CHL1   H7B 4671   1.836   5.796   6.498  0.6943 -0.2154  1.1339
   48CHL1    C8 4672   1.731   5.981   6.435  0.4997 -0.0156 -0.7035
   48CHL1    H8 4673   1.764   6.086   6.451 -0.3866  0.3055 -0.9206
   48CHL1   C14 4674   1.730   5.948   6.286  0.1428  0.5078 -0.1021
   48CHL1   H14 4675   1.698   5.842   6.272 -2.0899  0.8738  1.6742
   48CHL1   C15 4676   1.867   5.962   6.222 -0.2516 -0.1856  1.3559
   48CHL1  H15A 4677   1.903   6.059   6.263  0.0228 -0.1815  1.1012
   48CHL1  H15B 4678   1.937   5.884   6.257 -0.1890 -0.5741  0.3964
   48CHL1   C16 4679   1.840   5.964   6.065 -0.1460  0.2519  1.3142
   48CHL1  H16A 4680   1.877   6.062   6.027 -3.7495  1.6894  1.1689
   48CHL1  H16B 4681   1.882   5.877   6.010 -1.1284  0.9426 -0.5961
   48CHL1   C17 4682   1.687   5.975   6.054  0.2678  0.0736 -0.4694
   48CHL1   H17 4683   1.646   5.876   6.028 -0.0878  0.5157 -1.6733
   48CHL1   C13 4684   1.634   6.031   6.192  0.3643  0.1048  0.0553
   48CHL1   C18 4685   1.668   6.182   6.211 -0.1732 -0.5449  0.0800
   48CHL1  H18A 4686   1.687   6.197   6.319 -1.8585  0.4200  0.2717
   48CHL1  H18B 4687   1.760   6.221   6.162 -0.5057  1.6660  1.0886
   48CHL1  H18C 4688   1.585   6.242   6.168  1.2464 -0.1308 -2.2596
   48CHL1   C12 4689   1.494   6.001   6.246 -0.8041 -0.5198  0.6241
   48CHL1  H12A 4690   1.420   6.059   6.187 -0.1613 -0.2950  0.0365
   48CHL1  H12B 4691   1.501   5.893   6.221 -0.0947 -0.2535 -0.3790
   48CHL1   C11 4692   1.477   6.035   6.395  0.5173  0.3075 -0.2756
   48CHL1  H11A 4693   1.486   6.145   6.407  1.6934  0.2622 -0.5590
   48CHL1  H11B 4694   1.375   6.004   6.424  0.2377  1.7847  0.3977
   48CHL1    C9 4695   1.584   5.970   6.486  0.3327  0.5685  0.3714
   48CHL1    H9 4696   1.552   5.864   6.477 -1.3030  1.1532 -1.4883
   48CHL1   C10 4697   1.565   6.010   6.631  0.0262  0.4957 -0.2810
   48CHL1   C19 4698   1.572   6.165   6.648  0.0945 -0.0843  0.0857
   48CHL1  H19A 4699   1.586   6.190   6.755 -1.1316  3.6666 -0.4926
   48CHL1  H19B 4700   1.648   6.201   6.576  0.6057 -1.4349 -0.0827
   48CHL1  H19C 4701   1.473   6.208   6.619 -0.1092 -0.1616  0.6556
   48CHL1    C1 4702   1.423   5.962   6.684 -0.2011 -0.0395  0.1184
   48CHL1   H1A 4703   1.352   6.041   6.652  1.5839  1.3826 -0.5668
   48CHL1   H1B 4704   1.393   5.860   6.654 -0.8628 -0.1648  1.1554
   48CHL1    C2 4705   1.412   5.974   6.833  0.3655  0.2228  0.4575
   48CHL1   H2A 4706   1.311   5.940   6.863 -0.1126  0.2060 -1.0509
   48CHL1   H2B 4707   1.431   6.080   6.860  1.5561  0.0681  0.3089
   48CHL1   C20 4708   1.645   6.061   5.936  0.1148 -0.3876 -0.3194
   48CHL1   H20 4709   1.686   6.164   5.940  0.9971 -0.6708 -1.3669
   48CHL1   C21 4710   1.491   6.056   5.912 -0.3617  0.0593  0.3080
   48CHL1  H21A 4711   1.440   6.136   5.969  0.4095  0.0326  1.0478
   48CHL1  H21B 4712   1.469   6.065   5.803 -0.9309  0.9830  0.4873
   48CHL1  H21C 4713   1.456   5.951   5.923 -1.1148  0.2511 -0.1753
   48CHL1   C22 4714   1.702   6.002   5.800 -0.5831 -0.2813  1.3230
   48CHL1  H22A 4715   1.812   5.995   5.811 -0.2771  2.7301  0.8946
   48CHL1  H22B 4716   1.653   5.910   5.761 -0.8178  0.2354  0.3796
   48CHL1   C23 4717   1.696   6.128   5.698  0.3757 -0.0499 -0.4648
   48CHL1  H23A 4718   1.592   6.164   5.683  0.6683  0.1869 -2.0516
   48CHL1  H23B 4719   1.761   6.207   5.741  1.6387 -2.4805  2.5443
   48CHL1   C24 4720   1.753   6.090   5.564 -0.2241  0.6858 -0.1506
   48CHL1  H24A 4721   1.861   6.067   5.579 -0.2351  0.7777  0.0719
   48CHL1  H24B 4722   1.701   5.998   5.530  1.4573 -0.2717 -0.2315
   48CHL1   C25 4723   1.731   6.201   5.461  0.2403  0.2602  0.2942
   48CHL1   H25 4724   1.785   6.165   5.370  0.8626 -1.9413  1.4413
   48CHL1   C26 4725   1.588   6.200   5.420 -0.3152 -0.0805 -0.2776
   48CHL1  H26A 4726   1.521   6.251   5.492 -1.5466 -2.1136  0.1179
   48CHL1  H26B 4727   1.576   6.254   5.324 -0.0890 -2.6252 -1.8463
   48CHL1  H26C 4728   1.541   6.099   5.412 -0.4796 -0.2940  2.4694
   48CHL1   C27 4729   1.791   6.336   5.501  0.1537  0.1351  0.7143
   48CHL1  H27A 4730   1.893   6.328   5.545  1.0289 -2.3443 -1.5044
   48CHL1  H27B 4731   1.788   6.395   5.407 -1.3913  2.2100  1.9879
   48CHL1  H27C 4732   1.721   6.387   5.570 -1.7008 -1.2073 -0.1039
   49CHL1    C3 4733   2.119   1.843   3.205  0.6357  0.1898 -0.1746
   49CHL1    H3 4734   2.080   1.741   3.229  1.0255  0.3766  1.3104
   49CHL1    O3 4735   2.166   1.845   3.070 -0.3690  0.1095 -0.0461
   49CHL1   H3' 4736   2.261   1.839   3.073 -0.3211  0.8073 -0.0022
   49CHL1    C4 4737   2.002   1.946   3.203  0.1404 -0.9771 -0.0551
   49CHL1   H4A 4738   2.040   2.040   3.158  0.5359 -0.6761  0.8973
   49CHL1   H4B 4739   1.921   1.909   3.135 -0.3598  2.3986 -1.4672
   49CHL1    C5 4740   1.948   1.978   3.345 -0.1472 -0.4151 -0.2987
   49CHL1    C6 4741   1.812   1.959   3.356  0.3204  1.3099 -0.6526
   49CHL1    H6 4742   1.744   1.915   3.281  0.5496 -3.2701  1.4429
   49CHL1    C7 4743   1.745   1.973   3.492  0.1372 -0.5868  0.3532
   49CHL1   H7A 4744   1.659   2.042   3.492  2.3658  2.4003  0.8654
   49CHL1   H7B 4745   1.717   1.873   3.530  0.7971 -0.5201  1.0393
   49CHL1    C8 4746   1.831   2.054   3.594 -0.0891  0.4288 -0.1481
   49CHL1    H8 4747   1.820   2.162   3.572 -0.3275 -0.0902 -2.9912
   49CHL1   C14 4748   1.778   2.031   3.737 -1.0736 -0.2412  0.0255
   49CHL1   H14 4749   1.798   1.927   3.767 -1.4161 -0.7145 -1.3088
   49CHL1   C15 4750   1.628   2.049   3.768  0.4216  0.5349  0.0314
   49CHL1  H15A 4751   1.596   2.150   3.734 -1.0323  0.5801  1.4028
   49CHL1  H15B 4752   1.562   1.969   3.728  2.7687 -1.6252  0.2408
   49CHL1   C16 4753   1.622   2.040   3.927  0.0749  0.3221  0.6248
   49CHL1  H16A 4754   1.556   2.121   3.962  1.4057  2.1739 -0.9301
   49CHL1  H16B 4755   1.594   1.937   3.958  2.4383 -0.2873  0.9448
   49CHL1   C17 4756   1.771   2.065   3.968 -0.4142 -0.2049  0.1054
   49CHL1   H17 4757   1.808   1.960   3.976  0.9962  0.0085 -2.5940
   49CHL1   C13 4758   1.848   2.110   3.849  0.6818 -0.1518  0.2776
   49CHL1   C18 4759   1.816   2.265   3.840 -0.4914  0.5465  0.0942
   49CHL1  H18A 4760   1.706   2.279   3.845 -0.6006 -0.5994  1.1449
   49CHL1  H18B 4761   1.864   2.308   3.931  0.4790 -1.1506  0.4224
   49CHL1  H18C 4762   1.868   2.305   3.750  1.0624  1.3505  1.3079
   49CHL1   C12 4763   1.998   2.086   3.848 -0.3281  0.0145  0.3661
   49CHL1  H12A 4764   2.065   2.141   3.917  0.5713 -0.7707  0.1274
   49CHL1  H12B 4765   2.021   1.978   3.863 -1.6351 -0.5739 -1.4276
   49CHL1   C11 4766   2.061   2.111   3.705 -0.1782  0.7221 -0.1811
   49CHL1  H11A 4767   2.047   2.218   3.680  1.0202  1.1165  0.7532
   49CHL1  H11B 4768   2.171   2.101   3.700 -0.1185  1.0741  0.3868
   49CHL1    C9 4769   1.984   2.023   3.601  0.0249 -0.0639 -0.4043
   49CHL1    H9 4770   1.988   1.918   3.639  0.9204  0.6648  1.6635
   49CHL1   C10 4771   2.053   2.007   3.461  0.2513  0.0707  0.2872
   49CHL1   C19 4772   2.107   2.143   3.428 -0.2983  0.1785 -0.3330
   49CHL1  H19A 4773   2.132   2.150   3.320 -1.0767 -0.1729 -0.5415
   49CHL1  H19B 4774   2.038   2.221   3.464 -0.0696 -0.2654  1.1452
   49CHL1  H19C 4775   2.209   2.148   3.473  1.1235  1.0430 -3.4236
   49CHL1    C1 4776   2.167   1.905   3.452  0.1008  0.3597  0.4783
   49CHL1   H1A 4777   2.252   1.931   3.518 -1.0114 -2.7664  3.3780
   49CHL1   H1B 4778   2.124   1.809   3.487  0.3133 -0.2178 -0.7682
   49CHL1    C2 4779   2.228   1.871   3.306 -0.6634 -0.3577 -0.4577
   49CHL1   H2A 4780   2.299   1.787   3.321  0.4527  0.6563  0.1470
   49CHL1   H2B 4781   2.293   1.956   3.275  1.6445 -2.1651 -0.8492
   49CHL1   C20 4782   1.791   2.129   4.106 -0.1391  0.9341 -0.6774
   49CHL1   H20 4783   1.746   2.230   4.112  0.5426  1.2924 -1.4050
   49CHL1   C21 4784   1.938   2.131   4.146 -0.1276  0.0816  0.4854
   49CHL1  H21A 4785   1.993   2.206   4.085  0.4176 -1.1926 -0.6534
   49CHL1  H21B 4786   1.992   2.033   4.138  0.2206  0.2889  0.2546
   49CHL1  H21C 4787   1.954   2.169   4.249  1.1117 -0.8142  0.6536
   49CHL1   C22 4788   1.715   2.053   4.222  0.1624 -0.1262 -0.9647
   49CHL1  H22A 4789   1.611   2.041   4.186 -0.1607 -0.3792  0.0290
   49CHL1  H22B 4790   1.759   1.951   4.229  0.1082 -0.0796  0.3634
   49CHL1   C23 4791   1.717   2.132   4.354  0.6715 -0.2055  0.0768
   49CHL1  H23A 4792   1.819   2.137   4.399  0.0878  0.3962  1.3727
   49CHL1  H23B 4793   1.692   2.237   4.331 -0.0074 -0.7623 -1.9249
   49CHL1   C24 4794   1.625   2.074   4.462  0.0533  0.5419  0.3702
   49CHL1  H24A 4795   1.519   2.079   4.429 -0.3585 -1.4375  1.2092
   49CHL1  H24B 4796   1.659   1.969   4.469 -1.5150  0.0741  1.7083
   49CHL1   C25 4797   1.636   2.129   4.602  0.1490  0.6923  0.0451
   49CHL1   H25 4798   1.581   2.066   4.677  0.6201 -0.8000 -0.8206
   49CHL1   C26 4799   1.784   2.128   4.647  0.3372 -0.2708 -0.1979
   49CHL1  H26A 4800   1.805   2.165   4.750  0.6872  3.0931 -1.3802
   49CHL1  H26B 4801   1.837   2.030   4.638  1.4154  0.0697  1.8363
   49CHL1  H26C 4802   1.826   2.210   4.585 -0.5812 -0.6182 -1.2971
   49CHL1   C27 4803   1.582   2.268   4.602  1.1707 -0.1332  0.1592
   49CHL1  H27A 4804   1.474   2.265   4.578  1.2817 -1.4654 -0.2196
   49CHL1  H27B 4805   1.592   2.310   4.705  1.7599 -1.8681  0.8436
   49CHL1  H27C 4806   1.642   2.325   4.527 -1.0807  1.9781 -0.1811
   50CHL1    C3 4807   3.630   3.858   3.371  0.1569  0.2271 -0.7502
   50CHL1    H3 4808   3.739   3.871   3.391  0.7382 -0.9862 -2.8209
   50CHL1    O3 4809   3.619   3.794   3.247  0.0174  0.2328 -0.4411
   50CHL1   H3' 4810   3.596   3.861   3.181  0.3051  1.3926  0.6011
   50CHL1    C4 4811   3.575   3.755   3.478  0.0853 -0.5188 -0.2353
   50CHL1   H4A 4812   3.472   3.730   3.445  0.5992 -2.4040 -0.5058
   50CHL1   H4B 4813   3.632   3.660   3.473  0.3931 -0.3737  0.5422
   50CHL1    C5 4814   3.567   3.813   3.616 -0.5497  0.1804 -0.4826
   50CHL1    C6 4815   3.643   3.760   3.715 -0.1457 -0.4054  0.2671
   50CHL1    H6 4816   3.701   3.669   3.691 -0.1766 -0.1394 -0.8603
   50CHL1    C7 4817   3.658   3.817   3.852  0.1704  0.1057 -0.5873
   50CHL1   H7A 4818   3.654   3.737   3.928 -2.1264 -0.6828 -1.4283
   50CHL1   H7B 4819   3.757   3.866   3.845 -0.4367  1.3561 -0.8085
   50CHL1    C8 4820   3.538   3.911   3.879 -0.3403 -0.8914  0.5219
   50CHL1    H8 4821   3.451   3.843   3.884  0.4049 -2.0116 -0.9570
   50CHL1   C14 4822   3.559   3.995   4.007  0.6888  0.1291  0.1458
   50CHL1   H14 4823   3.645   4.062   3.987 -0.0277  0.8820 -0.4980
   50CHL1   C15 4824   3.587   3.925   4.136  0.1007 -0.1330  0.2151
   50CHL1  H15A 4825   3.523   3.834   4.145 -0.9725  0.6370  0.5818
   50CHL1  H15B 4826   3.694   3.897   4.134  0.0999 -0.2898  1.6779
   50CHL1   C16 4827   3.546   4.018   4.249  0.0322  0.3582  0.6930
   50CHL1  H16A 4828   3.478   3.961   4.317  3.3425 -0.5900  3.5070
   50CHL1  H16B 4829   3.639   4.047   4.303  0.5753 -0.3030  0.1307
   50CHL1   C17 4830   3.484   4.149   4.181 -0.1817  0.4391 -0.4515
   50CHL1   H17 4831   3.567   4.222   4.171  0.8071 -0.8217 -1.9367
   50CHL1   C13 4832   3.450   4.093   4.041  0.1880  0.0040 -0.2216
   50CHL1   C18 4833   3.313   4.020   4.045 -0.1749 -0.6808 -0.0348
   50CHL1  H18A 4834   3.320   3.955   4.135  3.8740  0.3340  0.5753
   50CHL1  H18B 4835   3.228   4.091   4.055  0.6569  0.2271  0.8031
   50CHL1  H18C 4836   3.298   3.949   3.961  0.7090 -1.2182  0.2426
   50CHL1   C12 4837   3.456   4.203   3.933  0.6203  0.1187 -0.2022
   50CHL1  H12A 4838   3.378   4.279   3.955  1.4112  0.5457  1.2890
   50CHL1  H12B 4839   3.556   4.250   3.931  0.9373 -0.5637 -2.3493
   50CHL1   C11 4840   3.431   4.138   3.803 -0.7473  0.3228 -0.0303
   50CHL1  H11A 4841   3.321   4.123   3.795 -0.7442 -0.5273  1.2781
   50CHL1  H11B 4842   3.451   4.211   3.721  2.8410  0.1928  0.5454
   50CHL1    C9 4843   3.515   4.010   3.768 -0.6771 -0.2747 -0.1098
   50CHL1    H9 4844   3.619   4.047   3.758 -1.3208  1.0800 -2.4593
   50CHL1   C10 4845   3.496   3.954   3.622  0.0926 -0.0085 -0.0483
   50CHL1   C19 4846   3.344   3.928   3.616  0.1046 -0.0975  0.0347
   50CHL1  H19A 4847   3.291   4.024   3.603 -0.6926 -0.3640  1.1100
   50CHL1  H19B 4848   3.324   3.870   3.523  0.3210  0.9519 -0.6744
   50CHL1  H19C 4849   3.310   3.867   3.703  0.4436 -2.7456 -1.5704
   50CHL1    C1 4850   3.547   4.054   3.508 -0.2942 -0.2596 -0.0553
   50CHL1   H1A 4851   3.472   4.134   3.495  0.4945  0.7412  1.3061
   50CHL1   H1B 4852   3.649   4.095   3.528 -1.3495  1.5999  1.8741
   50CHL1    C2 4853   3.560   3.992   3.364 -0.1789  0.3288 -0.7724
   50CHL1   H2A 4854   3.610   4.056   3.288 -0.2768 -0.1444 -1.2424
   50CHL1   H2B 4855   3.458   3.982   3.321 -0.1616 -0.0341 -0.7338
   50CHL1   C20 4856   3.371   4.198   4.273  0.2180  0.5932 -0.2119
   50CHL1   H20 4857   3.287   4.125   4.271 -0.2609  1.0585  1.5634
   50CHL1   C21 4858   3.329   4.335   4.218 -0.2319 -0.2904 -0.0474
   50CHL1  H21A 4859   3.409   4.412   4.210  0.2662 -0.2405  3.5980
   50CHL1  H21B 4860   3.255   4.388   4.282  1.4762  2.7830 -0.3944
   50CHL1  H21C 4861   3.279   4.337   4.119  0.9176  1.7962 -0.6518
   50CHL1   C22 4862   3.422   4.219   4.414  0.2141 -0.0994 -0.4869
   50CHL1  H22A 4863   3.450   4.124   4.465 -0.1555  0.6552  1.1800
   50CHL1  H22B 4864   3.513   4.282   4.412 -0.9307  1.7240  1.3571
   50CHL1   C23 4865   3.324   4.269   4.524 -0.1129  0.0418  0.3528
   50CHL1  H23A 4866   3.289   4.373   4.507 -0.3145 -0.1286 -0.2753
   50CHL1  H23B 4867   3.236   4.201   4.530 -1.6848  1.7737 -1.4142
   50CHL1   C24 4868   3.390   4.272   4.666  0.4088  0.5911 -0.1857
   50CHL1  H24A 4869   3.399   4.168   4.705  2.3129  1.4295  1.8317
   50CHL1  H24B 4870   3.496   4.301   4.651  0.9262 -1.0082  0.0871
   50CHL1   C25 4871   3.331   4.360   4.775  0.0370 -0.0985 -0.2584
   50CHL1   H25 4872   3.326   4.465   4.740 -1.4922 -0.4140 -1.0610
   50CHL1   C26 4873   3.189   4.311   4.814  0.0143 -0.2232 -0.1842
   50CHL1  H26A 4874   3.188   4.200   4.814 -0.4929 -0.4079  4.2589
   50CHL1  H26B 4875   3.154   4.340   4.916 -0.2796  5.1371 -1.5436
   50CHL1  H26C 4876   3.121   4.348   4.735  0.7193  0.6413 -0.3991
   50CHL1   C27 4877   3.425   4.371   4.903  0.5008 -0.0136 -0.0441
   50CHL1  H27A 4878   3.378   4.446   4.970 -2.1541  0.7664 -2.5847
   50CHL1  H27B 4879   3.431   4.272   4.953  0.1316 -0.7761 -1.4473
   50CHL1  H27C 4880   3.524   4.417   4.879 -0.7345  2.5385 -0.5650
   51CHL1    C3 4881   4.680   1.260   3.356  0.2163 -0.6036 -1.0795
   51CHL1    H3 4882   4.597   1.313   3.408  1.2615 -0.3249  0.3693
   51CHL1    O3 4883   4.651   1.263   3.218 -0.3215 -0.7080 -0.3043
   51CHL1   H3' 4884   4.581   1.199   3.206 -1.0652  0.0418 -0.0304
   51CHL1    C4 4885   4.819   1.323   3.374 -0.3243 -0.0795 -1.5477
   51CHL1   H4A 4886   4.895   1.274   3.310  2.6601  1.1425  0.7932
   51CHL1   H4B 4887   4.809   1.430   3.346  2.2491  1.2796  1.9216
   51CHL1    C5 4888   4.875   1.311   3.515 -0.0632 -0.1115 -0.8097
   51CHL1    C6 4889   4.914   1.415   3.592 -0.7023 -0.0814  0.4281
   51CHL1    H6 4890   4.925   1.517   3.552  3.5800 -0.2773  0.6404
   51CHL1    C7 4891   4.960   1.390   3.731  0.0225  0.2793  0.3382
   51CHL1   H7A 4892   5.049   1.451   3.757 -0.3039  0.3913  1.2425
   51CHL1   H7B 4893   4.876   1.422   3.797 -0.8294 -0.1590 -0.5106
   51CHL1    C8 4894   4.998   1.249   3.781  0.4220 -0.0543  0.1142
   51CHL1    H8 4895   5.092   1.217   3.733  0.4242  0.0913  0.0214
   51CHL1   C14 4896   5.008   1.241   3.928 -0.6358  0.4448 -0.1057
   51CHL1   H14 4897   4.907   1.270   3.966 -0.0345  1.7826  0.5446
   51CHL1   C15 4898   5.105   1.337   4.005 -0.2335 -0.2209 -0.0581
   51CHL1  H15A 4899   5.203   1.352   3.955  0.9498  0.1575  2.2786
   51CHL1  H15B 4900   5.063   1.439   4.020 -0.4923 -0.0394 -1.7956
   51CHL1   C16 4901   5.133   1.268   4.143 -0.2512 -0.4681 -0.5604
   51CHL1  H16A 4902   5.242   1.251   4.158  0.2277  0.6331 -2.4084
   51CHL1  H16B 4903   5.085   1.327   4.223 -1.3698 -0.0558 -1.5024
   51CHL1   C17 4904   5.041   1.144   4.148  0.4718  0.2109  0.7795
   51CHL1   H17 4905   4.939   1.177   4.178 -0.2064 -0.8201 -0.3250
   51CHL1   C13 4906   5.023   1.097   3.994  0.1120  0.1012 -0.5655
   51CHL1   C18 4907   5.153   1.032   3.938 -0.0012 -0.0965 -0.1933
   51CHL1  H18A 4908   5.150   0.933   3.989 -0.2747 -1.3504 -2.5123
   51CHL1  H18B 4909   5.151   1.014   3.828  4.0162 -1.1094 -0.2446
   51CHL1  H18C 4910   5.245   1.093   3.954  1.5227 -2.3485  0.0015
   51CHL1   C12 4911   4.897   1.021   3.949 -0.6284 -0.2900 -0.6609
   51CHL1  H12A 4912   4.894   0.913   3.976  3.4320 -0.9881 -2.4083
   51CHL1  H12B 4913   4.814   1.070   4.006  1.0126  0.3187  1.3441
   51CHL1   C11 4914   4.886   1.014   3.798 -0.7247 -0.1440  0.0105
   51CHL1  H11A 4915   4.961   0.948   3.750  0.2554 -0.6373  2.1172
   51CHL1  H11B 4916   4.792   0.956   3.784 -0.5901 -0.5992  0.8997
   51CHL1    C9 4917   4.885   1.152   3.731 -0.1756 -0.9465  0.4858
   51CHL1    H9 4918   4.796   1.206   3.773  0.4634  0.0074  0.6501
   51CHL1   C10 4919   4.867   1.163   3.579 -0.1050 -1.0991 -0.1123
   51CHL1   C19 4920   4.983   1.075   3.513 -0.3791  0.1910 -0.5166
   51CHL1  H19A 4921   4.974   1.088   3.403  1.3220 -1.6416 -0.9297
   51CHL1  H19B 4922   5.083   1.116   3.542 -0.8442  1.2215 -0.3261
   51CHL1  H19C 4923   4.977   0.967   3.541  3.0732 -0.6220 -2.3305
   51CHL1    C1 4924   4.725   1.112   3.549  0.1031 -0.2859 -0.2391
   51CHL1   H1A 4925   4.712   1.011   3.592 -0.4382  0.3814  1.2592
   51CHL1   H1B 4926   4.648   1.164   3.610  0.3921 -2.0423  1.7183
   51CHL1    C2 4927   4.686   1.114   3.405  0.4595 -0.1205 -0.6268
   51CHL1   H2A 4928   4.586   1.067   3.392  0.1579  0.3759 -0.1435
   51CHL1   H2B 4929   4.759   1.057   3.344 -0.4216 -0.8113 -1.0607
   51CHL1   C20 4930   5.074   1.036   4.250 -0.1046 -0.0146  0.1258
   51CHL1   H20 4931   5.175   1.002   4.219 -0.2694  1.2284 -1.9068
   51CHL1   C21 4932   4.969   0.927   4.230  0.5040 -0.1603 -0.0918
   51CHL1  H21A 4933   4.981   0.848   4.307 -1.9098 -1.5242 -1.0134
   51CHL1  H21B 4934   4.993   0.879   4.132  2.2601 -0.3310  0.3777
   51CHL1  H21C 4935   4.866   0.966   4.236 -0.0827 -1.2087 -2.2550
   51CHL1   C22 4936   5.093   1.087   4.397 -0.3459  0.5729  0.4341
   51CHL1  H22A 4937   5.181   1.153   4.384 -1.2723  1.9863  1.0502
   51CHL1  H22B 4938   5.012   1.161   4.416  0.7367  1.6106  1.1615
   51CHL1   C23 4939   5.105   0.979   4.511 -0.2515  0.2073 -0.5943
   51CHL1  H23A 4940   5.001   0.944   4.529 -0.6336  0.5168 -2.0429
   51CHL1  H23B 4941   5.164   0.893   4.474  0.4811  0.0764  0.8056
   51CHL1   C24 4942   5.168   1.035   4.642  0.1623 -0.2027  0.0019
   51CHL1  H24A 4943   5.257   1.090   4.606  1.3905 -0.1153  2.9146
   51CHL1  H24B 4944   5.101   1.108   4.694  0.1330 -0.4688  0.3396
   51CHL1   C25 4945   5.209   0.927   4.743  0.0070  0.3282 -0.0276
   51CHL1   H25 4946   5.263   0.857   4.676  0.2084  1.4473 -1.0524
   51CHL1   C26 4947   5.286   0.971   4.867  0.4003 -0.1286 -0.2049
   51CHL1  H26A 4948   5.222   1.028   4.939 -0.4300 -1.2923  0.0046
   51CHL1  H26B 4949   5.337   0.885   4.915 -0.5817 -1.0690 -0.8113
   51CHL1  H26C 4950   5.362   1.046   4.836 -0.5546  0.2385 -1.8427
   51CHL1   C27 4951   5.080   0.848   4.780  0.3241 -0.0380  0.6385
   51CHL1  H27A 4952   5.012   0.913   4.839  0.0787 -0.3447  0.6970
   51CHL1  H27B 4953   5.021   0.809   4.694 -0.4732  0.6684  0.8549
   51CHL1  H27C 4954   5.110   0.768   4.852 -2.6464  0.3458  2.5016
   52CHL1    C3 4955   0.313   6.391   3.547 -0.1677 -0.0457 -0.5685
   52CHL1    H3 4956   0.398   6.461   3.533 -0.5788  0.2118 -1.8770
   52CHL1    O3 4957   0.295   6.345   3.413 -0.4608 -0.1589 -0.0436
   52CHL1   H3' 4958   0.376   6.295   3.399 -0.0001  0.9166 -1.3753
   52CHL1    C4 4959   0.372   6.275   3.634  0.0463 -0.0828  0.0109
   52CHL1   H4A 4960   0.296   6.194   3.631 -2.9805  2.5025  1.2214
   52CHL1   H4B 4961   0.471   6.249   3.591  0.1335 -1.3046  0.8807
   52CHL1    C5 4962   0.388   6.316   3.780  0.5184 -0.0902  0.9526
   52CHL1    C6 4963   0.502   6.292   3.842  0.4086  0.0601 -0.1744
   52CHL1    H6 4964   0.588   6.243   3.794  0.1015 -0.8563  0.1926
   52CHL1    C7 4965   0.513   6.305   3.993  0.3503  0.0056 -0.2839
   52CHL1   H7A 4966   0.580   6.230   4.041  3.1943  2.1984 -0.5675
   52CHL1   H7B 4967   0.565   6.403   4.005  0.9424  0.6006 -5.4639
   52CHL1    C8 4968   0.371   6.318   4.060 -0.2100  0.7843 -0.2948
   52CHL1    H8 4969   0.330   6.215   4.070  0.5931  0.4135 -0.7530
   52CHL1   C14 4970   0.389   6.372   4.203  0.6339  0.3667 -0.0857
   52CHL1   H14 4971   0.436   6.471   4.185  2.5335 -0.4476  0.1771
   52CHL1   C15 4972   0.480   6.297   4.294  0.3787  0.1932 -0.9409
   52CHL1  H15A 4973   0.451   6.190   4.305 -1.1379  0.5694 -1.0112
   52CHL1  H15B 4974   0.588   6.309   4.269  0.2607 -1.5621 -2.5203
   52CHL1   C16 4975   0.453   6.357   4.433  0.1594  0.1664 -0.7956
   52CHL1  H16A 4976   0.421   6.272   4.498 -3.7141 -0.3544 -3.0702
   52CHL1  H16B 4977   0.543   6.408   4.473 -0.7704  0.4581  1.0671
   52CHL1   C17 4978   0.328   6.450   4.418 -0.2552 -0.1696 -0.4733
   52CHL1   H17 4979   0.363   6.554   4.398 -0.0731  0.1227  1.2321
   52CHL1   C13 4980   0.263   6.406   4.283 -0.5700 -0.0098 -0.6134
   52CHL1   C18 4981   0.177   6.280   4.309  0.0103 -0.3183 -0.3889
   52CHL1  H18A 4982   0.236   6.218   4.380 -1.0401  0.2681  1.0597
   52CHL1  H18B 4983   0.074   6.304   4.343 -0.1577  1.3628 -1.8843
   52CHL1  H18C 4984   0.162   6.226   4.213  0.1698 -0.9617 -0.0575
   52CHL1   C12 4985   0.178   6.509   4.210  0.4067  0.0222 -0.5113
   52CHL1  H12A 4986   0.077   6.511   4.254 -0.0547  0.2168 -1.5436
   52CHL1  H12B 4987   0.225   6.610   4.219 -1.6057  0.8276  2.2996
   52CHL1   C11 4988   0.159   6.461   4.066  0.0271 -0.0465 -0.1588
   52CHL1  H11A 4989   0.084   6.379   4.063 -0.2843  0.2311 -0.0379
   52CHL1  H11B 4990   0.114   6.550   4.017  0.4303  0.5080  0.4503
   52CHL1    C9 4991   0.279   6.414   3.990 -0.3096 -0.2627  0.0756
   52CHL1    H9 4992   0.337   6.508   3.983  0.9928 -1.0852 -0.4890
   52CHL1   C10 4993   0.256   6.369   3.841  0.4184 -0.4358  0.4237
   52CHL1   C19 4994   0.164   6.247   3.843  0.1977  0.0008 -0.6733
   52CHL1  H19A 4995   0.193   6.166   3.913  2.5702  1.2895 -0.0338
   52CHL1  H19B 4996   0.060   6.282   3.864 -0.7102 -2.2055 -1.2482
   52CHL1  H19C 4997   0.151   6.196   3.745 -0.0219 -1.8556  0.2798
   52CHL1    C1 4998   0.206   6.485   3.754  0.2287 -0.1692  0.5433
   52CHL1   H1A 4999   0.108   6.532   3.778 -0.1524 -0.1267 -0.9963
   52CHL1   H1B 5000   0.278   6.568   3.748 -1.0000  0.9639  0.9825
   52CHL1    C2 5001   0.184   6.454   3.601  0.4353 -0.0681 -0.8488
   52CHL1   H2A 5002   0.161   6.546   3.543  0.3643 -0.5379 -1.5704
   52CHL1   H2B 5003   0.100   6.381   3.590  0.8815 -0.9456  1.1395
   52CHL1   C20 5004   0.237   6.453   4.541  0.2569 -0.0455  0.0202
   52CHL1   H20 5005   0.180   6.358   4.543 -0.0672  0.1496  0.1045
   52CHL1   C21 5006   0.132   6.567   4.521 -0.3065  0.4851  0.0335
   52CHL1  H21A 5007   0.183   6.646   4.462  1.4002 -1.8210 -1.7963
   52CHL1  H21B 5008   0.090   6.597   4.619 -1.2210  0.6944 -0.4070
   52CHL1  H21C 5009   0.045   6.532   4.461 -2.1934  1.6281  1.9523
   52CHL1   C22 5010   0.307   6.468   4.682  0.1825 -0.0859  0.2049
   52CHL1  H22A 5011   0.230   6.476   4.761  0.7275 -0.5409  0.7878
   52CHL1  H22B 5012   0.369   6.379   4.706  1.4655  0.4476 -0.9473
   52CHL1   C23 5013   0.395   6.592   4.690 -0.7989 -1.0435 -0.2447
   52CHL1  H23A 5014   0.451   6.583   4.594  0.2799 -2.4116  0.4672
   52CHL1  H23B 5015   0.342   6.688   4.677  0.4360 -0.2407  0.5280
   52CHL1   C24 5016   0.482   6.604   4.813  0.5106 -1.4251 -0.2530
   52CHL1  H24A 5017   0.406   6.613   4.894  2.5573  3.4180  1.4936
   52CHL1  H24B 5018   0.546   6.513   4.820  1.3105 -0.8657 -0.1458
   52CHL1   C25 5019   0.568   6.730   4.819  0.4110 -0.0345 -0.4046
   52CHL1   H25 5020   0.515   6.821   4.784  2.3079  0.3742 -2.4223
   52CHL1   C26 5021   0.590   6.769   4.968 -0.1344 -0.3165 -0.0074
   52CHL1  H26A 5022   0.494   6.805   5.011  0.6019  1.6656  0.0499
   52CHL1  H26B 5023   0.629   6.680   5.023 -0.2960  0.9410  2.2646
   52CHL1  H26C 5024   0.658   6.855   4.980  1.2225 -1.4953  1.2156
   52CHL1   C27 5025   0.698   6.712   4.742 -0.5858  0.2692  0.2399
   52CHL1  H27A 5026   0.759   6.805   4.737 -1.1403  0.5633 -2.5546
   52CHL1  H27B 5027   0.760   6.637   4.796  0.3660  1.7971  1.3347
   52CHL1  H27C 5028   0.684   6.677   4.638 -0.0571  0.4256  0.1133
   53CHL1    C3 5029   4.219   6.778   3.831  0.1446  0.1031 -0.6351
   53CHL1    H3 5030   4.204   6.884   3.858 -0.9739 -0.7011  2.2084
   53CHL1    O3 5031   4.216   6.755   3.688  0.1094  0.4584 -0.5557
   53CHL1   H3' 5032   4.217   6.661   3.670  0.9267  0.3907 -0.1903
   53CHL1    C4 5033   4.353   6.727   3.886  0.5286 -0.2781 -0.3955
   53CHL1   H4A 5034   4.364   6.621   3.855 -1.2539 -0.3042 -1.0280
   53CHL1   H4B 5035   4.434   6.792   3.846  1.1684 -2.4404 -2.8297
   53CHL1    C5 5036   4.354   6.726   4.037 -0.2371 -0.3785  0.2373
   53CHL1    C6 5037   4.458   6.772   4.107 -0.2726  0.3916 -0.5549
   53CHL1    H6 5038   4.540   6.814   4.047 -0.3317 -0.3866 -1.1948
   53CHL1    C7 5039   4.478   6.767   4.257  0.1695 -0.2837  0.0307
   53CHL1   H7A 5040   4.577   6.721   4.280  1.4122  2.3143  0.2830
   53CHL1   H7B 5041   4.471   6.870   4.298 -1.0123  0.5367 -2.0669
   53CHL1    C8 5042   4.366   6.679   4.320  0.0945 -0.1186 -0.1034
   53CHL1    H8 5043   4.378   6.570   4.302 -0.8409 -0.9741  3.6160
   53CHL1   C14 5044   4.356   6.700   4.466  0.5330  0.1508 -0.1826
   53CHL1   H14 5045   4.318   6.803   4.486  0.5702  0.2352 -0.5374
   53CHL1   C15 5046   4.490   6.683   4.532  0.0025  0.2198  0.5323
   53CHL1  H15A 5047   4.541   6.589   4.503 -0.6110  0.2177 -0.5880
   53CHL1  H15B 5048   4.542   6.778   4.505 -0.3825  0.2248 -0.2169
   53CHL1   C16 5049   4.460   6.676   4.680  0.1236  0.6688 -0.1919
   53CHL1  H16A 5050   4.519   6.592   4.722 -2.5308 -1.9684 -1.3406
   53CHL1  H16B 5051   4.478   6.773   4.732 -0.2848 -0.1582  1.5421
   53CHL1   C17 5052   4.298   6.640   4.690 -0.4525 -0.1564  0.1028
   53CHL1   H17 5053   4.246   6.737   4.708  0.6343  0.5149 -0.3125
   53CHL1   C13 5054   4.255   6.610   4.542 -0.5534 -0.4361 -0.1387
   53CHL1   C18 5055   4.287   6.461   4.517  0.7356 -0.2500  0.5334
   53CHL1  H18A 5056   4.227   6.398   4.586 -0.2360  0.9579  0.8106
   53CHL1  H18B 5057   4.261   6.428   4.414 -1.3840  2.3742  0.1334
   53CHL1  H18C 5058   4.391   6.429   4.542  0.7612 -0.0021  0.7460
   53CHL1   C12 5059   4.115   6.647   4.492 -0.3886 -1.0330  0.1041
   53CHL1  H12A 5060   4.024   6.597   4.532 -0.8669 -1.3837 -1.3651
   53CHL1  H12B 5061   4.098   6.752   4.524  2.2308 -0.9811  1.5958
   53CHL1   C11 5062   4.105   6.641   4.338  0.5365 -0.2681  0.5213
   53CHL1  H11A 5063   4.100   6.531   4.326 -0.4028 -0.1171 -0.6573
   53CHL1  H11B 5064   4.011   6.688   4.301  1.3974  1.4857  0.4351
   53CHL1    C9 5065   4.230   6.696   4.261  0.2445 -0.2725 -0.1799
   53CHL1    H9 5066   4.217   6.806   4.270 -0.1772 -0.1963 -1.4718
   53CHL1   C10 5067   4.230   6.652   4.110  0.0412 -0.3666 -0.1044
   53CHL1   C19 5068   4.246   6.503   4.078 -0.0198  0.5377 -0.9116
   53CHL1  H19A 5069   4.241   6.483   3.969  0.3583  2.1650 -1.2510
   53CHL1  H19B 5070   4.344   6.464   4.114 -0.2880 -0.4436 -1.2017
   53CHL1  H19C 5071   4.171   6.442   4.132  0.2640  0.6211 -0.4180
   53CHL1    C1 5072   4.102   6.702   4.049 -0.4485 -0.0992  1.0135
   53CHL1   H1A 5073   4.009   6.650   4.082  0.2653 -2.7384 -0.7662
   53CHL1   H1B 5074   4.087   6.807   4.081 -1.3847  0.1807 -0.2804
   53CHL1    C2 5075   4.099   6.701   3.892 -0.6534 -0.2302 -0.6056
   53CHL1   H2A 5076   4.003   6.753   3.873 -3.0712 -3.9679  0.2608
   53CHL1   H2B 5077   4.093   6.597   3.853  1.4338 -0.9722  0.8334
   53CHL1   C20 5078   4.264   6.546   4.806  0.4605  0.4245  0.5061
   53CHL1   H20 5079   4.308   6.448   4.779 -0.1540  0.2613  0.0972
   53CHL1   C21 5080   4.111   6.525   4.819  0.0416  0.1185  0.3189
   53CHL1  H21A 5081   4.082   6.438   4.882 -1.5977  1.9920  2.3234
   53CHL1  H21B 5082   4.061   6.513   4.721 -1.7801  0.2840  1.1862
   53CHL1  H21C 5083   4.057   6.616   4.852  1.6251  0.8056  1.1386
   53CHL1   C22 5084   4.317   6.595   4.943 -0.5284 -0.5806  0.2422
   53CHL1  H22A 5085   4.280   6.522   5.019  0.3816 -0.8147  0.4857
   53CHL1  H22B 5086   4.428   6.583   4.941 -0.0552  2.8126 -0.7457
   53CHL1   C23 5087   4.291   6.741   5.002 -0.5671 -0.2114 -0.1141
   53CHL1  H23A 5088   4.346   6.807   4.931  1.2329 -0.6163  0.8356
   53CHL1  H23B 5089   4.183   6.765   5.007 -0.2574  1.2219  0.1190
   53CHL1   C24 5090   4.355   6.756   5.144 -0.2119  0.0943  0.1646
   53CHL1  H24A 5091   4.454   6.705   5.145  0.4682  1.3575  1.9103
   53CHL1  H24B 5092   4.365   6.858   5.186  0.9693  0.1627 -0.2588
   53CHL1   C25 5093   4.273   6.694   5.255  0.4117 -0.1147  0.5513
   53CHL1   H25 5094   4.246   6.593   5.217  2.0126 -0.7585  1.0487
   53CHL1   C26 5095   4.353   6.667   5.383  0.0394  0.8096  0.4887
   53CHL1  H26A 5096   4.406   6.573   5.355 -1.4613  0.1072 -0.1099
   53CHL1  H26B 5097   4.414   6.759   5.396 -1.2187  1.6929  0.2835
   53CHL1  H26C 5098   4.288   6.649   5.471 -0.1749  1.3553  0.4431
   53CHL1   C27 5099   4.150   6.781   5.292 -0.3031  0.3450  0.3047
   53CHL1  H27A 5100   4.099   6.814   5.198  0.0684 -1.2304 -0.4872
   53CHL1  H27B 5101   4.086   6.720   5.359  0.3546 -2.3220 -1.3130
   53CHL1  H27C 5102   4.185   6.868   5.351 -1.3560  0.8784  0.1609
   54CHL1    C3 5103   1.725   6.737   3.447 -0.6946 -0.1205 -0.0685
   54CHL1    H3 5104   1.747   6.638   3.493  0.4037 -0.4472 -1.2352
   54CHL1    O3 5105   1.721   6.726   3.309  0.1466 -0.2068  0.4883
   54CHL1   H3' 5106   1.673   6.801   3.274 -0.2988  0.4015  2.2974
   54CHL1    C4 5107   1.586   6.783   3.505 -0.3414  0.1110  0.4222
   54CHL1   H4A 5108   1.543   6.871   3.454 -1.4957 -0.4096  0.4657
   54CHL1   H4B 5109   1.518   6.698   3.482 -1.6767  1.0582  0.8126
   54CHL1    C5 5110   1.590   6.799   3.655  0.0807  0.4420 -0.5516
   54CHL1    C6 5111   1.515   6.726   3.738 -0.4324 -0.7922  0.4597
   54CHL1    H6 5112   1.452   6.647   3.694 -0.0476  0.6127 -2.9415
   54CHL1    C7 5113   1.518   6.742   3.884  0.3279  0.3108 -0.0537
   54CHL1   H7A 5114   1.413   6.752   3.918 -0.1847  0.2558 -1.5201
   54CHL1   H7B 5115   1.552   6.649   3.934 -0.7760 -0.5110 -0.7711
   54CHL1    C8 5116   1.595   6.863   3.929  0.0852 -0.4716 -0.4431
   54CHL1    H8 5117   1.533   6.954   3.915  0.8944  0.2329  0.3915
   54CHL1   C14 5118   1.616   6.857   4.080 -0.0473  0.1979  0.2165
   54CHL1   H14 5119   1.656   6.754   4.095 -0.3552 -0.2531 -1.7600
   54CHL1   C15 5120   1.492   6.864   4.170  0.2936  0.9262 -0.7736
   54CHL1  H15A 5121   1.424   6.943   4.131 -0.4525  1.1695  0.9533
   54CHL1  H15B 5122   1.436   6.768   4.168  0.9052  0.4521  1.6974
   54CHL1   C16 5123   1.552   6.900   4.308 -0.0576  0.4378 -0.2185
   54CHL1  H16A 5124   1.512   6.999   4.337  2.1914  2.0692 -2.2283
   54CHL1  H16B 5125   1.524   6.821   4.381 -3.6830  0.9076 -0.9336
   54CHL1   C17 5126   1.705   6.931   4.287  0.9277  0.4867 -0.9569
   54CHL1   H17 5127   1.751   6.831   4.304 -1.9158 -0.7032  0.3566
   54CHL1   C13 5128   1.712   6.967   4.137  0.2388 -0.2481 -0.0968
   54CHL1   C18 5129   1.653   7.111   4.108  0.2459  0.0346 -0.2090
   54CHL1  H18A 5130   1.596   7.118   4.013 -1.2949 -0.0837  0.6683
   54CHL1  H18B 5131   1.581   7.137   4.189  1.6699 -0.3737  1.2458
   54CHL1  H18C 5132   1.736   7.184   4.119 -0.7652  0.8438  3.4539
   54CHL1   C12 5133   1.838   6.939   4.071 -1.3729  0.2475  0.6098
   54CHL1  H12A 5134   1.913   7.018   4.094  0.1031 -0.3356 -1.7686
   54CHL1  H12B 5135   1.887   6.843   4.101 -2.8717 -1.1626 -1.2027
   54CHL1   C11 5136   1.834   6.965   3.921 -0.4500 -0.2050 -0.3475
   54CHL1  H11A 5137   1.806   7.071   3.903  0.2296 -0.2638 -1.8387
   54CHL1  H11B 5138   1.935   6.956   3.876  1.0059  1.6652  2.2631
   54CHL1    C9 5139   1.736   6.864   3.855  0.5019 -0.0303 -0.6991
   54CHL1    H9 5140   1.776   6.761   3.867 -0.6792 -0.4725 -0.3966
   54CHL1   C10 5141   1.710   6.884   3.702 -0.1200  0.8224 -0.5936
   54CHL1   C19 5142   1.673   7.032   3.674  0.2567 -0.0002 -0.4902
   54CHL1  H19A 5143   1.654   7.057   3.567  0.6370  1.1049 -0.3164
   54CHL1  H19B 5144   1.580   7.053   3.731  1.2473 -0.6168  1.4319
   54CHL1  H19C 5145   1.746   7.107   3.712  0.1744  1.3770 -2.8331
   54CHL1    C1 5146   1.844   6.849   3.633 -0.1294  0.3156  0.0201
   54CHL1   H1A 5147   1.910   6.936   3.653  0.0956  0.7498 -2.3794
   54CHL1   H1B 5148   1.897   6.757   3.664 -1.0570 -0.2805 -0.1193
   54CHL1    C2 5149   1.833   6.835   3.484  0.4465 -0.1819  0.6635
   54CHL1   H2A 5150   1.926   6.801   3.433  0.6589  0.3716  0.6753
   54CHL1   H2B 5151   1.815   6.936   3.443 -0.8091 -0.2360  1.0204
   54CHL1   C20 5152   1.756   7.033   4.385 -0.6666 -0.3692  0.0449
   54CHL1   H20 5153   1.712   7.135   4.376 -0.5980 -0.3620 -0.2112
   54CHL1   C21 5154   1.911   7.051   4.364 -0.3078  0.6291 -0.1164
   54CHL1  H21A 5155   1.936   7.113   4.276  0.2002  0.4066 -0.1323
   54CHL1  H21B 5156   1.959   6.950   4.368 -0.3171  0.4982 -2.4154
   54CHL1  H21C 5157   1.954   7.113   4.446 -2.2377  1.6205  0.1884
   54CHL1   C22 5158   1.748   6.975   4.532 -0.7998 -0.4221 -0.3014
   54CHL1  H22A 5159   1.639   6.970   4.552 -0.6455 -0.5311  0.5678
   54CHL1  H22B 5160   1.794   6.874   4.531  0.6848  0.1307  2.3507
   54CHL1   C23 5161   1.805   7.064   4.653  0.5094 -0.1872 -0.2793
   54CHL1  H23A 5162   1.911   7.087   4.626 -0.2197  1.4562 -1.9741
   54CHL1  H23B 5163   1.756   7.164   4.643 -2.1604 -1.5575 -1.8677
   54CHL1   C24 5164   1.784   6.998   4.786  0.2894  0.1894 -0.5127
   54CHL1  H24A 5165   1.680   7.005   4.823  0.2611 -0.7015 -0.4107
   54CHL1  H24B 5166   1.801   6.892   4.759 -1.7882 -0.2553 -0.2307
   54CHL1   C25 5167   1.888   7.053   4.890 -0.0726  0.2895  0.5699
   54CHL1   H25 5168   1.988   7.054   4.842 -0.4490 -1.9734 -0.4080
   54CHL1   C26 5169   1.854   7.195   4.940 -0.2771 -0.5779  0.2269
   54CHL1  H26A 5170   1.855   7.275   4.863 -0.2022 -1.3869 -0.6304
   54CHL1  H26B 5171   1.749   7.199   4.976 -0.5685  0.1700 -0.6776
   54CHL1  H26C 5172   1.925   7.227   5.019  2.4770 -3.2767 -0.9827
   54CHL1   C27 5173   1.890   6.956   5.008  0.3012  0.3334  0.2187
   54CHL1  H27A 5174   1.792   6.929   5.054  1.2938  0.3525  2.5215
   54CHL1  H27B 5175   1.941   6.861   4.981 -1.5320 -0.4522 -0.6756
   54CHL1  H27C 5176   1.953   7.002   5.087  2.1774 -0.2687 -0.8897
   55CHL1    C3 5177   2.633   2.096   3.249  0.0849 -0.7103  0.0884
   55CHL1    H3 5178   2.524   2.100   3.226 -0.0154 -0.7539  0.5337
   55CHL1    O3 5179   2.704   2.098   3.125  0.4669  0.4153 -0.3993
   55CHL1   H3' 5180   2.730   2.190   3.109 -0.5098  0.5294 -1.4227
   55CHL1    C4 5181   2.674   2.211   3.336 -0.3983  0.1965 -0.1128
   55CHL1   H4A 5182   2.782   2.192   3.351 -0.9625 -2.0197  1.8454
   55CHL1   H4B 5183   2.672   2.306   3.279 -0.0358  0.4229  0.2507
   55CHL1    C5 5184   2.600   2.223   3.470  0.3277  0.3947  0.5014
   55CHL1    C6 5185   2.527   2.327   3.513 -0.5857  0.6441  0.8295
   55CHL1    H6 5186   2.521   2.418   3.451 -0.0441  2.4979  3.3016
   55CHL1    C7 5187   2.453   2.328   3.640  0.2953  0.7138  0.4481
   55CHL1   H7A 5188   2.449   2.429   3.687 -1.9154  0.1325  1.6588
   55CHL1   H7B 5189   2.346   2.301   3.627  0.2622 -1.1486  3.4952
   55CHL1    C8 5190   2.501   2.227   3.744 -0.8211  0.0064 -0.3761
   55CHL1    H8 5191   2.600   2.256   3.784  1.4739 -2.3347 -3.8837
   55CHL1   C14 5192   2.402   2.220   3.868 -0.4768  0.6108 -0.1339
   55CHL1   H14 5193   2.302   2.184   3.833  0.2366  0.0245 -1.6407
   55CHL1   C15 5194   2.386   2.340   3.955 -1.2484 -0.3099 -0.0010
   55CHL1  H15A 5195   2.482   2.395   3.966 -1.0692 -0.3723 -1.1386
   55CHL1  H15B 5196   2.313   2.411   3.910  0.2465  0.1983 -1.7564
   55CHL1   C16 5197   2.337   2.288   4.090 -0.0661 -0.1390 -0.0212
   55CHL1  H16A 5198   2.402   2.336   4.166 -1.6883  1.2423  0.5521
   55CHL1  H16B 5199   2.239   2.330   4.120  0.6128  1.1715  0.4197
   55CHL1   C17 5200   2.345   2.131   4.081 -0.0776 -0.6113 -0.0725
   55CHL1   H17 5201   2.244   2.097   4.051  0.3383 -0.4881 -1.7183
   55CHL1   C13 5202   2.439   2.113   3.965 -0.8618  0.2765 -0.7026
   55CHL1   C18 5203   2.580   2.133   4.016 -0.6786 -0.4700  0.2341
   55CHL1  H18A 5204   2.602   2.237   4.050 -1.0820 -1.1113  2.6740
   55CHL1  H18B 5205   2.602   2.063   4.100  0.6491 -0.6228 -0.2104
   55CHL1  H18C 5206   2.651   2.109   3.935 -1.4664 -1.0458 -0.2958
   55CHL1   C12 5207   2.416   1.981   3.887 -0.0270  0.1341  0.4956
   55CHL1  H12A 5208   2.439   1.892   3.949 -2.1701 -1.5405 -0.9484
   55CHL1  H12B 5209   2.310   1.966   3.857  0.3820 -2.9741  0.3210
   55CHL1   C11 5210   2.506   1.962   3.765  0.1047 -0.7055  0.9571
   55CHL1  H11A 5211   2.600   1.926   3.811  0.2149  0.5177  1.7496
   55CHL1  H11B 5212   2.456   1.881   3.707 -0.7745 -0.8395  1.8782
   55CHL1    C9 5213   2.505   2.092   3.672 -0.3910  0.0906 -0.0269
   55CHL1    H9 5214   2.408   2.077   3.622 -1.0311  0.8046  0.9602
   55CHL1   C10 5215   2.617   2.095   3.558 -0.0087 -0.2129  0.2471
   55CHL1   C19 5216   2.761   2.094   3.618  1.0639  0.1555 -0.1657
   55CHL1  H19A 5217   2.771   2.168   3.700 -0.6314  0.0396  0.1830
   55CHL1  H19B 5218   2.781   2.001   3.675  2.1845  0.7537  0.4677
   55CHL1  H19C 5219   2.840   2.109   3.541 -0.1300  1.8379 -1.1478
   55CHL1    C1 5220   2.587   1.966   3.472  0.8797 -0.7194  0.4093
   55CHL1   H1A 5221   2.622   1.880   3.533  1.0288 -2.9211 -2.5425
   55CHL1   H1B 5222   2.477   1.964   3.458  1.1038 -1.0996 -1.6363
   55CHL1    C2 5223   2.656   1.964   3.329  0.0485  0.2591 -0.0667
   55CHL1   H2A 5224   2.626   1.876   3.268 -0.5841 -1.1453  2.1312
   55CHL1   H2B 5225   2.764   1.963   3.357 -0.6688  1.4814  3.2085
   55CHL1   C20 5226   2.385   2.070   4.221  1.1123  0.0253  0.4139
   55CHL1   H20 5227   2.479   2.119   4.255  1.1261 -0.8822  1.7583
   55CHL1   C21 5228   2.402   1.921   4.207 -0.1142  0.5212 -0.4826
   55CHL1  H21A 5229   2.414   1.870   4.305 -2.1928  1.9063  0.5573
   55CHL1  H21B 5230   2.495   1.886   4.156  0.6628  2.3583 -0.4001
   55CHL1  H21C 5231   2.310   1.874   4.166 -2.0591  2.3696  1.4949
   55CHL1   C22 5232   2.281   2.108   4.335  0.0031 -0.3016 -0.2074
   55CHL1  H22A 5233   2.238   2.208   4.316 -1.6037 -1.1665 -1.3070
   55CHL1  H22B 5234   2.210   2.023   4.332 -1.2830  0.7703 -0.9591
   55CHL1   C23 5235   2.342   2.102   4.478 -0.4859  0.1533  0.3390
   55CHL1  H23A 5236   2.367   1.998   4.508  0.1266 -0.0245 -0.7443
   55CHL1  H23B 5237   2.436   2.161   4.488  0.6586 -1.3800 -0.8929
   55CHL1   C24 5238   2.238   2.148   4.581  0.8242 -0.8585 -0.4019
   55CHL1  H24A 5239   2.206   2.253   4.562  1.0935 -0.4035  1.5203
   55CHL1  H24B 5240   2.152   2.080   4.560  1.3684 -2.2419  1.5639
   55CHL1   C25 5241   2.266   2.136   4.726 -0.7318 -0.4042 -0.0189
   55CHL1   H25 5242   2.314   2.035   4.730 -0.3208 -0.2452 -0.7701
   55CHL1   C26 5243   2.373   2.245   4.757  0.4349 -0.2808  0.3639
   55CHL1  H26A 5244   2.458   2.243   4.686  0.4314 -2.4387  0.3544
   55CHL1  H26B 5245   2.327   2.346   4.764 -3.5420 -2.0167  2.0226
   55CHL1  H26C 5246   2.416   2.212   4.855 -2.3638 -0.9715  1.4463
   55CHL1   C27 5247   2.149   2.147   4.816 -0.7858  0.3396 -0.0333
   55CHL1  H27A 5248   2.097   2.245   4.818 -3.9703 -1.2335 -0.1735
   55CHL1  H27B 5249   2.065   2.080   4.787 -2.1259  1.7263  0.5580
   55CHL1  H27C 5250   2.176   2.126   4.922 -2.0712  1.4807  0.5458
   56CHL1    C3 5251   4.084   3.571   3.271  0.0899  0.2264 -0.9347
   56CHL1    H3 5252   3.981   3.529   3.269  1.0781 -2.4080 -0.9263
   56CHL1    O3 5253   4.106   3.601   3.135 -0.5887  0.1966 -0.2229
   56CHL1   H3' 5254   4.104   3.696   3.126  0.1588  0.4850  2.0077
   56CHL1    C4 5255   4.097   3.709   3.349 -0.3864  0.6267  0.8103
   56CHL1   H4A 5256   4.191   3.751   3.307  0.4972 -3.3658 -1.7939
   56CHL1   H4B 5257   4.012   3.773   3.317 -0.2608 -0.3061 -1.6448
   56CHL1    C5 5258   4.102   3.692   3.498  0.7306  0.9086  0.0864
   56CHL1    C6 5259   4.020   3.762   3.581  1.0402 -0.6590  0.1537
   56CHL1    H6 5260   3.950   3.830   3.531  1.1047 -0.5725  0.1801
   56CHL1    C7 5261   4.003   3.737   3.729 -1.0402 -0.3666 -0.0718
   56CHL1   H7A 5262   3.974   3.832   3.778 -0.4713  0.7834 -1.8649
   56CHL1   H7B 5263   3.917   3.668   3.743 -3.0016  1.6527 -1.4708
   56CHL1    C8 5264   4.135   3.681   3.788  0.0683  0.4968 -0.2577
   56CHL1    H8 5265   4.213   3.760   3.786  0.2609  0.3350  0.4040
   56CHL1   C14 5266   4.117   3.631   3.929  0.6949 -0.9881  0.1546
   56CHL1   H14 5267   4.036   3.555   3.933 -0.5439  0.3022  3.8998
   56CHL1   C15 5268   4.066   3.738   4.032 -0.5833  0.6845 -0.8743
   56CHL1  H15A 5269   4.099   3.841   4.006 -1.7147  0.7881 -2.0391
   56CHL1  H15B 5270   3.955   3.734   4.022 -0.6786  1.8395 -0.4567
   56CHL1   C16 5271   4.113   3.684   4.166  0.8553 -0.0956 -0.0731
   56CHL1  H16A 5272   4.172   3.749   4.235  0.6164 -1.0596  1.0898
   56CHL1  H16B 5273   4.020   3.662   4.222  0.7581  0.8488  0.1516
   56CHL1   C17 5274   4.193   3.548   4.136 -0.2144 -0.2309 -0.0575
   56CHL1   H17 5275   4.115   3.468   4.136  0.8885 -1.3994 -2.2955
   56CHL1   C13 5276   4.243   3.564   3.995  0.5696 -0.3562  0.2011
   56CHL1   C18 5277   4.359   3.665   3.998  0.2639 -0.6073 -0.1884
   56CHL1  H18A 5278   4.325   3.755   4.055  0.2688 -0.1781 -0.8563
   56CHL1  H18B 5279   4.446   3.621   4.051  0.9640 -0.2777 -1.0413
   56CHL1  H18C 5280   4.387   3.690   3.894 -0.6030  1.1056 -0.0620
   56CHL1   C12 5281   4.271   3.442   3.913  0.2572  0.1522 -0.3203
   56CHL1  H12A 5282   4.358   3.388   3.958  0.5579  1.1447  0.3233
   56CHL1  H12B 5283   4.188   3.369   3.921 -0.4284  0.8983 -0.5001
   56CHL1   C11 5284   4.291   3.471   3.762  0.4362  0.3654  0.1142
   56CHL1  H11A 5285   4.385   3.530   3.750  0.8389 -0.3508 -0.3747
   56CHL1  H11B 5286   4.307   3.382   3.697  0.3542  0.8266 -0.5499
   56CHL1    C9 5287   4.176   3.557   3.701  0.3597  0.3369  0.8995
   56CHL1    H9 5288   4.091   3.486   3.704  1.3118 -1.0822 -2.1801
   56CHL1   C10 5289   4.194   3.591   3.547  0.0136  0.4713 -0.2390
   56CHL1   C19 5290   4.337   3.649   3.519  0.3563 -0.0720  0.2828
   56CHL1  H19A 5291   4.343   3.686   3.415 -2.9559 -2.5269 -0.9456
   56CHL1  H19B 5292   4.359   3.733   3.588  0.3024 -0.1036  0.3385
   56CHL1  H19C 5293   4.412   3.574   3.554 -1.0349 -1.0347  1.2855
   56CHL1    C1 5294   4.178   3.460   3.466 -0.4057  0.0538 -0.3822
   56CHL1   H1A 5295   4.245   3.379   3.500 -1.9424 -0.6569  1.1284
   56CHL1   H1B 5296   4.075   3.421   3.481 -0.6952  1.4922  1.7814
   56CHL1    C2 5297   4.193   3.476   3.321 -0.8399  0.0850  0.5915
   56CHL1   H2A 5298   4.182   3.378   3.268  1.4265  0.4797 -0.7256
   56CHL1   H2B 5299   4.296   3.510   3.299 -0.6613 -1.0436 -0.4707
   56CHL1   C20 5300   4.293   3.511   4.248 -0.2951 -0.7945  0.3833
   56CHL1   H20 5301   4.360   3.598   4.266 -0.6591 -0.0757 -1.5552
   56CHL1   C21 5302   4.389   3.397   4.209 -0.3423  0.1246  0.3171
   56CHL1  H21A 5303   4.451   3.375   4.298 -1.0582  0.7678  0.9934
   56CHL1  H21B 5304   4.468   3.424   4.135 -0.2289 -0.2247  0.3093
   56CHL1  H21C 5305   4.349   3.304   4.163  0.0994 -0.5175  1.2055
   56CHL1   C22 5306   4.209   3.464   4.374  0.0277  0.6465 -0.1615
   56CHL1  H22A 5307   4.109   3.512   4.381 -1.1032 -1.4069 -1.1672
   56CHL1  H22B 5308   4.200   3.353   4.371  1.9893  0.4442  0.2538
   56CHL1   C23 5309   4.291   3.501   4.495 -0.0839  1.1118 -0.2552
   56CHL1  H23A 5310   4.388   3.449   4.486 -0.3577  0.7505 -1.3026
   56CHL1  H23B 5311   4.331   3.604   4.486  1.0748  0.4824 -3.5551
   56CHL1   C24 5312   4.229   3.481   4.629 -0.0976  0.1679 -0.2641
   56CHL1  H24A 5313   4.181   3.381   4.639  0.8678 -0.4017 -1.1241
   56CHL1  H24B 5314   4.308   3.487   4.707  0.1438  0.2358 -0.5135
   56CHL1   C25 5315   4.121   3.591   4.667  0.3137 -0.3187 -0.0054
   56CHL1   H25 5316   4.049   3.596   4.582  0.1642 -2.6462 -0.0840
   56CHL1   C26 5317   4.058   3.552   4.802 -0.8502  0.1026 -0.2583
   56CHL1  H26A 5318   3.954   3.590   4.806 -0.8869 -0.0976  1.1330
   56CHL1  H26B 5319   4.041   3.442   4.808  1.6080 -0.3352 -0.3955
   56CHL1  H26C 5320   4.116   3.596   4.886  0.1047  0.8529 -1.2759
   56CHL1   C27 5321   4.185   3.735   4.692 -0.1490  0.7686  0.6108
   56CHL1  H27A 5322   4.269   3.733   4.765 -0.0771  0.1420  0.5163
   56CHL1  H27B 5323   4.235   3.766   4.597  1.7398 -1.0726  0.9506
   56CHL1  H27C 5324   4.100   3.801   4.718  0.2406  1.5490 -0.0265
   57CHL1    C3 5325   3.376   3.301   3.621  0.1729 -0.4311  0.0498
   57CHL1    H3 5326   3.477   3.285   3.663  0.0009  0.5586  0.9011
   57CHL1    O3 5327   3.351   3.256   3.489  0.0355 -0.0942 -0.4251
   57CHL1   H3' 5328   3.404   3.176   3.484  1.5634  0.9347 -2.6281
   57CHL1    C4 5329   3.282   3.229   3.714  0.2007 -0.5121 -0.2032
   57CHL1   H4A 5330   3.183   3.240   3.665 -0.2068 -1.9972  0.2315
   57CHL1   H4B 5331   3.318   3.124   3.714 -0.5036 -0.7686  0.8569
   57CHL1    C5 5332   3.283   3.288   3.854 -0.4302 -0.3552  0.1309
   57CHL1    C6 5333   3.321   3.220   3.960  0.0146 -0.5354  0.2299
   57CHL1    H6 5334   3.350   3.115   3.942 -0.7188 -0.3398 -2.5153
   57CHL1    C7 5335   3.329   3.280   4.099 -0.3653 -0.4438  1.0823
   57CHL1   H7A 5336   3.305   3.193   4.164  0.6560 -1.4898  0.1004
   57CHL1   H7B 5337   3.433   3.307   4.127  0.7629 -3.3832  0.0853
   57CHL1    C8 5338   3.241   3.399   4.113 -0.1318 -0.9107  0.0754
   57CHL1    H8 5339   3.136   3.362   4.114 -0.9237  1.1795  1.2783
   57CHL1   C14 5340   3.272   3.471   4.246  0.6262  0.2392  0.2220
   57CHL1   H14 5341   3.380   3.492   4.234  1.9859 -5.2056  0.1874
   57CHL1   C15 5342   3.272   3.376   4.366  1.0733 -0.2152 -0.0012
   57CHL1  H15A 5343   3.204   3.291   4.387  1.2110 -0.2233  0.4099
   57CHL1  H15B 5344   3.381   3.355   4.369  2.1533  4.3764  0.9180
   57CHL1   C16 5345   3.252   3.469   4.491 -0.0880 -0.5172 -0.3032
   57CHL1  H16A 5346   3.170   3.445   4.562 -0.1285 -0.9046 -0.4803
   57CHL1  H16B 5347   3.343   3.466   4.555  0.2816 -1.7767 -0.8572
   57CHL1   C17 5348   3.239   3.612   4.426 -0.4037 -0.0192  0.9812
   57CHL1   H17 5349   3.341   3.653   4.412 -0.3749  0.1487  1.6498
   57CHL1   C13 5350   3.188   3.589   4.286  0.2697 -0.4685  0.3742
   57CHL1   C18 5351   3.032   3.554   4.293  0.0150 -0.5253  0.5252
   57CHL1  H18A 5352   3.013   3.489   4.381  0.4826  1.4000  2.1349
   57CHL1  H18B 5353   2.974   3.647   4.313  1.9354  1.0396 -0.8322
   57CHL1  H18C 5354   2.991   3.509   4.201  0.2688  2.0062 -0.9245
   57CHL1   C12 5355   3.213   3.697   4.176  0.3047  0.9266 -0.0943
   57CHL1  H12A 5356   3.140   3.781   4.183  0.3792  0.8816  1.5041
   57CHL1  H12B 5357   3.317   3.733   4.182  1.4241 -2.2040  1.8398
   57CHL1   C11 5358   3.189   3.636   4.031 -0.4651  0.1044  0.9526
   57CHL1  H11A 5359   3.082   3.611   4.023  0.2279 -3.0722  0.3466
   57CHL1  H11B 5360   3.209   3.707   3.949 -2.6387 -1.9955 -1.5670
   57CHL1    C9 5361   3.268   3.504   4.001 -0.0864 -0.4689 -0.5836
   57CHL1    H9 5362   3.376   3.530   4.004 -0.0078 -0.5937  3.3332
   57CHL1   C10 5363   3.240   3.439   3.863  0.4190  0.8256 -0.6527
   57CHL1   C19 5364   3.085   3.444   3.822  0.0884  0.1254 -1.1275
   57CHL1  H19A 5365   3.025   3.372   3.882  1.4779 -0.0372  0.1207
   57CHL1  H19B 5366   3.053   3.550   3.818 -0.9192 -0.1881 -1.9376
   57CHL1  H19C 5367   3.079   3.411   3.716  0.7171 -2.9204 -0.3011
   57CHL1    C1 5368   3.338   3.514   3.765  0.7959  0.4919 -0.6708
   57CHL1   H1A 5369   3.297   3.618   3.767  0.0517  0.1916  1.3265
   57CHL1   H1B 5370   3.440   3.527   3.808 -0.7322 -0.6857  3.8246
   57CHL1    C2 5371   3.343   3.450   3.632  0.1024 -0.1478 -0.2545
   57CHL1   H2A 5372   3.416   3.499   3.564 -0.3497  1.4821  0.3863
   57CHL1   H2B 5373   3.242   3.455   3.586 -0.0348 -2.3835 -0.3025
   57CHL1   C20 5374   3.167   3.710   4.518 -0.8335 -0.5415  0.3802
   57CHL1   H20 5375   3.062   3.678   4.537 -0.9196 -0.1763  0.5348
   57CHL1   C21 5376   3.157   3.852   4.452 -0.8745 -0.6357  0.2143
   57CHL1  H21A 5377   3.120   3.921   4.531  0.0624  1.8407 -1.3739
   57CHL1  H21B 5378   3.093   3.852   4.361 -1.5175 -0.5111  0.6618
   57CHL1  H21C 5379   3.257   3.879   4.409  0.0649 -2.7434  0.9265
   57CHL1   C22 5380   3.239   3.714   4.655 -0.3546  0.5694  0.0530
   57CHL1  H22A 5381   3.250   3.608   4.688  3.1145  0.2706 -1.6337
   57CHL1  H22B 5382   3.344   3.750   4.647 -0.4214  1.0607  1.1438
   57CHL1   C23 5383   3.173   3.805   4.765  0.6974  1.0594  0.1689
   57CHL1  H23A 5384   3.162   3.911   4.735 -0.9392  1.0967  0.8291
   57CHL1  H23B 5385   3.070   3.766   4.777  1.2851 -1.4446 -1.9160
   57CHL1   C24 5386   3.252   3.790   4.891  1.1579 -0.1134  0.5994
   57CHL1  H24A 5387   3.266   3.681   4.909  1.1935 -0.4606 -1.2547
   57CHL1  H24B 5388   3.349   3.842   4.878  1.0134  0.0167 -0.0267
   57CHL1   C25 5389   3.186   3.853   5.015  0.4131 -0.3257  0.2899
   57CHL1   H25 5390   3.088   3.805   5.035 -0.4565  1.3798  0.2957
   57CHL1   C26 5391   3.278   3.822   5.136 -0.1773 -0.5530  0.6899
   57CHL1  H26A 5392   3.385   3.842   5.114 -1.0733  0.5589 -3.3806
   57CHL1  H26B 5393   3.254   3.879   5.229  0.8594 -0.3292  0.8382
   57CHL1  H26C 5394   3.254   3.715   5.155  0.0856 -0.5509  1.0488
   57CHL1   C27 5395   3.167   4.013   5.007 -0.7244  0.6961 -0.4483
   57CHL1  H27A 5396   3.120   4.053   5.098 -1.1063  0.5249 -0.5680
   57CHL1  H27B 5397   3.267   4.057   4.986  0.4023 -1.0677  0.9069
   57CHL1  H27C 5398   3.105   4.033   4.916 -1.1346 -0.6103 -0.4857
   58CHL1    C3 5399   2.106   4.610   3.468  0.0407 -0.6048  0.3363
   58CHL1    H3 5400   2.203   4.664   3.474 -0.1555 -0.1315 -0.6439
   58CHL1    O3 5401   2.091   4.562   3.336 -0.2189 -0.3737 -0.1190
   58CHL1   H3' 5402   2.180   4.540   3.308 -0.8445 -1.0799 -1.6485
   58CHL1    C4 5403   2.108   4.497   3.571 -0.6066  0.2584 -0.6828
   58CHL1   H4A 5404   2.015   4.437   3.562 -1.9921  1.6441  2.9675
   58CHL1   H4B 5405   2.193   4.431   3.541  0.8464  0.4993  2.5056
   58CHL1    C5 5406   2.115   4.545   3.721 -0.1780  0.8718  0.1732
   58CHL1    C6 5407   2.214   4.506   3.798 -0.7217 -0.0590  0.2734
   58CHL1    H6 5408   2.288   4.429   3.772 -0.5426 -0.0069  0.6198
   58CHL1    C7 5409   2.222   4.550   3.943  0.7234  0.2073 -0.2075
   58CHL1   H7A 5410   2.262   4.472   4.012 -0.9455 -0.1914  0.3658
   58CHL1   H7B 5411   2.302   4.625   3.959  1.5367 -1.1250  2.7416
   58CHL1    C8 5412   2.097   4.620   4.001 -0.1423 -0.4634  0.5149
   58CHL1    H8 5413   2.019   4.542   4.015 -0.0484 -0.5992  0.2932
   58CHL1   C14 5414   2.130   4.700   4.125  0.2046 -0.0277 -0.7979
   58CHL1   H14 5415   2.205   4.778   4.102 -0.5140  0.9772  0.1579
   58CHL1   C15 5416   2.193   4.620   4.246  0.5265 -1.1315  0.5791
   58CHL1  H15A 5417   2.135   4.527   4.260 -1.3269 -0.0089  0.6610
   58CHL1  H15B 5418   2.299   4.600   4.220  0.7688 -0.9856  1.4357
   58CHL1   C16 5419   2.188   4.720   4.356  0.1431 -0.4632  0.5483
   58CHL1  H16A 5420   2.151   4.660   4.442 -1.9743 -1.3158 -0.8500
   58CHL1  H16B 5421   2.292   4.754   4.374  0.3620  0.2876 -1.8323
   58CHL1   C17 5422   2.091   4.837   4.315 -0.1578 -0.1847 -0.3392
   58CHL1   H17 5423   2.147   4.927   4.282 -0.0502  0.3860  1.3234
   58CHL1   C13 5424   2.015   4.786   4.183 -0.2372  0.1831 -0.1508
   58CHL1   C18 5425   1.901   4.689   4.232  0.5220 -0.1766  0.2451
   58CHL1  H18A 5426   1.808   4.738   4.267 -0.7109 -1.2366 -1.3839
   58CHL1  H18B 5427   1.862   4.625   4.150  0.9369  0.8410 -0.7769
   58CHL1  H18C 5428   1.938   4.630   4.318  2.2009  1.3000  0.5887
   58CHL1   C12 5429   1.961   4.886   4.083  0.0462  0.4166  0.3264
   58CHL1  H12A 5430   1.866   4.934   4.115  0.6567 -0.4261  3.7132
   58CHL1  H12B 5431   2.029   4.971   4.064  0.9774 -0.7340 -1.8904
   58CHL1   C11 5432   1.931   4.809   3.951  0.1261  0.6908  1.2215
   58CHL1  H11A 5433   1.835   4.755   3.965  1.4674 -2.6167 -0.8882
   58CHL1  H11B 5434   1.914   4.892   3.879  0.7062 -0.6676 -0.5579
   58CHL1    C9 5435   2.042   4.722   3.891  0.5086  0.2868  0.0182
   58CHL1    H9 5436   2.127   4.791   3.879 -0.0141  1.0895  0.7997
   58CHL1   C10 5437   2.018   4.653   3.755 -0.2529 -0.0996 -0.8023
   58CHL1   C19 5438   1.884   4.589   3.767 -0.2963 -0.0436  0.5097
   58CHL1  H19A 5439   1.807   4.669   3.762 -0.1162  0.0978  0.0074
   58CHL1  H19B 5440   1.861   4.524   3.680  0.8203 -0.4043  0.4656
   58CHL1  H19C 5441   1.871   4.530   3.861  2.3400 -0.5890  0.6137
   58CHL1    C1 5442   2.011   4.757   3.632  0.4135 -0.3486 -0.2489
   58CHL1   H1A 5443   1.925   4.824   3.653 -1.4216 -2.9658  1.1170
   58CHL1   H1B 5444   2.109   4.809   3.639  0.5946 -0.7268  0.1034
   58CHL1    C2 5445   1.988   4.710   3.493 -0.6703  0.4556  0.3956
   58CHL1   H2A 5446   1.985   4.787   3.413  1.2987 -0.6110 -0.7898
   58CHL1   H2B 5447   1.890   4.661   3.478  0.1475 -0.9983 -0.3857
   58CHL1   C20 5448   1.995   4.880   4.426 -0.3832  0.0427  0.4591
   58CHL1   H20 5449   1.922   4.800   4.452  0.8447 -0.5432  2.3281
   58CHL1   C21 5450   1.923   5.011   4.386 -0.6058  0.3755  0.4925
   58CHL1  H21A 5451   2.004   5.076   4.347  1.1963 -2.1650 -0.2843
   58CHL1  H21B 5452   1.864   5.051   4.471 -1.1312  2.2521 -0.6953
   58CHL1  H21C 5453   1.846   4.996   4.307  0.5911  2.1919 -1.1009
   58CHL1   C22 5454   2.071   4.910   4.563 -0.0697 -0.0235  0.0365
   58CHL1  H22A 5455   2.138   4.824   4.585  1.4780  1.0797 -0.2255
   58CHL1  H22B 5456   2.133   5.002   4.552 -0.2168  0.0429 -0.2539
   58CHL1   C23 5457   1.977   4.925   4.688 -0.2836 -0.2817 -0.9386
   58CHL1  H23A 5458   1.887   4.983   4.657  0.0769  0.2474 -1.0204
   58CHL1  H23B 5459   1.938   4.828   4.724 -2.8888  1.1382  0.3766
   58CHL1   C24 5460   2.046   5.005   4.800  0.1302  0.6613  0.5351
   58CHL1  H24A 5461   2.077   5.104   4.760  1.3294  0.5097  1.0578
   58CHL1  H24B 5462   1.971   5.012   4.882 -1.2024 -2.5456 -0.2583
   58CHL1   C25 5463   2.178   4.947   4.857 -0.0253  0.2318  0.2808
   58CHL1   H25 5464   2.238   4.900   4.776  2.5437 -0.0247  2.2187
   58CHL1   C26 5465   2.275   5.055   4.921  0.3174  0.0800 -0.9789
   58CHL1  H26A 5466   2.223   5.113   5.001 -0.3853 -2.9941  0.9625
   58CHL1  H26B 5467   2.349   5.005   4.988  0.9781 -0.8715 -2.3793
   58CHL1  H26C 5468   2.330   5.121   4.851  0.0933  1.1522 -0.1719
   58CHL1   C27 5469   2.154   4.837   4.956 -0.1286  0.0552 -0.0292
   58CHL1  H27A 5470   2.248   4.799   5.002  0.0825 -0.4132 -0.8265
   58CHL1  H27B 5471   2.087   4.873   5.037  0.8001 -0.3271  0.9322
   58CHL1  H27C 5472   2.102   4.750   4.910  0.5173 -0.9248  1.0380
   59CHL1    C3 5473   2.778   4.726   3.462 -0.5530 -0.0065 -0.0070
   59CHL1    H3 5474   2.872   4.689   3.509 -0.9802 -0.3771  0.5617
   59CHL1    O3 5475   2.757   4.677   3.326  0.2062 -0.1333 -0.2962
   59CHL1   H3' 5476   2.669   4.712   3.307  0.1008 -1.3675 -2.3913
   59CHL1    C4 5477   2.661   4.665   3.548  0.3830  0.0193  0.1399
   59CHL1   H4A 5478   2.569   4.654   3.487 -0.6186  1.6434  1.2674
   59CHL1   H4B 5479   2.688   4.559   3.566 -0.1629 -0.1138  0.1689
   59CHL1    C5 5480   2.631   4.734   3.683 -0.1246  0.3720  0.4243
   59CHL1    C6 5481   2.613   4.661   3.793  0.2932 -0.2807 -0.4972
   59CHL1    H6 5482   2.605   4.551   3.787 -0.2198 -0.2147 -1.1611
   59CHL1    C7 5483   2.574   4.723   3.926 -0.2637  0.2583  0.2910
   59CHL1   H7A 5484   2.501   4.651   3.970 -1.4530 -0.5417 -2.6993
   59CHL1   H7B 5485   2.663   4.712   3.991 -0.6009  1.7707  1.0398
   59CHL1    C8 5486   2.552   4.879   3.930  0.4527  0.1507 -0.2681
   59CHL1    H8 5487   2.448   4.899   3.897  0.2452  1.0807  0.9071
   59CHL1   C14 5488   2.577   4.939   4.073 -1.1786  0.8629 -0.2851
   59CHL1   H14 5489   2.688   4.936   4.083 -1.2742  0.1516  0.6370
   59CHL1   C15 5490   2.512   4.868   4.188  0.2679  0.6844 -0.2894
   59CHL1  H15A 5491   2.407   4.842   4.162  0.6439 -0.0019 -1.1633
   59CHL1  H15B 5492   2.559   4.773   4.222 -0.3881  0.4738  0.0333
   59CHL1   C16 5493   2.510   4.982   4.296 -0.2138  0.5495  0.4439
   59CHL1  H16A 5494   2.403   4.998   4.322  0.2902  4.4298  0.7285
   59CHL1  H16B 5495   2.576   4.962   4.383  2.6109 -0.2616 -1.7711
   59CHL1   C17 5496   2.558   5.110   4.225 -0.3956 -0.1885  0.0079
   59CHL1   H17 5497   2.668   5.109   4.239 -0.0228  0.2553 -2.3686
   59CHL1   C13 5498   2.540   5.086   4.082 -0.4568 -0.3852 -0.4238
   59CHL1   C18 5499   2.389   5.103   4.044  0.7949 -0.2209 -0.5554
   59CHL1  H18A 5500   2.362   5.208   4.072 -1.8639 -0.3181 -2.3687
   59CHL1  H18B 5501   2.366   5.098   3.935 -1.8960  3.3169 -0.3288
   59CHL1  H18C 5502   2.318   5.034   4.095 -1.7524 -0.5481 -4.1170
   59CHL1   C12 5503   2.621   5.165   3.982 -1.1890 -0.0040 -0.2171
   59CHL1  H12A 5504   2.583   5.269   3.968  0.2991  0.5358 -0.4064
   59CHL1  H12B 5505   2.715   5.178   4.039 -1.7183 -1.3546  1.0082
   59CHL1   C11 5506   2.645   5.102   3.843  0.0656  0.1628 -0.2400
   59CHL1  H11A 5507   2.561   5.143   3.782 -0.2328 -0.5744 -0.3359
   59CHL1  H11B 5508   2.729   5.161   3.801 -0.9741  0.6266 -1.7426
   59CHL1    C9 5509   2.654   4.946   3.831  0.2856  0.5344 -0.3267
   59CHL1    H9 5510   2.757   4.920   3.863  0.3939  2.0327  0.6188
   59CHL1   C10 5511   2.639   4.890   3.690 -1.2542 -0.1380  1.2958
   59CHL1   C19 5512   2.509   4.941   3.628 -0.9662  0.4922  0.6814
   59CHL1  H19A 5513   2.420   4.916   3.691 -0.8475  0.1819  0.7292
   59CHL1  H19B 5514   2.509   5.050   3.609  1.0418  0.2750 -0.9026
   59CHL1  H19C 5515   2.489   4.892   3.530 -1.0408  1.2315  0.3215
   59CHL1    C1 5516   2.759   4.936   3.605  0.1512 -0.3917 -0.0807
   59CHL1   H1A 5517   2.761   5.047   3.603 -0.1330 -0.3923 -1.2519
   59CHL1   H1B 5518   2.854   4.912   3.657 -0.9985 -2.2837  1.2477
   59CHL1    C2 5519   2.774   4.878   3.461 -0.1909  0.5119 -0.4762
   59CHL1   H2A 5520   2.858   4.921   3.403  0.3821 -0.0488 -0.0677
   59CHL1   H2B 5521   2.677   4.906   3.413  0.2297 -0.3478 -1.8853
   59CHL1   C20 5522   2.510   5.235   4.300 -0.0219  0.4555 -0.0217
   59CHL1   H20 5523   2.401   5.239   4.276 -0.0665  0.2243  0.1392
   59CHL1   C21 5524   2.582   5.355   4.241 -0.0525 -0.1936  0.3874
   59CHL1  H21A 5525   2.688   5.330   4.220  0.4228 -0.1252  2.4136
   59CHL1  H21B 5526   2.581   5.444   4.308 -0.6723  0.0111  0.1058
   59CHL1  H21C 5527   2.534   5.382   4.145  0.1576 -2.9509 -0.5859
   59CHL1   C22 5528   2.513   5.221   4.453 -0.5806 -0.0994 -0.1660
   59CHL1  H22A 5529   2.469   5.312   4.498 -1.2141 -0.8145  0.6955
   59CHL1  H22B 5530   2.461   5.136   4.502  0.5457  0.5842  2.4071
   59CHL1   C23 5531   2.652   5.211   4.515 -0.4631  0.2987 -0.1844
   59CHL1  H23A 5532   2.711   5.124   4.478 -0.3016  0.4245 -0.2272
   59CHL1  H23B 5533   2.726   5.293   4.498 -1.3792  0.8629 -1.6552
   59CHL1   C24 5534   2.651   5.197   4.674 -0.0633  1.3437  0.4250
   59CHL1  H24A 5535   2.587   5.106   4.687  0.7082  0.6383 -0.6116
   59CHL1  H24B 5536   2.755   5.175   4.707  0.1217  1.0900 -0.3126
   59CHL1   C25 5537   2.600   5.324   4.744 -0.0819  0.0060 -0.3200
   59CHL1   H25 5538   2.495   5.340   4.713  0.0416  0.1784 -0.6649
   59CHL1   C26 5539   2.601   5.310   4.904 -0.5623  0.4287  0.0573
   59CHL1  H26A 5540   2.569   5.208   4.936 -1.6722  1.2428  1.6138
   59CHL1  H26B 5541   2.705   5.315   4.943 -0.2948 -0.5864 -0.4706
   59CHL1  H26C 5542   2.542   5.383   4.963 -0.8089  1.0640 -0.9591
   59CHL1   C27 5543   2.688   5.449   4.706 -0.0499  0.8740 -0.3995
   59CHL1  H27A 5544   2.651   5.539   4.759  1.0105  0.7650  0.5817
   59CHL1  H27B 5545   2.792   5.447   4.744 -0.5328 -0.4018  0.9368
   59CHL1  H27C 5546   2.697   5.464   4.597  0.2607  0.6955 -0.3980
   60CHL1    C3 5547   0.961   5.908   3.093 -0.3072 -0.8406 -0.3413
   60CHL1    H3 5548   1.004   5.810   3.062  2.6663  0.4265 -0.5384
   60CHL1    O3 5549   0.922   5.975   2.978  0.2933  0.4382  0.4241
   60CHL1   H3' 5550   0.923   6.069   2.998 -0.2495  0.3654  0.8309
   60CHL1    C4 5551   0.839   5.886   3.188 -0.7568  0.2838  0.8276
   60CHL1   H4A 5552   0.786   5.982   3.206 -0.2360  0.8591 -0.5358
   60CHL1   H4B 5553   0.761   5.826   3.137 -1.5342  2.7185 -1.0121
   60CHL1    C5 5554   0.882   5.826   3.323  0.2137  0.5023 -0.5372
   60CHL1    C6 5555   0.850   5.701   3.374  0.9170  0.3376  1.4200
   60CHL1    H6 5556   0.777   5.643   3.316  2.6541 -1.9205  1.3576
   60CHL1    C7 5557   0.893   5.642   3.508 -0.1334  0.2590  0.0641
   60CHL1   H7A 5558   0.820   5.575   3.558  1.5003  0.1802  2.5204
   60CHL1   H7B 5559   0.984   5.581   3.489  0.0942  0.5387  0.2401
   60CHL1    C8 5560   0.945   5.759   3.595  0.4562 -0.1151 -0.4264
   60CHL1    H8 5561   0.856   5.823   3.616 -0.3590 -0.3842 -2.6950
   60CHL1   C14 5562   0.998   5.708   3.729  0.8450  0.8189 -0.4175
   60CHL1   H14 5563   1.085   5.649   3.694  0.0881  1.1529 -3.0895
   60CHL1   C15 5564   0.896   5.622   3.802  0.6544 -0.4806  0.0915
   60CHL1  H15A 5565   0.794   5.666   3.796  0.3003 -1.5173 -2.7505
   60CHL1  H15B 5566   0.882   5.515   3.776 -1.7862 -1.2393  3.7931
   60CHL1   C16 5567   0.942   5.628   3.944 -0.1728 -0.1159  0.3195
   60CHL1  H16A 5568   0.855   5.669   4.000 -0.6447 -1.2188  0.4273
   60CHL1  H16B 5569   0.968   5.528   3.986  2.0728  0.0217 -0.6074
   60CHL1   C17 5570   1.062   5.727   3.951 -0.2622  0.2678  0.0656
   60CHL1   H17 5571   1.152   5.664   3.931 -0.1727  0.8429 -1.4671
   60CHL1   C13 5572   1.053   5.817   3.821 -0.1357 -0.5111 -0.5973
   60CHL1   C18 5573   0.959   5.931   3.856  0.2409 -0.0420  0.1430
   60CHL1  H18A 5574   0.931   5.985   3.763 -0.1370  0.7106  0.6814
   60CHL1  H18B 5575   0.870   5.896   3.913  1.4733 -0.9868  1.5580
   60CHL1  H18C 5576   1.000   6.017   3.913 -0.0357  0.0616  0.1896
   60CHL1   C12 5577   1.183   5.876   3.744  0.4691  0.1610 -0.3419
   60CHL1  H12A 5578   1.242   5.957   3.792  1.4362 -0.7474  0.0341
   60CHL1  H12B 5579   1.256   5.798   3.716  0.8586  0.1966  0.5425
   60CHL1   C11 5580   1.137   5.932   3.612 -0.1116  0.2501  0.7157
   60CHL1  H11A 5581   1.095   6.033   3.630 -2.0487 -0.2328 -0.7669
   60CHL1  H11B 5582   1.237   5.947   3.565 -0.6979 -1.6239 -1.3080
   60CHL1    C9 5583   1.051   5.843   3.522  0.2639  0.2466 -0.6567
   60CHL1    H9 5584   1.120   5.768   3.478  0.1462 -0.2411 -0.0278
   60CHL1   C10 5585   0.990   5.911   3.395 -0.2750 -0.4097  0.5468
   60CHL1   C19 5586   0.930   6.048   3.443  0.1483 -0.3842 -0.1429
   60CHL1  H19A 5587   0.890   6.109   3.358 -0.5216  0.3162  0.6565
   60CHL1  H19B 5588   0.848   6.016   3.511  0.4736 -0.3466  0.2643
   60CHL1  H19C 5589   1.001   6.122   3.487 -0.6688 -0.7653  1.9169
   60CHL1    C1 5590   1.108   5.927   3.296  0.4131 -0.4514 -0.0123
   60CHL1   H1A 5591   1.182   5.998   3.338  0.2871  1.5572 -2.8737
   60CHL1   H1B 5592   1.158   5.828   3.288 -1.8491 -1.5918 -1.0795
   60CHL1    C2 5593   1.075   5.987   3.156  0.8376  0.3889  0.3517
   60CHL1   H2A 5594   1.166   6.005   3.095  0.9768  2.2296  1.0550
   60CHL1   H2B 5595   1.043   6.091   3.177  1.9599  0.9445 -0.5473
   60CHL1   C20 5596   1.085   5.794   4.091  0.0891  0.1898  0.1925
   60CHL1   H20 5597   1.007   5.866   4.123  0.0853 -0.0251  0.6613
   60CHL1   C21 5598   1.218   5.874   4.083 -0.5274 -0.3959 -0.0001
   60CHL1  H21A 5599   1.305   5.810   4.059 -1.9111 -2.5478  0.5079
   60CHL1  H21B 5600   1.233   5.937   4.173 -0.4296  1.6419 -1.3707
   60CHL1  H21C 5601   1.218   5.950   4.002 -0.0176 -0.4613 -0.0631
   60CHL1   C22 5602   1.100   5.695   4.207  0.0897 -0.2790  0.0055
   60CHL1  H22A 5603   1.004   5.643   4.225 -0.4476  1.1626  1.6536
   60CHL1  H22B 5604   1.169   5.610   4.188 -0.0061 -0.5169  0.6940
   60CHL1   C23 5605   1.156   5.750   4.344  0.2690  0.1404 -0.1630
   60CHL1  H23A 5606   1.149   5.667   4.418  2.0508  0.1367  0.0412
   60CHL1  H23B 5607   1.263   5.780   4.336  1.0877 -1.0730  3.8809
   60CHL1   C24 5608   1.072   5.865   4.395  0.6130  0.5599 -0.1639
   60CHL1  H24A 5609   1.088   5.942   4.316 -1.7404  0.4901 -0.8006
   60CHL1  H24B 5610   0.966   5.833   4.389  0.8008 -0.7048  2.2333
   60CHL1   C25 5611   1.106   5.909   4.536  0.7832 -0.2093 -0.8615
   60CHL1   H25 5612   1.217   5.909   4.539  0.8003 -1.0799 -1.1407
   60CHL1   C26 5613   1.057   6.050   4.574 -0.2403 -0.8838 -0.7538
   60CHL1  H26A 5614   1.126   6.130   4.539 -1.0348 -0.7130 -2.0001
   60CHL1  H26B 5615   0.957   6.078   4.536 -0.7530  0.8404  1.6285
   60CHL1  H26C 5616   1.064   6.068   4.683 -1.7491 -1.4678 -0.5297
   60CHL1   C27 5617   1.067   5.815   4.654 -0.6300 -0.2468 -0.2024
   60CHL1  H27A 5618   0.962   5.843   4.675  0.0923  2.1072  0.5709
   60CHL1  H27B 5619   1.065   5.708   4.622  0.1703  0.7391 -4.0674
   60CHL1  H27C 5620   1.132   5.838   4.742  0.6457 -1.5224 -0.7666
   61CHL1    C3 5621   4.943   4.097   3.250  0.6189  0.1705  0.4523
   61CHL1    H3 5622   4.838   4.063   3.263  1.1058 -2.1290 -1.0828
   61CHL1    O3 5623   4.965   4.089   3.109  0.0459  0.2726  0.5123
   61CHL1   H3' 5624   5.060   4.074   3.100  0.1151  0.9344 -0.0085
   61CHL1    C4 5625   4.948   4.248   3.306 -0.6206  0.6215 -0.1826
   61CHL1   H4A 5626   5.044   4.295   3.274  0.5328 -0.6915  1.2014
   61CHL1   H4B 5627   4.871   4.303   3.249 -0.3111  1.9809  0.6564
   61CHL1    C5 5628   4.932   4.263   3.451 -0.8008  1.0439 -0.2464
   61CHL1    C6 5629   4.832   4.332   3.498  0.0277 -1.2905 -0.2312
   61CHL1    H6 5630   4.769   4.392   3.431  1.8171  1.4021  0.3330
   61CHL1    C7 5631   4.815   4.360   3.643  0.0023  0.2995 -0.6006
   61CHL1   H7A 5632   4.800   4.469   3.659  1.7736  0.4806  0.0234
   61CHL1   H7B 5633   4.715   4.322   3.674  0.5448 -1.6794 -1.1651
   61CHL1    C8 5634   4.932   4.311   3.728  0.1974  0.9849  0.2243
   61CHL1    H8 5635   5.013   4.387   3.717 -0.2325  1.3905 -0.2051
   61CHL1   C14 5636   4.879   4.293   3.871  0.1334 -0.2003 -0.7711
   61CHL1   H14 5637   4.801   4.214   3.870 -0.8921  0.6017  2.6792
   61CHL1   C15 5638   4.810   4.415   3.934 -0.0842  0.4381 -0.5447
   61CHL1  H15A 5639   4.863   4.513   3.924 -0.5474  0.6536 -0.9394
   61CHL1  H15B 5640   4.707   4.441   3.903 -0.0650 -1.3588 -2.2694
   61CHL1   C16 5641   4.814   4.374   4.079 -0.4698  0.3758  0.1116
   61CHL1  H16A 5642   4.861   4.459   4.133  1.3850 -0.7861  0.4186
   61CHL1  H16B 5643   4.711   4.366   4.119 -0.1555 -0.6176  0.7672
   61CHL1   C17 5644   4.896   4.244   4.105 -0.1598 -0.8013  0.5872
   61CHL1   H17 5645   4.827   4.158   4.089 -1.2252  0.0239  0.6900
   61CHL1   C13 5646   4.976   4.233   3.973  0.1464  0.0306  0.3467
   61CHL1   C18 5647   5.101   4.329   3.975  0.7158 -0.5912  0.4571
   61CHL1  H18A 5648   5.167   4.281   4.050 -0.5337 -2.2812  0.5429
   61CHL1  H18B 5649   5.138   4.333   3.870  0.5132  0.1554  0.4113
   61CHL1  H18C 5650   5.067   4.427   4.013  1.1173 -0.3129  0.1139
   61CHL1   C12 5651   5.020   4.091   3.927  0.1536 -0.6499 -0.1068
   61CHL1  H12A 5652   5.094   4.043   3.994  1.7459  0.7996 -0.7490
   61CHL1  H12B 5653   4.930   4.027   3.935  0.1932 -0.7677 -0.5678
   61CHL1   C11 5654   5.077   4.097   3.786  0.6473  0.5410  0.4826
   61CHL1  H11A 5655   5.177   4.145   3.786  0.4097  1.1055  2.2759
   61CHL1  H11B 5656   5.090   3.991   3.755  1.6211  0.6248  0.5975
   61CHL1    C9 5657   4.980   4.171   3.681  0.0315  0.4603 -0.0865
   61CHL1    H9 5658   4.891   4.105   3.685  0.7874 -0.5253  1.7007
   61CHL1   C10 5659   5.028   4.170   3.535 -0.1738  0.2620 -0.3325
   61CHL1   C19 5660   5.171   4.228   3.531 -0.9594 -0.1292  0.4612
   61CHL1  H19A 5661   5.248   4.161   3.575  0.2180 -0.0929 -1.4053
   61CHL1  H19B 5662   5.203   4.237   3.425 -0.4600 -0.9350  0.5304
   61CHL1  H19C 5663   5.181   4.325   3.583  0.3579  0.3102 -0.5500
   61CHL1    C1 5664   5.013   4.026   3.477 -0.2388  0.0371  0.4690
   61CHL1   H1A 5665   5.088   3.962   3.529 -0.4960 -1.2596 -0.6893
   61CHL1   H1B 5666   4.911   3.992   3.504  0.5332 -0.6555  2.8058
   61CHL1    C2 5667   5.038   4.009   3.325 -0.0490  0.0332  0.3936
   61CHL1   H2A 5668   5.031   3.900   3.303  2.3960 -0.4296  1.5687
   61CHL1   H2B 5669   5.147   4.024   3.312 -0.0151 -0.9433 -0.6344
   61CHL1   C20 5670   4.968   4.236   4.238  0.1552 -0.1589 -0.8178
   61CHL1   H20 5671   5.046   4.315   4.247  0.1003 -0.2079  0.2087
   61CHL1   C21 5672   5.049   4.104   4.252  0.0557  0.2036 -0.0451
   61CHL1  H21A 5673   4.980   4.018   4.243 -0.2218  0.6462 -3.3703
   61CHL1  H21B 5674   5.087   4.093   4.356 -2.5429  1.0330  1.0602
   61CHL1  H21C 5675   5.130   4.100   4.176 -1.4058  1.3146 -1.7347
   61CHL1   C22 5676   4.876   4.249   4.361 -0.2630  0.0251 -0.7905
   61CHL1  H22A 5677   4.780   4.200   4.337  0.3003 -0.9194 -1.1542
   61CHL1  H22B 5678   4.916   4.190   4.446 -1.2733 -2.0357 -1.6840
   61CHL1   C23 5679   4.841   4.388   4.415  0.0877  0.1974  0.7377
   61CHL1  H23A 5680   4.776   4.443   4.343  1.5888  2.1444  0.7701
   61CHL1  H23B 5681   4.780   4.370   4.506  1.0217 -2.6420  0.8768
   61CHL1   C24 5682   4.967   4.471   4.460 -0.2710  0.3266 -0.0522
   61CHL1  H24A 5683   5.028   4.496   4.371  0.8877  1.1893  0.9384
   61CHL1  H24B 5684   4.937   4.563   4.516  0.3870  0.8983 -0.6326
   61CHL1   C25 5685   5.061   4.407   4.552 -0.2145  0.2699  0.0495
   61CHL1   H25 5686   5.083   4.301   4.524  1.0523  0.4233  0.3741
   61CHL1   C26 5687   5.195   4.490   4.557 -0.8675 -0.1835 -0.3294
   61CHL1  H26A 5688   5.251   4.477   4.462  1.9967 -3.5162  1.5700
   61CHL1  H26B 5689   5.174   4.595   4.585  0.8350  0.2492 -0.5772
   61CHL1  H26C 5690   5.259   4.451   4.639 -1.0564 -1.0093 -0.5604
   61CHL1   C27 5691   5.008   4.399   4.695  0.1197 -0.1746  0.4186
   61CHL1  H27A 5692   4.897   4.388   4.701 -0.2427  0.7511 -2.7589
   61CHL1  H27B 5693   5.058   4.320   4.754  2.7543  0.4737 -0.7968
   61CHL1  H27C 5694   5.027   4.494   4.749 -0.8816  1.1942 -1.5027
   62CHL1    C3 5695   6.708   6.764   3.475  0.0239  0.4411 -0.2435
   62CHL1    H3 5696   6.765   6.677   3.512  0.1579  1.2459  1.5588
   62CHL1    O3 5697   6.669   6.738   3.340 -0.0760  0.4322  0.2370
   62CHL1   H3' 5698   6.751   6.728   3.291  0.0536 -2.2574  0.8916
   62CHL1    C4 5699   6.575   6.753   3.559 -0.2412  0.0713  0.0794
   62CHL1   H4A 5700   6.512   6.835   3.518 -0.0102  0.2924  0.1640
   62CHL1   H4B 5701   6.528   6.660   3.522  2.2767 -0.5404 -1.9106
   62CHL1    C5 5702   6.605   6.770   3.699 -0.5343  0.0700  0.2173
   62CHL1    C6 5703   6.579   6.678   3.796  0.1622 -0.3578  1.1872
   62CHL1    H6 5704   6.521   6.588   3.772  0.0917  0.4061 -1.8907
   62CHL1    C7 5705   6.608   6.694   3.938 -0.0570 -0.1542 -0.2937
   62CHL1   H7A 5706   6.517   6.662   3.993  0.7106  1.0746  1.8142
   62CHL1   H7B 5707   6.689   6.625   3.967  0.3601  1.2631  2.2906
   62CHL1    C8 5708   6.639   6.836   3.981  0.1725  0.1223 -0.8114
   62CHL1    H8 5709   6.542   6.888   4.001 -0.1791 -0.3252 -1.3210
   62CHL1   C14 5710   6.724   6.841   4.109 -0.2333 -0.3854  0.4605
   62CHL1   H14 5711   6.827   6.800   4.094 -0.3401 -1.1152  1.5698
   62CHL1   C15 5712   6.682   6.757   4.223  0.1204  0.0894 -0.4828
   62CHL1  H15A 5713   6.575   6.784   4.235 -0.2792 -0.8609 -1.6940
   62CHL1  H15B 5714   6.682   6.648   4.202 -0.7410  0.4158 -2.3914
   62CHL1   C16 5715   6.767   6.807   4.341  0.9404 -1.1700 -0.5443
   62CHL1  H16A 5716   6.699   6.820   4.427  1.2166 -0.1485 -0.4734
   62CHL1  H16B 5717   6.851   6.735   4.355  0.5438 -1.5895 -0.2882
   62CHL1   C17 5718   6.829   6.948   4.292  0.1608  0.2549  0.1060
   62CHL1   H17 5719   6.931   6.923   4.257  0.8431 -1.3410  2.9113
   62CHL1   C13 5720   6.745   6.980   4.170 -0.0870 -0.6772 -0.5465
   62CHL1   C18 5721   6.614   7.040   4.224  0.1032  0.8141 -0.2286
   62CHL1  H18A 5722   6.534   7.055   4.147  0.7011  1.1390 -0.7999
   62CHL1  H18B 5723   6.577   6.983   4.311 -0.9860  2.1701  0.2381
   62CHL1  H18C 5724   6.627   7.142   4.267 -0.7951  1.6365 -1.7787
   62CHL1   C12 5725   6.812   7.073   4.067 -0.3295  0.2357 -0.3820
   62CHL1  H12A 5726   6.816   7.180   4.098 -0.5011  0.0775  0.1841
   62CHL1  H12B 5727   6.918   7.039   4.069 -0.2014  0.4309  3.6684
   62CHL1   C11 5728   6.748   7.056   3.927 -1.0865 -0.2486 -0.4776
   62CHL1  H11A 5729   6.655   7.116   3.935 -0.2240  0.9977  0.6365
   62CHL1  H11B 5730   6.814   7.107   3.854  0.4175  0.5749  1.3720
   62CHL1    C9 5731   6.722   6.907   3.881  0.0100 -0.1659 -0.6478
   62CHL1    H9 5732   6.817   6.852   3.865 -1.2251 -2.6306 -0.0709
   62CHL1   C10 5733   6.674   6.897   3.730 -0.0860  0.1145 -0.7647
   62CHL1   C19 5734   6.576   7.021   3.708  0.7342 -0.1434  0.0224
   62CHL1  H19A 5735   6.512   6.994   3.622  0.3620 -0.6994  0.4670
   62CHL1  H19B 5736   6.519   7.045   3.801  0.7789 -0.1875  0.0618
   62CHL1  H19C 5737   6.622   7.116   3.673 -0.0203 -0.2909 -1.4259
   62CHL1    C1 5738   6.802   6.919   3.636 -0.3379 -0.0459 -0.0485
   62CHL1   H1A 5739   6.828   7.025   3.655 -1.3699  0.0098  1.1845
   62CHL1   H1B 5740   6.884   6.853   3.671 -1.4814 -1.2476  0.4541
   62CHL1    C2 5741   6.779   6.899   3.488 -0.1930 -0.3580 -0.1912
   62CHL1   H2A 5742   6.879   6.894   3.438 -0.2181 -0.1185 -0.2650
   62CHL1   H2B 5743   6.708   6.972   3.443 -0.3285  0.0925  0.7211
   62CHL1   C20 5744   6.858   7.041   4.410 -0.0968  0.0084 -0.3434
   62CHL1   H20 5745   6.759   7.062   4.455  0.2699  0.2239  0.3803
   62CHL1   C21 5746   6.931   7.167   4.365 -0.5507 -0.1126 -0.0235
   62CHL1  H21A 5747   6.953   7.237   4.448 -0.5828 -0.0055 -0.1054
   62CHL1  H21B 5748   6.897   7.219   4.273  2.0507 -0.6265 -1.3603
   62CHL1  H21C 5749   7.031   7.132   4.330  0.5448  3.6344 -1.0843
   62CHL1   C22 5750   6.948   6.980   4.518  1.2261 -0.0332  0.0258
   62CHL1  H22A 5751   6.911   6.879   4.542  1.2653 -0.0212  0.1360
   62CHL1  H22B 5752   7.050   6.968   4.474  0.9347 -1.6587 -0.2716
   62CHL1   C23 5753   6.946   7.067   4.643 -0.2035  0.3540 -0.0312
   62CHL1  H23A 5754   6.985   7.168   4.617  0.1098 -0.3392 -2.5507
   62CHL1  H23B 5755   6.843   7.072   4.683 -1.0742 -1.5468 -1.8705
   62CHL1   C24 5756   7.043   7.007   4.757  0.5423 -0.0142  0.7121
   62CHL1  H24A 5757   7.010   6.907   4.793  1.3533 -0.5669 -0.0374
   62CHL1  H24B 5758   7.144   7.003   4.711 -0.2141  1.2347 -1.1862
   62CHL1   C25 5759   7.056   7.109   4.868  0.5969  0.2740 -0.4354
   62CHL1   H25 5760   7.044   7.213   4.829 -1.7085  0.2445  0.0671
   62CHL1   C26 5761   6.931   7.088   4.953 -0.0189 -0.0340  0.0655
   62CHL1  H26A 5762   6.941   7.157   5.040 -1.4412  1.3242 -0.8098
   62CHL1  H26B 5763   6.844   7.121   4.892  0.6173 -0.6503 -1.2169
   62CHL1  H26C 5764   6.911   6.987   4.995 -1.9801 -0.1842 -1.1214
   62CHL1   C27 5765   7.180   7.090   4.954  0.5951 -0.9669 -0.3560
   62CHL1  H27A 5766   7.200   7.180   5.016  0.6734 -0.9119 -0.4621
   62CHL1  H27B 5767   7.180   6.996   5.014  1.6295  0.5578  2.2167
   62CHL1  H27C 5768   7.263   7.092   4.881  0.0554  1.1112 -1.0051
   63CHL1    C3 5769   1.988   6.455   3.645  0.3332  0.0172 -0.2298
   63CHL1    H3 5770   1.983   6.566   3.649 -0.2109  0.0511 -1.4197
   63CHL1    O3 5771   2.014   6.424   3.508 -0.1223  0.1601  0.2127
   63CHL1   H3' 5772   2.060   6.342   3.524  1.6438  1.3800  1.9754
   63CHL1    C4 5773   2.103   6.404   3.729 -0.1616  0.4888 -0.5262
   63CHL1   H4A 5774   2.117   6.295   3.714  0.5525  0.4748  0.1788
   63CHL1   H4B 5775   2.192   6.465   3.701 -0.4152  2.2484  2.0638
   63CHL1    C5 5776   2.066   6.446   3.874 -0.0084 -0.7639  0.6565
   63CHL1    C6 5777   2.144   6.527   3.952 -0.2039 -0.1470 -0.1473
   63CHL1    H6 5778   2.241   6.562   3.912  0.0002 -0.3613  0.1515
   63CHL1    C7 5779   2.111   6.571   4.090  0.8840  0.3734 -0.1073
   63CHL1   H7A 5780   2.191   6.578   4.167  0.3864 -2.5208  0.7668
   63CHL1   H7B 5781   2.062   6.671   4.087  0.9662  0.3991 -0.7466
   63CHL1    C8 5782   2.010   6.470   4.158  0.2996 -0.4590  0.0319
   63CHL1    H8 5783   2.062   6.376   4.187 -1.0793 -1.8501 -1.7212
   63CHL1   C14 5784   1.952   6.543   4.284  0.4104 -0.0618 -0.3690
   63CHL1   H14 5785   1.905   6.638   4.250 -1.4941 -0.3806  1.2367
   63CHL1   C15 5786   2.054   6.577   4.398  0.1159  0.2440 -1.1198
   63CHL1  H15A 5787   2.111   6.487   4.427 -1.4043 -0.5684 -0.5933
   63CHL1  H15B 5788   2.126   6.661   4.382 -1.1820  1.3710 -1.1756
   63CHL1   C16 5789   1.960   6.608   4.517  0.1716 -0.0115  0.1068
   63CHL1  H16A 5790   2.008   6.546   4.596  0.6935 -0.2451 -0.3857
   63CHL1  H16B 5791   1.958   6.709   4.564  0.8006 -1.1365  2.7890
   63CHL1   C17 5792   1.815   6.560   4.472 -0.1805  0.5036  0.0065
   63CHL1   H17 5793   1.778   6.658   4.436 -0.8537  0.7713  1.3808
   63CHL1   C13 5794   1.838   6.464   4.350  0.1341 -0.4182 -0.7049
   63CHL1   C18 5795   1.891   6.326   4.404  0.2577 -0.7591 -0.1264
   63CHL1  H18A 5796   1.805   6.261   4.430 -1.1672  1.8401  2.2440
   63CHL1  H18B 5797   1.954   6.277   4.327  0.7096 -1.2061  0.5165
   63CHL1  H18C 5798   1.960   6.337   4.490  1.0544 -2.2259 -0.5414
   63CHL1   C12 5799   1.724   6.437   4.250  0.2693  0.5663  0.5199
   63CHL1  H12A 5800   1.644   6.388   4.309 -0.1700 -0.2003 -0.6738
   63CHL1  H12B 5801   1.676   6.531   4.216 -0.6473  0.2029  0.7985
   63CHL1   C11 5802   1.777   6.359   4.129  0.2078  0.2548  0.1128
   63CHL1  H11A 5803   1.826   6.265   4.160 -0.3653  0.4586  1.7052
   63CHL1  H11B 5804   1.691   6.334   4.063 -1.5232  1.4539  1.7896
   63CHL1    C9 5805   1.894   6.441   4.063  0.3111  0.5911 -0.0500
   63CHL1    H9 5806   1.840   6.537   4.048 -1.0505 -0.1064  0.1735
   63CHL1   C10 5807   1.937   6.383   3.924 -0.5504  0.8099 -0.3098
   63CHL1   C19 5808   1.949   6.230   3.942 -0.3541 -0.5306  0.3805
   63CHL1  H19A 5809   1.994   6.197   3.846  1.2441  0.2047  0.8356
   63CHL1  H19B 5810   2.015   6.214   4.030  0.8667  2.8066  0.2094
   63CHL1  H19C 5811   1.846   6.191   3.959  0.1528 -1.2996  1.8326
   63CHL1    C1 5812   1.818   6.422   3.829 -0.1217  0.1590  0.1552
   63CHL1   H1A 5813   1.734   6.366   3.873  1.2322 -0.3904  2.1645
   63CHL1   H1B 5814   1.790   6.530   3.827 -1.4815 -0.1771  0.2266
   63CHL1    C2 5815   1.853   6.395   3.679  0.0115  0.1232 -0.7450
   63CHL1   H2A 5816   1.786   6.437   3.601 -0.4446 -0.5163 -0.6979
   63CHL1   H2B 5817   1.861   6.287   3.656  2.9255  0.3366 -1.1574
   63CHL1   C20 5818   1.714   6.516   4.574  0.4447 -0.5227  0.6763
   63CHL1   H20 5819   1.719   6.405   4.583 -1.1623 -0.7942 -1.1407
   63CHL1   C21 5820   1.577   6.569   4.530 -0.3263 -0.3055 -0.2897
   63CHL1  H21A 5821   1.583   6.679   4.515 -0.5947 -0.5000 -2.0129
   63CHL1  H21B 5822   1.504   6.544   4.610 -0.2191  2.1192  0.6828
   63CHL1  H21C 5823   1.543   6.526   4.434 -1.2678  1.1810 -0.6664
   63CHL1   C22 5824   1.743   6.577   4.711  0.0916  0.0523  0.0252
   63CHL1  H22A 5825   1.844   6.544   4.743 -0.3435 -2.4058 -0.9032
   63CHL1  H22B 5826   1.752   6.687   4.702  1.0314  0.0094  0.3800
   63CHL1   C23 5827   1.660   6.522   4.822  0.9680 -0.2857  0.6264
   63CHL1  H23A 5828   1.553   6.521   4.792  0.8712 -1.1846  0.9667
   63CHL1  H23B 5829   1.685   6.414   4.832 -2.1704 -0.9811  2.5831
   63CHL1   C24 5830   1.677   6.585   4.957  0.2620  0.1127  0.1454
   63CHL1  H24A 5831   1.786   6.571   4.977  0.3251 -0.1349 -0.3287
   63CHL1  H24B 5832   1.657   6.694   4.957 -0.4826 -0.0053  1.7587
   63CHL1   C25 5833   1.583   6.522   5.063 -0.2507  0.1262 -0.0870
   63CHL1   H25 5834   1.607   6.413   5.059  2.0245  0.4735  1.9025
   63CHL1   C26 5835   1.614   6.569   5.202 -0.0297  0.2525 -0.1273
   63CHL1  H26A 5836   1.720   6.547   5.226  0.1206 -0.1315 -1.1102
   63CHL1  H26B 5837   1.599   6.678   5.219 -1.6287 -0.0628  0.7645
   63CHL1  H26C 5838   1.557   6.519   5.283  1.4509 -1.1344  0.0987
   63CHL1   C27 5839   1.435   6.542   5.030 -0.6792  0.5504  0.7370
   63CHL1  H27A 5840   1.394   6.477   4.950 -0.1462  1.0166  0.0854
   63CHL1  H27B 5841   1.369   6.525   5.118  0.9906  1.8394  2.3219
   63CHL1  H27C 5842   1.431   6.649   5.003  2.2126  0.3213 -0.9689
   64CHL1    C3 5843   4.810   0.733   3.354  0.1647 -0.3121 -0.0465
   64CHL1    H3 5844   4.840   0.839   3.368  2.2321 -0.9789  1.0825
   64CHL1    O3 5845   4.755   0.727   3.228 -0.3739  0.6043  0.4720
   64CHL1   H3' 5846   4.661   0.746   3.228 -0.6458 -0.3144 -1.9118
   64CHL1    C4 5847   4.929   0.644   3.353  0.1767  0.6859 -0.6399
   64CHL1   H4A 5848   4.907   0.546   3.304 -0.1141  1.4886 -2.1556
   64CHL1   H4B 5849   4.999   0.685   3.278  0.2224 -0.0522 -1.0101
   64CHL1    C5 5850   4.983   0.630   3.497 -0.0959 -0.4518  0.3092
   64CHL1    C6 5851   5.109   0.662   3.517  0.3731 -0.6825  0.3910
   64CHL1    H6 5852   5.172   0.692   3.432 -0.2845 -0.8366 -0.1614
   64CHL1    C7 5853   5.176   0.654   3.647 -0.8883 -0.0200  0.3019
   64CHL1   H7A 5854   5.272   0.599   3.636  0.9267  2.0016  3.9978
   64CHL1   H7B 5855   5.213   0.752   3.685 -0.3090 -0.1098 -0.0096
   64CHL1    C8 5856   5.103   0.578   3.753 -0.3186  0.3161 -0.2148
   64CHL1    H8 5857   5.105   0.470   3.726 -0.1713  0.7608 -2.1168
   64CHL1   C14 5858   5.167   0.606   3.896  0.0302  0.0503  1.0120
   64CHL1   H14 5859   5.154   0.717   3.902  0.1468  0.2431 -1.4488
   64CHL1   C15 5860   5.319   0.577   3.910 -0.0040  0.3276 -0.0454
   64CHL1  H15A 5861   5.345   0.494   3.840 -0.1776  0.7338 -0.5940
   64CHL1  H15B 5862   5.388   0.662   3.893 -0.1371  0.3690 -0.3926
   64CHL1   C16 5863   5.337   0.542   4.066  0.8524  0.2003  0.3626
   64CHL1  H16A 5864   5.375   0.441   4.088  0.6162  0.2605  1.0763
   64CHL1  H16B 5865   5.408   0.608   4.120  2.4412 -1.5199  0.4636
   64CHL1   C17 5866   5.197   0.571   4.134 -0.0480  0.5424  0.0481
   64CHL1   H17 5867   5.184   0.680   4.148 -3.4544 -0.0167  2.2353
   64CHL1   C13 5868   5.100   0.532   4.015  0.0590 -0.3199 -0.2597
   64CHL1   C18 5869   5.099   0.376   4.003  0.1441 -0.6104 -0.5882
   64CHL1  H18A 5870   5.195   0.337   4.041  0.6038  0.5206 -0.5317
   64CHL1  H18B 5871   5.018   0.339   4.069 -0.0796  1.5705  0.4656
   64CHL1  H18C 5872   5.079   0.344   3.898  1.3632 -0.1272 -0.9876
   64CHL1   C12 5873   4.956   0.594   4.015  0.2889  0.3456  0.7527
   64CHL1  H12A 5874   4.894   0.568   4.103  1.1809 -3.9736  0.3126
   64CHL1  H12B 5875   4.977   0.703   4.007  0.6069  0.2512  0.2492
   64CHL1   C11 5876   4.881   0.560   3.878  0.2790  0.7671  0.0254
   64CHL1  H11A 5877   4.869   0.450   3.878  0.1438  0.7120 -2.5758
   64CHL1  H11B 5878   4.778   0.600   3.878  0.8695  2.4020 -0.0744
   64CHL1    C9 5879   4.954   0.614   3.757  0.2976 -0.4767  0.4427
   64CHL1    H9 5880   4.950   0.724   3.774 -1.6911 -0.2963 -0.8375
   64CHL1   C10 5881   4.885   0.586   3.613  0.0457  0.5085  0.1263
   64CHL1   C19 5882   4.848   0.439   3.597  0.3210  0.1609  0.2241
   64CHL1  H19A 5883   4.799   0.404   3.691  3.1464 -2.1557  0.9862
   64CHL1  H19B 5884   4.790   0.425   3.503 -1.3023 -0.2795  1.2301
   64CHL1  H19C 5885   4.943   0.383   3.584 -1.2040 -1.9330 -3.1357
   64CHL1    C1 5886   4.756   0.679   3.597 -0.4989  0.9971 -0.2949
   64CHL1   H1A 5887   4.693   0.638   3.678  0.0015 -1.1119 -0.9193
   64CHL1   H1B 5888   4.794   0.778   3.631  1.4770  0.0774  0.3704
   64CHL1    C2 5889   4.703   0.693   3.454  0.5011 -0.1160 -0.3678
   64CHL1   H2A 5890   4.617   0.763   3.446 -0.3035 -0.9231  0.8076
   64CHL1   H2B 5891   4.659   0.596   3.424  2.1170 -1.0184  0.0794
   64CHL1   C20 5892   5.170   0.497   4.264 -0.1625 -0.5556 -0.9714
   64CHL1   H20 5893   5.191   0.388   4.259  3.1178 -0.0646 -0.2462
   64CHL1   C21 5894   5.023   0.501   4.320  0.0090 -0.9736  0.1289
   64CHL1  H21A 5895   4.949   0.451   4.254 -1.5278 -1.4017  2.0814
   64CHL1  H21B 5896   4.996   0.608   4.329  1.3270 -0.5940 -0.2155
   64CHL1  H21C 5897   5.006   0.461   4.423 -0.2457  1.4757  1.0948
   64CHL1   C22 5898   5.272   0.546   4.368 -0.2719  0.1880 -0.5886
   64CHL1  H22A 5899   5.372   0.523   4.325 -0.8459 -0.5075 -1.5896
   64CHL1  H22B 5900   5.248   0.653   4.385 -0.5484 -0.1629  1.5745
   64CHL1   C23 5901   5.265   0.472   4.498  0.1313  0.3179  0.0339
   64CHL1  H23A 5902   5.170   0.458   4.553  1.1932 -2.4947  1.2984
   64CHL1  H23B 5903   5.285   0.368   4.467 -0.5971 -0.4192  1.9106
   64CHL1   C24 5904   5.376   0.510   4.593 -0.1290 -0.2087  0.7283
   64CHL1  H24A 5905   5.468   0.513   4.531 -0.9121  0.7355 -0.4204
   64CHL1  H24B 5906   5.354   0.608   4.639 -1.0588  0.4850 -1.1032
   64CHL1   C25 5907   5.409   0.409   4.706 -0.6689  0.1727  0.3054
   64CHL1   H25 5908   5.415   0.311   4.655 -3.6154 -0.0534  0.2265
   64CHL1   C26 5909   5.542   0.443   4.764 -0.3636  0.8764 -0.4212
   64CHL1  H26A 5910   5.533   0.529   4.834 -1.4690  1.6925 -1.5107
   64CHL1  H26B 5911   5.601   0.358   4.805  2.5396  2.5935 -0.7508
   64CHL1  H26C 5912   5.609   0.479   4.684 -0.6306  1.9000 -0.2033
   64CHL1   C27 5913   5.300   0.386   4.812  0.0380  0.1964 -0.2325
   64CHL1  H27A 5914   5.257   0.482   4.848  1.3679  0.9557 -0.5943
   64CHL1  H27B 5915   5.224   0.324   4.760  0.4325 -0.8915  0.4442
   64CHL1  H27C 5916   5.344   0.329   4.897 -0.4647 -0.1047 -0.1699
   65CHL1    C3 5917   5.938   0.484   3.325 -0.2735  0.0631 -0.3576
   65CHL1    H3 5918   5.865   0.558   3.364  0.2900 -0.0807  1.0635
   65CHL1    O3 5919   5.922   0.462   3.185  0.6989  0.1410  0.0561
   65CHL1   H3' 5920   5.999   0.413   3.155  1.2124 -0.3916  2.1233
   65CHL1    C4 5921   6.078   0.555   3.359 -0.2749 -0.4372  1.1570
   65CHL1   H4A 5922   6.163   0.502   3.310  0.9245  1.6707  0.8052
   65CHL1   H4B 5923   6.069   0.658   3.317 -4.5535 -1.5795 -1.2794
   65CHL1    C5 5924   6.096   0.563   3.508 -0.2092  0.2507 -0.2537
   65CHL1    C6 5925   6.132   0.672   3.578 -0.4408  0.0924  0.1058
   65CHL1    H6 5926   6.154   0.768   3.529 -1.7438  0.0053 -0.6907
   65CHL1    C7 5927   6.165   0.670   3.721  0.0596 -0.7684 -0.3530
   65CHL1   H7A 5928   6.253   0.736   3.740 -0.8321  1.1134 -2.2843
   65CHL1   H7B 5929   6.083   0.711   3.784  0.3231 -1.4034  0.4225
   65CHL1    C8 5930   6.195   0.525   3.771 -0.1251 -0.1572  0.1251
   65CHL1    H8 5931   6.295   0.493   3.735 -0.1055 -0.5798  0.5496
   65CHL1   C14 5932   6.196   0.538   3.921 -0.1476  0.0991  0.4596
   65CHL1   H14 5933   6.097   0.572   3.959 -0.2874 -0.0143  0.2044
   65CHL1   C15 5934   6.310   0.631   3.985  0.1431  0.6164  0.0312
   65CHL1  H15A 5935   6.413   0.610   3.948 -0.4682 -3.3655  0.1910
   65CHL1  H15B 5936   6.280   0.737   3.970  0.7336  0.4633 -2.7319
   65CHL1   C16 5937   6.289   0.598   4.137 -0.4021 -0.3516  0.4593
   65CHL1  H16A 5938   6.386   0.600   4.190 -0.6169  1.6934  0.8571
   65CHL1  H16B 5939   6.217   0.669   4.183 -1.4101 -0.8601 -0.2740
   65CHL1   C17 5940   6.219   0.459   4.144 -0.0097 -0.0847 -0.2555
   65CHL1   H17 5941   6.113   0.470   4.177  0.3932 -1.0556  1.4447
   65CHL1   C13 5942   6.205   0.408   4.000  0.4374 -0.6845 -0.0462
   65CHL1   C18 5943   6.345   0.346   3.964  0.0211 -0.2643  0.3527
   65CHL1  H18A 5944   6.364   0.336   3.855  2.1913 -1.2078  0.7535
   65CHL1  H18B 5945   6.427   0.407   4.008 -1.1187  1.4014  0.2482
   65CHL1  H18C 5946   6.347   0.243   4.007 -0.2405 -0.6210 -0.4677
   65CHL1   C12 5947   6.090   0.322   3.951  0.2957 -0.0010  0.2605
   65CHL1  H12A 5948   6.097   0.225   4.004 -0.1149  0.4521  1.1682
   65CHL1  H12B 5949   5.995   0.365   3.989  0.4117  0.9801 -0.5227
   65CHL1   C11 5950   6.098   0.301   3.800  0.5583 -0.2313 -0.3516
   65CHL1  H11A 5951   6.186   0.242   3.767  0.2116 -0.6219 -0.5804
   65CHL1  H11B 5952   6.012   0.232   3.786  0.0153  0.4495 -0.4848
   65CHL1    C9 5953   6.080   0.430   3.728  0.0368 -1.0415 -0.8145
   65CHL1    H9 5954   5.986   0.478   3.761  0.3600 -0.8421 -0.1703
   65CHL1   C10 5955   6.077   0.421   3.574  0.3426 -0.6505 -1.3602
   65CHL1   C19 5956   6.198   0.334   3.522  0.0748  0.2480 -0.1065
   65CHL1  H19A 5957   6.183   0.227   3.548  0.5497  0.4066  0.8783
   65CHL1  H19B 5958   6.207   0.338   3.412  0.5537  2.4617 -0.0337
   65CHL1  H19C 5959   6.294   0.371   3.564  0.4446  0.2642 -0.9491
   65CHL1    C1 5960   5.933   0.361   3.541 -0.4858  0.4717 -0.1368
   65CHL1   H1A 5961   5.914   0.265   3.592 -1.6414  1.0602  0.5872
   65CHL1   H1B 5962   5.858   0.434   3.579 -0.1721 -0.7140  3.0291
   65CHL1    C2 5963   5.908   0.349   3.392 -0.6260  0.2273 -0.2081
   65CHL1   H2A 5964   5.804   0.318   3.368 -0.4930  0.7243 -1.4978
   65CHL1   H2B 5965   5.976   0.266   3.360 -0.3790  0.6040 -0.6821
   65CHL1   C20 5966   6.273   0.371   4.256  0.2106 -0.7024 -0.0297
   65CHL1   H20 5967   6.380   0.344   4.244  0.8245  0.9700  1.1535
   65CHL1   C21 5968   6.194   0.239   4.254 -0.6637 -0.0540  0.0489
   65CHL1  H21A 5969   6.231   0.176   4.170 -0.2980  0.2717 -0.0397
   65CHL1  H21B 5970   6.086   0.254   4.235 -0.4378  0.8880 -0.6159
   65CHL1  H21C 5971   6.203   0.180   4.347 -1.6122 -0.3775 -0.0541
   65CHL1   C22 5972   6.289   0.440   4.396  0.3310 -0.4875 -1.1772
   65CHL1  H22A 5973   6.344   0.536   4.384 -1.3729  1.1789  2.6691
   65CHL1  H22B 5974   6.188   0.475   4.426  0.1927 -1.9361  0.1733
   65CHL1   C23 5975   6.359   0.357   4.504  0.2391 -0.1465 -0.0734
   65CHL1  H23A 5976   6.307   0.259   4.510  0.1889 -0.0727  0.9710
   65CHL1  H23B 5977   6.462   0.332   4.471 -0.0392 -2.0531  0.3805
   65CHL1   C24 5978   6.360   0.435   4.635 -0.0372  0.0429  0.5255
   65CHL1  H24A 5979   6.412   0.532   4.624  0.3589 -0.3064 -0.9417
   65CHL1  H24B 5980   6.255   0.464   4.657  0.3180  2.6735 -0.9170
   65CHL1   C25 5981   6.432   0.365   4.753  0.7989  0.0456 -0.2022
   65CHL1   H25 5982   6.363   0.282   4.781 -0.3293  1.1453  0.4250
   65CHL1   C26 5983   6.568   0.308   4.705 -0.2373  0.5698 -0.3628
   65CHL1  H26A 5984   6.548   0.234   4.625 -1.3092  1.7814 -1.2672
   65CHL1  H26B 5985   6.629   0.388   4.658 -1.3018  1.6193 -0.0192
   65CHL1  H26C 5986   6.621   0.261   4.791 -1.6968  1.4606  1.0868
   65CHL1   C27 5987   6.439   0.471   4.864  0.5145  0.9109 -0.2771
   65CHL1  H27A 5988   6.499   0.553   4.819 -0.5256  1.9182  0.1170
   65CHL1  H27B 5989   6.342   0.517   4.892  0.3884 -0.9087  2.5556
   65CHL1  H27C 5990   6.493   0.437   4.954  1.9859 -0.5321 -1.6282
   66CHL1    C3 5991   2.323   0.092   3.222 -0.2023 -0.1056 -0.6719
   66CHL1    H3 5992   2.415   0.033   3.242 -0.4225 -1.6995 -3.8089
   66CHL1    O3 5993   2.291   0.068   3.090  0.2808  0.1952 -0.0244
   66CHL1   H3' 5994   2.205   0.109   3.080 -0.4263 -1.3740 -0.6852
   66CHL1    C4 5995   2.215   0.039   3.315  0.2238  0.3916 -0.0679
   66CHL1   H4A 5996   2.117   0.083   3.286  0.0243 -0.5020 -0.7872
   66CHL1   H4B 5997   2.204  -0.070   3.302 -0.1914  0.3010  0.9024
   66CHL1    C5 5998   2.231   0.062   3.465 -0.7429 -0.0169 -0.3966
   66CHL1    C6 5999   2.217  -0.037   3.561 -0.4294 -0.3612  0.1462
   66CHL1    H6 6000   2.174  -0.134   3.532 -1.9688  0.0803  0.8581
   66CHL1    C7 6001   2.237  -0.010   3.712 -0.1080  0.1563  0.0272
   66CHL1   H7A 6002   2.161  -0.061   3.774  0.0473  0.2727  0.3167
   66CHL1   H7B 6003   2.336  -0.054   3.736 -0.0963 -1.3694 -2.4633
   66CHL1    C8 6004   2.234   0.143   3.744 -0.2031 -0.4022 -0.2446
   66CHL1    H8 6005   2.131   0.181   3.757  0.2487  0.0181  2.6536
   66CHL1   C14 6006   2.303   0.163   3.875 -0.9739 -0.1206  0.0811
   66CHL1   H14 6007   2.407   0.137   3.848 -1.3685  0.7877 -2.5437
   66CHL1   C15 6008   2.250   0.080   3.993  0.1763 -0.0021 -0.9792
   66CHL1  H15A 6009   2.143   0.084   4.025  0.7196  0.4466  0.9030
   66CHL1  H15B 6010   2.278  -0.025   3.971  3.3900  0.9495 -1.8883
   66CHL1   C16 6011   2.327   0.141   4.111 -0.4451 -0.4453  1.0605
   66CHL1  H16A 6012   2.255   0.151   4.194 -2.0923  1.8169 -0.5298
   66CHL1  H16B 6013   2.411   0.070   4.125  1.3884  0.3853 -3.7842
   66CHL1   C17 6014   2.386   0.276   4.064  0.0547 -0.6348 -0.9669
   66CHL1   H17 6015   2.495   0.256   4.052 -0.2413 -2.0439 -1.5920
   66CHL1   C13 6016   2.322   0.307   3.928 -0.5676  0.4808 -0.2735
   66CHL1   C18 6017   2.179   0.369   3.949  0.5509  0.1327 -0.7414
   66CHL1  H18A 6018   2.124   0.310   4.025 -1.8317  0.4256 -2.1467
   66CHL1  H18B 6019   2.189   0.473   3.989 -0.7890 -0.1931  0.5415
   66CHL1  H18C 6020   2.130   0.369   3.850  1.4221  1.7663 -1.2205
   66CHL1   C12 6021   2.409   0.383   3.827 -0.4375 -0.2871  0.6879
   66CHL1  H12A 6022   2.418   0.492   3.848  0.0527 -0.1901 -0.0037
   66CHL1  H12B 6023   2.515   0.351   3.835  0.6696  3.3750  3.8763
   66CHL1   C11 6024   2.355   0.367   3.682  0.1018  0.2527  0.4702
   66CHL1  H11A 6025   2.264   0.431   3.682 -2.1819 -2.7769  1.1034
   66CHL1  H11B 6026   2.432   0.414   3.616 -0.4858 -1.4638 -1.5258
   66CHL1    C9 6027   2.314   0.220   3.636 -0.0294 -0.3886 -0.8635
   66CHL1    H9 6028   2.409   0.163   3.645 -0.3883 -1.0641 -1.2260
   66CHL1   C10 6029   2.268   0.208   3.494  0.5262  0.1049 -0.0916
   66CHL1   C19 6030   2.134   0.276   3.487  0.0598  0.2721  0.0564
   66CHL1  H19A 6031   2.130   0.381   3.523  0.2935 -0.0184  0.9407
   66CHL1  H19B 6032   2.100   0.272   3.381  1.3876  0.8465 -0.4108
   66CHL1  H19C 6033   2.052   0.218   3.535  0.4913 -0.6914 -0.3673
   66CHL1    C1 6034   2.369   0.275   3.391 -0.0153  0.0759  0.6154
   66CHL1   H1A 6035   2.368   0.385   3.405  0.1374 -0.0640  1.8093
   66CHL1   H1B 6036   2.470   0.236   3.417 -0.8666 -1.9206  1.0793
   66CHL1    C2 6037   2.340   0.247   3.239  0.0432 -0.1649 -0.2056
   66CHL1   H2A 6038   2.418   0.289   3.171  2.3104 -2.1015  1.0194
   66CHL1   H2B 6039   2.242   0.292   3.214 -0.5928 -1.6453 -0.5182
   66CHL1   C20 6040   2.380   0.385   4.173  0.1291  0.5585 -0.0753
   66CHL1   H20 6041   2.273   0.383   4.203  0.2050 -0.4497  0.1835
   66CHL1   C21 6042   2.430   0.521   4.122  0.3392 -0.2619 -0.0193
   66CHL1  H21A 6043   2.540   0.537   4.117 -0.1324  3.6980 -1.1389
   66CHL1  H21B 6044   2.391   0.599   4.190  0.2407 -0.0212 -0.3482
   66CHL1  H21C 6045   2.388   0.557   4.025 -0.9969 -1.2251  0.1660
   66CHL1   C22 6046   2.447   0.350   4.312 -0.0723 -0.1418  0.4152
   66CHL1  H22A 6047   2.403   0.249   4.329 -1.6373  0.1800 -1.3275
   66CHL1  H22B 6048   2.557   0.346   4.304  0.0859  1.4453  1.3719
   66CHL1   C23 6049   2.409   0.433   4.436  0.3480  0.4248 -0.7370
   66CHL1  H23A 6050   2.431   0.542   4.428  0.9860  0.4402  0.8767
   66CHL1  H23B 6051   2.305   0.420   4.473  0.9376  0.7515  1.1107
   66CHL1   C24 6052   2.489   0.392   4.561  0.5214  0.5005 -0.8451
   66CHL1  H24A 6053   2.450   0.291   4.586  1.1271  0.6119  0.6640
   66CHL1  H24B 6054   2.598   0.378   4.541  1.8105  3.0392  3.2632
   66CHL1   C25 6055   2.474   0.470   4.692 -0.2092 -0.1171  0.6097
   66CHL1   H25 6056   2.367   0.491   4.712 -0.1129  0.7061  0.3231
   66CHL1   C26 6057   2.538   0.381   4.798  0.1313 -0.4094  0.3661
   66CHL1  H26A 6058   2.641   0.358   4.764 -0.2431 -0.1580 -0.9765
   66CHL1  H26B 6059   2.533   0.445   4.889 -1.9991 -0.0982  0.0944
   66CHL1  H26C 6060   2.482   0.285   4.798 -0.2329 -0.2259  1.6041
   66CHL1   C27 6061   2.556   0.604   4.671  0.2431 -0.3371  0.0292
   66CHL1  H27A 6062   2.536   0.653   4.574  1.1813 -0.4947 -0.2499
   66CHL1  H27B 6063   2.665   0.595   4.692  0.3506 -1.0419 -0.8217
   66CHL1  H27C 6064   2.524   0.669   4.756 -0.2939 -2.4997  1.5587
   67CHL1    C3 6065   1.503   4.139   3.474  0.0539 -0.8179 -0.5196
   67CHL1    H3 6066   1.551   4.239   3.469 -2.0983  0.2390 -1.2757
   67CHL1    O3 6067   1.521   4.081   3.346  0.0048 -1.0319 -0.0534
   67CHL1   H3' 6068   1.603   4.121   3.315 -1.1707  0.9101 -0.7838
   67CHL1    C4 6069   1.557   4.057   3.594 -0.1844 -0.3293 -1.0631
   67CHL1   H4A 6070   1.509   3.957   3.600 -0.2504 -0.2263  0.6081
   67CHL1   H4B 6071   1.663   4.038   3.567  0.7010  0.7341  1.3665
   67CHL1    C5 6072   1.554   4.133   3.721  0.2954 -0.0105  0.1176
   67CHL1    C6 6073   1.651   4.158   3.800 -0.3370  0.1409 -0.0406
   67CHL1    H6 6074   1.747   4.110   3.774  0.1520  0.7479  0.6196
   67CHL1    C7 6075   1.651   4.222   3.935 -0.5841  0.3979  0.0805
   67CHL1   H7A 6076   1.703   4.156   4.009 -1.6418 -1.8438 -1.0565
   67CHL1   H7B 6077   1.702   4.320   3.928  0.8210 -0.4206 -2.8489
   67CHL1    C8 6078   1.507   4.231   3.988 -0.4586 -0.2635 -0.0750
   67CHL1    H8 6079   1.474   4.129   4.017 -0.6089 -0.7204 -1.7798
   67CHL1   C14 6080   1.490   4.330   4.106  0.3612  0.9861 -0.4685
   67CHL1   H14 6081   1.508   4.427   4.055  0.0409  1.4140  0.2181
   67CHL1   C15 6082   1.588   4.313   4.228  0.3591 -0.3252 -0.3824
   67CHL1  H15A 6083   1.583   4.205   4.256 -0.5984 -0.6646 -1.7486
   67CHL1  H15B 6084   1.694   4.335   4.202 -0.1179 -0.5615 -2.8023
   67CHL1   C16 6085   1.520   4.411   4.335 -0.1754 -0.1003  0.9271
   67CHL1  H16A 6086   1.525   4.368   4.437  0.4397  0.0355  0.9543
   67CHL1  H16B 6087   1.577   4.506   4.338 -0.4820  0.4374 -3.5169
   67CHL1   C17 6088   1.369   4.448   4.282 -0.4731 -0.3149  0.1007
   67CHL1   H17 6089   1.384   4.546   4.231 -1.8414 -0.4506 -0.6110
   67CHL1   C13 6090   1.353   4.348   4.170  1.1626  0.1228 -0.1730
   67CHL1   C18 6091   1.296   4.214   4.229 -0.0133 -0.3201  0.1724
   67CHL1  H18A 6092   1.297   4.135   4.151  2.9288 -2.0864  1.8268
   67CHL1  H18B 6093   1.367   4.166   4.300 -0.2178 -2.4904 -1.0229
   67CHL1  H18C 6094   1.194   4.222   4.271 -0.0967  0.1327 -0.1055
   67CHL1   C12 6095   1.260   4.398   4.061 -0.5110 -0.6597 -0.3486
   67CHL1  H12A 6096   1.162   4.419   4.109 -0.5627  0.2512 -0.8202
   67CHL1  H12B 6097   1.298   4.499   4.034  2.2852 -1.5732 -0.1142
   67CHL1   C11 6098   1.258   4.319   3.928 -0.6278 -0.1953  0.1851
   67CHL1  H11A 6099   1.188   4.233   3.945  0.8236 -1.2026  1.3039
   67CHL1  H11B 6100   1.208   4.375   3.845  1.2332 -0.7453 -1.3835
   67CHL1    C9 6101   1.410   4.279   3.877 -0.2903  0.2015 -0.0508
   67CHL1    H9 6102   1.447   4.373   3.832 -0.1856  0.2206  0.0734
   67CHL1   C10 6103   1.411   4.180   3.754  0.2273 -0.1496 -0.4983
   67CHL1   C19 6104   1.321   4.059   3.787 -0.1238  0.1655  0.0710
   67CHL1  H19A 6105   1.216   4.076   3.820 -0.6055 -2.8601  0.3510
   67CHL1  H19B 6106   1.309   3.992   3.700  0.1661 -0.4707  0.5093
   67CHL1  H19C 6107   1.363   3.997   3.869  0.0741 -0.4118 -0.4580
   67CHL1    C1 6108   1.341   4.253   3.635  0.6102  0.3905  1.2077
   67CHL1   H1A 6109   1.233   4.260   3.659  0.8150 -0.6729  2.6304
   67CHL1   H1B 6110   1.382   4.355   3.622  1.2282 -0.1092 -1.2680
   67CHL1    C2 6111   1.352   4.177   3.502 -0.0140  0.5008  0.6780
   67CHL1   H2A 6112   1.316   4.247   3.423  0.0299  0.3282  0.5029
   67CHL1   H2B 6113   1.284   4.089   3.499  2.6776 -1.7171  0.8660
   67CHL1   C20 6114   1.274   4.456   4.394 -0.4860 -0.2315 -0.1914
   67CHL1   H20 6115   1.275   4.359   4.449 -2.2340 -0.7548 -1.0244
   67CHL1   C21 6116   1.126   4.482   4.346  0.5367 -0.3419  1.1273
   67CHL1  H21A 6117   1.113   4.564   4.272 -3.2959 -0.4246  1.5159
   67CHL1  H21B 6118   1.066   4.508   4.435  0.0560  0.2785  0.6348
   67CHL1  H21C 6119   1.079   4.393   4.299 -1.9876  2.1668 -1.5288
   67CHL1   C22 6120   1.308   4.573   4.492  0.4390  0.4190  0.5251
   67CHL1  H22A 6121   1.410   4.562   4.533  0.6583  1.0860  0.1742
   67CHL1  H22B 6122   1.294   4.666   4.433 -1.0495 -0.8690 -1.2851
   67CHL1   C23 6123   1.223   4.590   4.622 -0.3373 -0.0729  0.2891
   67CHL1  H23A 6124   1.133   4.644   4.587 -1.1836 -1.7931 -0.2658
   67CHL1  H23B 6125   1.192   4.497   4.673  0.9858 -0.4457  0.4632
   67CHL1   C24 6126   1.295   4.678   4.724  0.0758  0.5940 -0.3167
   67CHL1  H24A 6127   1.396   4.644   4.753  0.7057  0.5975 -2.3274
   67CHL1  H24B 6128   1.304   4.773   4.667 -1.1860  0.7994 -0.2156
   67CHL1   C25 6129   1.214   4.715   4.859 -0.0546  0.1480  0.5306
   67CHL1   H25 6130   1.261   4.805   4.903  0.2360  0.7304 -0.9123
   67CHL1   C26 6131   1.069   4.748   4.826 -0.1024 -0.2716 -0.3012
   67CHL1  H26A 6132   1.015   4.761   4.923  0.5112  0.5050 -0.0569
   67CHL1  H26B 6133   1.077   4.851   4.786  0.3202  0.9282  2.6106
   67CHL1  H26C 6134   1.022   4.679   4.753  0.8553  1.6513 -2.8775
   67CHL1   C27 6135   1.238   4.603   4.962  0.5512 -0.1167  0.3760
   67CHL1  H27A 6136   1.348   4.593   4.980  0.4554 -0.1832  0.9234
   67CHL1  H27B 6137   1.181   4.622   5.055  0.8877  0.3525  0.4958
   67CHL1  H27C 6138   1.200   4.510   4.916 -1.6064  0.8423  0.1146
   68CHL1    C3 6139   0.520   3.343   3.389 -0.3317  0.5897 -0.6070
   68CHL1    H3 6140   0.465   3.437   3.365  1.9583  2.2266  0.1839
   68CHL1    O3 6141   0.555   3.270   3.269  0.0176 -0.3278  0.6070
   68CHL1   H3' 6142   0.473   3.239   3.229 -0.0642  0.2843  0.2710
   68CHL1    C4 6143   0.647   3.403   3.453 -0.0203  0.5658 -0.9907
   68CHL1   H4A 6144   0.720   3.320   3.461 -1.4363 -0.6490  0.0404
   68CHL1   H4B 6145   0.674   3.470   3.369  0.7213 -1.4154 -2.3965
   68CHL1    C5 6146   0.627   3.478   3.587 -0.5588  0.4236 -0.0865
   68CHL1    C6 6147   0.668   3.604   3.609 -0.1258  0.0182  0.0576
   68CHL1    H6 6148   0.730   3.652   3.532 -0.3394  0.6408  0.2656
   68CHL1    C7 6149   0.652   3.682   3.737  0.2849  0.4656 -0.0019
   68CHL1   H7A 6150   0.754   3.715   3.766  0.1565  1.9250 -1.1010
   68CHL1   H7B 6151   0.584   3.769   3.727  0.7013  0.6805 -1.1537
   68CHL1    C8 6152   0.613   3.581   3.845 -0.3625 -0.0558  0.1558
   68CHL1    H8 6153   0.707   3.536   3.884 -0.9618 -2.5671 -1.0505
   68CHL1   C14 6154   0.548   3.660   3.960 -0.1886 -0.3215 -0.5942
   68CHL1   H14 6155   0.459   3.710   3.916 -0.2432 -1.0408 -1.3156
   68CHL1   C15 6156   0.621   3.787   4.017 -0.9473 -0.1087 -0.6531
   68CHL1  H15A 6157   0.728   3.768   4.041 -1.0485 -0.0613 -0.1387
   68CHL1  H15B 6158   0.613   3.873   3.947 -0.9889  0.3026 -0.1492
   68CHL1   C16 6159   0.549   3.818   4.152  0.1059  0.1975 -1.3131
   68CHL1  H16A 6160   0.618   3.816   4.239 -0.1477  0.2905 -1.1086
   68CHL1  H16B 6161   0.489   3.911   4.140  0.9831  0.5064 -4.0876
   68CHL1   C17 6162   0.444   3.705   4.168  0.2067 -0.8058 -0.2015
   68CHL1   H17 6163   0.359   3.750   4.113 -0.2652  1.2007  2.0050
   68CHL1   C13 6164   0.498   3.593   4.085  0.6855  0.0611 -0.1879
   68CHL1   C18 6165   0.614   3.524   4.158  0.9375 -0.4484  0.1969
   68CHL1  H18A 6166   0.567   3.463   4.238  3.4828  0.2323  2.3402
   68CHL1  H18B 6167   0.664   3.452   4.089 -0.5165  0.1277 -1.5267
   68CHL1  H18C 6168   0.679   3.602   4.203 -0.5332  3.0211 -3.2175
   68CHL1   C12 6169   0.392   3.488   4.038 -0.3397 -0.0984  0.7762
   68CHL1  H12A 6170   0.347   3.429   4.120  0.6232 -1.6321  0.2484
   68CHL1  H12B 6171   0.305   3.539   3.991 -0.4796  1.4300  2.6134
   68CHL1   C11 6172   0.450   3.392   3.929  0.5895  0.5397  0.1221
   68CHL1  H11A 6173   0.533   3.340   3.982 -0.1968  1.3238  2.2612
   68CHL1  H11B 6174   0.378   3.312   3.899  0.9281  0.4585 -0.4930
   68CHL1    C9 6175   0.504   3.477   3.810 -0.1632 -0.3648  0.2195
   68CHL1    H9 6176   0.417   3.540   3.784  0.1248  1.5707  3.4201
   68CHL1   C10 6177   0.556   3.396   3.688  0.1304 -0.4327 -1.0560
   68CHL1   C19 6178   0.665   3.294   3.739  0.0229 -0.1886 -0.2917
   68CHL1  H19A 6179   0.745   3.343   3.799 -0.4977  1.5268 -0.9218
   68CHL1  H19B 6180   0.620   3.218   3.807 -0.5725 -0.2254 -0.7153
   68CHL1  H19C 6181   0.710   3.233   3.659 -0.3776  1.3924 -1.7922
   68CHL1    C1 6182   0.430   3.328   3.625 -0.6907  0.5774 -0.3283
   68CHL1   H1A 6183   0.401   3.248   3.697 -0.2663 -0.7176 -1.5408
   68CHL1   H1B 6184   0.345   3.399   3.612 -0.9083  0.3974  0.0995
   68CHL1    C2 6185   0.455   3.253   3.496 -0.0248  0.2309 -0.6579
   68CHL1   H2A 6186   0.364   3.200   3.460 -0.5957  0.7695 -0.0225
   68CHL1   H2B 6187   0.529   3.173   3.519  0.9608  1.8868  2.4973
   68CHL1   C20 6188   0.385   3.673   4.304 -0.1787 -0.3918 -0.6888
   68CHL1   H20 6189   0.415   3.576   4.348  0.4702  0.0531 -0.1387
   68CHL1   C21 6190   0.233   3.666   4.284 -0.8259 -0.6870 -0.3835
   68CHL1  H21A 6191   0.212   3.775   4.287  3.8707  0.4240  2.3937
   68CHL1  H21B 6192   0.179   3.620   4.369  0.5139  0.5265  1.1713
   68CHL1  H21C 6193   0.205   3.608   4.193  0.3226 -1.2047 -0.4381
   68CHL1   C22 6194   0.427   3.773   4.423  0.4063  0.1034 -1.0699
   68CHL1  H22A 6195   0.535   3.755   4.445  0.7484  3.6948  0.9164
   68CHL1  H22B 6196   0.411   3.875   4.383  2.5895  1.3006  0.8403
   68CHL1   C23 6197   0.356   3.759   4.560 -0.2146 -0.1784  0.0878
   68CHL1  H23A 6198   0.257   3.808   4.545  0.1258  0.0640 -1.5502
   68CHL1  H23B 6199   0.334   3.652   4.577 -1.7988  0.2275  0.8903
   68CHL1   C24 6200   0.441   3.809   4.679 -0.2064  0.5265 -0.3036
   68CHL1  H24A 6201   0.542   3.764   4.665  0.0697  0.9724  0.2375
   68CHL1  H24B 6202   0.451   3.920   4.670 -0.1745  0.5510  0.0275
   68CHL1   C25 6203   0.386   3.772   4.821  0.2014  0.3045 -0.6691
   68CHL1   H25 6204   0.381   3.661   4.823 -1.8942  0.3495  1.5098
   68CHL1   C26 6205   0.488   3.822   4.933 -0.1497  0.1319 -1.0161
   68CHL1  H26A 6206   0.452   3.777   5.027  0.2272  1.8644  0.0030
   68CHL1  H26B 6207   0.585   3.769   4.917  0.0182  0.2631 -0.4642
   68CHL1  H26C 6208   0.493   3.933   4.937  1.1474  0.1023 -1.3191
   68CHL1   C27 6209   0.242   3.824   4.851  0.0274  0.4223 -0.5979
   68CHL1  H27A 6210   0.241   3.928   4.891  1.6243 -0.4293  1.8650
   68CHL1  H27B 6211   0.195   3.814   4.750 -0.4965 -1.5501 -0.1888
   68CHL1  H27C 6212   0.186   3.760   4.922  1.8448  0.1483  0.6567
   69CHL1    C3 6213   3.656   1.676   3.520  0.2413  1.0528 -0.2243
   69CHL1    H3 6214   3.741   1.620   3.565 -0.3082  1.8742  1.9444
   69CHL1    O3 6215   3.643   1.627   3.386 -0.1393  0.2144 -0.1246
   69CHL1   H3' 6216   3.730   1.642   3.349  0.4741 -2.3995  0.0393
   69CHL1    C4 6217   3.533   1.639   3.601  0.3845 -1.7109  0.4637
   69CHL1   H4A 6218   3.441   1.684   3.560  1.0694 -0.5193  0.1847
   69CHL1   H4B 6219   3.520   1.530   3.584 -0.4136 -1.7167  1.0743
   69CHL1    C5 6220   3.551   1.668   3.748 -0.4079  0.0149  0.6547
   69CHL1    C6 6221   3.538   1.574   3.838  0.5031  0.6258  0.5324
   69CHL1    H6 6222   3.502   1.481   3.791 -1.0532  3.3918 -4.4216
   69CHL1    C7 6223   3.546   1.597   3.985  0.1273 -0.5310  0.2294
   69CHL1   H7A 6224   3.455   1.553   4.033  0.7084 -1.5235  0.4541
   69CHL1   H7B 6225   3.632   1.553   4.040  2.4995  2.0971 -1.1181
   69CHL1    C8 6226   3.547   1.750   4.025 -0.2751  0.3575 -0.8472
   69CHL1    H8 6227   3.443   1.788   4.018 -0.5391 -0.1792 -0.0322
   69CHL1   C14 6228   3.602   1.770   4.161  0.2451  0.2109  0.2857
   69CHL1   H14 6229   3.704   1.727   4.161 -0.3369 -1.2020  0.3964
   69CHL1   C15 6230   3.544   1.679   4.274 -0.1982  0.5757 -0.4824
   69CHL1  H15A 6231   3.438   1.710   4.280 -0.0812  1.0414 -0.7301
   69CHL1  H15B 6232   3.562   1.571   4.254 -0.3582  0.3901  0.3798
   69CHL1   C16 6233   3.626   1.730   4.387  0.2281 -0.6077  0.1654
   69CHL1  H16A 6234   3.555   1.743   4.471 -0.0587  1.6053 -0.3546
   69CHL1  H16B 6235   3.704   1.657   4.417 -0.1792 -1.2407 -0.3133
   69CHL1   C17 6236   3.672   1.876   4.355  0.3396 -0.1693  0.2929
   69CHL1   H17 6237   3.782   1.870   4.339 -0.0410 -0.4537 -3.1190
   69CHL1   C13 6238   3.619   1.908   4.210 -0.0890  0.6740  0.4366
   69CHL1   C18 6239   3.479   1.959   4.235 -0.0097 -0.2694  0.2222
   69CHL1  H18A 6240   3.423   1.906   4.315 -0.0937  0.1744  0.4602
   69CHL1  H18B 6241   3.478   2.067   4.258  2.4500 -0.0679 -0.3617
   69CHL1  H18C 6242   3.414   1.938   4.147  0.2121 -1.1294  0.2494
   69CHL1   C12 6243   3.707   1.989   4.117  0.5246 -0.2028 -0.0024
   69CHL1  H12A 6244   3.702   2.097   4.143  1.7336  0.0198 -0.6608
   69CHL1  H12B 6245   3.813   1.961   4.131  0.2237 -0.4557  2.1506
   69CHL1   C11 6246   3.655   1.973   3.977 -0.0251 -0.4057  0.4115
   69CHL1  H11A 6247   3.559   2.029   3.978 -0.2417 -0.7743  0.8620
   69CHL1  H11B 6248   3.716   2.040   3.912 -0.0700  0.9828  1.7489
   69CHL1    C9 6249   3.633   1.828   3.927  0.0018 -0.4703 -0.2752
   69CHL1    H9 6250   3.736   1.787   3.933  0.0232 -0.8846 -2.5035
   69CHL1   C10 6251   3.592   1.814   3.776 -0.3487  0.9578  0.3445
   69CHL1   C19 6252   3.466   1.902   3.759  0.3190 -0.1189  0.0102
   69CHL1  H19A 6253   3.437   1.899   3.651  1.3569  1.1514 -0.3184
   69CHL1  H19B 6254   3.383   1.868   3.825  0.6573 -1.0346 -0.0117
   69CHL1  H19C 6255   3.487   2.006   3.790 -1.2213  0.3699 -0.4745
   69CHL1    C1 6256   3.700   1.860   3.683  0.1647 -0.1303  0.0826
   69CHL1   H1A 6257   3.704   1.971   3.682  0.8734 -0.1543 -0.7811
   69CHL1   H1B 6258   3.792   1.818   3.729 -0.4203  1.3760  2.8804
   69CHL1    C2 6259   3.689   1.827   3.534  0.5723  0.3889  0.3000
   69CHL1   H2A 6260   3.781   1.858   3.479  0.6889 -1.1103 -0.3853
   69CHL1   H2B 6261   3.604   1.880   3.487  1.0017 -0.3632 -1.4292
   69CHL1   C20 6262   3.647   1.976   4.463 -0.6762 -0.3378 -0.6354
   69CHL1   H20 6263   3.539   1.970   4.490 -0.4575 -0.9106  0.1619
   69CHL1   C21 6264   3.690   2.119   4.418  0.1336  0.5063  0.0485
   69CHL1  H21A 6265   3.668   2.192   4.498 -0.8769  1.1668 -0.8078
   69CHL1  H21B 6266   3.643   2.159   4.326  0.2744  1.9027  0.5572
   69CHL1  H21C 6267   3.799   2.131   4.400  0.6970  0.0328  2.7051
   69CHL1   C22 6268   3.717   1.937   4.593  0.6439 -0.0917 -0.5758
   69CHL1  H22A 6269   3.721   2.027   4.659 -2.4695  1.8104 -2.7210
   69CHL1  H22B 6270   3.653   1.854   4.628  0.7852  0.1799  0.3508
   69CHL1   C23 6271   3.853   1.874   4.587 -0.9283 -0.3270 -0.1273
   69CHL1  H23A 6272   3.856   1.779   4.529 -2.3482 -0.9671  0.7922
   69CHL1  H23B 6273   3.917   1.955   4.546 -1.9275  0.1976 -0.6720
   69CHL1   C24 6274   3.914   1.832   4.730  0.1520  0.2418 -0.1518
   69CHL1  H24A 6275   4.024   1.829   4.713  0.1357  0.1272 -0.2415
   69CHL1  H24B 6276   3.897   1.922   4.792 -0.3475 -0.7290  1.1571
   69CHL1   C25 6277   3.850   1.711   4.796  0.7473  0.1281  0.2671
   69CHL1   H25 6278   3.743   1.732   4.773  0.6312  3.4597  3.0627
   69CHL1   C26 6279   3.897   1.575   4.735  0.7750 -0.6039 -0.2664
   69CHL1  H26A 6280   3.878   1.573   4.625  1.0793 -1.3614 -0.3113
   69CHL1  H26B 6281   4.005   1.563   4.756  0.6512 -0.3695  0.5147
   69CHL1  H26C 6282   3.841   1.487   4.775 -0.7149  0.7943  0.8321
   69CHL1   C27 6283   3.869   1.706   4.942  0.7046 -0.4542 -0.0308
   69CHL1  H27A 6284   3.789   1.646   4.990  1.1287 -1.3948 -0.4709
   69CHL1  H27B 6285   3.973   1.673   4.965  0.5242 -0.9670  0.0706
   69CHL1  H27C 6286   3.851   1.804   4.991 -1.3850 -0.8422  0.0453
   70CHL1    C3 6287   3.605   4.573   3.158  0.1460  0.0618  0.0864
   70CHL1    H3 6288   3.551   4.669   3.154 -0.0209 -0.0549 -0.9582
   70CHL1    O3 6289   3.613   4.540   3.023  0.0948 -0.9036  0.4537
   70CHL1   H3' 6290   3.640   4.448   3.027  0.9258 -0.7437 -0.8114
   70CHL1    C4 6291   3.740   4.581   3.229 -0.4072 -0.6227 -0.4739
   70CHL1   H4A 6292   3.775   4.476   3.223 -0.0340 -0.5355  0.0692
   70CHL1   H4B 6293   3.810   4.647   3.174 -0.8732  0.1718 -0.1362
   70CHL1    C5 6294   3.732   4.626   3.373  0.3900  0.8698 -0.3272
   70CHL1    C6 6295   3.783   4.744   3.404 -0.1727 -0.0394  0.0559
   70CHL1    H6 6296   3.840   4.808   3.335 -0.6196 -0.0333 -0.3191
   70CHL1    C7 6297   3.758   4.805   3.541  0.4985 -0.4409 -1.0544
   70CHL1   H7A 6298   3.854   4.850   3.573 -0.7056  0.3101  1.8243
   70CHL1   H7B 6299   3.674   4.877   3.535 -0.4678 -1.4430  0.0816
   70CHL1    C8 6300   3.713   4.705   3.655 -0.1960 -0.5068  0.4708
   70CHL1    H8 6301   3.806   4.645   3.667  1.3688  1.8659  0.9047
   70CHL1   C14 6302   3.671   4.775   3.787  0.2424  0.6979 -0.1504
   70CHL1   H14 6303   3.581   4.838   3.766 -1.2896 -1.6136 -1.0181
   70CHL1   C15 6304   3.780   4.857   3.862  0.1135 -0.4725 -0.2929
   70CHL1  H15A 6305   3.876   4.803   3.876 -0.0561 -1.5797 -2.7948
   70CHL1  H15B 6306   3.809   4.943   3.798  0.9772 -1.0262 -0.6678
   70CHL1   C16 6307   3.708   4.882   4.001  0.5846  0.6357 -0.1789
   70CHL1  H16A 6308   3.776   4.874   4.088  0.1079 -1.7592  0.0395
   70CHL1  H16B 6309   3.668   4.985   3.991  0.8469  0.5740 -2.6152
   70CHL1   C17 6310   3.582   4.781   4.011  0.2503 -1.1400  0.3857
   70CHL1   H17 6311   3.493   4.842   3.984 -0.0704 -0.9155  1.8299
   70CHL1   C13 6312   3.608   4.681   3.891 -0.6093 -0.6517 -0.0700
   70CHL1   C18 6313   3.723   4.578   3.929 -0.5199  0.0355 -0.2010
   70CHL1  H18A 6314   3.671   4.501   3.989 -3.2911  3.0359  1.5740
   70CHL1  H18B 6315   3.766   4.531   3.838 -0.3685  0.9640 -0.6150
   70CHL1  H18C 6316   3.812   4.623   3.979  1.1738 -1.3014 -1.8598
   70CHL1   C12 6317   3.482   4.623   3.829 -0.0288 -0.0944 -1.0328
   70CHL1  H12A 6318   3.435   4.554   3.902  2.0499 -1.4499 -0.8722
   70CHL1  H12B 6319   3.416   4.707   3.801 -0.9463 -0.1555  0.8404
   70CHL1   C11 6320   3.517   4.542   3.703 -0.4745  0.4830 -0.7681
   70CHL1  H11A 6321   3.589   4.463   3.732  0.2833  1.3791 -0.1427
   70CHL1  H11B 6322   3.423   4.494   3.669 -1.3223  0.1479  1.8389
   70CHL1    C9 6323   3.597   4.622   3.594  0.4261  0.5610 -0.1128
   70CHL1    H9 6324   3.526   4.699   3.558 -0.9356  0.6421  2.5672
   70CHL1   C10 6325   3.636   4.543   3.462  0.3389 -0.7887  0.5397
   70CHL1   C19 6326   3.713   4.413   3.488 -0.9655  1.2894  0.3346
   70CHL1  H19A 6327   3.730   4.353   3.396  0.1688 -0.0580  1.3863
   70CHL1  H19B 6328   3.816   4.440   3.519 -0.6869  1.4895 -0.7096
   70CHL1  H19C 6329   3.655   4.348   3.557  0.0976 -1.2548 -1.0371
   70CHL1    C1 6330   3.508   4.513   3.386  0.2294  0.0381 -0.1478
   70CHL1   H1A 6331   3.465   4.424   3.438  2.7012 -0.9071  0.3822
   70CHL1   H1B 6332   3.437   4.599   3.395  0.2469 -0.0103  0.5695
   70CHL1    C2 6333   3.510   4.476   3.239  0.0001  0.1608  0.1811
   70CHL1   H2A 6334   3.411   4.472   3.189 -0.3374  0.8936  0.7688
   70CHL1   H2B 6335   3.560   4.377   3.239 -3.3743 -1.7186 -0.7677
   70CHL1   C20 6336   3.558   4.715   4.150 -0.6131 -0.6268 -0.1907
   70CHL1   H20 6337   3.592   4.609   4.149  0.7819 -0.2154  0.3511
   70CHL1   C21 6338   3.410   4.705   4.180 -0.0746  0.5082  0.0336
   70CHL1  H21A 6339   3.379   4.803   4.222 -1.9226  0.8978 -2.0571
   70CHL1  H21B 6340   3.400   4.626   4.258 -3.1099 -0.6659 -1.3888
   70CHL1  H21C 6341   3.352   4.677   4.089 -2.2817 -3.4187  2.3943
   70CHL1   C22 6342   3.634   4.778   4.273 -0.0749  0.3295  0.2195
   70CHL1  H22A 6343   3.742   4.768   4.249 -0.0148  1.5349 -0.1044
   70CHL1  H22B 6344   3.605   4.885   4.277  1.8211  0.8724  0.6162
   70CHL1   C23 6345   3.621   4.704   4.411 -0.3935 -0.3045  0.0038
   70CHL1  H23A 6346   3.516   4.687   4.441 -0.0121 -0.4453  1.3439
   70CHL1  H23B 6347   3.668   4.603   4.401  2.9411  1.2344 -1.3664
   70CHL1   C24 6348   3.699   4.771   4.524  0.6487  0.8092  0.1969
   70CHL1  H24A 6349   3.728   4.700   4.605  2.2277  0.6666 -0.4641
   70CHL1  H24B 6350   3.790   4.812   4.476  0.7036  1.4688  0.8383
   70CHL1   C25 6351   3.621   4.880   4.605  0.4742  0.4369 -0.4903
   70CHL1   H25 6352   3.600   4.967   4.539 -1.9907  0.4737  0.2503
   70CHL1   C26 6353   3.491   4.817   4.668 -0.5380 -0.3851  0.0733
   70CHL1  H26A 6354   3.516   4.721   4.718  0.7479 -0.0710  0.0624
   70CHL1  H26B 6355   3.436   4.880   4.741 -3.0541 -1.9034 -0.3847
   70CHL1  H26C 6356   3.422   4.801   4.583  0.8660  0.2014 -1.2245
   70CHL1   C27 6357   3.715   4.928   4.713 -0.1756 -0.4790  0.4756
   70CHL1  H27A 6358   3.793   4.988   4.662 -0.9982  0.2754  0.0801
   70CHL1  H27B 6359   3.649   4.986   4.780 -1.1677 -0.2979 -0.6244
   70CHL1  H27C 6360   3.765   4.849   4.773  1.2265  0.2753  0.3524
   71CHL1    C3 6361   6.319   4.138   3.528  0.9826  0.7294  0.1942
   71CHL1    H3 6362   6.416   4.135   3.582  1.2519  0.2298 -0.2974
   71CHL1    O3 6363   6.344   4.126   3.387  0.1284  0.9560 -0.0158
   71CHL1   H3' 6364   6.265   4.124   3.333 -0.0403  0.2619  0.2492
   71CHL1    C4 6365   6.241   4.016   3.580  0.0839 -0.2005 -0.1447
   71CHL1   H4A 6366   6.149   4.003   3.518  0.4410 -2.1450 -0.3104
   71CHL1   H4B 6367   6.303   3.924   3.571  0.2926  0.0206 -1.1451
   71CHL1    C5 6368   6.196   4.042   3.729 -0.0738 -0.3597  0.5963
   71CHL1    C6 6369   6.224   3.954   3.829  0.2483 -0.5226 -0.1171
   71CHL1    H6 6370   6.268   3.856   3.806  1.3045 -0.1815  0.4173
   71CHL1    C7 6371   6.171   3.977   3.967 -0.3553 -0.9007  0.2515
   71CHL1   H7A 6372   6.121   3.881   3.997  0.1778 -1.4585 -0.6181
   71CHL1   H7B 6373   6.258   3.996   4.033  0.8187  1.0135 -1.7151
   71CHL1    C8 6374   6.071   4.100   3.987 -0.4192 -0.3914  0.2773
   71CHL1    H8 6375   5.975   4.078   3.937 -0.1899  0.6852 -0.6895
   71CHL1   C14 6376   6.057   4.139   4.131 -0.4477  0.0405  0.0798
   71CHL1   H14 6377   6.162   4.160   4.160 -0.5929  2.8282 -1.0349
   71CHL1   C15 6378   6.005   4.037   4.228  0.3314  0.2702  0.1279
   71CHL1  H15A 6379   5.916   3.982   4.190  0.3669  0.1299  0.2458
   71CHL1  H15B 6380   6.080   3.957   4.249  0.9859  0.7860 -0.2147
   71CHL1   C16 6381   5.984   4.116   4.354  0.4350  0.0514  0.7936
   71CHL1  H16A 6382   5.919   4.072   4.432  0.9483 -0.8765  0.7129
   71CHL1  H16B 6383   6.078   4.108   4.414  0.8669 -0.6819  0.0419
   71CHL1   C17 6384   5.964   4.263   4.306 -0.3881 -0.2632  0.0161
   71CHL1   H17 6385   6.048   4.326   4.343  0.0450 -1.1792  0.6306
   71CHL1   C13 6386   5.974   4.266   4.151  0.4622 -0.3821 -0.2956
   71CHL1   C18 6387   5.839   4.247   4.086  0.4701  0.8536 -0.3903
   71CHL1  H18A 6388   5.765   4.326   4.109  0.3932  0.3140  1.3144
   71CHL1  H18B 6389   5.852   4.262   3.976  1.5072 -0.1339 -0.4106
   71CHL1  H18C 6390   5.803   4.146   4.114  1.9899  0.7852  1.4645
   71CHL1   C12 6391   6.047   4.382   4.085  0.7632  0.4502  0.0802
   71CHL1  H12A 6392   5.994   4.475   4.114 -0.2704 -0.1257  0.0885
   71CHL1  H12B 6393   6.151   4.384   4.126  0.6528 -0.2023  0.4067
   71CHL1   C11 6394   6.065   4.360   3.928 -0.8483  0.2418  0.3667
   71CHL1  H11A 6395   5.966   4.379   3.881 -0.1983  2.9881 -0.0652
   71CHL1  H11B 6396   6.129   4.441   3.888  0.3392 -1.8454 -2.1470
   71CHL1    C9 6397   6.125   4.218   3.902 -0.3307 -0.2637  0.3160
   71CHL1    H9 6398   6.228   4.237   3.939  0.2508 -2.1110 -0.2373
   71CHL1   C10 6399   6.133   4.176   3.757 -0.3664 -0.5271  0.4987
   71CHL1   C19 6400   5.989   4.163   3.696  1.0320 -0.2389  0.2539
   71CHL1  H19A 6401   6.001   4.151   3.586  1.5691 -0.3448  0.3213
   71CHL1  H19B 6402   5.936   4.070   3.725 -0.9269  1.1669  1.3795
   71CHL1  H19C 6403   5.910   4.238   3.718 -1.4240 -2.7382  0.5124
   71CHL1    C1 6404   6.219   4.291   3.686  0.5674  0.4640 -0.1571
   71CHL1   H1A 6405   6.164   4.387   3.688 -0.5999 -0.1373 -1.6985
   71CHL1   H1B 6406   6.316   4.294   3.739  0.2135 -1.6289  0.7407
   71CHL1    C2 6407   6.250   4.268   3.541 -0.4574  0.3132 -0.1285
   71CHL1   H2A 6408   6.314   4.353   3.509 -0.2855  0.3807  0.3958
   71CHL1   H2B 6409   6.153   4.271   3.487 -0.6999 -1.4924  0.1539
   71CHL1   C20 6410   5.848   4.332   4.374  0.1425  0.1423 -0.6315
   71CHL1   H20 6411   5.750   4.289   4.344 -0.1949  0.3077  0.1879
   71CHL1   C21 6412   5.849   4.482   4.340  0.6792 -0.3655  0.2567
   71CHL1  H21A 6413   5.943   4.527   4.378 -1.1243  2.0888  2.1664
   71CHL1  H21B 6414   5.771   4.534   4.401 -0.2019  1.8222 -2.5022
   71CHL1  H21C 6415   5.824   4.499   4.233  2.0206  1.4270  0.1830
   71CHL1   C22 6416   5.834   4.322   4.530  0.1757  0.4466 -0.7127
   71CHL1  H22A 6417   5.740   4.374   4.560  1.4417  2.4205  0.0589
   71CHL1  H22B 6418   5.826   4.214   4.553 -1.6609  0.4262 -1.3442
   71CHL1   C23 6419   5.941   4.387   4.609  0.5769  0.5162 -0.2189
   71CHL1  H23A 6420   6.032   4.336   4.570 -0.4787 -3.3838  1.7993
   71CHL1  H23B 6421   5.949   4.497   4.597 -0.7819  0.5615 -0.8408
   71CHL1   C24 6422   5.949   4.362   4.757  0.0226  0.0822 -0.2504
   71CHL1  H24A 6423   5.965   4.255   4.781 -1.2943  0.3218  1.9589
   71CHL1  H24B 6424   6.040   4.417   4.788 -0.8904 -0.6931  4.5655
   71CHL1   C25 6425   5.834   4.416   4.840  0.7162  0.3294  0.5517
   71CHL1   H25 6426   5.744   4.375   4.789  1.9391 -0.3059 -1.1800
   71CHL1   C26 6427   5.832   4.355   4.982 -0.4987  0.3848  0.2129
   71CHL1  H26A 6428   5.812   4.245   4.979 -0.2725  0.3704 -1.3024
   71CHL1  H26B 6429   5.932   4.354   5.031  0.1305 -1.4802 -0.9761
   71CHL1  H26C 6430   5.753   4.403   5.044  0.5595 -2.2948  4.0344
   71CHL1   C27 6431   5.825   4.567   4.856  0.2909  0.1009  0.1563
   71CHL1  H27A 6432   5.922   4.602   4.898  0.7654 -1.6627  0.6162
   71CHL1  H27B 6433   5.804   4.610   4.756 -1.5060 -0.0064  0.4600
   71CHL1  H27C 6434   5.740   4.587   4.925  0.4286 -0.5649  0.5267
   72CHL1    C3 6435   2.898   0.162   3.314 -0.2073 -0.1260 -0.0481
   72CHL1    H3 6436   2.894   0.272   3.301 -1.2293 -0.1317  0.1212
   72CHL1    O3 6437   2.905   0.112   3.181  0.6515 -0.2142  0.4847
   72CHL1   H3' 6438   2.917   0.017   3.185  1.0231 -0.1608  0.6850
   72CHL1    C4 6439   3.018   0.110   3.401 -0.0307  0.4646 -0.2438
   72CHL1   H4A 6440   3.018  -0.001   3.396 -0.6899  0.4194  0.4930
   72CHL1   H4B 6441   3.114   0.157   3.371 -0.8707  3.1124  0.9114
   72CHL1    C5 6442   3.005   0.145   3.544  0.1198  0.2263 -0.2503
   72CHL1    C6 6443   3.099   0.227   3.601 -0.0213  0.7825  0.6415
   72CHL1    H6 6444   3.189   0.255   3.545 -0.1090 -0.6043 -0.2689
   72CHL1    C7 6445   3.102   0.249   3.747 -0.3193 -0.5857  0.1912
   72CHL1   H7A 6446   3.205   0.230   3.784  0.5895  1.9260 -0.7843
   72CHL1   H7B 6447   3.070   0.353   3.772 -0.8123 -0.8844  0.8354
   72CHL1    C8 6448   3.004   0.152   3.813 -0.0692 -0.0545 -0.2920
   72CHL1    H8 6449   3.051   0.052   3.801  0.9680  0.5282 -1.1001
   72CHL1   C14 6450   3.003   0.189   3.962 -0.3719  0.3160 -0.2507
   72CHL1   H14 6451   2.974   0.296   3.965  1.7590  0.9227  2.4735
   72CHL1   C15 6452   3.134   0.182   4.031  0.0890  0.1276  0.1648
   72CHL1  H15A 6453   3.189   0.091   4.001  0.3202  0.2895  0.0935
   72CHL1  H15B 6454   3.195   0.274   4.016 -0.8225  1.1345  2.2424
   72CHL1   C16 6455   3.109   0.163   4.183 -0.1659  0.2249 -0.1577
   72CHL1  H16A 6456   3.152   0.065   4.211  0.5568  0.3359 -0.8486
   72CHL1  H16B 6457   3.145   0.242   4.253  0.9737 -2.5913  2.6570
   72CHL1   C17 6458   2.949   0.149   4.191  0.7724 -0.4061 -0.0439
   72CHL1   H17 6459   2.909   0.252   4.193 -2.5017 -1.5637 -0.0810
   72CHL1   C13 6460   2.905   0.109   4.051 -0.0267  0.0829  0.6476
   72CHL1   C18 6461   2.938  -0.044   4.028 -0.5896 -0.0921  0.0789
   72CHL1  H18A 6462   2.883  -0.112   4.097  0.1692 -0.4347  0.3557
   72CHL1  H18B 6463   2.911  -0.067   3.923  0.6201 -0.8418 -0.0850
   72CHL1  H18C 6464   3.041  -0.078   4.051 -0.9059 -0.3810  1.1216
   72CHL1   C12 6465   2.769   0.148   3.992  0.4267 -0.2803  0.6584
   72CHL1  H12A 6466   2.685   0.096   4.043 -0.7782  1.4870  0.5687
   72CHL1  H12B 6467   2.759   0.257   4.013  2.6847 -0.2682  1.9766
   72CHL1   C11 6468   2.748   0.110   3.848  0.1480 -0.3399 -0.0017
   72CHL1  H11A 6469   2.728   0.001   3.843 -0.8531 -0.3632  2.6172
   72CHL1  H11B 6470   2.654   0.156   3.811  0.6866  1.6266  0.9095
   72CHL1    C9 6471   2.863   0.158   3.752 -0.5755  0.6159 -0.4770
   72CHL1    H9 6472   2.845   0.267   3.738  3.2057  1.3400 -0.9182
   72CHL1   C10 6473   2.875   0.085   3.612  0.8336  0.7034 -0.4053
   72CHL1   C19 6474   2.860  -0.063   3.630 -1.0487 -0.2870 -1.1463
   72CHL1  H19A 6475   2.919  -0.104   3.714 -0.6129  2.3960 -0.0520
   72CHL1  H19B 6476   2.754  -0.077   3.662 -0.9858  2.2989  0.4333
   72CHL1  H19C 6477   2.875  -0.113   3.532  1.1608  0.6129 -1.3128
   72CHL1    C1 6478   2.759   0.143   3.530 -0.4838  0.2080  0.4385
   72CHL1   H1A 6479   2.658   0.117   3.571  0.0308  1.1204  2.4432
   72CHL1   H1B 6480   2.767   0.252   3.548  3.6841  0.2213 -0.6326
   72CHL1    C2 6481   2.767   0.108   3.381  0.4250 -0.1869  0.8491
   72CHL1   H2A 6482   2.682   0.154   3.326 -0.2793 -0.4137  1.7230
   72CHL1   H2B 6483   2.759  -0.002   3.368  0.1117 -0.2315  1.3853
   72CHL1   C20 6484   2.900   0.076   4.310  0.3546 -0.5282 -0.5223
   72CHL1   H20 6485   2.930  -0.031   4.304 -3.0486 -1.5708 -0.9783
   72CHL1   C21 6486   2.747   0.066   4.319 -0.0588 -0.5535 -0.1364
   72CHL1  H21A 6487   2.703   0.016   4.230 -2.9009  1.1870  0.1747
   72CHL1  H21B 6488   2.688   0.159   4.325 -0.0150  0.1219 -5.4884
   72CHL1  H21C 6489   2.708   0.010   4.407  0.8028  0.3997  0.8882
   72CHL1   C22 6490   2.942   0.135   4.449 -0.9775  0.3470 -0.0598
   72CHL1  H22A 6491   3.052   0.118   4.455 -0.3031  2.3690 -3.6887
   72CHL1  H22B 6492   2.934   0.245   4.436 -2.0331  0.5171  1.7780
   72CHL1   C23 6493   2.871   0.102   4.579 -0.1953  0.2136  0.6548
   72CHL1  H23A 6494   2.768   0.144   4.575 -0.8820 -1.4671 -0.3881
   72CHL1  H23B 6495   2.855  -0.007   4.569  0.3543  0.2891 -1.5880
   72CHL1   C24 6496   2.953   0.130   4.708 -0.4692 -0.4699 -0.0917
   72CHL1  H24A 6497   3.057   0.093   4.690 -0.5933 -0.4424 -0.9108
   72CHL1  H24B 6498   2.955   0.240   4.724  1.8265 -0.7163  1.9287
   72CHL1   C25 6499   2.904   0.060   4.833  0.2050  0.1032 -0.4732
   72CHL1   H25 6500   2.891  -0.050   4.818 -0.8910 -0.3322  2.9148
   72CHL1   C26 6501   3.007   0.074   4.945 -0.6223 -0.6752 -0.2679
   72CHL1  H26A 6502   2.974   0.018   5.035 -0.0351  0.8250  0.9346
   72CHL1  H26B 6503   3.105   0.037   4.908 -0.5713  1.6179 -2.7177
   72CHL1  H26C 6504   3.021   0.181   4.973  0.2565 -1.3673  2.2054
   72CHL1   C27 6505   2.760   0.108   4.880  0.1528 -0.2169 -0.5627
   72CHL1  H27A 6506   2.765   0.216   4.903 -0.5701 -0.0134 -1.2998
   72CHL1  H27B 6507   2.688   0.094   4.796 -0.3360 -1.7576  0.0720
   72CHL1  H27C 6508   2.728   0.053   4.971  0.1253  0.7058 -0.0063
   73CHL1    C3 6509   3.301   5.036   3.282  0.7834 -0.1259 -0.0490
   73CHL1    H3 6510   3.321   5.145   3.280 -0.1012  0.0410  0.1547
   73CHL1    O3 6511   3.308   4.976   3.154  0.4083  0.1388  0.1889
   73CHL1   H3' 6512   3.283   4.885   3.171  0.3985  0.3649  1.4633
   73CHL1    C4 6513   3.402   4.976   3.383  0.2107 -0.2124  0.7204
   73CHL1   H4A 6514   3.401   4.865   3.382 -1.1976 -0.2148 -0.6395
   73CHL1   H4B 6515   3.497   5.021   3.347 -1.3047  1.0063 -2.0762
   73CHL1    C5 6516   3.380   5.024   3.528  0.0278  0.8019  0.5031
   73CHL1    C6 6517   3.478   5.094   3.584  0.6020  0.0566  0.6773
   73CHL1    H6 6518   3.575   5.108   3.534 -1.0794  3.1861 -2.1932
   73CHL1    C7 6519   3.468   5.131   3.734 -0.3343  0.5099  1.0632
   73CHL1   H7A 6520   3.557   5.085   3.782 -0.1775 -1.8540 -1.2384
   73CHL1   H7B 6521   3.486   5.241   3.730 -2.3980  0.8611  0.1959
   73CHL1    C8 6522   3.338   5.088   3.804  0.2259 -0.2917 -0.4911
   73CHL1    H8 6523   3.346   4.981   3.832 -1.0613 -0.5519 -1.0428
   73CHL1   C14 6524   3.311   5.169   3.926 -0.3378  0.2980 -0.5653
   73CHL1   H14 6525   3.280   5.268   3.886  1.3035  0.4450 -1.6124
   73CHL1   C15 6526   3.421   5.190   4.034  0.3377 -0.4158 -0.2671
   73CHL1  H15A 6527   3.495   5.109   4.048  2.7491  1.6938 -0.0561
   73CHL1  H15B 6528   3.492   5.265   3.993  1.8433 -0.7595  1.5642
   73CHL1   C16 6529   3.352   5.225   4.164 -0.2914  0.2708  0.3580
   73CHL1  H16A 6530   3.377   5.167   4.255  0.2507  0.9794  0.6778
   73CHL1  H16B 6531   3.378   5.330   4.190  3.7236 -0.8569  1.7865
   73CHL1   C17 6532   3.205   5.207   4.131  0.4983 -0.0574 -0.0463
   73CHL1   H17 6533   3.178   5.311   4.102  1.4900  0.5228  1.0366
   73CHL1   C13 6534   3.189   5.117   4.006 -0.4074 -0.1894 -0.4969
   73CHL1   C18 6535   3.214   4.965   4.048  0.0002 -0.7246  0.3911
   73CHL1  H18A 6536   3.302   4.957   4.115  2.0017  1.6906 -1.7404
   73CHL1  H18B 6537   3.123   4.939   4.105 -0.0386 -1.8813 -0.1681
   73CHL1  H18C 6538   3.222   4.889   3.966 -0.4549  0.9766 -1.2960
   73CHL1   C12 6539   3.067   5.138   3.921  0.4386 -0.0824 -1.0401
   73CHL1  H12A 6540   2.971   5.111   3.969  1.3193  0.8030  1.3312
   73CHL1  H12B 6541   3.070   5.243   3.884  0.3633 -0.2800 -1.6294
   73CHL1   C11 6542   3.078   5.052   3.788  0.2209  0.5087  0.2943
   73CHL1  H11A 6543   3.057   4.944   3.804 -0.1832  0.6434  0.6773
   73CHL1  H11B 6544   2.989   5.078   3.726  1.0073 -0.3180 -1.2541
   73CHL1    C9 6545   3.213   5.091   3.713  0.1697  0.2147  0.2338
   73CHL1    H9 6546   3.194   5.195   3.680 -1.1448  0.1319  0.6468
   73CHL1   C10 6547   3.236   5.009   3.586 -0.2818  0.3590  0.1803
   73CHL1   C19 6548   3.209   4.853   3.614  0.3653 -0.7263 -0.1836
   73CHL1  H19A 6549   3.234   4.805   3.517  1.8247 -0.3467 -0.0259
   73CHL1  H19B 6550   3.286   4.824   3.689 -0.3199  1.0939  1.2941
   73CHL1  H19C 6551   3.102   4.842   3.639 -0.0846  1.2733 -1.0843
   73CHL1    C1 6552   3.131   5.061   3.479 -0.6173  0.1194  0.4821
   73CHL1   H1A 6553   3.027   5.038   3.509 -0.1781 -0.0457  1.9867
   73CHL1   H1B 6554   3.144   5.170   3.467 -1.2652  0.1935  0.4597
   73CHL1    C2 6555   3.158   5.013   3.333  0.2642  0.1747 -0.3732
   73CHL1   H2A 6556   3.083   5.058   3.265 -0.8521 -3.1740 -1.5794
   73CHL1   H2B 6557   3.125   4.907   3.337 -1.0589  0.5710 -0.2637
   73CHL1   C20 6558   3.121   5.167   4.257  0.0867  0.2514  0.1979
   73CHL1   H20 6559   3.164   5.070   4.290 -0.6725 -0.0785  0.2338
   73CHL1   C21 6560   2.974   5.140   4.225  0.6262 -0.2517 -1.0443
   73CHL1  H21A 6561   2.951   5.039   4.184 -1.8890 -1.1777  2.2434
   73CHL1  H21B 6562   2.934   5.217   4.154  2.8402  1.9463 -0.0702
   73CHL1  H21C 6563   2.920   5.152   4.321  2.6320 -1.0538  0.2191
   73CHL1   C22 6564   3.134   5.266   4.379 -0.2080 -0.1430  0.4730
   73CHL1  H22A 6565   3.227   5.327   4.376  1.4938 -2.5274  1.6130
   73CHL1  H22B 6566   3.036   5.318   4.369  0.7595  1.8028  0.6167
   73CHL1   C23 6567   3.141   5.195   4.513 -0.2606  0.5083 -0.2986
   73CHL1  H23A 6568   3.077   5.107   4.493 -1.6276  1.1965  0.9120
   73CHL1  H23B 6569   3.246   5.163   4.530  0.3946  2.5686 -0.1159
   73CHL1   C24 6570   3.097   5.274   4.638 -0.2844 -0.2192  0.6368
   73CHL1  H24A 6571   3.146   5.373   4.640  0.1204 -0.3534 -0.7795
   73CHL1  H24B 6572   2.995   5.299   4.603  0.8211  1.2305 -1.8729
   73CHL1   C25 6573   3.118   5.196   4.768  0.0284  0.2753 -0.1098
   73CHL1   H25 6574   3.054   5.104   4.764 -1.8818  1.5550 -0.3378
   73CHL1   C26 6575   3.262   5.135   4.785  0.1956 -0.2921  0.0733
   73CHL1  H26A 6576   3.265   5.078   4.881  1.6206  1.3188  1.0499
   73CHL1  H26B 6577   3.278   5.057   4.708  2.0745  0.0393  0.0958
   73CHL1  H26C 6578   3.349   5.203   4.788  0.3446 -0.5003  0.9923
   73CHL1   C27 6579   3.092   5.287   4.884  0.1429  0.8288  0.0796
   73CHL1  H27A 6580   3.174   5.361   4.893 -0.3661  1.4021  0.0032
   73CHL1  H27B 6581   2.998   5.345   4.878  0.8292  2.0468  0.7159
   73CHL1  H27C 6582   3.091   5.237   4.984 -1.7474  2.3779  0.8933
   74CHL1    C3 6583   2.539   2.981   3.256 -0.1195  0.1032  0.3700
   74CHL1    H3 6584   2.640   2.999   3.298 -0.3994  0.8376  0.7388
   74CHL1    O3 6585   2.560   2.978   3.119 -0.1136  0.0628  0.1567
   74CHL1   H3' 6586   2.608   3.057   3.094  0.3098  0.3115  1.6274
   74CHL1    C4 6587   2.459   2.866   3.306  0.1889  0.1897  0.7157
   74CHL1   H4A 6588   2.359   2.858   3.258  1.0391 -1.9365 -0.8640
   74CHL1   H4B 6589   2.513   2.774   3.275 -1.8605 -0.1726 -2.2445
   74CHL1    C5 6590   2.452   2.875   3.457  0.3741  0.3290 -0.1059
   74CHL1    C6 6591   2.506   2.782   3.536 -0.6321 -0.1997  0.5946
   74CHL1    H6 6592   2.560   2.704   3.481  0.3495  0.7806  0.1286
   74CHL1    C7 6593   2.503   2.768   3.688  0.4630  0.0729  0.2900
   74CHL1   H7A 6594   2.470   2.664   3.712 -2.3481  1.0258  1.0028
   74CHL1   H7B 6595   2.602   2.786   3.734  0.2290  1.4275  0.3111
   74CHL1    C8 6596   2.404   2.871   3.747 -0.3799 -0.9588 -0.3850
   74CHL1    H8 6597   2.300   2.832   3.740 -0.5760 -0.4441 -0.3170
   74CHL1   C14 6598   2.430   2.898   3.898  0.0965  0.7003  0.6893
   74CHL1   H14 6599   2.527   2.950   3.911  0.2756  0.6665 -0.4325
   74CHL1   C15 6600   2.446   2.776   3.993  0.0252  0.0955 -0.8459
   74CHL1  H15A 6601   2.365   2.704   3.968  0.9897 -0.6994 -1.7455
   74CHL1  H15B 6602   2.549   2.736   3.989  0.3647  0.1215  3.2557
   74CHL1   C16 6603   2.429   2.849   4.129 -0.2357 -0.5769  0.4908
   74CHL1  H16A 6604   2.343   2.812   4.189 -1.2072  2.5353  1.1734
   74CHL1  H16B 6605   2.516   2.831   4.195 -0.3322 -0.9689  0.5153
   74CHL1   C17 6606   2.402   3.002   4.106  0.4617 -0.1092 -0.3336
   74CHL1   H17 6607   2.499   3.056   4.100 -0.1188  0.9937 -0.1280
   74CHL1   C13 6608   2.347   3.008   3.959 -0.3298  0.5742 -0.0240
   74CHL1   C18 6609   2.197   2.971   3.963  0.1328  0.6556  0.0429
   74CHL1  H18A 6610   2.157   2.952   3.861  0.1708 -0.0244  0.1536
   74CHL1  H18B 6611   2.184   2.877   4.020  3.2792  1.7653  2.8781
   74CHL1  H18C 6612   2.128   3.050   3.999 -1.2947 -0.4054 -0.2870
   74CHL1   C12 6613   2.370   3.139   3.882  0.4938  0.0725  0.1166
   74CHL1  H12A 6614   2.309   3.224   3.918  1.4272  0.7928  0.0488
   74CHL1  H12B 6615   2.472   3.179   3.901  0.3592  0.2912  0.3753
   74CHL1   C11 6616   2.334   3.122   3.732 -0.7879  0.3711  0.2001
   74CHL1  H11A 6617   2.224   3.117   3.718 -0.8793  1.8782  0.1688
   74CHL1  H11B 6618   2.362   3.226   3.704 -0.9640  1.2554  3.0350
   74CHL1    C9 6619   2.408   3.004   3.667 -0.5746  0.9026  0.4368
   74CHL1    H9 6620   2.518   3.020   3.674 -0.1417 -1.7762  0.5627
   74CHL1   C10 6621   2.383   3.002   3.513 -0.1039 -0.2047 -0.2694
   74CHL1   C19 6622   2.236   2.987   3.490  0.1738  0.2499 -0.0411
   74CHL1  H19A 6623   2.214   2.941   3.391  0.2734  0.0856  0.0117
   74CHL1  H19B 6624   2.195   2.905   3.553  0.8997  0.1422  0.3020
   74CHL1  H19C 6625   2.178   3.081   3.501 -1.5216 -0.9028  1.2312
   74CHL1    C1 6626   2.453   3.119   3.441 -0.1634  0.0927  0.2143
   74CHL1   H1A 6627   2.387   3.205   3.467  0.4180  1.6893 -3.0087
   74CHL1   H1B 6628   2.553   3.138   3.484 -0.3305  0.5782  0.3937
   74CHL1    C2 6629   2.464   3.110   3.287  0.2921  1.0605  0.0678
   74CHL1   H2A 6630   2.523   3.199   3.257  1.5751  0.7393  1.5408
   74CHL1   H2B 6631   2.362   3.111   3.241 -0.3882 -1.8624  1.3046
   74CHL1   C20 6632   2.317   3.062   4.223 -0.8348 -0.5633  0.4359
   74CHL1   H20 6633   2.214   3.021   4.220 -0.5618 -1.1760 -0.8350
   74CHL1   C21 6634   2.306   3.219   4.208 -0.9492 -0.0098  0.5711
   74CHL1  H21A 6635   2.244   3.264   4.128  0.2760 -0.2686 -0.5416
   74CHL1  H21B 6636   2.403   3.261   4.175 -1.3039 -0.0881 -0.6106
   74CHL1  H21C 6637   2.275   3.267   4.303 -1.0973  1.2106 -0.0795
   74CHL1   C22 6638   2.387   3.031   4.362 -0.2864  0.8569  0.4548
   74CHL1  H22A 6639   2.424   2.926   4.366 -1.5968  0.2853 -1.0855
   74CHL1  H22B 6640   2.477   3.095   4.362  1.2361 -1.1817  0.3908
   74CHL1   C23 6641   2.302   3.045   4.487 -0.1142 -0.0427  0.0395
   74CHL1  H23A 6642   2.373   3.021   4.569  2.2090  1.3779 -1.4049
   74CHL1  H23B 6643   2.273   3.151   4.499  0.0111  0.1769 -1.4110
   74CHL1   C24 6644   2.183   2.956   4.487 -0.0437 -0.6230 -0.0781
   74CHL1  H24A 6645   2.104   2.993   4.418  0.1614  0.7489  0.3740
   74CHL1  H24B 6646   2.215   2.856   4.452 -0.1954 -0.8314  0.3630
   74CHL1   C25 6647   2.113   2.943   4.621  1.2115 -0.6507  0.1201
   74CHL1   H25 6648   2.180   2.885   4.688  0.8748 -2.1407 -0.7789
   74CHL1   C26 6649   2.084   3.085   4.684  0.3072 -0.6069 -0.0849
   74CHL1  H26A 6650   2.035   3.081   4.783 -0.1593  0.7257 -0.2551
   74CHL1  H26B 6651   2.173   3.146   4.711 -0.1720  0.0159  0.1095
   74CHL1  H26C 6652   2.027   3.151   4.616  0.3956 -0.5606 -0.1149
   74CHL1   C27 6653   1.977   2.872   4.599  0.4446 -0.2594 -0.0057
   74CHL1  H27A 6654   1.996   2.767   4.567  0.4723  0.4669 -2.6061
   74CHL1  H27B 6655   1.911   2.873   4.688  1.1821 -0.7161  0.5576
   74CHL1  H27C 6656   1.924   2.929   4.520  3.5401 -1.6929 -3.4562
   75CHL1    C3 6657   5.004   2.418   3.575 -0.1421  0.5437 -0.8158
   75CHL1    H3 6658   4.894   2.420   3.590 -0.1561 -0.9214 -0.6005
   75CHL1    O3 6659   5.035   2.455   3.446 -0.3466  0.0248  0.2510
   75CHL1   H3' 6660   4.993   2.386   3.395 -0.4661  0.9014 -0.9015
   75CHL1    C4 6661   5.062   2.512   3.683 -0.3904  0.5452  0.0444
   75CHL1   H4A 6662   5.172   2.496   3.690 -0.6913 -1.4719  1.0332
   75CHL1   H4B 6663   5.041   2.616   3.652 -0.6178  0.6913  0.6648
   75CHL1    C5 6664   5.010   2.475   3.822  0.4090  0.4026  0.2061
   75CHL1    C6 6665   4.935   2.563   3.885  0.2555  0.5344 -0.5401
   75CHL1    H6 6666   4.910   2.660   3.841 -0.8064 -0.3101 -1.8869
   75CHL1    C7 6667   4.872   2.531   4.018  0.4551  0.0330 -0.4315
   75CHL1   H7A 6668   4.883   2.612   4.094 -0.4101 -1.4259  1.3401
   75CHL1   H7B 6669   4.764   2.511   3.998  0.8626 -1.6414 -1.1596
   75CHL1    C8 6670   4.928   2.408   4.087 -0.6264 -0.4001  0.6135
   75CHL1    H8 6671   5.022   2.454   4.126 -0.1448 -1.6825  1.0169
   75CHL1   C14 6672   4.833   2.355   4.197 -0.7174  0.2213 -0.1391
   75CHL1   H14 6673   4.739   2.320   4.149  0.5866 -1.4608 -1.5575
   75CHL1   C15 6674   4.775   2.449   4.306  0.0614 -0.1977 -0.0825
   75CHL1  H15A 6675   4.858   2.510   4.346  2.6044 -2.9327 -0.8187
   75CHL1  H15B 6676   4.704   2.520   4.259 -1.2131 -0.0662  1.9173
   75CHL1   C16 6677   4.720   2.360   4.419  0.4050 -1.2166  0.0386
   75CHL1  H16A 6678   4.744   2.408   4.516 -0.7461 -0.8728  0.1716
   75CHL1  H16B 6679   4.610   2.344   4.414  0.6548 -2.6429 -3.5856
   75CHL1   C17 6680   4.789   2.222   4.391  0.2121  0.2407  0.7797
   75CHL1   H17 6681   4.708   2.170   4.336  2.3417 -2.1463 -0.2961
   75CHL1   C13 6682   4.893   2.240   4.279  0.4681  0.2137  0.8903
   75CHL1   C18 6683   5.027   2.284   4.342 -0.3497 -0.3817  0.3288
   75CHL1  H18A 6684   5.012   2.351   4.429  3.8229  0.3050  0.7281
   75CHL1  H18B 6685   5.062   2.184   4.376 -2.2807 -0.9717  0.6894
   75CHL1  H18C 6686   5.083   2.332   4.259 -3.0827  1.2504 -0.7220
   75CHL1   C12 6687   4.905   2.123   4.183  0.9816  0.2624  0.0498
   75CHL1  H12A 6688   4.929   2.029   4.238 -1.9954 -0.1631  0.7621
   75CHL1  H12B 6689   4.805   2.096   4.143 -0.2999  1.1775  2.4325
   75CHL1   C11 6690   4.991   2.147   4.056  0.3160 -0.0480  0.0149
   75CHL1  H11A 6691   5.099   2.136   4.079  0.1339  0.0618  0.9217
   75CHL1  H11B 6692   4.957   2.069   3.983  1.4575  1.1746 -1.9170
   75CHL1    C9 6693   4.950   2.291   3.988  0.7202  0.2151 -0.2244
   75CHL1    H9 6694   4.844   2.279   3.954  0.1207  1.9576  0.9069
   75CHL1   C10 6695   5.032   2.327   3.863 -0.0527 -0.1574  0.1460
   75CHL1   C19 6696   5.180   2.319   3.911  0.3379  0.2678  0.3102
   75CHL1  H19A 6697   5.202   2.213   3.937 -0.2898 -0.0378 -0.3777
   75CHL1  H19B 6698   5.258   2.335   3.833  0.5699 -1.4914  0.1335
   75CHL1  H19C 6699   5.195   2.384   4.000  3.1082  0.2460 -0.0424
   75CHL1    C1 6700   5.007   2.230   3.742 -0.2154 -0.7064 -0.5062
   75CHL1   H1A 6701   5.061   2.137   3.769  6.0453  1.8741 -2.2340
   75CHL1   H1B 6702   4.898   2.210   3.747 -0.5085  0.7107 -0.7576
   75CHL1    C2 6703   5.048   2.270   3.604 -0.4922 -0.4972  0.1864
   75CHL1   H2A 6704   4.978   2.211   3.541 -3.6174 -0.6121  3.4510
   75CHL1   H2B 6705   5.157   2.253   3.591 -0.7192 -1.2602 -0.8097
   75CHL1   C20 6706   4.820   2.128   4.509  0.7491  0.5724  0.5510
   75CHL1   H20 6707   4.901   2.057   4.483  2.2316  2.2712  0.4141
   75CHL1   C21 6708   4.693   2.040   4.529 -0.5141  0.3988  0.0994
   75CHL1  H21A 6709   4.700   1.967   4.613 -0.0779 -0.5446 -0.7351
   75CHL1  H21B 6710   4.669   1.975   4.443 -1.2478 -0.9618  1.2779
   75CHL1  H21C 6711   4.600   2.095   4.553 -2.1523 -0.8872 -2.8317
   75CHL1   C22 6712   4.875   2.188   4.638  0.3780 -0.6156 -0.1945
   75CHL1  H22A 6713   4.976   2.229   4.617  1.1175 -1.8417  0.8725
   75CHL1  H22B 6714   4.801   2.264   4.674  0.0564 -0.0759 -1.9012
   75CHL1   C23 6715   4.887   2.096   4.761 -0.4060  0.1579  0.3601
   75CHL1  H23A 6716   4.785   2.068   4.797  0.3439 -0.5939  1.9669
   75CHL1  H23B 6717   4.934   2.003   4.725 -1.7593  0.4395 -2.4068
   75CHL1   C24 6718   4.962   2.167   4.877 -0.2716  0.3037  0.3651
   75CHL1  H24A 6719   5.051   2.214   4.829  0.5308 -1.2624  0.2700
   75CHL1  H24B 6720   4.905   2.260   4.900  0.4413  1.0758 -0.8452
   75CHL1   C25 6721   4.979   2.084   5.004  0.1660  0.2153  0.2171
   75CHL1   H25 6722   4.875   2.048   5.017 -0.0895  0.2441 -1.4927
   75CHL1   C26 6723   5.082   1.968   4.989 -0.6649  0.1420  0.6009
   75CHL1  H26A 6724   5.069   1.876   5.049  2.2005 -0.8868 -0.2050
   75CHL1  H26B 6725   5.078   1.923   4.887 -2.0281  1.2896  0.1163
   75CHL1  H26C 6726   5.185   2.003   5.010  0.1735 -1.2051 -1.0092
   75CHL1   C27 6727   5.022   2.183   5.114 -0.5669  0.1885  0.4392
   75CHL1  H27A 6728   4.939   2.257   5.124 -0.4155  0.9697 -2.8863
   75CHL1  H27B 6729   5.048   2.123   5.203  2.7661 -0.1774 -0.6352
   75CHL1  H27C 6730   5.113   2.232   5.073 -1.2280 -0.1051 -1.5126
   76CHL1    C3 6731   2.127   0.867   3.257  0.7072 -0.4584  0.4597
   76CHL1    H3 6732   2.027   0.904   3.288  0.7734  0.3835 -0.2610
   76CHL1    O3 6733   2.122   0.838   3.118  0.3871  0.1047 -0.3268
   76CHL1   H3' 6734   2.176   0.759   3.112 -1.1889 -1.1901  1.3110
   76CHL1    C4 6735   2.224   0.990   3.283 -0.0891 -0.6752 -0.7276
   76CHL1   H4A 6736   2.319   0.961   3.234 -0.0302 -1.0359 -0.4083
   76CHL1   H4B 6737   2.173   1.070   3.226 -1.0523 -0.2584  0.6475
   76CHL1    C5 6738   2.253   1.022   3.424  0.5830 -0.3306  0.2512
   76CHL1    C6 6739   2.221   1.145   3.461  0.1151 -0.1186 -0.1106
   76CHL1    H6 6740   2.187   1.217   3.385 -0.8605 -1.4717 -1.0030
   76CHL1    C7 6741   2.216   1.194   3.597 -0.1572  0.5693 -0.3662
   76CHL1   H7A 6742   2.269   1.289   3.618 -2.3969  1.4459  1.7819
   76CHL1   H7B 6743   2.109   1.206   3.625  0.0078 -0.0177  0.5693
   76CHL1    C8 6744   2.284   1.089   3.693  0.1322 -0.6499  0.0089
   76CHL1    H8 6745   2.392   1.095   3.672  0.5042 -0.2593  1.8243
   76CHL1   C14 6746   2.251   1.124   3.841 -0.7452  0.0887 -0.2571
   76CHL1   H14 6747   2.143   1.101   3.845 -0.4044 -2.2249 -2.0613
   76CHL1   C15 6748   2.278   1.269   3.898 -0.0597 -0.0462  0.2051
   76CHL1  H15A 6749   2.363   1.319   3.845 -0.6815  1.3795  0.4952
   76CHL1  H15B 6750   2.189   1.328   3.868 -1.1507 -1.0869  1.3015
   76CHL1   C16 6751   2.278   1.249   4.056 -0.2140 -0.3487 -0.1776
   76CHL1  H16A 6752   2.368   1.293   4.104 -0.7206  0.2818  0.2159
   76CHL1  H16B 6753   2.193   1.299   4.109  0.3287  0.2043  0.1838
   76CHL1   C17 6754   2.269   1.097   4.086 -0.4632 -0.9145  0.4216
   76CHL1   H17 6755   2.160   1.084   4.104 -0.4255 -0.9519  0.6249
   76CHL1   C13 6756   2.304   1.037   3.949 -0.1972  0.4073  0.2664
   76CHL1   C18 6757   2.461   1.030   3.933  0.1927 -0.2211  0.2102
   76CHL1  H18A 6758   2.508   0.958   4.003 -1.2852 -1.6301 -0.2049
   76CHL1  H18B 6759   2.502   0.983   3.841  4.5228 -0.6086  2.0740
   76CHL1  H18C 6760   2.510   1.129   3.947 -1.6546  0.7068  0.4458
   76CHL1   C12 6761   2.234   0.900   3.924 -0.4685 -0.0445  0.0421
   76CHL1  H12A 6762   2.278   0.820   3.987 -1.5718 -0.5061  0.2458
   76CHL1  H12B 6763   2.127   0.917   3.950 -0.1317  1.0603  0.7543
   76CHL1   C11 6764   2.273   0.848   3.787 -0.4609  0.2981 -0.2034
   76CHL1  H11A 6765   2.381   0.823   3.780 -0.1559  1.3987  0.2707
   76CHL1  H11B 6766   2.220   0.751   3.780 -0.0877  0.0894 -0.1616
   76CHL1    C9 6767   2.236   0.946   3.664 -1.0755  0.0347 -0.5828
   76CHL1    H9 6768   2.128   0.972   3.666 -0.6911  1.7084  0.6730
   76CHL1   C10 6769   2.267   0.900   3.525 -0.3873 -0.6532  0.6526
   76CHL1   C19 6770   2.413   0.837   3.503 -0.2032 -0.0576 -0.0127
   76CHL1  H19A 6771   2.419   0.737   3.551 -0.6486 -0.9184 -1.6719
   76CHL1  H19B 6772   2.449   0.828   3.398 -2.8305 -1.0321 -0.9216
   76CHL1  H19C 6773   2.489   0.901   3.552 -2.3235  2.8260 -0.2225
   76CHL1    C1 6774   2.158   0.787   3.484 -0.5410 -1.1124  0.4951
   76CHL1   H1A 6775   2.175   0.695   3.543  2.6733 -1.1869 -0.3685
   76CHL1   H1B 6776   2.059   0.831   3.508 -0.0548 -1.0015  2.4516
   76CHL1    C2 6777   2.162   0.749   3.337  0.3122  0.4851  0.2613
   76CHL1   H2A 6778   2.088   0.671   3.309 -0.2281  0.6741  1.1584
   76CHL1   H2B 6779   2.266   0.708   3.338 -0.9660 -3.2900  2.7544
   76CHL1   C20 6780   2.332   1.051   4.215  0.0996 -0.3993  0.0234
   76CHL1   H20 6781   2.439   1.081   4.219  0.0782 -0.4303  1.6225
   76CHL1   C21 6782   2.324   0.894   4.228  0.2341  0.0605 -0.3719
   76CHL1  H21A 6783   2.334   0.870   4.336  0.3078  2.3253  0.1731
   76CHL1  H21B 6784   2.404   0.841   4.172  1.6740  2.9177 -1.1697
   76CHL1  H21C 6785   2.220   0.863   4.202 -0.0457  1.5251 -1.0870
   76CHL1   C22 6786   2.268   1.128   4.338  0.0076  0.0605  0.1808
   76CHL1  H22A 6787   2.275   1.238   4.328  0.3622  0.2123  1.8602
   76CHL1  H22B 6788   2.163   1.090   4.341  0.3923 -1.3060 -1.7082
   76CHL1   C23 6789   2.335   1.103   4.474 -0.6364  0.3937  0.2718
   76CHL1  H23A 6790   2.352   0.997   4.504 -0.0433  0.1929 -0.7524
   76CHL1  H23B 6791   2.441   1.136   4.468  0.9270 -3.3141  3.2726
   76CHL1   C24 6792   2.273   1.171   4.596  0.4512  0.2366  0.6997
   76CHL1  H24A 6793   2.256   1.279   4.573 -3.7424 -0.9322 -3.2609
   76CHL1  H24B 6794   2.173   1.125   4.607  1.4171 -2.2246 -0.2271
   76CHL1   C25 6795   2.346   1.149   4.726 -0.1603  0.6429 -0.2984
   76CHL1   H25 6796   2.365   1.041   4.743  0.8695  1.0458  1.2610
   76CHL1   C26 6797   2.480   1.221   4.731  0.3630 -0.0051 -0.6004
   76CHL1  H26A 6798   2.552   1.176   4.658  2.9244  0.1184  1.6775
   76CHL1  H26B 6799   2.478   1.324   4.689  1.0224  0.1591 -0.2363
   76CHL1  H26C 6800   2.523   1.225   4.833 -1.9432  0.0594  0.4198
   76CHL1   C27 6801   2.265   1.199   4.834  0.4485 -0.5154 -0.0558
   76CHL1  H27A 6802   2.337   1.215   4.917  1.7334 -0.6692 -1.1059
   76CHL1  H27B 6803   2.232   1.303   4.814  0.0163 -0.2805  1.6811
   76CHL1  H27C 6804   2.190   1.129   4.876 -0.9006  0.3243 -0.9580
   77SOPE     N 6805   5.981   0.150   7.522  0.2310  0.7516 -0.5824
   77SOPE   HN1 6806   5.877   0.159   7.515  0.2365  1.0667 -0.3050
   77SOPE   HN2 6807   6.010   0.226   7.587 -0.3971 -0.6569  1.4790
   77SOPE   HN3 6808   6.019   0.166   7.427  2.8228 -1.2012  0.0333
   77SOPE   C12 6809   6.012   0.005   7.564 -0.4105 -0.1013  0.1173
   77SOPE  H12A 6810   5.978  -0.015   7.668  2.8780 -0.3527  1.2685
   77SOPE  H12B 6811   6.123  -0.001   7.575 -0.5272 -0.6962  1.0366
   77SOPE   C11 6812   5.960  -0.096   7.462  0.3198 -0.0660  0.1043
   77SOPE  H11A 6813   5.999  -0.197   7.488  1.4488  0.3578  0.1135
   77SOPE  H11B 6814   6.009  -0.078   7.364 -0.7322 -0.0373 -0.4333
   77SOPE     P 6815   5.714  -0.148   7.554 -0.0190  0.0454  0.1487
   77SOPE   O13 6816   5.616  -0.043   7.602 -0.0686  0.5272  0.5222
   77SOPE   O14 6817   5.793  -0.226   7.652 -0.5976 -0.3734  0.0439
   77SOPE   O12 6818   5.814  -0.087   7.446 -0.3769  0.1709 -0.0990
   77SOPE   O11 6819   5.638  -0.257   7.478  0.2759 -0.0638 -0.0550
   77SOPE    C1 6820   5.652  -0.397   7.471 -0.7401 -0.0323  0.5049
   77SOPE    HA 6821   5.583  -0.453   7.405  1.5455 -0.7462 -1.4386
   77SOPE    HB 6822   5.664  -0.441   7.572  1.3212 -0.3193  0.1899
   77SOPE    C2 6823   5.792  -0.432   7.394  0.5439 -0.3756  0.2808
   77SOPE    HS 6824   5.875  -0.400   7.460  2.3571 -1.5158 -1.3501
   77SOPE   O21 6825   5.786  -0.378   7.264  0.0732 -0.1208  0.6582
   77SOPE   C21 6826   5.900  -0.354   7.204 -0.0766 -0.3163 -0.3635
   77SOPE   O22 6827   6.011  -0.369   7.248  0.3391  0.1548 -0.1194
   77SOPE   C22 6828   5.878  -0.282   7.070  0.0237  0.4618 -0.3092
   77SOPE   H2R 6829   5.977  -0.273   7.021 -0.7789  0.0668 -2.1110
   77SOPE   H2S 6830   5.848  -0.183   7.111 -1.8111 -0.7536  1.4914
   77SOPE    C3 6831   5.808  -0.589   7.385  0.0275 -0.9104  0.1703
   77SOPE    HX 6832   5.845  -0.626   7.484  0.4491 -1.5229 -0.2094
   77SOPE    HY 6833   5.897  -0.601   7.320 -0.6477 -1.9740 -0.5933
   77SOPE   O31 6834   5.691  -0.672   7.345  0.4395  0.0109  0.5879
   77SOPE   C31 6835   5.687  -0.685   7.211  0.4431  0.0252  0.0528
   77SOPE   O32 6836   5.772  -0.638   7.134 -0.4455 -0.4052 -0.3171
   77SOPE   C32 6837   5.551  -0.749   7.171 -0.3013  0.1291 -0.1910
   77SOPE   H2X 6838   5.472  -0.729   7.247 -1.4505 -3.2845 -0.3615
   77SOPE   H2Y 6839   5.559  -0.857   7.150 -1.2247  0.4033 -2.1581
   77SOPE   C23 6840   5.763  -0.338   6.995  0.3596 -0.3115 -0.4946
   77SOPE   H3R 6841   5.672  -0.339   7.058  0.1322 -1.1674 -0.8193
   77SOPE   H3S 6842   5.780  -0.443   6.962 -0.8732 -1.8768  3.3533
   77SOPE   C24 6843   5.740  -0.252   6.878  0.1199  0.0258 -0.9483
   77SOPE   H4R 6844   5.715  -0.146   6.903  0.2414  0.4075 -2.3753
   77SOPE   H4S 6845   5.829  -0.245   6.812  0.1542  1.3763 -0.7920
   77SOPE   C25 6846   5.620  -0.316   6.803 -0.2185 -0.1444 -0.1253
   77SOPE   H5R 6847   5.646  -0.423   6.790 -2.9257 -0.7515 -1.2424
   77SOPE   H5S 6848   5.526  -0.313   6.862 -1.1021  1.3476 -1.5148
   77SOPE   C26 6849   5.589  -0.252   6.668 -0.4009  0.3917  0.5889
   77SOPE   H6R 6850   5.496  -0.191   6.677 -1.2798 -0.8559  0.3110
   77SOPE   H6S 6851   5.666  -0.176   6.643 -1.5960  1.5459  0.3195
   77SOPE   C27 6852   5.556  -0.341   6.549 -0.0542  0.3027  0.2832
   77SOPE   H7R 6853   5.641  -0.412   6.541 -0.5192 -0.2036 -0.2247
   77SOPE   H7S 6854   5.475  -0.407   6.588 -0.3741  0.4420 -0.1510
   77SOPE   C28 6855   5.514  -0.263   6.422  0.3338  0.2638  0.0002
   77SOPE   H8R 6856   5.435  -0.193   6.457  1.3077  0.9387  0.8793
   77SOPE   H8S 6857   5.603  -0.208   6.386  1.0194  0.2050  1.5355
   77SOPE   C29 6858   5.458  -0.357   6.319 -0.2789  0.4371 -0.4092
   77SOPE   H91 6859   5.495  -0.460   6.324 -0.5250  0.4143  1.4805
   77SOPE  C210 6860   5.361  -0.336   6.231 -0.0629 -0.0999 -0.3222
   77SOPE  H101 6861   5.328  -0.415   6.161  2.3190  0.3207 -2.0317
   77SOPE  C211 6862   5.276  -0.207   6.207  0.2345  0.3485 -0.8653
   77SOPE  H11R 6863   5.282  -0.127   6.284 -2.2981  0.3021 -0.5596
   77SOPE  H11S 6864   5.171  -0.241   6.212  1.2342 -3.0028  3.2825
   77SOPE  C212 6865   5.308  -0.157   6.059 -0.3793 -0.2645 -0.8353
   77SOPE  H12R 6866   5.407  -0.108   6.068 -0.7571  0.1064  2.4403
   77SOPE  H12S 6867   5.235  -0.075   6.041 -0.9686 -0.9640 -1.7046
   77SOPE  C213 6868   5.290  -0.253   5.946  0.4033  0.0208  0.2892
   77SOPE  H13R 6869   5.182  -0.269   5.930  0.4039  0.5575 -0.3235
   77SOPE  H13S 6870   5.343  -0.350   5.959  1.0759 -0.1078 -2.6442
   77SOPE  C214 6871   5.334  -0.195   5.810  0.5812 -0.1912 -0.1347
   77SOPE  H14R 6872   5.308  -0.088   5.799  3.0158  0.4325 -0.4412
   77SOPE  H14S 6873   5.287  -0.261   5.734 -0.7126 -1.6804  1.8696
   77SOPE  C215 6874   5.486  -0.187   5.795 -0.2636  0.5927 -0.8571
   77SOPE  H15R 6875   5.530  -0.286   5.821 -1.3736  0.5514  1.0110
   77SOPE  H15S 6876   5.523  -0.114   5.870 -0.2697 -0.6703  0.4212
   77SOPE  C216 6877   5.535  -0.145   5.657  0.1499 -0.0454 -0.0014
   77SOPE  H16R 6878   5.641  -0.115   5.671  1.0119 -3.2991  1.4358
   77SOPE  H16S 6879   5.482  -0.048   5.641 -1.3698 -0.0853  3.8373
   77SOPE  C217 6880   5.535  -0.257   5.547 -0.3130 -0.1894 -0.9822
   77SOPE  H17R 6881   5.430  -0.294   5.548 -0.8425  1.2309  0.6442
   77SOPE  H17S 6882   5.592  -0.348   5.575 -1.1569  0.4545  3.4857
   77SOPE  C218 6883   5.559  -0.201   5.410  0.0409 -0.8179 -0.4922
   77SOPE  H18R 6884   5.474  -0.132   5.392 -1.1704 -1.6411  1.7172
   77SOPE  H18S 6885   5.555  -0.279   5.332  2.1508 -0.6299 -0.8492
   77SOPE  H18T 6886   5.661  -0.159   5.394  0.8485 -2.5721 -0.1119
   77SOPE   C33 6887   5.491  -0.684   7.043 -0.7211 -0.3412 -0.1725
   77SOPE   H3X 6888   5.506  -0.575   7.036  2.8033 -0.8259 -2.2517
   77SOPE   H3Y 6889   5.380  -0.689   7.054 -1.1497 -1.4397 -3.6314
   77SOPE   C34 6890   5.531  -0.760   6.914 -0.4712 -0.4931 -0.3599
   77SOPE   H4X 6891   5.517  -0.868   6.936  2.2419 -0.7000  0.7108
   77SOPE   H4Y 6892   5.640  -0.742   6.902  0.1990 -4.0900 -0.7398
   77SOPE   C35 6893   5.452  -0.707   6.795 -0.3765  0.3559 -0.0024
   77SOPE   H5X 6894   5.439  -0.597   6.791 -2.1316  0.1604 -3.4550
   77SOPE   H5Y 6895   5.345  -0.731   6.817 -0.1902  0.9251  1.6831
   77SOPE   C36 6896   5.499  -0.764   6.663 -0.4434 -0.0136  0.7099
   77SOPE   H6X 6897   5.509  -0.874   6.672  2.5337  0.0918 -0.1738
   77SOPE   H6Y 6898   5.598  -0.724   6.632 -1.1730  0.2361 -1.4096
   77SOPE   C37 6899   5.402  -0.725   6.554  0.0809 -0.1853 -0.3268
   77SOPE   H7X 6900   5.428  -0.628   6.505 -0.4491  1.6038  2.6577
   77SOPE   H7Y 6901   5.306  -0.729   6.609 -0.7224 -2.2036 -1.7683
   77SOPE   C38 6902   5.379  -0.837   6.447 -0.1465 -0.0050  0.1678
   77SOPE   H8X 6903   5.358  -0.936   6.492  0.5794  0.5295  1.7302
   77SOPE   H8Y 6904   5.470  -0.840   6.384 -1.1437 -1.3389 -1.2774
   77SOPE   C39 6905   5.272  -0.805   6.343  0.2262  0.2696  0.0470
   77SOPE   H9X 6906   5.265  -0.697   6.321 -2.0720 -0.1285 -1.6196
   77SOPE   H9Y 6907   5.181  -0.829   6.404  2.2649  0.1534  3.2883
   77SOPE  C310 6908   5.287  -0.882   6.213 -0.4831 -0.6848 -0.0792
   77SOPE  H10X 6909   5.285  -0.990   6.241 -2.4640 -0.2817  1.6171
   77SOPE  H10Y 6910   5.390  -0.858   6.178 -0.1227 -2.3367 -0.2302
   77SOPE  C311 6911   5.183  -0.860   6.111  0.3984  0.7025 -0.2237
   77SOPE  H11X 6912   5.181  -0.751   6.091  1.8473  1.2229  2.0104
   77SOPE  H11Y 6913   5.085  -0.899   6.146  0.7795  0.1682  0.2754
   77SOPE  C312 6914   5.222  -0.935   5.982  0.0708 -0.4855 -1.0327
   77SOPE  H12X 6915   5.231  -1.043   6.010 -0.9785 -0.6403 -1.2484
   77SOPE  H12Y 6916   5.321  -0.895   5.951  1.6006 -1.9265  1.6180
   77SOPE  C313 6917   5.125  -0.913   5.870  0.2252  0.0073  0.4555
   77SOPE  H13X 6918   5.149  -0.824   5.807 -0.7892  0.7361  1.0504
   77SOPE  H13Y 6919   5.022  -0.902   5.910 -1.2966 -1.7200 -2.5783
   77SOPE  C314 6920   5.135  -1.036   5.785  0.4662 -0.5372  0.0504
   77SOPE  H14X 6921   5.105  -1.128   5.839 -2.2186  0.8556  1.2002
   77SOPE  H14Y 6922   5.232  -1.033   5.733  1.5955 -0.3316  2.0555
   77SOPE  C315 6923   5.036  -1.008   5.664 -0.1378  0.5898  0.7179
   77SOPE  H15X 6924   5.065  -0.912   5.616  0.8857  0.3082  0.7531
   77SOPE  H15Y 6925   4.932  -1.005   5.703 -1.3065 -1.1966 -1.9308
   77SOPE  C316 6926   5.050  -1.123   5.553  0.0523 -0.1676  0.2733
   77SOPE  H16X 6927   5.005  -1.217   5.592  0.3946 -0.0212  1.0396
   77SOPE  H16Y 6928   5.157  -1.147   5.532 -0.0084 -1.5041  1.3289
   77SOPE  C317 6929   4.990  -1.093   5.412 -0.3115  0.4389 -0.4302
   77SOPE  H17X 6930   5.010  -0.992   5.371  0.3428  0.0276 -1.1702
   77SOPE  H17Y 6931   4.882  -1.094   5.437 -0.3850  0.9536 -0.7168
   77SOPE  C318 6932   5.024  -1.198   5.306 -0.0165  0.3681  0.0930
   77SOPE  H18X 6933   5.133  -1.194   5.282  0.6669 -0.9767  2.6408
   77SOPE  H18Y 6934   4.963  -1.186   5.214  0.1045  0.3021  0.0034
   77SOPE  H18Z 6935   5.002  -1.300   5.344 -2.3961  0.4948 -0.7899
   78SOPE     N 6936   2.288   4.424   7.251  0.6529  0.6119 -0.3478
   78SOPE   HN1 6937   2.294   4.415   7.148  4.2149  0.0170 -0.2202
   78SOPE   HN2 6938   2.191   4.421   7.289  0.4082  0.3299 -0.9865
   78SOPE   HN3 6939   2.328   4.517   7.272 -1.0265  1.0690  1.0915
   78SOPE   C12 6940   2.374   4.317   7.322 -0.2162 -0.3008 -0.0190
   78SOPE  H12A 6941   2.427   4.276   7.233 -0.4801  0.0411 -0.3366
   78SOPE  H12B 6942   2.294   4.255   7.368  1.2174 -2.4768 -0.2889
   78SOPE   C11 6943   2.471   4.385   7.419  0.1803  0.0302 -0.0816
   78SOPE  H11A 6944   2.529   4.308   7.475  0.0756  0.1973  0.2526
   78SOPE  H11B 6945   2.430   4.448   7.500  1.3375  0.0967  0.4754
   78SOPE     P 6946   2.718   4.422   7.339  0.2310 -0.1490  0.2498
   78SOPE   O13 6947   2.733   4.299   7.262 -0.0054  0.1015 -0.4718
   78SOPE   O14 6948   2.771   4.427   7.480  0.0032 -0.2993 -0.5790
   78SOPE   O12 6949   2.566   4.462   7.345  0.1785 -0.6351  0.2962
   78SOPE   O11 6950   2.790   4.533   7.246  0.4715 -0.7537 -0.6435
   78SOPE    C1 6951   2.709   4.617   7.158  0.8948 -0.0505  0.0788
   78SOPE    HA 6952   2.765   4.703   7.117 -1.7209  1.7857  0.0522
   78SOPE    HB 6953   2.632   4.677   7.213  0.7374  2.1720 -2.3671
   78SOPE    C2 6954   2.630   4.541   7.042 -0.4932 -0.2167 -0.2477
   78SOPE    HS 6955   2.554   4.476   7.089 -1.1956 -0.6580 -1.9100
   78SOPE   O21 6956   2.724   4.461   6.965 -0.2890  0.2255 -0.2150
   78SOPE   C21 6957   2.688   4.338   6.933  0.8179 -0.3573  1.0004
   78SOPE   O22 6958   2.590   4.281   6.980  0.1231 -0.0967 -0.0428
   78SOPE   C22 6959   2.782   4.280   6.835 -0.0578 -0.4061 -0.5376
   78SOPE   H2R 6960   2.853   4.219   6.895 -1.7640 -1.5385  0.4280
   78SOPE   H2S 6961   2.841   4.359   6.785  1.5428  0.8606  3.0279
   78SOPE    C3 6962   2.549   4.633   6.948 -0.0385 -0.4039 -0.3188
   78SOPE    HX 6963   2.629   4.693   6.899 -0.3368  0.0333 -0.2784
   78SOPE    HY 6964   2.479   4.704   6.997  0.6908  0.7106 -0.8336
   78SOPE   O31 6965   2.482   4.557   6.851  0.2778 -0.1700 -0.0955
   78SOPE   C31 6966   2.381   4.472   6.886 -0.1136 -0.4597 -0.4703
   78SOPE   O32 6967   2.320   4.475   6.992  0.0592 -0.3757  0.6459
   78SOPE   C32 6968   2.342   4.382   6.775  0.3091 -0.0381 -0.3445
   78SOPE   H2X 6969   2.387   4.282   6.788  0.8662  0.1269 -0.9702
   78SOPE   H2Y 6970   2.385   4.415   6.678  1.2064 -1.5129 -0.4806
   78SOPE   C23 6971   2.706   4.189   6.725  0.7330 -0.3903 -0.4634
   78SOPE   H3R 6972   2.645   4.256   6.660 -1.2438 -1.0496  0.6092
   78SOPE   H3S 6973   2.636   4.124   6.782  0.0765  0.3494 -0.3898
   78SOPE   C24 6974   2.810   4.105   6.652  0.2947  0.0898  0.0040
   78SOPE   H4R 6975   2.878   4.187   6.618 -0.7012  1.9495  2.1853
   78SOPE   H4S 6976   2.860   4.030   6.717 -0.8297 -0.7851 -0.1160
   78SOPE   C25 6977   2.755   4.034   6.533 -0.1573  0.0205 -0.0685
   78SOPE   H5R 6978   2.672   3.964   6.556 -0.9234  0.3965 -1.5401
   78SOPE   H5S 6979   2.714   4.096   6.449  1.0392  1.2079  0.1910
   78SOPE   C26 6980   2.865   3.949   6.459  0.4629  0.4953  0.0370
   78SOPE   H6R 6981   2.953   4.009   6.428  0.1346  0.4380 -1.0630
   78SOPE   H6S 6982   2.898   3.874   6.534 -0.9504  0.9532  1.1774
   78SOPE   C27 6983   2.803   3.888   6.335  0.4169  1.0569 -0.2104
   78SOPE   H7R 6984   2.717   3.827   6.372 -1.5172  0.9448 -4.3435
   78SOPE   H7S 6985   2.753   3.958   6.265 -3.2481 -0.2055  0.8691
   78SOPE   C28 6986   2.902   3.826   6.242  0.6410  1.0225 -0.3564
   78SOPE   H8R 6987   2.972   3.759   6.297 -0.2154  0.0209 -0.4406
   78SOPE   H8S 6988   2.836   3.758   6.183  2.2635 -1.5578  0.6363
   78SOPE   C29 6989   2.987   3.925   6.168  0.3905  0.3516 -0.1448
   78SOPE   H91 6990   3.039   4.005   6.224 -0.1045  0.7429 -0.2417
   78SOPE  C210 6991   2.999   3.926   6.032  0.6380 -0.4410 -0.2380
   78SOPE  H101 6992   3.065   4.004   5.992 -0.4532 -0.7274 -2.7334
   78SOPE  C211 6993   2.934   3.836   5.929  0.7528 -0.0633 -0.5039
   78SOPE  H11R 6994   2.897   3.743   5.978  1.6683  0.0182  0.3849
   78SOPE  H11S 6995   3.017   3.808   5.861  1.4137  2.0679 -0.6626
   78SOPE  C212 6996   2.804   3.889   5.853 -0.5676  0.9122 -0.0388
   78SOPE  H12R 6997   2.782   3.820   5.769 -2.5234  0.6574  0.6213
   78SOPE  H12S 6998   2.830   3.985   5.805  0.0736  1.7685  1.9258
   78SOPE  C213 6999   2.689   3.921   5.945  0.1516  0.5228 -0.2457
   78SOPE  H13R 7000   2.728   3.990   6.023 -1.3889  4.5558 -2.7647
   78SOPE  H13S 7001   2.653   3.836   6.007  0.5841  1.2444  1.0301
   78SOPE  C214 7002   2.575   3.981   5.869  0.6570 -0.5131 -0.2702
   78SOPE  H14R 7003   2.608   4.071   5.812 -0.1331  0.3679  0.6249
   78SOPE  H14S 7004   2.494   4.016   5.937 -0.3900 -2.4432 -0.4603
   78SOPE  C215 7005   2.501   3.901   5.767 -0.7332  0.2961  0.5306
   78SOPE  H15R 7006   2.415   3.850   5.818  0.8754 -1.2203  1.8767
   78SOPE  H15S 7007   2.563   3.823   5.718 -1.7577  0.7246 -1.5629
   78SOPE  C216 7008   2.448   3.992   5.658  0.7115 -0.6458  0.3018
   78SOPE  H16R 7009   2.429   4.096   5.693  0.1568 -0.4084 -0.6595
   78SOPE  H16S 7010   2.354   3.947   5.620  1.5523 -2.2016 -0.0137
   78SOPE  C217 7011   2.540   4.004   5.530 -0.3753  0.7428 -0.1913
   78SOPE  H17R 7012   2.552   3.896   5.507  2.0962  0.1266  3.2155
   78SOPE  H17S 7013   2.643   4.033   5.561  1.0179  1.0365 -4.4454
   78SOPE  C218 7014   2.492   4.089   5.416 -0.9266 -0.0837  0.9471
   78SOPE  H18R 7015   2.456   4.188   5.450  0.2010  0.5009  0.4807
   78SOPE  H18S 7016   2.406   4.039   5.366 -0.7028  1.4596 -1.1236
   78SOPE  H18T 7017   2.568   4.099   5.335 -0.9977  0.1277  0.9065
   78SOPE   C33 7018   2.195   4.377   6.742 -0.2399  0.0213 -0.9002
   78SOPE   H3X 7019   2.139   4.348   6.834  4.2814 -1.8354  1.6258
   78SOPE   H3Y 7020   2.194   4.294   6.668  0.6025  0.1796 -1.0964
   78SOPE   C34 7021   2.140   4.509   6.680 -0.5454 -0.4260 -0.5789
   78SOPE   H4X 7022   2.196   4.597   6.717  0.2057 -0.3570 -1.8224
   78SOPE   H4Y 7023   2.037   4.511   6.721 -0.0531 -1.6569  0.7957
   78SOPE   C35 7024   2.127   4.518   6.526  0.1967  0.2426  0.0176
   78SOPE   H5X 7025   2.084   4.422   6.488 -0.2717  0.9920 -1.4245
   78SOPE   H5Y 7026   2.227   4.538   6.483 -0.6025  0.6655 -1.7203
   78SOPE   C36 7027   2.033   4.629   6.476 -0.1276  0.7048 -0.2368
   78SOPE   H6X 7028   2.080   4.727   6.495 -0.6286  0.9652 -0.3170
   78SOPE   H6Y 7029   1.940   4.631   6.536  0.2432 -0.7294  0.4224
   78SOPE   C37 7030   2.005   4.618   6.327  0.1082  0.7852  0.1603
   78SOPE   H7X 7031   1.950   4.524   6.305  0.7420  0.0397  1.5728
   78SOPE   H7Y 7032   2.101   4.610   6.271  0.6087 -0.9322  1.1736
   78SOPE   C38 7033   1.943   4.746   6.270  0.3886 -0.6686 -0.1006
   78SOPE   H8X 7034   1.990   4.829   6.326  1.9611 -0.1375 -2.0717
   78SOPE   H8Y 7035   1.833   4.738   6.282  0.4866 -1.4027  0.3886
   78SOPE   C39 7036   1.976   4.756   6.116  0.2007  0.6275 -0.0642
   78SOPE   H9X 7037   1.899   4.821   6.070  0.0988  0.4866 -0.0949
   78SOPE   H9Y 7038   1.969   4.655   6.071  0.1984  1.5094 -2.1300
   78SOPE  C310 7039   2.110   4.816   6.088 -0.4424  0.1475  0.0114
   78SOPE  H10X 7040   2.180   4.743   6.134 -1.1854  0.6637  2.0709
   78SOPE  H10Y 7041   2.121   4.914   6.141 -0.4367 -0.4464  1.1454
   78SOPE  C311 7042   2.147   4.829   5.936  0.1195  0.6681 -0.6685
   78SOPE  H11X 7043   2.238   4.890   5.919  0.1535  0.6479 -0.5578
   78SOPE  H11Y 7044   2.069   4.889   5.883 -0.0295  0.8825 -0.2104
   78SOPE  C312 7045   2.166   4.700   5.868  0.4236 -0.3088  0.7353
   78SOPE  H12X 7046   2.080   4.631   5.881 -0.6037  0.8488  0.3271
   78SOPE  H12Y 7047   2.260   4.653   5.903  1.3711 -0.2666 -1.5633
   78SOPE  C313 7048   2.196   4.722   5.712  0.9691 -0.0482 -0.4792
   78SOPE  H13X 7049   2.106   4.757   5.658 -1.2884 -4.2151  0.1324
   78SOPE  H13Y 7050   2.214   4.627   5.657 -2.8198 -0.2027 -1.7363
   78SOPE  C314 7051   2.319   4.811   5.682 -0.5464  0.5143  0.6837
   78SOPE  H14X 7052   2.410   4.787   5.741  1.1517 -0.0288 -1.9838
   78SOPE  H14Y 7053   2.303   4.921   5.692  0.5666  0.8337 -0.6898
   78SOPE  C315 7054   2.363   4.783   5.537 -0.6709  0.0257  0.0369
   78SOPE  H15X 7055   2.277   4.811   5.473 -1.4298  0.1038  1.0683
   78SOPE  H15Y 7056   2.377   4.674   5.522  0.1087  0.3990 -2.4250
   78SOPE  C316 7057   2.484   4.866   5.488  0.0307  0.3062 -0.7547
   78SOPE  H16X 7058   2.562   4.847   5.565  0.1230 -1.2822 -1.2019
   78SOPE  H16Y 7059   2.467   4.975   5.480  2.4074  0.7183 -0.9070
   78SOPE  C317 7060   2.546   4.821   5.356 -0.1982  0.1759  0.5505
   78SOPE  H17X 7061   2.593   4.722   5.371  1.6041  0.9790  0.4137
   78SOPE  H17Y 7062   2.622   4.899   5.334  0.7460 -0.9887 -0.4315
   78SOPE  C318 7063   2.453   4.811   5.235 -0.1250 -0.7185 -0.0907
   78SOPE  H18X 7064   2.370   4.740   5.246 -0.9994  0.6177  2.8216
   78SOPE  H18Y 7065   2.506   4.777   5.143  0.7288  1.0076 -0.2870
   78SOPE  H18Z 7066   2.412   4.912   5.212  0.3097 -1.0408 -2.5663
   79SOPE     N 7067   2.570   0.712   7.140 -0.4794  0.4106  0.5195
   79SOPE   HN1 7068   2.664   0.720   7.184 -0.4929  2.2673  0.3051
   79SOPE   HN2 7069   2.526   0.622   7.167  0.9362 -0.2766  0.6541
   79SOPE   HN3 7070   2.581   0.718   7.037 -0.0920  0.9961  0.5886
   79SOPE   C12 7071   2.495   0.834   7.184 -0.3988 -0.1953  0.1972
   79SOPE  H12A 7072   2.512   0.911   7.106  0.6895 -2.2284 -1.6919
   79SOPE  H12B 7073   2.541   0.867   7.280 -1.5593 -0.7324  0.9500
   79SOPE   C11 7074   2.343   0.806   7.203  1.0828 -0.3443  0.3750
   79SOPE  H11A 7075   2.283   0.899   7.195 -0.5191 -1.3952 -0.1581
   79SOPE  H11B 7076   2.335   0.767   7.306  0.1794 -0.3204  0.3175
   79SOPE     P 7077   2.170   0.643   7.087 -0.0224  0.3851 -0.0622
   79SOPE   O13 7078   2.078   0.757   7.060 -0.2456  0.0164 -0.2608
   79SOPE   O14 7079   2.135   0.553   7.201  0.0424 -0.0377 -0.3617
   79SOPE   O12 7080   2.309   0.705   7.107 -0.1810 -0.1839 -0.6409
   79SOPE   O11 7081   2.194   0.543   6.967  0.4231 -0.8677 -0.4806
   79SOPE    C1 7082   2.281   0.575   6.858 -0.0539 -0.0020 -0.6386
   79SOPE    HA 7083   2.287   0.486   6.791  5.0612  0.8929 -1.8297
   79SOPE    HB 7084   2.387   0.583   6.892 -0.0328 -2.3647  0.0535
   79SOPE    C2 7085   2.229   0.689   6.767 -0.0803  0.8577  0.3207
   79SOPE    HS 7086   2.218   0.778   6.834 -0.8897 -0.2381  1.7025
   79SOPE   O21 7087   2.092   0.657   6.723  0.0646 -0.0602 -0.1100
   79SOPE   C21 7088   2.032   0.753   6.650 -0.0801 -0.2882  0.2972
   79SOPE   O22 7089   2.062   0.869   6.650 -0.6183 -0.4564 -0.6242
   79SOPE   C22 7090   1.939   0.679   6.557  0.3886 -0.1418  0.0649
   79SOPE   H2R 7091   1.841   0.670   6.609  0.4876 -1.4064  0.0594
   79SOPE   H2S 7092   1.975   0.576   6.535 -1.3964 -0.7816  0.0361
   79SOPE    C3 7093   2.324   0.718   6.649 -0.1514  0.8602  0.0598
   79SOPE    HX 7094   2.428   0.710   6.688 -0.4688 -0.3709  0.6901
   79SOPE    HY 7095   2.311   0.822   6.613  1.0471  0.7170 -0.8381
   79SOPE   O31 7096   2.318   0.610   6.545  0.2821 -0.0291 -0.2604
   79SOPE   C31 7097   2.314   0.663   6.420 -0.1663  0.6512  0.8929
   79SOPE   O32 7098   2.318   0.781   6.391  0.2825 -0.6686  0.0148
   79SOPE   C32 7099   2.298   0.542   6.323 -0.0340 -0.1758  0.0206
   79SOPE   H2X 7100   2.212   0.486   6.365 -1.0343  0.0649 -1.6132
   79SOPE   H2Y 7101   2.391   0.482   6.322 -0.0827 -0.2882 -1.8388
   79SOPE   C23 7102   1.910   0.755   6.424  0.0638  0.0903  0.0538
   79SOPE   H3R 7103   1.999   0.797   6.371 -0.0856 -0.2221 -0.4555
   79SOPE   H3S 7104   1.855   0.849   6.442  0.5103  0.2253  0.7387
   79SOPE   C24 7105   1.856   0.669   6.303 -0.6798  0.4099 -0.4145
   79SOPE   H4R 7106   1.908   0.570   6.301  0.3544  0.9044 -3.0741
   79SOPE   H4S 7107   1.748   0.650   6.317 -0.3656 -1.1014  0.1219
   79SOPE   C25 7108   1.884   0.730   6.167 -0.0438  0.1526 -0.0444
   79SOPE   H5R 7109   1.813   0.815   6.167 -1.1541 -0.7403  0.6157
   79SOPE   H5S 7110   1.984   0.778   6.175  0.3582 -0.6501 -0.0773
   79SOPE   C26 7111   1.882   0.639   6.047  0.3537  0.1954 -0.1185
   79SOPE   H6R 7112   1.972   0.574   6.042  1.4084  1.5870  0.0517
   79SOPE   H6S 7113   1.800   0.564   6.049  0.5556 -0.0408  2.7696
   79SOPE   C27 7114   1.863   0.707   5.916 -0.0931 -0.3163  0.1584
   79SOPE   H7R 7115   1.755   0.734   5.911 -0.4536 -1.5597  0.8794
   79SOPE   H7S 7116   1.921   0.802   5.916  1.4730 -1.0029  4.7566
   79SOPE   C28 7117   1.890   0.630   5.789  0.4825  0.4757 -0.5149
   79SOPE   H8R 7118   1.916   0.711   5.717  2.0387 -0.6319 -1.2624
   79SOPE   H8S 7119   1.980   0.568   5.806 -2.3098 -3.4374  1.8003
   79SOPE   C29 7120   1.777   0.537   5.744  0.2223 -0.1453  0.0104
   79SOPE   H91 7121   1.710   0.490   5.817  1.0174 -1.2300  0.0636
   79SOPE  C210 7122   1.775   0.481   5.619  0.0426 -0.5131 -0.5433
   79SOPE  H101 7123   1.708   0.399   5.591  0.6785 -0.2022 -3.2106
   79SOPE  C211 7124   1.867   0.507   5.511 -0.0997 -0.2776 -0.0166
   79SOPE  H11R 7125   1.959   0.450   5.535  0.2680  0.4456  0.3477
   79SOPE  H11S 7126   1.895   0.614   5.521  1.5816 -0.7791  1.0801
   79SOPE  C212 7127   1.799   0.473   5.377 -1.2250 -0.8578 -0.5096
   79SOPE  H12R 7128   1.882   0.487   5.304 -1.4491  1.7270 -0.3317
   79SOPE  H12S 7129   1.726   0.552   5.349  0.8051  1.1489 -0.4074
   79SOPE  C213 7130   1.730   0.330   5.359 -0.0181  0.1746 -0.1493
   79SOPE  H13R 7131   1.705   0.323   5.251 -1.1900 -1.2330  0.1823
   79SOPE  H13S 7132   1.633   0.326   5.413 -0.4901 -0.4856 -1.0177
   79SOPE  C214 7133   1.816   0.218   5.414  0.4445  0.1694  0.5214
   79SOPE  H14R 7134   1.835   0.231   5.523 -0.0446  1.4114  0.4702
   79SOPE  H14S 7135   1.920   0.224   5.374  0.8760  1.6523  1.7453
   79SOPE  C215 7136   1.764   0.081   5.377 -0.2755 -0.5797  0.1772
   79SOPE  H15R 7137   1.737   0.072   5.270 -0.5546  3.0148 -0.1703
   79SOPE  H15S 7138   1.678   0.050   5.439 -1.3993  0.0562 -1.0260
   79SOPE  C216 7139   1.867  -0.036   5.412 -0.2890 -0.4371 -0.3225
   79SOPE  H16R 7140   1.803  -0.118   5.452 -1.3009  1.6274  2.6199
   79SOPE  H16S 7141   1.939  -0.003   5.490 -0.2783  2.3515 -1.3906
   79SOPE  C217 7142   1.948  -0.074   5.282 -0.3480  0.0335 -0.1204
   79SOPE  H17R 7143   2.007   0.012   5.244  0.6887 -0.8720 -0.6170
   79SOPE  H17S 7144   1.869  -0.094   5.206 -1.5546  2.2835  0.4623
   79SOPE  C218 7145   2.045  -0.189   5.299 -0.0640 -0.2212  0.1584
   79SOPE  H18R 7146   2.110  -0.191   5.209  0.2804  1.6604  0.3348
   79SOPE  H18S 7147   1.995  -0.288   5.302  0.3242 -0.4327  3.2637
   79SOPE  H18T 7148   2.115  -0.166   5.383 -2.0332  0.9924  1.5421
   79SOPE   C33 7149   2.273   0.576   6.168 -0.1423 -0.0206  0.5602
   79SOPE   H3X 7150   2.364   0.634   6.143 -1.2960  2.6222  2.0428
   79SOPE   H3Y 7151   2.186   0.642   6.143 -0.2413 -0.2476  0.3010
   79SOPE   C34 7152   2.262   0.448   6.086 -0.1953 -0.4286 -0.1085
   79SOPE   H4X 7153   2.157   0.410   6.090 -0.2238 -0.3872 -0.4218
   79SOPE   H4Y 7154   2.342   0.377   6.117  0.9534  0.5922 -0.6904
   79SOPE   C35 7155   2.287   0.486   5.936 -0.0349  0.0663 -0.3379
   79SOPE   H5X 7156   2.391   0.524   5.927  0.9608 -1.8868  1.8208
   79SOPE   H5Y 7157   2.222   0.573   5.911 -1.3672 -1.3164 -1.8562
   79SOPE   C36 7158   2.260   0.385   5.824 -0.2734 -0.0369 -0.1834
   79SOPE   H6X 7159   2.160   0.338   5.825  0.4394 -1.6711 -1.2361
   79SOPE   H6Y 7160   2.337   0.304   5.826 -0.5802 -0.3266  1.9430
   79SOPE   C37 7161   2.265   0.445   5.688 -0.2224  0.1727  0.6257
   79SOPE   H7X 7162   2.361   0.500   5.672  0.5727 -1.0651  1.0065
   79SOPE   H7Y 7163   2.180   0.505   5.648 -1.6683 -2.0102  0.2789
   79SOPE   C38 7164   2.275   0.329   5.586 -0.2447 -0.3986 -0.4157
   79SOPE   H8X 7165   2.202   0.252   5.619  0.0296 -0.5005 -0.0395
   79SOPE   H8Y 7166   2.377   0.291   5.605  1.1591  3.3419  0.4726
   79SOPE   C39 7167   2.257   0.373   5.445 -0.0689 -0.1491 -0.4560
   79SOPE   H9X 7168   2.331   0.452   5.418  0.1480 -0.7412 -1.6488
   79SOPE   H9Y 7169   2.159   0.425   5.431 -0.7733 -1.3017  0.0781
   79SOPE  C310 7170   2.285   0.258   5.349  0.3608 -0.2088  0.1283
   79SOPE  H10X 7171   2.218   0.172   5.371  0.6199 -1.6115 -3.8656
   79SOPE  H10Y 7172   2.391   0.225   5.349  0.2783 -0.4794  0.3174
   79SOPE  C311 7173   2.256   0.294   5.203  0.0753 -0.6628  0.0061
   79SOPE  H11X 7174   2.336   0.366   5.173  1.0861 -0.5699  2.6422
   79SOPE  H11Y 7175   2.161   0.351   5.208  0.6601  0.3158  5.1505
   79SOPE  C312 7176   2.244   0.175   5.107 -0.5139  0.1450 -0.3623
   79SOPE  H12X 7177   2.205   0.201   5.006 -0.8646 -1.6898 -0.7403
   79SOPE  H12Y 7178   2.171   0.105   5.154  1.1845 -1.0301  0.6128
   79SOPE  C313 7179   2.374   0.091   5.085  0.1110  0.0893  0.9460
   79SOPE  H13X 7180   2.423   0.088   5.185  0.5848  3.3176  0.8970
   79SOPE  H13Y 7181   2.436   0.151   5.016  0.3680  0.9040  1.8535
   79SOPE  C314 7182   2.344  -0.050   5.036  0.4069  0.6561 -0.2444
   79SOPE  H14X 7183   2.297  -0.111   5.115  0.6719 -0.3204 -0.8176
   79SOPE  H14Y 7184   2.448  -0.085   5.020  0.4136  1.5659 -2.6019
   79SOPE  C315 7185   2.245  -0.043   4.917  0.0881 -0.4409  0.3143
   79SOPE  H15X 7186   2.152   0.014   4.937 -0.8721 -1.1311 -1.8559
   79SOPE  H15Y 7187   2.219  -0.150   4.899 -0.5242 -0.2290 -0.0856
   79SOPE  C316 7188   2.297   0.011   4.789  0.2083 -0.5022  0.5366
   79SOPE  H16X 7189   2.403  -0.021   4.777 -0.1350 -1.3647 -0.2647
   79SOPE  H16Y 7190   2.288   0.122   4.786  1.4993 -0.3115  1.9158
   79SOPE  C317 7191   2.211  -0.034   4.665 -0.1476  0.3354 -0.6439
   79SOPE  H17X 7192   2.104  -0.024   4.691  0.1699  0.1628  0.8568
   79SOPE  H17Y 7193   2.231  -0.141   4.642  0.7614  0.0121  1.3824
   79SOPE  C318 7194   2.246   0.049   4.543 -0.1036 -0.0771 -0.2446
   79SOPE  H18X 7195   2.176   0.026   4.460 -0.0409  1.4324 -0.7553
   79SOPE  H18Y 7196   2.352   0.026   4.521  1.7936  3.4759  3.6647
   79SOPE  H18Z 7197   2.240   0.159   4.555  0.5581 -0.0051 -0.5456
   80SOPE     N 7198   0.040   4.021   7.340  0.3627  0.5868  0.2744
   80SOPE   HN1 7199   0.038   3.950   7.416 -0.4774  0.2936 -0.0175
   80SOPE   HN2 7200  -0.047   4.077   7.352 -1.4362 -0.2368 -5.6710
   80SOPE   HN3 7201   0.033   3.966   7.252 -0.7011  2.9065 -1.1914
   80SOPE   C12 7202   0.165   4.110   7.347  0.1523  0.3078  0.6715
   80SOPE  H12A 7203   0.252   4.053   7.387  1.6855  1.6995 -0.5334
   80SOPE  H12B 7204   0.148   4.191   7.422  0.2917 -0.3085  1.3749
   80SOPE   C11 7205   0.196   4.160   7.209 -0.2111  0.1863  0.5070
   80SOPE  H11A 7206   0.122   4.232   7.168 -1.0626 -1.2867 -0.6176
   80SOPE  H11B 7207   0.190   4.066   7.150 -1.0578  0.5920 -0.0651
   80SOPE     P 7208   0.377   4.342   7.253  0.2516 -0.5352 -0.1339
   80SOPE   O13 7209   0.518   4.335   7.287  0.8948  0.0180  0.1400
   80SOPE   O14 7210   0.286   4.401   7.355 -0.0118 -0.2456 -0.6068
   80SOPE   O12 7211   0.331   4.199   7.202 -0.6552 -0.4131 -0.0859
   80SOPE   O11 7212   0.366   4.440   7.126  0.3125 -0.0969 -0.0351
   80SOPE    C1 7213   0.393   4.380   6.996 -0.3004  0.3806  0.3634
   80SOPE    HA 7214   0.341   4.283   6.979 -0.6817  0.7372 -0.5588
   80SOPE    HB 7215   0.501   4.357   6.996 -0.3139  0.3028 -0.2283
   80SOPE    C2 7216   0.349   4.480   6.891  0.1540  0.0445  0.6935
   80SOPE    HS 7217   0.244   4.516   6.899  0.4049  1.0350 -0.1916
   80SOPE   O21 7218   0.370   4.423   6.762  0.3576 -0.6225  0.5779
   80SOPE   C21 7219   0.295   4.330   6.714 -0.2712  1.1189  0.2236
   80SOPE   O22 7220   0.186   4.291   6.757 -0.0689 -0.4162  0.3966
   80SOPE   C22 7221   0.372   4.257   6.594 -0.2216 -0.4409 -0.6389
   80SOPE   H2R 7222   0.302   4.187   6.544 -0.6703  0.7302 -1.7214
   80SOPE   H2S 7223   0.463   4.210   6.635  0.5438  0.9374 -0.7181
   80SOPE    C3 7224   0.433   4.606   6.904  0.8900 -0.2592  0.2401
   80SOPE    HX 7225   0.538   4.571   6.898  0.5256 -1.3282 -0.1920
   80SOPE    HY 7226   0.403   4.656   6.998  1.4351  1.8850 -0.6566
   80SOPE   O31 7227   0.418   4.702   6.794 -0.3898 -0.0303 -0.5113
   80SOPE   C31 7228   0.300   4.773   6.805  0.3968 -0.3500 -0.0353
   80SOPE   O32 7229   0.214   4.756   6.887 -0.2017  0.2323 -0.2503
   80SOPE   C32 7230   0.291   4.868   6.681  0.5408  0.4253  0.3541
   80SOPE   H2X 7231   0.380   4.934   6.692  0.9600 -0.1458  0.4417
   80SOPE   H2Y 7232   0.198   4.927   6.670  1.7229  2.2584 -0.3571
   80SOPE   C23 7233   0.418   4.362   6.486 -0.8517  0.2767 -0.8083
   80SOPE   H3R 7234   0.527   4.345   6.477 -0.6559  0.5652  0.7210
   80SOPE   H3S 7235   0.397   4.467   6.517 -0.8945  0.2158 -0.6302
   80SOPE   C24 7236   0.358   4.340   6.351  0.5858  0.4307  0.9655
   80SOPE   H4R 7237   0.351   4.229   6.344 -1.9553  0.6465 -1.6649
   80SOPE   H4S 7238   0.253   4.377   6.349  0.8188  1.2134 -2.6269
   80SOPE   C25 7239   0.445   4.388   6.237 -0.9445 -0.4450  0.5303
   80SOPE   H5R 7240   0.499   4.477   6.273 -0.3728 -1.1221  1.3780
   80SOPE   H5S 7241   0.518   4.309   6.210  1.4844  0.7028  3.2519
   80SOPE   C26 7242   0.358   4.432   6.112 -0.9084  0.1181 -0.4732
   80SOPE   H6R 7243   0.305   4.340   6.080  0.6691 -1.4502  1.2171
   80SOPE   H6S 7244   0.286   4.514   6.134 -0.5495  0.1164  0.7881
   80SOPE   C27 7245   0.454   4.488   6.004 -0.0998  0.4057  0.4392
   80SOPE   H7R 7246   0.512   4.575   6.041 -0.9184  2.1538 -2.1093
   80SOPE   H7S 7247   0.528   4.409   5.977 -0.7411  0.1577 -0.6664
   80SOPE   C28 7248   0.391   4.515   5.870  1.1399 -0.6305  0.2649
   80SOPE   H8R 7249   0.316   4.434   5.853  0.3781 -0.3986  2.2079
   80SOPE   H8S 7250   0.339   4.613   5.879  1.5691 -0.3063 -0.6997
   80SOPE   C29 7251   0.486   4.546   5.756  0.0055  0.1082  0.4008
   80SOPE   H91 7252   0.537   4.641   5.778  1.1396 -1.0171  3.0141
   80SOPE  C210 7253   0.495   4.469   5.637  0.2034  0.6479  0.3662
   80SOPE  H101 7254   0.567   4.498   5.559  2.6931  0.0839  2.2992
   80SOPE  C211 7255   0.395   4.357   5.607 -0.7603 -0.0327 -0.4881
   80SOPE  H11R 7256   0.380   4.300   5.701  0.1553  0.4135 -0.0591
   80SOPE  H11S 7257   0.446   4.290   5.535  0.5923  2.6400 -2.1699
   80SOPE  C212 7258   0.261   4.403   5.549  0.3649  0.0507 -0.2164
   80SOPE  H12R 7259   0.228   4.484   5.617  0.2792 -1.4663  1.6036
   80SOPE  H12S 7260   0.186   4.321   5.557 -1.7445  1.6609 -1.9974
   80SOPE  C213 7261   0.262   4.455   5.404 -0.2752 -0.0075  0.8525
   80SOPE  H13R 7262   0.330   4.543   5.391  0.7076 -0.5143  2.2174
   80SOPE  H13S 7263   0.160   4.480   5.370  0.5164 -0.1484 -1.8365
   80SOPE  C214 7264   0.305   4.344   5.312  0.0629  1.1313  0.2483
   80SOPE  H14R 7265   0.230   4.262   5.322  0.7926  0.4690  0.3958
   80SOPE  H14S 7266   0.407   4.307   5.335 -1.1024 -2.3697  0.3542
   80SOPE  C215 7267   0.313   4.381   5.158 -0.2636 -0.3303  0.6484
   80SOPE  H15R 7268   0.394   4.456   5.143 -0.2880 -0.5062 -0.4292
   80SOPE  H15S 7269   0.219   4.429   5.122  0.9724 -0.3226 -2.9901
   80SOPE  C216 7270   0.345   4.266   5.063  0.4224 -0.1048  0.6506
   80SOPE  H16R 7271   0.265   4.190   5.056 -0.0298  0.4114  0.1182
   80SOPE  H16S 7272   0.438   4.217   5.100  1.1298 -0.2116 -1.1796
   80SOPE  C217 7273   0.387   4.307   4.919 -0.0849  1.0837 -0.4725
   80SOPE  H17R 7274   0.426   4.411   4.924  0.6190  0.8558 -0.9900
   80SOPE  H17S 7275   0.292   4.313   4.862 -0.0158  1.3641 -0.5579
   80SOPE  C218 7276   0.485   4.210   4.855  0.1983 -0.0177 -0.5005
   80SOPE  H18R 7277   0.432   4.112   4.859 -0.3212  0.2095 -1.5156
   80SOPE  H18S 7278   0.573   4.195   4.921 -0.8368  0.5879  1.1072
   80SOPE  H18T 7279   0.516   4.247   4.755  0.3543 -1.4681 -1.0056
   80SOPE   C33 7280   0.324   4.796   6.546  0.8237 -0.8665  0.1404
   80SOPE   H3X 7281   0.261   4.708   6.520  0.6819 -1.6370  2.8436
   80SOPE   H3Y 7282   0.432   4.772   6.545  1.1730  0.5901  0.9320
   80SOPE   C34 7283   0.306   4.901   6.435  0.8762 -0.2218  0.6917
   80SOPE   H4X 7284   0.381   4.982   6.449 -1.3277  2.2700 -0.9762
   80SOPE   H4Y 7285   0.207   4.951   6.431  0.7780 -0.4379  0.4229
   80SOPE   C35 7286   0.333   4.844   6.291  0.1435  0.1216  0.6139
   80SOPE   H5X 7287   0.246   4.779   6.265  0.7204  0.1914 -1.6960
   80SOPE   H5Y 7288   0.425   4.781   6.289  1.4321  1.9204 -2.2080
   80SOPE   C36 7289   0.354   4.952   6.185  0.1642 -0.0401 -0.3391
   80SOPE   H6X 7290   0.449   4.996   6.221 -0.0801  0.2764 -0.0791
   80SOPE   H6Y 7291   0.281   5.035   6.196 -0.1299 -0.5057  1.5287
   80SOPE   C37 7292   0.346   4.896   6.047  0.2296 -0.4108  0.8011
   80SOPE   H7X 7293   0.238   4.883   6.022  0.2176  1.4559 -0.2928
   80SOPE   H7Y 7294   0.398   4.799   6.044 -0.3572 -0.7399  1.0182
   80SOPE   C38 7295   0.408   4.985   5.937 -0.3592 -0.1198 -0.3777
   80SOPE   H8X 7296   0.517   4.997   5.959 -0.3026 -0.3916 -0.5097
   80SOPE   H8Y 7297   0.371   5.087   5.959  1.1913  0.2446  0.7976
   80SOPE   C39 7298   0.382   4.925   5.805  0.6087  0.4469  0.6924
   80SOPE   H9X 7299   0.285   4.873   5.793  1.2997 -0.3333 -2.1991
   80SOPE   H9Y 7300   0.460   4.848   5.788  0.1826  0.1780 -0.0619
   80SOPE  C310 7301   0.389   5.024   5.695  0.6571 -0.0207 -0.7445
   80SOPE  H10X 7302   0.487   5.078   5.701  0.5688 -0.0220  1.0597
   80SOPE  H10Y 7303   0.315   5.106   5.704  0.3351 -0.4358  0.4094
   80SOPE  C311 7304   0.380   4.964   5.552  0.3837  0.7425 -0.4538
   80SOPE  H11X 7305   0.274   4.951   5.521 -0.8876  2.5018  2.7562
   80SOPE  H11Y 7306   0.435   4.868   5.542  0.7910  0.6888  1.8422
   80SOPE  C312 7307   0.436   5.066   5.454 -0.3044 -0.0708  0.6157
   80SOPE  H12X 7308   0.539   5.085   5.492  0.1121 -0.5268 -0.2605
   80SOPE  H12Y 7309   0.384   5.164   5.466  2.3888  1.5683 -0.2180
   80SOPE  C313 7310   0.451   5.013   5.307  0.6397 -0.3548 -0.1586
   80SOPE  H13X 7311   0.346   5.025   5.270 -0.5285 -2.1815  2.2942
   80SOPE  H13Y 7312   0.487   4.908   5.308 -1.1670 -1.0473 -1.8082
   80SOPE  C314 7313   0.553   5.098   5.221 -0.4109  0.2829 -0.4765
   80SOPE  H14X 7314   0.655   5.059   5.237  0.4302  2.5322  0.1000
   80SOPE  H14Y 7315   0.556   5.204   5.256 -2.5173 -0.1552  1.2482
   80SOPE  C315 7316   0.533   5.081   5.070 -0.6622  0.2221 -0.4753
   80SOPE  H15X 7317   0.625   5.120   5.022  0.3003 -1.1227  0.2205
   80SOPE  H15Y 7318   0.445   5.137   5.031 -0.9585 -0.1153 -0.2946
   80SOPE  C316 7319   0.504   4.938   5.022  0.8928  0.2559 -0.2729
   80SOPE  H16X 7320   0.497   4.927   4.911 -1.7027 -1.9670 -0.0109
   80SOPE  H16Y 7321   0.398   4.914   5.047  0.8843  1.0216  0.4413
   80SOPE  C317 7322   0.606   4.830   5.068 -0.5776 -0.2239 -0.8082
   80SOPE  H17X 7323   0.629   4.856   5.173 -0.9310 -3.1478  0.0955
   80SOPE  H17Y 7324   0.707   4.849   5.025 -0.6358  2.3745  0.0323
   80SOPE  C318 7325   0.559   4.679   5.064 -0.1178 -0.6562 -0.0595
   80SOPE  H18X 7326   0.516   4.659   4.963 -1.9818  3.3053 -0.2417
   80SOPE  H18Y 7327   0.471   4.666   5.131 -0.9967  1.5238 -0.7026
   80SOPE  H18Z 7328   0.647   4.614   5.080  1.8902  2.1731  1.1095
   81SOPE     N 7329   0.002   0.191   7.364 -0.0410 -0.3097 -0.1563
   81SOPE   HN1 7330   0.011   0.294   7.376 -0.7628 -0.1117 -1.1607
   81SOPE   HN2 7331   0.073   0.136   7.417  0.3548 -0.4276 -0.8106
   81SOPE   HN3 7332   0.017   0.175   7.263 -1.7653  3.4578 -1.1704
   81SOPE   C12 7333  -0.127   0.134   7.409  0.8149  0.2297 -0.2529
   81SOPE  H12A 7334  -0.122   0.098   7.513  0.1793 -1.1466 -0.6770
   81SOPE  H12B 7335  -0.142   0.043   7.347 -1.8274 -0.5243  1.3474
   81SOPE   C11 7336  -0.233   0.238   7.377 -0.2350  0.8609 -0.5620
   81SOPE  H11A 7337  -0.204   0.316   7.451  0.8601 -1.5690  1.7520
   81SOPE  H11B 7338  -0.334   0.198   7.400 -0.6193  0.7673 -2.3132
   81SOPE     P 7339  -0.340   0.277   7.140  0.1015  0.2082  0.1064
   81SOPE   O13 7340  -0.436   0.381   7.179  0.4805 -0.8146 -0.7107
   81SOPE   O14 7341  -0.395   0.143   7.137 -0.1396  0.5795  0.1500
   81SOPE   O12 7342  -0.221   0.284   7.241  0.8524 -0.0507 -0.2808
   81SOPE   O11 7343  -0.271   0.312   7.003  0.5211  0.3983 -0.0225
   81SOPE    C1 7344  -0.134   0.275   6.981  0.4963 -0.1225 -0.4786
   81SOPE    HA 7345  -0.069   0.240   7.064  1.1938 -0.9603 -1.3646
   81SOPE    HB 7346  -0.080   0.367   6.951  0.5641  0.5242  1.4511
   81SOPE    C2 7347  -0.123   0.161   6.873  0.3938  0.6332  0.4084
   81SOPE    HS 7348  -0.016   0.139   6.852 -0.8097 -3.8608 -2.4576
   81SOPE   O21 7349  -0.172   0.193   6.744 -0.3666 -0.3449 -0.1117
   81SOPE   C21 7350  -0.119   0.294   6.681 -0.0910  0.2483 -0.7174
   81SOPE   O22 7351  -0.029   0.362   6.722 -0.5595 -0.0816 -0.9975
   81SOPE   C22 7352  -0.186   0.312   6.550  1.1274  0.7235  0.5293
   81SOPE   H2R 7353  -0.267   0.387   6.560 -0.8997 -1.2771 -0.1143
   81SOPE   H2S 7354  -0.244   0.218   6.536  0.7592  1.0539 -0.1885
   81SOPE    C3 7355  -0.189   0.031   6.912 -0.2623 -1.0092 -0.4890
   81SOPE    HX 7356  -0.297   0.044   6.932  0.0914  0.5470  0.5805
   81SOPE    HY 7357  -0.149  -0.003   7.010 -1.3971  0.6940  0.6038
   81SOPE   O31 7358  -0.164  -0.078   6.816  0.4253  0.3093  0.3010
   81SOPE   C31 7359  -0.042  -0.135   6.827 -0.8285 -0.6214 -0.1857
   81SOPE   O32 7360   0.040  -0.105   6.919  0.8764  0.0805  0.8930
   81SOPE   C32 7361  -0.027  -0.238   6.723  0.4221  0.2407  0.1051
   81SOPE   H2X 7362  -0.124  -0.259   6.671  0.9221 -1.6542 -0.1447
   81SOPE   H2Y 7363  -0.015  -0.335   6.775 -3.7504  0.4491  1.9007
   81SOPE   C23 7364  -0.090   0.342   6.435  0.7699 -0.3731 -0.5589
   81SOPE   H3R 7365  -0.007   0.268   6.442  0.3608 -0.7141  1.4658
   81SOPE   H3S 7366  -0.039   0.438   6.456  0.5840 -0.0906 -1.3793
   81SOPE   C24 7367  -0.150   0.357   6.295  0.6900 -0.9183  0.4355
   81SOPE   H4R 7368  -0.062   0.372   6.229 -0.1592  0.9886 -0.3345
   81SOPE   H4S 7369  -0.212   0.276   6.251  0.3091 -1.1484  1.3607
   81SOPE   C25 7370  -0.232   0.490   6.278 -0.7424  0.1820  0.1222
   81SOPE   H5R 7371  -0.336   0.482   6.317 -0.8116  2.6955  0.6226
   81SOPE   H5S 7372  -0.179   0.569   6.334  0.5767 -0.3221 -0.3806
   81SOPE   C26 7373  -0.236   0.541   6.134 -0.2136 -0.1970  0.4504
   81SOPE   H6R 7374  -0.129   0.533   6.107 -0.5217  1.8946 -1.6366
   81SOPE   H6S 7375  -0.298   0.471   6.074  2.2931 -1.8945 -0.3261
   81SOPE   C27 7376  -0.275   0.684   6.126 -0.2796 -0.4984 -0.5033
   81SOPE   H7R 7377  -0.308   0.720   6.226  1.3503 -1.5439  0.4372
   81SOPE   H7S 7378  -0.182   0.742   6.111  0.9887 -1.0856  3.7726
   81SOPE   C28 7379  -0.378   0.711   6.010  0.0239 -0.6205 -0.2660
   81SOPE   H8R 7380  -0.330   0.673   5.917  0.7773  2.0422 -1.0434
   81SOPE   H8S 7381  -0.467   0.645   6.016 -0.0443 -0.3970  1.9301
   81SOPE   C29 7382  -0.414   0.856   5.996  0.5886  0.6195 -0.2061
   81SOPE   H91 7383  -0.440   0.912   6.087  0.5749 -0.3131  0.3718
   81SOPE  C210 7384  -0.407   0.928   5.888  0.3736 -0.2183  0.4307
   81SOPE  H101 7385  -0.456   1.026   5.883 -2.1006 -1.3026  1.8163
   81SOPE  C211 7386  -0.351   0.891   5.752  0.3023  0.2077 -0.0632
   81SOPE  H11R 7387  -0.369   0.782   5.740 -0.0836  0.0935  1.3812
   81SOPE  H11S 7388  -0.240   0.888   5.747  0.3119 -1.1134  0.5409
   81SOPE  C212 7389  -0.409   0.969   5.631  0.1919  0.2324  0.0453
   81SOPE  H12R 7390  -0.385   1.075   5.650  0.5041  0.0559  0.6670
   81SOPE  H12S 7391  -0.519   0.961   5.618  0.2549  0.9878 -1.0791
   81SOPE  C213 7392  -0.350   0.919   5.501  0.3699 -0.1358  0.6049
   81SOPE  H13R 7393  -0.240   0.919   5.514  0.1620  0.9474  2.6175
   81SOPE  H13S 7394  -0.388   0.979   5.416 -0.8479 -2.0289 -0.2557
   81SOPE  C214 7395  -0.397   0.774   5.479  0.2607 -0.1725  1.2672
   81SOPE  H14R 7396  -0.507   0.771   5.490  0.3204  0.4927  2.2071
   81SOPE  H14S 7397  -0.363   0.707   5.561  1.2718  1.7410  2.4920
   81SOPE  C215 7398  -0.355   0.724   5.345 -0.2963  0.1169  0.4290
   81SOPE  H15R 7399  -0.253   0.679   5.339 -1.8211 -3.5659 -1.7839
   81SOPE  H15S 7400  -0.369   0.804   5.269  0.2909  1.8090  2.0509
   81SOPE  C216 7401  -0.436   0.598   5.293 -0.3923 -0.3925  0.1296
   81SOPE  H16R 7402  -0.385   0.567   5.199  2.5361  0.5176  1.3054
   81SOPE  H16S 7403  -0.543   0.622   5.276 -0.3335 -0.0200  0.2663
   81SOPE  C217 7404  -0.418   0.477   5.388  0.3401  0.6027 -0.0501
   81SOPE  H17R 7405  -0.467   0.491   5.486  0.5351 -0.0376  0.1502
   81SOPE  H17S 7406  -0.309   0.453   5.397  0.4123  0.4325 -1.1898
   81SOPE  C218 7407  -0.492   0.361   5.321  0.4446  0.6751  0.1445
   81SOPE  H18R 7408  -0.600   0.383   5.310  0.6969  1.3363 -1.2829
   81SOPE  H18S 7409  -0.476   0.274   5.388  2.9542  1.6765  0.9606
   81SOPE  H18T 7410  -0.449   0.336   5.222 -0.2682 -0.3988  0.0825
   81SOPE   C33 7411   0.085  -0.208   6.628  0.2338 -0.5167  0.4994
   81SOPE   H3X 7412   0.117  -0.303   6.580 -0.7605 -0.7574  0.2981
   81SOPE   H3Y 7413   0.182  -0.184   6.676  1.2909 -1.8041 -0.8582
   81SOPE   C34 7414   0.063  -0.090   6.529  0.3427  0.2781  0.6625
   81SOPE   H4X 7415   0.155  -0.068   6.471 -0.0240 -0.1373 -0.0919
   81SOPE   H4Y 7416   0.041  -0.004   6.595  0.8900 -0.9369  2.5375
   81SOPE   C35 7417  -0.058  -0.117   6.433 -0.0022 -0.4390 -0.1655
   81SOPE   H5X 7418  -0.150  -0.092   6.490  1.5038 -0.9398  2.6760
   81SOPE   H5Y 7419  -0.047  -0.227   6.423 -0.5373 -0.5011 -0.1048
   81SOPE   C36 7420  -0.070  -0.044   6.292 -0.0804 -0.1089 -0.2060
   81SOPE   H6X 7421   0.016  -0.064   6.225 -0.3704  2.2388 -1.3622
   81SOPE   H6Y 7422  -0.072   0.066   6.305 -1.8974 -0.1236 -0.0571
   81SOPE   C37 7423  -0.187  -0.103   6.212  0.0018 -0.0169  0.5595
   81SOPE   H7X 7424  -0.287  -0.106   6.259 -0.1979  2.1023  0.3868
   81SOPE   H7Y 7425  -0.168  -0.211   6.198 -1.5832 -0.3194  0.6018
   81SOPE   C38 7426  -0.184  -0.048   6.073  0.1002  0.2643  0.0038
   81SOPE   H8X 7427  -0.092  -0.084   6.024 -0.4181 -2.5258  0.8944
   81SOPE   H8Y 7428  -0.182   0.064   6.071  1.5317  0.2548  0.3982
   81SOPE   C39 7429  -0.309  -0.085   5.989 -0.0382 -0.3460 -0.0051
   81SOPE   H9X 7430  -0.398  -0.027   6.021  0.7311  0.4900  0.7092
   81SOPE   H9Y 7431  -0.323  -0.195   5.999 -1.3662 -0.1223  0.7630
   81SOPE  C310 7432  -0.292  -0.050   5.841 -0.4034  0.2777  0.4033
   81SOPE  H10X 7433  -0.193  -0.077   5.798  0.3852  0.6940  1.8949
   81SOPE  H10Y 7434  -0.312   0.058   5.824  0.7923  0.6894  1.5392
   81SOPE  C311 7435  -0.398  -0.132   5.755 -0.5598  0.1217 -0.7185
   81SOPE  H11X 7436  -0.489  -0.146   5.816 -0.1937 -1.5200 -0.5106
   81SOPE  H11Y 7437  -0.351  -0.226   5.717 -0.0783 -0.1039  0.3923
   81SOPE  C312 7438  -0.444  -0.054   5.624 -0.5660  0.0364 -0.6155
   81SOPE  H12X 7439  -0.449   0.057   5.634  0.7753  0.1304 -0.7596
   81SOPE  H12Y 7440  -0.548  -0.087   5.603 -0.8980 -0.1162  1.0640
   81SOPE  C313 7441  -0.344  -0.095   5.520  0.7503 -0.0922  0.0173
   81SOPE  H13X 7442  -0.353  -0.203   5.496  1.3835 -0.6756  2.1373
   81SOPE  H13Y 7443  -0.244  -0.080   5.565 -0.4084 -0.1340  2.8015
   81SOPE  C314 7444  -0.339   0.011   5.405  0.4322  0.1229 -0.2458
   81SOPE  H14X 7445  -0.310   0.104   5.458 -0.7607  0.3499  0.0403
   81SOPE  H14Y 7446  -0.443   0.024   5.370  0.5523 -1.1428 -1.1363
   81SOPE  C315 7447  -0.240  -0.024   5.295  0.0902 -0.1228 -0.5965
   81SOPE  H15X 7448  -0.262  -0.128   5.264  1.5481 -0.5200 -0.3620
   81SOPE  H15Y 7449  -0.138  -0.027   5.339  0.3057 -0.7379 -1.1228
   81SOPE  C316 7450  -0.243   0.073   5.180  0.5664 -0.2624  0.8605
   81SOPE  H16X 7451  -0.153   0.063   5.116  0.4196 -2.1247  0.8944
   81SOPE  H16Y 7452  -0.240   0.177   5.219  0.6906 -0.4864  1.4496
   81SOPE  C317 7453  -0.364   0.069   5.082  0.1586  0.3255 -0.0436
   81SOPE  H17X 7454  -0.321   0.121   4.994  0.1885 -1.7831 -1.3494
   81SOPE  H17Y 7455  -0.458   0.116   5.118 -0.9956 -1.4154 -0.6710
   81SOPE  C318 7456  -0.398  -0.071   5.034  0.0755 -0.1753 -0.4976
   81SOPE  H18X 7457  -0.473  -0.065   4.952  1.3987 -0.1015 -1.7372
   81SOPE  H18Y 7458  -0.420  -0.143   5.115  0.9115  0.0711 -0.0465
   81SOPE  H18Z 7459  -0.302  -0.110   4.994  1.3681  0.8118  1.4984
   82SOPE     N 7460   5.975   4.451   7.038  0.3684  0.4434  0.3607
   82SOPE   HN1 7461   5.925   4.480   7.125 -0.3882  0.2502  0.0029
   82SOPE   HN2 7462   6.078   4.450   7.052  0.3790  2.2008  0.7185
   82SOPE   HN3 7463   5.946   4.521   6.966  1.0858 -0.9563 -1.3332
   82SOPE   C12 7464   5.915   4.321   6.994 -0.0944 -0.7970  0.2741
   82SOPE  H12A 7465   5.954   4.288   6.895 -1.3049  2.2814 -1.3752
   82SOPE  H12B 7466   5.805   4.330   6.981 -0.6523 -0.7575  3.9050
   82SOPE   C11 7467   5.925   4.214   7.109 -0.0386  0.1714 -0.0029
   82SOPE  H11A 7468   6.028   4.172   7.121 -0.6647 -1.7143 -0.8720
   82SOPE  H11B 7469   5.860   4.133   7.071 -0.1720  0.4416 -0.3560
   82SOPE     P 7470   5.754   4.212   7.300 -0.1067  0.2422  0.1196
   82SOPE   O13 7471   5.724   4.315   7.402  0.1089  0.2406 -0.0526
   82SOPE   O14 7472   5.760   4.073   7.351  0.0096  0.7693  0.2482
   82SOPE   O12 7473   5.887   4.266   7.237  0.0343  0.5147 -0.1941
   82SOPE   O11 7474   5.661   4.221   7.180 -0.5121 -0.3471  0.1738
   82SOPE    C1 7475   5.581   4.336   7.143 -0.1759 -0.0696 -0.0588
   82SOPE    HA 7476   5.656   4.417   7.126 -0.3369 -0.3222 -2.1721
   82SOPE    HB 7477   5.518   4.375   7.226 -1.9427  0.0594 -1.4231
   82SOPE    C2 7478   5.502   4.318   7.011  0.2072 -0.2576 -0.6704
   82SOPE    HS 7479   5.417   4.252   7.039 -0.3970  1.1628  1.0655
   82SOPE   O21 7480   5.587   4.267   6.907 -0.0110 -0.3648  0.0547
   82SOPE   C21 7481   5.586   4.140   6.894 -0.2497  0.1916 -0.0237
   82SOPE   O22 7482   5.527   4.054   6.959  0.3088 -0.6023 -0.5368
   82SOPE   C22 7483   5.690   4.095   6.781 -0.3520  0.5752 -0.0518
   82SOPE   H2R 7484   5.743   4.010   6.830 -1.0999 -0.3516 -0.8070
   82SOPE   H2S 7485   5.757   4.180   6.756 -0.1007  0.3527 -0.1522
   82SOPE    C3 7486   5.440   4.451   6.964 -0.6465 -0.0253 -0.4210
   82SOPE    HX 7487   5.527   4.518   6.949 -1.1679  0.3137 -2.1604
   82SOPE    HY 7488   5.378   4.501   7.041  0.5367  4.2388 -1.9178
   82SOPE   O31 7489   5.352   4.438   6.846 -1.0109 -0.3095 -0.4470
   82SOPE   C31 7490   5.279   4.544   6.820 -0.7812 -0.1588  0.2388
   82SOPE   O32 7491   5.263   4.643   6.893  0.2626 -0.1594 -0.3644
   82SOPE   C32 7492   5.226   4.534   6.677  0.0082 -0.2757  0.3237
   82SOPE   H2X 7493   5.128   4.483   6.668  0.4989 -1.0456 -0.8928
   82SOPE   H2Y 7494   5.307   4.485   6.619  0.1179  0.1466  0.1204
   82SOPE   C23 7495   5.609   4.041   6.670 -0.1986 -0.5885 -0.1392
   82SOPE   H3R 7496   5.527   4.109   6.640 -0.2849 -0.9641 -0.7545
   82SOPE   H3S 7497   5.560   3.943   6.688 -2.4641  0.4309 -0.4081
   82SOPE   C24 7498   5.696   4.032   6.540 -0.3125 -0.2381 -1.0797
   82SOPE   H4R 7499   5.729   4.135   6.515  1.4649 -0.3463  0.5312
   82SOPE   H4S 7500   5.785   3.974   6.572 -2.3243 -3.4317 -0.8923
   82SOPE   C25 7501   5.621   3.966   6.428 -0.2077 -0.0988 -0.2758
   82SOPE   H5R 7502   5.615   3.856   6.441 -0.2836 -0.4907 -2.9845
   82SOPE   H5S 7503   5.520   4.012   6.434  0.6663  1.6810  1.9228
   82SOPE   C26 7504   5.671   3.994   6.286  0.5089  0.6233  0.2161
   82SOPE   H6R 7505   5.678   4.101   6.259 -0.1196  0.3775 -1.0268
   82SOPE   H6S 7506   5.767   3.942   6.266 -0.6562 -2.7477  2.4727
   82SOPE   C27 7507   5.573   3.944   6.179  0.3522  0.3158  0.4241
   82SOPE   H7R 7508   5.542   3.843   6.211 -1.7996 -0.2558 -2.9617
   82SOPE   H7S 7509   5.473   3.993   6.187 -0.1728 -0.5479 -0.5979
   82SOPE   C28 7510   5.606   3.941   6.030 -0.5044 -0.2955  0.0346
   82SOPE   H8R 7511   5.612   4.043   5.986  1.1706 -1.0872 -1.7335
   82SOPE   H8S 7512   5.708   3.908   6.001 -0.6402 -0.4596 -0.2550
   82SOPE   C29 7513   5.519   3.850   5.945 -0.5065 -0.1885 -0.1712
   82SOPE   H91 7514   5.519   3.745   5.980 -0.2311  0.8349  3.2825
   82SOPE  C210 7515   5.439   3.888   5.849 -0.1248  0.2754  0.5364
   82SOPE  H101 7516   5.371   3.814   5.805  1.0788 -1.4602  1.4678
   82SOPE  C211 7517   5.436   4.028   5.797 -0.8976  0.3765  0.6725
   82SOPE  H11R 7518   5.539   4.067   5.787 -0.8241  0.2043  0.7557
   82SOPE  H11S 7519   5.384   4.087   5.876 -0.2054 -2.1845  3.2432
   82SOPE  C212 7520   5.369   4.038   5.666  0.3038  0.6175  0.1639
   82SOPE  H12R 7521   5.395   3.959   5.593  1.9201  1.6198 -0.4039
   82SOPE  H12S 7522   5.392   4.139   5.627  1.1229  0.0228 -0.9327
   82SOPE  C213 7523   5.211   4.046   5.688 -0.4334 -0.5603  0.4111
   82SOPE  H13R 7524   5.181   4.119   5.766  2.0207 -0.8199  1.7124
   82SOPE  H13S 7525   5.181   3.950   5.736  1.6724 -0.9687  1.0302
   82SOPE  C214 7526   5.121   4.080   5.561 -0.2792 -0.1809 -0.3029
   82SOPE  H14R 7527   5.147   4.179   5.518  1.9049 -0.3137  0.5520
   82SOPE  H14S 7528   5.020   4.089   5.605 -1.0025 -0.6460 -1.7960
   82SOPE  C215 7529   5.106   3.967   5.455  0.8936  0.8811  0.2589
   82SOPE  H15R 7530   5.083   3.869   5.503 -0.4376  1.8208  1.6467
   82SOPE  H15S 7531   5.188   3.951   5.382 -2.9331 -3.4217 -3.8532
   82SOPE  C216 7532   4.982   3.975   5.363  0.4207 -0.8971  0.0950
   82SOPE  H16R 7533   4.890   3.977   5.425  0.6776  2.1949  0.5182
   82SOPE  H16S 7534   4.982   3.886   5.297 -0.7686  0.1693 -1.4157
   82SOPE  C217 7535   4.976   4.111   5.280 -0.4279  0.1883  0.5564
   82SOPE  H17R 7536   4.983   4.199   5.347 -1.4280 -0.2677  1.2894
   82SOPE  H17S 7537   4.878   4.112   5.227 -0.5443  1.1853  0.7658
   82SOPE  C218 7538   5.076   4.126   5.165  0.0956  0.6090 -0.2277
   82SOPE  H18R 7539   5.181   4.135   5.199  0.4400 -2.4647 -0.1950
   82SOPE  H18S 7540   5.049   4.228   5.130  0.1157  0.7349  0.1121
   82SOPE  H18T 7541   5.070   4.058   5.078  1.4552  3.0391 -2.3613
   82SOPE   C33 7542   5.192   4.678   6.637 -0.2453  0.4856  0.3777
   82SOPE   H3X 7543   5.280   4.737   6.605  0.4154 -0.7804 -0.1910
   82SOPE   H3Y 7544   5.142   4.744   6.712 -0.7395  0.5003  0.0394
   82SOPE   C34 7545   5.106   4.685   6.506 -0.0383 -0.4634  0.1431
   82SOPE   H4X 7546   5.090   4.791   6.477 -1.0961 -0.5549  0.3669
   82SOPE   H4Y 7547   5.015   4.628   6.534  1.3407 -3.1175 -0.5207
   82SOPE   C35 7548   5.164   4.607   6.380  0.1535 -0.4796  0.3847
   82SOPE   H5X 7549   5.148   4.498   6.394  1.5578 -0.6251  1.0706
   82SOPE   H5Y 7550   5.273   4.628   6.384  0.0853  0.5814 -1.9327
   82SOPE   C36 7551   5.105   4.664   6.251 -0.5566  0.1864 -0.7761
   82SOPE   H6X 7552   5.170   4.750   6.224 -0.7920  0.8478  0.6293
   82SOPE   H6Y 7553   5.007   4.711   6.274 -1.5154 -1.7922 -0.5503
   82SOPE   C37 7554   5.103   4.576   6.130 -0.1652 -0.7068 -0.0560
   82SOPE   H7X 7555   5.176   4.493   6.149 -1.1517 -1.6265 -0.1868
   82SOPE   H7Y 7556   5.127   4.642   6.044  0.9687 -1.7832 -0.6032
   82SOPE   C38 7557   4.965   4.516   6.110 -0.3690 -0.5809 -0.3921
   82SOPE   H8X 7558   4.897   4.604   6.123 -1.0043 -0.9548 -1.0637
   82SOPE   H8Y 7559   4.954   4.443   6.193 -0.5346  1.8568  1.8669
   82SOPE   C39 7560   4.945   4.442   5.982  0.4608 -0.6594 -0.6520
   82SOPE   H9X 7561   4.841   4.403   5.992  0.5251 -0.2437  3.1285
   82SOPE   H9Y 7562   5.019   4.361   5.959  0.0686 -0.8523 -1.2495
   82SOPE  C310 7563   4.948   4.548   5.863 -0.1887  0.3052  0.0273
   82SOPE  H10X 7564   5.045   4.602   5.871 -1.2969  2.1788  1.4205
   82SOPE  H10Y 7565   4.866   4.620   5.885 -1.0227  0.2826 -2.6616
   82SOPE  C311 7566   4.925   4.476   5.728 -1.0899  0.4233 -0.2821
   82SOPE  H11X 7567   4.827   4.424   5.738 -1.3402  0.6029 -1.6334
   82SOPE  H11Y 7568   5.005   4.400   5.716 -0.8249  0.3452  1.6266
   82SOPE  C312 7569   4.930   4.571   5.599 -0.6578 -0.2814 -0.2096
   82SOPE  H12X 7570   4.944   4.511   5.507  1.5445  0.6245 -0.5195
   82SOPE  H12Y 7571   5.017   4.640   5.602 -1.0430  0.3730 -2.4965
   82SOPE  C313 7572   4.801   4.654   5.582 -0.1287  0.3514 -0.2573
   82SOPE  H13X 7573   4.774   4.705   5.677 -1.5575  0.5231 -0.7256
   82SOPE  H13Y 7574   4.722   4.584   5.547  1.5020 -1.2507 -0.9259
   82SOPE  C314 7575   4.807   4.767   5.480 -0.4156  0.1964 -0.0913
   82SOPE  H14X 7576   4.829   4.724   5.380 -1.0076  1.3557 -0.7435
   82SOPE  H14Y 7577   4.873   4.851   5.510 -1.6065  0.4081  2.1721
   82SOPE  C315 7578   4.662   4.824   5.472  0.4744  0.0669 -0.3195
   82SOPE  H15X 7579   4.636   4.852   5.576  2.5896 -0.7994  0.4987
   82SOPE  H15Y 7580   4.587   4.748   5.442  2.0794 -1.0300 -1.7917
   82SOPE  C316 7581   4.649   4.950   5.388  0.3400  0.0793 -0.7238
   82SOPE  H16X 7582   4.704   5.038   5.428 -1.5199  0.8149  0.3594
   82SOPE  H16Y 7583   4.544   4.987   5.393  0.0282 -0.8735  0.4212
   82SOPE  C317 7584   4.694   4.933   5.245 -0.3211 -0.1969 -0.1337
   82SOPE  H17X 7585   4.622   4.864   5.196  0.9329 -1.9343  0.3933
   82SOPE  H17Y 7586   4.797   4.892   5.244  0.0326  0.6744 -1.4337
   82SOPE  C318 7587   4.680   5.066   5.166 -0.3937  0.2669  0.0942
   82SOPE  H18X 7588   4.733   5.058   5.068  0.5144  0.1697  0.5791
   82SOPE  H18Y 7589   4.735   5.151   5.212 -1.2722  0.7319  0.2911
   82SOPE  H18Z 7590   4.578   5.101   5.140 -0.6038 -0.5014 -0.1546
   83SOPE     N 7591   0.961   0.911   2.151 -0.1066 -0.0969 -0.2449
   83SOPE   HN1 7592   0.863   0.899   2.184 -0.0928  0.2711 -0.0629
   83SOPE   HN2 7593   0.968   0.953   2.057  2.7453  1.4060  0.5099
   83SOPE   HN3 7594   1.007   0.819   2.137  0.1366  0.1307 -0.9721
   83SOPE   C12 7595   1.037   0.989   2.260  0.8941 -0.0258  0.2345
   83SOPE  H12A 7596   1.010   1.096   2.250  1.3891 -0.0739 -2.2426
   83SOPE  H12B 7597   1.142   0.974   2.229  0.4241 -3.2548 -0.1957
   83SOPE   C11 7598   1.025   0.927   2.408  0.2834  0.8442 -0.6641
   83SOPE  H11A 7599   1.093   0.983   2.476 -0.2354 -0.4011  0.9388
   83SOPE  H11B 7600   1.047   0.819   2.394 -0.1064  0.5416  0.9232
   83SOPE     P 7601   0.790   0.836   2.509  0.4738  0.0314 -0.2865
   83SOPE   O13 7602   0.756   0.750   2.393  0.3481 -0.4287 -0.3117
   83SOPE   O14 7603   0.675   0.896   2.586  0.3920 -0.0472 -0.1027
   83SOPE   O12 7604   0.892   0.947   2.458 -0.2955  0.5150 -0.3525
   83SOPE   O11 7605   0.873   0.751   2.616  0.4347  0.2887  0.2871
   83SOPE    C1 7606   0.968   0.821   2.703 -0.3386 -0.3661  0.2385
   83SOPE    HA 7607   0.977   0.929   2.678 -0.8498 -0.7542 -1.7627
   83SOPE    HB 7608   1.074   0.787   2.704  0.3491  1.6185  0.2406
   83SOPE    C2 7609   0.917   0.803   2.847 -0.5343  0.3079  0.5307
   83SOPE    HS 7610   0.903   0.694   2.863  2.6210 -0.1256  0.9784
   83SOPE   O21 7611   0.805   0.893   2.872 -0.5535 -0.0604 -0.3586
   83SOPE   C21 7612   0.688   0.843   2.892  0.0976 -0.3553  0.6927
   83SOPE   O22 7613   0.648   0.729   2.879 -0.1492  0.0987 -0.3442
   83SOPE   C22 7614   0.597   0.947   2.950 -0.1834 -0.1322  1.4790
   83SOPE   H2R 7615   0.518   0.972   2.877  0.4220  0.4380  1.0065
   83SOPE   H2S 7616   0.661   1.036   2.967 -0.1110  0.1308 -0.0254
   83SOPE    C3 7617   1.029   0.839   2.952  0.4097 -0.2503 -0.2101
   83SOPE    HX 7618   1.051   0.947   2.945  0.8088 -0.2871  0.4586
   83SOPE    HY 7619   1.119   0.784   2.917 -0.2636 -0.2597 -2.0667
   83SOPE   O31 7620   0.982   0.803   3.082 -0.6405  0.5418 -0.1096
   83SOPE   C31 7621   0.949   0.899   3.167 -0.2532 -0.6738  0.1640
   83SOPE   O32 7622   0.954   1.017   3.148  0.0318  0.3792  0.3203
   83SOPE   C32 7623   0.925   0.835   3.300  0.0873 -0.3493 -0.1453
   83SOPE   H2X 7624   1.020   0.783   3.328  0.5050 -0.1115 -1.0752
   83SOPE   H2Y 7625   0.849   0.756   3.281 -0.3472  0.0698 -0.1537
   83SOPE   C23 7626   0.534   0.899   3.084 -0.8199  0.0120 -0.1431
   83SOPE   H3R 7627   0.611   0.858   3.153  0.3705  0.3337 -1.2308
   83SOPE   H3S 7628   0.468   0.814   3.058  0.4108 -1.1269  0.3105
   83SOPE   C24 7629   0.460   1.008   3.166  0.0905 -0.0293  0.4671
   83SOPE   H4R 7630   0.543   1.065   3.211 -1.1035  0.2542  2.4027
   83SOPE   H4S 7631   0.391   1.064   3.099 -2.2261 -3.4726 -0.3011
   83SOPE   C25 7632   0.382   0.940   3.278 -0.0600  0.4501 -0.0372
   83SOPE   H5R 7633   0.307   1.016   3.311 -0.0308  0.8072 -0.7850
   83SOPE   H5S 7634   0.321   0.852   3.248 -0.2801  1.2182 -1.9346
   83SOPE   C26 7635   0.472   0.892   3.399 -0.4297 -1.2951  0.4422
   83SOPE   H6R 7636   0.536   0.811   3.357  1.7064  1.2764 -1.7163
   83SOPE   H6S 7637   0.528   0.980   3.439 -1.1116  0.1148 -1.5179
   83SOPE   C27 7638   0.392   0.839   3.519 -0.0199  0.4441 -0.9308
   83SOPE   H7R 7639   0.348   0.740   3.494  2.5510 -1.3488  1.1358
   83SOPE   H7S 7640   0.478   0.828   3.588  0.9753  0.8121 -2.0833
   83SOPE   C28 7641   0.283   0.934   3.571  0.0395  0.0355  0.4018
   83SOPE   H8R 7642   0.323   1.031   3.609 -0.7665 -0.1765  1.8555
   83SOPE   H8S 7643   0.212   0.954   3.488 -0.1490  0.5911  0.6911
   83SOPE   C29 7644   0.201   0.871   3.678  0.3524 -0.8338  0.5822
   83SOPE   H91 7645   0.123   0.800   3.647 -1.3344  0.4470  1.7366
   83SOPE  C210 7646   0.209   0.898   3.810 -0.1385  0.1029  0.1571
   83SOPE  H101 7647   0.134   0.842   3.868 -0.0001 -1.6395 -1.2670
   83SOPE  C211 7648   0.319   0.978   3.878 -0.5010  0.3768  0.0238
   83SOPE  H11R 7649   0.402   1.003   3.810  0.8907 -2.4728  0.5264
   83SOPE  H11S 7650   0.353   0.904   3.953  2.8933 -0.1055 -1.8318
   83SOPE  C212 7651   0.277   1.107   3.950 -0.3311 -0.6600  0.1803
   83SOPE  H12R 7652   0.234   1.175   3.873  1.1361 -0.5491 -0.5751
   83SOPE  H12S 7653   0.366   1.160   3.989 -0.3791  0.9124 -1.6680
   83SOPE  C213 7654   0.170   1.098   4.055 -0.5933  0.2492  0.5262
   83SOPE  H13R 7655   0.207   1.030   4.134 -1.1222 -0.1479  0.4339
   83SOPE  H13S 7656   0.078   1.061   4.004 -0.7102  1.1597  0.0556
   83SOPE  C214 7657   0.141   1.231   4.126  0.2080 -0.5075 -0.2823
   83SOPE  H14R 7658   0.230   1.257   4.188 -1.9304  1.1635  2.2687
   83SOPE  H14S 7659   0.062   1.215   4.202  0.6718 -0.2596  0.2607
   83SOPE  C215 7660   0.098   1.353   4.040 -0.5671 -0.8646 -0.6369
   83SOPE  H15R 7661   0.001   1.322   3.996 -1.8138 -3.0501  3.1587
   83SOPE  H15S 7662   0.177   1.379   3.967  1.0757  1.1715  1.7125
   83SOPE  C216 7663   0.075   1.482   4.123  0.4325 -0.0346 -0.1291
   83SOPE  H16R 7664   0.154   1.492   4.200  1.7759 -0.6568 -1.3618
   83SOPE  H16S 7665  -0.022   1.477   4.177  0.6002 -1.3138  0.0708
   83SOPE  C217 7666   0.063   1.608   4.035 -0.0671  0.3495  0.6265
   83SOPE  H17R 7667  -0.023   1.605   3.965  0.2788  0.8315  0.1589
   83SOPE  H17S 7668   0.152   1.623   3.969  1.8251  1.3223  3.2389
   83SOPE  C218 7669   0.045   1.738   4.110  0.6407 -0.2405 -0.1291
   83SOPE  H18R 7670   0.021   1.822   4.042  2.2437  1.2781  1.0660
   83SOPE  H18S 7671   0.142   1.756   4.162  0.5471 -1.3979  0.4696
   83SOPE  H18T 7672  -0.040   1.728   4.180  0.2923 -1.0474 -0.6562
   83SOPE   C33 7673   0.878   0.937   3.406 -0.3451  0.2895  0.3542
   83SOPE   H3X 7674   0.801   0.991   3.346  0.6788 -0.5578 -1.8380
   83SOPE   H3Y 7675   0.966   1.001   3.427 -0.4572  1.1346 -1.5384
   83SOPE   C34 7676   0.837   0.870   3.531  0.2639 -0.2430 -0.2954
   83SOPE   H4X 7677   0.918   0.797   3.551  0.3804 -0.2451 -0.7585
   83SOPE   H4Y 7678   0.740   0.817   3.520  0.2344 -0.2003 -0.2381
   83SOPE   C35 7679   0.845   0.967   3.652  0.0893  0.2643  0.0104
   83SOPE   H5X 7680   0.778   1.050   3.622 -0.3430 -0.5947 -1.5230
   83SOPE   H5Y 7681   0.952   0.998   3.659  0.9881 -2.1455 -1.6672
   83SOPE   C36 7682   0.798   0.915   3.783  0.1471  0.8347 -0.5041
   83SOPE   H6X 7683   0.865   0.830   3.810 -0.8117 -0.5570 -2.3229
   83SOPE   H6Y 7684   0.695   0.879   3.762  0.4897 -0.3724 -0.1839
   83SOPE   C37 7685   0.787   1.021   3.894 -0.0474 -0.0001  0.5060
   83SOPE   H7X 7686   0.724   1.099   3.847  0.9221 -0.4089 -1.5875
   83SOPE   H7Y 7687   0.885   1.067   3.916  1.3657 -2.6616  0.2527
   83SOPE   C38 7688   0.724   0.968   4.026 -0.1106 -0.1503 -0.3271
   83SOPE   H8X 7689   0.772   0.880   4.075  1.3332  1.0765  0.5812
   83SOPE   H8Y 7690   0.628   0.923   3.995 -0.3483 -0.9216  1.4200
   83SOPE   C39 7691   0.689   1.076   4.135  0.1931  0.1031 -0.4827
   83SOPE   H9X 7692   0.637   1.162   4.087 -1.5049  0.8294  2.3986
   83SOPE   H9Y 7693   0.790   1.108   4.170  0.7297 -0.8072 -1.1724
   83SOPE  C310 7694   0.605   1.028   4.255 -0.6867 -0.2864  0.0193
   83SOPE  H10X 7695   0.664   0.963   4.323  1.8611  0.5067 -1.3130
   83SOPE  H10Y 7696   0.524   0.964   4.213  0.7947 -1.4484 -1.1648
   83SOPE  C311 7697   0.543   1.137   4.337  0.4141 -0.8316 -0.1950
   83SOPE  H11X 7698   0.512   1.210   4.260  0.5050 -0.2374  0.3282
   83SOPE  H11Y 7699   0.604   1.190   4.412 -0.6566 -0.4889  0.4545
   83SOPE  C312 7700   0.414   1.102   4.408 -0.1825 -0.8806  0.1257
   83SOPE  H12X 7701   0.345   1.054   4.335 -0.2028 -3.2851  1.6367
   83SOPE  H12Y 7702   0.366   1.195   4.445  0.0616 -0.3595 -0.8281
   83SOPE  C313 7703   0.446   1.006   4.520  0.0920 -0.0565  0.5696
   83SOPE  H13X 7704   0.495   1.076   4.591 -2.2811  1.2368  1.0470
   83SOPE  H13Y 7705   0.522   0.931   4.490 -0.2583 -0.2830  0.2415
   83SOPE  C314 7706   0.331   0.935   4.585  0.2786 -0.3511 -0.0596
   83SOPE  H14X 7707   0.273   0.870   4.516 -2.2066 -1.0049  2.4695
   83SOPE  H14Y 7708   0.257   1.006   4.627  0.2519 -1.6389  2.2008
   83SOPE  C315 7709   0.364   0.850   4.713 -0.4497  0.6172  0.6584
   83SOPE  H15X 7710   0.267   0.824   4.759 -0.9451  1.4701  0.1210
   83SOPE  H15Y 7711   0.427   0.904   4.786  0.2945 -1.5332  1.6876
   83SOPE  C316 7712   0.430   0.718   4.658  0.0629 -0.6871 -0.0966
   83SOPE  H16X 7713   0.471   0.671   4.750 -2.1419 -0.1334  1.2629
   83SOPE  H16Y 7714   0.514   0.729   4.587  0.1163 -1.3746 -0.1475
   83SOPE  C317 7715   0.328   0.619   4.583  0.1368 -0.0477  0.4062
   83SOPE  H17X 7716   0.298   0.662   4.486  0.6813 -2.6479 -1.0033
   83SOPE  H17Y 7717   0.248   0.593   4.656 -0.4359  0.3163 -0.0920
   83SOPE  C318 7718   0.398   0.481   4.557  0.0758  0.0554 -0.1260
   83SOPE  H18X 7719   0.505   0.496   4.531  0.1329  0.3870  0.2874
   83SOPE  H18Y 7720   0.355   0.419   4.476  1.1265  1.4033 -1.7855
   83SOPE  H18Z 7721   0.394   0.415   4.646  1.4423 -1.1033 -0.8830
   84SOPE     N 7722   5.353   0.250   2.790  0.0797 -0.4361  0.5339
   84SOPE   HN1 7723   5.348   0.330   2.724  0.0982 -0.3704  0.6125
   84SOPE   HN2 7724   5.437   0.254   2.851 -1.3642 -1.6908  2.7524
   84SOPE   HN3 7725   5.375   0.165   2.734  1.2491 -1.2861  2.1977
   84SOPE   C12 7726   5.225   0.240   2.872  0.0616 -0.1283 -0.2360
   84SOPE  H12A 7727   5.150   0.199   2.802 -0.9354  0.9669  0.1567
   84SOPE  H12B 7728   5.184   0.340   2.898  0.0093 -0.2426  0.1317
   84SOPE   C11 7729   5.244   0.149   2.994  0.3800  0.0289  0.4643
   84SOPE  H11A 7730   5.149   0.122   3.045  0.8187 -0.1899  1.1731
   84SOPE  H11B 7731   5.301   0.206   3.070 -0.4700  2.1561 -0.4122
   84SOPE     P 7732   5.238  -0.103   2.900  0.1866  0.0193  0.0056
   84SOPE   O13 7733   5.332  -0.210   2.878  0.0811  0.3668  0.3070
   84SOPE   O14 7734   5.154  -0.080   2.787  0.2969  0.1674 -0.2310
   84SOPE   O12 7735   5.310   0.025   2.964  0.4432  0.3862 -0.2365
   84SOPE   O11 7736   5.149  -0.150   3.024 -0.4873 -0.0220  0.0683
   84SOPE    C1 7737   5.157  -0.276   3.093 -0.0860  0.1514  0.5400
   84SOPE    HA 7738   5.232  -0.349   3.058  0.0405  0.1837  0.7438
   84SOPE    HB 7739   5.056  -0.320   3.079 -0.1462  0.6841 -0.9530
   84SOPE    C2 7740   5.198  -0.271   3.242  0.0572  0.3622  0.2965
   84SOPE    HS 7741   5.208  -0.377   3.274  1.8171  0.0967 -0.9944
   84SOPE   O21 7742   5.096  -0.204   3.318 -0.4593  0.0537 -0.4132
   84SOPE   C21 7743   4.996  -0.275   3.356 -0.1096  0.3134  0.0848
   84SOPE   O22 7744   4.979  -0.394   3.330  0.5864 -0.4631  0.9945
   84SOPE   C22 7745   4.919  -0.180   3.455 -0.3583  0.2756 -0.1314
   84SOPE   H2R 7746   4.814  -0.210   3.434 -0.1391  0.6406 -1.8108
   84SOPE   H2S 7747   4.934  -0.076   3.420 -0.8692 -0.1337 -1.6069
   84SOPE    C3 7748   5.329  -0.196   3.257 -0.6691 -0.3148  0.2503
   84SOPE    HX 7749   5.315  -0.085   3.251  1.6414  0.0892  1.3395
   84SOPE    HY 7750   5.398  -0.220   3.174 -0.8697 -1.1946  0.3266
   84SOPE   O31 7751   5.382  -0.223   3.386  0.0281  0.4731 -0.7580
   84SOPE   C31 7752   5.461  -0.331   3.406 -0.0592  0.0284 -0.5865
   84SOPE   O32 7753   5.483  -0.425   3.336 -0.5421  0.0413  0.2524
   84SOPE   C32 7754   5.515  -0.315   3.540  0.5774  0.1530 -0.3644
   84SOPE   H2X 7755   5.443  -0.341   3.620 -1.4659  0.6522 -1.9562
   84SOPE   H2Y 7756   5.554  -0.212   3.552  1.6993 -0.2492 -0.3747
   84SOPE   C23 7757   4.975  -0.216   3.596  0.4351 -0.0677 -1.0816
   84SOPE   H3R 7758   4.989  -0.326   3.603 -0.9441 -0.1202  1.9016
   84SOPE   H3S 7759   4.916  -0.176   3.681  0.8407  2.8202 -2.0329
   84SOPE   C24 7760   5.114  -0.156   3.632  0.0218 -0.0867 -0.4668
   84SOPE   H4R 7761   5.176  -0.161   3.540  2.5077 -2.4499  1.1600
   84SOPE   H4S 7762   5.104  -0.049   3.660  1.4978 -0.0258 -0.0969
   84SOPE   C25 7763   5.185  -0.231   3.751 -0.3018 -0.1280 -0.0891
   84SOPE   H5R 7764   5.168  -0.341   3.743 -1.9528  0.1674 -1.2950
   84SOPE   H5S 7765   5.293  -0.214   3.732 -0.4266 -0.4965 -1.2615
   84SOPE   C26 7766   5.144  -0.173   3.880  0.5633 -0.1199 -0.2776
   84SOPE   H6R 7767   5.185  -0.071   3.862 -0.7252  0.2549 -1.2654
   84SOPE   H6S 7768   5.034  -0.162   3.875  0.5532 -0.6485 -1.7732
   84SOPE   C27 7769   5.181  -0.240   4.007 -0.0906 -0.1544 -0.1976
   84SOPE   H7R 7770   5.152  -0.347   3.999  0.9251 -0.4349 -0.2386
   84SOPE   H7S 7771   5.289  -0.250   4.026 -0.1789  0.7470  0.8587
   84SOPE   C28 7772   5.127  -0.159   4.126 -0.0845  0.8374 -0.7853
   84SOPE   H8R 7773   5.017  -0.160   4.109 -0.4835  0.6453  1.4828
   84SOPE   H8S 7774   5.141  -0.211   4.222  2.0240  1.9990 -0.3910
   84SOPE   C29 7775   5.181  -0.023   4.146 -0.1724  0.3840 -0.1160
   84SOPE   H91 7776   5.125   0.055   4.090  0.2248  0.1834 -0.8070
   84SOPE  C210 7777   5.289   0.008   4.222 -0.1347 -0.3298  0.0703
   84SOPE  H101 7778   5.315   0.114   4.233  3.0125 -0.9266 -0.5853
   84SOPE  C211 7779   5.366  -0.094   4.306 -0.2501 -0.5003 -0.0447
   84SOPE  H11R 7780   5.373  -0.192   4.255 -2.3276 -0.6774 -0.0412
   84SOPE  H11S 7781   5.302  -0.114   4.394  0.7673 -0.1491  0.8042
   84SOPE  C212 7782   5.506  -0.044   4.328 -0.3379  0.5620 -0.1332
   84SOPE  H12R 7783   5.518   0.055   4.376 -0.0099 -0.8756  3.0171
   84SOPE  H12S 7784   5.568  -0.053   4.236  2.2032  0.1738  1.4947
   84SOPE  C213 7785   5.582  -0.126   4.439  0.5634  0.2617  0.7139
   84SOPE  H13R 7786   5.613  -0.224   4.396 -0.5041  0.5491 -0.7876
   84SOPE  H13S 7787   5.518  -0.148   4.527  1.3755  0.5076  1.3816
   84SOPE  C214 7788   5.710  -0.054   4.488 -0.4912  0.9644 -0.1936
   84SOPE  H14R 7789   5.690   0.041   4.542 -0.3634  0.8104  0.1294
   84SOPE  H14S 7790   5.780  -0.040   4.403 -0.2807  1.8531  0.1163
   84SOPE  C215 7791   5.780  -0.141   4.603 -0.4479  0.1007 -0.4469
   84SOPE  H15R 7792   5.808  -0.237   4.554 -0.3607  0.0198 -0.2407
   84SOPE  H15S 7793   5.712  -0.166   4.686 -0.0581 -1.0111 -0.4481
   84SOPE  C216 7794   5.893  -0.060   4.673 -0.2021  0.4718  0.0428
   84SOPE  H16R 7795   5.849   0.032   4.716 -2.0258 -0.3371 -0.0060
   84SOPE  H16S 7796   5.973  -0.029   4.603  1.7382 -2.0832  0.9441
   84SOPE  C217 7797   5.942  -0.139   4.799  0.2998  0.6395 -0.2680
   84SOPE  H17R 7798   6.032  -0.081   4.831 -0.2314  1.6197 -0.4998
   84SOPE  H17S 7799   5.974  -0.242   4.775  0.2482  0.3716  0.7771
   84SOPE  C218 7800   5.838  -0.151   4.912 -0.2252 -0.0885  0.8975
   84SOPE  H18R 7801   5.793  -0.056   4.948 -1.9473  0.0482 -1.3403
   84SOPE  H18S 7802   5.889  -0.199   4.998 -0.2764 -1.7063  0.0606
   84SOPE  H18T 7803   5.758  -0.225   4.893  1.2222 -2.0526  2.0795
   84SOPE   C33 7804   5.637  -0.409   3.572 -0.6756  0.0252  0.0986
   84SOPE   H3X 7805   5.712  -0.397   3.491  1.1059 -0.6198  1.6099
   84SOPE   H3Y 7806   5.595  -0.511   3.562 -1.4946  0.4838 -1.6626
   84SOPE   C34 7807   5.706  -0.376   3.709 -0.4367  0.4396 -0.1741
   84SOPE   H4X 7808   5.708  -0.265   3.718  1.0669  0.4530 -0.3922
   84SOPE   H4Y 7809   5.813  -0.404   3.707 -0.2294  1.2009 -0.2286
   84SOPE   C35 7810   5.635  -0.432   3.833 -0.3118 -1.1172 -0.8607
   84SOPE   H5X 7811   5.627  -0.542   3.844 -0.4927 -1.3253 -2.7438
   84SOPE   H5Y 7812   5.527  -0.408   3.835 -0.2405 -0.7795  0.8217
   84SOPE   C36 7813   5.699  -0.359   3.955 -0.2051  0.0194  0.5291
   84SOPE   H6X 7814   5.651  -0.260   3.969 -0.6869  0.3282 -2.6134
   84SOPE   H6Y 7815   5.804  -0.341   3.922 -0.3110 -0.4103 -0.0660
   84SOPE   C37 7816   5.717  -0.455   4.080 -0.1037 -0.3463 -0.2601
   84SOPE   H7X 7817   5.761  -0.549   4.040  0.7274  0.4298 -1.2232
   84SOPE   H7Y 7818   5.612  -0.472   4.113 -0.0350 -0.2771 -0.0029
   84SOPE   C38 7819   5.803  -0.391   4.199 -0.3834  0.3746  0.1589
   84SOPE   H8X 7820   5.764  -0.288   4.218 -1.9314  0.3707 -2.4818
   84SOPE   H8Y 7821   5.904  -0.366   4.160 -1.4425  1.6228 -1.9828
   84SOPE   C39 7822   5.807  -0.467   4.329  0.2638  0.0651  0.1234
   84SOPE   H9X 7823   5.778  -0.568   4.294 -1.7318  0.4967  0.3978
   84SOPE   H9Y 7824   5.718  -0.442   4.391 -0.0161 -0.6048 -0.0042
   84SOPE  C310 7825   5.943  -0.454   4.398  0.3718 -0.0108  0.3578
   84SOPE  H10X 7826   5.944  -0.345   4.420 -4.0554  0.5092 -0.9541
   84SOPE  H10Y 7827   6.029  -0.486   4.335  0.8250  0.4469  0.7378
   84SOPE  C311 7828   5.945  -0.516   4.538  0.0265 -0.1009  0.2824
   84SOPE  H11X 7829   5.929  -0.625   4.543 -0.1298 -0.0527  0.7900
   84SOPE  H11Y 7830   5.873  -0.458   4.598  0.5904  2.8049 -1.6144
   84SOPE  C312 7831   6.087  -0.496   4.585 -0.1474 -0.3679 -0.0880
   84SOPE  H12X 7832   6.117  -0.389   4.576 -3.5004  0.5824 -1.5403
   84SOPE  H12Y 7833   6.160  -0.560   4.531  0.5704  0.0578  0.3596
   84SOPE  C313 7834   6.091  -0.549   4.725  0.3942 -0.6729  0.0874
   84SOPE  H13X 7835   6.066  -0.657   4.736 -1.0476 -0.3372  0.3636
   84SOPE  H13Y 7836   6.019  -0.494   4.790  0.7346 -1.6015  1.2834
   84SOPE  C314 7837   6.225  -0.524   4.799  0.1347 -0.5297  0.3182
   84SOPE  H14X 7838   6.263  -0.421   4.782  0.1361 -0.4268  0.9219
   84SOPE  H14Y 7839   6.303  -0.587   4.751 -0.7258 -0.3885 -1.3202
   84SOPE  C315 7840   6.213  -0.535   4.948 -0.1172  0.6705 -0.0020
   84SOPE  H15X 7841   6.174  -0.633   4.983 -1.3731  1.5781  1.2593
   84SOPE  H15Y 7842   6.123  -0.474   4.967  0.3866  2.9128 -3.8768
   84SOPE  C316 7843   6.347  -0.499   5.019  0.1600  0.0125 -0.1431
   84SOPE  H16X 7844   6.372  -0.395   4.992 -2.8089  1.0731  0.7730
   84SOPE  H16Y 7845   6.427  -0.574   5.004  0.2496 -0.0240  0.4781
   84SOPE  C317 7846   6.332  -0.500   5.167  0.2435  0.4647 -0.6035
   84SOPE  H17X 7847   6.265  -0.420   5.205  0.1194  0.0362  0.1034
   84SOPE  H17Y 7848   6.432  -0.491   5.215 -0.5673 -0.6985  1.4806
   84SOPE  C318 7849   6.270  -0.630   5.226  0.4634 -0.1769  0.2514
   84SOPE  H18X 7850   6.262  -0.627   5.337 -0.0728 -0.6740  0.2294
   84SOPE  H18Y 7851   6.336  -0.718   5.208 -0.4198 -0.8314  0.1639
   84SOPE  H18Z 7852   6.171  -0.657   5.184 -1.3450  3.5309  1.6689
   85SOPE     N 7853   0.352   6.109   2.480 -0.0859  0.5578 -0.0783
   85SOPE   HN1 7854   0.363   6.149   2.576  2.4770 -0.3585  0.0980
   85SOPE   HN2 7855   0.275   6.155   2.427  0.6954  0.9569 -0.8838
   85SOPE   HN3 7856   0.320   6.010   2.487 -2.3768  1.2093 -0.6507
   85SOPE   C12 7857   0.485   6.128   2.406 -0.0696 -0.2091 -0.1517
   85SOPE  H12A 7858   0.507   6.236   2.416  0.0798 -0.1782 -0.7534
   85SOPE  H12B 7859   0.465   6.090   2.304  1.0310 -0.4584 -0.2837
   85SOPE   C11 7860   0.599   6.057   2.467 -0.1147  0.0588 -0.1577
   85SOPE  H11A 7861   0.684   6.078   2.399  0.4523 -1.9804 -0.1413
   85SOPE  H11B 7862   0.588   5.946   2.461  1.2354 -0.0420 -1.0459
   85SOPE     P 7863   0.714   6.199   2.664 -0.1905 -0.1561  0.0325
   85SOPE   O13 7864   0.668   6.334   2.628  0.1443 -0.0488  0.5163
   85SOPE   O14 7865   0.851   6.168   2.620  0.5340 -0.1544  0.3737
   85SOPE   O12 7866   0.608   6.094   2.602 -0.5185  0.3094 -0.6250
   85SOPE   O11 7867   0.705   6.181   2.818  0.2413 -0.1034  0.2657
   85SOPE    C1 7868   0.590   6.158   2.894  1.1242  0.0896  0.2354
   85SOPE    HA 7869   0.616   6.064   2.947  0.8303 -0.2221 -0.1623
   85SOPE    HB 7870   0.506   6.145   2.823 -0.6094  0.2942  2.1540
   85SOPE    C2 7871   0.565   6.268   3.005  0.1116 -0.1663 -0.7257
   85SOPE    HS 7872   0.542   6.357   2.943 -4.4562  0.0154  0.8189
   85SOPE   O21 7873   0.678   6.283   3.089 -0.0909 -0.3175  0.5599
   85SOPE   C21 7874   0.675   6.404   3.147  0.6208  0.4494  0.6081
   85SOPE   O22 7875   0.602   6.496   3.116  0.1867  0.5737  0.0834
   85SOPE   C22 7876   0.764   6.405   3.274 -0.7139  0.2364  0.2847
   85SOPE   H2R 7877   0.861   6.379   3.227  0.5643  1.4918  2.1001
   85SOPE   H2S 7878   0.736   6.320   3.339 -0.0280 -3.1046 -3.4479
   85SOPE    C3 7879   0.444   6.224   3.094 -0.1194  0.1730  1.0626
   85SOPE    HX 7880   0.363   6.227   3.018 -0.3307 -1.7595  1.1476
   85SOPE    HY 7881   0.413   6.302   3.167  0.8574  0.2040  1.4528
   85SOPE   O31 7882   0.456   6.090   3.157  0.0462 -0.5588  0.4947
   85SOPE   C31 7883   0.507   6.097   3.279  0.6013  0.0765  0.1603
   85SOPE   O32 7884   0.519   6.202   3.340 -0.2908 -0.0641  0.7965
   85SOPE   C32 7885   0.506   5.956   3.340 -0.1757  0.1339  0.4331
   85SOPE   H2X 7886   0.593   5.899   3.299 -0.1040  1.2375 -1.0414
   85SOPE   H2Y 7887   0.410   5.906   3.317 -0.1131 -0.7350  1.9287
   85SOPE   C23 7888   0.779   6.542   3.340  0.3003  0.3882 -0.8049
   85SOPE   H3R 7889   0.677   6.584   3.352 -0.6340 -2.3927  2.1405
   85SOPE   H3S 7890   0.832   6.612   3.271  1.7176 -0.9810 -1.1540
   85SOPE   C24 7891   0.851   6.558   3.477 -0.1826  0.1900  0.9334
   85SOPE   H4R 7892   0.957   6.532   3.456 -1.1378 -2.7952 -0.7881
   85SOPE   H4S 7893   0.848   6.666   3.505  2.9031  0.7880 -0.6179
   85SOPE   C25 7894   0.801   6.463   3.595 -0.7492 -0.6465  0.7521
   85SOPE   H5R 7895   0.701   6.494   3.630 -0.3315  1.4602  0.2397
   85SOPE   H5S 7896   0.795   6.360   3.554 -0.7005 -0.1639 -0.5070
   85SOPE   C26 7897   0.891   6.480   3.716 -0.2463  0.4121 -0.0037
   85SOPE   H6R 7898   0.993   6.443   3.690  0.5213 -0.8121  4.0167
   85SOPE   H6S 7899   0.892   6.585   3.752  1.6017  1.0567 -1.7072
   85SOPE   C27 7900   0.860   6.391   3.839  0.2602  0.3597  0.8688
   85SOPE   H7R 7901   0.754   6.357   3.841 -0.1748  1.5899  0.3809
   85SOPE   H7S 7902   0.909   6.295   3.812 -1.1244 -0.1683  0.0901
   85SOPE   C28 7903   0.901   6.435   3.984 -0.1363  0.9661  0.2510
   85SOPE   H8R 7904   0.869   6.355   4.054 -0.0550  1.6955  1.1483
   85SOPE   H8S 7905   1.010   6.424   4.003 -0.4816 -1.4793  1.1636
   85SOPE   C29 7906   0.833   6.559   4.038 -1.3227  0.6093 -0.3305
   85SOPE   H91 7907   0.727   6.549   4.066 -0.2912 -3.1504  3.1869
   85SOPE  C210 7908   0.892   6.671   4.065 -0.3823  0.6614  0.4106
   85SOPE  H101 7909   0.827   6.757   4.089 -4.1336 -1.9234  0.3757
   85SOPE  C211 7910   1.037   6.717   4.042 -0.5108  0.2395 -0.1992
   85SOPE  H11R 7911   1.050   6.738   3.933 -1.1520  1.0199 -0.1347
   85SOPE  H11S 7912   1.105   6.637   4.079 -3.9135 -2.7186  0.1555
   85SOPE  C212 7913   1.066   6.847   4.113 -0.3860  0.6278 -0.4886
   85SOPE  H12R 7914   1.005   6.934   4.080 -0.7093  0.2937 -0.7792
   85SOPE  H12S 7915   1.167   6.883   4.080  1.3578 -2.4067  1.1063
   85SOPE  C213 7916   1.074   6.845   4.267 -0.4629 -0.3453  0.6585
   85SOPE  H13R 7917   1.147   6.765   4.292  1.2245  0.5521 -1.1997
   85SOPE  H13S 7918   0.971   6.828   4.307 -0.5309 -1.5751  0.0180
   85SOPE  C214 7919   1.119   6.979   4.331  0.5271 -0.2164  0.0115
   85SOPE  H14R 7920   1.038   7.053   4.312 -1.2742 -1.1622  3.1831
   85SOPE  H14S 7921   1.211   7.019   4.285 -0.4680  2.5005  0.1762
   85SOPE  C215 7922   1.142   6.977   4.482 -0.2146  0.3379  0.2863
   85SOPE  H15R 7923   1.045   6.963   4.534 -1.9861  1.9913 -2.3453
   85SOPE  H15S 7924   1.165   7.084   4.502 -2.3128  0.6992  0.9986
   85SOPE  C216 7925   1.258   6.881   4.532 -0.0610 -0.4515 -0.6507
   85SOPE  H16R 7926   1.351   6.906   4.477 -0.3929 -0.0597 -1.0431
   85SOPE  H16S 7927   1.230   6.774   4.521 -1.9116 -0.0887  0.0603
   85SOPE  C217 7928   1.304   6.919   4.674  0.4968  0.0404  1.0933
   85SOPE  H17R 7929   1.225   6.920   4.752  1.0659 -1.9797  1.7707
   85SOPE  H17S 7930   1.336   7.025   4.668 -0.6950  0.3564 -0.1704
   85SOPE  C218 7931   1.419   6.835   4.717  0.0146  0.9997 -0.6563
   85SOPE  H18R 7932   1.437   6.848   4.826 -1.0228  0.9920 -0.4720
   85SOPE  H18S 7933   1.510   6.851   4.655  0.2543  2.8505  0.1172
   85SOPE  H18T 7934   1.395   6.728   4.702  1.1222  0.5457  0.5643
   85SOPE   C33 7935   0.523   5.964   3.496 -0.0735 -0.7965 -0.8064
   85SOPE   H3X 7936   0.425   6.005   3.526 -0.2906 -0.7765 -1.5101
   85SOPE   H3Y 7937   0.606   6.032   3.525 -2.0250  0.5790  1.9490
   85SOPE   C34 7938   0.524   5.820   3.547 -0.3294 -0.1037 -0.0090
   85SOPE   H4X 7939   0.609   5.764   3.501  1.1341  0.5714  1.7444
   85SOPE   H4Y 7940   0.425   5.782   3.513  0.4715 -2.8568  0.4950
   85SOPE   C35 7941   0.530   5.800   3.704 -0.3641  0.6209  0.4246
   85SOPE   H5X 7942   0.627   5.798   3.758 -0.8185 -0.8672  1.2400
   85SOPE   H5Y 7943   0.503   5.692   3.709  3.1300 -0.3170  1.2260
   85SOPE   C36 7944   0.436   5.899   3.761 -0.4170 -0.1636 -0.3022
   85SOPE   H6X 7945   0.339   5.920   3.711 -2.2373 -2.6275  1.9177
   85SOPE   H6Y 7946   0.496   5.992   3.758 -0.2285 -0.3055 -2.3079
   85SOPE   C37 7947   0.403   5.862   3.905  0.6136 -0.1945 -0.6377
   85SOPE   H7X 7948   0.351   5.764   3.914 -0.7593  0.6496  1.2588
   85SOPE   H7Y 7949   0.324   5.934   3.933 -0.0212 -1.7339  1.8023
   85SOPE   C38 7950   0.528   5.871   3.999  0.4160 -0.7350 -0.0883
   85SOPE   H8X 7951   0.597   5.953   3.971  1.6715 -1.7214 -0.0069
   85SOPE   H8Y 7952   0.598   5.785   3.987 -1.2656 -2.2915  0.7569
   85SOPE   C39 7953   0.487   5.901   4.143  0.4121 -0.5135 -0.5476
   85SOPE   H9X 7954   0.411   5.828   4.178  1.1628 -0.1941  1.9610
   85SOPE   H9Y 7955   0.434   5.999   4.145  4.5709  2.1316 -3.0534
   85SOPE  C310 7956   0.601   5.905   4.250 -0.2506  0.5869  0.3323
   85SOPE  H10X 7957   0.675   5.981   4.220  0.3171 -0.2507 -0.4459
   85SOPE  H10Y 7958   0.662   5.812   4.256  0.0812  0.5930 -2.2352
   85SOPE  C311 7959   0.544   5.933   4.395 -0.8445 -0.4450  0.5982
   85SOPE  H11X 7960   0.523   5.835   4.443 -0.9323 -0.2331  0.9942
   85SOPE  H11Y 7961   0.450   5.986   4.371  0.8213  1.9983 -0.9768
   85SOPE  C312 7962   0.648   6.020   4.475  0.1273  0.1696  0.0948
   85SOPE  H12X 7963   0.672   6.106   4.408  3.2865 -0.8327 -0.2157
   85SOPE  H12Y 7964   0.741   5.963   4.493 -0.3020 -0.1115  1.4949
   85SOPE  C313 7965   0.601   6.065   4.609 -0.6602 -0.0228 -0.6603
   85SOPE  H13X 7966   0.582   5.976   4.673 -0.4475  0.6533  0.3672
   85SOPE  H13Y 7967   0.503   6.117   4.596 -1.0374 -0.8160 -1.0783
   85SOPE  C314 7968   0.708   6.163   4.673  0.4102 -0.0496  0.5488
   85SOPE  H14X 7969   0.725   6.256   4.614 -1.1455  0.5934  1.0807
   85SOPE  H14Y 7970   0.809   6.118   4.663  1.0730  1.6265 -0.7523
   85SOPE  C315 7971   0.676   6.216   4.806 -0.3445  0.7320 -0.1527
   85SOPE  H15X 7972   0.580   6.272   4.816 -2.1526 -2.0088 -1.0976
   85SOPE  H15Y 7973   0.753   6.291   4.835 -1.8468  1.2416  3.0536
   85SOPE  C316 7974   0.678   6.107   4.914 -0.5084  0.6291  1.0922
   85SOPE  H16X 7975   0.753   6.028   4.893 -0.2016  0.7981  1.5345
   85SOPE  H16Y 7976   0.581   6.054   4.899 -0.0347 -0.0227  0.2394
   85SOPE  C317 7977   0.669   6.163   5.057  0.1988 -0.3409  0.1496
   85SOPE  H17X 7978   0.572   6.217   5.064 -0.3204 -1.3248  0.6340
   85SOPE  H17Y 7979   0.747   6.242   5.063  0.1807 -0.0389 -2.5499
   85SOPE  C318 7980   0.691   6.071   5.172 -0.0445 -0.3766 -0.2346
   85SOPE  H18X 7981   0.682   6.126   5.268  0.2032  0.6383 -0.7810
   85SOPE  H18Y 7982   0.791   6.022   5.163 -0.1299 -0.3075 -1.9124
   85SOPE  H18Z 7983   0.616   5.989   5.162 -0.0425 -0.2680 -1.2931
   86SOPE     N 7984   4.480   5.523   2.915  0.3070 -0.3266 -0.3640
   86SOPE   HN1 7985   4.578   5.543   2.886 -0.3337  2.8280 -0.7617
   86SOPE   HN2 7986   4.440   5.439   2.869 -1.1433  0.6722 -1.0046
   86SOPE   HN3 7987   4.432   5.609   2.880  1.6325  0.2429 -0.8719
   86SOPE   C12 7988   4.464   5.499   3.066  0.4239 -0.2310 -0.4163
   86SOPE  H12A 7989   4.499   5.593   3.114  0.0566 -0.8000  1.0154
   86SOPE  H12B 7990   4.522   5.412   3.103  0.5647  0.0454  0.0346
   86SOPE   C11 7991   4.315   5.497   3.110  0.2388  0.2001  0.5091
   86SOPE  H11A 7992   4.311   5.529   3.216  0.9930  0.1900  0.5511
   86SOPE  H11B 7993   4.280   5.391   3.106  1.6893 -0.3193 -3.9866
   86SOPE     P 7994   4.164   5.713   3.087  0.0146  0.1535 -0.2726
   86SOPE   O13 7995   4.091   5.771   2.972 -0.8474  0.6454 -0.1993
   86SOPE   O14 7996   4.263   5.793   3.154 -0.8239  0.3183 -0.5594
   86SOPE   O12 7997   4.235   5.583   3.029 -0.3438  0.0827 -0.4461
   86SOPE   O11 7998   4.058   5.658   3.184  0.4605  0.3621 -0.1206
   86SOPE    C1 7999   3.980   5.544   3.139  0.1146  0.4619 -0.6545
   86SOPE    HA 8000   4.038   5.451   3.148 -1.3567 -0.4203  0.1697
   86SOPE    HB 8001   3.955   5.555   3.031  3.5865  0.3890 -1.5683
   86SOPE    C2 8002   3.850   5.526   3.227 -0.2275  0.2255  0.5648
   86SOPE    HS 8003   3.789   5.619   3.220  0.1242  0.3709 -0.9177
   86SOPE   O21 8004   3.903   5.504   3.362  0.0948 -0.7646  0.0597
   86SOPE   C21 8005   3.811   5.519   3.449  0.1682  0.3764  0.8334
   86SOPE   O22 8006   3.691   5.544   3.424 -0.0747  0.3935  0.0368
   86SOPE   C22 8007   3.857   5.490   3.592  0.0157  0.1791  0.2997
   86SOPE   H2R 8008   3.946   5.554   3.611 -0.3453  1.4795 -2.0514
   86SOPE   H2S 8009   3.880   5.381   3.600 -0.5058  0.1204  1.0196
   86SOPE    C3 8010   3.781   5.397   3.161 -0.2986 -0.1772 -0.2046
   86SOPE    HX 8011   3.773   5.424   3.053  0.2430 -1.7593 -0.6752
   86SOPE    HY 8012   3.690   5.376   3.221  1.4538 -1.4586  2.1425
   86SOPE   O31 8013   3.863   5.277   3.162 -0.0259  0.1391 -0.4555
   86SOPE   C31 8014   3.809   5.165   3.118  0.3408  0.1755  0.2129
   86SOPE   O32 8015   3.694   5.159   3.079  0.0676  0.5528 -0.1093
   86SOPE   C32 8016   3.901   5.047   3.131 -0.1109 -0.1505 -0.0861
   86SOPE   H2X 8017   3.972   5.053   3.046 -1.0011 -1.4430 -0.9582
   86SOPE   H2Y 8018   3.838   4.956   3.119 -0.3962 -0.0066  0.3308
   86SOPE   C23 8019   3.752   5.531   3.698  0.5883  0.1734  0.1977
   86SOPE   H3R 8020   3.663   5.467   3.679  1.1285 -0.0900 -1.6475
   86SOPE   H3S 8021   3.723   5.636   3.680 -0.8661 -0.0688  0.9779
   86SOPE   C24 8022   3.804   5.511   3.839  0.3384 -0.5240 -0.7258
   86SOPE   H4R 8023   3.877   5.594   3.855 -3.0846  2.2728  2.2207
   86SOPE   H4S 8024   3.713   5.529   3.899  0.5829 -1.4202 -0.0692
   86SOPE   C25 8025   3.851   5.373   3.875 -0.4120 -0.1848 -0.1020
   86SOPE   H5R 8026   3.774   5.293   3.865  2.6298 -3.4797  0.4420
   86SOPE   H5S 8027   3.938   5.349   3.811  1.0963  0.8382  1.4808
   86SOPE   C26 8028   3.904   5.364   4.016  0.1341  0.5379  0.2311
   86SOPE   H6R 8029   3.963   5.271   4.033  0.9893  1.0168 -0.0812
   86SOPE   H6S 8030   3.960   5.456   4.043  2.0684  0.5000 -3.0786
   86SOPE   C27 8031   3.792   5.345   4.132  0.9786 -0.4963 -0.3197
   86SOPE   H7R 8032   3.733   5.437   4.152  0.6071 -0.4692 -1.4284
   86SOPE   H7S 8033   3.722   5.267   4.097  1.4955 -0.5127 -1.3634
   86SOPE   C28 8034   3.861   5.294   4.256 -0.7623  0.1798 -0.5403
   86SOPE   H8R 8035   3.934   5.212   4.242 -1.1664 -0.0012 -1.7095
   86SOPE   H8S 8036   3.906   5.386   4.300 -0.8014 -0.8743  1.8676
   86SOPE   C29 8037   3.751   5.259   4.353  0.0164  0.5881  0.2407
   86SOPE   H91 8038   3.655   5.225   4.313  0.6042 -2.9627  1.4908
   86SOPE  C210 8039   3.775   5.247   4.487  0.6768 -0.4900 -0.7218
   86SOPE  H101 8040   3.693   5.222   4.557  1.1855 -0.9431 -0.2763
   86SOPE  C211 8041   3.912   5.274   4.554 -0.0030  0.3522 -0.4185
   86SOPE  H11R 8042   4.001   5.297   4.493 -0.0206  2.8326  0.3696
   86SOPE  H11S 8043   3.945   5.179   4.602  2.3359  0.9808 -0.6828
   86SOPE  C212 8044   3.910   5.384   4.667  0.3450 -0.2863 -0.0841
   86SOPE  H12R 8045   3.863   5.475   4.625  1.5938  0.8651  0.9327
   86SOPE  H12S 8046   4.015   5.414   4.687  1.1381 -0.2595 -3.6324
   86SOPE  C213 8047   3.834   5.346   4.798  0.0957  0.3732  0.2162
   86SOPE  H13R 8048   3.856   5.240   4.823 -0.6178 -0.3523 -1.9163
   86SOPE  H13S 8049   3.728   5.355   4.764 -0.1793 -0.7534  0.7258
   86SOPE  C214 8050   3.866   5.434   4.921  0.3363  0.5339 -0.1171
   86SOPE  H14R 8051   3.848   5.541   4.896 -3.1753  0.0622 -0.1609
   86SOPE  H14S 8052   3.968   5.402   4.952 -0.2052 -1.0456  0.1117
   86SOPE  C215 8053   3.770   5.417   5.041 -0.0584 -0.2488  0.1354
   86SOPE  H15R 8054   3.774   5.310   5.070 -0.8962 -0.2658  0.2113
   86SOPE  H15S 8055   3.662   5.440   5.025  0.3095  0.6886 -1.1685
   86SOPE  C216 8056   3.803   5.500   5.169  0.1603  0.1318  0.4305
   86SOPE  H16R 8057   3.730   5.473   5.248 -1.8846  1.0475 -1.0742
   86SOPE  H16S 8058   3.788   5.606   5.140 -0.5923  0.2108  1.0937
   86SOPE  C217 8059   3.951   5.488   5.221  0.1988  0.1790 -0.4000
   86SOPE  H17R 8060   3.968   5.537   5.319  1.8778  1.7338 -1.3968
   86SOPE  H17S 8061   4.021   5.539   5.152 -0.9986 -1.1517 -2.7438
   86SOPE  C218 8062   4.000   5.344   5.234  0.3330 -0.3390 -0.0779
   86SOPE  H18R 8063   4.006   5.288   5.138  1.2054  1.2889 -1.0071
   86SOPE  H18S 8064   3.941   5.281   5.304  0.8572 -0.0574  0.6270
   86SOPE  H18T 8065   4.102   5.336   5.278  2.0312  0.5574 -3.5004
   86SOPE   C33 8066   3.977   5.028   3.263 -0.3972  0.3580  0.3306
   86SOPE   H3X 8067   4.028   4.930   3.253 -3.6536 -1.2184 -3.2854
   86SOPE   H3Y 8068   3.916   5.016   3.355 -1.4526  3.1740  0.1015
   86SOPE   C34 8069   4.091   5.134   3.289 -0.5253  0.5173  0.6956
   86SOPE   H4X 8070   4.050   5.236   3.309 -0.5964  0.6428 -0.0418
   86SOPE   H4Y 8071   4.156   5.149   3.200  1.9284  0.1743  2.3689
   86SOPE   C35 8072   4.181   5.099   3.410  0.7853 -0.6635  0.1573
   86SOPE   H5X 8073   4.274   5.158   3.396  1.3080 -0.9874  2.0911
   86SOPE   H5Y 8074   4.206   4.992   3.396 -2.4996 -1.3035 -2.1247
   86SOPE   C36 8075   4.116   5.116   3.547 -0.4383  0.5260 -0.8305
   86SOPE   H6X 8076   4.030   5.047   3.552 -0.7976  1.0427  0.8147
   86SOPE   H6Y 8077   4.086   5.221   3.564  1.2036  1.0590 -1.0155
   86SOPE   C37 8078   4.210   5.095   3.667 -0.2009  0.1221  0.0692
   86SOPE   H7X 8079   4.303   5.156   3.660 -0.5871  0.8506  1.0324
   86SOPE   H7Y 8080   4.246   4.991   3.677  0.9616  0.5354  0.3484
   86SOPE   C38 8081   4.146   5.130   3.802 -0.0563 -0.0467 -1.2211
   86SOPE   H8X 8082   4.037   5.110   3.808  0.1623 -1.1127 -0.6072
   86SOPE   H8Y 8083   4.159   5.240   3.811  1.1192 -0.2403 -0.3721
   86SOPE   C39 8084   4.216   5.057   3.926 -0.1575  0.1721  0.3338
   86SOPE   H9X 8085   4.327   5.066   3.925 -0.0931  0.4647  2.9788
   86SOPE   H9Y 8086   4.207   4.946   3.915  0.0303  0.1967 -0.1028
   86SOPE  C310 8087   4.169   5.099   4.070  0.0999 -0.1547  0.3001
   86SOPE  H10X 8088   4.062   5.073   4.085  0.2700  0.4672  3.1170
   86SOPE  H10Y 8089   4.174   5.210   4.075 -0.9489  0.0009 -1.4351
   86SOPE  C311 8090   4.251   5.033   4.177  0.0438  0.0228 -0.6196
   86SOPE  H11X 8091   4.359   5.056   4.166  0.3256  0.3026  1.9713
   86SOPE  H11Y 8092   4.250   4.923   4.164  0.6976 -0.2758  1.4303
   86SOPE  C312 8093   4.214   5.076   4.319  0.3408  0.4047 -0.0204
   86SOPE  H12X 8094   4.105   5.067   4.339  0.2219  0.5117 -0.6257
   86SOPE  H12Y 8095   4.248   5.180   4.338  1.7039 -0.1093  0.5214
   86SOPE  C313 8096   4.291   4.989   4.420  0.7280  0.1431 -0.4468
   86SOPE  H13X 8097   4.392   5.032   4.435  1.0473  0.2288 -2.5418
   86SOPE  H13Y 8098   4.295   4.881   4.394  1.5165  0.0323  0.1027
   86SOPE  C314 8099   4.211   5.004   4.556  0.4699  0.6890  0.1262
   86SOPE  H14X 8100   4.118   4.944   4.545  1.2354 -0.7048  1.0007
   86SOPE  H14Y 8101   4.187   5.112   4.569 -0.9275  0.8270 -2.8806
   86SOPE  C315 8102   4.299   4.970   4.675 -0.9885 -0.6024 -0.3385
   86SOPE  H15X 8103   4.378   5.042   4.705 -1.1369 -1.9130  3.7442
   86SOPE  H15Y 8104   4.348   4.873   4.654 -1.3227 -1.6217  3.0458
   86SOPE  C316 8105   4.235   4.958   4.812  0.5355  0.3756  0.2963
   86SOPE  H16X 8106   4.308   4.944   4.895  0.7108  0.3334  0.1373
   86SOPE  H16Y 8107   4.164   4.873   4.812 -0.6058  1.2996  1.6731
   86SOPE  C317 8108   4.170   5.082   4.866 -0.3606 -0.4693  0.0132
   86SOPE  H17X 8109   4.098   5.060   4.948 -1.2585 -0.5957 -0.7832
   86SOPE  H17Y 8110   4.103   5.122   4.787 -1.5183 -0.0894  1.1555
   86SOPE  C318 8111   4.265   5.192   4.924  0.6470  0.3097  0.0686
   86SOPE  H18X 8112   4.345   5.142   4.984 -0.5618 -1.4142  0.3143
   86SOPE  H18Y 8113   4.210   5.260   4.991  1.3692  0.3132  0.6727
   86SOPE  H18Z 8114   4.311   5.254   4.844 -1.0139 -1.2038 -2.1996
   87SOPE     N 8115   4.966   3.755   2.719  0.0143  0.1528 -0.0089
   87SOPE   HN1 8116   4.919   3.843   2.747  2.6043  1.4464  0.6249
   87SOPE   HN2 8117   4.904   3.684   2.675 -1.8573  2.5371 -1.4550
   87SOPE   HN3 8118   5.011   3.735   2.811  1.1510 -1.2631 -0.8331
   87SOPE   C12 8119   5.080   3.790   2.628 -0.0133 -1.2182 -0.0601
   87SOPE  H12A 8120   5.164   3.793   2.700 -1.9669 -0.5217  2.3377
   87SOPE  H12B 8121   5.056   3.892   2.589 -1.9619 -2.3465 -2.0755
   87SOPE   C11 8122   5.100   3.696   2.513  0.2817  0.2130  0.1228
   87SOPE  H11A 8123   5.166   3.741   2.436 -1.3078  0.7113 -1.0130
   87SOPE  H11B 8124   5.007   3.666   2.459  0.4529 -1.3193  0.6127
   87SOPE     P 8125   5.309   3.555   2.588  0.2571 -0.0669 -0.5482
   87SOPE   O13 8126   5.368   3.682   2.630 -0.2250  1.3526 -0.6188
   87SOPE   O14 8127   5.354   3.495   2.456  0.2709 -0.5749  0.3941
   87SOPE   O12 8128   5.148   3.578   2.583  0.4865 -0.2325  0.8189
   87SOPE   O11 8129   5.333   3.448   2.699 -0.3548  0.2367  1.0800
   87SOPE    C1 8130   5.257   3.331   2.723  0.1364 -0.6459 -0.0254
   87SOPE    HA 8131   5.250   3.266   2.633  0.9646 -2.3266  1.0688
   87SOPE    HB 8132   5.152   3.363   2.743 -0.3186  0.7615 -3.9105
   87SOPE    C2 8133   5.318   3.247   2.843 -0.1441 -0.1254 -1.2563
   87SOPE    HS 8134   5.248   3.162   2.855 -2.0324  1.2301 -2.1451
   87SOPE   O21 8135   5.323   3.331   2.963  0.5331 -0.1597 -0.4060
   87SOPE   C21 8136   5.207   3.348   3.017  0.7228  0.5401 -0.6011
   87SOPE   O22 8137   5.097   3.332   2.971 -0.3249  0.7170  0.0149
   87SOPE   C22 8138   5.227   3.396   3.162  0.8355 -0.3387  0.3512
   87SOPE   H2R 8139   5.302   3.477   3.169  0.0980  0.4557 -0.6698
   87SOPE   H2S 8140   5.260   3.307   3.220  0.4194 -1.7755 -1.5224
   87SOPE    C3 8141   5.450   3.187   2.805 -0.1197  0.1320  0.0122
   87SOPE    HX 8142   5.517   3.271   2.777  3.3015 -2.3955 -0.0147
   87SOPE    HY 8143   5.428   3.137   2.708 -0.8228  0.6427 -0.1013
   87SOPE   O31 8144   5.493   3.098   2.912  0.1046 -0.7612 -0.3855
   87SOPE   C31 8145   5.552   3.151   3.015 -0.5462  0.2644  0.5335
   87SOPE   O32 8146   5.575   3.268   3.041  0.0723  0.5252  0.1713
   87SOPE   C32 8147   5.609   3.035   3.099  0.2069  0.4268 -0.7463
   87SOPE   H2X 8148   5.716   3.055   3.118  0.2057 -1.5900  1.9552
   87SOPE   H2Y 8149   5.600   2.934   3.054 -2.6248  0.8144 -1.2620
   87SOPE   C23 8150   5.090   3.435   3.222 -0.2679 -0.1502  0.5173
   87SOPE   H3R 8151   5.031   3.341   3.224 -0.3104 -0.2117 -1.4890
   87SOPE   H3S 8152   5.048   3.517   3.159  1.0047 -0.0357 -0.2075
   87SOPE   C24 8153   5.105   3.489   3.365  0.0381  0.4036 -0.4275
   87SOPE   H4R 8154   5.010   3.495   3.422  1.0744  0.4208  1.3856
   87SOPE   H4S 8155   5.175   3.424   3.422 -0.3825  1.7016  1.7053
   87SOPE   C25 8156   5.161   3.630   3.360 -0.2822  0.2143  0.6434
   87SOPE   H5R 8157   5.264   3.626   3.320 -1.0168 -3.0352 -1.3086
   87SOPE   H5S 8158   5.106   3.697   3.290  0.0231 -0.3675 -0.1763
   87SOPE   C26 8159   5.168   3.704   3.494  0.3918  0.3271 -0.7610
   87SOPE   H6R 8160   5.204   3.807   3.476  0.4007  0.4697  0.0667
   87SOPE   H6S 8161   5.065   3.707   3.537  0.3239  1.3587 -0.9875
   87SOPE   C27 8162   5.255   3.639   3.605  0.2196  0.3508  0.1849
   87SOPE   H7R 8163   5.208   3.548   3.648  0.2696 -0.2110 -0.9139
   87SOPE   H7S 8164   5.350   3.606   3.557  0.1469  1.4138 -0.7298
   87SOPE   C28 8165   5.286   3.746   3.705 -0.6299  0.2884  0.3438
   87SOPE   H8R 8166   5.355   3.824   3.665  0.1624  0.2073  1.4969
   87SOPE   H8S 8167   5.190   3.798   3.726 -1.1134 -0.6891  0.6255
   87SOPE   C29 8168   5.356   3.698   3.829 -0.1907 -0.0695 -0.4094
   87SOPE   H91 8169   5.464   3.678   3.816  0.1394  0.2855  1.4513
   87SOPE  C210 8170   5.304   3.669   3.949  0.0083 -0.0828 -0.0665
   87SOPE  H101 8171   5.375   3.649   4.031  1.3046 -1.4675 -1.4727
   87SOPE  C211 8172   5.163   3.686   3.996 -0.0692 -0.2202 -0.0524
   87SOPE  H11R 8173   5.134   3.583   4.026 -0.3148 -0.1089  0.0923
   87SOPE  H11S 8174   5.103   3.725   3.911  0.9896 -0.7252 -1.0671
   87SOPE  C212 8175   5.146   3.776   4.117 -0.4406  0.9127 -0.3584
   87SOPE  H12R 8176   5.042   3.766   4.156 -0.9614  2.5080 -1.2485
   87SOPE  H12S 8177   5.159   3.882   4.087  0.7631  0.6019 -0.9885
   87SOPE  C213 8178   5.247   3.728   4.227 -0.3071  0.1102 -0.2553
   87SOPE  H13R 8179   5.354   3.749   4.206 -0.3294 -1.2039 -1.8520
   87SOPE  H13S 8180   5.243   3.617   4.222  2.4749 -0.0416 -0.4284
   87SOPE  C214 8181   5.216   3.781   4.363 -0.0243  0.4162  0.0549
   87SOPE  H14R 8182   5.120   3.739   4.400 -0.1328  1.4112  0.9712
   87SOPE  H14S 8183   5.200   3.891   4.366  0.9847  0.5796 -0.3062
   87SOPE  C215 8184   5.338   3.754   4.463  1.0026  0.1099  1.0059
   87SOPE  H15R 8185   5.437   3.798   4.439  1.7532 -2.3788 -0.8375
   87SOPE  H15S 8186   5.359   3.647   4.442 -0.3606  0.5917 -4.3024
   87SOPE  C216 8187   5.303   3.778   4.613  0.1741 -0.4938 -0.2135
   87SOPE  H16R 8188   5.216   3.847   4.611 -1.4073 -2.1341  2.9873
   87SOPE  H16S 8189   5.391   3.812   4.671  0.5620 -1.7661 -0.0078
   87SOPE  C217 8190   5.254   3.648   4.693 -0.6662 -0.5170  0.7012
   87SOPE  H17R 8191   5.157   3.618   4.648 -1.2700  1.8864  0.2866
   87SOPE  H17S 8192   5.245   3.694   4.794  0.8734  2.7538 -0.5315
   87SOPE  C218 8193   5.347   3.533   4.689 -0.4481  0.0924  0.2657
   87SOPE  H18R 8194   5.313   3.464   4.770 -0.8875 -0.8592 -0.7057
   87SOPE  H18S 8195   5.450   3.570   4.706  0.5487 -0.9609 -2.8436
   87SOPE  H18T 8196   5.337   3.482   4.591  1.0519  1.7976 -0.8259
   87SOPE   C33 8197   5.544   3.034   3.235  0.0628  0.9891 -0.1542
   87SOPE   H3X 8198   5.438   3.007   3.218  0.5269  0.0577 -1.7373
   87SOPE   H3Y 8199   5.549   3.131   3.289  1.8893  1.4829 -1.1179
   87SOPE   C34 8200   5.622   2.936   3.317  0.1329  0.1488  0.1377
   87SOPE   H4X 8201   5.728   2.967   3.330  0.4677  0.4191 -2.5917
   87SOPE   H4Y 8202   5.611   2.836   3.268 -1.4569  2.0629 -3.8284
   87SOPE   C35 8203   5.546   2.924   3.460  0.4481  0.5878  0.3916
   87SOPE   H5X 8204   5.541   3.026   3.503 -0.8593  1.8560 -2.5137
   87SOPE   H5Y 8205   5.614   2.872   3.530 -0.6448 -0.0452  1.0062
   87SOPE   C36 8206   5.403   2.866   3.450  1.1343  0.6893  0.0353
   87SOPE   H6X 8207   5.393   2.763   3.409 -0.2930  2.2319 -4.0005
   87SOPE   H6Y 8208   5.335   2.925   3.384  0.1929 -1.8169 -1.3797
   87SOPE   C37 8209   5.336   2.871   3.590 -0.2568  0.1173  0.0919
   87SOPE   H7X 8210   5.230   2.842   3.574 -0.1241  0.3277 -1.3734
   87SOPE   H7Y 8211   5.346   2.973   3.633 -0.8011 -0.7379  2.3455
   87SOPE   C38 8212   5.387   2.768   3.691  0.3858 -0.5721 -0.0802
   87SOPE   H8X 8213   5.492   2.801   3.708  0.2000  0.0581 -0.1172
   87SOPE   H8Y 8214   5.379   2.661   3.665 -3.0810 -0.3457 -0.3574
   87SOPE   C39 8215   5.306   2.785   3.818  0.3431 -1.1842  0.5671
   87SOPE   H9X 8216   5.200   2.754   3.801 -1.2597  3.4491  0.5153
   87SOPE   H9Y 8217   5.285   2.890   3.847 -0.5802 -1.1242 -0.2535
   87SOPE  C310 8218   5.355   2.712   3.944 -0.2024  0.0551  0.9575
   87SOPE  H10X 8219   5.444   2.774   3.966 -1.0231  2.6621 -2.1222
   87SOPE  H10Y 8220   5.387   2.608   3.923 -2.8340 -0.9092  1.3565
   87SOPE  C311 8221   5.261   2.697   4.054  0.5727 -0.4824 -0.3385
   87SOPE  H11X 8222   5.310   2.613   4.109 -0.8299 -2.6657 -2.2104
   87SOPE  H11Y 8223   5.167   2.652   4.016  0.6959 -0.8366 -0.2296
   87SOPE  C312 8224   5.232   2.823   4.128 -0.2150 -0.7684 -0.9710
   87SOPE  H12X 8225   5.167   2.879   4.057 -2.9940 -2.4262  0.0860
   87SOPE  H12Y 8226   5.315   2.894   4.146 -2.2762  1.5157  0.0081
   87SOPE  C313 8227   5.148   2.797   4.256 -0.0843 -0.3995 -0.0037
   87SOPE  H13X 8228   5.072   2.720   4.231 -0.6224  0.2807 -0.5185
   87SOPE  H13Y 8229   5.087   2.889   4.271 -0.0733 -0.4678  0.4505
   87SOPE  C314 8230   5.218   2.774   4.391 -0.2300 -0.2158  0.5402
   87SOPE  H14X 8231   5.286   2.861   4.403 -0.0089 -0.5984  2.4439
   87SOPE  H14Y 8232   5.271   2.677   4.392  0.2296  0.0058 -0.7300
   87SOPE  C315 8233   5.118   2.783   4.500  0.6808  0.7951  0.0118
   87SOPE  H15X 8234   5.036   2.713   4.474 -1.8207  2.9711  1.5833
   87SOPE  H15Y 8235   5.068   2.882   4.490 -0.1926  0.3189 -0.4063
   87SOPE  C316 8236   5.171   2.750   4.639 -0.2040 -0.6246  0.0245
   87SOPE  H16X 8237   5.179   2.640   4.652  1.5318 -0.3976  1.2361
   87SOPE  H16Y 8238   5.102   2.783   4.719  1.1194  1.4662  0.3811
   87SOPE  C317 8239   5.310   2.809   4.674 -0.3182 -1.2963  0.7782
   87SOPE  H17X 8240   5.311   2.920   4.686 -1.3139 -1.1157 -0.4595
   87SOPE  H17Y 8241   5.381   2.783   4.592 -2.9261  0.3864 -2.2924
   87SOPE  C318 8242   5.363   2.742   4.802 -0.4095 -0.3469  0.1513
   87SOPE  H18X 8243   5.450   2.800   4.840 -0.9401  2.8249 -2.8883
   87SOPE  H18Y 8244   5.377   2.634   4.783 -1.2333 -0.2968 -0.8433
   87SOPE  H18Z 8245   5.282   2.749   4.877  0.6702 -0.1088  1.3313
   88SOPE     N 8246   1.370   4.069   2.973  0.4643 -0.0766 -0.3873
   88SOPE   HN1 8247   1.445   3.997   2.975  0.1436 -0.3989  0.2260
   88SOPE   HN2 8248   1.336   4.091   2.878 -0.5397  0.9621  0.1881
   88SOPE   HN3 8249   1.425   4.152   3.006 -0.4220  0.2651  0.2885
   88SOPE   C12 8250   1.263   4.045   3.079  0.5745 -0.0900  0.5574
   88SOPE  H12A 8251   1.197   4.134   3.071 -1.8151 -1.9414 -3.2809
   88SOPE  H12B 8252   1.318   4.035   3.175 -0.1603 -0.4488  0.9479
   88SOPE   C11 8253   1.192   3.912   3.053 -0.2820 -0.3373  0.1767
   88SOPE  H11A 8254   1.132   3.899   3.145 -2.7171 -0.3032 -1.3115
   88SOPE  H11B 8255   1.263   3.828   3.042  1.0441  0.9274 -1.6677
   88SOPE     P 8256   0.984   3.825   2.909 -0.1970  0.1915 -0.5485
   88SOPE   O13 8257   0.993   3.772   2.775 -0.1170  0.0740 -0.0361
   88SOPE   O14 8258   0.860   3.897   2.951 -0.1875  0.5625 -0.3876
   88SOPE   O12 8259   1.107   3.924   2.933  0.0211 -0.3830 -0.5539
   88SOPE   O11 8260   1.012   3.702   3.012 -0.5145  0.2226  0.1679
   88SOPE    C1 8261   0.910   3.614   3.057  0.8693  0.8341  0.3578
   88SOPE    HA 8262   0.919   3.510   3.019 -1.9590  0.2733  1.0097
   88SOPE    HB 8263   0.812   3.649   3.018  1.0315  0.4998 -0.3680
   88SOPE    C2 8264   0.908   3.596   3.212  0.6036  0.4831 -0.0436
   88SOPE    HS 8265   0.823   3.534   3.247  1.6270  0.2029  2.0547
   88SOPE   O21 8266   0.889   3.724   3.275  0.4275  0.1481 -0.2775
   88SOPE   C21 8267   0.778   3.783   3.240  0.2386  0.5447  0.2159
   88SOPE   O22 8268   0.677   3.722   3.204 -0.2843 -0.2701 -0.3404
   88SOPE   C22 8269   0.794   3.933   3.254  0.2455 -0.3401 -0.7049
   88SOPE   H2R 8270   0.716   3.984   3.193 -0.8807 -1.0279  0.1223
   88SOPE   H2S 8271   0.887   3.953   3.197  0.6288 -2.0672 -0.7416
   88SOPE    C3 8272   1.041   3.535   3.265  0.6083 -0.1853  0.1790
   88SOPE    HX 8273   1.131   3.586   3.225  1.4899 -1.6770  0.1785
   88SOPE    HY 8274   1.027   3.436   3.217  0.6888 -0.4119  0.6170
   88SOPE   O31 8275   1.041   3.529   3.412  0.6704  0.9050 -0.0936
   88SOPE   C31 8276   1.098   3.631   3.481  0.0681 -0.4525 -0.0212
   88SOPE   O32 8277   1.163   3.721   3.430 -0.1741 -0.4413 -0.1817
   88SOPE   C32 8278   1.081   3.606   3.633  1.0073  0.3828 -0.6733
   88SOPE   H2X 8279   1.128   3.505   3.642 -1.1113 -0.6491 -0.6244
   88SOPE   H2Y 8280   0.973   3.580   3.643  1.4666 -0.6848  2.5739
   88SOPE   C23 8281   0.810   3.984   3.398  0.6857  0.1108  0.3142
   88SOPE   H3R 8282   0.877   3.913   3.451 -0.0904 -1.6474 -0.9693
   88SOPE   H3S 8283   0.712   3.983   3.452 -1.3862 -1.9702 -3.1701
   88SOPE   C24 8284   0.871   4.118   3.397 -0.2305 -0.4018  0.3570
   88SOPE   H4R 8285   0.979   4.108   3.370 -0.3302 -0.4561 -0.0256
   88SOPE   H4S 8286   0.830   4.181   3.316  0.6984 -0.6196 -0.2957
   88SOPE   C25 8287   0.852   4.195   3.530  0.1554  0.1265  0.2910
   88SOPE   H5R 8288   0.891   4.297   3.510  0.0734  0.0379 -0.3449
   88SOPE   H5S 8289   0.743   4.200   3.553  0.0248 -5.6874  2.4939
   88SOPE   C26 8290   0.923   4.133   3.650 -0.0901 -0.3428 -0.0899
   88SOPE   H6R 8291   0.879   4.034   3.673 -1.8273  0.3671 -0.2601
   88SOPE   H6S 8292   1.027   4.125   3.611 -0.0237  0.7487 -0.1596
   88SOPE   C27 8293   0.918   4.223   3.776  0.3301  0.8107 -0.1440
   88SOPE   H7R 8294   0.990   4.177   3.847  1.2512  1.3120 -0.7443
   88SOPE   H7S 8295   0.967   4.318   3.745  0.9084  0.8820  0.9494
   88SOPE   C28 8296   0.779   4.241   3.831  0.6804  0.2890  0.3528
   88SOPE   H8R 8297   0.709   4.276   3.752  1.2510 -0.3755 -0.4657
   88SOPE   H8S 8298   0.744   4.140   3.861  0.0885  0.9294  1.9152
   88SOPE   C29 8299   0.776   4.335   3.946  0.5131 -0.1804 -0.1855
   88SOPE   H91 8300   0.750   4.438   3.916 -1.5451 -0.6762 -0.2887
   88SOPE  C210 8301   0.813   4.318   4.075  0.3761  0.2630 -0.0845
   88SOPE  H101 8302   0.800   4.395   4.152 -1.7182 -0.9363  0.8476
   88SOPE  C211 8303   0.871   4.187   4.131  0.1174  0.0820  0.2042
   88SOPE  H11R 8304   0.956   4.220   4.195 -0.5542 -1.0329  1.7094
   88SOPE  H11S 8305   0.920   4.132   4.048 -0.8595 -1.2954  0.5002
   88SOPE  C212 8306   0.774   4.109   4.213  0.4664  0.5639 -0.1494
   88SOPE  H12R 8307   0.829   4.031   4.269  1.2584  1.5979  0.5505
   88SOPE  H12S 8308   0.692   4.071   4.147 -0.1746  1.4406  0.1244
   88SOPE  C213 8309   0.706   4.187   4.329 -0.2276  0.0876 -0.1951
   88SOPE  H13R 8310   0.645   4.114   4.386  0.1209 -0.2094 -0.2026
   88SOPE  H13S 8311   0.633   4.261   4.289 -0.7938 -0.0085  0.6190
   88SOPE  C214 8312   0.812   4.251   4.419 -0.0067 -0.1288  0.1911
   88SOPE  H14R 8313   0.839   4.341   4.361  1.1354 -1.5640 -1.6115
   88SOPE  H14S 8314   0.903   4.193   4.446 -0.4754 -1.0862 -0.2155
   88SOPE  C215 8315   0.758   4.300   4.556 -0.4158  0.2728  0.4036
   88SOPE  H15R 8316   0.735   4.210   4.616 -0.5348 -0.1599 -0.2768
   88SOPE  H15S 8317   0.669   4.365   4.539  1.1101  2.4769  0.3466
   88SOPE  C216 8318   0.861   4.384   4.643 -0.5724 -0.6500  0.2290
   88SOPE  H16R 8319   0.883   4.466   4.571 -1.7838 -1.4774 -1.1472
   88SOPE  H16S 8320   0.955   4.331   4.666 -1.1561 -1.1106  1.6599
   88SOPE  C217 8321   0.811   4.445   4.776  0.6088 -0.2428 -0.2891
   88SOPE  H17R 8322   0.707   4.482   4.762  1.3824  1.0906 -3.3512
   88SOPE  H17S 8323   0.875   4.533   4.800 -0.5287  0.8080 -0.9719
   88SOPE  C218 8324   0.824   4.339   4.888 -0.9580 -0.1102 -0.0594
   88SOPE  H18R 8325   0.925   4.331   4.934 -0.8754 -0.5898 -0.3119
   88SOPE  H18S 8326   0.786   4.238   4.860 -0.8167 -0.2339  0.1896
   88SOPE  H18T 8327   0.771   4.388   4.972  0.9126  2.1859 -0.0990
   88SOPE   C33 8328   1.121   3.719   3.729  0.0742 -0.3354 -0.2435
   88SOPE   H3X 8329   1.042   3.796   3.717 -0.4530 -1.2840 -3.7034
   88SOPE   H3Y 8330   1.222   3.755   3.700  0.1832 -1.1235 -0.8483
   88SOPE   C34 8331   1.127   3.672   3.874 -0.2235 -0.0766 -0.2355
   88SOPE   H4X 8332   1.209   3.597   3.885  0.8389  0.8484 -1.4690
   88SOPE   H4Y 8333   1.038   3.611   3.897 -0.4974 -0.3611 -1.9622
   88SOPE   C35 8334   1.143   3.787   3.971 -0.1784 -0.0947 -0.3460
   88SOPE   H5X 8335   1.062   3.862   3.952 -0.9136 -0.8963 -0.4515
   88SOPE   H5Y 8336   1.235   3.847   3.958 -0.0751  0.6936  3.0744
   88SOPE   C36 8337   1.139   3.736   4.115  0.0690 -0.2259  0.7673
   88SOPE   H6X 8338   1.227   3.673   4.137  0.6123 -0.1919 -1.0859
   88SOPE   H6Y 8339   1.046   3.678   4.136 -0.3427  0.3379  0.5241
   88SOPE   C37 8340   1.125   3.852   4.224 -0.2999  0.0990  0.2895
   88SOPE   H7X 8341   1.071   3.943   4.189  1.8382  1.0554 -0.7300
   88SOPE   H7Y 8342   1.226   3.894   4.248 -0.4557  1.0019 -0.5543
   88SOPE   C38 8343   1.052   3.798   4.352  0.2793 -1.0404 -0.0439
   88SOPE   H8X 8344   1.104   3.709   4.392 -0.2320 -0.2601  2.6137
   88SOPE   H8Y 8345   0.951   3.767   4.317  0.0949  0.1827 -0.6707
   88SOPE   C39 8346   1.038   3.905   4.466  0.4684 -0.1287 -0.3549
   88SOPE   H9X 8347   0.979   3.859   4.548 -1.6826  0.5173 -1.4382
   88SOPE   H9Y 8348   0.987   3.997   4.429  0.3574  0.0066  0.1216
   88SOPE  C310 8349   1.167   3.941   4.532  0.3258 -0.0008  0.2857
   88SOPE  H10X 8350   1.230   3.991   4.455 -0.2978  0.7850  0.2753
   88SOPE  H10Y 8351   1.222   3.849   4.560 -0.8389 -0.6850  0.3612
   88SOPE  C311 8352   1.151   4.037   4.648  0.1862 -0.5658  0.5779
   88SOPE  H11X 8353   1.112   3.966   4.724  1.0212 -1.7041 -0.0345
   88SOPE  H11Y 8354   1.083   4.122   4.622  0.4723 -0.3847  0.4113
   88SOPE  C312 8355   1.274   4.092   4.713 -0.2393 -0.1367 -0.7328
   88SOPE  H12X 8356   1.317   4.171   4.648  1.6480 -0.3578  0.1666
   88SOPE  H12Y 8357   1.350   4.014   4.736 -0.0639  0.3366  0.3697
   88SOPE  C313 8358   1.239   4.167   4.845  0.0738 -0.3680 -0.6233
   88SOPE  H13X 8359   1.188   4.099   4.916 -2.8247  0.4629 -1.7160
   88SOPE  H13Y 8360   1.157   4.239   4.821 -0.1990 -0.2829  0.5123
   88SOPE  C314 8361   1.363   4.233   4.913 -0.2378 -0.3464 -0.6678
   88SOPE  H14X 8362   1.326   4.303   4.992  0.6197  0.5464 -1.0332
   88SOPE  H14Y 8363   1.412   4.305   4.844 -1.7494  1.6095  0.2053
   88SOPE  C315 8364   1.457   4.126   4.980 -0.0107  0.1801  0.2978
   88SOPE  H15X 8365   1.470   4.041   4.909 -0.2465  0.4579 -0.0847
   88SOPE  H15Y 8366   1.415   4.089   5.075 -0.1556 -1.5039 -0.3973
   88SOPE  C316 8367   1.594   4.193   5.001  0.0158 -0.0877 -0.3978
   88SOPE  H16X 8368   1.585   4.250   5.096  0.5762  0.0344 -0.4206
   88SOPE  H16Y 8369   1.637   4.249   4.916 -0.0283  1.0631  0.3129
   88SOPE  C317 8370   1.704   4.083   5.016 -0.4403  0.0675  0.1266
   88SOPE  H17X 8371   1.725   4.031   4.920 -0.6480 -0.6783  0.4746
   88SOPE  H17Y 8372   1.668   4.005   5.086  0.3639 -0.2684  0.1758
   88SOPE  C318 8373   1.840   4.128   5.059 -0.2838  0.6261 -0.6522
   88SOPE  H18X 8374   1.886   4.201   4.989  1.2200 -0.5359 -0.9362
   88SOPE  H18Y 8375   1.902   4.036   5.064 -0.6700  0.3264 -1.2591
   88SOPE  H18Z 8376   1.850   4.168   5.162 -0.0814  1.6397 -1.0468
   89SAPC     N 8377   1.796   3.962   7.564  0.4552  0.2096 -0.3729
   89SAPC   C12 8378   1.811   3.875   7.442  0.3628 -0.4164  0.0791
   89SAPC  H12A 8379   1.713   3.883   7.398  0.0317  1.5384  1.0477
   89SAPC  H12B 8380   1.810   3.772   7.475  0.3435 -1.0159 -1.6842
   89SAPC   C13 8381   1.916   3.953   7.655  0.1736 -0.4652 -0.9780
   89SAPC  H13A 8382   1.917   3.854   7.697  1.2628 -0.3753 -0.7619
   89SAPC  H13B 8383   2.007   3.971   7.600 -0.4999  1.6273 -1.4855
   89SAPC  H13C 8384   1.908   4.023   7.737  4.8338 -0.5822 -0.1300
   89SAPC   C14 8385   1.806   4.102   7.522 -0.9331  0.0327 -0.5521
   89SAPC  H14A 8386   1.711   4.136   7.482 -1.1328 -0.4500 -0.4862
   89SAPC  H14B 8387   1.822   4.163   7.609  0.6134  0.2568 -0.9684
   89SAPC  H14C 8388   1.881   4.111   7.445  0.4535  3.4068  0.9853
   89SAPC   C15 8389   1.665   3.930   7.631  0.3296 -0.3952 -0.6510
   89SAPC  H15A 8390   1.656   3.828   7.665 -0.2881  0.0970  0.7676
   89SAPC  H15B 8391   1.646   3.996   7.715 -0.5460 -1.3046 -0.1110
   89SAPC  H15C 8392   1.589   3.945   7.556 -0.2703 -1.4552 -0.2783
   89SAPC   C11 8393   1.919   3.897   7.333  0.1318  0.4065  0.5195
   89SAPC  H11A 8394   1.912   3.817   7.257 -0.3707 -0.7137  1.7113
   89SAPC  H11B 8395   2.017   3.884   7.384 -0.6638  1.2444  2.3905
   89SAPC     P 8396   2.017   4.120   7.228 -0.0878  0.2603  0.2190
   89SAPC   O13 8397   2.016   4.239   7.317 -0.1549  0.3052  0.2575
   89SAPC   O14 8398   2.144   4.047   7.219 -0.3175 -0.0993  0.1710
   89SAPC   O12 8399   1.897   4.019   7.260  0.2580 -0.0477  0.3463
   89SAPC   O11 8400   1.969   4.157   7.082 -0.4423  0.1683  0.3459
   89SAPC    C1 8401   1.834   4.205   7.054 -0.7567 -0.1733 -0.3279
   89SAPC    HA 8402   1.764   4.125   7.022 -0.5434  0.2273 -1.8844
   89SAPC    HB 8403   1.790   4.244   7.148  1.7085  0.1214  0.7645
   89SAPC    C2 8404   1.837   4.300   6.936 -0.2182  0.3465 -0.2025
   89SAPC    HS 8405   1.732   4.316   6.906 -0.4308  1.0854  0.9017
   89SAPC   O21 8406   1.923   4.251   6.828  0.5320  0.3337  0.2302
   89SAPC   C21 8407   1.858   4.158   6.753  0.6397 -0.4848 -0.6461
   89SAPC   O22 8408   1.736   4.147   6.752 -0.1405  0.4172 -0.2794
   89SAPC   C22 8409   1.959   4.084   6.671 -0.3750  0.5581  0.3308
   89SAPC   H2R 8410   1.941   4.131   6.572  0.3233  0.8723  0.3521
   89SAPC   H2S 8411   2.055   4.102   6.723 -1.1641  0.0257  2.0474
   89SAPC    C3 8412   1.897   4.436   6.979 -0.2514  0.1048 -0.4888
   89SAPC    HX 8413   2.007   4.428   6.988  0.0315  0.4848 -2.8579
   89SAPC    HY 8414   1.855   4.461   7.079  1.2977  1.9247 -0.2185
   89SAPC   O31 8415   1.879   4.543   6.882 -0.2636 -0.7332 -0.4035
   89SAPC   C31 8416   1.749   4.586   6.871 -0.0237 -0.2634  0.1560
   89SAPC   O32 8417   1.658   4.555   6.945  0.0702  0.0495  0.6235
   89SAPC   C32 8418   1.734   4.681   6.747 -0.6846  0.5707  0.1132
   89SAPC   H2X 8419   1.756   4.614   6.661 -2.3370 -1.0860  0.9308
   89SAPC   H2Y 8420   1.806   4.765   6.753  0.9808 -0.7651 -0.2919
   89SAPC   C23 8421   1.925   3.935   6.657 -0.7839  0.2865  0.3548
   89SAPC   H3R 8422   1.829   3.926   6.603 -0.5314  0.5938 -0.1493
   89SAPC   H3S 8423   1.912   3.883   6.755 -0.8009 -1.1736 -0.4000
   89SAPC   C24 8424   2.037   3.861   6.583 -0.6542 -0.6190 -0.6029
   89SAPC   H4R 8425   2.083   3.928   6.508  1.7612 -1.9332 -0.4054
   89SAPC   H4S 8426   1.994   3.773   6.530 -1.1125 -0.7698  0.0108
   89SAPC   C25 8427   2.151   3.821   6.674  0.0204 -0.4479 -0.2967
   89SAPC   H5R 8428   2.108   3.781   6.767 -2.1117 -0.2438 -1.1166
   89SAPC   C26 8429   2.280   3.858   6.655 -0.4342  0.3479  0.4908
   89SAPC   H6R 8430   2.350   3.835   6.737 -1.1428  1.7125  1.5253
   89SAPC   C27 8431   2.339   3.923   6.529  0.1520 -0.2911 -0.2183
   89SAPC   H7R 8432   2.268   3.917   6.445 -0.6039 -0.1731  0.4021
   89SAPC   H7S 8433   2.436   3.878   6.499 -0.0436  0.7041 -2.5247
   89SAPC   C28 8434   2.374   4.070   6.548 -0.6149  0.5694  0.4621
   89SAPC   H8R 8435   2.421   4.092   6.645  0.9461  0.3912 -0.2166
   89SAPC   C29 8436   2.354   4.176   6.465  0.1746 -0.4060  0.3642
   89SAPC   H9R 8437   2.393   4.275   6.493  0.8688 -0.4726 -0.3303
   89SAPC  C210 8438   2.297   4.163   6.328 -0.7075  0.2063 -0.4470
   89SAPC  H10R 8439   2.215   4.088   6.326  0.5664 -1.2649  0.0393
   89SAPC  H10S 8440   2.372   4.125   6.255  1.0435 -0.3195  1.5484
   89SAPC  C211 8441   2.243   4.302   6.283  0.0088  0.2340 -0.1469
   89SAPC  H11R 8442   2.260   4.387   6.350  1.3405 -1.2617  1.5194
   89SAPC  C212 8443   2.160   4.320   6.176 -0.3155 -0.0103  0.3673
   89SAPC  H12R 8444   2.132   4.421   6.142  0.8867  0.0167 -0.6054
   89SAPC  C213 8445   2.119   4.212   6.086 -0.6209  0.5937 -0.3869
   89SAPC  H13R 8446   2.032   4.242   6.024 -0.0166 -0.2811 -1.7202
   89SAPC  H13S 8447   2.079   4.127   6.145  0.2584  1.5953  1.7293
   89SAPC  C214 8448   2.227   4.155   6.003  0.0222  0.1211  0.0762
   89SAPC  H14R 8449   2.331   4.164   6.039 -0.6307  1.4953  1.8164
   89SAPC  C215 8450   2.200   4.088   5.892 -0.4024 -0.0862 -0.4038
   89SAPC  H15R 8451   2.275   4.028   5.838 -0.2313  0.3979 -0.7097
   89SAPC  C216 8452   2.068   4.054   5.836  0.4655  0.7444 -0.2718
   89SAPC  H16R 8453   1.987   4.035   5.909 -0.8467  0.7888 -1.6738
   89SAPC  H16S 8454   2.079   3.957   5.784 -1.2876 -0.4132  1.3963
   89SAPC  C217 8455   2.023   4.160   5.732 -0.1519  0.3188 -0.1504
   89SAPC  H17R 8456   1.998   4.251   5.790  1.9916  2.0905 -1.8192
   89SAPC  H17S 8457   1.935   4.113   5.684  1.2407 -1.7982 -0.7806
   89SAPC  C218 8458   2.123   4.200   5.621 -0.0023 -0.3590 -0.2332
   89SAPC  H18R 8459   2.130   4.111   5.556  0.3205 -2.7359  2.8206
   89SAPC  H18S 8460   2.216   4.231   5.673 -0.2952 -1.0586  0.7373
   89SAPC  C219 8461   2.068   4.318   5.535 -0.2238  0.0055  0.9081
   89SAPC  H19R 8462   2.142   4.328   5.453 -0.9856 -1.8133 -0.0489
   89SAPC  H19S 8463   2.065   4.398   5.613  1.9714 -0.8590  1.9658
   89SAPC  C220 8464   1.930   4.302   5.469 -0.0046 -0.3847  0.0232
   89SAPC  H20R 8465   1.929   4.389   5.400  3.4875 -0.0429  0.1886
   89SAPC  H20S 8466   1.842   4.309   5.535  0.6984 -0.9080  1.0469
   89SAPC  H20T 8467   1.920   4.213   5.403  0.8258 -1.1603  0.9168
   89SAPC   C33 8468   1.583   4.730   6.720 -0.2013 -0.1513 -0.2255
   89SAPC   H3X 8469   1.545   4.754   6.822  0.7581 -1.0247  0.3551
   89SAPC   H3Y 8470   1.524   4.652   6.666  0.2907 -0.2862 -0.5705
   89SAPC   C34 8471   1.562   4.862   6.637  0.0303  0.0256 -0.2370
   89SAPC   H4X 8472   1.613   4.946   6.688  2.1374 -0.9743 -0.5891
   89SAPC   H4Y 8473   1.451   4.871   6.632 -0.1183 -0.7493  1.0958
   89SAPC   C35 8474   1.612   4.861   6.491 -0.5553  0.8331 -0.3664
   89SAPC   H5X 8475   1.598   4.755   6.458  1.9350  1.2069 -2.9910
   89SAPC   H5Y 8476   1.718   4.891   6.479 -0.7185  1.1225 -1.1388
   89SAPC   C36 8477   1.537   4.951   6.398 -0.0578 -0.3865 -0.5552
   89SAPC   H6X 8478   1.545   5.055   6.435  3.7224  0.0275 -2.1241
   89SAPC   H6Y 8479   1.432   4.915   6.398 -0.8909  1.8655  0.3766
   89SAPC   C37 8480   1.592   4.951   6.255  0.2303 -0.4545  0.6703
   89SAPC   H7X 8481   1.615   4.846   6.228  0.2068  0.0701 -1.6537
   89SAPC   H7Y 8482   1.692   4.999   6.246  0.6617 -1.7098 -2.2388
   89SAPC   C38 8483   1.498   5.003   6.145 -0.0670  0.1775 -0.4457
   89SAPC   H8X 8484   1.469   5.107   6.172  1.0598  0.4450 -0.2102
   89SAPC   H8Y 8485   1.412   4.934   6.137 -0.7861  0.0903  4.6334
   89SAPC   C39 8486   1.573   5.017   6.010  0.2183  0.1079 -0.4932
   89SAPC   H9X 8487   1.634   4.924   5.998  2.9369  1.6732  0.2509
   89SAPC   H9Y 8488   1.662   5.083   6.025  2.5535 -2.7623 -0.7552
   89SAPC  C310 8489   1.478   5.058   5.897  0.7544 -0.5185 -0.4102
   89SAPC  H10X 8490   1.430   5.148   5.940  0.8538  0.4534 -2.2568
   89SAPC  H10Y 8491   1.396   4.983   5.900  1.6412 -1.5518 -1.1785
   89SAPC  C311 8492   1.547   5.072   5.756  0.2861  0.5974  0.2722
   89SAPC  H11X 8493   1.596   4.975   5.731  1.1659  0.1915  3.1949
   89SAPC  H11Y 8494   1.621   5.154   5.761 -0.3793  1.7447 -4.2061
   89SAPC  C312 8495   1.439   5.094   5.644 -0.2366 -0.0376 -0.5234
   89SAPC  H12X 8496   1.387   5.185   5.680  1.2365  0.5287  0.2699
   89SAPC  H12Y 8497   1.374   5.004   5.646 -0.7648  0.3483 -0.0462
   89SAPC  C313 8498   1.509   5.119   5.517 -0.2430 -0.2188 -0.2369
   89SAPC  H13X 8499   1.580   5.205   5.526 -1.8336  1.1126 -0.0272
   89SAPC  H13Y 8500   1.432   5.144   5.442 -1.3191  0.1068  0.9451
   89SAPC  C314 8501   1.581   5.002   5.459  0.2229 -0.4864  0.1281
   89SAPC  H14X 8502   1.556   4.913   5.521 -3.2935  0.6802  0.6451
   89SAPC  H14Y 8503   1.688   5.024   5.477  0.0997  1.4276 -1.2257
   89SAPC  C315 8504   1.553   4.980   5.311  0.1098  0.3156  0.2084
   89SAPC  H15X 8505   1.443   4.963   5.306  0.2642 -0.2092 -2.8493
   89SAPC  H15Y 8506   1.574   4.874   5.286 -2.7262 -0.3999  0.4366
   89SAPC  C316 8507   1.594   5.086   5.207 -0.3908 -0.1711  0.5995
   89SAPC  H16X 8508   1.693   5.056   5.167 -1.4805 -2.6441 -0.4463
   89SAPC  H16Y 8509   1.606   5.184   5.258  2.3301 -0.6011  0.9409
   89SAPC  C317 8510   1.498   5.111   5.091  0.4648  0.5018 -0.3636
   89SAPC  H17X 8511   1.548   5.176   5.017 -2.0927  2.6614 -0.3257
   89SAPC  H17Y 8512   1.404   5.166   5.113 -0.5427 -1.1637 -0.3161
   89SAPC  C318 8513   1.450   4.976   5.024 -0.1120 -0.1537 -0.3922
   89SAPC  H18X 8514   1.386   4.987   4.934  0.7581  1.4713 -0.8450
   89SAPC  H18Y 8515   1.379   4.915   5.084  1.6464 -3.0304 -1.0317
   89SAPC  H18Z 8516   1.528   4.901   5.001 -1.2542 -1.5782  0.1778
   90SAPC     N 8517   3.123   6.533   7.624  0.3199  1.0543 -0.1724
   90SAPC   C12 8518   3.137   6.539   7.468  0.0085  0.8157 -0.7038
   90SAPC  H12A 8519   3.243   6.548   7.453  0.1267  1.1918  0.3010
   90SAPC  H12B 8520   3.094   6.633   7.437  1.7297  1.7677 -0.3253
   90SAPC   C13 8521   3.183   6.657   7.692 -0.1192 -0.7126  0.2239
   90SAPC  H13A 8522   3.291   6.653   7.698  0.0272 -0.4054 -1.6514
   90SAPC  H13B 8523   3.150   6.747   7.642 -0.2005 -1.6140 -1.4371
   90SAPC  H13C 8524   3.150   6.657   7.795 -0.8250  1.8129  0.0617
   90SAPC   C14 8525   2.972   6.529   7.660  0.0736  0.6633  0.1132
   90SAPC  H14A 8526   2.956   6.530   7.767 -1.2975 -0.3200 -0.0506
   90SAPC  H14B 8527   2.921   6.616   7.623  1.0970  0.9869 -0.5576
   90SAPC  H14C 8528   2.924   6.440   7.623  0.0817  0.5176  0.4458
   90SAPC   C15 8529   3.195   6.406   7.674 -0.0576 -1.4044 -0.1131
   90SAPC  H15A 8530   3.296   6.397   7.640  0.1387 -0.8676  0.3085
   90SAPC  H15B 8531   3.196   6.393   7.781 -1.6163 -2.3844 -0.1801
   90SAPC  H15C 8532   3.142   6.318   7.639 -3.1294  0.8766 -1.6941
   90SAPC   C11 8533   3.068   6.429   7.394  0.5347 -0.7717 -0.1306
   90SAPC  H11A 8534   3.051   6.456   7.287 -2.4113 -0.7003  0.2647
   90SAPC  H11B 8535   2.960   6.426   7.421 -0.3827 -0.0811 -3.2513
   90SAPC     P 8536   3.254   6.266   7.330  0.1097 -0.3306  0.2299
   90SAPC   O13 8537   3.343   6.385   7.320 -0.3622 -0.1459  0.7976
   90SAPC   O14 8538   3.323   6.143   7.391  0.3494  0.0158 -0.2765
   90SAPC   O12 8539   3.120   6.301   7.412 -0.2679  0.2321  0.1919
   90SAPC   O11 8540   3.196   6.222   7.186  0.7646  0.0643 -0.3621
   90SAPC    C1 8541   3.103   6.108   7.175 -0.2413  0.0965  0.0288
   90SAPC    HA 8542   3.171   6.020   7.168  1.3523  1.3632 -1.2353
   90SAPC    HB 8543   3.023   6.102   7.252 -2.4433 -1.1685 -2.2206
   90SAPC    C2 8544   3.024   6.111   7.045  0.1328  0.1138  0.4338
   90SAPC    HS 8545   2.972   6.012   7.048  0.5827 -0.2688 -1.8713
   90SAPC   O21 8546   3.117   6.124   6.940  0.3222 -0.0869 -0.2591
   90SAPC   C21 8547   3.080   6.080   6.825 -0.8516  0.6106 -0.2696
   90SAPC   O22 8548   2.987   6.003   6.807  0.1961  0.1016  0.2354
   90SAPC   C22 8549   3.170   6.122   6.706  0.3499 -0.5967  0.5066
   90SAPC   H2R 8550   3.104   6.195   6.655 -0.3738 -2.1149 -0.8435
   90SAPC   H2S 8551   3.253   6.188   6.740 -0.7119  1.8943 -1.3628
   90SAPC    C3 8552   2.918   6.225   7.040 -0.0053 -0.3012 -0.1553
   90SAPC    HX 8553   2.980   6.315   7.060 -0.3809 -0.1065  0.1430
   90SAPC    HY 8554   2.853   6.201   7.127  0.8124 -2.3039 -0.0536
   90SAPC   O31 8555   2.850   6.224   6.909  0.3150 -0.5128 -0.0962
   90SAPC   C31 8556   2.740   6.146   6.895  0.3542  0.1385 -0.5434
   90SAPC   O32 8557   2.691   6.077   6.987 -0.6687 -0.9659  0.4852
   90SAPC   C32 8558   2.701   6.149   6.749  1.1512  0.7255  0.6671
   90SAPC   H2X 8559   2.789   6.119   6.689  0.4475 -1.2758  0.5527
   90SAPC   H2Y 8560   2.668   6.251   6.720 -3.0801 -0.0456  2.0119
   90SAPC   C23 8561   3.198   6.010   6.616 -0.3894 -0.4070  0.2251
   90SAPC   H3R 8562   3.116   5.986   6.545  0.5892  0.7941 -1.3872
   90SAPC   H3S 8563   3.216   5.912   6.665  0.1732 -0.6835 -0.5124
   90SAPC   C24 8564   3.313   6.035   6.515 -0.3903 -0.3002  0.2205
   90SAPC   H4R 8565   3.326   5.945   6.451  0.0386  0.0322 -0.1696
   90SAPC   H4S 8566   3.407   6.049   6.573 -0.4325 -1.9824  0.7472
   90SAPC   C25 8567   3.295   6.162   6.444  1.4636 -0.8966  0.8200
   90SAPC   H5R 8568   3.295   6.255   6.503  0.5774  0.8202 -1.7226
   90SAPC   C26 8569   3.270   6.173   6.315 -0.2485  0.7995 -0.5079
   90SAPC   H6R 8570   3.270   6.272   6.265 -1.4465 -0.9395 -4.3920
   90SAPC   C27 8571   3.273   6.063   6.218  0.2235  0.3046 -0.4991
   90SAPC   H7R 8572   3.359   5.994   6.229 -0.4255 -0.3669  0.4913
   90SAPC   H7S 8573   3.295   6.104   6.117  1.3288  0.5038 -0.1912
   90SAPC   C28 8574   3.151   5.974   6.205 -0.2990  0.6068  0.3782
   90SAPC   H8R 8575   3.148   5.902   6.288  2.2917  1.2527  1.1119
   90SAPC   C29 8576   3.069   5.963   6.098  0.6851 -0.3249  0.8857
   90SAPC   H9R 8577   2.986   5.892   6.104  0.1638 -0.0752 -1.7715
   90SAPC  C210 8578   3.075   6.043   5.966  0.0565  0.5087  0.1005
   90SAPC  H10R 8579   3.162   6.019   5.902  0.6486  2.5692  0.0761
   90SAPC  H10S 8580   3.101   6.149   5.988 -4.1125  1.9364 -0.8108
   90SAPC  C211 8581   2.940   6.036   5.889 -0.4136 -0.1691 -0.1805
   90SAPC  H11R 8582   2.848   6.038   5.948 -0.5734  0.9418 -0.4483
   90SAPC  C212 8583   2.918   6.014   5.755  0.2333  0.5363 -0.7220
   90SAPC  H12R 8584   2.815   6.012   5.716 -1.1313 -1.2872  2.6238
   90SAPC  C213 8585   3.026   6.011   5.656  0.3678  0.0572  0.2400
   90SAPC  H13R 8586   3.109   6.082   5.679 -0.1124  0.6666  0.1125
   90SAPC  H13S 8587   2.987   6.043   5.557 -2.1302  0.8678  1.4006
   90SAPC  C214 8588   3.083   5.873   5.656  0.5988 -0.2520 -0.0084
   90SAPC  H14R 8589   3.115   5.842   5.757  1.7253  0.7748 -0.0382
   90SAPC  C215 8590   3.101   5.790   5.555 -0.3512 -0.0123  0.1592
   90SAPC  H15R 8591   3.133   5.688   5.578 -0.9943 -0.3628 -0.4551
   90SAPC  C216 8592   3.064   5.813   5.414 -0.3247 -0.4814 -0.3046
   90SAPC  H16R 8593   3.157   5.835   5.358  0.6630  0.3786  1.5547
   90SAPC  H16S 8594   2.991   5.895   5.400  0.3515  0.6658  2.2559
   90SAPC  C217 8595   2.987   5.683   5.371  0.7871 -0.1814  0.0988
   90SAPC  H17R 8596   2.893   5.682   5.430  1.4673  1.3980  1.2938
   90SAPC  H17S 8597   3.052   5.597   5.398  1.3682  0.4813  0.8610
   90SAPC  C218 8598   2.950   5.682   5.219  0.5526 -0.4704  0.3673
   90SAPC  H18R 8599   3.038   5.652   5.158  0.6421 -1.7673  1.0872
   90SAPC  H18S 8600   2.925   5.787   5.196 -1.8345 -0.7950  1.1129
   90SAPC  C219 8601   2.835   5.587   5.175  0.2612  0.1368  0.1946
   90SAPC  H19R 8602   2.814   5.598   5.066 -2.5723 -1.7881  0.4252
   90SAPC  H19S 8603   2.739   5.615   5.224 -0.3042 -0.6163 -0.4411
   90SAPC  C220 8604   2.853   5.435   5.197 -0.2785  0.2328  0.3821
   90SAPC  H20R 8605   2.936   5.387   5.141 -1.4564  0.4207 -1.5848
   90SAPC  H20S 8606   2.760   5.382   5.168  0.4854 -0.0868 -1.6243
   90SAPC  H20T 8607   2.883   5.409   5.301 -0.6649 -0.6302  0.2835
   90SAPC   C33 8608   2.585   6.050   6.732  0.1302 -0.1372 -0.8507
   90SAPC   H3X 8609   2.489   6.083   6.777 -0.2415 -2.8080  0.4822
   90SAPC   H3Y 8610   2.603   5.958   6.792 -0.7906  2.2162  3.4436
   90SAPC   C34 8611   2.565   6.020   6.581 -0.2461  0.1169  1.1747
   90SAPC   H4X 8612   2.594   6.101   6.512  0.1275 -1.0154 -0.0331
   90SAPC   H4Y 8613   2.461   5.993   6.552  1.0454 -1.3616 -2.7658
   90SAPC   C35 8614   2.650   5.896   6.541 -0.7751 -0.1724  0.3867
   90SAPC   H5X 8615   2.650   5.817   6.619  1.2358  0.8433  1.4999
   90SAPC   H5Y 8616   2.751   5.939   6.526 -0.0616 -1.7142  0.5868
   90SAPC   C36 8617   2.595   5.823   6.418  0.0095  0.0098  0.0146
   90SAPC   H6X 8618   2.486   5.803   6.424 -0.3032  0.9624 -1.6897
   90SAPC   H6Y 8619   2.643   5.724   6.405  0.6221  0.2001  0.7899
   90SAPC   C37 8620   2.614   5.901   6.293 -0.0416  0.2128 -0.9514
   90SAPC   H7X 8621   2.723   5.908   6.275  0.1131 -1.5504 -0.8224
   90SAPC   H7Y 8622   2.598   6.011   6.305  0.3296  0.3656 -1.8320
   90SAPC   C38 8623   2.546   5.846   6.173  0.2248 -0.0242 -0.6835
   90SAPC   H8X 8624   2.442   5.879   6.193 -0.0361 -1.1815 -0.0719
   90SAPC   H8Y 8625   2.559   5.737   6.183  2.3500  0.1649 -0.8048
   90SAPC   C39 8626   2.602   5.889   6.038  0.0283  0.2471 -0.1695
   90SAPC   H9X 8627   2.711   5.863   6.036 -0.1708 -0.9626  1.8194
   90SAPC   H9Y 8628   2.579   5.997   6.036 -1.7190 -0.0599  1.1689
   90SAPC  C310 8629   2.527   5.819   5.926  0.3816 -0.5480  0.4200
   90SAPC  H10X 8630   2.416   5.825   5.936  0.2800  1.1916 -1.1269
   90SAPC  H10Y 8631   2.558   5.712   5.934 -0.1190 -0.5384  4.8943
   90SAPC  C311 8632   2.579   5.855   5.782  0.2802 -0.3644  0.7116
   90SAPC  H11X 8633   2.689   5.866   5.793  0.4975 -0.2973 -1.2419
   90SAPC  H11Y 8634   2.538   5.953   5.749  0.1376 -0.8829 -0.6979
   90SAPC  C312 8635   2.544   5.752   5.673 -0.2224 -1.0679 -0.7025
   90SAPC  H12X 8636   2.433   5.741   5.668 -0.4878  1.2258 -0.8504
   90SAPC  H12Y 8637   2.589   5.654   5.701 -1.8493 -1.7655 -0.3611
   90SAPC  C313 8638   2.611   5.768   5.540 -0.5260  0.0852  0.1122
   90SAPC  H13X 8639   2.577   5.681   5.480  1.0050 -1.0581  0.8409
   90SAPC  H13Y 8640   2.720   5.746   5.549  0.2673  3.5237  0.2116
   90SAPC  C314 8641   2.605   5.907   5.472 -0.4906  0.4628  0.0485
   90SAPC  H14X 8642   2.647   5.983   5.542 -1.6814  0.2127  1.0604
   90SAPC  H14Y 8643   2.498   5.935   5.462 -0.5892  0.0670  0.0042
   90SAPC  C315 8644   2.661   5.911   5.327 -0.1694 -0.5828  0.7264
   90SAPC  H15X 8645   2.724   5.822   5.306  0.3350  0.1103 -0.8628
   90SAPC  H15Y 8646   2.736   5.992   5.317  0.4221 -1.3696 -2.0891
   90SAPC  C316 8647   2.549   5.934   5.223 -0.2359 -0.3707 -0.2100
   90SAPC  H16X 8648   2.513   6.038   5.236 -0.6577 -0.5049 -0.2896
   90SAPC  H16Y 8649   2.464   5.872   5.258  0.1276 -1.1912 -0.7539
   90SAPC  C317 8650   2.595   5.902   5.081  0.5747 -0.4000 -0.1193
   90SAPC  H17X 8651   2.521   5.952   5.015  5.2352  6.5750 -1.1400
   90SAPC  H17Y 8652   2.593   5.793   5.058 -1.2611 -0.2040 -1.0231
   90SAPC  C318 8653   2.724   5.966   5.032  0.3368 -0.4180  0.6028
   90SAPC  H18X 8654   2.804   5.956   5.109 -0.5048 -0.0712  1.5405
   90SAPC  H18Y 8655   2.719   6.077   5.033  0.7862 -0.3632 -0.8943
   90SAPC  H18Z 8656   2.758   5.938   4.930 -0.1951  2.3312 -0.4225
   91SAPC     N 8657   5.031   5.628   7.284  0.4245 -0.4953  0.3313
   91SAPC   C12 8658   4.942   5.605   7.408 -0.8549 -0.1714 -0.3744
   91SAPC  H12A 8659   4.994   5.555   7.488  1.2689  2.1468 -0.1870
   91SAPC  H12B 8660   4.860   5.549   7.366  0.4674 -1.1601 -1.7395
   91SAPC   C13 8661   5.070   5.493   7.234 -0.1455 -0.0069  0.0440
   91SAPC  H13A 8662   5.132   5.440   7.305 -0.8501 -1.4345 -0.3755
   91SAPC  H13B 8663   4.989   5.426   7.207 -0.2105  0.4307 -0.8933
   91SAPC  H13C 8664   5.123   5.510   7.141 -0.3855  0.7929  0.0490
   91SAPC   C14 8665   4.965   5.716   7.191  0.1375 -0.1072 -0.2806
   91SAPC  H14A 8666   4.889   5.665   7.132 -0.9682 -0.2747  1.2234
   91SAPC  H14B 8667   4.911   5.793   7.245  0.5780 -1.3514  2.0320
   91SAPC  H14C 8668   5.037   5.764   7.127 -1.1157  1.0322 -0.8895
   91SAPC   C15 8669   5.153   5.707   7.322  0.2480 -0.1966  0.1010
   91SAPC  H15A 8670   5.219   5.657   7.392 -0.0740 -0.1485  0.4439
   91SAPC  H15B 8671   5.208   5.743   7.236  0.2985  2.3540  1.1251
   91SAPC  H15C 8672   5.134   5.794   7.383  1.1402 -0.4585  0.7836
   91SAPC   C11 8673   4.873   5.731   7.466 -0.4789 -0.4276  0.3721
   91SAPC  H11A 8674   4.944   5.816   7.469  0.1661 -0.8332 -1.8937
   91SAPC  H11B 8675   4.840   5.705   7.569  1.1025  0.7484  1.2176
   91SAPC     P 8676   4.659   5.868   7.428 -0.0853 -0.5170  0.1294
   91SAPC   O13 8677   4.537   5.811   7.488 -0.5438 -0.3950  0.2489
   91SAPC   O14 8678   4.721   5.976   7.511  0.1961  0.0860  0.0187
   91SAPC   O12 8679   4.758   5.762   7.378 -0.1959  0.2529 -0.4297
   91SAPC   O11 8680   4.620   5.923   7.288 -0.0875  0.1325 -0.1622
   91SAPC    C1 8681   4.714   5.975   7.195 -0.0764 -0.1476 -0.6333
   91SAPC    HA 8682   4.711   6.087   7.195  2.5552  0.0573  2.0760
   91SAPC    HB 8683   4.818   5.936   7.207 -0.4368 -1.1695 -0.7691
   91SAPC    C2 8684   4.663   5.943   7.055 -0.1589 -1.0357  0.3996
   91SAPC    HS 8685   4.558   5.980   7.052 -0.1180 -0.9514  0.0213
   91SAPC   O21 8686   4.682   5.804   7.037 -0.0983 -0.4370  0.0556
   91SAPC   C21 8687   4.585   5.722   7.056  1.0946  0.6910 -0.7228
   91SAPC   O22 8688   4.472   5.752   7.086 -0.1910 -0.3180  0.5362
   91SAPC   C22 8689   4.626   5.573   7.048 -0.0296 -0.3945  0.3192
   91SAPC   H2R 8690   4.679   5.570   7.145 -2.4212  2.0661  1.8514
   91SAPC   H2S 8691   4.536   5.507   7.047 -1.2292  1.1727  0.3980
   91SAPC    C3 8692   4.747   6.012   6.948 -0.3828 -0.0426 -0.1571
   91SAPC    HX 8693   4.851   5.976   6.963 -0.1590 -0.2298 -1.9563
   91SAPC    HY 8694   4.749   6.121   6.968  0.0967  0.1700 -1.2788
   91SAPC   O31 8695   4.701   5.977   6.817  0.4749  0.1727  0.0036
   91SAPC   C31 8696   4.761   6.024   6.716 -0.1040 -0.8270  0.8186
   91SAPC   O32 8697   4.873   6.074   6.717 -0.0595 -0.2318 -0.3808
   91SAPC   C32 8698   4.671   6.015   6.590 -0.2352 -0.6315  0.5896
   91SAPC   H2X 8699   4.566   6.033   6.621  0.2559  0.0636  1.9120
   91SAPC   H2Y 8700   4.673   5.905   6.573 -1.9221 -0.7407  0.9220
   91SAPC   C23 8701   4.736   5.537   6.940  0.1890  0.0361  0.2706
   91SAPC   H3R 8702   4.790   5.446   6.975  2.9815  1.3555 -0.2896
   91SAPC   H3S 8703   4.813   5.617   6.934 -0.7292  0.8507 -1.2015
   91SAPC   C24 8704   4.691   5.528   6.794 -0.1219  1.1158 -0.0247
   91SAPC   H4R 8705   4.631   5.438   6.769 -0.3153  1.0428  0.6747
   91SAPC   H4S 8706   4.782   5.523   6.731 -0.8391  0.2087 -1.0254
   91SAPC   C25 8707   4.611   5.642   6.734 -0.4719 -0.2990  0.3171
   91SAPC   H5R 8708   4.677   5.729   6.730 -1.6727  0.6357  0.3314
   91SAPC   C26 8709   4.479   5.649   6.718  0.5479  0.3594  0.0266
   91SAPC   H6R 8710   4.446   5.740   6.664  1.3735  1.4989  1.3781
   91SAPC   C27 8711   4.384   5.534   6.723 -0.2432 -0.2007  0.1318
   91SAPC   H7R 8712   4.437   5.438   6.742  0.5250  0.4911  1.6628
   91SAPC   H7S 8713   4.338   5.530   6.622 -0.3099  2.8267 -0.0403
   91SAPC   C28 8714   4.283   5.554   6.825  0.3733 -0.2000 -0.2376
   91SAPC   H8R 8715   4.323   5.588   6.921 -0.0901  0.9306 -0.4213
   91SAPC   C29 8716   4.149   5.555   6.803 -0.4823 -0.1862  0.1005
   91SAPC   H9R 8717   4.092   5.543   6.897  1.0718 -1.5867  0.9148
   91SAPC  C210 8718   4.077   5.537   6.666 -0.3339  0.6928 -0.1484
   91SAPC  H10R 8719   4.144   5.569   6.583  1.4082 -2.1617  0.0668
   91SAPC  H10S 8720   3.987   5.602   6.652 -1.2931 -0.7060 -0.7404
   91SAPC  C211 8721   4.059   5.387   6.621 -0.6939 -0.6593  0.4136
   91SAPC  H11R 8722   4.084   5.317   6.703 -1.2051 -0.5468  0.6669
   91SAPC  C212 8723   4.018   5.354   6.496  0.0658  0.0282 -1.0422
   91SAPC  H12R 8724   4.027   5.246   6.475  0.3475 -0.1698  0.0187
   91SAPC  C213 8725   3.977   5.451   6.390  0.1175  0.0479 -0.2433
   91SAPC  H13R 8726   4.063   5.460   6.321  0.5307  0.0242  0.2616
   91SAPC  H13S 8727   3.953   5.549   6.437  0.5478 -0.3328  0.8172
   91SAPC  C214 8728   3.856   5.402   6.314 -0.0486 -0.0010 -0.1963
   91SAPC  H14R 8729   3.791   5.328   6.362  0.1633 -0.5730 -0.7769
   91SAPC  C215 8730   3.830   5.425   6.181 -0.2813  0.2527 -0.1201
   91SAPC  H15R 8731   3.745   5.369   6.138  0.3852 -0.5107 -0.4648
   91SAPC  C216 8732   3.922   5.498   6.084 -0.0758  0.0124 -0.3788
   91SAPC  H16R 8733   4.018   5.508   6.139 -0.0933  0.3610 -0.4070
   91SAPC  H16S 8734   3.903   5.607   6.086  2.5579  0.5673  2.3857
   91SAPC  C217 8735   3.950   5.437   5.947  0.2287 -0.2327 -0.9261
   91SAPC  H17R 8736   3.994   5.335   5.952  0.6288 -0.1130 -1.8271
   91SAPC  H17S 8737   4.036   5.497   5.909 -0.2622  2.0617  1.2922
   91SAPC  C218 8738   3.831   5.431   5.850 -0.0555  0.0350 -0.1396
   91SAPC  H18R 8739   3.791   5.534   5.841 -2.4825 -0.7789  0.4042
   91SAPC  H18S 8740   3.751   5.373   5.902  0.5493 -0.0116  0.7536
   91SAPC  C219 8741   3.872   5.381   5.712 -0.3163 -0.5893  0.1207
   91SAPC  H19R 8742   3.913   5.278   5.718  0.8376 -0.1299  0.5097
   91SAPC  H19S 8743   3.957   5.438   5.668  0.1643  1.6823  3.5877
   91SAPC  C220 8744   3.753   5.381   5.621 -0.1563 -0.5874 -0.5378
   91SAPC  H20R 8745   3.664   5.346   5.678 -0.4124 -1.4413 -1.4317
   91SAPC  H20S 8746   3.765   5.331   5.522  0.4402  0.1960 -0.8734
   91SAPC  H20T 8747   3.736   5.489   5.603 -0.7471 -0.5605  0.1106
   91SAPC   C33 8748   4.715   6.113   6.478 -0.6543  0.2015 -0.2621
   91SAPC   H3X 8749   4.820   6.083   6.456 -0.9063 -0.8338 -0.1089
   91SAPC   H3Y 8750   4.721   6.217   6.514  1.8002 -0.3359  1.0539
   91SAPC   C34 8751   4.629   6.099   6.345  0.0171 -0.2760  0.3241
   91SAPC   H4X 8752   4.526   6.107   6.385 -0.0081  0.8870  0.0682
   91SAPC   H4Y 8753   4.639   6.005   6.287  0.3781  0.3454 -0.6457
   91SAPC   C35 8754   4.657   6.206   6.240 -0.1494  0.3349 -0.3094
   91SAPC   H5X 8755   4.758   6.200   6.194 -1.1472 -1.4497 -2.4727
   91SAPC   H5Y 8756   4.641   6.307   6.283 -1.2490  0.1875 -0.3602
   91SAPC   C36 8757   4.567   6.201   6.120 -0.5129 -0.3722  0.1512
   91SAPC   H6X 8758   4.479   6.269   6.126  0.5292  1.2320 -1.7579
   91SAPC   H6Y 8759   4.535   6.095   6.106  0.9305 -0.9510  0.9629
   91SAPC   C37 8760   4.633   6.227   5.988 -0.0376  0.6363 -0.3899
   91SAPC   H7X 8761   4.719   6.157   5.980 -0.2205  0.2886  0.6034
   91SAPC   H7Y 8762   4.667   6.333   5.985  4.8307 -0.6994 -1.0923
   91SAPC   C38 8763   4.536   6.194   5.874 -0.3797 -0.4728 -0.0021
   91SAPC   H8X 8764   4.443   6.255   5.880  0.7085  1.1272  3.3303
   91SAPC   H8Y 8765   4.501   6.089   5.865  1.4513 -0.9458 -2.3221
   91SAPC   C39 8766   4.593   6.226   5.729  0.8510  0.4717  0.4094
   91SAPC   H9X 8767   4.687   6.170   5.709  0.3010  0.3840 -2.3060
   91SAPC   H9Y 8768   4.617   6.334   5.717  0.5296  0.9902  3.6850
   91SAPC  C310 8769   4.488   6.188   5.623  0.0609  0.0244  0.4701
   91SAPC  H10X 8770   4.408   6.263   5.642 -0.9765 -1.3885  2.0366
   91SAPC  H10Y 8771   4.452   6.083   5.636  1.4676 -0.5889 -0.3480
   91SAPC  C311 8772   4.536   6.208   5.475 -0.5562  0.0673  0.3309
   91SAPC  H11X 8773   4.573   6.105   5.454  0.0791  0.1684  0.8978
   91SAPC  H11Y 8774   4.611   6.288   5.462 -1.2759  0.6214 -0.5117
   91SAPC  C312 8775   4.415   6.216   5.376 -0.8470 -0.9527 -0.1149
   91SAPC  H12X 8776   4.456   6.264   5.285  1.7865 -1.0987  0.9006
   91SAPC  H12Y 8777   4.346   6.291   5.421 -0.4519 -1.0849  0.7424
   91SAPC  C313 8778   4.345   6.081   5.365  0.0807  0.0178 -0.3523
   91SAPC  H13X 8779   4.275   6.064   5.449 -1.0978  2.7857 -0.6614
   91SAPC  H13Y 8780   4.427   6.007   5.369 -0.1845 -0.2475  0.3589
   91SAPC  C314 8781   4.280   6.049   5.231 -0.2518 -0.7243 -0.6844
   91SAPC  H14X 8782   4.354   6.072   5.152 -0.2137  1.2357 -0.1309
   91SAPC  H14Y 8783   4.202   6.127   5.216  0.5055 -0.1187 -1.5457
   91SAPC  C315 8784   4.220   5.909   5.230 -0.7138 -0.0060 -0.0071
   91SAPC  H15X 8785   4.223   5.862   5.331  1.5822 -0.9527 -0.4428
   91SAPC  H15Y 8786   4.279   5.842   5.163 -0.7794  0.4688 -0.5463
   91SAPC  C316 8787   4.076   5.901   5.191  0.1968  0.0354 -0.5738
   91SAPC  H16X 8788   4.003   5.962   5.249  0.6869  0.1436 -0.0648
   91SAPC  H16Y 8789   4.044   5.796   5.210  1.0204  0.1078  1.5106
   91SAPC  C317 8790   4.040   5.940   5.044  0.1004  0.7448 -0.4103
   91SAPC  H17X 8791   4.126   5.924   4.975 -0.4054  0.6999 -1.0423
   91SAPC  H17Y 8792   4.025   6.049   5.057 -0.5054  0.4219  2.1079
   91SAPC  C318 8793   3.914   5.871   5.000  0.4143 -0.4582 -0.2407
   91SAPC  H18X 8794   3.871   5.928   4.916  1.0314  3.7405  2.0029
   91SAPC  H18Y 8795   3.833   5.877   5.076  1.9974  1.4023  1.4191
   91SAPC  H18Z 8796   3.933   5.771   4.955 -0.8476 -1.4907  1.3849
   92SAPC     N 8797   3.234   4.583   7.409 -0.5639 -0.6237 -0.0387
   92SAPC   C12 8798   3.260   4.605   7.261 -0.5379  0.1986  0.2583
   92SAPC  H12A 8799   3.173   4.653   7.220 -1.3601 -2.0282 -0.8028
   92SAPC  H12B 8800   3.268   4.515   7.201 -0.9991  1.8848 -2.5458
   92SAPC   C13 8801   3.149   4.465   7.433  0.6085 -0.3370 -0.3214
   92SAPC  H13A 8802   3.097   4.450   7.526 -1.5097 -0.0319 -1.3918
   92SAPC  H13B 8803   3.065   4.461   7.365 -1.5242 -1.3564  2.2135
   92SAPC  H13C 8804   3.206   4.374   7.419  0.0817 -0.8982  1.0184
   92SAPC   C14 8805   3.357   4.553   7.485 -0.5561  0.3185 -0.0216
   92SAPC  H14A 8806   3.412   4.477   7.432  1.5077  2.2257 -0.7496
   92SAPC  H14B 8807   3.405   4.649   7.496 -1.8658  0.8496  1.3200
   92SAPC  H14C 8808   3.322   4.520   7.582  0.8584 -1.9069 -0.2059
   92SAPC   C15 8809   3.170   4.704   7.464 -0.0612  0.7357  0.0057
   92SAPC  H15A 8810   3.073   4.715   7.417 -1.5834 -0.2172  2.7056
   92SAPC  H15B 8811   3.140   4.691   7.567  0.7750 -0.0127  0.1593
   92SAPC  H15C 8812   3.233   4.792   7.458 -2.2921  2.3285 -2.9023
   92SAPC   C11 8813   3.388   4.691   7.225 -0.4948  0.0616  0.0102
   92SAPC  H11A 8814   3.400   4.682   7.115  0.3139  1.3896 -0.0437
   92SAPC  H11B 8815   3.475   4.632   7.262 -0.3745  0.5332  0.4926
   92SAPC     P 8816   3.322   4.941   7.182  0.3440  0.5794 -0.2808
   92SAPC   O13 8817   3.177   4.911   7.179  0.1179  0.4274 -0.0286
   92SAPC   O14 8818   3.368   5.072   7.230 -0.0637 -0.1742 -0.0721
   92SAPC   O12 8819   3.390   4.824   7.264  0.3474  0.5440  0.0925
   92SAPC   O11 8820   3.398   4.925   7.039  0.0551  0.3555 -0.9888
   92SAPC    C1 8821   3.541   4.929   7.034 -0.5357 -0.1556  0.4995
   92SAPC    HA 8822   3.592   4.931   7.133 -0.1241 -1.8626  0.3570
   92SAPC    HB 8823   3.575   4.839   6.978 -0.8256 -0.0480  0.1514
   92SAPC    C2 8824   3.598   5.045   6.942 -0.7563  0.5447 -0.6386
   92SAPC    HS 8825   3.554   5.137   6.988  1.4108  0.5975  1.4692
   92SAPC   O21 8826   3.570   5.028   6.804 -0.0939 -0.2034 -0.2996
   92SAPC   C21 8827   3.592   5.138   6.732 -0.2885  0.1779  0.6556
   92SAPC   O22 8828   3.630   5.247   6.776  0.5269  0.3259  0.1776
   92SAPC   C22 8829   3.561   5.115   6.584 -0.0364 -0.6928  0.1749
   92SAPC   H2R 8830   3.645   5.069   6.529 -1.2331 -1.0930 -1.3896
   92SAPC   H2S 8831   3.475   5.045   6.576  0.4374 -1.2214 -0.4071
   92SAPC    C3 8832   3.755   5.054   6.972 -0.3909 -0.6087  0.1534
   92SAPC    HX 8833   3.764   5.039   7.082  1.5750  0.4518  0.1736
   92SAPC    HY 8834   3.795   5.157   6.959 -3.1054  0.6040  0.5852
   92SAPC   O31 8835   3.827   4.951   6.910  0.2265 -0.2520 -1.0563
   92SAPC   C31 8836   3.931   4.980   6.831  0.6105  0.0435 -0.0104
   92SAPC   O32 8837   3.956   5.092   6.791 -0.7877  0.4759 -0.1623
   92SAPC   C32 8838   4.023   4.863   6.825 -0.1975  0.3983  0.7193
   92SAPC   H2X 8839   3.963   4.774   6.798 -0.4080  0.3418  1.3534
   92SAPC   H2Y 8840   4.067   4.856   6.927  0.2546  1.2609  0.5968
   92SAPC   C23 8841   3.527   5.247   6.509  0.2572  0.6854 -0.2635
   92SAPC   H3R 8842   3.606   5.323   6.529 -1.0991  2.0336  0.1214
   92SAPC   H3S 8843   3.430   5.287   6.546 -0.0889  2.3574 -2.7099
   92SAPC   C24 8844   3.508   5.214   6.357  0.1479  0.3401  0.2500
   92SAPC   H4R 8845   3.430   5.136   6.346  0.5678  0.0655 -0.8729
   92SAPC   H4S 8846   3.609   5.175   6.332  1.1648  1.8295  1.7636
   92SAPC   C25 8847   3.475   5.334   6.261 -0.0762  0.7906  0.0553
   92SAPC   H5R 8848   3.507   5.434   6.296  0.2215  0.2617  1.3671
   92SAPC   C26 8849   3.407   5.327   6.141 -0.4683 -0.4895 -0.8993
   92SAPC   H6R 8850   3.399   5.421   6.083 -0.9350  0.2725  0.3569
   92SAPC   C27 8851   3.361   5.209   6.059 -0.4927 -0.5158  0.0411
   92SAPC   H7R 8852   3.361   5.114   6.116 -1.7075 -0.5226  0.0692
   92SAPC   H7S 8853   3.429   5.200   5.972  1.4577  2.4966  1.1051
   92SAPC   C28 8854   3.229   5.230   5.998  0.4020  0.3311  0.0694
   92SAPC   H8R 8855   3.244   5.274   5.898 -2.1670  1.0323 -0.0616
   92SAPC   C29 8856   3.104   5.205   6.049  0.4414  0.1323  0.8287
   92SAPC   H9R 8857   3.015   5.229   5.989  0.4100 -1.8432  0.0124
   92SAPC  C210 8858   3.078   5.130   6.179 -0.6959 -0.0190 -0.1679
   92SAPC  H10R 8859   2.971   5.144   6.205 -0.7134 -0.1653 -0.1590
   92SAPC  H10S 8860   3.118   5.209   6.246 -0.5429  0.8381 -1.2329
   92SAPC  C211 8861   3.121   4.991   6.212  0.0512 -0.1371  0.3873
   92SAPC  H11R 8862   3.216   4.973   6.265  0.6121  0.7397 -0.2879
   92SAPC  C212 8863   3.035   4.886   6.189 -0.0950  0.7950  0.9030
   92SAPC  H12R 8864   3.061   4.784   6.223 -0.3964  0.3690 -0.1042
   92SAPC  C213 8865   2.896   4.897   6.123 -0.0275  0.3966 -0.6910
   92SAPC  H13R 8866   2.912   4.970   6.041  2.1737 -1.2163 -1.8026
   92SAPC  H13S 8867   2.831   4.945   6.199  0.7202  1.5960 -0.7845
   92SAPC  C214 8868   2.842   4.765   6.068 -0.3776  0.1858 -0.6707
   92SAPC  H14R 8869   2.916   4.683   6.067 -0.9138 -0.3041 -1.1076
   92SAPC  C215 8870   2.717   4.739   6.032  0.5870  0.0775  0.6945
   92SAPC  H15R 8871   2.702   4.642   5.982  1.8532  0.6111 -0.7848
   92SAPC  C216 8872   2.611   4.849   6.020  0.2088  0.1831 -0.6666
   92SAPC  H16R 8873   2.570   4.866   5.918 -1.2381  0.4286 -0.0748
   92SAPC  H16S 8874   2.645   4.952   6.044  0.1589  0.0364  0.0587
   92SAPC  C217 8875   2.490   4.840   6.115 -0.9298 -0.5743 -0.2665
   92SAPC  H17R 8876   2.449   4.738   6.099  0.5677 -1.1086 -0.9074
   92SAPC  H17S 8877   2.412   4.917   6.098 -2.0289 -0.9704  2.4303
   92SAPC  C218 8878   2.525   4.851   6.264  0.5054 -0.2470 -0.2810
   92SAPC  H18R 8879   2.566   4.954   6.267  0.8229 -0.3786 -0.1222
   92SAPC  H18S 8880   2.601   4.774   6.289 -1.9380 -2.8519 -0.3072
   92SAPC  C219 8881   2.410   4.839   6.367  0.1194  0.2311  0.9780
   92SAPC  H19R 8882   2.383   4.731   6.359  3.1011 -0.5438 -0.1711
   92SAPC  H19S 8883   2.330   4.911   6.336  1.4245  1.2166 -0.2460
   92SAPC  C220 8884   2.440   4.888   6.507 -0.4384 -0.9740  0.2153
   92SAPC  H20R 8885   2.469   4.995   6.507 -0.2098 -1.0355  0.5929
   92SAPC  H20S 8886   2.519   4.826   6.555  0.7741  1.5237  1.6515
   92SAPC  H20T 8887   2.347   4.886   6.569  0.0560  2.5431  1.2576
   92SAPC   C33 8888   4.134   4.875   6.720 -0.0144 -0.7304 -0.8310
   92SAPC   H3X 8889   4.205   4.789   6.718  0.7930 -0.0769 -1.5447
   92SAPC   H3Y 8890   4.198   4.964   6.740 -3.0725  0.8358  3.2843
   92SAPC   C34 8891   4.089   4.900   6.576  0.0922  0.1798  0.3921
   92SAPC   H4X 8892   4.178   4.892   6.510 -0.4691 -1.3362 -0.2151
   92SAPC   H4Y 8893   4.047   5.003   6.571  2.7654  1.3073 -2.4838
   92SAPC   C35 8894   3.981   4.799   6.523 -0.3655 -0.0839 -0.7025
   92SAPC   H5X 8895   3.895   4.804   6.594  0.3843  0.3577  0.1989
   92SAPC   H5Y 8896   4.029   4.699   6.533 -2.7946 -1.5675 -2.6341
   92SAPC   C36 8897   3.931   4.824   6.380  0.8211 -0.0361  0.4640
   92SAPC   H6X 8898   3.843   4.757   6.369  2.1721 -1.6284 -1.2388
   92SAPC   H6Y 8899   4.005   4.787   6.307 -0.8432 -1.3023 -0.6551
   92SAPC   C37 8900   3.887   4.966   6.338  0.1019 -0.0885  0.1773
   92SAPC   H7X 8901   3.978   5.030   6.348  0.0670  0.1716 -1.1059
   92SAPC   H7Y 8902   3.806   5.012   6.400 -0.0129 -0.7430  0.5211
   92SAPC   C38 8903   3.837   4.970   6.193 -0.2634 -0.2051  0.1285
   92SAPC   H8X 8904   3.787   5.067   6.175 -0.2323 -0.3233 -0.6206
   92SAPC   H8Y 8905   3.754   4.900   6.170 -1.7796  0.9252  1.8979
   92SAPC   C39 8906   3.952   4.955   6.101 -0.7114  0.2760  0.6312
   92SAPC   H9X 8907   3.988   4.852   6.119 -0.0655  0.3173 -0.3294
   92SAPC   H9Y 8908   4.028   5.027   6.136 -1.7046  1.4520  0.4606
   92SAPC  C310 8909   3.912   4.996   5.953 -0.0826 -0.7600  0.0431
   92SAPC  H10X 8910   4.014   4.976   5.915 -0.0867  0.9330 -0.9749
   92SAPC  H10Y 8911   3.873   5.100   5.952 -2.8903 -1.7295 -1.1103
   92SAPC  C311 8912   3.817   4.890   5.896 -0.4344 -0.4479 -0.1287
   92SAPC  H11X 8913   3.734   4.862   5.964 -1.9199 -0.0529 -1.7116
   92SAPC  H11Y 8914   3.870   4.796   5.870  0.6121  0.4629 -1.4426
   92SAPC  C312 8915   3.755   4.939   5.761 -0.7168  0.5381 -0.3285
   92SAPC  H12X 8916   3.835   4.984   5.697  1.2750 -0.6538  1.1983
   92SAPC  H12Y 8917   3.677   5.014   5.786 -1.0831  0.5158 -1.3776
   92SAPC  C313 8918   3.684   4.820   5.690 -0.0499  0.0418 -0.2401
   92SAPC  H13X 8919   3.615   4.772   5.763 -0.9359  0.9843 -0.4350
   92SAPC  H13Y 8920   3.766   4.746   5.673  0.1193  0.4804 -1.4091
   92SAPC  C314 8921   3.619   4.865   5.558 -1.3362  0.6977 -0.2486
   92SAPC  H14X 8922   3.544   4.944   5.584 -0.6173  1.3693 -0.1753
   92SAPC  H14Y 8923   3.561   4.775   5.528  1.1110 -0.7229 -1.0147
   92SAPC  C315 8924   3.725   4.912   5.457  0.0235 -0.9174  0.8452
   92SAPC  H15X 8925   3.806   4.835   5.449 -0.9656 -1.9604  0.5238
   92SAPC  H15Y 8926   3.768   5.008   5.492 -1.1116  0.4366 -1.2510
   92SAPC  C316 8927   3.658   4.942   5.325 -0.3111  0.4962 -0.1417
   92SAPC  H16X 8928   3.579   5.018   5.341 -0.5830  0.3998 -0.9756
   92SAPC  H16Y 8929   3.610   4.850   5.283  1.6609 -0.9447  0.5842
   92SAPC  C317 8930   3.762   4.996   5.228 -0.8634 -0.8569 -0.4190
   92SAPC  H17X 8931   3.844   4.923   5.212 -1.4664 -1.8953  1.0564
   92SAPC  H17Y 8932   3.796   5.095   5.266 -1.2924  0.2542 -2.7281
   92SAPC  C318 8933   3.692   5.027   5.096  0.4590 -0.3375  0.2612
   92SAPC  H18X 8934   3.650   4.927   5.071 -0.2527 -0.3389  1.3920
   92SAPC  H18Y 8935   3.762   5.056   5.015 -0.8493 -1.0637 -1.1783
   92SAPC  H18Z 8936   3.608   5.100   5.096  0.6738 -0.0615 -0.9506
   93SAPC     N 8937   4.668   2.142   7.397 -0.1247  0.3326  0.0185
   93SAPC   C12 8938   4.577   2.056   7.314  0.8814 -0.1719  0.0943
   93SAPC  H12A 8939   4.506   1.997   7.370 -0.2065  1.7902  0.9002
   93SAPC  H12B 8940   4.632   1.981   7.259 -2.1989 -0.8894 -2.3199
   93SAPC   C13 8941   4.764   2.221   7.311 -0.5101  0.3986  0.1166
   93SAPC  H13A 8942   4.823   2.159   7.245  1.6412  1.9302  0.4810
   93SAPC  H13B 8943   4.717   2.304   7.261 -0.5117  1.0429  1.1498
   93SAPC  H13C 8944   4.846   2.259   7.372  2.0182 -2.9264 -0.9099
   93SAPC   C14 8945   4.595   2.240   7.477  0.6485  0.3011  0.2011
   93SAPC  H14A 8946   4.520   2.294   7.421 -2.3572 -1.8846  1.8843
   93SAPC  H14B 8947   4.531   2.186   7.544 -0.4860 -1.3776 -2.0987
   93SAPC  H14C 8948   4.662   2.312   7.523  0.6809  1.7410 -1.9280
   93SAPC   C15 8949   4.729   2.051   7.504  0.8293  0.1483  0.8334
   93SAPC  H15A 8950   4.643   2.013   7.557 -0.1761  1.3954  0.1476
   93SAPC  H15B 8951   4.790   1.976   7.456 -0.6340  0.7407 -2.1461
   93SAPC  H15C 8952   4.776   2.120   7.572  1.4141  2.9866 -2.2090
   93SAPC   C11 8953   4.483   2.130   7.207  0.1929 -0.7942  0.9938
   93SAPC  H11A 8954   4.410   2.052   7.177  1.2469 -0.7255 -2.0793
   93SAPC  H11B 8955   4.538   2.148   7.113 -1.1637 -3.5155 -0.4452
   93SAPC     P 8956   4.354   2.351   7.163  0.1436 -0.1434 -0.6768
   93SAPC   O13 8957   4.211   2.348   7.190 -0.5128  0.1561 -0.2478
   93SAPC   O14 8958   4.421   2.483   7.183  0.1257  0.9092  1.0730
   93SAPC   O12 8959   4.433   2.251   7.262 -0.3536  0.6796  0.0098
   93SAPC   O11 8960   4.376   2.289   7.023  0.1923 -0.4010  0.1839
   93SAPC    C1 8961   4.276   2.205   6.961  0.0463 -0.2773 -1.1072
   93SAPC    HA 8962   4.253   2.112   7.016  1.8978 -0.2425 -0.1967
   93SAPC    HB 8963   4.177   2.254   6.955 -0.1788 -0.7810 -1.5253
   93SAPC    C2 8964   4.318   2.175   6.817 -0.0375  0.5013  1.2554
   93SAPC    HS 8965   4.247   2.098   6.779  0.4100  0.1265  1.1540
   93SAPC   O21 8966   4.444   2.109   6.807 -0.4671  0.3017 -0.3876
   93SAPC   C21 8967   4.454   1.982   6.850 -0.6017 -0.3967 -0.3524
   93SAPC   O22 8968   4.358   1.903   6.869 -0.1028 -0.5463  0.3207
   93SAPC   C22 8969   4.592   1.953   6.889  0.4465  0.4643  0.0162
   93SAPC   H2R 8970   4.635   2.045   6.936 -0.3304  0.0866  1.5450
   93SAPC   H2S 8971   4.602   1.873   6.965 -0.6636  0.1656 -0.1366
   93SAPC    C3 8972   4.337   2.301   6.729 -0.2438  0.3597  0.1022
   93SAPC    HX 8973   4.407   2.362   6.792  1.5576  0.3863 -1.8230
   93SAPC    HY 8974   4.244   2.360   6.718  0.6039  1.7103 -0.0490
   93SAPC   O31 8975   4.415   2.285   6.605  0.4303 -0.0755  0.0612
   93SAPC   C31 8976   4.353   2.235   6.508  0.4617  0.4246  0.4381
   93SAPC   O32 8977   4.235   2.209   6.512  0.4532 -0.4948 -0.2030
   93SAPC   C32 8978   4.451   2.197   6.402 -0.3886 -0.2633 -0.3448
   93SAPC   H2X 8979   4.481   2.092   6.423  1.1625  0.2237 -0.0296
   93SAPC   H2Y 8980   4.542   2.258   6.422 -0.7403 -0.6322  2.9595
   93SAPC   C23 8981   4.667   1.915   6.761  0.5990 -0.4711  0.3979
   93SAPC   H3R 8982   4.774   1.894   6.777  0.9506  1.6209  1.1647
   93SAPC   H3S 8983   4.661   2.003   6.693 -0.0524 -0.5225  0.3800
   93SAPC   C24 8984   4.609   1.789   6.674 -0.0213  0.2749  0.4152
   93SAPC   H4R 8985   4.557   1.728   6.751  0.6740  0.4140  1.0064
   93SAPC   H4S 8986   4.697   1.730   6.640  0.3593  0.8064  0.4674
   93SAPC   C25 8987   4.517   1.813   6.552  0.2383  0.6481  0.0023
   93SAPC   H5R 8988   4.414   1.836   6.581 -0.4237 -0.8033 -1.0827
   93SAPC   C26 8989   4.542   1.790   6.419 -0.5368  0.0649 -0.2636
   93SAPC   H6R 8990   4.469   1.821   6.343  0.1587  0.9828 -0.5714
   93SAPC   C27 8991   4.680   1.755   6.360 -0.1931  0.6033 -0.3744
   93SAPC   H7R 8992   4.757   1.779   6.436 -0.2775 -2.0198  0.6552
   93SAPC   H7S 8993   4.703   1.812   6.267 -0.6628 -0.4015 -1.1315
   93SAPC   C28 8994   4.690   1.605   6.326 -0.6505  0.3313  0.2581
   93SAPC   H8R 8995   4.771   1.546   6.370  0.3355  0.7970 -0.8730
   93SAPC   C29 8996   4.616   1.550   6.229  0.5532  0.7382  0.3589
   93SAPC   H9R 8997   4.638   1.446   6.202  1.8710  1.4160 -1.3283
   93SAPC  C210 8998   4.503   1.606   6.147 -0.2488 -0.9531  0.0177
   93SAPC  H10R 8999   4.523   1.715   6.144  3.3040 -1.5143 -0.9330
   93SAPC  H10S 9000   4.406   1.579   6.194  0.4709 -1.5120  1.2171
   93SAPC  C211 9001   4.528   1.543   6.012  0.4895  0.3305 -0.0499
   93SAPC  H11R 9002   4.624   1.557   5.959  0.8296 -0.3367  0.3647
   93SAPC  C212 9003   4.427   1.485   5.945  0.0874 -0.0449  0.8963
   93SAPC  H12R 9004   4.448   1.443   5.846 -0.0352  1.1548  0.3489
   93SAPC  C213 9005   4.280   1.470   5.986 -0.1920  0.3380 -0.0331
   93SAPC  H13R 9006   4.219   1.556   5.952 -0.4220  0.5078  0.8018
   93SAPC  H13S 9007   4.275   1.466   6.097  0.9895 -2.0122  0.0160
   93SAPC  C214 9008   4.212   1.336   5.942 -0.3048 -0.3930  0.1186
   93SAPC  H14R 9009   4.263   1.240   5.963 -0.3262 -0.6807 -1.0648
   93SAPC  C215 9010   4.098   1.314   5.868  0.0847 -0.5772  0.0428
   93SAPC  H15R 9011   4.056   1.212   5.871  1.7060 -1.2713  2.7438
   93SAPC  C216 9012   3.998   1.421   5.823  0.1053  0.4694  0.5522
   93SAPC  H16R 9013   4.055   1.501   5.769 -0.7763  1.4364  1.0242
   93SAPC  H16S 9014   3.953   1.472   5.911 -0.3224  1.2531 -0.0997
   93SAPC  C217 9015   3.884   1.364   5.726 -0.4392  0.5695 -0.1676
   93SAPC  H17R 9016   3.926   1.318   5.634 -1.0618  0.2706 -0.3062
   93SAPC  H17S 9017   3.815   1.444   5.691 -0.5979  1.6660  2.4511
   93SAPC  C218 9018   3.781   1.282   5.803  0.9579  0.0719  0.0921
   93SAPC  H18R 9019   3.733   1.347   5.879 -0.0778  0.3996 -0.8218
   93SAPC  H18S 9020   3.827   1.197   5.859  0.1845 -0.6100 -0.2858
   93SAPC  C219 9021   3.666   1.219   5.726 -0.0522 -0.1375  0.0914
   93SAPC  H19R 9022   3.614   1.299   5.669  0.9457  0.4733  0.0194
   93SAPC  H19S 9023   3.604   1.175   5.807  1.6926 -1.8277  0.5973
   93SAPC  C220 9024   3.714   1.107   5.632 -0.6190  0.2377 -0.6796
   93SAPC  H20R 9025   3.751   1.029   5.703 -2.4094 -0.0099  0.0291
   93SAPC  H20S 9026   3.792   1.134   5.557  0.0569 -0.2462 -0.1741
   93SAPC  H20T 9027   3.637   1.044   5.583 -0.6877 -0.5455  0.3886
   93SAPC   C33 9028   4.391   2.219   6.266  0.2262  0.1772  0.2483
   93SAPC   H3X 9029   4.332   2.313   6.261  2.1848  1.7143  3.0186
   93SAPC   H3Y 9030   4.323   2.134   6.245  2.2533 -1.3691 -0.4437
   93SAPC   C34 9031   4.495   2.222   6.153  0.5595  0.7558 -0.3608
   93SAPC   H4X 9032   4.553   2.127   6.150 -0.4697  0.1286 -0.9325
   93SAPC   H4Y 9033   4.583   2.288   6.166  1.0361 -0.0550  0.7410
   93SAPC   C35 9034   4.429   2.258   6.025 -0.4488  0.6988  0.0044
   93SAPC   H5X 9035   4.392   2.360   6.051 -0.8965 -0.0657  2.7048
   93SAPC   H5Y 9036   4.350   2.185   5.998  0.1666  0.1871 -0.4493
   93SAPC   C36 9037   4.528   2.271   5.907  0.9091 -0.4317  0.3914
   93SAPC   H6X 9038   4.590   2.362   5.925 -0.2670  0.4913 -0.0779
   93SAPC   H6Y 9039   4.461   2.301   5.824 -1.7869  0.3656  2.6794
   93SAPC   C37 9040   4.621   2.154   5.872 -0.2776 -0.2211  0.7316
   93SAPC   H7X 9041   4.678   2.118   5.960 -0.1976 -0.1681  0.7020
   93SAPC   H7Y 9042   4.699   2.169   5.795  0.7006 -2.2698  1.2627
   93SAPC   C38 9043   4.535   2.045   5.828 -0.2602 -0.1105  0.8440
   93SAPC   H8X 9044   4.488   2.080   5.733  0.0534 -0.3742  0.5894
   93SAPC   H8Y 9045   4.452   2.015   5.895 -1.5179 -2.6897 -1.6386
   93SAPC   C39 9046   4.612   1.910   5.796  0.5123  0.7473 -0.5052
   93SAPC   H9X 9047   4.667   1.869   5.885  0.7075  3.5939  0.7967
   93SAPC   H9Y 9048   4.685   1.944   5.720  1.2948 -0.2898 -0.2496
   93SAPC  C310 9049   4.522   1.805   5.743  0.3287  0.5536 -0.0737
   93SAPC  H10X 9050   4.464   1.861   5.667  0.3472  1.3610  0.5005
   93SAPC  H10Y 9051   4.464   1.749   5.819  1.2578  0.4167  0.5558
   93SAPC  C311 9052   4.584   1.692   5.659 -0.6000 -0.3909 -0.4196
   93SAPC  H11X 9053   4.641   1.617   5.718 -2.7415 -2.4201 -0.7717
   93SAPC  H11Y 9054   4.650   1.737   5.581 -0.9400 -1.6722 -1.4918
   93SAPC  C312 9055   4.466   1.613   5.595 -0.5611  0.3872  0.8388
   93SAPC  H12X 9056   4.406   1.672   5.523  0.6997  1.1086  0.3504
   93SAPC  H12Y 9057   4.397   1.574   5.673 -1.1178 -2.0198 -0.7268
   93SAPC  C313 9058   4.520   1.494   5.511 -0.3594  0.5144  0.5190
   93SAPC  H13X 9059   4.589   1.440   5.579 -1.1620  0.2913  1.1644
   93SAPC  H13Y 9060   4.586   1.529   5.428  0.4672 -1.9295  0.0781
   93SAPC  C314 9061   4.410   1.402   5.451 -0.3769 -0.1802  0.1261
   93SAPC  H14X 9062   4.455   1.354   5.361 -1.4307  1.3524 -1.2848
   93SAPC  H14Y 9063   4.326   1.465   5.413 -0.3456  0.4829  1.1155
   93SAPC  C315 9064   4.339   1.302   5.548 -0.1405 -0.4560 -0.1370
   93SAPC  H15X 9065   4.287   1.350   5.633  1.1010  1.5470 -0.4485
   93SAPC  H15Y 9066   4.409   1.229   5.596 -0.4429  0.6097  2.0519
   93SAPC  C316 9067   4.228   1.237   5.466 -0.1875  0.1977 -0.2868
   93SAPC  H16X 9068   4.276   1.190   5.377  2.1919  3.3542 -0.8400
   93SAPC  H16Y 9069   4.158   1.314   5.427 -1.8796 -0.7285  0.8042
   93SAPC  C317 9070   4.158   1.123   5.546 -0.0226 -0.1069  0.6501
   93SAPC  H17X 9071   4.113   1.157   5.642 -2.3100  0.6088 -0.5893
   93SAPC  H17Y 9072   4.243   1.055   5.567 -1.5682 -1.6269  2.4566
   93SAPC  C318 9073   4.049   1.035   5.473 -0.6555 -0.5432  0.4830
   93SAPC  H18X 9074   4.026   0.948   5.538  1.4066 -2.2494 -0.9424
   93SAPC  H18Y 9075   4.095   0.996   5.380 -0.8834  0.2941  0.0058
   93SAPC  H18Z 9076   3.963   1.100   5.447 -0.6763 -0.3754  0.9620
   94SAPC     N 9077   6.403   6.580   7.254 -0.7959  0.4561  0.1197
   94SAPC   C12 9078   6.412   6.464   7.144  0.4155  0.2738 -0.7413
   94SAPC  H12A 9079   6.506   6.416   7.165 -0.5838 -0.1365  3.9088
   94SAPC  H12B 9080   6.409   6.501   7.042 -1.7666  3.1146  0.2176
   94SAPC   C13 9081   6.266   6.634   7.270 -0.4344 -0.2119  0.8354
   94SAPC  H13A 9082   6.227   6.678   7.179 -1.1563 -0.3175  1.0891
   94SAPC  H13B 9083   6.203   6.548   7.287  1.0746 -1.4317  0.5780
   94SAPC  H13C 9084   6.258   6.702   7.353  0.6845 -0.4960  1.1935
   94SAPC   C14 9085   6.448   6.518   7.382  0.5149  0.4660 -0.1963
   94SAPC  H14A 9086   6.456   6.593   7.460  1.4514  0.6394 -0.4523
   94SAPC  H14B 9087   6.380   6.439   7.411 -1.4909  2.1759  0.0139
   94SAPC  H14C 9088   6.544   6.470   7.370  1.5592  2.9088 -2.2700
   94SAPC   C15 9089   6.499   6.690   7.231 -0.0998 -0.1427 -0.0799
   94SAPC  H15A 9090   6.511   6.745   7.324 -2.0416 -1.9467  1.3392
   94SAPC  H15B 9091   6.596   6.650   7.208 -0.1759 -1.3781  1.5607
   94SAPC  H15C 9092   6.460   6.751   7.152  0.3783  0.1583 -0.0871
   94SAPC   C11 9093   6.300   6.357   7.148  0.1698  0.8703  1.2021
   94SAPC  H11A 9094   6.306   6.298   7.054  0.6705  3.5876 -0.5560
   94SAPC  H11B 9095   6.199   6.403   7.146 -0.4132 -0.3325  1.5866
   94SAPC     P 9096   6.419   6.161   7.279 -0.2175  0.2327  0.1321
   94SAPC   O13 9097   6.553   6.210   7.232  0.0806 -0.6472 -0.0817
   94SAPC   O14 9098   6.404   6.107   7.415 -0.1295  0.6809 -0.5499
   94SAPC   O12 9099   6.312   6.281   7.266 -0.3883 -0.4313  0.3130
   94SAPC   O11 9100   6.380   6.050   7.175 -0.1637 -0.1699 -0.0084
   94SAPC    C1 9101   6.480   5.952   7.150  0.7399 -0.3238 -0.4136
   94SAPC    HA 9102   6.582   5.996   7.141  0.6169  0.0315 -0.1129
   94SAPC    HB 9103   6.493   5.885   7.238 -0.7899 -1.7227 -1.1849
   94SAPC    C2 9104   6.439   5.853   7.039  0.1019 -0.6611 -0.1205
   94SAPC    HS 9105   6.492   5.758   7.062  0.9804 -0.3064 -0.6032
   94SAPC   O21 9106   6.493   5.903   6.914  0.0434  0.1647  0.3384
   94SAPC   C21 9107   6.490   5.816   6.815  0.5827  0.2652  0.2408
   94SAPC   O22 9108   6.473   5.695   6.828  0.2482 -0.1700 -0.0330
   94SAPC   C22 9109   6.506   5.895   6.679 -0.0273  0.0700  1.3450
   94SAPC   H2R 9110   6.430   5.975   6.665  1.8013  1.5619 -0.8429
   94SAPC   H2S 9111   6.606   5.944   6.679 -0.2543  0.5661  0.2183
   94SAPC    C3 9112   6.285   5.826   7.037 -0.1740 -0.5549 -0.3176
   94SAPC    HX 9113   6.246   5.815   7.140 -1.0746  0.5104 -0.5252
   94SAPC    HY 9114   6.267   5.736   6.974 -2.9556 -1.7835  2.0321
   94SAPC   O31 9115   6.222   5.939   6.966  0.0633 -0.2816 -0.0434
   94SAPC   C31 9116   6.115   5.991   7.024  0.1396 -0.5752  0.3752
   94SAPC   O32 9117   6.062   5.953   7.127  0.3881 -0.0582  0.6567
   94SAPC   C32 9118   6.059   6.108   6.943 -0.2933 -0.0217  0.3741
   94SAPC   H2X 9119   6.143   6.142   6.878 -1.8969 -0.7320 -2.2310
   94SAPC   H2Y 9120   6.038   6.189   7.016  0.9329  0.3228  0.3660
   94SAPC   C23 9121   6.506   5.805   6.546  0.8334 -0.4138  0.3326
   94SAPC   H3R 9122   6.581   5.724   6.538  1.8923  0.5388  0.3942
   94SAPC   H3S 9123   6.527   5.878   6.466  1.4638  0.8734  1.6305
   94SAPC   C24 9124   6.368   5.742   6.500 -0.0242  0.4647 -0.9547
   94SAPC   H4R 9125   6.347   5.663   6.576 -0.8013  0.6936 -0.9232
   94SAPC   H4S 9126   6.387   5.699   6.400  1.1050  2.7822 -1.8046
   94SAPC   C25 9127   6.253   5.832   6.496 -1.1266 -0.4182 -0.3182
   94SAPC   H5R 9128   6.213   5.858   6.594  1.1759 -4.0046  1.8027
   94SAPC   C26 9129   6.184   5.871   6.383 -0.5517  0.2578  0.2511
   94SAPC   H6R 9130   6.098   5.937   6.395  0.9381  2.3030  0.1883
   94SAPC   C27 9131   6.215   5.843   6.239  0.0256 -1.1038 -0.4761
   94SAPC   H7R 9132   6.177   5.741   6.217  2.3144 -2.5728  1.8246
   94SAPC   H7S 9133   6.323   5.834   6.215 -0.1488 -0.7332 -1.4293
   94SAPC   C28 9134   6.162   5.954   6.151 -0.3423 -0.6675 -0.8364
   94SAPC   H8R 9135   6.191   6.053   6.188  2.4286 -1.8021  0.3894
   94SAPC   C29 9136   6.080   5.942   6.042 -0.3267  0.2279  0.4005
   94SAPC   H9R 9137   6.060   6.036   5.988  3.3489  1.9738  1.7400
   94SAPC  C210 9138   6.038   5.799   5.986  0.0372  0.2644  0.0930
   94SAPC  H10R 9139   5.976   5.744   6.059  0.6174 -0.0040  0.3947
   94SAPC  H10S 9140   6.121   5.726   5.971 -1.8759 -2.6788  2.5832
   94SAPC  C211 9141   5.961   5.828   5.853 -0.4063  0.9376  1.1390
   94SAPC  H11R 9142   5.852   5.815   5.867 -0.3752  0.6765  1.1476
   94SAPC  C212 9143   6.014   5.848   5.727 -0.1696  0.1703 -0.5143
   94SAPC  H12R 9144   5.952   5.859   5.636  0.9562 -0.1671 -1.3407
   94SAPC  C213 9145   6.163   5.849   5.686  0.3538  0.6776  0.6855
   94SAPC  H13R 9146   6.187   5.750   5.642  0.4782  0.6736  0.7616
   94SAPC  H13S 9147   6.222   5.855   5.781  0.1920 -0.9436  0.9201
   94SAPC  C214 9148   6.217   5.963   5.597  0.1285  0.0745  0.1200
   94SAPC  H14R 9149   6.199   6.066   5.629 -1.3822  0.6438 -2.2590
   94SAPC  C215 9150   6.248   5.940   5.469 -0.6076 -0.2107  0.0751
   94SAPC  H15R 9151   6.286   6.028   5.413  2.2154 -1.6514 -0.4752
   94SAPC  C216 9152   6.242   5.815   5.395 -0.1552 -0.6063  0.4708
   94SAPC  H16R 9153   6.265   5.727   5.458  1.5038 -2.4708 -2.5341
   94SAPC  H16S 9154   6.317   5.823   5.313 -0.2014 -1.6144  0.3226
   94SAPC  C217 9155   6.109   5.781   5.336  0.2995  0.5092 -0.8323
   94SAPC  H17R 9156   6.055   5.762   5.431  0.5778 -0.2818 -0.8171
   94SAPC  H17S 9157   6.102   5.684   5.281  1.1627  0.8787 -1.6203
   94SAPC  C218 9158   6.045   5.895   5.258  0.5254 -0.8906  0.5632
   94SAPC  H18R 9159   6.131   5.941   5.204  0.2091  0.0163  0.8109
   94SAPC  H18S 9160   5.998   5.968   5.327 -0.0895  0.1671 -0.9048
   94SAPC  C219 9161   5.954   5.849   5.139  0.6920  0.6793 -0.9071
   94SAPC  H19R 9162   5.860   5.811   5.185  2.1121 -0.4178  1.2915
   94SAPC  H19S 9163   5.993   5.763   5.080  0.3904 -0.5397  0.5839
   94SAPC  C220 9164   5.929   5.961   5.035 -1.0407  0.2396 -0.3552
   94SAPC  H20R 9165   6.022   6.015   5.008 -1.8326  1.5463 -0.5545
   94SAPC  H20S 9166   5.874   6.043   5.086 -0.6312 -0.8313  1.9321
   94SAPC  H20T 9167   5.874   5.925   4.946 -0.1561 -0.9151 -0.4540
   94SAPC   C33 9168   5.938   6.068   6.849  0.0971  0.0977  0.4726
   94SAPC   H3X 9169   5.855   6.052   6.921 -0.6011  0.0967 -0.3242
   94SAPC   H3Y 9170   5.969   5.971   6.804  1.0672  0.6334 -0.0529
   94SAPC   C34 9171   5.915   6.167   6.737 -0.3680 -0.0345  0.0899
   94SAPC   H4X 9172   5.996   6.240   6.716 -1.0593  0.1460 -2.2243
   94SAPC   H4Y 9173   5.826   6.230   6.758 -0.0460 -0.1680  1.9970
   94SAPC   C35 9174   5.900   6.091   6.599 -0.1259 -0.4609 -0.2386
   94SAPC   H5X 9175   5.824   6.011   6.609  0.8958 -1.5541 -0.9709
   94SAPC   H5Y 9176   6.002   6.046   6.597 -0.0140 -0.4309  1.8980
   94SAPC   C36 9177   5.858   6.197   6.490 -0.2645  0.2568  0.2968
   94SAPC   H6X 9178   5.931   6.270   6.451  0.3515  0.0799  1.0964
   94SAPC   H6Y 9179   5.766   6.249   6.523 -1.5935 -2.4331  1.1696
   94SAPC   C37 9180   5.820   6.117   6.366 -0.0783  0.8703  0.2294
   94SAPC   H7X 9181   5.783   6.014   6.380  1.1272  0.0543 -2.0568
   94SAPC   H7Y 9182   5.916   6.097   6.312 -0.0281  2.3678 -0.2992
   94SAPC   C38 9183   5.719   6.208   6.294 -0.0367  0.1973 -1.0445
   94SAPC   H8X 9184   5.769   6.308   6.288 -0.6057  0.5176 -0.5465
   94SAPC   H8Y 9185   5.642   6.218   6.374  0.0596 -0.9316 -0.8052
   94SAPC   C39 9186   5.666   6.153   6.159  0.0095  0.3901  0.1758
   94SAPC   H9X 9187   5.630   6.051   6.186 -0.8170  0.9674  1.3206
   94SAPC   H9Y 9188   5.749   6.151   6.085 -1.5025 -1.6591 -1.6082
   94SAPC  C310 9189   5.553   6.236   6.090  0.3620  0.2980 -0.1059
   94SAPC  H10X 9190   5.590   6.340   6.082 -2.2779  1.3194  0.1288
   94SAPC  H10Y 9191   5.469   6.233   6.162  0.2382 -0.5572 -0.2750
   94SAPC  C311 9192   5.506   6.188   5.960 -0.4376 -0.3988  0.3874
   94SAPC  H11X 9193   5.396   6.199   5.945 -0.5813 -3.7505 -2.1958
   94SAPC  H11Y 9194   5.513   6.077   5.961  2.0059 -0.3401 -1.5613
   94SAPC  C312 9195   5.578   6.237   5.832 -0.4109 -1.1266 -0.0049
   94SAPC  H12X 9196   5.683   6.202   5.841  0.0457 -0.5178 -2.1700
   94SAPC  H12Y 9197   5.573   6.347   5.816 -1.0863 -0.9147  1.5462
   94SAPC  C313 9198   5.515   6.175   5.697  0.0530  0.3183 -0.0724
   94SAPC  H13X 9199   5.508   6.064   5.700  2.2479  0.1214 -0.2422
   94SAPC  H13Y 9200   5.591   6.185   5.616  2.4538  0.2427  2.0600
   94SAPC  C314 9201   5.381   6.231   5.655  0.2099  0.6003  0.7868
   94SAPC  H14X 9202   5.375   6.342   5.645  0.0209  0.4379 -1.5394
   94SAPC  H14Y 9203   5.299   6.199   5.722  1.2201 -0.1056  1.7163
   94SAPC  C315 9204   5.346   6.174   5.516  0.4226  0.1877 -0.1494
   94SAPC  H15X 9205   5.239   6.146   5.511 -0.6253  3.7175  0.1350
   94SAPC  H15Y 9206   5.404   6.082   5.493  0.9961  0.3466  0.5937
   94SAPC  C316 9207   5.381   6.271   5.409 -0.4739  0.0216  0.1560
   94SAPC  H16X 9208   5.491   6.288   5.417 -0.4420  0.4411 -0.9275
   94SAPC  H16Y 9209   5.339   6.373   5.421  0.4716  0.3948  0.4221
   94SAPC  C317 9210   5.356   6.213   5.270 -0.1765  0.2393 -0.1649
   94SAPC  H17X 9211   5.246   6.221   5.262 -0.4782 -2.3713  0.5125
   94SAPC  H17Y 9212   5.375   6.106   5.250  0.3843  0.6376 -1.9441
   94SAPC  C318 9213   5.435   6.290   5.156 -0.3603  0.1750 -0.0375
   94SAPC  H18X 9214   5.448   6.229   5.065 -2.0311 -1.5481  0.7878
   94SAPC  H18Y 9215   5.541   6.302   5.185  0.2857  0.7528 -2.4666
   94SAPC  H18Z 9216   5.400   6.394   5.141  0.1033  0.5063  1.0450
   95SAPC     N 9217   4.535   2.349   2.950  0.2255 -0.0762  0.4276
   95SAPC   C12 9218   4.618   2.464   2.895 -0.5918 -0.0771  0.1000
   95SAPC  H12A 9219   4.547   2.527   2.842 -1.6721 -0.3227  1.2095
   95SAPC  H12B 9220   4.694   2.439   2.822  0.1479 -1.8629  1.4272
   95SAPC   C13 9221   4.472   2.271   2.834  0.1351  1.0375  0.2973
   95SAPC  H13A 9222   4.406   2.193   2.869  1.8532 -1.5509 -1.8506
   95SAPC  H13B 9223   4.412   2.331   2.767  0.5564  0.1998 -0.8600
   95SAPC  H13C 9224   4.547   2.218   2.778 -0.9896  1.4314 -1.6973
   95SAPC   C14 9225   4.630   2.257   3.021 -0.1945 -0.9694  0.5203
   95SAPC  H14A 9226   4.578   2.173   3.065 -0.5732 -0.3607  1.2504
   95SAPC  H14B 9227   4.701   2.224   2.945 -1.2944  1.3990 -1.6822
   95SAPC  H14C 9228   4.688   2.304   3.098  0.9047  1.1228 -1.4558
   95SAPC   C15 9229   4.424   2.384   3.042  0.0662  0.5135 -0.6219
   95SAPC  H15A 9230   4.344   2.447   3.005 -1.2196 -1.1110 -0.7373
   95SAPC  H15B 9231   4.384   2.290   3.078 -1.0535  0.7896 -1.0997
   95SAPC  H15C 9232   4.475   2.427   3.127 -0.6327 -0.1326  0.1508
   95SAPC   C11 9233   4.699   2.551   2.992  0.3442 -0.1926 -0.3846
   95SAPC  H11A 9234   4.777   2.621   2.955  0.0162  1.5598  1.9520
   95SAPC  H11B 9235   4.757   2.479   3.053 -2.1356 -1.9395  0.0729
   95SAPC     P 9236   4.545   2.745   3.022  0.3443 -0.2018  0.3621
   95SAPC   O13 9237   4.573   2.751   2.877  0.2272  0.6958 -0.0822
   95SAPC   O14 9238   4.405   2.734   3.056  0.5836  0.0961  0.1050
   95SAPC   O12 9239   4.615   2.619   3.081  0.0384 -0.3123 -0.2830
   95SAPC   O11 9240   4.608   2.861   3.093  0.0447 -0.5606  0.4477
   95SAPC    C1 9241   4.690   2.842   3.208 -0.2459 -0.7781  0.3571
   95SAPC    HA 9242   4.785   2.786   3.194  1.0063  1.1206  0.7474
   95SAPC    HB 9243   4.725   2.942   3.242 -0.9505 -0.9624  1.6785
   95SAPC    C2 9244   4.612   2.780   3.331  0.7829 -0.1808  0.0370
   95SAPC    HS 9245   4.583   2.674   3.311 -1.3517  0.1792  0.9724
   95SAPC   O21 9246   4.494   2.861   3.348  0.3280 -0.0942  0.0322
   95SAPC   C21 9247   4.370   2.806   3.375  0.3215  0.4819  0.2760
   95SAPC   O22 9248   4.363   2.683   3.393 -0.0789 -0.4113 -0.3959
   95SAPC   C22 9249   4.257   2.907   3.376 -0.0103 -0.1524  0.3269
   95SAPC   H2R 9250   4.257   2.944   3.271  0.3417  2.5821  1.2185
   95SAPC   H2S 9251   4.164   2.848   3.393 -0.7809  1.0999  0.6348
   95SAPC    C3 9252   4.697   2.789   3.460 -0.4336  0.1823 -0.6448
   95SAPC    HX 9253   4.733   2.893   3.470  2.6841 -0.9865  2.3486
   95SAPC    HY 9254   4.793   2.734   3.458 -0.8326 -0.5392 -0.4981
   95SAPC   O31 9255   4.617   2.751   3.573 -0.0018 -0.4318  0.2822
   95SAPC   C31 9256   4.620   2.623   3.611 -0.1805 -0.2406  0.1913
   95SAPC   O32 9257   4.687   2.543   3.556 -0.2311  0.3056 -0.0436
   95SAPC   C32 9258   4.548   2.598   3.747 -0.0688  0.7406  0.2485
   95SAPC   H2X 9259   4.445   2.638   3.734 -0.3945 -0.5110 -1.4022
   95SAPC   H2Y 9260   4.588   2.664   3.827  1.4397 -0.2999  0.3787
   95SAPC   C23 9261   4.276   3.029   3.465 -0.7337 -0.3463 -0.9145
   95SAPC   H3R 9262   4.195   3.105   3.460  0.5072  1.3007  2.0376
   95SAPC   H3S 9263   4.373   3.079   3.446  0.7901 -1.6107  2.7694
   95SAPC   C24 9264   4.288   2.989   3.614 -0.4384  0.1702  0.5419
   95SAPC   H4R 9265   4.286   3.086   3.668  1.5796 -0.3188  1.5991
   95SAPC   H4S 9266   4.391   2.949   3.627 -0.4189  0.5489  1.6450
   95SAPC   C25 9267   4.191   2.900   3.677 -0.4676 -0.3287 -0.3594
   95SAPC   H5R 9268   4.186   2.800   3.632 -0.6913 -0.1181 -0.8020
   95SAPC   C26 9269   4.122   2.919   3.793 -0.3289  0.0672 -0.2513
   95SAPC   H6R 9270   4.068   2.835   3.841  1.9975 -1.2238  0.2983
   95SAPC   C27 9271   4.123   3.043   3.874  0.7114 -0.5770 -0.3188
   95SAPC   H7R 9272   4.036   3.053   3.942  1.9502  1.1428  1.1107
   95SAPC   H7S 9273   4.125   3.134   3.811  3.3990 -0.2912  0.0407
   95SAPC   C28 9274   4.246   3.054   3.960 -0.1399  0.2694 -0.8437
   95SAPC   H8R 9275   4.334   3.034   3.896 -1.2817  3.5477 -3.7112
   95SAPC   C29 9276   4.264   3.074   4.090  0.5578 -0.1067 -0.4256
   95SAPC   H9R 9277   4.369   3.058   4.118  0.7940 -0.4502 -1.4595
   95SAPC  C210 9278   4.163   3.090   4.192 -0.8622  0.0488  0.6452
   95SAPC  H10R 9279   4.067   3.124   4.146 -0.6415 -0.2804 -0.0802
   95SAPC  H10S 9280   4.194   3.165   4.268 -1.1618  0.2413  0.5824
   95SAPC  C211 9281   4.118   2.961   4.255 -0.0303  0.9300  0.2168
   95SAPC  H11R 9282   4.125   2.876   4.186 -0.3972 -0.1369  1.4498
   95SAPC  C212 9283   4.067   2.946   4.379 -0.8372 -0.3321  0.1778
   95SAPC  H12R 9284   4.040   2.846   4.417 -2.1131  0.3375  1.1082
   95SAPC  C213 9285   4.053   3.056   4.481  0.2182  0.3106  0.8155
   95SAPC  H13R 9286   3.944   3.072   4.490  0.0571  0.4597 -1.0341
   95SAPC  H13S 9287   4.098   3.151   4.446  0.7567 -0.3907 -0.4787
   95SAPC  C214 9288   4.124   3.013   4.600  0.8492 -0.1762 -0.3439
   95SAPC  H14R 9289   4.222   3.064   4.606  1.3305 -1.1194  0.0796
   95SAPC  C215 9290   4.082   2.940   4.698  0.3838  0.1340 -0.7254
   95SAPC  H15R 9291   4.160   2.913   4.771  0.4500  1.4878 -0.2814
   95SAPC  C216 9292   3.951   2.859   4.700 -0.0406 -0.8428  0.1628
   95SAPC  H16R 9293   3.968   2.753   4.729  0.7829 -0.8017 -0.1280
   95SAPC  H16S 9294   3.896   2.849   4.604 -0.3015 -1.8068  0.3974
   95SAPC  C217 9295   3.856   2.919   4.795  0.2272 -0.1435  0.4050
   95SAPC  H17R 9296   3.771   2.847   4.783 -1.7761  1.9371  1.3721
   95SAPC  H17S 9297   3.818   3.018   4.762 -0.1756 -0.2461  0.5461
   95SAPC  C218 9298   3.912   2.951   4.932  0.3528  0.3131 -0.2189
   95SAPC  H18R 9299   3.831   3.011   4.979 -0.6569 -1.7036  0.7229
   95SAPC  H18S 9300   4.005   3.011   4.917  0.7329 -0.5215 -1.2795
   95SAPC  C219 9301   3.940   2.835   5.027 -0.0687 -0.0513  0.2371
   95SAPC  H19R 9302   4.004   2.764   4.970  1.9081  1.3347  0.6501
   95SAPC  H19S 9303   3.845   2.782   5.052 -0.1524  1.0259  2.3862
   95SAPC  C220 9304   3.996   2.879   5.161 -0.0939  0.1811 -0.3622
   95SAPC  H20R 9305   3.926   2.855   5.244  0.6296  0.9250  0.4863
   95SAPC  H20S 9306   3.999   2.990   5.160  0.0917  0.1874  0.1741
   95SAPC  H20T 9307   4.101   2.847   5.178  0.6944  2.4690 -0.6757
   95SAPC   C33 9308   4.547   2.457   3.794 -0.1245 -0.6372 -0.3373
   95SAPC   H3X 9309   4.638   2.424   3.848  1.2658  0.8548 -1.7003
   95SAPC   H3Y 9310   4.534   2.391   3.705  0.2136 -3.6824  1.7100
   95SAPC   C34 9311   4.416   2.437   3.877 -0.4091 -0.0205  0.0992
   95SAPC   H4X 9312   4.393   2.331   3.897 -1.3851  0.2012  0.1852
   95SAPC   H4Y 9313   4.327   2.469   3.818 -0.2792  0.6736  0.2608
   95SAPC   C35 9314   4.434   2.514   4.011 -0.0030  0.6743  0.5424
   95SAPC   H5X 9315   4.471   2.615   3.985 -1.5825  0.7501 -1.7245
   95SAPC   H5Y 9316   4.520   2.464   4.061  0.1953 -1.0239 -1.3343
   95SAPC   C36 9317   4.297   2.512   4.080 -0.3527 -0.2517 -0.9681
   95SAPC   H6X 9318   4.283   2.407   4.113 -1.1260 -0.8112 -2.9145
   95SAPC   H6Y 9319   4.219   2.518   4.001  1.5305  0.2335 -2.9009
   95SAPC   C37 9320   4.287   2.617   4.193 -0.1934  0.2297  0.3156
   95SAPC   H7X 9321   4.182   2.625   4.229 -0.6176  0.1970 -0.8548
   95SAPC   H7Y 9322   4.323   2.710   4.144 -0.4286  0.4911  0.6380
   95SAPC   C38 9323   4.384   2.582   4.307  0.9741 -0.0886  0.0111
   95SAPC   H8X 9324   4.491   2.609   4.292  0.7637  0.3106 -0.8222
   95SAPC   H8Y 9325   4.399   2.473   4.318 -1.2072 -0.5272 -0.9003
   95SAPC   C39 9326   4.337   2.649   4.435  0.1510 -0.1871 -0.9474
   95SAPC   H9X 9327   4.234   2.613   4.456 -0.1135  1.9956  2.1563
   95SAPC   H9Y 9328   4.330   2.760   4.431 -1.4476 -0.1042  1.6221
   95SAPC  C310 9329   4.418   2.610   4.561  0.8611 -0.7895  0.0253
   95SAPC  H10X 9330   4.524   2.641   4.548  0.1537  1.2816 -1.4639
   95SAPC  H10Y 9331   4.426   2.500   4.562  3.3333 -0.7848 -2.9351
   95SAPC  C311 9332   4.371   2.677   4.686 -0.1448 -0.1230 -0.5782
   95SAPC  H11X 9333   4.271   2.636   4.711 -0.5817  0.6214 -1.0688
   95SAPC  H11Y 9334   4.354   2.785   4.669 -0.1966 -0.3261 -1.9058
   95SAPC  C312 9335   4.471   2.642   4.805 -0.1822 -0.0536 -0.5390
   95SAPC  H12X 9336   4.567   2.692   4.782  0.2801 -0.8159 -0.3026
   95SAPC  H12Y 9337   4.497   2.536   4.787 -2.1041 -0.4958 -0.9602
   95SAPC  C313 9338   4.415   2.666   4.947  0.2642  0.1222 -0.2238
   95SAPC  H13X 9339   4.313   2.624   4.955 -0.0239  0.8125 -0.1725
   95SAPC  H13Y 9340   4.396   2.774   4.969 -3.2815 -0.9333  3.0407
   95SAPC  C314 9341   4.490   2.627   5.073 -0.2650  0.4637  0.1483
   95SAPC  H14X 9342   4.422   2.654   5.157 -2.0743 -1.7840 -0.4888
   95SAPC  H14Y 9343   4.589   2.676   5.080  0.4575 -1.0728  1.4822
   95SAPC  C315 9344   4.509   2.476   5.069 -0.4920 -0.2152 -0.1898
   95SAPC  H15X 9345   4.590   2.441   5.001 -0.0429 -3.8550  1.9684
   95SAPC  H15Y 9346   4.422   2.419   5.030 -0.1808 -1.3379  0.7046
   95SAPC  C316 9347   4.559   2.429   5.207 -0.0680  0.2185 -0.5324
   95SAPC  H16X 9348   4.482   2.417   5.286  0.9142 -1.4618  0.2341
   95SAPC  H16Y 9349   4.656   2.478   5.228  1.0999 -1.2869 -2.0674
   95SAPC  C317 9350   4.611   2.284   5.194 -0.0213  0.5424  0.2164
   95SAPC  H17X 9351   4.689   2.305   5.118  0.3078  1.3059  0.7497
   95SAPC  H17Y 9352   4.537   2.216   5.147  0.2732  0.5331 -0.2400
   95SAPC  C318 9353   4.663   2.214   5.320 -0.3970 -0.2289  0.1293
   95SAPC  H18X 9354   4.714   2.118   5.296 -1.8362 -0.9051 -0.2885
   95SAPC  H18Y 9355   4.573   2.188   5.379 -1.7158 -1.1316 -2.1496
   95SAPC  H18Z 9356   4.733   2.281   5.374 -0.3348 -0.6742  0.6096
   96SAPC     N 9357   4.805   6.392   2.753 -0.2011  0.2977 -0.2453
   96SAPC   C12 9358   4.802   6.387   2.908 -0.0140  0.0795  0.0486
   96SAPC  H12A 9359   4.700   6.372   2.940 -0.0331 -0.7447 -0.3856
   96SAPC  H12B 9360   4.832   6.485   2.944 -0.4087  0.3061 -0.2321
   96SAPC   C13 9361   4.697   6.469   2.695  0.6164 -0.0344  0.4046
   96SAPC  H13A 9362   4.682   6.448   2.590 -1.7362  1.1267  0.4514
   96SAPC  H13B 9363   4.607   6.454   2.753 -0.6206  1.0899 -1.1202
   96SAPC  H13C 9364   4.715   6.576   2.693  0.9605 -0.0937  0.1606
   96SAPC   C14 9365   4.948   6.433   2.716  0.4132  0.3875 -0.0641
   96SAPC  H14A 9366   4.966   6.529   2.763 -0.2086  0.5419 -0.1270
   96SAPC  H14B 9367   5.012   6.359   2.761  0.6316  1.8225  2.1629
   96SAPC  H14C 9368   4.970   6.434   2.611  0.3664 -3.4048 -0.2202
   96SAPC   C15 9369   4.778   6.259   2.694  0.7221 -0.0624 -0.8345
   96SAPC  H15A 9370   4.784   6.260   2.586 -1.2099 -2.8802 -1.0639
   96SAPC  H15B 9371   4.859   6.196   2.727  0.6360  0.5325  0.5952
   96SAPC  H15C 9372   4.691   6.209   2.733 -0.0963  1.5715 -0.4676
   96SAPC   C11 9373   4.886   6.285   2.993 -0.2730 -0.0042 -0.3991
   96SAPC  H11A 9374   4.853   6.298   3.098  0.3365 -0.5158 -0.1340
   96SAPC  H11B 9375   4.995   6.297   2.976 -0.3101  0.7939 -0.0820
   96SAPC     P 9376   4.914   6.028   3.027  0.0900 -0.1114  0.4695
   96SAPC   O13 9377   4.859   5.903   2.977 -0.5543  0.0261  0.7114
   96SAPC   O14 9378   5.057   6.036   3.013 -0.0439  0.5589 -0.0651
   96SAPC   O12 9379   4.846   6.158   2.960 -0.1469  0.3916  0.1303
   96SAPC   O11 9380   4.884   6.052   3.176  0.1689  0.4992 -0.4434
   96SAPC    C1 9381   4.795   5.979   3.260  0.2176 -0.5170  0.7691
   96SAPC    HA 9382   4.762   5.880   3.221 -0.0438  0.2637 -1.1117
   96SAPC    HB 9383   4.846   5.962   3.357  0.4195 -0.0957  0.7360
   96SAPC    C2 9384   4.662   6.061   3.290 -0.2423 -0.0907  0.8849
   96SAPC    HS 9385   4.604   6.080   3.197 -0.3160  0.0443  0.9582
   96SAPC   O21 9386   4.699   6.188   3.348  0.6665 -0.0694 -0.2370
   96SAPC   C21 9387   4.596   6.279   3.360  0.3687  0.2555 -0.1395
   96SAPC   O22 9388   4.481   6.261   3.322  0.0297  0.4608  0.5695
   96SAPC   C22 9389   4.653   6.407   3.422  0.2878 -0.2921 -0.2910
   96SAPC   H2R 9390   4.758   6.375   3.439  0.3727 -0.4439 -1.0932
   96SAPC   H2S 9391   4.655   6.488   3.347  1.4974 -0.1834 -0.1507
   96SAPC    C3 9392   4.566   5.976   3.376  0.2881 -0.2634  0.9175
   96SAPC    HX 9393   4.552   5.885   3.314  1.0622 -1.4095  2.3656
   96SAPC    HY 9394   4.463   6.017   3.380  0.0813 -0.5761 -0.6512
   96SAPC   O31 9395   4.624   5.935   3.496 -0.2848  0.0305 -0.2161
   96SAPC   C31 9396   4.565   5.976   3.607  0.0341  0.2831  0.1965
   96SAPC   O32 9397   4.462   6.042   3.617 -0.4174  0.0939  0.3610
   96SAPC   C32 9398   4.635   5.927   3.727 -0.2209  0.3443  0.6432
   96SAPC   H2X 9399   4.740   5.961   3.714  0.1773  0.1791  3.0702
   96SAPC   H2Y 9400   4.624   5.818   3.744  0.5171  0.3007  0.8926
   96SAPC   C23 9401   4.582   6.449   3.556 -0.3170  0.0165  0.2983
   96SAPC   H3R 9402   4.471   6.451   3.544 -0.0881 -0.4911 -2.7993
   96SAPC   H3S 9403   4.611   6.554   3.578 -1.0075 -0.0576  1.6778
   96SAPC   C24 9404   4.624   6.368   3.678  0.5821  0.3766 -0.1818
   96SAPC   H4R 9405   4.727   6.409   3.688  1.0011 -0.2690 -1.5922
   96SAPC   H4S 9406   4.630   6.261   3.648  0.6637  0.6697 -1.2759
   96SAPC   C25 9407   4.555   6.395   3.806 -0.1385  0.1012 -0.2619
   96SAPC   H5R 9408   4.450   6.362   3.800 -0.5833  1.2525  0.5915
   96SAPC   C26 9409   4.590   6.457   3.926  0.6650 -0.6306 -0.0357
   96SAPC   H6R 9410   4.517   6.455   4.009 -0.1895 -1.8821 -0.7860
   96SAPC   C27 9411   4.715   6.524   3.950 -0.3187 -0.5473  0.4939
   96SAPC   H7R 9412   4.685   6.616   4.004 -4.5942 -2.2501  1.4557
   96SAPC   H7S 9413   4.765   6.564   3.859 -2.6481  0.4398 -0.4296
   96SAPC   C28 9414   4.818   6.441   4.027  0.8001 -0.5240  0.6486
   96SAPC   H8R 9415   4.882   6.387   3.956 -1.4523 -1.6650 -0.6191
   96SAPC   C29 9416   4.840   6.447   4.159  0.4400  0.5755 -0.2603
   96SAPC   H9R 9417   4.926   6.398   4.207  0.1014  1.2816  1.1345
   96SAPC  C210 9418   4.763   6.542   4.248  0.0736 -0.3034  0.2159
   96SAPC  H10R 9419   4.675   6.485   4.282  0.4992  0.2054  2.3416
   96SAPC  H10S 9420   4.713   6.627   4.198 -1.0349  0.0285  1.8140
   96SAPC  C211 9421   4.829   6.599   4.371 -0.3528  0.2151  0.4608
   96SAPC  H11R 9422   4.875   6.698   4.360  1.7030 -0.6132  1.1692
   96SAPC  C212 9423   4.826   6.534   4.490  0.1337  0.4714 -1.1351
   96SAPC  H12R 9424   4.877   6.585   4.573  1.5940  0.1676 -1.8231
   96SAPC  C213 9425   4.781   6.385   4.519  0.2350  0.1793  0.0810
   96SAPC  H13R 9426   4.761   6.325   4.427 -0.5621  0.7430 -0.1277
   96SAPC  H13S 9427   4.682   6.386   4.570  1.2629  0.5915  2.1673
   96SAPC  C214 9428   4.881   6.308   4.606  0.2364 -1.2333 -0.3356
   96SAPC  H14R 9429   4.956   6.244   4.558 -0.0570 -2.3902  0.6772
   96SAPC  C215 9430   4.887   6.329   4.740  0.6604  0.1152 -0.0425
   96SAPC  H15R 9431   4.966   6.270   4.789  1.3300 -0.0240 -1.2437
   96SAPC  C216 9432   4.785   6.391   4.832  0.2654 -0.1150  0.2628
   96SAPC  H16R 9433   4.708   6.445   4.773 -0.5640 -0.9387  0.5502
   96SAPC  H16S 9434   4.839   6.460   4.900 -0.5697  0.1665  0.6566
   96SAPC  C217 9435   4.700   6.291   4.922 -0.0389  0.3424 -0.1422
   96SAPC  H17R 9436   4.660   6.200   4.872  0.4275 -0.4753  0.9370
   96SAPC  H17S 9437   4.626   6.351   4.978  1.5524  0.8390  1.5144
   96SAPC  C218 9438   4.781   6.229   5.039  0.3971 -0.7383 -0.4608
   96SAPC  H18R 9439   4.841   6.310   5.085 -1.8438  0.5834  0.2557
   96SAPC  H18S 9440   4.851   6.161   4.985  2.1968  0.6025  0.0680
   96SAPC  C219 9441   4.693   6.151   5.139 -0.8274 -0.4917  0.2050
   96SAPC  H19R 9442   4.628   6.081   5.082 -0.8809 -1.6742  1.6632
   96SAPC  H19S 9443   4.625   6.221   5.193 -3.5231 -2.2393 -0.6952
   96SAPC  C220 9444   4.784   6.073   5.232 -0.0021  0.0465  0.3577
   96SAPC  H20R 9445   4.856   6.141   5.281 -0.3785  1.6903 -1.2326
   96SAPC  H20S 9446   4.837   5.994   5.174 -0.3316 -0.0477  0.1783
   96SAPC  H20T 9447   4.721   6.028   5.311  0.1647  0.3724  0.6771
   96SAPC   C33 9448   4.583   5.984   3.860  0.1090  0.9028 -0.0825
   96SAPC   H3X 9449   4.563   6.091   3.840 -2.1230  0.2474 -1.7145
   96SAPC   H3Y 9450   4.669   5.973   3.929 -1.4655 -0.4090  1.7871
   96SAPC   C34 9451   4.457   5.914   3.912  0.5330  0.8055 -0.6018
   96SAPC   H4X 9452   4.482   5.809   3.937 -1.4110  0.0923 -1.4371
   96SAPC   H4Y 9453   4.388   5.892   3.827  0.8415 -0.3289 -0.5725
   96SAPC   C35 9454   4.377   5.992   4.023 -0.2484 -0.2721 -0.2943
   96SAPC   H5X 9455   4.277   5.947   4.038 -0.1066 -0.5626 -0.2080
   96SAPC   H5Y 9456   4.347   6.088   3.976 -1.0769 -0.5581 -0.3591
   96SAPC   C36 9457   4.444   6.021   4.157 -0.3415  0.1293 -0.3046
   96SAPC   H6X 9458   4.533   6.084   4.134 -0.7735  1.6694  1.9369
   96SAPC   H6Y 9459   4.479   5.924   4.198  0.9424 -0.2424 -2.1638
   96SAPC   C37 9460   4.354   6.092   4.255  0.0301 -0.4756 -0.1510
   96SAPC   H7X 9461   4.274   6.029   4.298 -1.3951  2.1465  1.3198
   96SAPC   H7Y 9462   4.315   6.187   4.213  0.0761 -1.2630 -2.0843
   96SAPC   C38 9463   4.431   6.136   4.388  0.2577 -0.1145  0.7658
   96SAPC   H8X 9464   4.364   6.200   4.448  0.8919  1.8719 -0.5495
   96SAPC   H8Y 9465   4.510   6.198   4.341 -1.3258  0.9183 -0.6453
   96SAPC   C39 9466   4.478   6.024   4.476  0.3168 -0.2120 -0.1133
   96SAPC   H9X 9467   4.551   5.960   4.422 -2.4408 -2.3605 -1.5811
   96SAPC   H9Y 9468   4.383   5.968   4.490 -0.0556  0.5913  0.6360
   96SAPC  C310 9469   4.515   6.071   4.614  0.5451 -1.2780  0.1719
   96SAPC  H10X 9470   4.420   6.114   4.651  0.6487 -1.2085  0.3598
   96SAPC  H10Y 9471   4.579   6.162   4.609 -1.4494  0.1852  0.0122
   96SAPC  C311 9472   4.560   5.960   4.705  0.2014  0.4961  0.5374
   96SAPC  H11X 9473   4.508   5.867   4.674  2.2235 -0.8500  0.9903
   96SAPC  H11Y 9474   4.518   5.994   4.803 -0.7595  1.8324 -0.2953
   96SAPC  C312 9475   4.716   5.940   4.712 -0.1704 -1.3029 -0.2747
   96SAPC  H12X 9476   4.759   6.021   4.776  0.4127 -1.5846 -0.2971
   96SAPC  H12Y 9477   4.773   5.954   4.617  0.1346  3.0991  0.3539
   96SAPC  C313 9478   4.768   5.819   4.787 -0.1048  0.7275  0.3722
   96SAPC  H13X 9479   4.748   5.726   4.731 -1.2609  0.2281  1.5720
   96SAPC  H13Y 9480   4.708   5.808   4.880 -2.4749  3.4696 -0.7011
   96SAPC  C314 9481   4.917   5.825   4.814  0.0090 -0.2264 -0.5766
   96SAPC  H14X 9482   4.934   5.761   4.903  1.2183 -0.3188 -0.8459
   96SAPC  H14Y 9483   4.948   5.928   4.842 -0.4990 -0.2065 -0.0838
   96SAPC  C315 9484   5.002   5.768   4.704  0.4288 -0.7592 -0.0437
   96SAPC  H15X 9485   4.987   5.832   4.614  3.9407  1.7956  0.9906
   96SAPC  H15Y 9486   4.967   5.664   4.687 -0.1323 -0.4978 -0.5161
   96SAPC  C316 9487   5.154   5.762   4.732 -0.9442  0.1322 -0.1535
   96SAPC  H16X 9488   5.183   5.692   4.813  1.5308  0.5908 -0.5477
   96SAPC  H16Y 9489   5.174   5.862   4.777 -1.1197 -0.0315  0.2980
   96SAPC  C317 9490   5.230   5.743   4.599  0.2386  0.2200 -0.3426
   96SAPC  H17X 9491   5.206   5.829   4.533  2.0050 -0.5803 -2.1317
   96SAPC  H17Y 9492   5.188   5.656   4.544 -6.0929  1.6621  1.4160
   96SAPC  C318 9493   5.377   5.722   4.620 -0.1709 -0.5684  0.6425
   96SAPC  H18X 9494   5.389   5.629   4.681  1.8230  0.3467  1.7641
   96SAPC  H18Y 9495   5.419   5.800   4.687 -0.8211  0.4154 -0.0729
   96SAPC  H18Z 9496   5.433   5.705   4.526  1.1345  1.6339  0.9461
   97SAPC     N 9497   4.069   5.131   2.435 -0.3692  0.8514  0.2975
   97SAPC   C12 9498   4.188   5.058   2.488  0.1391 -0.2781 -0.0339
   97SAPC  H12A 9499   4.270   5.128   2.482  0.0657 -0.1866  0.0439
   97SAPC  H12B 9500   4.210   4.970   2.430  1.3686 -0.0871  0.1011
   97SAPC   C13 9501   4.054   5.262   2.510  0.6503  0.4289  0.4044
   97SAPC  H13A 9502   4.146   5.319   2.514  1.5904 -0.9644 -0.3545
   97SAPC  H13B 9503   3.980   5.324   2.462  0.6496  0.0465 -0.0969
   97SAPC  H13C 9504   4.029   5.248   2.614 -0.1353  1.8089  0.4160
   97SAPC   C14 9505   4.098   5.171   2.299 -0.4514  0.1071  0.4546
   97SAPC  H14A 9506   4.023   5.241   2.264  0.0488  0.8060  0.7532
   97SAPC  H14B 9507   4.197   5.215   2.301 -0.4329  0.2387 -1.4201
   97SAPC  H14C 9508   4.118   5.099   2.221  0.6462  1.0301 -0.1632
   97SAPC   C15 9509   3.949   5.049   2.438  0.2151  0.0385 -0.6269
   97SAPC  H15A 9510   3.917   5.035   2.540  2.2651  0.6402  0.1588
   97SAPC  H15B 9511   3.869   5.106   2.392  0.0361  0.4956  0.2422
   97SAPC  H15C 9512   3.962   4.950   2.397  2.0772  0.3932 -1.0058
   97SAPC   C11 9513   4.187   5.027   2.638  0.3673  0.4379  0.0845
   97SAPC  H11A 9514   4.262   4.947   2.656 -0.6377 -1.6909 -4.1224
   97SAPC  H11B 9515   4.091   4.978   2.664  1.5636 -1.5372  1.0320
   97SAPC     P 9516   4.376   5.189   2.728 -0.3765  0.0285  0.1503
   97SAPC   O13 9517   4.453   5.139   2.611  0.7694 -0.4845 -0.4831
   97SAPC   O14 9518   4.391   5.329   2.773 -0.5049 -0.3771  0.2544
   97SAPC   O12 9519   4.216   5.148   2.710 -0.0155 -0.2226 -0.6711
   97SAPC   O11 9520   4.424   5.085   2.842 -0.4510 -0.3761 -0.1858
   97SAPC    C1 9521   4.351   5.077   2.959  0.7950  0.0725  0.0174
   97SAPC    HA 9522   4.330   5.175   3.006  0.9508 -1.3269  3.2357
   97SAPC    HB 9523   4.254   5.029   2.935  0.8321  0.1282 -0.2455
   97SAPC    C2 9524   4.419   4.999   3.074  0.2016 -0.0262  0.8105
   97SAPC    HS 9525   4.367   5.005   3.172  1.4117  1.6002  1.3970
   97SAPC   O21 9526   4.550   5.043   3.102  0.5971 -0.0205  0.5397
   97SAPC   C21 9527   4.564   5.143   3.183  0.2806  1.1768 -0.4895
   97SAPC   O22 9528   4.470   5.206   3.239 -0.8489 -0.3579  0.2719
   97SAPC   C22 9529   4.713   5.188   3.179  0.7522 -0.2653  0.6061
   97SAPC   H2R 9530   4.763   5.115   3.112 -0.3751 -1.8761  1.4474
   97SAPC   H2S 9531   4.724   5.284   3.123 -1.3577 -0.7672 -0.7790
   97SAPC    C3 9532   4.418   4.852   3.029  0.7734  0.7796  0.1014
   97SAPC    HX 9533   4.479   4.836   2.937 -1.4824 -1.1115 -1.1822
   97SAPC    HY 9534   4.312   4.839   2.996  1.1347 -1.9379 -0.2036
   97SAPC   O31 9535   4.448   4.751   3.127 -0.7697  0.5147 -0.3556
   97SAPC   C31 9536   4.426   4.627   3.080 -0.0103 -0.7687  0.2193
   97SAPC   O32 9537   4.374   4.601   2.972  0.3362 -0.5765  0.0130
   97SAPC   C32 9538   4.468   4.520   3.175 -0.3008  0.2415  0.3074
   97SAPC   H2X 9539   4.577   4.521   3.195 -0.0892 -1.7451 -0.5270
   97SAPC   H2Y 9540   4.440   4.435   3.110 -1.5068  0.7217  0.1736
   97SAPC   C23 9541   4.776   5.186   3.323  0.2349  0.0530 -0.5114
   97SAPC   H3R 9542   4.885   5.207   3.327  1.5571 -4.7826 -2.8067
   97SAPC   H3S 9543   4.776   5.079   3.355 -1.0820  0.3149  0.4368
   97SAPC   C24 9544   4.708   5.269   3.433 -0.5277 -0.1044  0.1364
   97SAPC   H4R 9545   4.755   5.240   3.529  1.6210  0.1056 -0.7756
   97SAPC   H4S 9546   4.603   5.236   3.445 -0.1536 -1.4426 -0.0695
   97SAPC   C25 9547   4.707   5.420   3.408 -0.1018 -0.5557  1.1200
   97SAPC   H5R 9548   4.803   5.466   3.382 -0.3172 -0.0937  1.1354
   97SAPC   C26 9549   4.606   5.508   3.436  0.0873 -0.1452 -0.3469
   97SAPC   H6R 9550   4.624   5.616   3.432  0.3427  0.6787  7.2868
   97SAPC   C27 9551   4.471   5.462   3.490 -0.4975 -0.4521  0.4155
   97SAPC   H7R 9552   4.485   5.399   3.580 -2.2879 -1.5433 -0.0355
   97SAPC   H7S 9553   4.417   5.388   3.428 -0.0289 -2.0439  1.8374
   97SAPC   C28 9554   4.395   5.587   3.522 -0.2784  0.3128  0.2779
   97SAPC   H8R 9555   4.366   5.658   3.444  0.7488  2.4662  1.7542
   97SAPC   C29 9556   4.337   5.603   3.645 -0.9479 -0.2154 -0.3459
   97SAPC   H9R 9557   4.278   5.696   3.659 -0.4021  0.0043  0.5463
   97SAPC  C210 9558   4.359   5.518   3.772  0.2969 -0.1377 -0.3742
   97SAPC  H10R 9559   4.455   5.550   3.818 -0.9502  4.1704 -0.3527
   97SAPC  H10S 9560   4.374   5.409   3.758  0.1154 -0.5966  2.3444
   97SAPC  C211 9561   4.232   5.543   3.854  0.2743  0.8741  0.1881
   97SAPC  H11R 9562   4.134   5.558   3.807 -0.3227  1.6482  1.5983
   97SAPC  C212 9563   4.223   5.539   3.995  0.2605 -0.5400  0.5699
   97SAPC  H12R 9564   4.130   5.561   4.049 -0.1910  0.5056 -0.5949
   97SAPC  C213 9565   4.343   5.541   4.097 -0.7592 -0.3540  0.0403
   97SAPC  H13R 9566   4.437   5.548   4.037 -1.1640 -1.7639 -0.8189
   97SAPC  H13S 9567   4.340   5.436   4.134  0.6096 -0.8353 -1.1018
   97SAPC  C214 9568   4.336   5.641   4.208 -0.2453 -0.4254 -0.5410
   97SAPC  H14R 9569   4.337   5.746   4.178 -0.3274  0.3723  1.9925
   97SAPC  C215 9570   4.329   5.621   4.343  0.1578  0.2534  0.3545
   97SAPC  H15R 9571   4.331   5.705   4.414  0.9259 -0.6169  1.4033
   97SAPC  C216 9572   4.341   5.487   4.417  0.3120 -0.2655 -0.5473
   97SAPC  H16R 9573   4.321   5.404   4.346 -0.2361 -0.3695 -0.2739
   97SAPC  H16S 9574   4.272   5.471   4.503  1.9149  2.3166  1.3745
   97SAPC  C217 9575   4.485   5.475   4.463 -0.5485  0.9226  0.1651
   97SAPC  H17R 9576   4.514   5.575   4.502  0.1760  1.0623 -0.7082
   97SAPC  H17S 9577   4.556   5.463   4.379  0.4987  0.6831  1.0611
   97SAPC  C218 9578   4.498   5.361   4.564 -0.4109  0.6767  0.3613
   97SAPC  H18R 9579   4.459   5.268   4.517 -1.6645  0.3882  1.8847
   97SAPC  H18S 9580   4.446   5.386   4.659 -0.9475  1.8624 -0.2296
   97SAPC  C219 9581   4.647   5.330   4.602 -0.1417 -0.2340 -0.4372
   97SAPC  H19R 9582   4.705   5.337   4.508  1.0947  0.0424  0.3227
   97SAPC  H19S 9583   4.653   5.224   4.634 -2.0760 -0.2787 -0.0995
   97SAPC  C220 9584   4.700   5.421   4.711  0.1002 -0.2354  0.0056
   97SAPC  H20R 9585   4.672   5.522   4.674  0.9163  0.2399  0.6436
   97SAPC  H20S 9586   4.807   5.403   4.731 -0.7536 -1.0001  5.0734
   97SAPC  H20T 9587   4.664   5.400   4.814  4.2805 -0.4932  1.5943
   97SAPC   C33 9588   4.389   4.535   3.305  0.2575 -0.9846 -0.2908
   97SAPC   H3X 9589   4.421   4.627   3.358 -0.8282 -1.0928  0.5943
   97SAPC   H3Y 9590   4.408   4.450   3.374 -1.2058 -0.5637  0.6959
   97SAPC   C34 9591   4.235   4.532   3.289 -0.5418 -0.3101  0.4077
   97SAPC   H4X 9592   4.202   4.436   3.244 -0.8720 -0.6515  1.3638
   97SAPC   H4Y 9593   4.202   4.617   3.225  3.0042  1.5471  0.8115
   97SAPC   C35 9594   4.169   4.543   3.422 -0.8516  0.4349 -0.2247
   97SAPC   H5X 9595   4.167   4.450   3.482 -0.7608  0.7169  0.2177
   97SAPC   H5Y 9596   4.064   4.574   3.401 -0.4748  0.9062 -1.4868
   97SAPC   C36 9597   4.218   4.651   3.516  0.1758 -0.6318  0.1018
   97SAPC   H6X 9598   4.227   4.744   3.455  0.5463 -1.7780 -1.6560
   97SAPC   H6Y 9599   4.321   4.636   3.553 -0.2597  1.0402  2.2383
   97SAPC   C37 9600   4.120   4.681   3.636 -0.0997 -0.0774  0.1376
   97SAPC   H7X 9601   4.018   4.709   3.601  0.2370  2.0662  0.7482
   97SAPC   H7Y 9602   4.143   4.784   3.669 -3.6945  0.7795  0.3390
   97SAPC   C38 9603   4.137   4.583   3.747  0.7486  0.3547 -0.0243
   97SAPC   H8X 9604   4.225   4.517   3.733  1.6161  1.4476  0.0802
   97SAPC   H8Y 9605   4.042   4.526   3.757  1.2100 -0.6452 -1.1178
   97SAPC   C39 9606   4.152   4.659   3.881 -0.1069 -0.2326  0.2833
   97SAPC   H9X 9607   4.051   4.703   3.893 -0.5065 -0.6847 -1.2787
   97SAPC   H9Y 9608   4.236   4.732   3.871 -0.6057  0.0860 -1.9806
   97SAPC  C310 9609   4.165   4.552   3.997 -0.1010  0.5418  0.4568
   97SAPC  H10X 9610   4.257   4.495   3.971 -0.3653 -0.1302  0.9730
   97SAPC  H10Y 9611   4.075   4.487   4.001 -0.3757  0.9046  0.2643
   97SAPC  C311 9612   4.183   4.609   4.142  0.4077 -0.1922  0.4081
   97SAPC  H11X 9613   4.092   4.661   4.180  0.3364 -0.0270  0.0240
   97SAPC  H11Y 9614   4.271   4.676   4.132  0.9207 -0.9248 -0.0963
   97SAPC  C312 9615   4.230   4.503   4.244 -0.4223  0.5898 -0.5357
   97SAPC  H12X 9616   4.317   4.453   4.195 -0.4952  1.3607 -1.4759
   97SAPC  H12Y 9617   4.151   4.426   4.252  1.0718 -1.1107 -1.2889
   97SAPC  C313 9618   4.265   4.562   4.382 -0.1857  0.9169  0.5880
   97SAPC  H13X 9619   4.180   4.632   4.400  0.1832  1.3081  0.8161
   97SAPC  H13Y 9620   4.356   4.626   4.385 -1.5997  2.9963  1.9594
   97SAPC  C314 9621   4.266   4.457   4.495  0.0371 -0.2610 -0.1303
   97SAPC  H14X 9622   4.180   4.388   4.482 -0.0592  0.0025 -0.9715
   97SAPC  H14Y 9623   4.240   4.508   4.590 -1.7469 -0.5983 -0.3977
   97SAPC  C315 9624   4.399   4.389   4.490 -0.4418  0.0491  0.0462
   97SAPC  H15X 9625   4.474   4.462   4.526  2.2458 -1.3320 -2.3814
   97SAPC  H15Y 9626   4.434   4.378   4.386  2.7026 -1.0132  1.1019
   97SAPC  C316 9627   4.416   4.265   4.574 -0.0180  0.4629 -0.3152
   97SAPC  H16X 9628   4.520   4.226   4.560  1.2189  3.8218 -1.3131
   97SAPC  H16Y 9629   4.347   4.182   4.546  1.6508 -1.2193  0.3230
   97SAPC  C317 9630   4.381   4.284   4.722 -0.0232  0.4168 -0.4256
   97SAPC  H17X 9631   4.279   4.327   4.730  0.6038  2.4490 -2.2880
   97SAPC  H17Y 9632   4.436   4.368   4.771 -2.1868  1.5295  0.2294
   97SAPC  C318 9633   4.392   4.151   4.802 -0.0465  0.2834  0.4033
   97SAPC  H18X 9634   4.379   4.173   4.910 -0.5695 -0.1547  0.4354
   97SAPC  H18Y 9635   4.496   4.113   4.796 -0.3680 -0.3968 -1.5359
   97SAPC  H18Z 9636   4.322   4.073   4.765  1.1992 -0.7525  0.1546
   98SAPC     N 9637   5.830   1.510   2.612 -0.0854  0.5014 -0.0942
   98SAPC   C12 9638   5.845   1.405   2.714 -0.3602 -0.0276 -0.5916
   98SAPC  H12A 9639   5.930   1.421   2.779 -1.2268  0.3328  0.4864
   98SAPC  H12B 9640   5.858   1.306   2.673  1.8857 -1.6164  3.4138
   98SAPC   C13 9641   5.800   1.648   2.666 -0.2357  0.1778 -0.1974
   98SAPC  H13A 9642   5.896   1.692   2.692  0.6147 -0.7742 -1.6400
   98SAPC  H13B 9643   5.761   1.716   2.592  0.2696 -1.2589 -1.8326
   98SAPC  H13C 9644   5.735   1.651   2.752  0.5025  0.0781  0.3833
   98SAPC   C14 9645   5.955   1.514   2.527  0.0719  0.0158 -0.4865
   98SAPC  H14A 9646   5.961   1.421   2.472 -0.2876  0.7700 -1.8291
   98SAPC  H14B 9647   5.950   1.596   2.458 -1.0502  0.4985  0.1404
   98SAPC  H14C 9648   6.046   1.522   2.584 -0.4092  0.4652  0.2414
   98SAPC   C15 9649   5.726   1.469   2.514 -0.0493  0.1655 -0.7978
   98SAPC  H15A 9650   5.752   1.370   2.478  0.1002 -0.9946  2.2442
   98SAPC  H15B 9651   5.625   1.471   2.554  0.1664  0.3392 -0.2538
   98SAPC  H15C 9652   5.735   1.536   2.430 -0.0546  0.3924 -0.6176
   98SAPC   C11 9653   5.722   1.383   2.805  0.5773 -0.6878  0.5375
   98SAPC  H11A 9654   5.676   1.479   2.834 -0.7103 -0.7793 -1.0725
   98SAPC  H11B 9655   5.759   1.328   2.894  3.3746  0.3613  0.1215
   98SAPC     P 9656   5.483   1.263   2.786  0.2049 -0.2158  0.0558
   98SAPC   O13 9657   5.390   1.377   2.810  0.0225 -0.1628 -0.1418
   98SAPC   O14 9658   5.433   1.149   2.705 -0.1784 -0.0905 -0.0916
   98SAPC   O12 9659   5.625   1.314   2.724  0.4034  0.2394  0.0435
   98SAPC   O11 9660   5.535   1.203   2.926  0.0482 -0.0914 -0.2979
   98SAPC    C1 9661   5.633   1.097   2.925 -0.4499 -0.1213  0.0566
   98SAPC    HA 9662   5.596   1.011   2.865 -1.9918  0.7229 -0.2540
   98SAPC    HB 9663   5.730   1.129   2.881 -0.2450  0.2169  0.7439
   98SAPC    C2 9664   5.674   1.053   3.070  0.1512  0.0020 -0.2121
   98SAPC    HS 9665   5.580   1.023   3.121  1.1205 -0.6419  1.2899
   98SAPC   O21 9666   5.739   1.166   3.134  0.5200  0.0763  0.8835
   98SAPC   C21 9667   5.650   1.253   3.187 -0.4464  1.2814 -0.9816
   98SAPC   O22 9668   5.533   1.230   3.195  0.8950 -0.0546  0.4655
   98SAPC   C22 9669   5.722   1.377   3.245  0.4986 -0.0229  0.0039
   98SAPC   H2R 9670   5.664   1.381   3.340  2.2838 -1.4986  1.2332
   98SAPC   H2S 9671   5.831   1.359   3.249  0.6620  0.9888  0.5606
   98SAPC    C3 9672   5.773   0.932   3.079  0.4105 -0.3683 -0.0378
   98SAPC    HX 9673   5.867   0.951   3.022  0.3590  2.9205  0.7498
   98SAPC    HY 9674   5.722   0.840   3.045 -3.3262  1.5323 -0.0241
   98SAPC   O31 9675   5.809   0.917   3.219 -0.3702 -0.1996 -0.1429
   98SAPC   C31 9676   5.926   0.966   3.263  0.2805  0.2199  1.2143
   98SAPC   O32 9677   6.007   1.018   3.193 -0.6464 -0.1759 -0.0255
   98SAPC   C32 9678   5.932   0.951   3.417  0.0004 -0.2088 -0.2818
   98SAPC   H2X 9679   6.032   0.985   3.449  0.4308 -2.1959  0.6725
   98SAPC   H2Y 9680   5.916   0.844   3.443  1.4456 -0.5378 -0.6720
   98SAPC   C23 9681   5.695   1.502   3.164 -0.6586 -0.9187 -0.0431
   98SAPC   H3R 9682   5.587   1.518   3.144 -0.5534  2.1404  1.3317
   98SAPC   H3S 9683   5.734   1.480   3.063  1.9869 -4.7388  1.5801
   98SAPC   C24 9684   5.751   1.636   3.222  0.2485 -0.3963 -0.0198
   98SAPC   H4R 9685   5.724   1.635   3.330 -0.8282 -1.6438 -0.2706
   98SAPC   H4S 9686   5.692   1.720   3.179 -0.3938 -1.4799 -1.3080
   98SAPC   C25 9687   5.902   1.658   3.218 -0.1878  0.5970 -0.4027
   98SAPC   H5R 9688   5.952   1.640   3.122 -1.3358  2.8271 -1.4843
   98SAPC   C26 9689   5.974   1.726   3.309  0.8063  0.5202 -0.2477
   98SAPC   H6R 9690   6.083   1.731   3.296  0.8177  2.0110  0.1484
   98SAPC   C27 9691   5.908   1.769   3.435  0.8317 -0.0547 -0.5466
   98SAPC   H7R 9692   5.867   1.682   3.490  1.2863 -1.5536 -2.4639
   98SAPC   H7S 9693   5.831   1.845   3.409  0.1820 -0.6329 -0.3035
   98SAPC   C28 9694   6.005   1.835   3.532 -0.2117 -0.0334  0.6265
   98SAPC   H8R 9695   6.111   1.816   3.510 -0.4107 -1.1418  0.5519
   98SAPC   C29 9696   5.975   1.889   3.651  0.5264 -0.1574  0.4067
   98SAPC   H9R 9697   6.054   1.930   3.715 -0.2235 -0.9885  1.9179
   98SAPC  C210 9698   5.835   1.907   3.703  0.5270 -0.3547 -0.4251
   98SAPC  H10R 9699   5.766   1.941   3.623 -0.1976  1.0039  0.7453
   98SAPC  H10S 9700   5.827   2.005   3.754  0.9968 -0.0239 -0.9795
   98SAPC  C211 9701   5.786   1.793   3.791  0.6080 -0.4651 -1.1973
   98SAPC  H11R 9702   5.779   1.695   3.741 -0.7767 -1.0106  0.0056
   98SAPC  C212 9703   5.755   1.800   3.930  0.0459  0.2225 -0.0377
   98SAPC  H12R 9704   5.703   1.716   3.976 -0.0169  0.1345 -0.2655
   98SAPC  C213 9705   5.761   1.924   4.014  0.5512 -0.7378 -0.6590
   98SAPC  H13R 9706   5.661   1.951   4.052  1.2755  2.6689 -0.8072
   98SAPC  H13S 9707   5.793   2.017   3.962 -1.1020  1.0252  1.3307
   98SAPC  C214 9708   5.859   1.891   4.129  0.0313 -0.2964  0.0594
   98SAPC  H14R 9709   5.955   1.846   4.100  0.0783  0.9485 -1.9142
   98SAPC  C215 9710   5.846   1.927   4.259 -0.6970 -0.5135  0.9445
   98SAPC  H15R 9711   5.912   1.892   4.339 -1.9494 -0.3128  2.1029
   98SAPC  C216 9712   5.738   2.018   4.321 -0.5533  0.1045 -0.3865
   98SAPC  H16R 9713   5.646   1.978   4.273 -1.3942  1.4379  0.0638
   98SAPC  H16S 9714   5.763   2.122   4.292 -0.9771  0.3040 -0.0342
   98SAPC  C217 9715   5.730   2.003   4.477 -0.1540  0.1370 -0.1099
   98SAPC  H17R 9716   5.710   1.895   4.495  1.3830 -0.4192 -1.5239
   98SAPC  H17S 9717   5.637   2.047   4.520 -1.8411 -2.6880 -0.5675
   98SAPC  C218 9718   5.859   2.038   4.562 -0.4284 -0.4971  0.5179
   98SAPC  H18R 9719   5.944   1.973   4.532 -0.2417 -0.1234  0.2218
   98SAPC  H18S 9720   5.822   2.003   4.660 -0.3014  1.5073  1.3245
   98SAPC  C219 9721   5.885   2.189   4.564  0.2922 -0.1639 -0.4105
   98SAPC  H19R 9722   5.790   2.239   4.537 -0.8991 -0.9517  2.0196
   98SAPC  H19S 9723   5.960   2.213   4.485 -0.2506  1.2204 -0.5326
   98SAPC  C220 9724   5.931   2.243   4.703  0.0240  0.1757 -0.2833
   98SAPC  H20R 9725   5.965   2.348   4.689 -1.9642  1.0231  0.7463
   98SAPC  H20S 9726   6.011   2.182   4.749 -0.7952 -1.1555 -0.5598
   98SAPC  H20T 9727   5.848   2.237   4.777 -0.7749  0.8495 -1.0949
   98SAPC   C33 9728   5.836   1.041   3.492 -0.3039 -0.6876 -0.4271
   98SAPC   H3X 9729   5.810   0.999   3.592  0.8875 -0.9544 -0.2187
   98SAPC   H3Y 9730   5.739   1.048   3.438 -1.1509 -3.3079  0.5839
   98SAPC   C34 9731   5.898   1.181   3.523 -0.1990 -0.0753 -0.3144
   98SAPC   H4X 9732   5.891   1.231   3.423  0.1967  1.2153  0.2803
   98SAPC   H4Y 9733   6.004   1.184   3.557 -0.0711 -1.6280 -0.4912
   98SAPC   C35 9734   5.818   1.270   3.615  0.1124  0.0438 -0.5946
   98SAPC   H5X 9735   5.805   1.216   3.711  0.6117 -0.2498 -0.6926
   98SAPC   H5Y 9736   5.721   1.271   3.561 -0.2842  1.0705  0.1100
   98SAPC   C36 9737   5.868   1.412   3.637  0.2260  0.6365  0.3637
   98SAPC   H6X 9738   5.787   1.471   3.683  0.6378 -0.1155  2.1473
   98SAPC   H6Y 9739   5.875   1.462   3.538 -2.3435  0.4690  0.0348
   98SAPC   C37 9740   5.993   1.431   3.721 -0.2914  0.0589 -0.4077
   98SAPC   H7X 9741   6.018   1.539   3.730  3.0014 -0.7300  1.0748
   98SAPC   H7Y 9742   6.077   1.373   3.678 -2.1063 -0.6650 -3.2775
   98SAPC   C38 9743   5.969   1.397   3.873  0.8510  0.1142  0.3280
   98SAPC   H8X 9744   5.955   1.290   3.899 -2.1484  0.3033 -0.2299
   98SAPC   H8Y 9745   5.868   1.433   3.901  0.9079 -0.2844  1.0527
   98SAPC   C39 9746   6.071   1.466   3.970 -0.0595 -0.5575 -0.3703
   98SAPC   H9X 9747   6.062   1.573   3.943  0.0480 -0.4397  0.0499
   98SAPC   H9Y 9748   6.168   1.431   3.929  0.6699  2.1009 -1.0705
   98SAPC  C310 9749   6.047   1.444   4.117  0.2794  0.4155 -0.2437
   98SAPC  H10X 9750   6.139   1.481   4.167  0.8986 -0.2321 -0.8993
   98SAPC  H10Y 9751   6.026   1.339   4.146 -2.3723  1.1657  0.9826
   98SAPC  C311 9752   5.938   1.531   4.186 -1.5172  0.6334 -0.6444
   98SAPC  H11X 9753   5.850   1.467   4.165  1.3465 -3.9158 -0.0374
   98SAPC  H11Y 9754   5.915   1.624   4.129 -1.2396  1.4050  0.4558
   98SAPC  C312 9755   5.960   1.556   4.338  0.3005 -0.8609 -0.4692
   98SAPC  H12X 9756   5.875   1.620   4.370  1.8555  0.5982  0.9324
   98SAPC  H12Y 9757   6.052   1.614   4.358  0.1179 -0.7928  0.1987
   98SAPC  C313 9758   5.992   1.426   4.422  0.9672  0.5250 -0.0028
   98SAPC  H13X 9759   6.094   1.399   4.390  0.2545 -0.0364 -1.9405
   98SAPC  H13Y 9760   5.913   1.351   4.398  1.2887  0.3919 -0.6477
   98SAPC  C314 9761   5.980   1.463   4.573 -0.4591  0.4012 -0.0089
   98SAPC  H14X 9762   5.887   1.522   4.589 -0.2261  1.2193 -1.4626
   98SAPC  H14Y 9763   6.068   1.523   4.606  0.8788 -0.9619 -0.9880
   98SAPC  C315 9764   5.978   1.340   4.663  0.0663  0.1288 -0.6815
   98SAPC  H15X 9765   6.073   1.284   4.651 -0.7890 -1.2831 -1.0043
   98SAPC  H15Y 9766   5.893   1.284   4.620 -1.3281  2.4010 -1.0561
   98SAPC  C316 9767   5.953   1.368   4.813  1.1858 -0.4535 -0.1749
   98SAPC  H16X 9768   5.874   1.445   4.819  0.6822 -0.9388 -0.5067
   98SAPC  H16Y 9769   6.039   1.418   4.862 -0.2002  0.3179  1.5574
   98SAPC  C317 9770   5.909   1.242   4.892 -0.1967 -0.4967 -0.0032
   98SAPC  H17X 9771   5.799   1.239   4.878 -0.1183  0.8208 -1.2428
   98SAPC  H17Y 9772   5.928   1.259   5.000  0.6122 -1.4524  0.0149
   98SAPC  C318 9773   5.977   1.109   4.862  0.6001 -0.2950 -0.0871
   98SAPC  H18X 9774   5.923   1.030   4.918  1.3053  0.0482  1.1287
   98SAPC  H18Y 9775   6.084   1.111   4.891  1.0002  1.2720 -1.4514
   98SAPC  H18Z 9776   5.971   1.102   4.751  0.3712  0.4999 -0.1297
   99SAPC     N 9777   1.347   2.385   2.724 -0.4939  0.5876 -0.5974
   99SAPC   C12 9778   1.275   2.459   2.617  0.0693 -0.2874  0.3863
   99SAPC  H12A 9779   1.168   2.438   2.619  0.0740 -0.3643 -0.0435
   99SAPC  H12B 9780   1.320   2.437   2.521 -0.8520  1.3231 -0.4580
   99SAPC   C13 9781   1.311   2.440   2.859  0.3284  0.4635  0.0531
   99SAPC  H13A 9782   1.351   2.386   2.943 -0.0098  2.6346  1.7105
   99SAPC  H13B 9783   1.345   2.542   2.871 -0.7428  0.5839  2.5361
   99SAPC  H13C 9784   1.204   2.442   2.867  0.3884  1.4661  0.8436
   99SAPC   C14 9785   1.302   2.245   2.714 -0.0529 -0.3892 -1.0914
   99SAPC  H14A 9786   1.195   2.236   2.729  0.1019  1.0085  1.4017
   99SAPC  H14B 9787   1.325   2.210   2.615  0.6416 -1.8044 -0.4566
   99SAPC  H14C 9788   1.343   2.183   2.792  0.6484  0.6291 -0.6239
   99SAPC   C15 9789   1.490   2.405   2.701  1.0415 -0.0121 -0.4529
   99SAPC  H15A 9790   1.551   2.393   2.790  1.3591 -1.3859 -0.8319
   99SAPC  H15B 9791   1.528   2.346   2.619  2.5780 -0.5311  0.5699
   99SAPC  H15C 9792   1.509   2.508   2.675 -0.8628  0.4426 -0.1929
   99SAPC   C11 9793   1.286   2.620   2.629  0.4219  0.3143  0.2561
   99SAPC  H11A 9794   1.241   2.654   2.534 -2.8889  1.3510  2.0584
   99SAPC  H11B 9795   1.391   2.658   2.635 -0.2033  2.5461 -1.5033
   99SAPC     P 9796   1.191   2.832   2.733  0.3032  0.1385  0.5908
   99SAPC   O13 9797   1.309   2.912   2.690 -0.2435 -0.7398  0.3409
   99SAPC   O14 9798   1.065   2.864   2.659 -0.0057  0.3402 -0.5456
   99SAPC   O12 9799   1.208   2.676   2.735  0.2356 -0.0400 -0.0810
   99SAPC   O11 9800   1.164   2.869   2.884 -0.1321 -0.2133  0.4691
   99SAPC    C1 9801   1.258   2.933   2.971 -0.2318 -0.7393 -0.2481
   99SAPC    HA 9802   1.357   2.951   2.925  0.3915 -0.6198  1.0885
   99SAPC    HB 9803   1.209   3.024   3.013 -0.5564 -0.8019 -0.4961
   99SAPC    C2 9804   1.284   2.836   3.090 -0.3579 -0.0889 -0.4327
   99SAPC    HS 9805   1.331   2.741   3.057 -2.3176 -0.8951 -1.0472
   99SAPC   O21 9806   1.155   2.806   3.154 -0.1857  0.1963  0.4146
   99SAPC   C21 9807   1.147   2.708   3.242 -0.5581  0.2413 -0.1338
   99SAPC   O22 9808   1.239   2.635   3.285  0.5872 -0.0305 -0.2793
   99SAPC   C22 9809   1.008   2.706   3.296 -0.3566  0.4681 -0.4446
   99SAPC   H2R 9810   0.983   2.810   3.327 -2.1449 -0.1248  0.2252
   99SAPC   H2S 9811   0.955   2.689   3.200  1.2994  0.3075 -1.3811
   99SAPC    C3 9812   1.385   2.890   3.200 -0.7658 -0.0470 -0.4878
   99SAPC    HX 9813   1.490   2.858   3.182 -0.6781 -0.5410  0.7815
   99SAPC    HY 9814   1.371   2.825   3.289 -0.7472 -0.8221 -1.0365
   99SAPC   O31 9815   1.355   3.024   3.238 -0.0787 -0.0902  0.6138
   99SAPC   C31 9816   1.421   3.121   3.175 -0.3237  0.2314  0.4512
   99SAPC   O32 9817   1.514   3.111   3.098  0.5587  0.5121 -0.2028
   99SAPC   C32 9818   1.357   3.253   3.213  0.3781  1.0618  0.0899
   99SAPC   H2X 9819   1.258   3.236   3.261  1.8945  0.7583  3.3618
   99SAPC   H2Y 9820   1.346   3.307   3.116 -2.2189  2.5841  1.1120
   99SAPC   C23 9821   0.991   2.604   3.414  0.6050  0.3752  0.5791
   99SAPC   H3R 9822   1.031   2.639   3.512  2.2380  0.3095 -0.0486
   99SAPC   H3S 9823   1.053   2.514   3.397  0.5627 -0.0313  2.3402
   99SAPC   C24 9824   0.841   2.569   3.438  0.3088  0.5418 -0.2998
   99SAPC   H4R 9825   0.792   2.552   3.340  1.5549  1.5379 -1.1296
   99SAPC   H4S 9826   0.800   2.663   3.480  0.1530 -0.1007  1.0401
   99SAPC   C25 9827   0.821   2.449   3.524  0.0764  0.8013  0.5256
   99SAPC   H5R 9828   0.857   2.355   3.479 -0.7142  1.1969 -1.0253
   99SAPC   C26 9829   0.768   2.449   3.649 -0.8615 -0.1436 -0.8807
   99SAPC   H6R 9830   0.745   2.349   3.689  2.4942 -0.9017 -0.5137
   99SAPC   C27 9831   0.725   2.568   3.730  0.4459 -0.5753  0.5830
   99SAPC   H7R 9832   0.616   2.580   3.715  0.4884 -1.8071 -0.9792
   99SAPC   H7S 9833   0.756   2.669   3.695 -1.7890  0.6419  1.8836
   99SAPC   C28 9834   0.759   2.549   3.875  0.0213 -0.1208 -0.5349
   99SAPC   H8R 9835   0.730   2.451   3.915 -0.2788  0.1149 -0.1760
   99SAPC   C29 9836   0.829   2.633   3.953  0.3314 -0.3428 -0.6274
   99SAPC   H9R 9837   0.841   2.601   4.057  1.1865 -1.0902 -0.9521
   99SAPC  C210 9838   0.887   2.768   3.928 -0.2028 -0.1785 -0.3364
   99SAPC  H10R 9839   0.926   2.790   3.826 -0.2875 -0.6131 -0.4665
   99SAPC  H10S 9840   0.984   2.784   3.979 -0.9296  0.1473  1.0079
   99SAPC  C211 9841   0.796   2.885   3.972 -0.0954 -0.0393  0.4626
   99SAPC  H11R 9842   0.754   2.945   3.890  0.1787 -0.5788 -0.0835
   99SAPC  C212 9843   0.774   2.930   4.099 -0.1104  0.3981 -0.0670
   99SAPC  H12R 9844   0.711   3.018   4.121 -0.5900 -0.2750  1.3729
   99SAPC  C213 9845   0.845   2.870   4.220  0.4572  0.4881  0.5966
   99SAPC  H13R 9846   0.934   2.809   4.195  1.0628  0.0720  3.4401
   99SAPC  H13S 9847   0.783   2.800   4.279  0.6907  0.8140  1.2387
   99SAPC  C214 9848   0.893   2.977   4.304 -0.1212 -0.6079 -1.0112
   99SAPC  H14R 9849   0.966   3.047   4.262  1.2308  1.4578  4.0645
   99SAPC  C215 9850   0.863   3.003   4.435 -0.2421 -0.4122 -0.0000
   99SAPC  H15R 9851   0.910   3.094   4.475 -2.5152  1.1222 -0.6438
   99SAPC  C216 9852   0.766   2.942   4.531  0.3389  0.3057 -0.7006
   99SAPC  H16R 9853   0.736   2.837   4.507  0.2239 -0.4323  2.3256
   99SAPC  H16S 9854   0.675   3.006   4.529  1.6265  2.2374 -0.5186
   99SAPC  C217 9855   0.824   2.921   4.670 -0.0857  0.0392  0.0399
   99SAPC  H17R 9856   0.842   3.024   4.708  0.6604  0.7809 -2.1099
   99SAPC  H17S 9857   0.918   2.866   4.649 -0.1585  0.2034 -0.7715
   99SAPC  C218 9858   0.725   2.842   4.764  0.0652  0.4821  0.5299
   99SAPC  H18R 9859   0.773   2.836   4.864 -1.0814 -1.8688  1.0116
   99SAPC  H18S 9860   0.713   2.740   4.722 -0.9347  0.8696 -0.1796
   99SAPC  C219 9861   0.592   2.920   4.775 -0.2701  0.3550  0.7995
   99SAPC  H19R 9862   0.524   2.887   4.693 -0.4292  0.2079  0.9897
   99SAPC  H19S 9863   0.623   3.026   4.771  1.2370 -0.0534  1.1024
   99SAPC  C220 9864   0.522   2.896   4.908  0.1274 -0.2047 -0.1064
   99SAPC  H20R 9865   0.599   2.896   4.988  0.6084 -0.7042 -0.5564
   99SAPC  H20S 9866   0.460   2.805   4.909 -1.0454  0.5746  0.9606
   99SAPC  H20T 9867   0.455   2.981   4.932  1.7572  1.2903 -0.5700
   99SAPC   C33 9868   1.433   3.348   3.308  0.1291  0.1394  0.3281
   99SAPC   H3X 9869   1.374   3.438   3.336 -1.2649 -0.3143 -1.0136
   99SAPC   H3Y 9870   1.522   3.386   3.255  0.4890  0.3933  1.0970
   99SAPC   C34 9871   1.473   3.274   3.437 -0.0302  0.7515 -0.1971
   99SAPC   H4X 9872   1.501   3.169   3.416 -1.8337 -0.9160  4.3810
   99SAPC   H4Y 9873   1.381   3.255   3.496  0.7413 -1.4904  0.3965
   99SAPC   C35 9874   1.567   3.353   3.525  0.0630  0.0140 -0.1855
   99SAPC   H5X 9875   1.639   3.397   3.452  0.1418  0.4614  0.1563
   99SAPC   H5Y 9876   1.625   3.286   3.592 -2.0802 -0.0976  1.6760
   99SAPC   C36 9877   1.498   3.468   3.605 -0.2111  0.2768 -0.1743
   99SAPC   H6X 9878   1.418   3.430   3.671  0.6625  2.2301  2.1360
   99SAPC   H6Y 9879   1.452   3.533   3.528 -2.1375 -2.8667 -1.8778
   99SAPC   C37 9880   1.581   3.540   3.709 -0.4644 -0.6361 -0.4898
   99SAPC   H7X 9881   1.679   3.564   3.663 -0.1289 -2.0077 -0.5311
   99SAPC   H7Y 9882   1.605   3.471   3.793  2.5432 -0.1698 -0.8535
   99SAPC   C38 9883   1.521   3.673   3.761 -0.5234  0.0301 -1.1835
   99SAPC   H8X 9884   1.428   3.649   3.816 -0.7569 -0.3424 -1.7293
   99SAPC   H8Y 9885   1.480   3.714   3.667 -1.1927 -0.6713 -1.2136
   99SAPC   C39 9886   1.611   3.766   3.834 -0.3246  0.0792  0.1719
   99SAPC   H9X 9887   1.563   3.866   3.842 -0.8286 -0.1807  0.3872
   99SAPC   H9Y 9888   1.694   3.782   3.761 -1.6740  0.9276 -1.2355
   99SAPC  C310 9889   1.680   3.718   3.973  0.4885  0.8864 -0.2726
   99SAPC  H10X 9890   1.783   3.683   3.951 -0.0001  0.1751 -1.5356
   99SAPC  H10Y 9891   1.620   3.632   4.010  1.6513  1.8966  4.7702
   99SAPC  C311 9892   1.684   3.808   4.089  0.0782 -0.4052  0.4633
   99SAPC  H11X 9893   1.691   3.916   4.064  2.2539 -0.5659  0.1955
   99SAPC  H11Y 9894   1.775   3.778   4.145  1.3704  0.0937 -1.2864
   99SAPC  C312 9895   1.562   3.797   4.187  0.2615 -0.3331  0.3617
   99SAPC  H12X 9896   1.551   3.689   4.212  0.6242 -0.5650 -0.4649
   99SAPC  H12Y 9897   1.463   3.816   4.141  0.4725  0.2284  0.1333
   99SAPC  C313 9898   1.577   3.882   4.316 -0.1934 -0.1418 -0.1325
   99SAPC  H13X 9899   1.496   3.872   4.392  0.0009 -0.7648 -0.0006
   99SAPC  H13Y 9900   1.582   3.988   4.284  0.3210  0.0238  0.4831
   99SAPC  C314 9901   1.703   3.837   4.394 -0.7904  0.4947  0.3611
   99SAPC  H14X 9902   1.792   3.856   4.330 -2.3106  0.3630 -1.9039
   99SAPC  H14Y 9903   1.706   3.726   4.407  1.2255  0.5531  0.7739
   99SAPC  C315 9904   1.720   3.893   4.538  0.0279  0.8385 -0.1325
   99SAPC  H15X 9905   1.736   4.002   4.552 -0.4197  0.9648 -0.5697
   99SAPC  H15Y 9906   1.807   3.838   4.579 -0.1443  0.3957 -0.3526
   99SAPC  C316 9907   1.595   3.860   4.627 -0.1849  0.5997  0.4717
   99SAPC  H16X 9908   1.501   3.907   4.591  0.5485  1.9967  0.3200
   99SAPC  H16Y 9909   1.632   3.905   4.722  0.9273 -0.4995  0.5762
   99SAPC  C317 9910   1.583   3.716   4.647 -0.0319  0.3692  0.0873
   99SAPC  H17X 9911   1.676   3.668   4.684  0.8988 -0.5852 -3.1244
   99SAPC  H17Y 9912   1.562   3.667   4.549  0.4631  0.0334  0.1449
   99SAPC  C318 9913   1.472   3.686   4.748  1.2037  0.2208  0.4036
   99SAPC  H18X 9914   1.469   3.748   4.840 -1.3243  0.4669  0.2138
   99SAPC  H18Y 9915   1.496   3.581   4.776  0.7189 -0.4471 -1.5477
   99SAPC  H18Z 9916   1.371   3.688   4.702  1.3607  1.3714  0.0573
  100SAPC     N 9917   6.747   0.953   2.232 -0.3632 -0.3574 -0.5559
  100SAPC   C12 9918   6.768   1.067   2.332  1.0490 -0.1205 -0.2082
  100SAPC  H12A 9919   6.677   1.125   2.323  1.1308  0.2355  1.0848
  100SAPC  H12B 9920   6.847   1.134   2.302 -1.1391  2.8780  0.2526
  100SAPC   C13 9921   6.842   0.843   2.240  0.3658 -0.4446  0.5472
  100SAPC  H13A 9922   6.942   0.872   2.211 -0.8837  1.7836 -1.9903
  100SAPC  H13B 9923   6.845   0.798   2.338  1.7547 -0.5709  0.4616
  100SAPC  H13C 9924   6.805   0.769   2.170  0.9554 -0.3011  0.0700
  100SAPC   C14 9925   6.611   0.891   2.268 -0.1528  0.1070 -0.4880
  100SAPC  H14A 9926   6.537   0.968   2.252 -0.3173 -0.1354 -0.9091
  100SAPC  H14B 9927   6.582   0.806   2.209  0.3574 -0.1100 -0.4337
  100SAPC  H14C 9928   6.606   0.870   2.373  2.7163  0.5249 -0.1681
  100SAPC   C15 9929   6.740   1.023   2.102  0.6099  0.2218 -0.0688
  100SAPC  H15A 9930   6.667   1.102   2.109  2.1654  1.6267  1.1416
  100SAPC  H15B 9931   6.831   1.081   2.094  0.5111  0.4291  0.3256
  100SAPC  H15C 9932   6.724   0.955   2.019  0.0716  2.7037 -2.1344
  100SAPC   C11 9933   6.789   1.032   2.487  0.3447 -0.2105  0.5933
  100SAPC  H11A 9934   6.787   1.135   2.529  0.4332 -0.4457  1.1869
  100SAPC  H11B 9935   6.894   0.996   2.499  0.5738  0.0714 -0.4889
  100SAPC     P 9936   6.726   0.817   2.634  0.0981  0.3100 -0.0543
  100SAPC   O13 9937   6.684   0.700   2.556  0.3157 -0.1907 -0.8997
  100SAPC   O14 9938   6.866   0.816   2.689 -0.3087 -0.7770  0.0351
  100SAPC   O12 9939   6.690   0.943   2.546 -0.1160 -0.0010  0.3103
  100SAPC   O11 9940   6.625   0.830   2.750 -0.7914 -0.3131 -0.3007
  100SAPC    C1 9941   6.588   0.957   2.806  0.5553 -0.3520 -0.4728
  100SAPC    HA 9942   6.559   1.027   2.724  1.3850 -1.2323 -1.5455
  100SAPC    HB 9943   6.492   0.940   2.858  0.2708 -0.1464 -0.9252
  100SAPC    C2 9944   6.685   1.007   2.912  0.5354 -0.2434  0.5575
  100SAPC    HS 9945   6.787   1.013   2.867  0.2737  0.0768 -0.0114
  100SAPC   O21 9946   6.670   0.912   3.016  0.2812 -1.0431 -0.1772
  100SAPC   C21 9947   6.782   0.893   3.090 -0.2987 -0.7391  0.4155
  100SAPC   O22 9948   6.885   0.954   3.071 -0.0087 -0.1108 -0.0853
  100SAPC   C22 9949   6.763   0.786   3.196  0.2333  0.7471  0.0300
  100SAPC   H2R 9950   6.654   0.770   3.215  0.4166 -1.9866 -0.7284
  100SAPC   H2S 9951   6.810   0.694   3.155 -0.2537  0.7659 -0.5796
  100SAPC    C3 9952   6.635   1.152   2.960 -1.0918  1.1596 -0.2162
  100SAPC    HX 9953   6.533   1.132   2.999 -0.2864  1.1573  2.0205
  100SAPC    HY 9954   6.617   1.215   2.870  1.8149  1.5106 -0.6418
  100SAPC   O31 9955   6.704   1.212   3.061  0.7408 -0.1092 -0.1429
  100SAPC   C31 9956   6.822   1.271   3.020  0.3099  0.2283 -0.6052
  100SAPC   O32 9957   6.856   1.281   2.907  0.1652  0.6019  0.9423
  100SAPC   C32 9958   6.907   1.324   3.147  0.1270 -0.2127  0.0848
  100SAPC   H2X 9959   6.955   1.233   3.188  2.8992  1.1219  0.0277
  100SAPC   H2Y 9960   6.846   1.359   3.233  0.7646 -2.2042  1.4348
  100SAPC   C23 9961   6.847   0.832   3.317 -1.0347  0.0772  0.1254
  100SAPC   H3R 9962   6.942   0.882   3.289 -0.6940 -0.3139  0.5679
  100SAPC   H3S 9963   6.886   0.737   3.359  1.9173  0.4626 -1.4688
  100SAPC   C24 9964   6.767   0.910   3.424  1.0401 -0.7107  0.0518
  100SAPC   H4R 9965   6.816   0.917   3.524 -3.9048  0.6101  2.7113
  100SAPC   H4S 9966   6.668   0.861   3.436  0.1032  1.3722  1.4856
  100SAPC   C25 9967   6.739   1.052   3.389 -0.2730 -0.4761 -0.0153
  100SAPC   H5R 9968   6.701   1.079   3.290  0.0522 -0.3375 -0.1027
  100SAPC   C26 9969   6.772   1.162   3.465  0.9125  0.3460  1.5090
  100SAPC   H6R 9970   6.756   1.258   3.414 -1.2457 -0.5023  0.4420
  100SAPC   C27 9971   6.852   1.167   3.591  0.2542 -0.2116 -0.6381
  100SAPC   H7R 9972   6.942   1.230   3.577  0.1334  0.7465  2.2207
  100SAPC   H7S 9973   6.894   1.069   3.623  0.7509 -0.5070 -2.1207
  100SAPC   C28 9974   6.776   1.246   3.694 -0.7524  0.1753 -0.1651
  100SAPC   H8R 9975   6.725   1.176   3.762  0.2760 -1.4056 -0.9571
  100SAPC   C29 9976   6.771   1.381   3.709  0.2950 -0.4802  0.1594
  100SAPC   H9R 9977   6.714   1.435   3.786  0.3478 -0.6194  0.2952
  100SAPC  C210 9978   6.846   1.482   3.622 -0.0573  0.0816 -0.3988
  100SAPC  H10R 9979   6.924   1.435   3.558  0.2000  0.2784 -0.2311
  100SAPC  H10S 9980   6.895   1.559   3.685  1.7029  0.2236 -1.8799
  100SAPC  C211 9981   6.752   1.532   3.519  0.2794  0.3462 -0.2678
  100SAPC  H11R 9982   6.677   1.464   3.478  0.4425  0.8383 -1.4194
  100SAPC  C212 9983   6.757   1.648   3.454  0.0158 -0.0537  0.5600
  100SAPC  H12R 9984   6.686   1.659   3.371  0.2608  0.7830  0.4586
  100SAPC  C213 9985   6.851   1.758   3.485 -0.2111 -0.4850  0.4231
  100SAPC  H13R 9986   6.947   1.726   3.439 -0.4155 -2.0862  1.0655
  100SAPC  H13S 9987   6.857   1.785   3.592 -1.3152  0.0845  0.3546
  100SAPC  C214 9988   6.820   1.883   3.409 -0.2441 -0.2927 -0.4553
  100SAPC  H14R 9989   6.798   1.856   3.305  1.8732  0.8829 -1.2660
  100SAPC  C215 9990   6.789   2.001   3.463 -0.8333 -0.6561 -0.6652
  100SAPC  H15R 9991   6.764   2.087   3.399 -1.8957 -1.4153 -1.2969
  100SAPC  C216 9992   6.789   2.041   3.614  0.1810  0.5361 -0.3400
  100SAPC  H16R 9993   6.835   2.141   3.629  0.0051  0.7885 -1.4272
  100SAPC  H16S 9994   6.855   1.977   3.676 -2.4021 -0.1649  1.8991
  100SAPC  C217 9995   6.645   2.042   3.674 -0.2146  0.3182 -0.0469
  100SAPC  H17R 9996   6.613   1.936   3.689  0.1785  0.4006  1.5387
  100SAPC  H17S 9997   6.562   2.073   3.607 -3.5851 -1.5380  2.9154
  100SAPC  C218 9998   6.644   2.119   3.808  0.0394 -0.8455 -0.7024
  100SAPC  H18R 9999   6.543   2.102   3.851 -0.3379  0.6925 -0.9298
  100SAPC  H18S10000   6.662   2.226   3.784  1.3907 -0.6277  1.0613
  100SAPC  C21910001   6.741   2.070   3.922 -0.6818 -0.0468  0.0374
  100SAPC  H19R10002   6.844   2.094   3.887 -0.6603 -0.6055 -0.2964
  100SAPC  H19S10003   6.732   1.961   3.942  2.2001 -0.6754 -1.4504
  100SAPC  C22010004   6.741   2.147   4.055 -0.2151 -0.2847 -0.2014
  100SAPC  H20R10005   6.646   2.134   4.110 -0.5932 -0.7404 -0.9380
  100SAPC  H20S10006   6.774   2.252   4.036  0.6746 -0.7929 -1.6358
  100SAPC  H20T10007   6.826   2.104   4.112  0.5809  2.4042  0.7991
  100SAPC   C3310008   7.018   1.431   3.123  0.4195  0.2798  0.0359
  100SAPC   H3X10009   6.984   1.526   3.169 -2.0478  0.5405 -2.0967
  100SAPC   H3Y10010   7.038   1.449   3.015  0.8062  0.7197  0.1783
  100SAPC   C3410011   7.159   1.376   3.168  0.5979  0.5280 -0.4829
  100SAPC   H4X10012   7.234   1.449   3.130  0.5812  1.5185  1.2693
  100SAPC   H4Y10013   7.171   1.279   3.115  1.1092  0.1582  0.2871
  100SAPC   C3510014   7.165   1.359   3.323 -0.2808  0.6824  0.0838
  100SAPC   H5X10015   7.246   1.285   3.341  0.7247  0.4001 -4.4473
  100SAPC   H5Y10016   7.070   1.318   3.362 -0.9149  1.3926 -0.6945
  100SAPC   C3610017   7.209   1.493   3.395  0.5232  0.0154  0.5413
  100SAPC   H6X10018   7.133   1.567   3.361 -0.8383 -1.7861 -0.5342
  100SAPC   H6Y10019   7.313   1.509   3.359  0.9323 -0.4932  1.4786
  100SAPC   C3710020   7.218   1.485   3.545 -0.1647  0.6912 -0.6833
  100SAPC   H7X10021   7.240   1.384   3.585  2.2300  1.6568  0.6541
  100SAPC   H7Y10022   7.118   1.507   3.590  0.0897  2.6167 -0.9735
  100SAPC   C3810023   7.321   1.592   3.588  0.5351 -0.2387  0.0092
  100SAPC   H8X10024   7.296   1.688   3.540  4.5597  0.7487 -0.4640
  100SAPC   H8Y10025   7.422   1.556   3.558  1.6442  2.6971 -0.1122
  100SAPC   C3910026   7.335   1.618   3.742 -0.1943  0.4057  0.1321
  100SAPC   H9X10027   7.434   1.669   3.747  0.8784 -1.5969  0.5189
  100SAPC   H9Y10028   7.332   1.529   3.808 -2.0392  2.5398  3.1269
  100SAPC  C31010029   7.230   1.709   3.798  0.8359 -0.1695 -0.4410
  100SAPC  H10X10030   7.130   1.672   3.767 -0.4991  0.4471  2.7375
  100SAPC  H10Y10031   7.223   1.810   3.752 -1.8328 -0.4633 -0.8172
  100SAPC  C31110032   7.227   1.737   3.947 -1.0400  0.1268 -0.1250
  100SAPC  H11X10033   7.227   1.641   4.002  3.4362  0.3280  0.6361
  100SAPC  H11Y10034   7.142   1.805   3.969 -0.3107  1.3920 -1.0489
  100SAPC  C31210035   7.356   1.804   4.004  0.4557 -0.5012 -0.7955
  100SAPC  H12X10036   7.394   1.879   3.931  2.9880 -0.6929  0.2030
  100SAPC  H12Y10037   7.439   1.731   4.018  1.5801  0.8709  0.0262
  100SAPC  C31310038   7.337   1.866   4.145  0.2201  0.3927 -0.4295
  100SAPC  H13X10039   7.434   1.887   4.195  1.8945 -3.2800 -1.7799
  100SAPC  H13Y10040   7.271   1.793   4.198 -0.1886  0.3563 -0.9780
  100SAPC  C31410041   7.263   2.004   4.137 -0.0609  0.3792 -0.0094
  100SAPC  H14X10042   7.173   1.989   4.073  1.4800 -1.5930 -1.8792
  100SAPC  H14Y10043   7.335   2.074   4.089 -1.1671  1.2021 -0.5281
  100SAPC  C31510044   7.215   2.053   4.272 -0.4906 -0.5301 -0.3649
  100SAPC  H15X10045   7.195   2.162   4.268  0.9798 -0.2776 -1.4721
  100SAPC  H15Y10046   7.294   2.047   4.350 -2.8145 -1.2603  2.0758
  100SAPC  C31610047   7.101   1.966   4.330 -0.4893  1.1156 -0.3749
  100SAPC  H16X10048   7.153   1.869   4.348  1.7229  2.1939 -0.6059
  100SAPC  H16Y10049   7.025   1.950   4.251 -1.7006  1.7073  0.6539
  100SAPC  C31710050   7.018   2.019   4.449 -0.4630  0.2007  0.9590
  100SAPC  H17X10051   7.093   2.035   4.528  0.7407  1.1569 -0.3318
  100SAPC  H17Y10052   6.948   1.938   4.478  2.3952 -1.7264  2.9481
  100SAPC  C31810053   6.946   2.151   4.424 -1.1855  1.5605 -0.1824
  100SAPC  H18X10054   7.019   2.234   4.409 -0.6535  1.2310  0.5503
  100SAPC  H18Y10055   6.880   2.171   4.511 -1.2005 -0.4538  0.3149
  100SAPC  H18Z10056   6.887   2.137   4.330  2.5323  0.4114 -2.5725
  101OSM      N10057   1.864   0.933   7.332  0.3335 -0.3724  0.2510
  101OSM    C1510058   2.015   0.945   7.346 -0.5086  0.0964  0.0566
  101OSM   H15A10059   2.040   1.049   7.335  2.1678 -0.6223 -1.5373
  101OSM   H15B10060   2.050   0.888   7.261 -1.1684 -1.0291  0.5117
  101OSM   H15C10061   2.044   0.900   7.440  0.6399 -0.1910 -0.4201
  101OSM    C1410062   1.828   0.789   7.323 -0.0504  0.3849  0.0058
  101OSM   H14A10063   1.833   0.734   7.416  1.6312  1.5590  0.6711
  101OSM   H14B10064   1.888   0.728   7.257  0.6417  0.9629  0.0970
  101OSM   H14C10065   1.726   0.767   7.296 -0.0846 -1.1741  1.2249
  101OSM    C1310066   1.797   0.983   7.457 -0.3012 -0.3104  0.1767
  101OSM   H13A10067   1.798   1.091   7.463 -0.8533 -0.3980  3.5098
  101OSM   H13B10068   1.849   0.953   7.547  1.7856  0.7461 -0.6033
  101OSM   H13C10069   1.695   0.947   7.451 -0.3128 -0.2952  0.2838
  101OSM    C1210070   1.822   1.008   7.206 -0.7228 -0.1074  0.1014
  101OSM   H12A10071   1.874   0.967   7.121  0.8535 -0.3542  1.1436
  101OSM   H12B10072   1.849   1.112   7.214 -0.2376 -0.0488 -1.8735
  101OSM    C1110073   1.672   1.005   7.173 -0.4618 -0.1978  0.2844
  101OSM   H11A10074   1.646   0.900   7.148  0.0737 -0.0898 -0.7747
  101OSM   H11B10075   1.651   1.071   7.086  1.0955 -0.4060 -0.2887
  101OSM      P10076   1.449   1.012   7.304 -0.1324  0.1289 -0.2023
  101OSM    O1310077   1.429   0.906   7.403  0.2135  0.5964 -0.2640
  101OSM    O1410078   1.375   1.137   7.332  0.6767  0.4591  0.1734
  101OSM    O1110079   1.402   0.954   7.163  0.1192  0.2516 -0.4956
  101OSM    O1210080   1.599   1.049   7.284  0.1230 -0.2481  0.4721
  101OSM    C1S10081   1.346   1.043   7.065  0.2830  0.8460 -0.4775
  101OSM    H1S10082   1.358   1.151   7.089  2.0204  0.2900  1.4138
  101OSM    H1T10083   1.236   1.025   7.060  0.2234  1.0800 -0.0758
  101OSM     NF10084   1.319   1.087   6.827 -0.3362  0.1415 -0.0763
  101OSM    HNF10085   1.253   1.041   6.769 -0.8905  0.5093  0.2584
  101OSM    C2S10086   1.401   1.015   6.922 -0.0580 -0.7433  0.0465
  101OSM    H2S10087   1.503   1.060   6.923  0.0458 -0.9489 -0.6201
  101OSM    C3S10088   1.418   0.864   6.894 -0.1650 -0.1475  0.2544
  101OSM    H3S10089   1.327   0.803   6.911 -0.3341  0.1106  0.2825
  101OSM     O310090   1.517   0.804   6.979  0.2337  0.2948 -0.9937
  101OSM    HO310091   1.510   0.873   7.045  2.5490  0.7889 -1.2072
  101OSM    C4S10092   1.472   0.860   6.755 -0.4685  0.0783 -0.5007
  101OSM    H4S10093   1.569   0.913   6.758  0.6616 -1.9385  0.6255
  101OSM    C5S10094   1.429   0.798   6.642 -0.2155 -0.2194  0.6566
  101OSM    H5S10095   1.334   0.744   6.635  0.5293 -1.5232  0.0266
  101OSM    C6S10096   1.515   0.806   6.514 -0.2753  0.3689 -0.4396
  101OSM    H6S10097   1.530   0.702   6.478 -0.7291 -1.5942  4.3241
  101OSM    H6T10098   1.613   0.850   6.540 -0.4839  0.1214  0.8287
  101OSM    C7S10099   1.447   0.876   6.407  0.6520 -0.4291 -0.2193
  101OSM    H7S10100   1.418   0.980   6.435 -1.4337 -0.9173 -0.3763
  101OSM    H7T10101   1.348   0.835   6.377 -0.3279  1.4728  0.2206
  101OSM    C8S10102   1.537   0.878   6.282 -0.6616  0.0703 -0.5441
  101OSM    H8S10103   1.563   0.770   6.277 -0.1813  0.1751 -0.3320
  101OSM    H8T10104   1.626   0.943   6.298 -0.1659 -1.0124  1.3565
  101OSM    C9S10105   1.458   0.908   6.157 -0.9745  0.8149 -0.4878
  101OSM    H9S10106   1.425   1.014   6.163  1.6260  1.7765 -1.5452
  101OSM    H9T10107   1.373   0.839   6.141 -0.3329 -1.0585  3.2050
  101OSM   C10S10108   1.541   0.901   6.039  0.2585 -0.1666  0.1304
  101OSM   H10S10109   1.602   0.808   6.043 -0.1129 -0.3699  1.5214
  101OSM   H10T10110   1.615   0.983   6.038 -0.8422  0.8846 -2.0093
  101OSM   C11S10111   1.452   0.907   5.915  0.2013  1.1956 -0.4190
  101OSM   H11S10112   1.418   1.012   5.918 -1.4172  0.6954 -0.4924
  101OSM   H11T10113   1.367   0.838   5.932 -0.3098  2.0115  0.4246
  101OSM   C12S10114   1.528   0.875   5.783 -0.9919  0.4837 -0.6647
  101OSM   H12S10115   1.538   0.764   5.783 -0.2059  0.5200  1.0367
  101OSM   H12T10116   1.629   0.919   5.781  0.0670 -1.6400  1.4134
  101OSM   C13S10117   1.446   0.893   5.656 -0.1712 -0.3946 -0.3554
  101OSM   H13S10118   1.394   0.991   5.664 -0.3244 -0.6234  2.3599
  101OSM   H13T10119   1.376   0.808   5.647 -1.6288  0.7854 -0.4860
  101OSM   C14S10120   1.538   0.901   5.534 -0.5873  0.2284 -0.1822
  101OSM   H14S10121   1.588   0.803   5.519  0.4344  0.5134  1.1133
  101OSM   H14T10122   1.624   0.966   5.563 -0.2847 -0.3243  0.1878
  101OSM   C15S10123   1.461   0.948   5.411  0.3127 -0.1676 -0.2901
  101OSM   H15S10124   1.429   1.054   5.424 -0.6875 -0.7581  2.8456
  101OSM   H15T10125   1.374   0.882   5.392  1.4812 -1.1918 -2.6208
  101OSM   C16S10126   1.550   0.951   5.288  0.1662  0.4064  0.0992
  101OSM   H16S10127   1.648   0.996   5.316 -0.3682  1.6217  0.0483
  101OSM   H16T10128   1.499   1.001   5.203 -1.2455 -1.1243  0.0057
  101OSM   C17S10129   1.573   0.817   5.209  0.7254 -0.4225 -0.0089
  101OSM   H17S10130   1.477   0.778   5.169 -0.1661  0.7989  0.8812
  101OSM   H17T10131   1.612   0.753   5.291  3.2569  4.1262  2.7663
  101OSM   C18S10132   1.689   0.822   5.103 -0.4880 -0.4351  0.3618
  101OSM   H18S10133   1.701   0.717   5.069 -0.4321 -0.3978  0.2692
  101OSM   H18T10134   1.782   0.854   5.155 -2.0082  0.9157  2.4386
  101OSM   H18U10135   1.672   0.894   5.020  0.8461 -0.8157 -0.2542
  101OSM    C1F10136   1.343   1.218   6.805  0.0427 -0.5808 -0.1476
  101OSM     OF10137   1.455   1.264   6.829 -0.2490  0.1619  0.5216
  101OSM    C2F10138   1.230   1.297   6.750  0.1214 -0.2117  0.0131
  101OSM    H2F10139   1.177   1.345   6.836  1.0897  1.3898 -0.2417
  101OSM    H2G10140   1.155   1.225   6.709 -0.1376  0.7898 -1.3280
  101OSM    C3F10141   1.269   1.400   6.640  0.6060 -1.2023 -0.2759
  101OSM    H3F10142   1.332   1.484   6.678 -1.0796  0.3809 -0.8144
  101OSM    H3G10143   1.179   1.464   6.623  0.5198  0.2061  4.1563
  101OSM    C4F10144   1.325   1.339   6.503 -0.1707 -0.5307 -0.8008
  101OSM    H4F10145   1.261   1.250   6.481 -0.9978  0.4162 -2.5058
  101OSM    H4G10146   1.427   1.315   6.538 -0.4203 -0.5813 -0.0856
  101OSM    C5F10147   1.332   1.437   6.382 -0.2654  0.1662 -0.5573
  101OSM    H5F10148   1.365   1.531   6.432  1.1723 -1.8836  2.6555
  101OSM    H5G10149   1.230   1.438   6.338  0.3597 -1.1689 -2.1334
  101OSM    C6F10150   1.436   1.390   6.269 -0.5808  0.2262 -0.9204
  101OSM    H6F10151   1.420   1.287   6.230 -0.6059  0.2325 -0.9270
  101OSM    H6G10152   1.537   1.391   6.315 -0.2233 -0.4122 -1.6667
  101OSM    C7F10153   1.424   1.485   6.147  0.2373 -0.6772  0.6851
  101OSM    H7F10154   1.520   1.504   6.096 -0.5464  0.8883 -0.3131
  101OSM    H7G10155   1.402   1.588   6.183 -1.9024 -0.7140 -0.3255
  101OSM    C8F10156   1.319   1.442   6.036 -0.8679  0.1420  0.3367
  101OSM    H8F10157   1.222   1.419   6.086 -1.5067  1.2571 -0.3533
  101OSM    H8G10158   1.346   1.347   5.986  0.0761  1.2245 -1.2835
  101OSM    C9F10159   1.302   1.549   5.934 -0.2276  0.2004 -0.3754
  101OSM    H9F10160   1.278   1.652   5.964  0.2022 -0.5697  3.0423
  101OSM   C10F10161   1.318   1.522   5.802  0.1529  0.2571  0.1002
  101OSM   H10F10162   1.300   1.606   5.734  2.2588  1.4542  0.9388
  101OSM   C11F10163   1.344   1.387   5.723  0.2106  0.1799 -0.1292
  101OSM   H11F10164   1.257   1.377   5.655  0.6939 -0.4598 -0.6647
  101OSM   H11G10165   1.335   1.292   5.779 -1.4367  1.6547  2.3334
  101OSM   C12F10166   1.473   1.377   5.646  0.5526  0.1499 -0.9207
  101OSM   H12F10167   1.500   1.270   5.644 -2.6754 -0.8282  1.1846
  101OSM   H12G10168   1.554   1.430   5.700 -1.2943  0.6533  1.5274
  101OSM   C13F10169   1.457   1.442   5.507  0.7167 -0.1039 -0.2927
  101OSM   H13F10170   1.440   1.551   5.522 -0.2393 -0.3432  0.5022
  101OSM   H13G10171   1.365   1.402   5.459  0.5544 -0.3341  0.1984
  101OSM   C14F10172   1.572   1.394   5.410 -0.1331  0.0156  0.1406
  101OSM   H14F10173   1.574   1.284   5.398  3.6705 -0.1244  0.7631
  101OSM   H14G10174   1.667   1.404   5.467  0.7871 -0.8807 -1.1774
  101OSM   C15F10175   1.583   1.466   5.274  0.4072  0.9911  0.5360
  101OSM   H15F10176   1.683   1.439   5.233  0.8325 -0.4086  2.3748
  101OSM   H15G10177   1.577   1.575   5.291 -4.3058  1.0968 -0.4801
  101OSM   C16F10178   1.480   1.424   5.174  0.5682 -0.0476  0.3382
  101OSM   H16F10179   1.380   1.429   5.222 -0.2160  1.7051 -1.3203
  101OSM   H16G10180   1.484   1.318   5.140 -0.3006  0.4172 -1.3412
  101OSM   C17F10181   1.482   1.494   5.040  0.4113 -0.0660  1.1837
  101OSM   H17F10182   1.415   1.452   4.962  2.6903 -0.4709 -0.6732
  101OSM   H17G10183   1.579   1.486   4.987 -0.6021 -1.6148 -0.5316
  101OSM   C18F10184   1.455   1.642   5.072  0.3860  0.3335  0.3369
  101OSM   H18F10185   1.361   1.644   5.131  0.4914  0.8446  0.4898
  101OSM   H18G10186   1.423   1.694   4.979 -1.4418  0.8452  1.2104
  101OSM   H18H10187   1.534   1.702   5.122 -0.3975  2.2647 -0.6369
  102OSM      N10188   2.290   1.568   7.444 -0.1709 -0.1840  0.0205
  102OSM    C1510189   2.425   1.565   7.516  0.0010 -0.1323 -0.2962
  102OSM   H15A10190   2.421   1.614   7.612  1.1817 -2.8251  1.2305
  102OSM   H15B10191   2.499   1.618   7.458 -0.5344  1.1222  0.1318
  102OSM   H15C10192   2.461   1.466   7.539  1.0265  0.6262  1.6807
  102OSM    C1410193   2.211   1.458   7.506 -0.0174 -0.0089 -0.1069
  102OSM   H14A10194   2.121   1.431   7.453  0.6734  0.4126 -1.5497
  102OSM   H14B10195   2.182   1.485   7.607  1.6560  1.8544 -0.0569
  102OSM   H14C10196   2.272   1.370   7.520  0.0374  0.3176  2.1824
  102OSM    C1310197   2.237   1.702   7.478  0.3089 -0.4647 -0.1068
  102OSM   H13A10198   2.320   1.766   7.504  0.2783 -0.3873 -0.1976
  102OSM   H13B10199   2.171   1.697   7.563  0.5613  1.2041  0.2152
  102OSM   H13C10200   2.178   1.744   7.397  1.7237  1.0643 -0.3926
  102OSM    C1210201   2.310   1.547   7.292  0.2007  0.1404 -0.2821
  102OSM   H12A10202   2.363   1.636   7.265 -1.1374  0.9658 -0.3025
  102OSM   H12B10203   2.212   1.560   7.247 -0.3783 -0.5193  0.7479
  102OSM    C1110204   2.394   1.427   7.238  0.2742 -0.4817  0.1948
  102OSM   H11A10205   2.487   1.421   7.297  0.3108  2.1171  0.4889
  102OSM   H11B10206   2.422   1.453   7.133 -0.2901  0.4718  0.2748
  102OSM      P10207   2.198   1.277   7.149 -0.0321 -0.0812 -0.2194
  102OSM    O1310208   2.087   1.242   7.241  0.0492 -0.5364  0.2474
  102OSM    O1410209   2.181   1.385   7.055  0.3411 -0.3644  0.4011
  102OSM    O1110210   2.245   1.161   7.072 -0.1130  0.3659  0.7950
  102OSM    O1210211   2.328   1.301   7.239 -0.1328 -0.7477  0.0920
  102OSM    C1S10212   2.150   1.085   6.991  0.2917  0.2161 -0.8375
  102OSM    H1S10213   2.047   1.086   7.035  1.1373 -2.3490  1.4898
  102OSM    H1T10214   2.170   0.975   6.993 -3.4778 -0.6069  0.3485
  102OSM     NF10215   2.010   1.091   6.799 -0.4999 -0.0217  0.1260
  102OSM    HNF10216   2.017   1.015   6.735 -0.3568 -0.9715  1.2346
  102OSM    C2S10217   2.134   1.131   6.852 -0.0983 -0.2496  0.0809
  102OSM    H2S10218   2.133   1.242   6.847  0.1934 -0.2674 -0.4728
  102OSM    C3S10219   2.265   1.089   6.779  0.2390  0.9759 -0.5083
  102OSM    H3S10220   2.270   0.978   6.781  1.3104  1.0285  0.2484
  102OSM     O310221   2.388   1.117   6.850 -0.4130  0.7906  0.2815
  102OSM    HO310222   2.356   1.133   6.939  0.8396  0.0540  0.9081
  102OSM    C4S10223   2.269   1.129   6.640  0.2986 -0.2059 -0.3992
  102OSM    H4S10224   2.216   1.058   6.575  0.9707 -1.2143  0.1357
  102OSM    C5S10225   2.343   1.230   6.582  0.0437 -0.5217  0.2063
  102OSM    H5S10226   2.403   1.290   6.653  0.3151  0.9442 -1.2090
  102OSM    C6S10227   2.348   1.258   6.435  0.2214  0.3620  0.3523
  102OSM    H6S10228   2.448   1.303   6.419  1.1148 -1.3663  0.8426
  102OSM    H6T10229   2.271   1.328   6.397  2.4368  3.9768  2.0387
  102OSM    C7S10230   2.343   1.128   6.352 -0.3599  0.5999  0.0873
  102OSM    H7S10231   2.252   1.067   6.369  1.3113 -1.8057  0.9574
  102OSM    H7T10232   2.422   1.059   6.388 -0.2704 -0.0007 -1.1882
  102OSM    C8S10233   2.357   1.161   6.202  0.5301  0.4885 -0.1281
  102OSM    H8S10234   2.457   1.203   6.180  0.8948  0.0437  0.6512
  102OSM    H8T10235   2.277   1.236   6.184 -0.9011 -0.8171  0.5644
  102OSM    C9S10236   2.332   1.035   6.114 -0.3620  0.2366 -0.1282
  102OSM    H9S10237   2.259   0.974   6.172 -0.9518  0.9458 -0.1070
  102OSM    H9T10238   2.417   0.966   6.096  1.0599  1.7601  0.5715
  102OSM   C10S10239   2.280   1.063   5.971 -0.2701  0.6398  0.0059
  102OSM   H10S10240   2.355   1.118   5.910  1.9066 -0.9307  1.1228
  102OSM   H10T10241   2.183   1.117   5.981 -1.1102 -0.7016 -0.6212
  102OSM   C11S10242   2.261   0.923   5.902  0.4569 -0.4171 -0.4722
  102OSM   H11S10243   2.194   0.865   5.970 -3.9001  4.7787  0.4421
  102OSM   H11T10244   2.358   0.869   5.896  0.0294 -1.3985  0.9739
  102OSM   C12S10245   2.191   0.949   5.763 -0.6189  0.7209  0.2477
  102OSM   H12S10246   2.257   1.005   5.694 -0.2416 -0.1091 -0.0758
  102OSM   H12T10247   2.093   1.000   5.773 -2.8678 -3.0451 -0.4077
  102OSM   C13S10248   2.160   0.814   5.688  0.1527 -0.2515 -0.0072
  102OSM   H13S10249   2.062   0.818   5.636  0.0519  0.3169  0.2264
  102OSM   H13T10250   2.165   0.734   5.765 -1.1049  0.2999  0.6603
  102OSM   C14S10251   2.266   0.788   5.579  0.5472  0.1101  0.9252
  102OSM   H14S10252   2.254   0.683   5.545 -3.4520  0.2803  1.2750
  102OSM   H14T10253   2.368   0.788   5.622  0.4472 -0.2545  1.1653
  102OSM   C15S10254   2.244   0.881   5.454 -0.3432 -0.6405 -0.2720
  102OSM   H15S10255   2.275   0.983   5.485  0.1141 -0.4186 -1.4261
  102OSM   H15T10256   2.138   0.875   5.422 -1.1395 -0.2646  2.0575
  102OSM   C16S10257   2.333   0.846   5.333 -0.7037 -0.5183 -0.3111
  102OSM   H16S10258   2.334   0.738   5.307 -1.1444 -0.6131  0.0647
  102OSM   H16T10259   2.434   0.864   5.377 -2.0107 -0.4563  2.9673
  102OSM   C17S10260   2.315   0.922   5.199  0.5205 -0.5158  0.0597
  102OSM   H17S10261   2.409   0.913   5.140  0.5170 -0.2118  0.0018
  102OSM   H17T10262   2.309   1.029   5.230  0.1241 -0.7215  0.7118
  102OSM   C18S10263   2.193   0.898   5.111 -0.0162  0.0721  0.5462
  102OSM   H18S10264   2.191   0.792   5.078  0.6830  0.3215 -0.3434
  102OSM   H18T10265   2.204   0.960   5.019  0.1098 -0.9177 -0.1173
  102OSM   H18U10266   2.101   0.920   5.168 -0.4808 -1.7695  0.5595
  102OSM    C1F10267   1.892   1.142   6.831 -0.3200  1.1476 -0.6555
  102OSM     OF10268   1.878   1.208   6.934  0.3423  0.1449 -0.3403
  102OSM    C2F10269   1.781   1.121   6.740  0.2195  0.0284  0.7875
  102OSM    H2F10270   1.689   1.095   6.797 -1.2356  1.1118 -0.9391
  102OSM    H2G10271   1.785   1.037   6.668 -3.1249  0.7967 -0.5102
  102OSM    C3F10272   1.752   1.256   6.676 -0.1505  0.1809  0.1473
  102OSM    H3F10273   1.729   1.338   6.747  0.4138  1.1530 -0.7748
  102OSM    H3G10274   1.653   1.245   6.627  0.8874  1.6481 -2.4738
  102OSM    C4F10275   1.846   1.301   6.561  0.1516  0.4011 -0.3502
  102OSM    H4F10276   1.945   1.317   6.608 -0.4100  1.3219  0.5571
  102OSM    H4G10277   1.815   1.400   6.522 -0.0876  0.9045  1.0558
  102OSM    C5F10278   1.861   1.204   6.443 -0.0601 -0.0259 -0.5336
  102OSM    H5F10279   1.764   1.187   6.391  1.0066  0.0680 -2.6462
  102OSM    H5G10280   1.907   1.110   6.480  1.3732  1.2116  0.9888
  102OSM    C6F10281   1.943   1.266   6.327  0.2265  0.3755  0.1739
  102OSM    H6F10282   2.044   1.295   6.363  1.1558 -1.3432 -0.9090
  102OSM    H6G10283   1.881   1.352   6.292 -0.2712 -0.1159 -0.1728
  102OSM    C7F10284   1.980   1.176   6.205 -0.2333 -0.0696  0.1448
  102OSM    H7F10285   2.050   1.104   6.253 -1.0235 -1.8852 -1.2954
  102OSM    H7G10286   2.042   1.229   6.130  0.2843 -0.0624  0.5647
  102OSM    C8F10287   1.861   1.109   6.148 -0.0366  0.1030  0.2988
  102OSM    H8F10288   1.809   1.049   6.225  0.8060 -0.1164  0.7147
  102OSM    H8G10289   1.900   1.039   6.071  0.6282  0.3087  0.4367
  102OSM    C9F10290   1.770   1.206   6.084 -0.5211  0.1350 -0.3356
  102OSM    H9F10291   1.709   1.268   6.152 -0.0612  0.5380 -0.2919
  102OSM   C10F10292   1.773   1.231   5.952 -0.3905 -0.3112  0.3207
  102OSM   H10F10293   1.710   1.310   5.910 -1.4948 -2.1449 -1.6637
  102OSM   C11F10294   1.875   1.180   5.847  0.2664  0.4135 -0.2465
  102OSM   H11F10295   1.880   1.069   5.843  0.7155  0.4633 -1.6254
  102OSM   H11G10296   1.981   1.215   5.848  1.4177 -2.7692  0.8386
  102OSM   C12F10297   1.832   1.211   5.698  0.7266 -0.5729 -0.4160
  102OSM   H12F10298   1.810   1.319   5.686  2.1261 -0.4550 -2.4448
  102OSM   H12G10299   1.737   1.158   5.678 -1.7817  1.9837  3.3963
  102OSM   C13F10300   1.948   1.179   5.603 -0.0008 -0.1563  0.1478
  102OSM   H13F10301   1.964   1.069   5.593 -0.3314 -0.1057 -1.1767
  102OSM   H13G10302   2.047   1.207   5.644  0.1087 -1.9835  1.2287
  102OSM   C14F10303   1.918   1.229   5.460  0.2535  0.2030 -0.0913
  102OSM   H14F10304   1.896   1.336   5.441  1.1941  0.3636 -0.3405
  102OSM   H14G10305   1.833   1.166   5.428  2.6088 -3.2603 -0.0351
  102OSM   C15F10306   2.018   1.194   5.355  0.0191 -0.2914 -0.3005
  102OSM   H15F10307   2.026   1.087   5.329  0.8523 -0.4319  0.4748
  102OSM   H15G10308   2.116   1.237   5.388  1.0413 -1.0780 -2.1589
  102OSM   C16F10309   2.007   1.258   5.218  0.6304 -0.2563  0.4860
  102OSM   H16F10310   2.099   1.251   5.155  0.1477 -0.3756 -0.2232
  102OSM   H16G10311   1.975   1.364   5.229 -1.5965 -0.7647 -0.3806
  102OSM   C17F10312   1.887   1.194   5.133  0.4159  0.0916  0.7233
  102OSM   H17F10313   1.796   1.180   5.196 -0.4012 -0.9684 -0.6246
  102OSM   H17G10314   1.910   1.094   5.089 -0.2372  0.9279 -1.6258
  102OSM   C18F10315   1.850   1.287   5.015 -0.4167 -0.3113 -0.3196
  102OSM   H18F10316   1.755   1.277   4.959  0.4462  1.3660 -2.2004
  102OSM   H18G10317   1.927   1.298   4.936 -0.4300  0.3154 -0.2504
  102OSM   H18H10318   1.831   1.389   5.055 -0.2126  0.7227 -2.7082
  103OSM      N10319   2.829   3.250   7.353  0.0812  0.2960 -0.4226
  103OSM    C1510320   2.939   3.200   7.441 -0.1580 -0.1727 -0.1032
  103OSM   H15A10321   3.023   3.166   7.382  0.5247 -0.0955  0.8039
  103OSM   H15B10322   2.922   3.111   7.500  2.0306 -0.4680  0.1685
  103OSM   H15C10323   2.979   3.275   7.506 -3.6273  0.5366  1.4439
  103OSM    C1410324   2.718   3.302   7.441  0.1997 -0.5102  0.4848
  103OSM   H14A10325   2.634   3.338   7.384  0.3485 -1.5550 -0.4188
  103OSM   H14B10326   2.761   3.381   7.502 -2.0433  1.0836  0.1083
  103OSM   H14C10327   2.685   3.215   7.496 -0.8076 -0.8755 -0.6640
  103OSM    C1310328   2.866   3.366   7.263 -0.1828 -0.2130 -0.6017
  103OSM   H13A10329   2.789   3.389   7.191 -1.2615 -0.7787  0.3325
  103OSM   H13B10330   2.954   3.332   7.210  1.5583  1.1623  1.2737
  103OSM   H13C10331   2.906   3.444   7.326  0.7938 -0.5928 -0.7334
  103OSM    C1210332   2.777   3.148   7.263  0.9269  0.0699 -0.2888
  103OSM   H12A10333   2.863   3.104   7.215  2.1221  1.1910  0.7525
  103OSM   H12B10334   2.712   3.198   7.193  2.9621  1.9833 -0.9225
  103OSM    C1110335   2.696   3.031   7.327  0.0294 -0.1514 -0.5760
  103OSM   H11A10336   2.751   3.004   7.420  0.3684  0.2026 -0.6717
  103OSM   H11B10337   2.703   2.951   7.250 -0.0626  1.8720 -2.7802
  103OSM      P10338   2.443   2.955   7.382  0.1213 -0.3157  0.5165
  103OSM    O1310339   2.496   2.817   7.409 -0.4099  0.7372 -0.1504
  103OSM    O1410340   2.346   3.012   7.485 -0.6266  0.5701  0.0303
  103OSM    O1110341   2.375   2.954   7.238 -0.0271  0.1425  0.5067
  103OSM    O1210342   2.557   3.059   7.366 -0.3410  0.2179 -0.5534
  103OSM    C1S10343   2.314   3.070   7.184 -0.5042 -0.2942 -0.2277
  103OSM    H1S10344   2.396   3.142   7.161 -0.7661  0.2083  0.3746
  103OSM    H1T10345   2.252   3.114   7.265 -1.4983 -1.6784 -0.2042
  103OSM     NF10346   2.194   3.172   6.994  0.5694  0.1556 -0.8742
  103OSM    HNF10347   2.103   3.203   7.020  0.8427  0.8214 -0.6975
  103OSM    C2S10348   2.231   3.047   7.058  0.4717  0.1269 -0.5278
  103OSM    H2S10349   2.297   2.989   6.990 -2.5810 -2.7537 -1.3009
  103OSM    C3S10350   2.100   2.963   7.091  0.0127  0.1517  0.1757
  103OSM    H3S10351   2.032   3.031   7.146  0.2417 -0.5861  1.4197
  103OSM     O310352   2.117   2.859   7.180  0.1913  0.0972  0.5935
  103OSM    HO310353   2.211   2.859   7.197  0.5141 -2.4043 -0.7919
  103OSM    C4S10354   2.035   2.917   6.958  0.2629 -0.2587 -0.3796
  103OSM    H4S10355   1.972   2.995   6.913 -1.1626 -1.8739 -1.3298
  103OSM    C5S10356   2.034   2.802   6.892  0.0355  0.6603 -0.0392
  103OSM    H5S10357   2.109   2.724   6.914 -1.7447 -1.6914 -1.7899
  103OSM    C6S10358   1.960   2.779   6.767  0.4083 -0.2975  0.1702
  103OSM    H6S10359   1.903   2.870   6.739 -0.3082 -0.5008  0.9172
  103OSM    H6T10360   1.889   2.696   6.788  0.9337 -1.1249 -1.1657
  103OSM    C7S10361   2.065   2.757   6.655 -0.0077  0.3402  0.1896
  103OSM    H7S10362   2.147   2.685   6.678  1.6589  2.3793  0.9373
  103OSM    H7T10363   2.117   2.855   6.646  1.0707 -0.1890  0.4459
  103OSM    C8S10364   2.015   2.713   6.521 -0.4109 -0.0213  0.7345
  103OSM    H8S10365   1.928   2.776   6.494 -1.1109 -0.6046  1.5450
  103OSM    H8T10366   1.986   2.606   6.526 -0.0370 -0.1923 -0.5239
  103OSM    C9S10367   2.129   2.708   6.420 -0.1450 -0.3993  0.8431
  103OSM    H9S10368   2.208   2.635   6.448 -0.2216 -0.6012  0.5384
  103OSM    H9T10369   2.172   2.809   6.406  1.9427 -1.3380  0.1682
  103OSM   C10S10370   2.082   2.650   6.284  0.3302 -0.1543 -0.5490
  103OSM   H10S10371   1.993   2.708   6.249 -0.0529  1.0826  2.2393
  103OSM   H10T10372   2.051   2.546   6.307  1.5577  0.0807  2.5649
  103OSM   C11S10373   2.193   2.656   6.173 -0.1124  0.1456 -0.5027
  103OSM   H11S10374   2.288   2.618   6.217  0.1609  0.9964 -0.3376
  103OSM   H11T10375   2.212   2.762   6.147  1.4473 -0.0448 -0.2467
  103OSM   C12S10376   2.157   2.571   6.053  0.2806 -0.8959 -0.2528
  103OSM   H12S10377   2.053   2.599   6.023  0.1337 -1.5818 -0.3877
  103OSM   H12T10378   2.158   2.464   6.083 -3.2237 -1.3964 -1.3981
  103OSM   C13S10379   2.248   2.600   5.936 -0.1311  0.3433 -0.1373
  103OSM   H13S10380   2.354   2.604   5.969 -0.1391  1.0103 -0.1677
  103OSM   H13T10381   2.229   2.700   5.891  1.8321 -0.3332 -2.7086
  103OSM   C14S10382   2.217   2.511   5.817 -0.7909 -0.1804  0.6390
  103OSM   H14S10383   2.110   2.531   5.794  0.0063  2.1587 -1.4425
  103OSM   H14T10384   2.228   2.405   5.850  0.8648 -0.4813 -0.7668
  103OSM   C15S10385   2.298   2.545   5.687 -0.1578  0.0137 -0.5954
  103OSM   H15S10386   2.404   2.530   5.717  0.5346  2.1920 -1.7881
  103OSM   H15T10387   2.296   2.654   5.666  1.7874  0.3217  0.5531
  103OSM   C16S10388   2.256   2.471   5.558  0.3246  0.4890  0.0593
  103OSM   H16S10389   2.166   2.519   5.515  0.1357 -1.6678 -2.1513
  103OSM   H16T10390   2.232   2.369   5.596 -1.2678 -0.0349 -2.1702
  103OSM   C17S10391   2.355   2.461   5.443 -0.6149  0.0747 -0.6769
  103OSM   H17S10392   2.433   2.393   5.482  0.1603  2.6460  2.7845
  103OSM   H17T10393   2.389   2.564   5.418 -0.2731 -0.2474 -1.5753
  103OSM   C18S10394   2.307   2.390   5.317 -0.0202  0.2446 -0.0693
  103OSM   H18S10395   2.217   2.439   5.275  0.2341 -0.1423 -1.0766
  103OSM   H18T10396   2.285   2.287   5.353  0.1642  0.9396  2.2163
  103OSM   H18U10397   2.375   2.383   5.230 -2.0458  0.9737 -1.7875
  103OSM    C1F10398   2.285   3.254   6.945  0.2910  0.6157 -0.0191
  103OSM     OF10399   2.392   3.222   6.905  0.6550  0.4238 -0.0297
  103OSM    C2F10400   2.246   3.396   6.931  0.1972  0.4134 -0.4749
  103OSM    H2F10401   2.308   3.447   7.008 -0.6441 -0.6389  0.9433
  103OSM    H2G10402   2.141   3.406   6.967  0.6803  0.1784  1.0690
  103OSM    C3F10403   2.269   3.468   6.797 -0.3215  0.1694  0.2439
  103OSM    H3F10404   2.374   3.458   6.762 -0.6198 -0.0045 -0.6276
  103OSM    H3G10405   2.252   3.577   6.807  0.7071  0.2976  0.7656
  103OSM    C4F10406   2.177   3.417   6.686 -0.0839 -0.2535  0.3519
  103OSM    H4F10407   2.077   3.450   6.722 -0.2979  0.5440 -0.9084
  103OSM    H4G10408   2.171   3.307   6.671  0.2321 -0.2680  0.3232
  103OSM    C5F10409   2.211   3.485   6.552  0.0475 -0.4222 -0.3922
  103OSM    H5F10410   2.305   3.436   6.518 -0.3129 -3.3680  2.3446
  103OSM    H5G10411   2.238   3.591   6.567  1.3156 -0.7084 -0.5032
  103OSM    C6F10412   2.102   3.474   6.450  0.3824  0.4475  0.1937
  103OSM    H6F10413   2.009   3.514   6.496  0.7056 -1.6507  2.9265
  103OSM    H6G10414   2.095   3.371   6.410  0.7563  0.2414  0.6546
  103OSM    C7F10415   2.139   3.564   6.336  0.0248 -0.1613 -0.2701
  103OSM    H7F10416   2.242   3.538   6.303  0.0983 -0.1280 -0.0724
  103OSM    H7G10417   2.145   3.671   6.368 -1.3196 -0.3063  0.5291
  103OSM    C8F10418   2.046   3.576   6.210  0.1116  0.0730 -0.0693
  103OSM    H8F10419   1.946   3.610   6.243  0.4096 -0.5425  1.5579
  103OSM    H8G10420   2.037   3.476   6.163  3.5296 -0.0509 -0.7226
  103OSM    C9F10421   2.080   3.681   6.108 -0.3700  0.0568  0.5677
  103OSM    H9F10422   2.082   3.781   6.153 -0.3889 -0.0074  0.7092
  103OSM   C10F10423   2.099   3.668   5.975 -0.3802 -0.4662  0.1542
  103OSM   H10F10424   2.134   3.757   5.921  0.2926  0.3098  1.7969
  103OSM   C11F10425   2.094   3.541   5.893 -0.5256 -0.5376 -0.5082
  103OSM   H11F10426   1.997   3.537   5.839 -1.4223 -1.8555  1.1074
  103OSM   H11G10427   2.092   3.449   5.955 -1.9494  0.8735  1.6711
  103OSM   C12F10428   2.202   3.528   5.779  0.3850 -0.6218  0.2094
  103OSM   H12F10429   2.207   3.432   5.723  3.5609 -0.7216  0.4866
  103OSM   H12G10430   2.304   3.537   5.822  1.5175 -2.6257 -1.8389
  103OSM   C13F10431   2.186   3.639   5.674 -0.1678  0.5483 -0.0891
  103OSM   H13F10432   2.274   3.642   5.607 -0.1597 -2.0104 -0.2993
  103OSM   H13G10433   2.182   3.738   5.724 -1.0742  1.4594 -1.8613
  103OSM   C14F10434   2.065   3.619   5.578  0.0612  0.3549  0.2087
  103OSM   H14F10435   1.985   3.592   5.650 -1.3555  0.8794 -1.1244
  103OSM   H14G10436   2.066   3.529   5.514 -0.7924 -3.4249  4.8962
  103OSM   C15F10437   2.031   3.742   5.500  0.1376 -0.0317  0.1690
  103OSM   H15F10438   2.058   3.827   5.566  1.2351  0.5712 -1.0367
  103OSM   H15G10439   1.926   3.768   5.475  0.5164  0.8311 -0.5740
  103OSM   C16F10440   2.116   3.743   5.376 -0.2439 -0.7493 -0.0793
  103OSM   H16F10441   2.126   3.651   5.315  4.0260 -0.2252 -0.4673
  103OSM   H16G10442   2.218   3.781   5.396 -0.3021  0.6076 -2.0363
  103OSM   C17F10443   2.081   3.862   5.273 -0.2274  0.1951  0.5537
  103OSM   H17F10444   2.085   3.963   5.319 -0.2057  0.7657 -0.6476
  103OSM   H17G10445   1.978   3.843   5.236 -0.1141 -1.5340  1.0292
  103OSM   C18F10446   2.171   3.872   5.142 -0.0592  0.1202 -0.0973
  103OSM   H18F10447   2.140   3.943   5.063  2.6330  0.7055 -0.7194
  103OSM   H18G10448   2.176   3.774   5.090 -0.5093 -0.2387  0.5228
  103OSM   H18H10449   2.275   3.885   5.180 -0.3991  2.5790  0.1390
  104OSM      N10450   3.873   4.309   7.607 -0.5078  0.0275 -0.2742
  104OSM    C1510451   3.751   4.338   7.692  0.3307 -0.1864 -0.3069
  104OSM   H15A10452   3.680   4.257   7.685  0.3112 -0.2723  0.7517
  104OSM   H15B10453   3.702   4.430   7.664  1.7664 -0.0596 -2.6410
  104OSM   H15C10454   3.766   4.349   7.799 -1.6413 -2.6805  0.3164
  104OSM    C1410455   3.971   4.419   7.622 -0.0319  0.0623  0.5830
  104OSM   H14A10456   3.943   4.508   7.568  0.2857 -0.4658 -0.5035
  104OSM   H14B10457   4.054   4.384   7.562 -0.9755 -0.1107 -0.6851
  104OSM   H14C10458   3.991   4.455   7.721  0.5830 -0.8516  0.7991
  104OSM    C1310459   3.938   4.187   7.667 -0.2452 -0.0559  0.1011
  104OSM   H13A10460   4.024   4.145   7.618  2.4791  1.4420  3.1706
  104OSM   H13B10461   3.860   4.112   7.671 -3.4004  2.9532  1.3049
  104OSM   H13C10462   3.966   4.199   7.771  0.3855 -0.8643  0.0251
  104OSM    C1210463   3.834   4.273   7.465 -0.7032  0.6353 -0.5610
  104OSM   H12A10464   3.777   4.182   7.480 -0.0726  0.2845 -0.2630
  104OSM   H12B10465   3.918   4.236   7.409 -1.3245 -2.6330  0.4064
  104OSM    C1110466   3.753   4.362   7.379 -0.1745  0.0309 -0.0050
  104OSM   H11A10467   3.668   4.388   7.446  2.2850 -0.3902  3.5183
  104OSM   H11B10468   3.718   4.310   7.287 -2.8931  0.3210  0.7653
  104OSM      P10469   3.911   4.479   7.214  0.2664  0.0704 -0.1105
  104OSM    O1310470   3.974   4.613   7.210  0.2136  0.4662  0.1683
  104OSM    O1410471   4.005   4.365   7.222 -0.4255  0.2377  0.1191
  104OSM    O1110472   3.812   4.463   7.095  0.3086 -0.2692 -0.0686
  104OSM    O1210473   3.818   4.480   7.342 -0.1720  0.5518 -1.0047
  104OSM    C1S10474   3.715   4.559   7.053 -0.4000 -0.3807  0.4887
  104OSM    H1S10475   3.764   4.647   7.006  0.3377 -1.5471 -1.0247
  104OSM    H1T10476   3.659   4.597   7.141 -0.0837 -1.7636  1.2963
  104OSM     NF10477   3.583   4.583   6.834 -0.2391  0.1783  0.1234
  104OSM    HNF10478   3.507   4.645   6.848 -1.4727 -1.2786  0.1701
  104OSM    C2S10479   3.624   4.491   6.940 -1.0303 -0.4054 -0.3622
  104OSM    H2S10480   3.697   4.418   6.899  0.7720  0.6493  0.8790
  104OSM    C3S10481   3.503   4.414   7.002  0.0619  0.9507  0.4451
  104OSM    H3S10482   3.429   4.478   7.055 -1.8229 -1.0162  0.3560
  104OSM     O310483   3.549   4.324   7.099  0.0676  0.1029  0.1180
  104OSM    HO310484   3.645   4.323   7.102  0.1267  0.8862 -0.9009
  104OSM    C4S10485   3.424   4.353   6.890 -0.0373 -0.2698 -0.3385
  104OSM    H4S10486   3.491   4.324   6.808  1.8936  1.3599  0.5895
  104OSM    C5S10487   3.292   4.350   6.867 -0.1180 -0.0084 -0.0393
  104OSM    H5S10488   3.225   4.394   6.943  0.5596  1.3194 -0.1857
  104OSM    C6S10489   3.226   4.282   6.751 -0.6846 -1.1839  0.6185
  104OSM    H6S10490   3.146   4.356   6.728  0.1165 -0.5441 -0.1646
  104OSM    H6T10491   3.198   4.176   6.768  2.7010 -2.0963  1.3108
  104OSM    C7S10492   3.314   4.273   6.618  0.3367 -0.1969 -0.1243
  104OSM    H7S10493   3.407   4.214   6.632  0.4534  0.1647  0.6956
  104OSM    H7T10494   3.353   4.375   6.597  0.4514 -0.2505 -0.1725
  104OSM    C8S10495   3.230   4.220   6.499 -0.0596  0.6377  0.4890
  104OSM    H8S10496   3.131   4.185   6.537  1.3271 -1.8336  2.1047
  104OSM    H8T10497   3.279   4.125   6.466  0.0894  0.9800 -0.3025
  104OSM    C9S10498   3.226   4.323   6.384  0.2954  0.1591  0.2392
  104OSM    H9S10499   3.330   4.339   6.348  0.1839  0.4035  0.0194
  104OSM    H9T10500   3.191   4.423   6.417  0.7367  0.1066  0.9038
  104OSM   C10S10501   3.144   4.263   6.264 -1.2193 -0.1312  0.6609
  104OSM   H10S10502   3.037   4.253   6.290 -0.7943 -1.2359  2.1509
  104OSM   H10T10503   3.180   4.158   6.250 -1.4786 -0.3518  1.5572
  104OSM   C11S10504   3.149   4.348   6.132 -0.2846 -0.0976 -0.0289
  104OSM   H11S10505   3.245   4.343   6.077  0.9180  3.0541  1.4888
  104OSM   H11T10506   3.135   4.452   6.169  1.3722 -0.1183  0.7277
  104OSM   C12S10507   3.033   4.316   6.035  0.4749 -0.4861 -0.3334
  104OSM   H12S10508   2.938   4.297   6.089  1.3831  1.7327  2.2937
  104OSM   H12T10509   3.066   4.221   5.988 -0.4608 -0.7005 -0.5637
  104OSM   C13S10510   3.024   4.423   5.933  1.1123  0.0202 -0.2947
  104OSM   H13S10511   3.011   4.515   5.994  0.9342 -2.3232  3.5119
  104OSM   H13T10512   2.924   4.426   5.884  0.7728 -0.0199  0.3800
  104OSM   C14S10513   3.139   4.429   5.830 -0.2840  0.1792  0.0920
  104OSM   H14S10514   3.117   4.346   5.760 -0.8791 -0.8722  1.4858
  104OSM   H14T10515   3.241   4.427   5.873  0.5960  0.7966 -1.8218
  104OSM   C15S10516   3.137   4.563   5.756 -0.3790  0.4651  0.1131
  104OSM   H15S10517   3.034   4.581   5.719 -1.3666 -1.7270  1.6085
  104OSM   H15T10518   3.204   4.548   5.669 -0.8443  1.8121 -0.4969
  104OSM   C16S10519   3.178   4.693   5.837  0.4932 -0.2001 -0.0692
  104OSM   H16S10520   3.118   4.704   5.929  1.7717 -4.0432  1.4477
  104OSM   H16T10521   3.166   4.783   5.773 -2.2908 -1.3427 -1.3501
  104OSM   C17S10522   3.328   4.698   5.860 -0.2615  0.4658 -0.3267
  104OSM   H17S10523   3.376   4.689   5.760 -1.7809 -3.4632 -0.8750
  104OSM   H17T10524   3.359   4.613   5.924 -0.4467  0.4370 -0.2748
  104OSM   C18S10525   3.362   4.836   5.924  0.2938 -0.4859 -0.3734
  104OSM   H18S10526   3.470   4.846   5.947 -0.1266  0.5074  1.3228
  104OSM   H18T10527   3.297   4.868   6.009  2.2478  3.9485 -0.2779
  104OSM   H18U10528   3.350   4.906   5.839  2.3270  0.4301  0.0454
  104OSM    C1F10529   3.668   4.620   6.741  0.3633 -0.0251  0.6497
  104OSM     OF10530   3.783   4.589   6.743 -0.8121  0.1969 -0.6349
  104OSM    C2F10531   3.610   4.714   6.636 -0.0905 -0.6582  1.2201
  104OSM    H2F10532   3.693   4.731   6.565  1.7215  0.1597  3.4117
  104OSM    H2G10533   3.571   4.806   6.685 -0.8751 -1.0837  1.4287
  104OSM    C3F10534   3.502   4.641   6.557  0.4328 -0.0764  0.1103
  104OSM    H3F10535   3.426   4.607   6.630  0.2191 -0.0752 -0.1100
  104OSM    H3G10536   3.528   4.545   6.507 -1.1635  0.2609 -1.4678
  104OSM    C4F10537   3.437   4.721   6.439  0.2824 -0.3075  0.2706
  104OSM    H4F10538   3.417   4.821   6.484 -0.9973 -0.5069  0.1811
  104OSM    H4G10539   3.346   4.670   6.403  1.8386 -1.6382 -2.0312
  104OSM    C5F10540   3.535   4.743   6.322  0.0171 -0.1042  0.0539
  104OSM    H5F10541   3.632   4.792   6.347  0.7773 -0.7641 -1.4704
  104OSM    H5G10542   3.486   4.815   6.253  0.6468 -0.9524 -1.3283
  104OSM    C6F10543   3.563   4.612   6.251  0.0384  0.3658  0.3332
  104OSM    H6F10544   3.467   4.571   6.211  1.0839  1.3041 -3.5662
  104OSM    H6G10545   3.612   4.544   6.323  1.7612  1.1957 -0.0037
  104OSM    C7F10546   3.656   4.636   6.132  0.0389  0.2662 -0.3400
  104OSM    H7F10547   3.754   4.680   6.162 -0.2222  2.4436 -2.3416
  104OSM    H7G10548   3.607   4.703   6.058  0.8570  1.0891 -0.1545
  104OSM    C8F10549   3.676   4.500   6.058  0.4961  0.4406  0.1167
  104OSM    H8F10550   3.575   4.462   6.032  0.5355  0.6563 -0.3633
  104OSM    H8G10551   3.725   4.422   6.120 -1.2560  0.0048  0.9954
  104OSM    C9F10552   3.776   4.514   5.947  0.1653 -0.5014  0.3580
  104OSM    H9F10553   3.867   4.572   5.971 -0.8125  1.8067 -1.1558
  104OSM   C10F10554   3.760   4.456   5.831  0.0947 -0.3384 -0.3533
  104OSM   H10F10555   3.840   4.442   5.756 -0.5003  2.0877 -1.5481
  104OSM   C11F10556   3.634   4.377   5.777  0.2388  0.0180  0.0229
  104OSM   H11F10557   3.554   4.369   5.853  0.2852 -2.1804 -0.0724
  104OSM   H11G10558   3.664   4.276   5.739  2.4329  0.9727 -0.9440
  104OSM   C12F10559   3.590   4.465   5.665  0.4021  0.0602 -0.3279
  104OSM   H12F10560   3.667   4.475   5.585 -0.8991 -0.3430 -1.6805
  104OSM   H12G10561   3.564   4.565   5.704  2.1530 -0.7224  3.2803
  104OSM   C13F10562   3.460   4.418   5.596  0.3923 -0.1192  0.4822
  104OSM   H13F10563   3.388   4.400   5.678 -0.3384 -0.3893 -0.2174
  104OSM   H13G10564   3.454   4.329   5.530  0.7111  0.3881 -0.2501
  104OSM   C14F10565   3.418   4.533   5.492 -0.4039  0.2873 -0.1452
  104OSM   H14F10566   3.512   4.559   5.439 -0.8827  0.9518 -0.6957
  104OSM   H14G10567   3.371   4.616   5.551  1.2678  1.2757 -0.1480
  104OSM   C15F10568   3.312   4.483   5.385 -0.8760 -0.2192  0.1126
  104OSM   H15F10569   3.228   4.440   5.444 -1.1289  0.7109  0.4382
  104OSM   H15G10570   3.357   4.408   5.316  0.4510 -1.6254  2.3926
  104OSM   C16F10571   3.249   4.600   5.303 -0.0786  0.2794 -0.5484
  104OSM   H16F10572   3.309   4.606   5.209 -0.9715 -2.2222 -1.3572
  104OSM   H16G10573   3.253   4.699   5.353  2.6107  0.7021 -1.4350
  104OSM   C17F10574   3.103   4.557   5.248  0.1609  0.5376 -0.0678
  104OSM   H17F10575   3.029   4.573   5.330  1.4814  0.7645  1.1342
  104OSM   H17G10576   3.100   4.447   5.233 -1.0586  0.6274 -0.5474
  104OSM   C18F10577   3.064   4.610   5.105  0.4369 -0.0909  0.3063
  104OSM   H18F10578   3.151   4.593   5.037  0.9953 -0.1307  1.0231
  104OSM   H18G10579   3.051   4.719   5.122 -0.0492 -0.0525 -0.2760
  104OSM   H18H10580   2.962   4.578   5.075 -2.2966  5.8333  1.7906
  105OSM      N10581   4.361   4.649   7.871 -0.1289  0.2510  0.1678
  105OSM    C1510582   4.277   4.521   7.874 -0.2075 -0.6620 -0.3403
  105OSM   H15A10583   4.170   4.529   7.865 -0.1779  1.3588  0.5832
  105OSM   H15B10584   4.307   4.451   7.950 -0.1975 -0.3979 -0.0995
  105OSM   H15C10585   4.316   4.468   7.788  1.4280 -0.0136 -0.0408
  105OSM    C1410586   4.328   4.725   7.998  0.3841 -0.0482 -0.2474
  105OSM   H14A10587   4.223   4.745   8.007  0.4273  0.3696 -0.6567
  105OSM   H14B10588   4.388   4.814   8.001 -2.2046  1.8353 -0.9429
  105OSM   H14C10589   4.368   4.669   8.081  2.1335  1.3129 -0.1201
  105OSM    C1310590   4.505   4.625   7.877  0.5204  0.6211  0.4021
  105OSM   H13A10591   4.538   4.565   7.794  1.3544  2.7377 -0.8876
  105OSM   H13B10592   4.532   4.588   7.974 -0.8365  0.0836  0.5986
  105OSM   H13C10593   4.571   4.710   7.865  2.7430 -1.1247 -0.3872
  105OSM    C1210594   4.322   4.742   7.756 -0.0420  0.0238  1.0399
  105OSM   H12A10595   4.367   4.840   7.757 -2.2570  1.0969  0.9653
  105OSM   H12B10596   4.216   4.759   7.754 -0.2163 -0.6378 -2.7569
  105OSM    C1110597   4.363   4.678   7.615  0.1345  0.3331 -0.2046
  105OSM   H11A10598   4.314   4.742   7.539  0.9236 -0.4911 -1.4447
  105OSM   H11B10599   4.327   4.574   7.611  0.7880  0.1487 -1.9094
  105OSM      P10600   4.606   4.797   7.571  0.3982 -0.1453  0.3749
  105OSM    O1310601   4.539   4.917   7.617  0.1135 -0.7374 -0.1327
  105OSM    O1410602   4.734   4.768   7.633 -0.1309 -0.5831 -0.2952
  105OSM    O1110603   4.633   4.797   7.421 -0.1677 -0.1987  0.0106
  105OSM    O1210604   4.512   4.675   7.597  0.3107 -0.0555  0.4813
  105OSM    C1S10605   4.542   4.854   7.327  0.7087  0.0640 -0.2204
  105OSM    H1S10606   4.489   4.946   7.359  0.6528 -0.7529  2.2142
  105OSM    H1T10607   4.459   4.780   7.316  0.2918  0.4488  0.2576
  105OSM     NF10608   4.526   4.946   7.103  0.3060  0.1634  0.1974
  105OSM    HNF10609   4.484   4.892   7.030  1.4384 -2.3103  1.2699
  105OSM    C2S10610   4.619   4.884   7.197 -0.2471  0.2445 -0.2292
  105OSM    H2S10611   4.694   4.962   7.221  0.4300 -0.1251 -1.0680
  105OSM    C3S10612   4.683   4.751   7.152 -0.3961  0.0871  0.5711
  105OSM    H3S10613   4.608   4.668   7.149 -2.1663  1.6425 -0.1079
  105OSM     O310614   4.801   4.707   7.227  0.0862 -1.0378 -0.4198
  105OSM    HO310615   4.787   4.759   7.307 -0.1285  1.3921 -1.9233
  105OSM    C4S10616   4.740   4.788   7.007 -0.2289  1.0320 -0.1144
  105OSM    H4S10617   4.667   4.774   6.926 -1.5575  3.7747  0.4943
  105OSM    C5S10618   4.864   4.850   6.987  0.0237  0.7106 -0.2583
  105OSM    H5S10619   4.929   4.873   7.072 -0.0971 -1.4010  0.4685
  105OSM    C6S10620   4.920   4.884   6.854 -0.1506 -0.8394 -0.7826
  105OSM    H6S10621   5.021   4.840   6.841  1.2757  2.2617 -1.0728
  105OSM    H6T10622   4.936   4.994   6.855  1.7925 -1.0744 -1.3948
  105OSM    C7S10623   4.835   4.860   6.731 -0.1662  0.1421  0.3562
  105OSM    H7S10624   4.726   4.869   6.746 -0.5074 -2.0036 -0.5287
  105OSM    H7T10625   4.863   4.757   6.698  0.2836  0.3468  0.0856
  105OSM    C8S10626   4.863   4.951   6.611 -0.0912  0.5428 -0.3450
  105OSM    H8S10627   4.973   4.946   6.601 -0.0967  1.3433 -0.9521
  105OSM    H8T10628   4.828   5.055   6.631  1.5245  0.5511  3.1843
  105OSM    C9S10629   4.796   4.896   6.487 -0.3453  0.9102 -0.1120
  105OSM    H9S10630   4.688   4.921   6.484 -0.2044  1.4565 -0.7685
  105OSM    H9T10631   4.810   4.786   6.496 -1.8291  0.7839  1.0538
  105OSM   C10S10632   4.865   4.956   6.360 -0.0566 -0.3857 -0.1146
  105OSM   H10S10633   4.975   4.944   6.362  0.0258 -0.1839 -1.8700
  105OSM   H10T10634   4.845   5.065   6.359  0.3610 -0.2926  0.6533
  105OSM   C11S10635   4.792   4.901   6.241 -0.1730 -0.7091 -0.0864
  105OSM   H11S10636   4.687   4.935   6.256  0.0272 -0.4731  0.8163
  105OSM   H11T10637   4.771   4.792   6.237 -1.0996 -0.5047 -1.2670
  105OSM   C12S10638   4.840   4.956   6.109  0.0602  0.1777 -0.1110
  105OSM   H12S10639   4.937   4.905   6.091  0.3761  1.7939 -3.7398
  105OSM   H12T10640   4.855   5.067   6.111 -2.8541  0.6644 -0.5356
  105OSM   C13S10641   4.754   4.904   5.992  0.0812  0.3287 -0.1868
  105OSM   H13S10642   4.648   4.936   5.998 -0.4456 -1.2459 -0.5066
  105OSM   H13T10643   4.747   4.793   5.995 -2.6730  0.4178 -0.1358
  105OSM   C14S10644   4.786   4.951   5.846 -0.2212 -0.1660 -0.1230
  105OSM   H14S10645   4.718   4.911   5.768 -1.4895  1.1911  0.2255
  105OSM   H14T10646   4.891   4.925   5.823  0.0058 -0.7743  1.4776
  105OSM   C15S10647   4.774   5.108   5.829 -0.4742 -0.3544 -0.0497
  105OSM   H15S10648   4.863   5.161   5.868 -0.4137 -0.1311 -0.4835
  105OSM   H15T10649   4.693   5.150   5.893 -1.8547 -0.7308 -1.4837
  105OSM   C16S10650   4.751   5.151   5.685 -0.2016 -0.1676  0.8729
  105OSM   H16S10651   4.660   5.098   5.648  0.1536  0.2256 -0.6429
  105OSM   H16T10652   4.833   5.113   5.621 -2.5539 -3.6891 -0.3996
  105OSM   C17S10653   4.746   5.307   5.666  0.3949 -0.6424  0.4427
  105OSM   H17S10654   4.843   5.349   5.699  0.2456  1.0402 -1.0866
  105OSM   H17T10655   4.660   5.349   5.722  0.6085  0.0260  0.2809
  105OSM   C18S10656   4.715   5.343   5.516  0.2673  0.7082  0.0294
  105OSM   H18S10657   4.784   5.302   5.440  0.5873  0.3740  0.4912
  105OSM   H18T10658   4.729   5.453   5.506  3.8384  0.4376  0.8906
  105OSM   H18U10659   4.610   5.322   5.484  0.5606  1.3632 -1.4569
  105OSM    C1F10660   4.499   5.077   7.105  0.0495  0.8472 -0.0141
  105OSM     OF10661   4.563   5.153   7.175 -0.7997  0.2632 -0.0870
  105OSM    C2F10662   4.389   5.126   7.013 -0.1588 -0.6731  0.2469
  105OSM    H2F10663   4.320   5.193   7.069  0.0942 -0.0697 -0.1534
  105OSM    H2G10664   4.333   5.038   6.975 -1.8281 -0.9233  3.0163
  105OSM    C3F10665   4.438   5.214   6.899  0.8348  0.0344  0.0505
  105OSM    H3F10666   4.479   5.311   6.936  0.4049 -0.0341  0.7210
  105OSM    H3G10667   4.348   5.239   6.839 -0.0006 -2.6855  0.0197
  105OSM    C4F10668   4.538   5.138   6.810 -0.2173  0.0069 -1.4435
  105OSM    H4F10669   4.522   5.028   6.815  0.8347 -0.1157 -0.5966
  105OSM    H4G10670   4.640   5.162   6.847 -0.3978 -0.9923 -0.2641
  105OSM    C5F10671   4.535   5.182   6.669 -0.1702 -0.1911  0.8450
  105OSM    H5F10672   4.634   5.152   6.628  0.2265  0.1080  1.5647
  105OSM    H5G10673   4.520   5.290   6.646 -0.1558 -0.1611  0.9788
  105OSM    C6F10674   4.425   5.119   6.581 -0.1572 -0.0337  1.0506
  105OSM    H6F10675   4.335   5.184   6.591 -0.2165  0.2506 -0.8996
  105OSM    H6G10676   4.417   5.017   6.624  0.3451 -0.7199 -0.4328
  105OSM    C7F10677   4.458   5.111   6.429  0.4002 -0.5147 -0.4286
  105OSM    H7F10678   4.371   5.073   6.371 -1.3002  1.4559  0.6713
  105OSM    H7G10679   4.549   5.049   6.424  0.7247 -0.0639 -0.1406
  105OSM    C8F10680   4.490   5.255   6.375 -0.2932  0.3640  0.0955
  105OSM    H8F10681   4.555   5.242   6.286  2.3856 -1.3890  2.1739
  105OSM    H8G10682   4.563   5.305   6.441 -1.0796  0.1445  1.1618
  105OSM    C9F10683   4.372   5.345   6.327  0.8030 -0.1585  0.0493
  105OSM    H9F10684   4.345   5.421   6.402 -0.7533  0.2765 -0.9265
  105OSM   C10F10685   4.304   5.334   6.206 -0.9397 -0.7668 -0.5390
  105OSM   H10F10686   4.233   5.413   6.175 -0.5854 -1.1361 -2.4086
  105OSM   C11F10687   4.332   5.235   6.100 -0.0171  0.2061  0.6743
  105OSM   H11F10688   4.276   5.142   6.125 -0.0355  0.1582  0.4578
  105OSM   H11G10689   4.443   5.223   6.100 -0.0295  0.0598  1.0788
  105OSM   C12F10690   4.293   5.285   5.956  0.6278  0.1345  0.6950
  105OSM   H12F10691   4.318   5.386   5.917  3.4116  0.3696  2.7848
  105OSM   H12G10692   4.183   5.269   5.960  0.8380 -1.3329  1.1798
  105OSM   C13F10693   4.345   5.179   5.861  0.1086  0.0076  0.8690
  105OSM   H13F10694   4.314   5.082   5.903  0.1824  0.3077  1.6245
  105OSM   H13G10695   4.456   5.173   5.868  0.2851  1.0372 -0.3884
  105OSM   C14F10696   4.299   5.210   5.714  0.5961  0.4482 -0.4112
  105OSM   H14F10697   4.373   5.262   5.650  0.2707  0.5300 -0.7219
  105OSM   H14G10698   4.201   5.261   5.712 -0.6765 -1.7789  0.8083
  105OSM   C15F10699   4.268   5.079   5.641 -0.0339  0.2759 -0.4644
  105OSM   H15F10700   4.190   5.034   5.707 -0.7102 -0.1694 -1.5522
  105OSM   H15G10701   4.351   5.004   5.644  1.5628  1.9874  0.2297
  105OSM   C16F10702   4.210   5.083   5.503  0.7446 -0.2838  0.4076
  105OSM   H16F10703   4.279   5.135   5.433 -1.2301 -0.4412 -1.7670
  105OSM   H16G10704   4.119   5.146   5.499 -0.0093 -1.2093  2.0437
  105OSM   C17F10705   4.179   4.943   5.446 -0.1941  0.0477  0.2381
  105OSM   H17F10706   4.101   4.896   5.509 -0.2816 -0.0236  0.0754
  105OSM   H17G10707   4.269   4.879   5.462  0.6382  1.3536  1.0552
  105OSM   C18F10708   4.150   4.960   5.290 -0.3874  0.1251  0.2527
  105OSM   H18F10709   4.152   4.861   5.239  0.6323  0.8370 -1.1360
  105OSM   H18G10710   4.224   5.029   5.245  0.2347 -0.9344 -0.3960
  105OSM   H18H10711   4.047   5.003   5.285 -1.3781 -1.4256  4.0446
  106OSM      N10712   1.896   2.565   7.466 -0.3921 -0.2915  0.3751
  106OSM    C1510713   1.817   2.446   7.434 -0.1008 -0.3165 -0.2568
  106OSM   H15A10714   1.856   2.361   7.489 -3.1509 -0.5151  1.8480
  106OSM   H15B10715   1.831   2.430   7.328 -0.5063  1.6724 -0.6402
  106OSM   H15C10716   1.712   2.464   7.453 -0.5554 -2.9916  0.2223
  106OSM    C1410717   1.896   2.594   7.616  0.2395 -0.2087  0.6159
  106OSM   H14A10718   1.967   2.676   7.621  2.9820 -2.4316  0.5691
  106OSM   H14B10719   1.927   2.502   7.663  0.2319 -2.5463 -3.5036
  106OSM   H14C10720   1.803   2.628   7.659 -1.5245 -0.0065 -3.0557
  106OSM    C1310721   2.042   2.552   7.438  0.3429 -0.5128  0.6744
  106OSM   H13A10722   2.057   2.550   7.331 -4.4631  0.5455 -0.2503
  106OSM   H13B10723   2.074   2.454   7.470 -1.0997 -1.3486 -0.3764
  106OSM   H13C10724   2.097   2.636   7.480 -1.9636  0.8157  1.2495
  106OSM    C1210725   1.850   2.692   7.402  0.0693 -0.3195  0.3560
  106OSM   H12A10726   1.923   2.768   7.424 -0.1310 -0.2877  0.9326
  106OSM   H12B10727   1.759   2.718   7.454 -1.7873 -1.7041 -1.9861
  106OSM    C1110728   1.828   2.681   7.246 -0.3892 -0.2315  0.3338
  106OSM   H11A10729   1.913   2.626   7.201 -0.5312 -1.0653  1.0589
  106OSM   H11B10730   1.809   2.781   7.201  0.5904 -0.7131 -1.2030
  106OSM      P10731   1.567   2.648   7.227  0.2852  0.0144  0.1037
  106OSM    O1310732   1.471   2.538   7.197 -0.1630 -0.4975 -0.2823
  106OSM    O1410733   1.537   2.730   7.350  0.3050  0.6700 -0.5069
  106OSM    O1110734   1.562   2.752   7.108  0.4768  0.2217 -0.2285
  106OSM    O1210735   1.715   2.593   7.221  0.0886 -0.1854 -0.7789
  106OSM    C1S10736   1.619   2.741   6.981  0.2648  0.0425 -0.0122
  106OSM    H1S10737   1.612   2.639   6.938 -0.5961 -0.4920  1.3413
  106OSM    H1T10738   1.726   2.769   6.994 -0.1381  2.2950 -1.0289
  106OSM     NF10739   1.573   2.828   6.750  0.5174 -0.6013 -0.2629
  106OSM    HNF10740   1.612   2.907   6.703 -2.5562  0.8372 -0.6590
  106OSM    C2S10741   1.540   2.840   6.891  0.9582  0.0797  0.4612
  106OSM    H2S10742   1.439   2.797   6.904  0.8203  0.7332  1.8208
  106OSM    C3S10743   1.533   2.991   6.941  0.0467 -0.1831 -0.7371
  106OSM    H3S10744   1.637   3.025   6.921  0.7784 -1.4387  0.7606
  106OSM     O310745   1.498   3.004   7.084  0.3110 -0.1830 -0.1973
  106OSM    HO310746   1.480   2.913   7.112 -1.5128  0.5295  1.1648
  106OSM    C4S10747   1.449   3.081   6.860  0.0692  0.3316  0.0909
  106OSM    H4S10748   1.516   3.134   6.791  1.7812 -3.3989 -1.4187
  106OSM    C5S10749   1.316   3.107   6.876 -0.0212  0.2654  0.3676
  106OSM    H5S10750   1.260   3.049   6.951  1.1665 -1.6244 -0.1365
  106OSM    C6S10751   1.244   3.208   6.779 -0.0270  0.0867 -0.4518
  106OSM    H6S10752   1.229   3.297   6.843  0.9362  0.8865 -1.3068
  106OSM    H6T10753   1.150   3.156   6.748 -0.8082  2.5903 -2.6633
  106OSM    C7S10754   1.324   3.244   6.658 -0.3982 -0.9557  0.6016
  106OSM    H7S10755   1.349   3.146   6.612 -1.5349 -1.0353  0.1276
  106OSM    H7T10756   1.420   3.294   6.686 -1.3891  1.0074  0.7194
  106OSM    C8S10757   1.243   3.336   6.561 -0.0880  0.0549 -0.1560
  106OSM    H8S10758   1.313   3.410   6.517 -1.5888  0.8683 -1.2312
  106OSM    H8T10759   1.162   3.392   6.611 -0.6582 -1.1690  0.3476
  106OSM    C9S10760   1.191   3.241   6.450  0.9661 -0.5073  0.2415
  106OSM    H9S10761   1.125   3.170   6.504  0.5910 -0.0813  0.3456
  106OSM    H9T10762   1.272   3.181   6.403  2.1313  0.0625  1.4521
  106OSM   C10S10763   1.116   3.338   6.352  0.2876  0.0186  0.2303
  106OSM   H10S10764   1.162   3.439   6.342 -1.9529  0.9326 -1.5360
  106OSM   H10T10765   1.009   3.351   6.381  0.2580 -0.9584  0.5994
  106OSM   C11S10766   1.124   3.277   6.210  0.4000  0.1546  0.1011
  106OSM   H11S10767   1.100   3.168   6.212  0.4958  0.1237 -0.3805
  106OSM   H11T10768   1.230   3.266   6.178 -0.3310 -1.4391 -1.9621
  106OSM   C12S10769   1.033   3.358   6.107 -0.5959 -0.2104  0.1729
  106OSM   H12S10770   1.065   3.464   6.101 -2.2073  0.2896 -0.0751
  106OSM   H12T10771   0.924   3.344   6.120 -0.9523 -1.3442 -3.0422
  106OSM   C13S10772   1.041   3.300   5.960 -0.1490 -0.4618 -0.8305
  106OSM   H13S10773   0.957   3.353   5.909 -1.2937 -0.1079  1.2903
  106OSM   H13T10774   1.023   3.190   5.953 -0.6048 -0.7744  3.0459
  106OSM   C14S10775   1.172   3.342   5.889 -0.0679  0.6457  0.0760
  106OSM   H14S10776   1.249   3.269   5.922  0.6731  0.7805 -1.2741
  106OSM   H14T10777   1.206   3.440   5.927 -0.6956  1.4764 -1.4180
  106OSM   C15S10778   1.152   3.358   5.741  0.2132  0.3527  0.0051
  106OSM   H15S10779   1.219   3.430   5.690  2.6909 -0.6271  1.7048
  106OSM   H15T10780   1.053   3.405   5.725  0.0780  0.4061  0.9741
  106OSM   C16S10781   1.145   3.219   5.673 -0.0297  0.8822 -0.3320
  106OSM   H16S10782   1.100   3.145   5.742 -1.6976  1.6820 -0.5054
  106OSM   H16T10783   1.249   3.195   5.643 -0.3253  1.7231 -2.2114
  106OSM   C17S10784   1.062   3.210   5.541 -0.6900 -1.0074  0.1328
  106OSM   H17S10785   0.957   3.225   5.573 -0.8184  2.7360 -1.5894
  106OSM   H17T10786   1.068   3.108   5.497 -1.1804 -0.5993 -0.8940
  106OSM   C18S10787   1.096   3.318   5.436  0.3756  0.6232  0.3342
  106OSM   H18S10788   1.203   3.317   5.406  0.6866  1.1611  1.3803
  106OSM   H18T10789   1.089   3.422   5.474 -0.3466  1.0373 -0.8518
  106OSM   H18U10790   1.023   3.314   5.352 -1.6212  0.0320  2.0090
  106OSM    C1F10791   1.559   2.722   6.683 -0.3057 -0.2712 -0.4854
  106OSM     OF10792   1.494   2.622   6.724 -0.1349 -0.6896  0.3943
  106OSM    C2F10793   1.624   2.706   6.546 -0.3601  0.4739 -0.1129
  106OSM    H2F10794   1.730   2.737   6.559 -0.7695  1.7924  0.2391
  106OSM    H2G10795   1.579   2.782   6.479 -1.8880  0.4592  0.8336
  106OSM    C3F10796   1.625   2.560   6.488 -0.4684 -0.2677  0.0606
  106OSM    H3F10797   1.521   2.530   6.462 -0.1462 -1.5539  0.2101
  106OSM    H3G10798   1.674   2.488   6.557 -0.4088 -0.2081  0.0812
  106OSM    C4F10799   1.694   2.552   6.351 -0.7065 -0.1205 -0.5416
  106OSM    H4F10800   1.734   2.451   6.326 -0.0165 -0.7170  2.6395
  106OSM    H4G10801   1.784   2.614   6.365 -1.8778  1.3591  0.7407
  106OSM    C5F10802   1.618   2.610   6.232  0.2030 -0.6693 -0.1257
  106OSM    H5F10803   1.606   2.720   6.248  4.4347 -0.1926  1.0769
  106OSM    H5G10804   1.515   2.571   6.224 -0.1895  0.6628 -2.2472
  106OSM    C6F10805   1.697   2.573   6.101 -0.1062  0.0441 -0.2502
  106OSM    H6F10806   1.700   2.462   6.102 -0.9385 -0.0343 -1.9398
  106OSM    H6G10807   1.803   2.606   6.096  0.4469 -1.7805 -2.3369
  106OSM    C7F10808   1.618   2.606   5.975  0.5542 -0.6661 -0.0216
  106OSM    H7F10809   1.618   2.717   5.965  0.5611 -0.6880 -0.2676
  106OSM    H7G10810   1.512   2.576   5.990 -0.3413  0.2725 -3.4880
  106OSM    C8F10811   1.680   2.546   5.845 -0.0956  0.1528  0.4513
  106OSM    H8F10812   1.668   2.436   5.848 -1.7416  0.3147  1.8727
  106OSM    H8G10813   1.789   2.561   5.830  0.0904 -0.2606  1.3131
  106OSM    C9F10814   1.596   2.584   5.729  0.0963 -0.2110 -0.1792
  106OSM    H9F10815   1.489   2.562   5.735 -0.1073  0.2806 -1.5730
  106OSM   C10F10816   1.634   2.646   5.616  0.4159  0.2465  0.1936
  106OSM   H10F10817   1.560   2.687   5.545 -0.0117 -0.0677  0.4576
  106OSM   C11F10818   1.769   2.702   5.587 -0.6408 -0.3780 -0.2426
  106OSM   H11F10819   1.847   2.636   5.630 -0.6996 -0.5029 -0.3270
  106OSM   H11G10820   1.768   2.798   5.643  1.1686 -0.2322 -0.4021
  106OSM   C12F10821   1.810   2.724   5.438 -0.3312  0.4650 -0.1328
  106OSM   H12F10822   1.819   2.627   5.384  2.7773 -0.6505  2.0861
  106OSM   H12G10823   1.910   2.774   5.435 -0.6338  1.1075  0.2366
  106OSM   C13F10824   1.708   2.809   5.350  0.1189 -0.1203  0.2306
  106OSM   H13F10825   1.626   2.745   5.310 -1.5467  1.1065  1.5677
  106OSM   H13G10826   1.760   2.835   5.255 -1.4035  0.8255 -0.3869
  106OSM   C14F10827   1.661   2.938   5.419 -0.3762  0.4971 -0.4080
  106OSM   H14F10828   1.756   2.988   5.449  0.7324 -1.2289 -0.8415
  106OSM   H14G10829   1.617   2.906   5.516 -1.4367  0.1597 -0.9939
  106OSM   C15F10830   1.567   3.014   5.340  0.2412 -0.2088  0.7086
  106OSM   H15F10831   1.510   3.092   5.397  3.7456  2.2232  1.1830
  106OSM   H15G10832   1.494   2.934   5.314  0.0401  0.2471 -0.1480
  106OSM   C16F10833   1.621   3.078   5.215 -1.1516 -0.2013  0.2048
  106OSM   H16F10834   1.660   3.004   5.142 -1.5509 -0.0259 -0.1933
  106OSM   H16G10835   1.697   3.154   5.241 -1.0149 -0.4724  0.6045
  106OSM   C17F10836   1.516   3.160   5.141 -0.6722  0.0948  0.1439
  106OSM   H17F10837   1.419   3.107   5.132  0.2837 -2.1833  2.0537
  106OSM   H17G10838   1.553   3.181   5.039 -1.3929  1.2019  0.0972
  106OSM   C18F10839   1.485   3.299   5.201 -0.6123  0.5109  0.2922
  106OSM   H18F10840   1.466   3.290   5.310  1.5192 -2.1370  0.5421
  106OSM   H18G10841   1.403   3.338   5.138 -2.1327 -2.8892 -0.0586
  106OSM   H18H10842   1.566   3.374   5.190 -0.6233  0.3453 -1.0915
  107OSM      N10843   0.638   0.316   7.467 -0.1297  0.5810  0.8283
  107OSM    C1510844   0.727   0.307   7.590 -0.2877 -0.8801  0.3647
  107OSM   H15A10845   0.731   0.206   7.629 -1.6837 -0.0506  2.9095
  107OSM   H15B10846   0.675   0.373   7.658  1.8385  1.7749 -0.4601
  107OSM   H15C10847   0.823   0.352   7.574  0.6209 -1.9529  2.3909
  107OSM    C1410848   0.668   0.444   7.397 -0.2270  0.3001  0.1641
  107OSM   H14A10849   0.655   0.530   7.461 -0.6729 -1.5015  2.6704
  107OSM   H14B10850   0.612   0.454   7.306 -2.2864  1.4811  1.4894
  107OSM   H14C10851   0.773   0.450   7.372 -0.4616  2.6153 -0.4625
  107OSM    C1310852   0.684   0.210   7.375 -0.2119  0.6733  0.1793
  107OSM   H13A10853   0.633   0.205   7.279  0.2535  0.6120 -0.0671
  107OSM   H13B10854   0.675   0.116   7.427 -4.8265  0.1557 -1.0821
  107OSM   H13C10855   0.788   0.230   7.356  0.3462 -1.1044  1.2122
  107OSM    C1210856   0.495   0.306   7.501  0.0884 -0.1853  0.4257
  107OSM   H12A10857   0.475   0.214   7.554  0.4282 -0.9409 -0.7164
  107OSM   H12B10858   0.435   0.306   7.411  0.6313 -2.6354 -0.0147
  107OSM    C1110859   0.442   0.416   7.599  0.5673 -0.6600 -0.1296
  107OSM   H11A10860   0.489   0.517   7.594 -0.1068 -0.3483 -0.3300
  107OSM   H11B10861   0.458   0.374   7.700 -0.3906  1.4355  0.9570
  107OSM      P10862   0.231   0.502   7.455  0.1527 -0.6287 -0.0455
  107OSM    O1310863   0.088   0.457   7.445 -0.7914  0.0266 -0.6245
  107OSM    O1410864   0.256   0.646   7.471  0.4156  0.5771 -0.7916
  107OSM    O1110865   0.311   0.451   7.330  0.7800  0.0968  0.1332
  107OSM    O1210866   0.302   0.427   7.573 -0.1299 -0.0650 -0.1828
  107OSM    C1S10867   0.354   0.544   7.224  0.6316  0.3410  0.2908
  107OSM    H1S10868   0.442   0.605   7.251 -0.6177  2.4677 -0.2162
  107OSM    H1T10869   0.273   0.615   7.197 -1.3774 -1.8199  0.3580
  107OSM     NF10870   0.444   0.564   6.993 -0.5744  1.1433  1.6562
  107OSM    HNF10871   0.375   0.588   6.925  0.6578 -4.6954 -2.4126
  107OSM    C2S10872   0.388   0.470   7.095  0.0692  0.0609  0.6508
  107OSM    H2S10873   0.465   0.391   7.099  0.1515  0.0259 -0.9785
  107OSM    C3S10874   0.257   0.400   7.052  0.5374 -0.1197 -0.1507
  107OSM    H3S10875   0.172   0.472   7.046 -0.4272 -1.3480 -2.2686
  107OSM     O310876   0.207   0.295   7.142  0.2381  0.3095  0.4427
  107OSM    HO310877   0.232   0.333   7.226  1.8045  0.6848 -0.1403
  107OSM    C4S10878   0.267   0.333   6.918 -0.2356 -0.0419  1.1449
  107OSM    H4S10879   0.240   0.396   6.831  0.8877 -1.0398  0.0242
  107OSM    C5S10880   0.293   0.202   6.879 -0.2662  0.3569 -0.5364
  107OSM    H5S10881   0.321   0.128   6.956  1.6418  0.3294 -1.2174
  107OSM    C6S10882   0.301   0.152   6.736  0.2986  1.1732 -1.1425
  107OSM    H6S10883   0.215   0.084   6.719 -0.1301  1.2967  0.3424
  107OSM    H6T10884   0.382   0.078   6.720 -1.8183 -1.9235  1.3213
  107OSM    C7S10885   0.304   0.255   6.614 -0.0456 -0.3195 -0.3132
  107OSM    H7S10886   0.383   0.332   6.630  0.5492 -1.0317  0.2312
  107OSM    H7T10887   0.207   0.310   6.620 -0.8339 -1.7300  0.5568
  107OSM    C8S10888   0.296   0.192   6.478 -0.5953  0.0960 -1.0832
  107OSM    H8S10889   0.259   0.271   6.409 -0.3377  1.2331  0.0429
  107OSM    H8T10890   0.231   0.102   6.479 -0.2636 -0.1445 -0.4007
  107OSM    C9S10891   0.433   0.145   6.426  0.5242  0.4173 -0.3027
  107OSM    H9S10892   0.463   0.054   6.483 -0.6545  0.2746  0.1279
  107OSM    H9T10893   0.500   0.233   6.423 -0.5745  1.3431  0.9899
  107OSM   C10S10894   0.437   0.114   6.277 -0.5665  0.0110 -0.1009
  107OSM   H10S10895   0.413   0.005   6.274  0.5871 -0.2438 -2.0879
  107OSM   H10T10896   0.544   0.115   6.248 -0.4339  0.0484  0.3932
  107OSM   C11S10897   0.342   0.186   6.181  1.0582 -0.2383  0.2052
  107OSM   H11S10898   0.319   0.293   6.200 -2.3280 -0.3262 -2.5130
  107OSM   H11T10899   0.244   0.135   6.195  0.9439 -0.2095 -0.4760
  107OSM   C12S10900   0.381   0.174   6.030 -0.1772  0.1233 -1.0741
  107OSM   H12S10901   0.416   0.070   6.011  1.3606  0.5610 -0.7979
  107OSM   H12T10902   0.466   0.242   6.007 -0.1084 -0.7936 -4.0018
  107OSM   C13S10903   0.266   0.191   5.929  0.2480 -0.5753 -0.6190
  107OSM   H13S10904   0.219   0.091   5.913  0.8166 -0.9079 -0.2359
  107OSM   H13T10905   0.314   0.230   5.837 -0.2312  1.5132 -0.0446
  107OSM   C14S10906   0.157   0.298   5.962 -0.4813  0.1811 -0.1606
  107OSM   H14S10907   0.204   0.375   6.027 -2.7784  0.9282  0.6991
  107OSM   H14T10908   0.082   0.251   6.029 -1.3973  2.8271  0.7734
  107OSM   C15S10909   0.076   0.350   5.838  0.3789 -0.3033 -1.1591
  107OSM   H15S10910   0.141   0.391   5.758  2.1682 -1.8836 -0.6146
  107OSM   H15T10911   0.021   0.436   5.881  3.7485  2.6747 -2.3298
  107OSM   C16S10912  -0.018   0.251   5.774 -0.2565 -0.4461  0.0964
  107OSM   H16S10913  -0.061   0.192   5.858  1.5030 -1.6296  0.2109
  107OSM   H16T10914   0.042   0.177   5.719 -0.2101 -0.8693  0.7046
  107OSM   C17S10915  -0.124   0.318   5.681 -0.1928  0.3342 -0.1586
  107OSM   H17S10916  -0.156   0.251   5.598  2.0688  0.9544 -1.6213
  107OSM   H17T10917  -0.075   0.402   5.628 -0.2823 -0.1762 -1.0789
  107OSM   C18S10918  -0.245   0.369   5.759 -0.5981  0.6197  0.1383
  107OSM   H18S10919  -0.296   0.284   5.809  1.7866 -1.0959 -0.1533
  107OSM   H18T10920  -0.318   0.427   5.699 -0.3390  0.6316 -0.1684
  107OSM   H18U10921  -0.204   0.431   5.841  0.9902 -1.9592  1.4356
  107OSM    C1F10922   0.568   0.598   6.984  0.7663  0.1001 -0.3826
  107OSM     OF10923   0.652   0.529   7.043 -0.7412  0.1982 -0.3769
  107OSM    C2F10924   0.589   0.714   6.892  0.0551  0.0694 -0.3197
  107OSM    H2F10925   0.627   0.790   6.965  2.4041 -1.4028  0.0985
  107OSM    H2G10926   0.496   0.743   6.840  0.3128  1.6671  0.0631
  107OSM    C3F10927   0.706   0.692   6.791  0.1069 -0.1969 -0.0349
  107OSM    H3F10928   0.795   0.650   6.843  0.2800  0.8078  0.5021
  107OSM    H3G10929   0.743   0.788   6.749 -1.7393  0.3616 -0.4765
  107OSM    C4F10930   0.670   0.595   6.681  0.1581 -0.8435 -0.3017
  107OSM    H4F10931   0.570   0.623   6.641 -0.1655  0.7626  1.4652
  107OSM    H4G10932   0.665   0.492   6.723 -0.5335 -0.3906  0.7929
  107OSM    C5F10933   0.761   0.601   6.556  0.7353  0.7292  0.3136
  107OSM    H5F10934   0.864   0.602   6.597 -0.0880 -3.4948  3.2350
  107OSM    H5G10935   0.738   0.693   6.499  0.6904 -0.6680 -2.0399
  107OSM    C6F10936   0.736   0.477   6.468  0.9981  0.2809  0.5525
  107OSM    H6F10937   0.625   0.471   6.462  0.8134  2.8574  0.1563
  107OSM    H6G10938   0.768   0.386   6.522 -0.1274  1.4628  3.4166
  107OSM    C7F10939   0.793   0.482   6.318 -0.1413  0.3922  0.0354
  107OSM    H7F10940   0.898   0.516   6.328 -0.0286  0.4744 -1.2256
  107OSM    H7G10941   0.741   0.568   6.269 -2.0265 -0.1068  1.0992
  107OSM    C8F10942   0.781   0.352   6.243 -0.0526  0.3905  0.7492
  107OSM    H8F10943   0.673   0.339   6.218  0.4159 -1.7469 -0.3936
  107OSM    H8G10944   0.819   0.274   6.312  3.2683  0.8061 -0.4498
  107OSM    C9F10945   0.865   0.349   6.119  0.0623  0.3829  0.2696
  107OSM    H9F10946   0.948   0.277   6.117 -0.0114  0.2860  0.6168
  107OSM   C10F10947   0.825   0.405   6.006 -0.0925 -0.0842  0.5138
  107OSM   H10F10948   0.897   0.381   5.926  0.6706 -2.4380  1.8038
  107OSM   C11F10949   0.696   0.481   5.976 -0.1800  0.0896  0.4745
  107OSM   H11F10950   0.696   0.592   5.974  0.7016  0.1680  2.7234
  107OSM   H11G10951   0.625   0.460   6.059 -0.6327 -1.8028 -0.3431
  107OSM   C12F10952   0.640   0.418   5.844 -0.1948 -0.2895  0.5761
  107OSM   H12F10953   0.536   0.456   5.833 -0.2467 -0.1919  1.3670
  107OSM   H12G10954   0.644   0.307   5.845  3.2774 -0.3858 -2.4118
  107OSM   C13F10955   0.712   0.470   5.720  0.2880  0.2030 -0.4592
  107OSM   H13F10956   0.817   0.436   5.730  0.3970  1.0440  1.8966
  107OSM   H13G10957   0.705   0.581   5.716  3.4909  0.4836 -1.1752
  107OSM   C14F10958   0.653   0.425   5.587 -0.8637  0.1260 -0.1024
  107OSM   H14F10959   0.543   0.438   5.589 -0.7676  0.9963  1.4757
  107OSM   H14G10960   0.680   0.318   5.572 -1.2875  0.2026 -1.5421
  107OSM   C15F10961   0.715   0.501   5.460  0.5005 -0.3706 -0.7467
  107OSM   H15F10962   0.676   0.604   5.470 -1.2200 -1.0592 -0.1203
  107OSM   H15G10963   0.677   0.452   5.368  0.6729 -1.6267 -0.1622
  107OSM   C16F10964   0.869   0.513   5.449  0.1377 -0.6463  0.1519
  107OSM   H16F10965   0.917   0.418   5.482  3.1080  0.4794 -0.5353
  107OSM   H16G10966   0.900   0.599   5.512 -0.6313  0.3449 -0.7904
  107OSM   C17F10967   0.904   0.548   5.305  0.1496  0.6068  0.5381
  107OSM   H17F10968   0.858   0.467   5.244 -0.1366  1.9001 -1.0383
  107OSM   H17G10969   1.013   0.547   5.282  0.6742 -1.0517  2.8130
  107OSM   C18F10970   0.850   0.680   5.254 -0.4909 -0.1447  0.1989
  107OSM   H18F10971   0.784   0.675   5.165 -0.7590 -0.8134  0.4258
  107OSM   H18G10972   0.936   0.739   5.215  0.5881 -2.1727 -0.6717
  107OSM   H18H10973   0.813   0.734   5.343  2.9601 -1.6737  2.8025
  108OSM      N10974   1.256   5.607   7.685 -0.3490 -0.3978 -0.3627
  108OSM    C1510975   1.346   5.716   7.725  0.1140 -0.3539 -0.0363
  108OSM   H15A10976   1.392   5.755   7.635  1.0879 -0.5506  0.3620
  108OSM   H15B10977   1.416   5.682   7.800 -0.0685  1.0343  0.7970
  108OSM   H15C10978   1.294   5.800   7.768 -0.2016  0.4993 -1.9552
  108OSM    C1410979   1.227   5.519   7.801 -0.0095 -0.1106  0.3175
  108OSM   H14A10980   1.204   5.570   7.893 -1.5540 -1.7901  0.9163
  108OSM   H14B10981   1.311   5.454   7.819  0.6348  1.0529  1.6528
  108OSM   H14C10982   1.132   5.471   7.782  0.6355 -0.9774 -0.8942
  108OSM    C1310983   1.130   5.675   7.650 -0.4090  0.1418 -0.0927
  108OSM   H13A10984   1.082   5.712   7.740 -1.3615 -0.4173 -0.3499
  108OSM   H13B10985   1.066   5.597   7.611 -0.1657 -0.8216  1.3629
  108OSM   H13C10986   1.144   5.760   7.584  0.9542  0.3428  0.4243
  108OSM    C1210987   1.319   5.534   7.568 -0.1534 -0.3567  0.1478
  108OSM   H12A10988   1.406   5.479   7.601  1.4379  0.3814 -2.5135
  108OSM   H12B10989   1.359   5.604   7.496  0.8278 -1.1492 -0.1047
  108OSM    C1110990   1.223   5.441   7.490 -0.1342  0.9815 -0.3339
  108OSM   H11A10991   1.285   5.395   7.410 -2.0098  0.1748 -1.3841
  108OSM   H11B10992   1.147   5.507   7.442 -0.3500  1.4450  0.6202
  108OSM      P10993   1.013   5.295   7.541 -0.1833  0.2010  0.2180
  108OSM    O1310994   1.004   5.165   7.607  0.2036 -0.7765  0.3205
  108OSM    O1410995   0.907   5.392   7.569  0.5178 -0.3792 -0.3286
  108OSM    O1110996   1.014   5.262   7.386 -0.0066  0.0984  0.2975
  108OSM    O1210997   1.158   5.350   7.576  1.3053  0.2360 -0.4728
  108OSM    C1S10998   0.954   5.352   7.287 -0.1703 -0.6189 -0.0417
  108OSM    H1S10999   1.034   5.423   7.256 -0.0323 -0.2689  1.0596
  108OSM    H1T11000   0.871   5.409   7.334  0.0515  1.3093 -1.8359
  108OSM     NF11001   0.858   5.365   7.046 -0.6559  0.6628 -0.2175
  108OSM    HNF11002   0.774   5.354   6.994 -1.4725  0.4668  1.1022
  108OSM    C2S11003   0.908   5.278   7.156  0.0542 -0.5279  0.8104
  108OSM    H2S11004   1.003   5.235   7.118 -0.4525  0.3717 -1.6621
  108OSM    C3S11005   0.806   5.155   7.181 -0.2421 -0.1232 -0.1668
  108OSM    H3S11006   0.709   5.205   7.202 -1.7768 -1.4050 -3.4429
  108OSM     O311007   0.841   5.080   7.292 -0.0386  0.3914  0.4448
  108OSM    HO311008   0.916   5.130   7.325 -0.3505  2.4434 -1.7345
  108OSM    C4S11009   0.783   5.069   7.050 -0.3291 -0.7815  0.0827
  108OSM    H4S11010   0.729   5.117   6.967  0.6131 -0.6868 -0.4960
  108OSM    C5S11011   0.850   4.949   7.029  0.1783  0.0741 -0.1230
  108OSM    H5S11012   0.904   4.907   7.116 -2.4355 -0.1561  1.5138
  108OSM    C6S11013   0.849   4.863   6.908 -0.0682  0.4794 -0.3554
  108OSM    H6S11014   0.805   4.767   6.943  2.0221 -0.6630 -0.6851
  108OSM    H6T11015   0.950   4.829   6.876 -0.4367  0.1164 -1.1677
  108OSM    C7S11016   0.769   4.906   6.780  0.3048  0.6536  0.4150
  108OSM    H7S11017   0.811   5.004   6.746  2.0053  0.3773  1.6249
  108OSM    H7T11018   0.661   4.927   6.790 -0.3238 -2.0382 -0.0240
  108OSM    C8S11019   0.784   4.801   6.677 -0.6813  0.1616  0.7183
  108OSM    H8S11020   0.696   4.733   6.679 -0.2770 -0.3615  1.8472
  108OSM    H8T11021   0.875   4.737   6.690 -0.8279 -0.6145 -1.6464
  108OSM    C9S11022   0.780   4.865   6.531 -1.0773  0.1745 -0.1901
  108OSM    H9S11023   0.878   4.918   6.526 -0.7702 -0.2659  0.7380
  108OSM    H9T11024   0.714   4.951   6.511  2.6972  3.2436 -0.6596
  108OSM   C10S11025   0.768   4.760   6.419  0.3095  0.7522 -0.0494
  108OSM   H10S11026   0.685   4.688   6.430  0.8468  0.4048  2.1379
  108OSM   H10T11027   0.854   4.691   6.411 -1.9058 -2.1894 -0.2044
  108OSM   C11S11028   0.757   4.833   6.283 -0.1665  0.5103 -0.1284
  108OSM   H11S11029   0.833   4.914   6.277  0.5200  0.0127  1.4768
  108OSM   H11T11030   0.651   4.866   6.270 -0.2620  0.1177 -0.3579
  108OSM   C12S11031   0.804   4.739   6.165 -0.2785 -0.1358 -0.0969
  108OSM   H12S11032   0.728   4.659   6.149 -0.0937 -0.4934  0.7626
  108OSM   H12T11033   0.902   4.688   6.180  0.9251  2.2094  0.4906
  108OSM   C13S11034   0.810   4.819   6.040  0.8808 -0.0762 -0.3503
  108OSM   H13S11035   0.887   4.899   6.044  2.1641 -1.3268  1.9929
  108OSM   H13T11036   0.713   4.869   6.020  0.1198 -0.2584  2.4845
  108OSM   C14S11037   0.820   4.735   5.910  0.0573  0.4926  0.3019
  108OSM   H14S11038   0.732   4.667   5.911  0.4478 -0.0187  1.6515
  108OSM   H14T11039   0.906   4.666   5.896 -0.2618  0.6172 -3.0373
  108OSM   C15S11040   0.823   4.826   5.784  0.2681  0.3518 -0.6637
  108OSM   H15S11041   0.922   4.878   5.787 -0.4354  1.6943  0.8406
  108OSM   H15T11042   0.736   4.891   5.805 -2.0102 -2.4051 -1.0423
  108OSM   C16S11043   0.784   4.752   5.659 -0.6640  0.0981  0.0133
  108OSM   H16S11044   0.676   4.728   5.661 -0.7030  0.2954  0.5232
  108OSM   H16T11045   0.855   4.667   5.654 -1.1723 -0.2639 -1.4720
  108OSM   C17S11046   0.802   4.835   5.530 -1.2822 -0.2274 -0.0997
  108OSM   H17S11047   0.905   4.878   5.532 -1.0222 -0.8295 -0.5227
  108OSM   H17T11048   0.732   4.921   5.520 -3.7876 -2.2038 -0.7132
  108OSM   C18S11049   0.793   4.750   5.399 -0.4243  0.6192 -0.0774
  108OSM   H18S11050   0.808   4.813   5.309 -0.1105  1.2420  0.3929
  108OSM   H18T11051   0.700   4.690   5.402  0.0968 -0.1854  0.3567
  108OSM   H18U11052   0.869   4.669   5.408 -0.4824  0.4171 -1.3086
  108OSM    C1F11053   0.936   5.464   6.999 -0.1336 -1.0769  0.0073
  108OSM     OF11054   1.052   5.465   7.039 -0.6270 -0.2446  0.2076
  108OSM    C2F11055   0.878   5.563   6.898  0.0846 -0.6660  0.1910
  108OSM    H2F11056   0.887   5.667   6.935 -1.1028 -0.2859 -0.5486
  108OSM    H2G11057   0.776   5.527   6.874  1.1395 -2.4649 -1.9863
  108OSM    C3F11058   0.956   5.535   6.765 -0.1565  0.1101  0.2762
  108OSM    H3F11059   0.951   5.432   6.724  1.5212 -0.7111  1.9551
  108OSM    H3G11060   1.062   5.537   6.796  0.1756 -0.9284 -0.7337
  108OSM    C4F11061   0.938   5.637   6.657 -0.1778 -0.5571 -0.2406
  108OSM    H4F11062   0.975   5.733   6.700 -1.0299 -1.3434  2.4280
  108OSM    H4G11063   0.833   5.654   6.625  0.2272 -0.0550 -1.3309
  108OSM    C5F11064   1.013   5.602   6.522  0.1789  0.6033  0.0076
  108OSM    H5F11065   0.968   5.502   6.501 -0.2771  0.4702  1.4834
  108OSM    H5G11066   1.122   5.584   6.529  0.2143 -0.7491 -2.6965
  108OSM    C6F11067   0.993   5.716   6.414 -0.6733 -0.2229 -0.4393
  108OSM    H6F11068   0.885   5.738   6.402 -0.3657  0.6975 -1.6672
  108OSM    H6G11069   1.020   5.677   6.314 -1.5131 -2.0559  0.0017
  108OSM    C7F11070   1.086   5.838   6.437 -0.2197 -0.2393 -0.8491
  108OSM    H7F11071   1.194   5.812   6.448 -0.1179  0.5758  0.2428
  108OSM    H7G11072   1.054   5.894   6.527 -0.7483  0.0292 -1.1978
  108OSM    C8F11073   1.083   5.937   6.315  0.1717 -0.1167  0.2667
  108OSM    H8F11074   1.134   6.026   6.356 -0.5619  0.4114  0.0508
  108OSM    H8G11075   0.979   5.975   6.304  0.0915 -0.7776 -1.5366
  108OSM    C9F11076   1.137   5.876   6.186  0.9352  0.3598 -0.1625
  108OSM    H9F11077   1.247   5.875   6.178  1.0401 -2.8489  0.4020
  108OSM   C10F11078   1.065   5.851   6.073  0.3350 -0.4362 -0.7690
  108OSM   H10F11079   1.124   5.828   5.982 -2.8247  0.9375 -3.3520
  108OSM   C11F11080   0.920   5.874   6.057  0.2031  0.1504  0.4472
  108OSM   H11F11081   0.897   5.976   6.020  0.2123 -0.5487 -1.6032
  108OSM   H11G11082   0.855   5.846   6.143 -2.1000 -2.1655 -1.8381
  108OSM   C12F11083   0.859   5.784   5.955 -0.1249  0.4429  0.4782
  108OSM   H12F11084   0.751   5.808   5.951  0.0030  0.9888  0.1313
  108OSM   H12G11085   0.878   5.678   5.982 -0.2901 -0.0399 -1.1422
  108OSM   C13F11086   0.926   5.803   5.813  0.3171  0.2219  0.3518
  108OSM   H13F11087   1.028   5.760   5.798 -0.1356 -1.0279  0.7417
  108OSM   H13G11088   0.946   5.912   5.803  1.9498  0.0393  1.3059
  108OSM   C14F11089   0.841   5.735   5.710  0.2319 -0.2180  0.6389
  108OSM   H14F11090   0.739   5.778   5.700  0.1549 -0.6496 -0.5489
  108OSM   H14G11091   0.826   5.633   5.752  0.9691 -0.5068  0.2077
  108OSM   C15F11092   0.914   5.728   5.574  0.3843  0.0005  0.2796
  108OSM   H15F11093   1.014   5.682   5.591 -0.0725 -0.6993  1.1775
  108OSM   H15G11094   0.913   5.833   5.537 -2.8947  0.1787  0.5855
  108OSM   C16F11095   0.837   5.649   5.461 -0.0657 -0.4483  0.0845
  108OSM   H16F11096   0.741   5.702   5.448  0.7515  1.2060  0.4729
  108OSM   H16G11097   0.820   5.541   5.479 -1.6197 -0.7197 -2.5272
  108OSM   C17F11098   0.909   5.661   5.328  0.6381  0.7146 -0.7680
  108OSM   H17F11099   1.011   5.624   5.355 -1.1259 -2.4513  2.3830
  108OSM   H17G11100   0.916   5.764   5.286  0.6335  1.3263  0.6605
  108OSM   C18F11101   0.842   5.586   5.211 -0.3546  0.6233  0.0848
  108OSM   H18F11102   0.902   5.598   5.119 -0.6330 -1.1008 -0.3641
  108OSM   H18G11103   0.739   5.625   5.201 -1.6678 -2.3028  1.0565
  108OSM   H18H11104   0.831   5.477   5.232  0.0645  0.7768  1.1965
  109OSM      N11105   1.262   4.420   7.787  0.0599  0.0331 -0.1364
  109OSM    C1511106   1.258   4.280   7.834  0.7747 -0.2846  0.1479
  109OSM   H15A11107   1.357   4.238   7.838  1.3437  0.5663 -2.8426
  109OSM   H15B11108   1.198   4.210   7.777  0.7098 -1.7259  1.8822
  109OSM   H15C11109   1.203   4.265   7.927  1.5082  0.5875  0.7351
  109OSM    C1411110   1.121   4.464   7.755 -0.4782  0.3292 -0.2802
  109OSM   H14A11111   1.113   4.572   7.749 -1.4338  0.4669  2.3528
  109OSM   H14B11112   1.053   4.423   7.828 -0.1762 -1.1300 -0.7853
  109OSM   H14C11113   1.091   4.428   7.658 -0.4757  1.1264 -0.5920
  109OSM    C1311114   1.306   4.494   7.908 -0.1591 -0.1853 -0.0412
  109OSM   H13A11115   1.257   4.470   8.001 -1.7365  1.7168 -0.3324
  109OSM   H13B11116   1.310   4.600   7.892 -0.2887  0.0648  1.4240
  109OSM   H13C11117   1.411   4.471   7.912 -0.5723 -2.9958 -1.9734
  109OSM    C1211118   1.368   4.446   7.678 -0.0980 -0.3981  1.0950
  109OSM   H12A11119   1.453   4.383   7.701  0.7798 -0.2007 -1.3283
  109OSM   H12B11120   1.400   4.550   7.678 -1.1653 -0.0570  0.1638
  109OSM    C1111121   1.344   4.406   7.529 -0.7560 -0.4255 -0.4991
  109OSM   H11A11122   1.429   4.438   7.465 -0.5527  0.2068  0.0706
  109OSM   H11B11123   1.260   4.476   7.508 -1.7042 -0.8902  1.4885
  109OSM      P11124   1.359   4.174   7.415  0.2987 -0.0485  0.4069
  109OSM    O1311125   1.504   4.185   7.421  0.0269  0.2069 -0.1395
  109OSM    O1411126   1.290   4.046   7.431  0.2261  0.3834  0.0147
  109OSM    O1111127   1.312   4.242   7.283 -0.5282  0.1754 -0.0981
  109OSM    O1211128   1.295   4.272   7.520 -0.3118 -0.1879 -0.2362
  109OSM    C1S11129   1.344   4.177   7.161 -0.0598 -0.0565  0.8419
  109OSM    H1S11130   1.307   4.073   7.158 -2.2059  0.6612 -2.5030
  109OSM    H1T11131   1.452   4.174   7.135  0.2747 -1.2731  2.2491
  109OSM     NF11132   1.274   4.171   6.929 -0.5287  0.0480 -0.1628
  109OSM    HNF11133   1.338   4.194   6.856 -0.2768 -2.2990 -0.7658
  109OSM    C2S11134   1.266   4.254   7.047 -0.8893  0.2771 -0.1697
  109OSM    H2S11135   1.159   4.263   7.077 -1.1413  0.8450 -1.1956
  109OSM    C3S11136   1.342   4.389   7.028 -0.2873 -1.1441 -0.0542
  109OSM    H3S11137   1.448   4.363   7.010  0.1545  0.0913  0.6962
  109OSM     O311138   1.351   4.466   7.145  0.2746 -0.2198 -0.4842
  109OSM    HO311139   1.324   4.404   7.212  0.3104  0.8104  0.5291
  109OSM    C4S11140   1.303   4.481   6.913 -0.0352 -0.6919  0.3267
  109OSM    H4S11141   1.360   4.454   6.823  0.8716  0.2258  0.6100
  109OSM    C5S11142   1.209   4.575   6.909 -0.6927 -0.6932  0.2083
  109OSM    H5S11143   1.157   4.612   6.999 -2.8220  0.5905 -1.4459
  109OSM    C6S11144   1.163   4.657   6.789 -0.8623 -0.5523  0.1022
  109OSM    H6S11145   1.194   4.759   6.822 -0.6663 -1.2366  2.2077
  109OSM    H6T11146   1.053   4.663   6.787 -0.8883 -1.0782 -0.6330
  109OSM    C7S11147   1.217   4.606   6.653 -0.0214 -0.0758  0.2385
  109OSM    H7S11148   1.173   4.506   6.633 -2.1897  0.9850 -0.5855
  109OSM    H7T11149   1.328   4.603   6.656  0.1497  2.3042 -1.4951
  109OSM    C8S11150   1.180   4.685   6.535  0.3087  0.4877 -0.1950
  109OSM    H8S11151   1.223   4.787   6.548  1.8755 -0.3485  1.8103
  109OSM    H8T11152   1.071   4.702   6.542  0.7007  2.7911  1.4675
  109OSM    C9S11153   1.245   4.638   6.408  0.2542 -0.8223 -0.5069
  109OSM    H9S11154   1.216   4.532   6.396 -0.8360 -0.6490  0.5157
  109OSM    H9T11155   1.355   4.655   6.412  0.1412 -0.3054  0.8187
  109OSM   C10S11156   1.199   4.707   6.286  0.1457 -0.0097 -0.5609
  109OSM   H10S11157   1.203   4.817   6.294 -1.3540  0.0693 -0.5563
  109OSM   H10T11158   1.091   4.696   6.261  0.4496  1.0173 -2.4813
  109OSM   C11S11159   1.269   4.659   6.152  0.2868  0.6516 -0.1009
  109OSM   H11S11160   1.245   4.551   6.145 -2.3954  1.1373  0.5369
  109OSM   H11T11161   1.377   4.683   6.155  0.2581  0.7335  0.2868
  109OSM   C12S11162   1.217   4.729   6.026 -0.0599 -0.0001 -0.1501
  109OSM   H12S11163   1.226   4.840   6.032  1.6738 -0.1308  0.1887
  109OSM   H12T11164   1.112   4.693   6.017 -0.6223  1.7557 -1.0952
  109OSM   C13S11165   1.289   4.694   5.893  0.0297  0.4256 -0.1839
  109OSM   H13S11166   1.303   4.584   5.880 -0.4454  0.6473 -3.2660
  109OSM   H13T11167   1.394   4.731   5.895 -0.3574  1.9826 -3.3055
  109OSM   C14S11168   1.224   4.758   5.773  0.1836 -0.6483  0.4989
  109OSM   H14S11169   1.247   4.867   5.765  0.1676 -0.7628 -1.7798
  109OSM   H14T11170   1.113   4.754   5.773  0.1202  0.6950  0.6419
  109OSM   C15S11171   1.276   4.692   5.644  0.1873  0.1960  0.4135
  109OSM   H15S11172   1.248   4.585   5.640 -3.5508  1.0272  0.0727
  109OSM   H15T11173   1.386   4.691   5.631  0.0528 -1.8928 -1.0895
  109OSM   C16S11174   1.231   4.771   5.516  0.3659  0.9106  0.9243
  109OSM   H16S11175   1.295   4.857   5.489  0.4394 -0.3279 -3.7599
  109OSM   H16T11176   1.131   4.816   5.534 -0.5579 -0.6413 -0.1195
  109OSM   C17S11177   1.231   4.678   5.393 -0.3811 -0.0767 -0.1856
  109OSM   H17S11178   1.173   4.727   5.312  0.0487  0.1785 -0.3421
  109OSM   H17T11179   1.174   4.584   5.406  0.0683 -0.1822  1.1040
  109OSM   C18S11180   1.366   4.641   5.327  0.3502  0.5148 -0.0419
  109OSM   H18S11181   1.425   4.735   5.325 -0.4856  1.0529  0.2438
  109OSM   H18T11182   1.341   4.611   5.223 -1.5526 -0.6706  0.7174
  109OSM   H18U11183   1.434   4.570   5.379  1.5216  0.9741 -0.8979
  109OSM    C1F11184   1.188   4.065   6.912  0.6515 -0.3459  0.7835
  109OSM     OF11185   1.107   4.037   6.999  0.3642  0.1481 -0.1505
  109OSM    C2F11186   1.211   3.976   6.786  0.5040 -0.2330 -0.6878
  109OSM    H2F11187   1.294   3.908   6.812  1.6357  1.6051  0.7738
  109OSM    H2G11188   1.232   4.041   6.698  0.5362  2.5153  1.2269
  109OSM    C3F11189   1.097   3.881   6.762  0.6779  0.2496 -0.3804
  109OSM    H3F11190   0.997   3.928   6.745  0.3286 -0.6026 -0.7535
  109OSM    H3G11191   1.080   3.815   6.850  0.8557 -2.0722 -1.9831
  109OSM    C4F11192   1.120   3.785   6.647  0.2031  0.8324 -0.3149
  109OSM    H4F11193   1.023   3.730   6.642  0.2842  0.3560  2.1600
  109OSM    H4G11194   1.202   3.715   6.671 -0.2016 -0.0803 -1.4822
  109OSM    C5F11195   1.163   3.853   6.517  0.7130  0.4117 -0.1629
  109OSM    H5F11196   1.262   3.895   6.544  1.6855 -2.3054  0.7646
  109OSM    H5G11197   1.092   3.935   6.493  0.6921  0.0345 -1.4621
  109OSM    C6F11198   1.158   3.755   6.395 -0.0651  0.0852  0.4672
  109OSM    H6F11199   1.051   3.731   6.374 -0.4753  0.7657  1.6478
  109OSM    H6G11200   1.197   3.655   6.424  0.9377  0.0547 -0.9276
  109OSM    C7F11201   1.232   3.811   6.271  0.0537  0.1665  0.0655
  109OSM    H7F11202   1.339   3.794   6.295 -0.1287 -2.3795 -0.6401
  109OSM    H7G11203   1.208   3.919   6.262 -1.3193 -0.0076  1.2829
  109OSM    C8F11204   1.201   3.742   6.142 -0.5366  0.0350 -0.3315
  109OSM    H8F11205   1.093   3.750   6.119 -0.8401 -1.3579  0.5181
  109OSM    H8G11206   1.203   3.632   6.159 -0.4000 -0.1428 -1.3747
  109OSM    C9F11207   1.288   3.795   6.031 -0.0275 -0.1375 -0.1767
  109OSM    H9F11208   1.394   3.797   6.061  0.3917  1.8601 -1.5483
  109OSM   C10F11209   1.243   3.844   5.913  0.1467 -0.2450  0.0833
  109OSM   H10F11210   1.316   3.886   5.842 -1.0409  3.7055  0.9545
  109OSM   C11F11211   1.098   3.832   5.863  0.7734  0.3998  0.0515
  109OSM   H11F11212   1.028   3.894   5.923 -0.3154 -2.2209  1.7039
  109OSM   H11G11213   1.054   3.731   5.879 -0.4644  0.8206 -0.5895
  109OSM   C12F11214   1.066   3.859   5.713 -0.0723  0.1402  0.0839
  109OSM   H12F11215   1.107   3.962   5.706  0.8712  0.0221  2.7322
  109OSM   H12G11216   0.957   3.872   5.697 -0.0947 -0.0318  0.0994
  109OSM   C13F11217   1.128   3.757   5.614  0.9109 -0.4772  0.2435
  109OSM   H13F11218   1.093   3.652   5.622 -1.7284  0.1500 -1.6950
  109OSM   H13G11219   1.238   3.750   5.623  1.2818  0.8972 -2.2636
  109OSM   C14F11220   1.091   3.812   5.479 -0.0714 -0.7964  1.3521
  109OSM   H14F11221   1.107   3.922   5.481 -0.9559 -0.6153  0.0179
  109OSM   H14G11222   0.981   3.810   5.463 -0.2353 -2.8362  2.4166
  109OSM   C15F11223   1.171   3.748   5.363  0.1935  0.0991  0.0954
  109OSM   H15F11224   1.143   3.640   5.367 -2.4595  0.7250  0.2223
  109OSM   H15G11225   1.279   3.759   5.387  0.4278  0.1422 -0.9536
  109OSM   C16F11226   1.134   3.817   5.231  0.0407 -0.5677 -0.8090
  109OSM   H16F11227   1.169   3.923   5.227  0.1850 -0.5983 -0.3966
  109OSM   H16G11228   1.023   3.821   5.227 -0.0754  1.4664  1.7082
  109OSM   C17F11229   1.185   3.734   5.116  0.8219 -0.9052  0.3458
  109OSM   H17F11230   1.163   3.626   5.130 -0.5002 -0.6099  0.6727
  109OSM   H17G11231   1.293   3.751   5.095  0.6197 -0.1594 -0.1500
  109OSM   C18F11232   1.109   3.768   4.989 -0.0082 -0.5139  0.8798
  109OSM   H18F11233   1.162   3.723   4.903 -0.7915 -1.4725  0.8866
  109OSM   H18G11234   1.109   3.878   4.971 -0.6101 -0.5539  0.6038
  109OSM   H18H11235   1.005   3.729   4.992 -0.1631 -0.1367  0.5896
  110OSM      N11236   6.664   5.480   7.692 -0.0687 -0.5425 -0.2252
  110OSM    C1511237   6.625   5.402   7.569  0.7383 -0.3482  0.4725
  110OSM   H15A11238   6.545   5.458   7.522 -0.9464 -1.5708  1.7359
  110OSM   H15B11239   6.591   5.304   7.598 -2.2277  0.7496  1.1673
  110OSM   H15C11240   6.691   5.387   7.485 -2.1078 -5.5375 -1.2967
  110OSM    C1411241   6.532   5.518   7.760 -0.3581  0.3363  0.0673
  110OSM   H14A11242   6.496   5.423   7.797 -1.1469  0.8571  0.6735
  110OSM   H14B11243   6.465   5.560   7.686  0.8319  1.4510 -0.4205
  110OSM   H14C11244   6.545   5.587   7.842  1.0036 -0.2941  0.4254
  110OSM    C1311245   6.760   5.401   7.776  0.5905  0.3160 -0.3641
  110OSM   H13A11246   6.782   5.466   7.860 -2.9355 -1.0402  1.8874
  110OSM   H13B11247   6.852   5.361   7.737  1.4502 -0.0402  1.8660
  110OSM   H13C11248   6.716   5.316   7.826 -0.4289  1.9158  1.6064
  110OSM    C1211249   6.733   5.612   7.648 -0.9282 -0.3032 -0.1697
  110OSM   H12A11250   6.763   5.664   7.737 -0.0517 -0.2808 -0.4639
  110OSM   H12B11251   6.667   5.680   7.598  0.4576  0.9635 -0.3512
  110OSM    C1111252   6.858   5.594   7.565 -0.2236  0.1981 -0.0518
  110OSM   H11A11253   6.846   5.511   7.493 -1.2722  1.2598 -1.1244
  110OSM   H11B11254   6.937   5.550   7.631 -1.0154 -3.8927 -1.5301
  110OSM      P11255   6.872   5.794   7.388 -0.0351 -0.0726 -0.2172
  110OSM    O1311256   6.746   5.869   7.418 -0.2047 -0.0891 -0.4817
  110OSM    O1411257   6.989   5.865   7.338 -0.3595  0.0141 -0.4128
  110OSM    O1111258   6.841   5.684   7.284 -0.3604 -0.5487  0.0498
  110OSM    O1211259   6.914   5.720   7.519 -0.2558  0.4657 -0.5067
  110OSM    C1S11260   6.776   5.701   7.164 -0.3419  0.0843  0.0977
  110OSM    H1S11261   6.816   5.790   7.111 -0.5494 -0.4556 -0.9882
  110OSM    H1T11262   6.668   5.718   7.183 -0.6287 -0.7109 -0.7536
  110OSM     NF11263   6.794   5.613   6.932 -0.0106 -0.2159 -0.8525
  110OSM    HNF11264   6.733   5.574   6.864  1.0758  0.1109 -2.0610
  110OSM    C2S11265   6.806   5.573   7.072  0.5863 -0.0561  0.0616
  110OSM    H2S11266   6.906   5.529   7.094 -0.8264 -2.5348  1.9569
  110OSM    C3S11267   6.702   5.463   7.112  0.4338  0.0259 -0.1692
  110OSM    H3S11268   6.612   5.508   7.066  0.5939  1.3131  0.7212
  110OSM     O311269   6.674   5.445   7.253 -0.2981  0.2778 -0.2558
  110OSM    HO311270   6.708   5.524   7.295 -0.9471 -0.3274  1.4965
  110OSM    C4S11271   6.731   5.329   7.037  0.5465 -0.8261 -0.1581
  110OSM    H4S11272   6.661   5.316   6.954  1.7489 -0.6499 -1.2229
  110OSM    C5S11273   6.841   5.255   7.045 -0.5645  0.3335 -0.7157
  110OSM    H5S11274   6.916   5.287   7.120 -3.0456  0.0023  2.1317
  110OSM    C6S11275   6.874   5.138   6.959  0.3474  0.0764  0.6099
  110OSM    H6S11276   6.849   5.044   7.012 -1.0549  0.3097  0.3955
  110OSM    H6T11277   6.984   5.125   6.945  0.8096  2.4267  1.6237
  110OSM    C7S11278   6.816   5.139   6.814  0.4441 -0.2261  0.1700
  110OSM    H7S11279   6.705   5.148   6.812  0.3855 -0.7975  0.5313
  110OSM    H7T11280   6.851   5.044   6.770  0.7403 -0.6718  1.3238
  110OSM    C8S11281   6.877   5.245   6.724  0.2057  0.1295  0.0796
  110OSM    H8S11282   6.986   5.249   6.745  0.4179  0.2080 -1.0033
  110OSM    H8T11283   6.844   5.347   6.754  1.1563 -0.1397  2.2530
  110OSM    C9S11284   6.844   5.219   6.578  0.7832 -1.1187 -0.0663
  110OSM    H9S11285   6.734   5.206   6.569  0.6068 -0.3391  0.8167
  110OSM    H9T11286   6.894   5.122   6.555  2.0115 -0.4730 -0.1710
  110OSM   C10S11287   6.890   5.327   6.474 -0.2645 -0.2611 -0.5184
  110OSM   H10S11288   6.993   5.343   6.513 -0.3606 -1.4643  0.2983
  110OSM   H10T11289   6.827   5.418   6.465  3.3078  2.7932  2.0282
  110OSM   C11S11290   6.919   5.267   6.329  0.1903 -0.0822  0.3265
  110OSM   H11S11291   7.004   5.198   6.343 -0.2052 -0.2697  2.0495
  110OSM   H11T11292   6.949   5.347   6.258  1.9105 -0.2291  0.8623
  110OSM   C12S11293   6.801   5.189   6.269 -0.4991  0.2251 -0.8193
  110OSM   H12S11294   6.708   5.248   6.284 -0.3367  0.1126  0.8339
  110OSM   H12T11295   6.794   5.106   6.343  1.2104  0.5163 -0.2973
  110OSM   C13S11296   6.825   5.131   6.127  0.5247  0.5096  0.3084
  110OSM   H13S11297   6.741   5.063   6.103  1.3149 -1.3870  2.6090
  110OSM   H13T11298   6.913   5.065   6.109 -0.0705 -0.7241  1.8185
  110OSM   C14S11299   6.829   5.249   6.019 -0.1023  0.3446  0.3287
  110OSM   H14S11300   6.911   5.320   6.041  0.8153 -0.7527  0.5721
  110OSM   H14T11301   6.729   5.297   6.017 -0.6284 -0.7324 -0.1652
  110OSM   C15S11302   6.850   5.202   5.871 -0.0345  0.1012 -0.1240
  110OSM   H15S11303   6.758   5.144   5.848 -0.5831 -0.6096  3.2498
  110OSM   H15T11304   6.943   5.141   5.862 -0.3793 -0.0785 -3.5562
  110OSM   C16S11305   6.864   5.317   5.774  0.0245  0.1255  0.0467
  110OSM   H16S11306   6.944   5.389   5.799  2.2657 -1.7696 -1.2796
  110OSM   H16T11307   6.774   5.380   5.756  0.6472  0.9343 -0.2457
  110OSM   C17S11308   6.893   5.262   5.632  0.2075  0.1069 -0.7475
  110OSM   H17S11309   6.829   5.173   5.617  0.0851 -0.1745  1.1311
  110OSM   H17T11310   7.002   5.241   5.644  0.2738  0.1645 -1.2594
  110OSM   C18S11311   6.885   5.358   5.521 -0.0521 -0.8338  0.4709
  110OSM   H18S11312   6.917   5.309   5.426 -1.1394 -0.2922 -0.2001
  110OSM   H18T11313   6.954   5.444   5.522  0.5541 -1.1439 -2.8272
  110OSM   H18U11314   6.780   5.391   5.506  0.5769  0.7109 -0.8671
  110OSM    C1F11315   6.885   5.682   6.870 -0.5672 -0.1866  0.0342
  110OSM     OF11316   6.977   5.733   6.932 -0.0132  0.7279  0.0528
  110OSM    C2F11317   6.879   5.707   6.720 -0.7819  0.5691  0.3953
  110OSM    H2F11318   6.785   5.750   6.680  0.6908  1.1241 -2.7024
  110OSM    H2G11319   6.871   5.609   6.668  0.4718  1.4111 -1.4780
  110OSM    C3F11320   7.000   5.786   6.668  0.3161  0.2800  0.1431
  110OSM    H3F11321   7.094   5.747   6.714 -0.1324 -1.2089 -0.1703
  110OSM    H3G11322   6.990   5.896   6.679  1.1992  0.2140  2.2548
  110OSM    C4F11323   7.010   5.759   6.519 -0.1933  0.0724 -0.2669
  110OSM    H4F11324   7.037   5.651   6.512  1.4557  0.1558  2.7542
  110OSM    H4G11325   7.107   5.801   6.485 -0.7976  0.3473 -1.7051
  110OSM    C5F11326   6.908   5.825   6.430 -0.5013 -0.6147  0.0631
  110OSM    H5F11327   6.915   5.934   6.451 -2.8814 -0.5146  0.6234
  110OSM    H5G11328   6.804   5.800   6.461 -0.5963 -1.8158 -1.1432
  110OSM    C6F11329   6.913   5.782   6.284 -0.2174  0.1044  0.2887
  110OSM    H6F11330   6.889   5.676   6.262 -0.9731  0.2639  0.3206
  110OSM    H6G11331   7.015   5.793   6.240 -0.1376  0.2979  0.5192
  110OSM    C7F11332   6.823   5.857   6.182 -0.2041 -0.8079  0.3937
  110OSM    H7F11333   6.841   5.965   6.203 -1.0272 -1.1759  3.4808
  110OSM    H7G11334   6.714   5.837   6.189 -0.4965 -0.1251 -1.5815
  110OSM    C8F11335   6.882   5.839   6.039 -0.3343  0.2835 -0.1376
  110OSM    H8F11336   6.879   5.733   6.005 -2.2052  0.2710 -0.0349
  110OSM    H8G11337   6.989   5.862   6.057 -0.0279  0.0920 -1.6024
  110OSM    C9F11338   6.826   5.925   5.930 -0.5923  0.3291  0.4241
  110OSM    H9F11339   6.819   6.028   5.967 -0.8810 -0.2670  2.1168
  110OSM   C10F11340   6.782   5.892   5.805  0.2152  0.5795  0.8365
  110OSM   H10F11341   6.735   5.975   5.749  1.2802 -0.0861 -1.1333
  110OSM   C11F11342   6.789   5.761   5.735 -0.6609  0.3765  0.2088
  110OSM   H11F11343   6.792   5.679   5.811  0.8621 -1.4363 -1.7135
  110OSM   H11G11344   6.881   5.739   5.678  0.1677  2.2244  0.7769
  110OSM   C12F11345   6.659   5.722   5.661 -0.0216 -0.2073 -0.6271
  110OSM   H12F11346   6.658   5.623   5.611 -0.1119 -0.2097 -0.6225
  110OSM   H12G11347   6.634   5.798   5.583  0.2921  1.0207  0.4216
  110OSM   C13F11348   6.533   5.719   5.747 -0.1846 -0.1202  0.5959
  110OSM   H13F11349   6.441   5.696   5.688 -0.9607 -0.3357  1.8555
  110OSM   H13G11350   6.512   5.823   5.778  2.0529  0.5010  0.1808
  110OSM   C14F11351   6.555   5.623   5.872  0.4475  0.2445  0.2796
  110OSM   H14F11352   6.636   5.653   5.942 -1.6041  0.7913  2.5186
  110OSM   H14G11353   6.574   5.520   5.834 -1.3453 -1.0385  2.6306
  110OSM   C15F11354   6.420   5.617   5.952 -0.6822  0.3398 -0.1109
  110OSM   H15F11355   6.357   5.585   5.866  1.5016 -1.6605 -1.0741
  110OSM   H15G11356   6.406   5.723   5.984  0.3451  0.1848  0.9304
  110OSM   C16F11357   6.425   5.535   6.083 -0.2311 -0.0421  0.2838
  110OSM   H16F11358   6.447   5.428   6.063 -0.1345 -0.0245  0.2970
  110OSM   H16G11359   6.326   5.535   6.133 -0.2362  1.7450  0.3613
  110OSM   C17F11360   6.537   5.590   6.178 -0.0473 -0.0035 -0.3776
  110OSM   H17F11361   6.519   5.697   6.203  2.4812  0.3046  0.4068
  110OSM   H17G11362   6.632   5.595   6.121 -0.5532 -1.9909 -1.4689
  110OSM   C18F11363   6.573   5.516   6.313 -0.1617  0.1621 -0.1529
  110OSM   H18F11364   6.625   5.589   6.380 -0.8763  1.4044 -0.9045
  110OSM   H18G11365   6.658   5.448   6.293  1.8143  2.4991 -0.2476
  110OSM   H18H11366   6.479   5.468   6.347 -0.7655  0.8183 -0.8743
  111OSM      N11367   2.549   5.162   7.489  0.2933  0.7058 -0.6635
  111OSM    C1511368   2.517   5.036   7.573 -0.3911  0.2502 -0.1273
  111OSM   H15A11369   2.512   4.952   7.505  1.3951  1.1047 -1.3863
  111OSM   H15B11370   2.427   5.044   7.633 -0.5550 -0.2933 -0.2882
  111OSM   H15C11371   2.595   5.025   7.647 -1.3560  1.8279  1.2108
  111OSM    C1411372   2.694   5.135   7.446 -0.0021  0.0330 -0.1025
  111OSM   H14A11373   2.711   5.223   7.386 -0.0565  1.6728  2.1653
  111OSM   H14B11374   2.710   5.038   7.399 -0.2280 -1.7862  3.2761
  111OSM   H14C11375   2.766   5.135   7.527  2.2721 -3.1904 -1.8918
  111OSM    C1311376   2.461   5.161   7.369  0.2064  0.1536 -0.0527
  111OSM   H13A11377   2.492   5.230   7.292  0.7401 -0.6929 -0.6019
  111OSM   H13B11378   2.364   5.200   7.395  0.2832 -1.1769  2.5442
  111OSM   H13C11379   2.455   5.068   7.316  3.0990  0.6728 -1.4658
  111OSM    C1211380   2.559   5.286   7.572  0.0722  0.0861 -0.1476
  111OSM   H12A11381   2.600   5.265   7.670 -0.0604  2.0218  0.3603
  111OSM   H12B11382   2.459   5.316   7.602  0.0483 -0.8829  0.8161
  111OSM    C1111383   2.629   5.412   7.508 -0.5265 -0.0642 -0.5680
  111OSM   H11A11384   2.738   5.391   7.506 -0.6201 -1.4017  2.4646
  111OSM   H11B11385   2.623   5.500   7.576  1.6112  0.1331 -0.5633
  111OSM      P11386   2.465   5.526   7.333  0.0945 -0.0177 -0.0821
  111OSM    O1311387   2.371   5.449   7.247  0.3542  0.2066 -0.3569
  111OSM    O1411388   2.422   5.595   7.458  0.1848  0.0150 -0.2190
  111OSM    O1111389   2.542   5.632   7.252  0.1367 -0.7549  0.5025
  111OSM    O1211390   2.589   5.436   7.375  0.2935 -0.5198 -0.5502
  111OSM    C1S11391   2.623   5.611   7.140 -0.6133  0.5241 -0.0125
  111OSM    H1S11392   2.676   5.513   7.150  0.7334  0.8950 -2.5314
  111OSM    H1T11393   2.696   5.694   7.123  1.5682 -1.9137 -4.0160
  111OSM     NF11394   2.647   5.555   6.903  0.5962 -0.3000  0.3319
  111OSM    HNF11395   2.697   5.616   6.841  0.7928 -1.3714 -0.5900
  111OSM    C2S11396   2.552   5.597   7.007 -0.5899 -0.3211  0.2220
  111OSM    H2S11397   2.477   5.514   7.008  0.5283 -1.4153 -1.2727
  111OSM    C3S11398   2.481   5.734   6.981  0.6959  0.0121 -0.0373
  111OSM    H3S11399   2.559   5.811   6.961  0.5849 -0.3939 -2.2284
  111OSM     O311400   2.396   5.789   7.087 -0.1583 -0.1447  0.3451
  111OSM    HO311401   2.413   5.734   7.164  0.8768  1.0207  0.9777
  111OSM    C4S11402   2.404   5.727   6.851  0.3758 -0.3201  0.3287
  111OSM    H4S11403   2.462   5.711   6.759 -2.1855 -0.0394 -1.4214
  111OSM    C5S11404   2.274   5.714   6.832  0.1040 -0.4521 -0.3555
  111OSM    H5S11405   2.202   5.709   6.915 -1.1640 -0.9924 -1.4443
  111OSM    C6S11406   2.194   5.705   6.704 -0.3408  0.3737 -0.2665
  111OSM    H6S11407   2.145   5.803   6.688  0.9824  0.8922 -1.3034
  111OSM    H6T11408   2.116   5.626   6.715  1.4789 -1.4377  0.2230
  111OSM    C7S11409   2.273   5.663   6.578  0.2928 -0.1798 -0.1751
  111OSM    H7S11410   2.329   5.569   6.597  1.5614  0.0174 -2.5291
  111OSM    H7T11411   2.350   5.734   6.539  1.2992 -1.8685 -1.4067
  111OSM    C8S11412   2.175   5.645   6.459  0.4406  0.6701  0.4968
  111OSM    H8S11413   2.097   5.725   6.458 -0.1395  0.1216 -0.9343
  111OSM    H8T11414   2.127   5.547   6.477  1.7971  0.0620  0.8871
  111OSM    C9S11415   2.249   5.632   6.320  0.9445  0.0289  0.3736
  111OSM    H9S11416   2.278   5.531   6.285 -0.2067  0.0160 -0.6280
  111OSM    H9T11417   2.345   5.687   6.311  0.0821  1.6298  0.6629
  111OSM   C10S11418   2.157   5.687   6.204  0.0595 -0.9909  0.1679
  111OSM   H10S11419   2.186   5.794   6.189 -2.0354 -0.5705 -1.1310
  111OSM   H10T11420   2.049   5.670   6.219 -0.0499 -0.0828  0.4765
  111OSM   C11S11421   2.179   5.614   6.070  0.2723 -0.1694  1.1337
  111OSM   H11S11422   2.156   5.505   6.077 -2.6330  0.3899  1.8627
  111OSM   H11T11423   2.287   5.623   6.045 -0.3840  1.2499 -1.5284
  111OSM   C12S11424   2.088   5.675   5.961 -0.6316  0.1209  0.4528
  111OSM   H12S11425   2.091   5.786   5.967  0.6776  0.0080  3.4888
  111OSM   H12T11426   1.984   5.642   5.985 -0.9156  0.7878  0.1752
  111OSM   C13S11427   2.121   5.637   5.817 -0.6029 -0.3036 -0.0641
  111OSM   H13S11428   2.095   5.531   5.796  2.0639 -1.3960  1.6369
  111OSM   H13T11429   2.230   5.629   5.798 -1.1644 -1.8712 -3.4560
  111OSM   C14S11430   2.069   5.724   5.703  0.0539 -0.1619 -0.5346
  111OSM   H14S11431   2.080   5.831   5.732  0.4136 -0.2823 -0.2173
  111OSM   H14T11432   1.960   5.702   5.695 -0.5640  1.6124  1.8011
  111OSM   C15S11433   2.137   5.691   5.570 -0.2039  0.0342  0.1992
  111OSM   H15S11434   2.136   5.580   5.557 -0.9096  0.0048  0.5023
  111OSM   H15T11435   2.244   5.716   5.589 -0.1494 -1.2355  1.8525
  111OSM   C16S11436   2.086   5.767   5.449 -0.3608 -0.0480 -1.2038
  111OSM   H16S11437   2.139   5.738   5.356  0.5819 -4.8846  0.5579
  111OSM   H16T11438   2.089   5.876   5.473 -0.3709  0.0914 -1.8133
  111OSM   C17S11439   1.941   5.746   5.408 -0.1533 -0.3575 -0.0309
  111OSM   H17S11440   1.932   5.823   5.328  0.2158  2.8157  2.7577
  111OSM   H17T11441   1.870   5.771   5.490 -0.6030  0.6446 -0.7074
  111OSM   C18S11442   1.902   5.608   5.359  0.0964  0.0491 -0.3012
  111OSM   H18S11443   1.792   5.596   5.345 -0.2343  1.4007  0.9490
  111OSM   H18T11444   1.932   5.533   5.435 -0.2876  1.3790  1.2250
  111OSM   H18U11445   1.949   5.577   5.264 -0.2593  0.8694 -0.7577
  111OSM    C1F11446   2.691   5.429   6.894 -0.8730 -0.0174 -0.5305
  111OSM     OF11447   2.665   5.343   6.980  0.5715 -0.4228  0.0869
  111OSM    C2F11448   2.787   5.394   6.786 -0.4234  0.0927 -0.5920
  111OSM    H2F11449   2.882   5.352   6.824 -2.1641 -1.3102  2.6248
  111OSM    H2G11450   2.802   5.472   6.709  3.1128 -0.8292 -0.9866
  111OSM    C3F11451   2.735   5.274   6.694  0.1598 -0.3063 -0.6311
  111OSM    H3F11452   2.735   5.183   6.757  0.4557  1.4434  2.0902
  111OSM    H3G11453   2.805   5.265   6.609 -0.6494  0.0810 -1.3587
  111OSM    C4F11454   2.586   5.285   6.635 -0.2447  0.2200  0.1704
  111OSM    H4F11455   2.514   5.315   6.714 -0.8492  0.5455 -0.4940
  111OSM    H4G11456   2.555   5.183   6.604 -1.5584 -0.6569  3.9181
  111OSM    C5F11457   2.578   5.385   6.524 -0.0605  0.1581 -0.3198
  111OSM    H5F11458   2.640   5.477   6.535 -0.9973  0.9822 -1.6183
  111OSM    H5G11459   2.471   5.414   6.517 -0.2034 -0.2970 -0.0913
  111OSM    C6F11460   2.615   5.329   6.398 -0.1339  0.6373 -0.0173
  111OSM    H6F11461   2.561   5.235   6.372  0.8744 -0.3165  1.2127
  111OSM    H6G11462   2.721   5.296   6.395 -0.0956  0.6452  0.9552
  111OSM    C7F11463   2.578   5.412   6.272 -0.3552 -0.3441  0.0648
  111OSM    H7F11464   2.645   5.498   6.292  2.2085 -2.2835  0.3109
  111OSM    H7G11465   2.474   5.447   6.287  0.5777  1.8040  2.1024
  111OSM    C8F11466   2.599   5.350   6.130 -0.5028  0.1226 -0.3005
  111OSM    H8F11467   2.554   5.248   6.128  0.4852 -0.3214 -1.2757
  111OSM    H8G11468   2.707   5.323   6.127 -0.9461 -2.2180  1.7392
  111OSM    C9F11469   2.549   5.440   6.023  0.2238  0.0747 -0.0339
  111OSM    H9F11470   2.592   5.541   6.033 -1.9120  0.9105  1.3407
  111OSM   C10F11471   2.448   5.419   5.930  0.0312  0.2896  0.7502
  111OSM   H10F11472   2.431   5.504   5.861 -0.7243  0.7080  1.4355
  111OSM   C11F11473   2.367   5.294   5.916  0.4209  0.4612 -0.1771
  111OSM   H11F11474   2.277   5.330   5.861 -0.0817  0.1755  0.4470
  111OSM   H11G11475   2.334   5.258   6.016 -1.4158  3.7335  0.5271
  111OSM   C12F11476   2.454   5.184   5.842 -0.1739 -0.2174 -0.8673
  111OSM   H12F11477   2.395   5.091   5.856 -0.0932 -0.2065 -0.4429
  111OSM   H12G11478   2.540   5.155   5.906 -1.5168 -0.0918  1.0905
  111OSM   C13F11479   2.489   5.211   5.699  0.2968  0.2527  0.4735
  111OSM   H13F11480   2.555   5.128   5.666 -0.9446 -0.8054  0.5878
  111OSM   H13G11481   2.554   5.301   5.707  0.1716  0.2033  2.7606
  111OSM   C14F11482   2.375   5.243   5.611  0.0396 -0.1344  0.4525
  111OSM   H14F11483   2.314   5.325   5.654  0.0390 -1.1562  2.4750
  111OSM   H14G11484   2.302   5.160   5.598 -1.3748  1.2701 -1.1679
  111OSM   C15F11485   2.414   5.298   5.469  0.5367 -0.0383 -1.0376
  111OSM   H15F11486   2.427   5.217   5.394 -0.1665  0.0842 -1.2991
  111OSM   H15G11487   2.510   5.352   5.484 -0.8542  1.6168  3.5256
  111OSM   C16F11488   2.308   5.393   5.416 -0.0253 -0.0947  0.1993
  111OSM   H16F11489   2.293   5.472   5.493  1.6619 -0.3091  0.7973
  111OSM   H16G11490   2.206   5.349   5.414 -0.5337  0.9156  1.8491
  111OSM   C17F11491   2.342   5.470   5.285 -0.0336  0.9186 -0.4477
  111OSM   H17F11492   2.259   5.540   5.260 -0.4226  0.8570  0.6279
  111OSM   H17G11493   2.335   5.398   5.201  1.0368 -0.1197  0.3133
  111OSM   C18F11494   2.476   5.535   5.270  0.1728 -0.4820 -0.0310
  111OSM   H18F11495   2.518   5.536   5.168  0.8544  1.6891  0.2107
  111OSM   H18G11496   2.551   5.486   5.336  2.2813  2.7331  0.1931
  111OSM   H18H11497   2.467   5.637   5.314 -0.9358 -1.4131  2.0682
  112OSM      N11498   5.775   1.037   7.250  0.7544  0.6924 -0.1989
  112OSM    C1511499   5.640   1.016   7.306  0.8003 -0.4842 -1.0176
  112OSM   H15A11500   5.567   1.069   7.246  2.7920  0.1365 -3.0304
  112OSM   H15B11501   5.635   1.053   7.407  0.8532 -0.5146 -1.0035
  112OSM   H15C11502   5.618   0.910   7.299 -2.9251 -0.3345  3.2687
  112OSM    C1411503   5.812   1.178   7.248  0.5728  0.7886  0.0977
  112OSM   H14A11504   5.907   1.193   7.199  0.6148  0.9953  0.2410
  112OSM   H14B11505   5.820   1.221   7.347  0.4727 -1.3645  1.1071
  112OSM   H14C11506   5.738   1.230   7.190 -1.7887 -3.4136 -1.0533
  112OSM    C1311507   5.874   0.970   7.335  0.0652  0.1022 -1.2348
  112OSM   H13A11508   5.887   1.007   7.436 -0.8914 -0.9360 -0.7144
  112OSM   H13B11509   5.970   0.978   7.286  0.7711 -0.5747 -0.0320
  112OSM   H13C11510   5.849   0.866   7.349 -1.1024  0.4129 -0.8821
  112OSM    C1211511   5.780   0.989   7.103  0.2644  0.5633  0.4531
  112OSM   H12A11512   5.718   1.047   7.037  1.0408  0.4030 -0.4410
  112OSM   H12B11513   5.740   0.888   7.101 -2.1092  1.4607 -0.2865
  112OSM    C1111514   5.921   0.978   7.044 -0.3191  0.6200 -0.6040
  112OSM   H11A11515   5.983   1.063   7.080 -0.6847  0.7990 -0.3876
  112OSM   H11B11516   5.926   0.992   6.934 -2.0444 -0.9871 -0.9333
  112OSM      P11517   6.131   0.824   7.085 -0.0544 -0.7333  0.0198
  112OSM    O1311518   6.198   0.895   7.194 -0.2514  0.3441 -0.0005
  112OSM    O1411519   6.144   0.678   7.090  0.1446 -0.1410  0.0542
  112OSM    O1111520   6.189   0.891   6.952  0.1538  0.0662 -0.0608
  112OSM    O1211521   5.974   0.852   7.080 -0.1314  0.6168  0.2853
  112OSM    C1S11522   6.215   0.813   6.842  0.1528  0.4190  1.2708
  112OSM    H1S11523   6.161   0.716   6.839  0.5157  0.2208  0.9680
  112OSM    H1T11524   6.323   0.785   6.839  0.0309 -0.0225 -1.4620
  112OSM     NF11525   6.223   0.808   6.601 -0.5197 -0.3277  0.3496
  112OSM    HNF11526   6.309   0.828   6.555  0.7942  0.8503  3.0918
  112OSM    C2S11527   6.192   0.890   6.712 -0.2293  0.8061 -0.2517
  112OSM    H2S11528   6.083   0.907   6.700 -0.1498  1.6889  0.1694
  112OSM    C3S11529   6.250   1.026   6.706 -0.7481  0.1927  0.2022
  112OSM    H3S11530   6.354   1.038   6.743 -0.9210 -1.1797  1.2392
  112OSM     O311531   6.192   1.117   6.803 -0.4521  0.4221  0.1776
  112OSM    HO311532   6.155   1.052   6.864 -1.3141 -0.0227 -0.7913
  112OSM    C4S11533   6.238   1.092   6.571 -0.3122  1.1301  0.3234
  112OSM    H4S11534   6.131   1.108   6.548 -0.4967 -0.2357  0.1370
  112OSM    C5S11535   6.338   1.138   6.489 -0.4224 -0.3468 -0.1173
  112OSM    H5S11536   6.444   1.116   6.506  0.0384  2.1086  0.5303
  112OSM    C6S11537   6.300   1.217   6.370 -0.3320 -0.0261 -0.5952
  112OSM    H6S11538   6.388   1.260   6.317 -0.8951  3.1976  0.8510
  112OSM    H6T11539   6.247   1.314   6.382  0.1872  0.4510 -1.8772
  112OSM    C7S11540   6.204   1.143   6.272  0.7199 -0.1967  0.8602
  112OSM    H7S11541   6.108   1.109   6.315 -0.2407 -2.7879 -2.8324
  112OSM    H7T11542   6.249   1.046   6.243 -0.2684 -0.0374 -1.4021
  112OSM    C8S11543   6.180   1.210   6.134  0.4013 -0.2254  0.0697
  112OSM    H8S11544   6.280   1.233   6.090  0.0979  2.5919  0.7018
  112OSM    H8T11545   6.156   1.316   6.152  0.2813 -0.0661 -1.0051
  112OSM    C9S11546   6.079   1.148   6.038 -0.1419 -0.8673 -0.1676
  112OSM    H9S11547   5.978   1.168   6.080  0.6648  1.5341  0.8085
  112OSM    H9T11548   6.097   1.038   6.042  1.7074 -0.6369 -1.1735
  112OSM   C10S11549   6.107   1.215   5.905  0.8866  0.9078 -0.1523
  112OSM   H10S11550   6.196   1.161   5.866 -0.0395  0.7474 -2.1699
  112OSM   H10T11551   6.126   1.323   5.924  0.5509  1.2624 -1.6918
  112OSM   C11S11552   5.981   1.210   5.811 -0.1214 -0.6060  0.8615
  112OSM   H11S11553   5.905   1.274   5.860 -0.3589 -2.5304  3.2159
  112OSM   H11T11554   5.942   1.106   5.807  1.6269 -1.3057 -3.3917
  112OSM   C12S11555   6.010   1.246   5.667 -0.2348  0.2357 -0.6647
  112OSM   H12S11556   6.072   1.337   5.657  0.5970 -0.2704 -0.2163
  112OSM   H12T11557   5.918   1.266   5.609  0.5349 -0.0519 -2.0189
  112OSM   C13S11558   6.092   1.148   5.580  0.6458  0.4698 -0.5943
  112OSM   H13S11559   6.037   1.053   5.596 -0.2276  1.2199  1.1140
  112OSM   H13T11560   6.195   1.149   5.620  0.3375 -1.6720  0.3916
  112OSM   C14S11561   6.090   1.185   5.439  0.3020  0.1701  0.0132
  112OSM   H14S11562   6.117   1.292   5.425 -0.0392  0.1107 -1.1702
  112OSM   H14T11563   5.991   1.168   5.391 -0.5583 -1.0077  2.0955
  112OSM   C15S11564   6.197   1.104   5.363  0.1359 -0.6221  0.5510
  112OSM   H15S11565   6.186   0.999   5.395 -2.4130 -0.0494  1.7807
  112OSM   H15T11566   6.294   1.147   5.398 -1.0066  0.4068  2.6267
  112OSM   C16S11567   6.170   1.139   5.222 -0.6926 -0.4843  1.1581
  112OSM   H16S11568   6.151   1.246   5.204  1.3545 -0.2949 -0.3148
  112OSM   H16T11569   6.088   1.078   5.177  0.8765 -2.4918  0.8368
  112OSM   C17S11570   6.289   1.091   5.133  0.4649  0.0328 -0.2316
  112OSM   H17S11571   6.381   1.123   5.185  0.7846 -0.1241 -0.7005
  112OSM   H17T11572   6.283   1.146   5.036  2.1066 -0.2293 -0.5086
  112OSM   C18S11573   6.291   0.938   5.107 -0.2286  0.0758  0.2329
  112OSM   H18S11574   6.382   0.923   5.046 -1.8115 -2.0748 -1.7452
  112OSM   H18T11575   6.200   0.900   5.056  0.0684 -1.0287  0.5023
  112OSM   H18U11576   6.293   0.888   5.206 -0.6599  0.0054  0.2056
  112OSM    C1F11577   6.144   0.707   6.574 -0.2323  0.1491 -0.0243
  112OSM     OF11578   6.029   0.695   6.625 -0.0788  0.2062 -0.1015
  112OSM    C2F11579   6.204   0.600   6.489  0.6195  0.3296 -0.1827
  112OSM    H2F11580   6.233   0.509   6.545 -1.9757 -0.3187  0.2390
  112OSM    H2G11581   6.297   0.649   6.454  1.1314  1.8773  3.0436
  112OSM    C3F11582   6.124   0.553   6.364 -0.3142 -0.2339 -0.2480
  112OSM    H3F11583   6.036   0.494   6.399 -1.1540  1.6910  1.0325
  112OSM    H3G11584   6.191   0.479   6.315  2.5570  1.9719  0.1559
  112OSM    C4F11585   6.099   0.661   6.265  0.2466 -0.1700 -0.7113
  112OSM    H4F11586   6.184   0.713   6.216 -0.0860  2.6570  1.4427
  112OSM    H4G11587   6.038   0.736   6.321  2.7795  2.6838 -1.4889
  112OSM    C5F11588   6.006   0.609   6.148 -0.2578 -0.2555  0.2431
  112OSM    H5F11589   5.921   0.557   6.199  1.2466 -1.9263  1.1530
  112OSM    H5G11590   6.054   0.538   6.078 -1.2444  1.1820 -2.0023
  112OSM    C6F11591   5.955   0.714   6.047 -0.2339 -0.3689 -0.2646
  112OSM    H6F11592   6.034   0.790   6.031  2.4575 -2.0924  3.4152
  112OSM    H6G11593   5.860   0.752   6.089 -0.3731  0.4151 -1.2434
  112OSM    C7F11594   5.915   0.647   5.920  0.3581 -0.3007 -0.2985
  112OSM    H7F11595   5.828   0.578   5.928 -1.0384  1.5159  0.7547
  112OSM    H7G11596   6.000   0.585   5.884 -0.5510 -1.6865 -0.1342
  112OSM    C8F11597   5.882   0.755   5.813  0.8670  0.1414 -0.2737
  112OSM    H8F11598   5.813   0.837   5.846  0.4483 -0.3427  0.0706
  112OSM    H8G11599   5.829   0.708   5.728 -1.1149  2.1435 -0.2618
  112OSM    C9F11600   6.002   0.832   5.763  0.1615  0.4186 -0.0797
  112OSM    H9F11601   6.034   0.913   5.831 -1.6806 -0.5581  2.1092
  112OSM   C10F11602   6.072   0.793   5.653 -0.0945 -0.0534 -0.3068
  112OSM   H10F11603   6.163   0.845   5.619  0.2886 -0.6370 -0.1938
  112OSM   C11F11604   6.043   0.675   5.565 -0.1023  0.4375  0.3939
  112OSM   H11F11605   5.945   0.624   5.579 -1.5319  2.6491 -1.0039
  112OSM   H11G11606   6.129   0.604   5.555  1.2898  2.1845 -0.6598
  112OSM   C12F11607   6.046   0.710   5.411  0.2657  0.1143 -0.0144
  112OSM   H12F11608   6.043   0.607   5.370  0.1497  0.5576 -1.1685
  112OSM   H12G11609   6.141   0.755   5.373  0.2848 -0.6311 -0.8763
  112OSM   C13F11610   5.919   0.781   5.351 -0.6104 -0.4532 -0.6377
  112OSM   H13F11611   5.938   0.881   5.396  0.2626 -1.1863  0.6823
  112OSM   H13G11612   5.823   0.746   5.395 -0.2280 -0.2976  0.3437
  112OSM   C14F11613   5.927   0.794   5.198 -0.4635 -0.0440  0.2104
  112OSM   H14F11614   6.019   0.842   5.159  0.3613  0.2191  2.3604
  112OSM   H14G11615   5.846   0.862   5.163 -0.6274  0.3387  1.3123
  112OSM   C15F11616   5.917   0.668   5.109 -0.1219 -0.6130  0.1559
  112OSM   H15F11617   5.830   0.607   5.138 -1.6858  1.2832 -0.3155
  112OSM   H15G11618   6.006   0.605   5.132  2.1824  2.4987  0.5351
  112OSM   C16F11619   5.909   0.689   4.951 -0.0057  0.7945 -0.1677
  112OSM   H16F11620   6.001   0.743   4.920  0.4044 -0.3489 -0.9926
  112OSM   H16G11621   5.819   0.753   4.945 -1.5245 -1.3521 -1.8650
  112OSM   C17F11622   5.901   0.554   4.877 -0.0655  0.3653 -0.2613
  112OSM   H17F11623   5.869   0.570   4.772  2.8647  3.6808 -0.8280
  112OSM   H17G11624   5.821   0.496   4.928  1.3515 -0.0215  1.6315
  112OSM   C18F11625   6.027   0.474   4.882 -0.2377  0.3858 -0.2723
  112OSM   H18F11626   6.021   0.380   4.824  1.1853 -0.3241  0.6767
  112OSM   H18G11627   6.058   0.440   4.983 -0.0923  1.4318  0.0512
  112OSM   H18H11628   6.106   0.541   4.843 -0.1700 -0.7413 -2.1504
  113OSM      N11629   4.599   3.050   7.303  0.1615 -0.5179 -0.0306
  113OSM    C1511630   4.526   3.081   7.428  0.3535 -0.0746 -0.4059
  113OSM   H15A11631   4.541   3.173   7.483  0.8070 -1.1670  1.3567
  113OSM   H15B11632   4.557   3.010   7.503  1.1261  0.2508 -0.4031
  113OSM   H15C11633   4.420   3.070   7.410 -0.0286  2.6665 -0.1975
  113OSM    C1411634   4.528   2.926   7.245 -0.1906  0.4654  0.1425
  113OSM   H14A11635   4.547   2.841   7.308  0.1319  0.6998  0.3628
  113OSM   H14B11636   4.560   2.891   7.148 -1.6867  0.3841 -0.3551
  113OSM   H14C11637   4.423   2.948   7.231  0.3574  4.6925  1.1954
  113OSM    C1311638   4.578   3.167   7.211  0.2562  0.3522 -0.8643
  113OSM   H13A11639   4.616   3.128   7.118 -0.2696 -3.3739  0.2890
  113OSM   H13B11640   4.638   3.248   7.251  2.0075 -1.9295  1.5211
  113OSM   H13C11641   4.481   3.214   7.208 -0.7423 -1.5252 -0.0656
  113OSM    C1211642   4.752   3.037   7.321 -0.2236 -0.3636  0.1046
  113OSM   H12A11643   4.804   3.125   7.356  4.3439 -2.4109 -0.7995
  113OSM   H12B11644   4.785   3.014   7.221 -0.4134 -0.8950  0.1600
  113OSM    C1111645   4.795   2.920   7.411  0.1794  0.3254 -0.6262
  113OSM   H11A11646   4.727   2.926   7.499  0.7423  1.1089 -0.2323
  113OSM   H11B11647   4.895   2.947   7.451  1.0068 -2.4882 -0.6042
  113OSM      P11648   4.908   2.721   7.302 -0.5719 -0.2760  0.2532
  113OSM    O1311649   4.989   2.825   7.237 -0.0049 -0.5752 -0.0210
  113OSM    O1411650   4.972   2.639   7.407 -1.0601 -0.0832  0.2061
  113OSM    O1111651   4.849   2.629   7.184 -1.1170 -0.3199 -0.2403
  113OSM    O1211652   4.778   2.789   7.357  0.5729 -0.0778  0.2345
  113OSM    C1S11653   4.713   2.647   7.141 -0.4860  0.4638  0.6844
  113OSM    H1S11654   4.691   2.752   7.115  1.2744  0.9615  1.0778
  113OSM    H1T11655   4.654   2.606   7.226 -0.1190 -1.4653  0.0620
  113OSM     NF11656   4.544   2.595   6.974 -0.9802  0.1548 -0.6464
  113OSM    HNF11657   4.480   2.530   7.014  2.2561 -3.4389 -0.6770
  113OSM    C2S11658   4.687   2.566   7.009  0.5015 -0.1500 -0.6539
  113OSM    H2S11659   4.749   2.621   6.934  0.6081  1.3323  0.4858
  113OSM    C3S11660   4.731   2.420   7.010  0.2670 -0.1575  0.2062
  113OSM    H3S11661   4.667   2.368   7.085 -1.4071  1.3221 -0.1507
  113OSM     O311662   4.847   2.383   7.073 -0.5341  0.1867  0.1244
  113OSM    HO311663   4.868   2.469   7.111 -1.6258  1.4773 -2.0279
  113OSM    C4S11664   4.716   2.348   6.884 -0.1945 -0.6731  0.4573
  113OSM    H4S11665   4.612   2.319   6.865  0.1987 -0.5976 -2.1599
  113OSM    C5S11666   4.807   2.346   6.785 -0.0651 -0.2432  0.1059
  113OSM    H5S11667   4.904   2.397   6.792  1.1688 -2.5597  0.9676
  113OSM    C6S11668   4.800   2.280   6.648  0.4222  0.3522 -0.0357
  113OSM    H6S11669   4.703   2.231   6.624  0.0792  0.3633  1.2426
  113OSM    H6T11670   4.879   2.202   6.655  1.7392  1.6598  0.2179
  113OSM    C7S11671   4.830   2.359   6.525  0.1057 -0.0142 -0.5215
  113OSM    H7S11672   4.929   2.404   6.550 -0.8736  1.6252  0.6096
  113OSM    H7T11673   4.755   2.441   6.521 -0.2252 -0.3156 -0.5216
  113OSM    C8S11674   4.846   2.268   6.405 -0.4870  0.2788  0.0850
  113OSM    H8S11675   4.755   2.206   6.391  0.0344 -0.8087  1.3254
  113OSM    H8T11676   4.928   2.200   6.436 -1.4031 -0.3874  1.1434
  113OSM    C9S11677   4.875   2.349   6.279 -0.0059  0.3434 -0.0813
  113OSM    H9S11678   4.950   2.427   6.305  0.0123  0.5438 -0.7169
  113OSM    H9T11679   4.781   2.399   6.247 -1.1949  1.1832  4.1183
  113OSM   C10S11680   4.934   2.258   6.167  0.3757 -0.5245 -0.2693
  113OSM   H10S11681   4.873   2.165   6.155  2.2126 -1.6606 -1.1708
  113OSM   H10T11682   5.034   2.217   6.193  1.0840  0.2327 -1.7041
  113OSM   C11S11683   4.941   2.318   6.029  0.3949  0.1367  0.2404
  113OSM   H11S11684   5.015   2.401   6.028  2.1588 -1.3510  0.2968
  113OSM   H11T11685   4.840   2.355   6.003  0.4615  1.2659  1.4874
  113OSM   C12S11686   4.986   2.210   5.926  0.1429  0.4533  0.1001
  113OSM   H12S11687   4.908   2.131   5.921 -0.0947  0.5535  1.5770
  113OSM   H12T11688   5.072   2.154   5.968 -1.1072 -0.6469  1.2815
  113OSM   C13S11689   5.019   2.274   5.793  0.1098 -0.1607  0.1760
  113OSM   H13S11690   5.113   2.331   5.806  0.3118 -1.0740  3.4208
  113OSM   H13T11691   4.942   2.353   5.781 -0.2764 -0.6847 -1.0229
  113OSM   C14S11692   5.030   2.182   5.674  0.8976 -0.0171 -0.6177
  113OSM   H14S11693   4.939   2.184   5.610 -1.4556 -0.6177  2.4502
  113OSM   H14T11694   5.032   2.076   5.707 -3.1181 -0.4749 -1.3567
  113OSM   C15S11695   5.151   2.217   5.589 -0.9226  0.2593 -0.8334
  113OSM   H15S11696   5.240   2.225   5.654 -1.6348 -0.8803  0.3245
  113OSM   H15T11697   5.139   2.319   5.546 -1.6455  1.3646  1.8029
  113OSM   C16S11698   5.173   2.116   5.469  1.2585 -0.6154 -0.1965
  113OSM   H16S11699   5.085   2.110   5.402  1.1780  1.5438 -0.3595
  113OSM   H16T11700   5.159   2.014   5.510  3.5925 -1.1414 -0.5208
  113OSM   C17S11701   5.305   2.132   5.399 -0.3782  0.7192 -0.4832
  113OSM   H17S11702   5.328   2.238   5.372 -2.1090  1.3216  0.2497
  113OSM   H17T11703   5.302   2.088   5.297 -0.4302 -1.5123  0.4287
  113OSM   C18S11704   5.424   2.078   5.477 -0.2902 -0.4475 -0.1522
  113OSM   H18S11705   5.412   2.112   5.582  2.1666  2.7225 -0.7612
  113OSM   H18T11706   5.518   2.112   5.428 -0.1425 -0.6395 -0.0005
  113OSM   H18U11707   5.426   1.967   5.485  1.3079 -0.3324  1.5828
  113OSM    C1F11708   4.502   2.712   6.940 -0.2516 -0.5675 -0.0774
  113OSM     OF11709   4.579   2.802   6.905 -0.0275 -0.2687 -0.4296
  113OSM    C2F11710   4.356   2.731   6.961  0.2483 -0.1814 -0.2592
  113OSM    H2F11711   4.341   2.803   7.044  1.4627 -0.0498 -0.1369
  113OSM    H2G11712   4.313   2.632   6.988  2.0164 -2.2481 -4.0891
  113OSM    C3F11713   4.261   2.779   6.847  0.5616 -0.2622 -0.4705
  113OSM    H3F11714   4.314   2.864   6.798  3.6717 -3.0503 -2.4281
  113OSM    H3G11715   4.172   2.822   6.897  0.4497 -0.8722 -0.1440
  113OSM    C4F11716   4.225   2.668   6.749  0.0877  0.6462  0.1322
  113OSM    H4F11717   4.158   2.590   6.791 -0.7408  0.3307 -1.6942
  113OSM    H4G11718   4.317   2.617   6.714  0.0132 -0.3286  1.2934
  113OSM    C5F11719   4.173   2.720   6.613  0.0248  0.0330  0.2756
  113OSM    H5F11720   4.234   2.808   6.583 -0.5880  0.5667  0.5660
  113OSM    H5G11721   4.072   2.762   6.633  0.4445  0.1840  2.2926
  113OSM    C6F11722   4.159   2.610   6.508 -0.4606  0.2343 -0.1651
  113OSM    H6F11723   4.074   2.543   6.533 -1.2447  1.3837  0.3247
  113OSM    H6G11724   4.248   2.544   6.497 -0.1544  0.4278  1.0542
  113OSM    C7F11725   4.123   2.668   6.377  0.3367  0.3249  0.6324
  113OSM    H7F11726   4.168   2.768   6.360 -1.8728  1.1985 -0.5637
  113OSM    H7G11727   4.015   2.694   6.392 -0.0642 -0.8779 -0.0667
  113OSM    C8F11728   4.138   2.592   6.249 -0.6008 -0.0950 -0.1425
  113OSM    H8F11729   4.248   2.582   6.249 -0.4846  0.8273  1.3480
  113OSM    H8G11730   4.111   2.665   6.169 -1.7000 -0.7792 -0.4108
  113OSM    C9F11731   4.068   2.465   6.242  0.0008 -0.2011 -0.2974
  113OSM    H9F11732   4.060   2.409   6.337  3.0863  0.1194  0.2625
  113OSM   C10F11733   4.019   2.409   6.133 -0.1886  0.1733 -0.1311
  113OSM   H10F11734   3.977   2.307   6.132  0.0364  0.0759  0.2070
  113OSM   C11F11735   4.020   2.465   5.999  0.0921 -0.2871 -0.5513
  113OSM   H11F11736   4.094   2.548   5.994 -0.3213  0.2440  1.3682
  113OSM   H11G11737   3.917   2.492   5.968 -0.6318 -2.9212 -0.7061
  113OSM   C12F11738   4.064   2.379   5.879  0.3636  0.8343  0.1018
  113OSM   H12F11739   4.004   2.285   5.880  0.5325  0.6906  2.4065
  113OSM   H12G11740   4.169   2.343   5.885 -0.6075 -2.7795 -1.5595
  113OSM   C13F11741   4.040   2.454   5.740  0.0134  1.1040 -0.2538
  113OSM   H13F11742   4.098   2.548   5.735  0.1423  1.1708  1.6759
  113OSM   H13G11743   3.931   2.477   5.732 -1.0006 -2.5182  1.2261
  113OSM   C14F11744   4.082   2.355   5.630  0.0943  0.4081 -0.6853
  113OSM   H14F11745   4.016   2.266   5.643  2.2363 -1.0280  0.9563
  113OSM   H14G11746   4.183   2.314   5.649  0.3328 -0.1563 -2.8606
  113OSM   C15F11747   4.087   2.411   5.486 -0.1738  0.2217 -0.3054
  113OSM   H15F11748   4.101   2.320   5.423  3.7026  0.1338  0.4657
  113OSM   H15G11749   4.173   2.480   5.476 -0.6770  0.8852 -0.1053
  113OSM   C16F11750   3.966   2.496   5.442  0.2541  0.3385 -0.2442
  113OSM   H16F11751   3.947   2.591   5.497 -1.2820  0.7194 -1.3685
  113OSM   H16G11752   3.873   2.438   5.459  0.5552 -0.2458 -0.5795
  113OSM   C17F11753   3.978   2.512   5.289 -0.3598 -0.2598  0.1989
  113OSM   H17F11754   4.023   2.415   5.257 -0.3601 -0.4305  0.7046
  113OSM   H17G11755   4.058   2.586   5.269 -0.3822 -0.4925 -0.8345
  113OSM   C18F11756   3.847   2.529   5.213  0.5113 -0.0320  0.3585
  113OSM   H18F11757   3.871   2.518   5.105 -1.2310  2.1806 -0.3447
  113OSM   H18G11758   3.797   2.627   5.230 -1.0255 -0.8433  0.6598
  113OSM   H18H11759   3.773   2.453   5.245 -1.5708  1.5471 -0.4102
  114OSM      N11760   4.692   0.393   7.633  0.3603  0.5946 -0.2190
  114OSM    C1511761   4.596   0.308   7.714 -0.4574  0.4752  0.4607
  114OSM   H15A11762   4.556   0.241   7.639 -0.4630  0.2899  0.6276
  114OSM   H15B11763   4.534   0.366   7.780 -2.4398  0.4892 -1.3113
  114OSM   H15C11764   4.659   0.242   7.773 -1.9593 -0.0010  1.5801
  114OSM    C1411765   4.611   0.510   7.593  0.3995  0.3741 -0.3050
  114OSM   H14A11766   4.659   0.576   7.523 -0.5007  2.9082  1.3266
  114OSM   H14B11767   4.578   0.580   7.668 -0.4680 -0.0971 -0.2411
  114OSM   H14C11768   4.518   0.494   7.540 -0.6954  5.0690 -0.2478
  114OSM    C1311769   4.798   0.443   7.723 -0.0959 -0.0215  0.2063
  114OSM   H13A11770   4.877   0.372   7.744  0.3256  0.5251  0.4840
  114OSM   H13B11771   4.750   0.489   7.808 -2.1637  2.1364 -1.9482
  114OSM   H13C11772   4.850   0.526   7.678  0.9881 -0.7126  0.1551
  114OSM    C1211773   4.759   0.320   7.520 -0.1130 -0.8713 -0.5460
  114OSM   H12A11774   4.676   0.279   7.464 -0.4863  2.1367 -2.4140
  114OSM   H12B11775   4.809   0.230   7.554 -0.5172 -1.3943 -1.2884
  114OSM    C1111776   4.848   0.398   7.421 -0.0554 -0.7127 -0.6081
  114OSM   H11A11777   4.896   0.325   7.353 -1.5007 -2.8249  0.5300
  114OSM   H11B11778   4.932   0.443   7.478 -0.7880  1.9339 -1.4543
  114OSM      P11779   4.698   0.491   7.216  0.0984  0.2041 -0.4305
  114OSM    O1311780   4.666   0.348   7.184  0.7399 -0.3599 -0.4380
  114OSM    O1411781   4.578   0.585   7.235 -0.5704 -0.3061  0.0551
  114OSM    O1111782   4.791   0.547   7.104 -0.8176 -0.2792  0.5720
  114OSM    O1211783   4.780   0.503   7.355  0.2635  0.2397  0.5411
  114OSM    C1S11784   4.912   0.471   7.067  0.4165  0.2384 -0.4468
  114OSM    H1S11785   4.884   0.366   7.050 -1.7805  0.5792  0.6923
  114OSM    H1T11786   4.993   0.489   7.142 -1.7010  0.5013  1.9447
  114OSM     NF11787   5.048   0.406   6.871  0.0700 -0.4290  0.4101
  114OSM    HNF11788   5.146   0.419   6.872 -0.2352  2.4506  0.0651
  114OSM    C2S11789   4.963   0.510   6.924 -0.7793  0.7823 -0.6988
  114OSM    H2S11790   4.875   0.515   6.857 -1.7557  1.0879  0.5490
  114OSM    C3S11791   5.029   0.651   6.939 -0.1004  0.0451 -0.1425
  114OSM    H3S11792   5.101   0.639   7.022  0.6639 -1.0694 -0.9283
  114OSM     O311793   4.942   0.751   6.992  0.1833  0.3298  0.0501
  114OSM    HO311794   4.870   0.701   7.029  0.8780  0.0897  1.1188
  114OSM    C4S11795   5.095   0.697   6.816 -0.9002 -0.0756 -0.3170
  114OSM    H4S11796   5.197   0.655   6.807 -0.3706  0.6029  1.8443
  114OSM    C5S11797   5.051   0.767   6.717  0.6931 -0.4136  0.1760
  114OSM    H5S11798   4.956   0.819   6.734 -0.8452 -1.8121 -3.0872
  114OSM    C6S11799   5.127   0.831   6.606 -0.6108  0.1238 -0.2151
  114OSM    H6S11800   5.231   0.794   6.621 -0.4741  0.6488  0.1571
  114OSM    H6T11801   5.134   0.939   6.633  0.6725  0.3743 -1.4136
  114OSM    C7S11802   5.085   0.795   6.465  0.1830 -1.0190 -0.0862
  114OSM    H7S11803   5.166   0.829   6.398 -0.2883 -1.7683 -1.0573
  114OSM    H7T11804   4.989   0.845   6.437  0.7415 -0.4110 -0.9506
  114OSM    C8S11805   5.062   0.647   6.442  0.1692  0.4997 -0.0897
  114OSM    H8S11806   4.982   0.613   6.511 -0.4196  0.2850 -0.8696
  114OSM    H8T11807   5.160   0.598   6.461  0.2965 -0.8022 -3.5238
  114OSM    C9S11808   5.019   0.618   6.301  0.4449  0.2301 -0.3438
  114OSM    H9S11809   4.929   0.680   6.282 -0.7708 -2.0342 -2.6602
  114OSM    H9T11810   4.995   0.510   6.291  0.3338  0.2714 -0.5215
  114OSM   C10S11811   5.125   0.648   6.196 -0.0770 -0.1306  0.4889
  114OSM   H10S11812   5.217   0.587   6.208  0.3248  0.1399 -1.0213
  114OSM   H10T11813   5.141   0.757   6.195 -1.2063  0.0522  0.3851
  114OSM   C11S11814   5.068   0.620   6.050  0.5197  0.0874 -0.1568
  114OSM   H11S11815   4.988   0.544   6.059 -0.7493  1.5394  1.5502
  114OSM   H11T11816   5.149   0.572   5.990 -0.6442 -2.0015 -0.1205
  114OSM   C12S11817   5.009   0.748   5.987  0.4218  0.2688 -0.0810
  114OSM   H12S11818   5.093   0.820   5.989 -0.0012  0.8367 -1.4775
  114OSM   H12T11819   4.927   0.784   6.053  0.0886 -2.0651  0.8913
  114OSM   C13S11820   4.955   0.713   5.844 -0.0469 -1.0228 -0.1020
  114OSM   H13S11821   4.865   0.648   5.850  0.5455 -1.8194  0.2995
  114OSM   H13T11822   5.031   0.656   5.786 -0.7311 -2.8953  0.7795
  114OSM   C14S11823   4.935   0.853   5.775  0.6648  0.1011  0.1933
  114OSM   H14S11824   5.027   0.915   5.773  0.2548  0.7811 -2.4305
  114OSM   H14T11825   4.853   0.901   5.833 -1.1826 -0.9441 -1.4012
  114OSM   C15S11826   4.872   0.844   5.631  0.1598 -0.3865 -0.1879
  114OSM   H15S11827   4.831   0.742   5.619 -0.3247 -0.2580  0.3415
  114OSM   H15T11828   4.964   0.846   5.569  0.8163 -0.6917  0.7456
  114OSM   C16S11829   4.772   0.958   5.613 -0.2276  0.4055 -0.1268
  114OSM   H16S11830   4.816   1.049   5.659  0.6631  0.0407 -0.2220
  114OSM   H16T11831   4.680   0.938   5.671 -0.1127 -1.8197 -0.6269
  114OSM   C17S11832   4.732   0.979   5.462  0.5218 -0.7615 -0.0848
  114OSM   H17S11833   4.658   0.899   5.438  2.0892 -3.0602  2.1742
  114OSM   H17T11834   4.814   0.981   5.387  1.2135 -2.1123  0.5987
  114OSM   C18S11835   4.654   1.117   5.437  0.0393  0.2817 -0.3663
  114OSM   H18S11836   4.602   1.115   5.338 -3.3796 -2.3934  1.2710
  114OSM   H18T11837   4.715   1.208   5.460 -0.9656  0.8995 -0.0996
  114OSM   H18U11838   4.565   1.118   5.502 -0.8718  2.4347 -1.5388
  114OSM    C1F11839   5.003   0.290   6.819 -0.6624 -0.0218  0.1857
  114OSM     OF11840   4.887   0.272   6.805 -0.3228  0.2729  0.0508
  114OSM    C2F11841   5.103   0.194   6.768  0.1904  0.3194 -0.0148
  114OSM    H2F11842   5.059   0.093   6.787 -1.2918  0.6931 -1.2936
  114OSM    H2G11843   5.194   0.197   6.832 -0.5453 -0.2031  1.1076
  114OSM    C3F11844   5.128   0.200   6.615  0.7390 -0.0099  0.4321
  114OSM    H3F11845   5.035   0.169   6.562  1.7918 -1.8309 -0.4535
  114OSM    H3G11846   5.206   0.128   6.583  0.4727 -0.1966  0.1949
  114OSM    C4F11847   5.152   0.346   6.548  0.7523  0.2607 -0.1369
  114OSM    H4F11848   5.233   0.392   6.609  1.1867  0.3962 -0.8015
  114OSM    H4G11849   5.056   0.400   6.541  1.2649  1.1823 -0.1721
  114OSM    C5F11850   5.221   0.318   6.418 -0.9208 -0.0733  0.1583
  114OSM    H5F11851   5.311   0.257   6.441  0.4489  1.5898 -0.5343
  114OSM    H5G11852   5.251   0.418   6.380 -1.1192 -0.1269 -0.1327
  114OSM    C6F11853   5.139   0.241   6.316  0.1489 -0.0678  0.3603
  114OSM    H6F11854   5.036   0.283   6.314 -0.1949 -0.9095 -1.1812
  114OSM    H6G11855   5.148   0.136   6.352 -0.8155  0.7315  3.2427
  114OSM    C7F11856   5.183   0.251   6.171  0.8490 -0.4544  0.2570
  114OSM    H7F11857   5.262   0.174   6.158  1.4070  0.2645 -0.6356
  114OSM    H7G11858   5.220   0.354   6.159  0.9198 -0.5006  0.0722
  114OSM    C8F11859   5.067   0.236   6.067 -0.0703  0.2194 -0.0765
  114OSM    H8F11860   5.105   0.259   5.965 -0.9240  0.0900 -0.4346
  114OSM    H8G11861   4.984   0.302   6.100 -0.6788 -0.5306 -0.0658
  114OSM    C9F11862   5.010   0.090   6.062 -0.1252 -0.0313 -0.5368
  114OSM    H9F11863   5.024   0.040   6.159 -0.5177  0.4390 -0.2358
  114OSM   C10F11864   4.939   0.025   5.968  0.1519  1.0223 -0.2750
  114OSM   H10F11865   4.916  -0.080   5.990 -0.1435  1.1583  0.0843
  114OSM   C11F11866   4.917   0.065   5.830 -0.1590  0.1966 -0.0862
  114OSM   H11F11867   4.891   0.174   5.831  0.0609  0.2659 -0.8174
  114OSM   H11G11868   4.829   0.019   5.780  1.0943 -1.4440 -0.8751
  114OSM   C12F11869   5.050   0.047   5.745 -0.6434 -0.0428 -0.0544
  114OSM   H12F11870   5.062  -0.063   5.733  0.7179  0.2627 -2.2277
  114OSM   H12G11871   5.124   0.101   5.807 -1.6180 -0.2275  1.3101
  114OSM   C13F11872   5.046   0.104   5.604 -0.3271 -0.2864 -0.0907
  114OSM   H13F11873   5.006   0.206   5.625 -0.8505 -0.9662  2.7141
  114OSM   H13G11874   4.966   0.044   5.556  0.8639 -1.6103 -0.4461
  114OSM   C14F11875   5.169   0.090   5.529 -0.1093  0.0515  0.2837
  114OSM   H14F11876   5.183  -0.014   5.491 -0.7162  0.4198 -0.9937
  114OSM   H14G11877   5.249   0.122   5.600  0.7961  0.8977 -1.0595
  114OSM   C15F11878   5.166   0.175   5.401  0.0537  0.1327  0.1316
  114OSM   H15F11879   5.114   0.272   5.409  0.5436  0.4377 -0.3398
  114OSM   H15G11880   5.114   0.106   5.330  0.6245 -1.4495  1.1841
  114OSM   C16F11881   5.307   0.193   5.349 -0.5391 -0.4190  0.8081
  114OSM   H16F11882   5.372   0.103   5.358  1.7107  0.8279 -1.5714
  114OSM   H16G11883   5.358   0.278   5.399  2.2667 -0.4028 -1.7958
  114OSM   C17F11884   5.306   0.235   5.201 -1.0949 -0.9491  0.0005
  114OSM   H17F11885   5.378   0.319   5.184 -0.5380 -1.5539 -0.6465
  114OSM   H17G11886   5.204   0.272   5.181 -0.6247  1.2022  1.1994
  114OSM   C18F11887   5.332   0.115   5.115 -0.8655 -0.0975  0.2629
  114OSM   H18F11888   5.273   0.031   5.158 -0.7842 -0.8134 -0.9697
  114OSM   H18G11889   5.439   0.085   5.117 -0.7807  0.1259  3.5479
  114OSM   H18H11890   5.294   0.128   5.011  1.9194  0.9047 -0.7258
  115OSM      N11891   3.571   3.583   7.596  0.5872 -0.4228  0.3951
  115OSM    C1511892   3.483   3.541   7.713 -0.3915  0.0887  0.5247
  115OSM   H15A11893   3.454   3.438   7.705 -1.5987  0.5829 -2.6910
  115OSM   H15B11894   3.388   3.594   7.716 -1.3891 -1.4916 -1.2747
  115OSM   H15C11895   3.542   3.564   7.801 -0.2062 -0.9726  0.6841
  115OSM    C1411896   3.626   3.721   7.640  0.1985  0.1540  0.1685
  115OSM   H14A11897   3.549   3.796   7.638  2.3530  2.5024  0.1523
  115OSM   H14B11898   3.700   3.759   7.571  0.9865 -0.3948  0.6890
  115OSM   H14C11899   3.673   3.720   7.738  1.9447  0.3322 -0.6293
  115OSM    C1311900   3.690   3.493   7.587  0.3381  0.1295 -0.5351
  115OSM   H13A11901   3.765   3.511   7.511  1.8789 -3.6834 -0.1494
  115OSM   H13B11902   3.649   3.393   7.579 -0.6309  0.5362 -0.7230
  115OSM   H13C11903   3.739   3.476   7.682 -0.9679 -0.2683  0.0904
  115OSM    C1211904   3.501   3.588   7.460 -0.6037  0.0577 -0.2237
  115OSM   H12A11905   3.568   3.633   7.388  1.0508  0.4272  1.4686
  115OSM   H12B11906   3.423   3.662   7.452 -0.9396 -0.3789 -1.0899
  115OSM    C1111907   3.447   3.450   7.406 -0.4809  0.2785  0.1919
  115OSM   H11A11908   3.362   3.480   7.341  0.7674  1.0088 -1.1522
  115OSM   H11B11909   3.409   3.380   7.483 -1.4801  1.1321  0.5041
  115OSM      P11910   3.542   3.250   7.264  0.0728  0.1247 -0.1130
  115OSM    O1311911   3.677   3.223   7.207 -0.3824  0.6149 -0.1441
  115OSM    O1411912   3.496   3.157   7.364 -0.1917  0.6026 -0.0883
  115OSM    O1111913   3.440   3.268   7.144  0.6828 -0.8682  0.3458
  115OSM    O1211914   3.549   3.398   7.321 -0.1086  0.2591  0.5854
  115OSM    C1S11915   3.443   3.387   7.055  0.2262  0.1975  0.7707
  115OSM    H1S11916   3.517   3.464   7.087  1.4957  0.3335 -2.0926
  115OSM    H1T11917   3.341   3.428   7.039  1.3037  1.9943 -2.4249
  115OSM     NF11918   3.539   3.474   6.837  0.3958  0.6758 -0.0073
  115OSM    HNF11919   3.466   3.517   6.786 -0.5501 -0.1121  0.6368
  115OSM    C2S11920   3.498   3.350   6.913 -0.5115 -0.5962  0.2605
  115OSM    H2S11921   3.583   3.279   6.923 -0.4083 -0.5885 -0.5581
  115OSM    C3S11922   3.386   3.265   6.845  0.3110  0.3061 -0.6995
  115OSM    H3S11923   3.310   3.343   6.825  2.0585  1.8052 -1.7821
  115OSM     O311924   3.316   3.165   6.919 -0.1899  0.6977  0.2769
  115OSM    HO311925   3.353   3.150   7.006 -3.0977  2.3088  1.9522
  115OSM    C4S11926   3.415   3.212   6.712 -0.6151  0.8926 -0.1814
  115OSM    H4S11927   3.501   3.144   6.707 -2.3421 -1.3103 -1.8813
  115OSM    C5S11928   3.353   3.234   6.595  0.5536 -0.1295  0.4532
  115OSM    H5S11929   3.259   3.291   6.592 -0.1492 -1.2768 -0.3041
  115OSM    C6S11930   3.388   3.178   6.461 -0.5172  0.3268 -0.0884
  115OSM    H6S11931   3.494   3.148   6.447 -0.4853  0.8399 -1.0171
  115OSM    H6T11932   3.378   3.268   6.396  0.5776  0.7085  0.2486
  115OSM    C7S11933   3.291   3.084   6.406  0.3125  0.4422  0.7596
  115OSM    H7S11934   3.187   3.120   6.420  0.6824  1.0749  2.0716
  115OSM    H7T11935   3.310   2.990   6.461  0.4264  0.2197  0.3383
  115OSM    C8S11936   3.313   3.047   6.258 -0.6442 -1.0958 -0.1444
  115OSM    H8S11937   3.419   3.017   6.243 -0.5566 -0.9898  0.2575
  115OSM    H8T11938   3.285   3.135   6.196 -0.0855 -2.2191 -2.0694
  115OSM    C9S11939   3.224   2.927   6.233  0.4040  0.3908  0.1099
  115OSM    H9S11940   3.120   2.966   6.236  0.3385  0.1617  2.5407
  115OSM    H9T11941   3.235   2.841   6.303 -2.2853  1.1507  1.6289
  115OSM   C10S11942   3.229   2.883   6.083 -0.3114  0.3702 -0.3395
  115OSM   H10S11943   3.330   2.839   6.068  1.0793  2.9824  0.8700
  115OSM   H10T11944   3.220   2.969   6.014 -2.2478  0.9679  0.5971
  115OSM   C11S11945   3.125   2.778   6.057  0.5028  0.3703 -0.7046
  115OSM   H11S11946   3.027   2.831   6.055 -0.4221 -1.1316  1.0914
  115OSM   H11T11947   3.102   2.702   6.135 -1.4066 -1.5770 -3.0169
  115OSM   C12S11948   3.123   2.705   5.925 -0.0141 -0.6438 -0.4248
  115OSM   H12S11949   3.106   2.769   5.836 -0.6606 -1.7333 -1.1010
  115OSM   H12T11950   3.034   2.639   5.925 -2.1052  2.0081  0.3996
  115OSM   C13S11951   3.255   2.614   5.903  0.2459 -0.0252  0.3032
  115OSM   H13S11952   3.269   2.546   5.990  1.2860 -1.0979 -0.6637
  115OSM   H13T11953   3.340   2.684   5.888 -0.7527  0.6789 -3.1294
  115OSM   C14S11954   3.238   2.531   5.775 -0.0828 -0.0781  0.4700
  115OSM   H14S11955   3.148   2.468   5.786 -0.9391  1.0366 -0.0653
  115OSM   H14T11956   3.335   2.475   5.779  0.8723  1.5020  0.3401
  115OSM   C15S11957   3.218   2.598   5.631  0.0290 -0.3840  0.1469
  115OSM   H15S11958   3.155   2.689   5.639 -0.3084 -0.6156  0.1477
  115OSM   H15T11959   3.185   2.520   5.559 -1.7092 -0.4088  0.9263
  115OSM   C16S11960   3.355   2.641   5.577 -1.0247  0.1220 -0.2354
  115OSM   H16S11961   3.415   2.692   5.655  1.4260 -2.8220  0.0008
  115OSM   H16T11962   3.344   2.721   5.501  0.7260  0.8636  0.2466
  115OSM   C17S11963   3.445   2.522   5.528 -0.5216 -0.5586  0.3272
  115OSM   H17S11964   3.392   2.479   5.440 -1.4051  0.1801  0.4842
  115OSM   H17T11965   3.454   2.453   5.614 -0.2218  0.0861  0.8221
  115OSM   C18S11966   3.588   2.558   5.497 -0.3567  0.0828 -0.7759
  115OSM   H18S11967   3.636   2.633   5.564  3.3180 -1.1058 -1.8522
  115OSM   H18T11968   3.601   2.604   5.397  0.5550  2.5757  0.4189
  115OSM   H18U11969   3.649   2.466   5.509  1.4272  1.4762  2.0571
  115OSM    C1F11970   3.660   3.533   6.854  0.7670 -0.4501 -0.6611
  115OSM     OF11971   3.755   3.465   6.886  0.1707  0.1965 -0.4229
  115OSM    C2F11972   3.666   3.679   6.842 -0.0963  0.2766  0.3047
  115OSM    H2F11973   3.757   3.707   6.900  0.8466 -1.7684 -0.0829
  115OSM    H2G11974   3.580   3.725   6.894  0.0937 -2.5294  3.5300
  115OSM    C3F11975   3.663   3.732   6.696 -0.5123 -0.1910  0.1350
  115OSM    H3F11976   3.647   3.842   6.697  1.8191  0.1967  0.1406
  115OSM    H3G11977   3.579   3.679   6.648 -0.7704  0.4114 -0.0834
  115OSM    C4F11978   3.783   3.694   6.612  0.2390 -0.2748 -0.4838
  115OSM    H4F11979   3.814   3.588   6.621  1.1206  0.0542  0.4758
  115OSM    H4G11980   3.874   3.743   6.653  0.2678 -0.9963  0.3590
  115OSM    C5F11981   3.788   3.724   6.469 -0.0452 -0.6678 -0.2710
  115OSM    H5F11982   3.783   3.834   6.454  0.9247 -0.6178 -0.3142
  115OSM    H5G11983   3.707   3.677   6.410 -0.9242 -0.2021  0.5348
  115OSM    C6F11984   3.930   3.689   6.406  0.6593 -0.4118 -0.1692
  115OSM    H6F11985   3.946   3.580   6.421  2.8559 -0.1235 -0.1505
  115OSM    H6G11986   4.007   3.741   6.467  0.7403 -0.5824 -0.1254
  115OSM    C7F11987   3.943   3.747   6.261 -0.5802 -0.4864 -0.8486
  115OSM    H7F11988   4.046   3.759   6.221 -0.6024  2.2542 -0.3173
  115OSM    H7G11989   3.904   3.851   6.272 -0.1102 -0.4091  0.2056
  115OSM    C8F11990   3.848   3.694   6.152 -0.3282 -0.4874 -0.4742
  115OSM    H8F11991   3.825   3.772   6.077 -0.8826 -1.5669 -1.4648
  115OSM    H8G11992   3.753   3.669   6.203 -1.3270  1.4702 -1.2779
  115OSM    C9F11993   3.899   3.565   6.096 -0.0508 -0.0381 -0.5164
  115OSM    H9F11994   3.925   3.494   6.176  2.3474  1.1610 -0.1447
  115OSM   C10F11995   3.915   3.533   5.970 -0.0285  0.0627 -0.5046
  115OSM   H10F11996   3.949   3.432   5.945  0.8673  0.7325 -2.1364
  115OSM   C11F11997   3.888   3.618   5.848 -0.1518  0.0297 -0.4601
  115OSM   H11F11998   3.981   3.644   5.793 -0.1110  0.7786 -0.0487
  115OSM   H11G11999   3.832   3.710   5.876  3.8907  2.6322 -0.0911
  115OSM   C12F12000   3.801   3.535   5.757 -0.1411 -0.3123  0.0309
  115OSM   H12F12001   3.709   3.507   5.813 -1.4228 -0.2553 -1.9602
  115OSM   H12G12002   3.850   3.441   5.722  0.5423 -0.3533  1.0575
  115OSM   C13F12003   3.756   3.619   5.631  0.4743 -0.8604 -0.0896
  115OSM   H13F12004   3.853   3.624   5.578  1.0322 -1.7404  0.8180
  115OSM   H13G12005   3.720   3.718   5.667  1.9767 -0.4708  0.4090
  115OSM   C14F12006   3.655   3.553   5.542  0.4235 -0.2079  0.5859
  115OSM   H14F12007   3.562   3.522   5.596  0.1836  0.6411  0.6803
  115OSM   H14G12008   3.700   3.460   5.504 -0.2593  0.1017 -1.0527
  115OSM   C15F12009   3.605   3.635   5.420 -0.1510 -0.1134  0.2165
  115OSM   H15F12010   3.691   3.677   5.366  0.5038  1.7482  2.5270
  115OSM   H15G12011   3.546   3.721   5.461 -2.8671 -1.1342 -1.2772
  115OSM   C16F12012   3.506   3.555   5.340 -0.0412 -0.2015 -0.6756
  115OSM   H16F12013   3.548   3.453   5.341  0.8652  0.1627  0.1574
  115OSM   H16G12014   3.505   3.594   5.236  1.7812  0.5583 -0.4548
  115OSM   C17F12015   3.368   3.560   5.405 -0.8748 -0.1183 -0.2320
  115OSM   H17F12016   3.346   3.668   5.411  2.7389  0.7533 -0.5256
  115OSM   H17G12017   3.376   3.532   5.513 -0.1435 -0.0226 -0.2549
  115OSM   C18F12018   3.253   3.486   5.332 -0.1903 -0.3651 -0.4730
  115OSM   H18F12019   3.154   3.501   5.380 -0.8534 -1.1475 -1.5544
  115OSM   H18G12020   3.269   3.378   5.354 -2.2663 -0.4374  1.0325
  115OSM   H18H12021   3.249   3.520   5.227 -0.3671  0.3030 -0.2538
  116OSM      N12022   6.096   2.825   7.266 -0.1499  0.8842  0.8274
  116OSM    C1512023   6.130   2.934   7.356 -0.4348  0.0380 -0.1994
  116OSM   H15A12024   6.177   3.015   7.303  1.4731 -1.4354 -0.8943
  116OSM   H15B12025   6.205   2.902   7.427  1.0253 -0.3751 -1.8509
  116OSM   H15C12026   6.050   2.967   7.420  1.3722  2.0323  1.1640
  116OSM    C1412027   6.021   2.725   7.348 -0.6552  0.3962  0.2479
  116OSM   H14A12028   5.934   2.768   7.396 -0.2743  2.5374 -0.8357
  116OSM   H14B12029   6.086   2.682   7.423 -0.6061 -1.3603 -0.7687
  116OSM   H14C12030   5.983   2.649   7.282 -0.0796  0.1751  0.1636
  116OSM    C1312031   5.994   2.872   7.165  0.4378 -0.7611 -0.1222
  116OSM   H13A12032   5.944   2.790   7.116  0.7799 -0.8923 -0.2584
  116OSM   H13B12033   6.048   2.922   7.086  0.4835 -0.9778 -0.2289
  116OSM   H13C12034   5.929   2.944   7.213  0.1568  0.7094 -2.5038
  116OSM    C1212035   6.221   2.770   7.193 -0.2753 -0.2858 -0.1872
  116OSM   H12A12036   6.301   2.747   7.261  1.9592 -1.2336 -2.9418
  116OSM   H12B12037   6.266   2.848   7.133  1.8209 -2.0772 -1.0818
  116OSM    C1112038   6.201   2.647   7.096  0.1516 -0.4001 -0.7550
  116OSM   H11A12039   6.285   2.638   7.023 -0.1525  0.8738 -1.2998
  116OSM   H11B12040   6.112   2.661   7.030  0.1592  1.8344 -0.3809
  116OSM      P12041   6.303   2.442   7.216 -0.0167 -0.5240 -0.2741
  116OSM    O1312042   6.372   2.492   7.339  0.1469 -0.2845  0.4096
  116OSM    O1412043   6.265   2.298   7.238  0.0138 -0.2727  0.0533
  116OSM    O1112044   6.404   2.441   7.094 -0.2202  0.2443 -0.5078
  116OSM    O1212045   6.187   2.533   7.170 -0.7089  0.7054 -0.3595
  116OSM    C1S12046   6.371   2.371   6.975  0.1384 -0.4307 -0.4501
  116OSM    H1S12047   6.271   2.396   6.935 -0.0475  0.8848  0.7470
  116OSM    H1T12048   6.360   2.263   6.997  0.4990  0.1355  3.2739
  116OSM     NF12049   6.426   2.350   6.734 -0.1471 -0.0476 -0.1985
  116OSM    HNF12050   6.474   2.278   6.683 -0.7144 -1.4005  1.1016
  116OSM    C2S12051   6.474   2.393   6.860 -0.8434 -0.4679  0.2021
  116OSM    H2S12052   6.494   2.503   6.862 -1.3308 -0.3848  2.0222
  116OSM    C3S12053   6.611   2.325   6.913  0.0780  0.4327  0.0871
  116OSM    H3S12054   6.593   2.215   6.917 -4.0399  0.8769 -0.9571
  116OSM     O312055   6.637   2.356   7.048  0.3837  1.0331 -0.9107
  116OSM    HO312056   6.554   2.391   7.079  0.8985 -0.3824  2.5409
  116OSM    C4S12057   6.718   2.358   6.816 -0.8435  0.0376 -0.1656
  116OSM    H4S12058   6.719   2.289   6.731  2.0753 -0.2663  0.0043
  116OSM    C5S12059   6.812   2.451   6.823  0.3770 -0.4006  0.1930
  116OSM    H5S12060   6.814   2.520   6.909 -0.1846 -1.5650  1.1568
  116OSM    C6S12061   6.919   2.474   6.719  0.6330 -0.5756 -0.2057
  116OSM    H6S12062   7.013   2.442   6.768  1.0003 -1.4468 -1.4327
  116OSM    H6T12063   6.931   2.583   6.700  0.5986 -0.1824  1.8326
  116OSM    C7S12064   6.919   2.409   6.576 -0.2322 -0.0677  1.0871
  116OSM    H7S12065   6.911   2.299   6.591  1.3395 -0.5890 -1.4195
  116OSM    H7T12066   7.014   2.420   6.521 -1.5480  1.4312 -1.0249
  116OSM    C8S12067   6.801   2.453   6.482  0.5448  0.3153  0.3800
  116OSM    H8S12068   6.794   2.563   6.481 -1.9923  0.2129  1.1363
  116OSM    H8T12069   6.702   2.423   6.521  0.2599  1.0336  0.2193
  116OSM    C9S12070   6.814   2.404   6.334 -0.6253 -0.3349 -0.5481
  116OSM    H9S12071   6.716   2.411   6.283 -0.3977  0.1724 -0.9372
  116OSM    H9T12072   6.839   2.296   6.330  0.8234 -0.1234  1.2274
  116OSM   C10S12073   6.923   2.485   6.255  0.2405 -0.1689  0.0310
  116OSM   H10S12074   7.014   2.493   6.318 -1.0385  1.0400  1.8475
  116OSM   H10T12075   6.869   2.580   6.238 -1.0659 -0.9976 -0.6443
  116OSM   C11S12076   6.967   2.414   6.130 -0.4105 -0.1283  0.4872
  116OSM   H11S12077   6.975   2.305   6.154  1.8482  0.2228  1.5910
  116OSM   H11T12078   7.068   2.457   6.112 -0.0914 -0.5722  1.1872
  116OSM   C12S12079   6.879   2.419   6.009 -0.2171 -0.3224  0.4456
  116OSM   H12S12080   6.829   2.517   5.996  2.2431  1.0631  0.7983
  116OSM   H12T12081   6.806   2.336   6.023 -0.2198 -0.4543 -0.2786
  116OSM   C13S12082   6.953   2.391   5.877  0.2919  0.4875 -0.6813
  116OSM   H13S12083   7.002   2.291   5.885  0.0130  0.2391 -1.8472
  116OSM   H13T12084   7.038   2.461   5.865  2.2563 -1.2144  2.0652
  116OSM   C14S12085   6.869   2.388   5.758 -0.1177 -0.7007 -0.1440
  116OSM   H14S12086   6.809   2.481   5.754 -0.1229 -0.7543 -1.4190
  116OSM   H14T12087   6.793   2.307   5.757 -2.5206  1.4465 -0.7610
  116OSM   C15S12088   6.951   2.367   5.632 -0.0299 -0.3942  0.1983
  116OSM   H15S12089   7.004   2.270   5.648 -1.3667 -1.0029  1.1868
  116OSM   H15T12090   7.018   2.453   5.614 -1.0399  0.0618 -1.6775
  116OSM   C16S12091   6.864   2.351   5.501  0.3221  0.1118 -0.1489
  116OSM   H16S12092   6.859   2.445   5.442  0.0652  1.8017  2.4203
  116OSM   H16T12093   6.761   2.330   5.535  0.3415 -2.0874 -1.2106
  116OSM   C17S12094   6.917   2.241   5.415  0.5462 -0.7652  0.4989
  116OSM   H17S12095   6.917   2.143   5.467  0.3956 -1.9880 -1.6739
  116OSM   H17T12096   7.019   2.268   5.379 -0.4245  0.2103 -1.7144
  116OSM   C18S12097   6.834   2.223   5.293  0.0732  0.0020  0.2505
  116OSM   H18S12098   6.886   2.149   5.227  0.0838  0.0051  0.2555
  116OSM   H18T12099   6.819   2.316   5.233 -2.6961 -0.0087  0.8208
  116OSM   H18U12100   6.732   2.184   5.313 -0.9539  2.6223  0.5083
  116OSM    C1F12101   6.329   2.416   6.673 -0.4075 -0.5863  0.2605
  116OSM     OF12102   6.292   2.528   6.709 -0.2153 -0.1834  0.5826
  116OSM    C2F12103   6.278   2.361   6.539  0.2103 -0.4258  0.6247
  116OSM    H2F12104   6.183   2.409   6.508  1.9017  2.9493  0.2788
  116OSM    H2G12105   6.263   2.252   6.556  0.9203 -1.3451 -3.5101
  116OSM    C3F12106   6.392   2.368   6.429 -0.4031 -0.5634  1.0704
  116OSM    H3F12107   6.460   2.286   6.461 -1.1971 -1.6148  0.1454
  116OSM    H3G12108   6.423   2.475   6.429 -0.4790 -0.5411  1.1243
  116OSM    C4F12109   6.335   2.330   6.292  0.2516  0.9645 -0.2631
  116OSM    H4F12110   6.249   2.398   6.270  1.0419  2.4809  1.1404
  116OSM    H4G12111   6.292   2.228   6.279  1.6560  0.1955  0.8499
  116OSM    C5F12112   6.438   2.362   6.185  0.2318 -0.6087  1.0306
  116OSM    H5F12113   6.509   2.278   6.172 -0.3223 -1.2709  2.1821
  116OSM    H5G12114   6.504   2.447   6.215 -0.6737 -0.6777  3.4104
  116OSM    C6F12115   6.374   2.392   6.052 -0.2991 -0.5303  0.4324
  116OSM    H6F12116   6.297   2.470   6.071 -1.1050 -1.0899 -0.4525
  116OSM    H6G12117   6.321   2.297   6.029 -1.4884  0.0298  0.8130
  116OSM    C7F12118   6.475   2.418   5.942  0.9745  0.2329  0.1511
  116OSM    H7F12119   6.540   2.329   5.924 -0.7280 -0.9164 -0.6248
  116OSM    H7G12120   6.548   2.495   5.975 -0.2602  1.9152 -0.8974
  116OSM    C8F12121   6.416   2.478   5.808 -0.1220  0.2729 -0.0361
  116OSM    H8F12122   6.515   2.502   5.762  0.5196 -1.6861  0.1921
  116OSM    H8G12123   6.356   2.567   5.836  2.0178  1.6408  0.4826
  116OSM    C9F12124   6.349   2.365   5.731  0.0465 -0.1720  0.7336
  116OSM    H9F12125   6.278   2.312   5.796  1.6662 -1.0761  1.8487
  116OSM   C10F12126   6.371   2.329   5.604 -0.2421 -0.4549  0.4248
  116OSM   H10F12127   6.330   2.236   5.561  0.7568  0.3401 -2.4955
  116OSM   C11F12128   6.474   2.393   5.518 -0.3799 -0.6300 -0.0029
  116OSM   H11F12129   6.556   2.318   5.513 -0.4218 -0.8059  1.5006
  116OSM   H11G12130   6.525   2.481   5.563  2.7914 -3.1502  1.7663
  116OSM   C12F12131   6.413   2.425   5.384  0.2948 -0.0862  0.3920
  116OSM   H12F12132   6.387   2.326   5.339  0.8389 -0.3507  0.6497
  116OSM   H12G12133   6.488   2.465   5.313  1.3913 -2.1164  0.3046
  116OSM   C13F12134   6.284   2.508   5.386 -0.9259  0.1029 -0.2722
  116OSM   H13F12135   6.307   2.593   5.453 -0.6571 -0.6828  0.6468
  116OSM   H13G12136   6.192   2.457   5.421 -0.3332 -0.5466  0.3613
  116OSM   C14F12137   6.247   2.570   5.250 -0.0120 -0.3099  0.8098
  116OSM   H14F12138   6.328   2.635   5.211 -0.6555 -0.7899 -1.5169
  116OSM   H14G12139   6.154   2.630   5.253 -0.4087 -0.7675 -0.9442
  116OSM   C15F12140   6.223   2.468   5.135  0.4175  0.0791 -0.1392
  116OSM   H15F12141   6.313   2.406   5.115 -0.1433 -0.5328 -0.8279
  116OSM   H15G12142   6.222   2.531   5.044  1.2140  0.3925  0.0644
  116OSM   C16F12143   6.102   2.377   5.158  0.3471 -0.0998 -0.7540
  116OSM   H16F12144   6.009   2.434   5.182 -0.2114 -0.7170 -1.4187
  116OSM   H16G12145   6.125   2.317   5.248  0.2337 -0.5193 -1.0031
  116OSM   C17F12146   6.086   2.280   5.041 -0.1969  0.3941 -0.1707
  116OSM   H17F12147   6.189   2.244   5.019 -0.5026 -1.3048  0.9752
  116OSM   H17G12148   6.050   2.325   4.946  1.0120  2.8531  0.4655
  116OSM   C18F12149   6.002   2.159   5.085 -0.3668  0.2664  0.3890
  116OSM   H18F12150   6.006   2.138   5.195 -1.2036  0.2729  0.4220
  116OSM   H18G12151   6.038   2.064   5.041  2.4621  1.0463  0.7692
  116OSM   H18H12152   5.896   2.178   5.059 -0.1807  1.8553  0.6970
  117OSM      N12153   3.047   0.377   7.225  0.5341  0.1418  0.5402
  117OSM    C1512154   3.021   0.462   7.111 -0.0936  0.0969  0.4979
  117OSM   H15A12155   3.040   0.417   7.015 -1.3971  0.8008 -0.1300
  117OSM   H15B12156   3.067   0.560   7.118 -1.0250  0.5622  0.3118
  117OSM   H15C12157   2.915   0.476   7.096  0.2968  1.5393 -1.3122
  117OSM    C1412158   3.030   0.467   7.342  0.1399  0.4371  0.2070
  117OSM   H14A12159   2.927   0.500   7.351 -0.1819 -0.9215  2.0459
  117OSM   H14B12160   3.097   0.552   7.342 -1.6403  1.9061 -0.6449
  117OSM   H14C12161   3.045   0.423   7.439 -3.6158  2.0619  1.7001
  117OSM    C1312162   2.941   0.262   7.227 -1.0037  0.6563 -0.2766
  117OSM   H13A12163   2.968   0.197   7.145 -0.8251  0.3667  0.0077
  117OSM   H13B12164   2.842   0.300   7.210 -0.6996  0.9050 -1.6071
  117OSM   H13C12165   2.933   0.220   7.327 -0.0507  2.4104  0.5911
  117OSM    C1212166   3.192   0.325   7.230  0.1371  0.0564  1.0439
  117OSM   H12A12167   3.216   0.306   7.333 -0.1938 -1.6520  0.8266
  117OSM   H12B12168   3.257   0.407   7.204 -0.7935  0.2750 -0.7823
  117OSM    C1112169   3.232   0.194   7.149 -0.0751 -0.0020  0.0314
  117OSM   H11A12170   3.341   0.177   7.160 -0.4834 -2.1489  1.2651
  117OSM   H11B12171   3.207   0.210   7.042 -0.6935  0.5113  0.2414
  117OSM      P12172   3.199   0.007   7.314 -0.0619 -0.2948  0.1173
  117OSM    O1312173   3.302   0.079   7.389 -0.6399  0.3090  0.7184
  117OSM    O1412174   3.078  -0.030   7.392 -0.2911 -0.4494  0.4046
  117OSM    O1112175   3.265  -0.123   7.260  0.2831 -0.1113 -0.7148
  117OSM    O1212176   3.159   0.079   7.180  0.0074  0.1382  0.4691
  117OSM    C1S12177   3.223  -0.197   7.146  0.0564 -0.2013 -0.9428
  117OSM    H1S12178   3.117  -0.172   7.122 -0.0502 -0.3754 -0.6435
  117OSM    H1T12179   3.237  -0.306   7.160  2.3295  0.3377  1.9207
  117OSM     NF12180   3.265  -0.254   6.911  0.2700  0.6010  0.0335
  117OSM    HNF12181   3.321  -0.335   6.898 -2.2278 -1.2037 -0.2911
  117OSM    C2S12182   3.305  -0.168   7.018 -0.6867  0.4539 -0.1251
  117OSM    H2S12183   3.289  -0.060   6.997 -1.7458  0.6477  1.5046
  117OSM    C3S12184   3.464  -0.174   7.048 -0.6498  0.3958 -0.4433
  117OSM    H3S12185   3.490  -0.281   7.062  0.7328  0.6828 -0.7295
  117OSM     O312186   3.506  -0.111   7.173  0.2187 -0.6212  0.0654
  117OSM    HO312187   3.418  -0.103   7.210 -0.1744 -1.1073 -0.7380
  117OSM    C4S12188   3.545  -0.130   6.929  0.6361 -0.3847  0.2535
  117OSM    H4S12189   3.593  -0.211   6.874  0.6640 -0.6788  0.7056
  117OSM    C5S12190   3.573  -0.004   6.890  0.5792 -0.6367 -0.1637
  117OSM    H5S12191   3.520   0.084   6.931  1.0415 -0.2328 -0.4207
  117OSM    C6S12192   3.668   0.034   6.777 -0.1168  1.1506  0.2141
  117OSM    H6S12193   3.724  -0.052   6.735 -1.2588 -0.0625  1.0852
  117OSM    H6T12194   3.750   0.095   6.821 -0.4170  2.3942 -0.8934
  117OSM    C7S12195   3.591   0.113   6.673  0.3934 -0.1757  0.2872
  117OSM    H7S12196   3.543   0.197   6.728  1.8485  0.2464  0.9777
  117OSM    H7T12197   3.509   0.047   6.638 -1.1115  1.6823  0.1278
  117OSM    C8S12198   3.685   0.161   6.562 -0.3198  0.7862 -0.2328
  117OSM    H8S12199   3.770   0.089   6.559 -0.8710  0.1328 -0.4710
  117OSM    H8T12200   3.718   0.264   6.586 -0.1770  0.3942  1.3230
  117OSM    C9S12201   3.629   0.170   6.425  0.3110 -0.4224  0.7099
  117OSM    H9S12202   3.551   0.248   6.431  2.3432  1.8294 -0.4298
  117OSM    H9T12203   3.593   0.067   6.403 -0.1941  0.3699 -2.7212
  117OSM   C10S12204   3.720   0.219   6.318  0.2819  0.0378 -0.1455
  117OSM   H10S12205   3.804   0.147   6.315  0.7814  0.6394 -0.7848
  117OSM   H10T12206   3.757   0.321   6.341  2.3696 -0.8154  0.5111
  117OSM   C11S12207   3.649   0.207   6.179  0.1167  0.5303  0.4096
  117OSM   H11S12208   3.555   0.264   6.193  0.0268 -0.0923  2.7143
  117OSM   H11T12209   3.624   0.098   6.178  0.4663  0.4506  0.0114
  117OSM   C12S12210   3.725   0.257   6.053  0.2863  0.4645 -0.4404
  117OSM   H12S12211   3.824   0.208   6.062 -1.1540 -2.4831  0.8416
  117OSM   H12T12212   3.721   0.368   6.059 -0.7112  0.4566 -0.7484
  117OSM   C13S12213   3.665   0.210   5.912  0.7036 -0.1874 -1.0025
  117OSM   H13S12214   3.736   0.266   5.848  1.7172 -0.5275 -0.2181
  117OSM   H13T12215   3.559   0.244   5.910  1.1370  2.2759  3.7297
  117OSM   C14S12216   3.677   0.069   5.867 -0.6643  0.5669 -0.3786
  117OSM   H14S12217   3.652  -0.009   5.942 -2.4062 -2.2449 -3.5720
  117OSM   H14T12218   3.788   0.062   5.853 -0.5285  0.6348  0.6142
  117OSM   C15S12219   3.622   0.021   5.732  0.2386  0.2924 -0.3414
  117OSM   H15S12220   3.628   0.109   5.664  0.8638 -0.0144 -0.6936
  117OSM   H15T12221   3.518  -0.011   5.754  0.8653 -1.3935  0.3011
  117OSM   C16S12222   3.699  -0.093   5.666  0.8799 -0.4944  0.3556
  117OSM   H16S12223   3.699  -0.181   5.733  1.9047 -3.1236 -2.8040
  117OSM   H16T12224   3.803  -0.061   5.642 -0.0765  0.7861 -2.5709
  117OSM   C17S12225   3.639  -0.120   5.531  0.4142 -0.4979 -0.3888
  117OSM   H17S12226   3.599  -0.028   5.483  2.5463  1.1936  0.8548
  117OSM   H17T12227   3.559  -0.194   5.550 -0.6446  0.5064 -0.8593
  117OSM   C18S12228   3.743  -0.186   5.434  1.0320 -0.1330 -0.4022
  117OSM   H18S12229   3.826  -0.113   5.421 -0.9182  2.6154  1.3401
  117OSM   H18T12230   3.691  -0.184   5.336 -0.7642  0.5241  0.5105
  117OSM   H18U12231   3.776  -0.287   5.466  0.7716 -0.1477 -0.1766
  117OSM    C1F12232   3.145  -0.245   6.847 -0.4942 -0.3034 -1.0252
  117OSM     OF12233   3.073  -0.153   6.878 -0.0961  0.1789 -0.0512
  117OSM    C2F12234   3.110  -0.357   6.761 -0.4672 -0.1434 -0.3401
  117OSM    H2F12235   3.063  -0.442   6.815 -0.6794  1.0887  1.4942
  117OSM    H2G12236   3.203  -0.395   6.715 -0.2400 -1.1994  0.9390
  117OSM    C3F12237   3.004  -0.309   6.652  0.5460 -0.3441 -0.2290
  117OSM    H3F12238   3.048  -0.223   6.598  0.7464 -0.6559 -0.5727
  117OSM    H3G12239   2.917  -0.262   6.703  0.6294  0.8417 -1.1478
  117OSM    C4F12240   2.964  -0.423   6.552 -0.0472 -1.1326 -0.4390
  117OSM    H4F12241   2.919  -0.501   6.616  0.3419 -0.3954  0.7660
  117OSM    H4G12242   3.050  -0.470   6.499 -2.1197 -2.5577 -2.7818
  117OSM    C5F12243   2.854  -0.374   6.455  0.3140  0.0414  1.1103
  117OSM    H5F12244   2.909  -0.309   6.383 -0.6202  0.7939  1.0474
  117OSM    H5G12245   2.781  -0.301   6.497  2.3267  3.3221 -0.6212
  117OSM    C6F12246   2.787  -0.500   6.394  0.2653  0.1069  0.0205
  117OSM    H6F12247   2.698  -0.450   6.349 -0.0283 -1.7958 -1.6779
  117OSM    H6G12248   2.753  -0.560   6.481 -1.5126  0.6083 -0.2934
  117OSM    C7F12249   2.861  -0.595   6.292  1.1997 -0.0138 -0.2100
  117OSM    H7F12250   2.793  -0.683   6.294  1.0848  0.0499 -1.0070
  117OSM    H7G12251   2.959  -0.629   6.332  0.7557 -2.6179 -1.1179
  117OSM    C8F12252   2.883  -0.534   6.160 -0.3330 -0.2425  0.0437
  117OSM    H8F12253   2.966  -0.589   6.110 -0.9389 -1.6060  0.4647
  117OSM    H8G12254   2.930  -0.437   6.187  0.7798 -0.1570 -2.0448
  117OSM    C9F12255   2.764  -0.502   6.065 -0.4109 -0.2798  0.0947
  117OSM    H9F12256   2.660  -0.510   6.101 -0.2236 -0.4371  0.6121
  117OSM   C10F12257   2.777  -0.484   5.933 -0.1975  0.1256  0.0870
  117OSM   H10F12258   2.691  -0.451   5.873  0.0175 -2.9968 -2.1588
  117OSM   C11F12259   2.900  -0.480   5.856  0.7372  0.2875  0.7068
  117OSM   H11F12260   2.898  -0.552   5.771 -0.3476  2.9840 -1.7012
  117OSM   H11G12261   2.982  -0.515   5.922 -1.2883 -0.8329  2.7999
  117OSM   C12F12262   2.909  -0.337   5.790 -0.3104  0.1079  0.2164
  117OSM   H12F12263   2.928  -0.259   5.868 -0.2703 -0.2044  0.5192
  117OSM   H12G12264   2.816  -0.300   5.742  0.4736  1.0212 -0.6698
  117OSM   C13F12265   3.015  -0.336   5.682  0.0597 -0.2310  0.1492
  117OSM   H13F12266   2.985  -0.408   5.603  1.5439  0.2850 -0.9195
  117OSM   H13G12267   3.109  -0.382   5.722  0.0265  0.4939  1.0828
  117OSM   C14F12268   3.053  -0.202   5.627 -0.5981 -0.0842  0.4334
  117OSM   H14F12269   3.135  -0.213   5.553  0.8794 -0.5349  2.0770
  117OSM   H14G12270   3.106  -0.141   5.703 -0.4425 -0.1874  0.4088
  117OSM   C15F12271   2.944  -0.117   5.564 -0.4401 -0.8443  0.8582
  117OSM   H15F12272   2.875  -0.096   5.648 -0.7572  0.1963  0.3532
  117OSM   H15G12273   2.888  -0.164   5.480 -1.8340  0.9017  0.7409
  117OSM   C16F12274   2.994   0.020   5.508 -0.8045  0.7466 -0.1698
  117OSM   H16F12275   3.082  -0.002   5.444 -1.2169  2.8667 -1.5953
  117OSM   H16G12276   3.041   0.074   5.593  0.1554 -2.0257  1.1951
  117OSM   C17F12277   2.896   0.110   5.434  0.4492 -0.4082 -0.1952
  117OSM   H17F12278   2.941   0.209   5.414 -2.5176  1.4166  1.5042
  117OSM   H17G12279   2.810   0.130   5.502 -1.4862  0.0235 -2.6155
  117OSM   C18F12280   2.839   0.047   5.302  0.7525 -0.6416 -0.6977
  117OSM   H18F12281   2.781  -0.041   5.337  0.2729  0.6548  2.0918
  117OSM   H18G12282   2.921   0.013   5.236  2.5985  1.8086  0.1416
  117OSM   H18H12283   2.779   0.123   5.247 -0.7134 -1.1480  0.1572
  118OSM      N12284   5.156   3.703   7.487  0.0577 -0.2092  0.1644
  118OSM    C1512285   5.199   3.706   7.341 -0.5171  0.2012 -0.3831
  118OSM   H15A12286   5.131   3.651   7.278  1.3945 -0.0766 -2.3284
  118OSM   H15B12287   5.305   3.688   7.324 -0.2510  3.0830 -2.3974
  118OSM   H15C12288   5.179   3.805   7.305 -1.5263  0.6523  1.3234
  118OSM    C1412289   5.194   3.580   7.560  0.2549 -0.3139 -0.8043
  118OSM   H14A12290   5.142   3.492   7.527 -1.4341 -0.2523  1.4714
  118OSM   H14B12291   5.170   3.590   7.665 -1.1430 -0.0779 -1.1210
  118OSM   H14C12292   5.299   3.556   7.555  0.6922  1.3641 -0.5371
  118OSM    C1312293   5.231   3.812   7.563 -0.2913 -1.1542 -0.0431
  118OSM   H13A12294   5.230   3.802   7.671  2.4574  1.1212  0.3169
  118OSM   H13B12295   5.190   3.909   7.537 -0.3581 -1.1174  0.1978
  118OSM   H13C12296   5.334   3.810   7.531 -0.6144  0.3054 -1.3033
  118OSM    C1212297   5.005   3.721   7.501 -0.2700  0.2458 -0.8572
  118OSM   H12A12298   4.988   3.815   7.453  1.4973  0.9691 -0.1685
  118OSM   H12B12299   4.976   3.732   7.605 -1.3250 -0.8421 -1.0174
  118OSM    C1112300   4.913   3.613   7.438  0.2728 -0.5807 -0.3141
  118OSM   H11A12301   4.919   3.605   7.327  1.5816 -1.3111 -0.2131
  118OSM   H11B12302   4.817   3.664   7.461  0.4217  0.1358 -1.2247
  118OSM      P12303   4.855   3.361   7.441  0.1582  0.4729  0.1545
  118OSM    O1312304   4.922   3.244   7.496  0.1308 -0.2523 -0.0729
  118OSM    O1412305   4.704   3.365   7.458 -0.0243  0.3267 -0.5046
  118OSM    O1112306   4.884   3.374   7.292  0.1966 -0.0074 -0.2275
  118OSM    O1212307   4.919   3.490   7.500  0.1517  0.3056 -0.4462
  118OSM    C1S12308   5.006   3.330   7.238  0.1884 -0.7299 -0.3422
  118OSM    H1S12309   5.015   3.219   7.247 -0.2899 -0.6960  0.6051
  118OSM    H1T12310   5.095   3.385   7.275 -0.9034  0.9622 -0.1496
  118OSM     NF12311   5.150   3.322   7.047 -0.0285 -0.1204  0.0526
  118OSM    HNF12312   5.209   3.402   7.039  0.6251 -0.4682  1.2800
  118OSM    C2S12313   5.015   3.360   7.088  0.2976  0.4650 -1.0061
  118OSM    H2S12314   4.950   3.293   7.027  0.4215 -0.3322 -0.2893
  118OSM    C3S12315   4.953   3.501   7.057  0.0789 -0.2314  0.4830
  118OSM    H3S12316   5.009   3.579   7.113 -0.2785 -0.2776  0.9067
  118OSM     O312317   4.815   3.512   7.085 -0.4440 -0.8106 -0.1136
  118OSM    HO312318   4.795   3.457   7.161 -0.0880 -0.2369  0.4027
  118OSM    C4S12319   4.962   3.526   6.909  0.3326  0.4089 -0.2563
  118OSM    H4S12320   4.929   3.444   6.843 -1.1270  2.2925 -2.0020
  118OSM    C5S12321   5.014   3.626   6.843  0.2047 -0.0285 -0.2474
  118OSM    H5S12322   5.052   3.711   6.902  1.3284 -1.6152  1.4220
  118OSM    C6S12323   5.014   3.647   6.695 -0.0538 -0.0876  0.3006
  118OSM    H6S12324   5.111   3.616   6.650 -1.3803 -0.5830 -2.4242
  118OSM    H6T12325   4.997   3.756   6.682 -2.0744 -0.2682  1.0053
  118OSM    C7S12326   4.905   3.577   6.604  0.2541 -0.6601  0.6249
  118OSM    H7S12327   4.801   3.603   6.632 -1.3432 -3.3781 -2.1532
  118OSM    H7T12328   4.918   3.467   6.599 -1.6333 -0.9352  0.8944
  118OSM    C8S12329   4.924   3.634   6.462 -0.2158  0.9028  0.4196
  118OSM    H8S12330   5.031   3.632   6.431 -0.9096  2.5553 -2.3874
  118OSM    H8T12331   4.887   3.738   6.460 -3.8075 -0.2368 -2.5417
  118OSM    C9S12332   4.837   3.559   6.357 -0.1091  0.3129 -0.7142
  118OSM    H9S12333   4.735   3.550   6.399 -0.6108  2.4393 -1.3801
  118OSM    H9T12334   4.883   3.459   6.338 -1.2328 -0.3399 -0.0985
  118OSM   C10S12335   4.818   3.633   6.221  0.5097  0.3721 -0.9807
  118OSM   H10S12336   4.915   3.658   6.173  0.3796  1.0865 -0.8876
  118OSM   H10T12337   4.759   3.727   6.228  1.1885  0.6909  1.4498
  118OSM   C11S12338   4.754   3.542   6.118  0.1426  0.1541  0.2356
  118OSM   H11S12339   4.646   3.524   6.136 -0.1994 -0.0302 -1.7650
  118OSM   H11T12340   4.802   3.442   6.114  0.9313  0.5182  0.3204
  118OSM   C12S12341   4.777   3.609   5.978 -0.1532  0.1868  0.0353
  118OSM   H12S12342   4.885   3.625   5.955 -0.6713 -0.9295 -4.0167
  118OSM   H12T12343   4.746   3.715   5.988 -0.6401  0.0699 -0.2074
  118OSM   C13S12344   4.705   3.534   5.860  0.2044 -0.7767 -1.0463
  118OSM   H13S12345   4.597   3.536   5.885  0.1409  1.9577 -1.3207
  118OSM   H13T12346   4.736   3.427   5.851 -0.6340 -1.0611 -0.6719
  118OSM   C14S12347   4.725   3.606   5.717 -0.0242  0.1899 -0.2643
  118OSM   H14S12348   4.822   3.660   5.708  0.8556 -1.2121  0.4249
  118OSM   H14T12349   4.632   3.665   5.708 -0.8466 -1.1428 -0.8613
  118OSM   C15S12350   4.741   3.514   5.587  0.2310 -0.1535 -1.3181
  118OSM   H15S12351   4.652   3.447   5.593 -0.1051  0.4049  1.6143
  118OSM   H15T12352   4.829   3.448   5.599  1.3694  1.5113 -0.0921
  118OSM   C16S12353   4.754   3.594   5.457  0.2857  0.3017 -0.1844
  118OSM   H16S12354   4.846   3.657   5.464  0.8375 -0.4229 -0.7663
  118OSM   H16T12355   4.663   3.656   5.441  0.3612 -0.0335 -2.2222
  118OSM   C17S12356   4.781   3.510   5.332  0.2465 -0.1428 -0.5107
  118OSM   H17S12357   4.875   3.454   5.349  0.8506  1.0046  0.0113
  118OSM   H17T12358   4.799   3.573   5.242  3.2115 -0.1822 -0.0221
  118OSM   C18S12359   4.668   3.409   5.309 -0.0957 -0.7570  0.1614
  118OSM   H18S12360   4.683   3.381   5.203  1.7504 -0.9093  0.4233
  118OSM   H18T12361   4.568   3.452   5.330  0.3515 -0.0020  0.8264
  118OSM   H18U12362   4.685   3.319   5.372 -0.8394 -1.3434 -0.4655
  118OSM    C1F12363   5.203   3.201   7.038 -0.2759  0.1983  0.3628
  118OSM     OF12364   5.143   3.104   7.082 -0.4041 -0.3082  0.2316
  118OSM    C2F12365   5.335   3.186   6.961 -0.6254 -0.6464  0.2090
  118OSM    H2F12366   5.388   3.089   6.975  0.7541 -0.0624 -0.7563
  118OSM    H2G12367   5.397   3.260   7.015  0.0506 -0.8913 -0.2201
  118OSM    C3F12368   5.314   3.216   6.809 -0.3614  0.1970 -0.7828
  118OSM    H3F12369   5.416   3.218   6.765 -1.0465  0.2866 -2.4317
  118OSM    H3G12370   5.273   3.317   6.790 -0.1785  0.7400  1.4099
  118OSM    C4F12371   5.221   3.107   6.744  0.7094  0.1255  0.0452
  118OSM    H4F12372   5.135   3.079   6.809  0.3269 -1.2156 -0.9763
  118OSM    H4G12373   5.272   3.009   6.727 -1.1429 -0.6682 -1.3354
  118OSM    C5F12374   5.168   3.167   6.610  0.1729 -0.0471  0.3213
  118OSM    H5F12375   5.256   3.171   6.542 -0.1239 -1.8375 -0.2143
  118OSM    H5G12376   5.124   3.267   6.629  0.4508 -0.1838  1.8375
  118OSM    C6F12377   5.060   3.085   6.534 -0.9528  0.8957  0.2514
  118OSM    H6F12378   4.967   3.064   6.591 -2.3253 -0.7155 -2.3377
  118OSM    H6G12379   5.107   2.984   6.524 -0.5158  1.0817  0.4096
  118OSM    C7F12380   5.026   3.145   6.394  0.0050  0.6820 -0.2052
  118OSM    H7F12381   5.126   3.164   6.349  0.1736  1.0917  0.3367
  118OSM    H7G12382   4.978   3.242   6.420 -2.5965 -0.4510 -0.5282
  118OSM    C8F12383   4.942   3.058   6.301 -0.1016  0.6024 -0.1502
  118OSM    H8F12384   4.848   3.028   6.353 -1.8486  2.5544 -2.0204
  118OSM    H8G12385   4.986   2.958   6.283 -1.9785 -0.5846  1.3625
  118OSM    C9F12386   4.899   3.134   6.177 -0.7103 -0.0633 -0.6506
  118OSM    H9F12387   4.832   3.220   6.193 -2.0484 -0.9578 -1.2369
  118OSM   C10F12388   4.939   3.104   6.053  0.5760  0.0258  0.9433
  118OSM   H10F12389   4.896   3.167   5.974 -0.8970 -0.9077  0.9757
  118OSM   C11F12390   5.016   2.996   5.993 -0.0542  0.8594 -0.4967
  118OSM   H11F12391   5.020   2.900   6.049  1.5759 -0.0824 -2.1268
  118OSM   H11G12392   5.124   3.018   5.982  0.6639 -2.3916 -1.0108
  118OSM   C12F12393   4.954   2.951   5.850 -0.8753  0.5227  0.2083
  118OSM   H12F12394   4.847   2.934   5.875 -1.5127  1.1185 -1.9458
  118OSM   H12G12395   5.007   2.860   5.815 -2.5474 -2.0107  3.7195
  118OSM   C13F12396   4.971   3.056   5.739 -0.1025  0.1324 -0.4466
  118OSM   H13F12397   5.076   3.090   5.733 -0.0778  0.2369  0.4001
  118OSM   H13G12398   4.923   3.151   5.771  1.1267  0.8507 -0.6948
  118OSM   C14F12399   4.916   3.001   5.602  0.1438 -0.6787 -0.0550
  118OSM   H14F12400   4.809   2.975   5.614  0.4968 -1.3753  1.9922
  118OSM   H14G12401   4.971   2.911   5.568 -1.2053 -1.8894  0.8463
  118OSM   C15F12402   4.931   3.119   5.502  0.0658 -0.4654 -0.0201
  118OSM   H15F12403   5.038   3.150   5.508 -0.3825  1.3427 -0.8103
  118OSM   H15G12404   4.862   3.202   5.528 -0.8632 -1.4677  0.8028
  118OSM   C16F12405   4.909   3.093   5.351  0.7432 -0.1206 -0.5980
  118OSM   H16F12406   4.913   3.195   5.307 -2.9199  0.7318  0.6127
  118OSM   H16G12407   4.809   3.049   5.331  0.0526 -0.2870  2.6449
  118OSM   C17F12408   5.016   2.991   5.304  0.4973 -0.1373  0.0283
  118OSM   H17F12409   5.000   2.895   5.358 -0.9640 -0.4810 -0.9782
  118OSM   H17G12410   5.115   3.028   5.339 -0.6962  0.9780  2.5135
  118OSM   C18F12411   5.030   2.983   5.152  0.1924 -0.0909 -0.4948
  118OSM   H18F12412   5.019   3.088   5.119 -1.7924  0.3195  1.2780
  118OSM   H18G12413   4.945   2.934   5.099  1.0258 -0.7319 -1.2752
  118OSM   H18H12414   5.128   2.939   5.126  1.5342 -0.4720  4.2862
  119OSM      N12415   5.075   1.407   7.357  0.3106 -0.0954  0.0158
  119OSM    C1512416   4.981   1.495   7.283 -0.2103  0.3823  0.6589
  119OSM   H15A12417   4.956   1.590   7.329  0.1607  1.0638 -0.5090
  119OSM   H15B12418   4.895   1.438   7.254  0.8195 -1.5142  1.1986
  119OSM   H15C12419   5.032   1.507   7.189  0.9961 -0.5244  1.1755
  119OSM    C1412420   5.199   1.477   7.402  0.0108  0.0962 -0.1135
  119OSM   H14A12421   5.261   1.429   7.475 -1.8807  1.2289  2.3753
  119OSM   H14B12422   5.176   1.565   7.460 -1.0795 -0.4276  0.2683
  119OSM   H14C12423   5.262   1.484   7.314 -0.5274 -2.2577 -0.7531
  119OSM    C1312424   5.008   1.353   7.476  0.7865 -0.6025  0.1134
  119OSM   H13A12425   4.947   1.430   7.520  2.9786  0.4466  1.5164
  119OSM   H13B12426   5.072   1.304   7.548 -1.0091 -1.6785  1.0733
  119OSM   H13C12427   4.935   1.280   7.444  0.4291 -0.1957  0.0033
  119OSM    C1212428   5.118   1.288   7.276 -0.1292 -0.3657 -0.2078
  119OSM   H12A12429   5.031   1.225   7.263 -1.9560  2.0064 -0.1500
  119OSM   H12B12430   5.187   1.236   7.341  1.4441 -1.2620 -2.4610
  119OSM    C1112431   5.191   1.313   7.141 -0.3703  0.1125 -0.0845
  119OSM   H11A12432   5.137   1.379   7.070  0.9795  3.5647  1.8128
  119OSM   H11B12433   5.189   1.213   7.094 -0.4794  0.8053 -1.6157
  119OSM      P12434   5.454   1.294   7.127 -0.4101 -0.1130  0.1151
  119OSM    O1312435   5.551   1.349   7.226 -0.1465  0.1329  0.2472
  119OSM    O1412436   5.427   1.148   7.121 -0.2668 -0.7543 -0.4879
  119OSM    O1112437   5.475   1.349   6.984 -0.5643 -0.5217 -0.2103
  119OSM    O1212438   5.322   1.364   7.161 -0.3111 -0.1356 -0.5096
  119OSM    C1S12439   5.417   1.279   6.874 -0.2743 -0.5752  0.0210
  119OSM    H1S12440   5.324   1.330   6.842 -1.1946 -1.2965  1.4344
  119OSM    H1T12441   5.386   1.176   6.902 -0.5897  0.1789  2.6992
  119OSM     NF12442   5.437   1.201   6.644  0.1961  0.8113  0.3240
  119OSM    HNF12443   5.451   1.106   6.618  0.1688  0.5616  1.1887
  119OSM    C2S12444   5.515   1.262   6.748 -0.3490 -0.5460 -0.2845
  119OSM    H2S12445   5.541   1.362   6.709 -2.2439 -0.1724 -0.6532
  119OSM    C3S12446   5.645   1.189   6.788  0.7040  0.3979 -0.8129
  119OSM    H3S12447   5.621   1.086   6.821  0.7950  0.6738  0.1391
  119OSM     O312448   5.720   1.246   6.897  0.4664 -0.5645  0.2922
  119OSM    HO312449   5.659   1.315   6.926 -1.2881 -2.4184  1.3153
  119OSM    C4S12450   5.740   1.177   6.663  0.0650  0.2779  0.6273
  119OSM    H4S12451   5.747   1.269   6.602 -0.0844  0.1712  0.4494
  119OSM    C5S12452   5.798   1.066   6.618 -0.4453 -0.5715 -0.0873
  119OSM    H5S12453   5.784   0.973   6.676  0.9929 -1.6232 -1.3223
  119OSM    C6S12454   5.874   1.046   6.489  0.1743  0.3432  0.6819
  119OSM    H6S12455   5.953   0.972   6.515 -0.3122  0.3550  2.3394
  119OSM    H6T12456   5.924   1.138   6.451 -0.5372  0.5999  0.3605
  119OSM    C7S12457   5.797   0.986   6.369 -0.0405  0.7272 -0.1652
  119OSM    H7S12458   5.721   0.911   6.397 -0.1515  1.3300  1.2128
  119OSM    H7T12459   5.866   0.927   6.305 -3.4554 -1.3187 -2.2592
  119OSM    C8S12460   5.731   1.095   6.286  0.0518 -0.5936  0.3801
  119OSM    H8S12461   5.807   1.168   6.250 -2.0465  1.0027 -1.0600
  119OSM    H8T12462   5.664   1.153   6.352  1.5865  0.6959  0.8712
  119OSM    C9S12463   5.657   1.031   6.169 -0.6368  0.3569 -0.3585
  119OSM    H9S12464   5.566   0.976   6.202 -0.8449 -0.4055 -2.1265
  119OSM    H9T12465   5.716   0.952   6.118 -0.0379  0.4456  0.1861
  119OSM   C10S12466   5.626   1.130   6.061  0.0489 -0.7481  0.3135
  119OSM   H10S12467   5.726   1.174   6.043 -0.0238 -0.3100  0.9261
  119OSM   H10T12468   5.553   1.206   6.098  1.5751  1.1590 -0.3832
  119OSM   C11S12469   5.582   1.068   5.929 -0.8649  0.8229 -0.3436
  119OSM   H11S12470   5.493   1.007   5.956  0.4205 -0.1805  1.9277
  119OSM   H11T12471   5.665   1.004   5.890 -0.9039 -0.1487  1.0807
  119OSM   C12S12472   5.564   1.182   5.828  0.2782  0.8853  0.8646
  119OSM   H12S12473   5.661   1.236   5.833  1.2638 -0.8684  1.3485
  119OSM   H12T12474   5.490   1.257   5.864  1.0760  1.7064  0.8333
  119OSM   C13S12475   5.548   1.132   5.686  0.4167  0.3093  0.4056
  119OSM   H13S12476   5.492   1.202   5.622 -0.4878 -0.6515  0.1213
  119OSM   H13T12477   5.481   1.043   5.688  1.1699 -0.2809 -0.0111
  119OSM   C14S12478   5.677   1.085   5.616  0.7699 -0.0511 -0.3754
  119OSM   H14S12479   5.724   1.010   5.683  1.4843  0.1910 -0.6029
  119OSM   H14T12480   5.745   1.172   5.622 -0.1329  0.5444  2.0822
  119OSM   C15S12481   5.662   1.044   5.469 -0.3665 -0.0735  0.3859
  119OSM   H15S12482   5.585   0.965   5.456 -1.5742  1.1428 -0.0180
  119OSM   H15T12483   5.753   0.998   5.424  0.3103 -0.8751  2.4459
  119OSM   C16S12484   5.609   1.159   5.375 -0.9568 -0.4514  0.1805
  119OSM   H16S12485   5.677   1.245   5.393  2.3138 -3.0473  1.0724
  119OSM   H16T12486   5.506   1.183   5.410 -1.2831 -2.8963  1.1084
  119OSM   C17S12487   5.597   1.126   5.222  0.0288 -0.2860 -0.2566
  119OSM   H17S12488   5.572   1.018   5.213  0.3714 -0.3668 -0.2798
  119OSM   H17T12489   5.698   1.147   5.180  0.0663  0.7159  0.3103
  119OSM   C18S12490   5.494   1.218   5.149 -0.8001 -0.0504  0.0627
  119OSM   H18S12491   5.543   1.315   5.124 -0.4886 -0.2733 -0.1995
  119OSM   H18T12492   5.405   1.232   5.215 -1.2656  0.1604 -0.5953
  119OSM   H18U12493   5.467   1.171   5.052  0.3861 -0.5516 -0.0310
  119OSM    C1F12494   5.342   1.270   6.577 -0.0732 -0.4368 -0.3998
  119OSM     OF12495   5.311   1.384   6.614  0.3629  0.2773  0.1477
  119OSM    C2F12496   5.284   1.196   6.463  0.7134 -0.5473 -0.6940
  119OSM    H2F12497   5.174   1.202   6.469  0.8199 -0.1437  1.9149
  119OSM    H2G12498   5.323   1.092   6.468  1.0036 -0.5598 -2.4368
  119OSM    C3F12499   5.328   1.264   6.337 -0.0485 -0.4473  0.0616
  119OSM    H3F12500   5.431   1.305   6.330  1.2261 -3.5616 -1.9893
  119OSM    H3G12501   5.267   1.356   6.325  0.6707  0.5122  3.0940
  119OSM    C4F12502   5.301   1.177   6.211  0.1998 -0.2504  0.1774
  119OSM    H4F12503   5.374   1.093   6.214 -0.1283 -0.5960 -1.1104
  119OSM    H4G12504   5.325   1.236   6.120 -1.7490  0.2730 -0.0301
  119OSM    C5F12505   5.156   1.119   6.199  0.2303 -0.1728 -0.0233
  119OSM    H5F12506   5.133   1.046   6.280  1.3949 -0.0596  0.4278
  119OSM    H5G12507   5.153   1.062   6.104  0.8493  0.6440 -0.5458
  119OSM    C6F12508   5.034   1.213   6.198 -0.2686 -0.2461  0.0757
  119OSM    H6F12509   5.021   1.259   6.299 -0.1838 -1.7839  0.8105
  119OSM    H6G12510   4.941   1.153   6.191  0.0735 -0.6799 -0.7367
  119OSM    C7F12511   5.057   1.330   6.096  0.2164  0.4491  0.0621
  119OSM    H7F12512   5.093   1.293   5.997 -0.7315 -1.1416  0.2715
  119OSM    H7G12513   5.140   1.384   6.147 -0.1666 -0.5863  1.8792
  119OSM    C8F12514   4.936   1.417   6.071 -0.2211  0.2920 -0.7480
  119OSM    H8F12515   4.982   1.511   6.031 -0.6179  0.2963 -1.2035
  119OSM    H8G12516   4.879   1.435   6.164  0.8138  2.7479 -0.5076
  119OSM    C9F12517   4.853   1.348   5.967  0.4199  0.4039  0.1473
  119OSM    H9F12518   4.787   1.274   6.015  0.4932  0.7794  0.8491
  119OSM   C10F12519   4.841   1.369   5.832 -0.4775 -0.7858  0.6561
  119OSM   H10F12520   4.774   1.311   5.766  2.0029  0.2426 -3.0912
  119OSM   C11F12521   4.925   1.470   5.760  0.6390  0.1652  0.4864
  119OSM   H11F12522   4.935   1.566   5.814  1.4460  0.6147 -0.4250
  119OSM   H11G12523   4.870   1.493   5.666 -0.4804  1.7056  1.4734
  119OSM   C12F12524   5.059   1.408   5.720  0.3122  0.3190  0.8943
  119OSM   H12F12525   5.130   1.391   5.804 -0.2068  1.9943  1.7267
  119OSM   H12G12526   5.106   1.488   5.659 -0.3558 -0.0181 -0.0890
  119OSM   C13F12527   5.055   1.284   5.632  0.7154 -0.5261  0.3055
  119OSM   H13F12528   4.991   1.294   5.542 -0.5063  0.8287  1.2772
  119OSM   H13G12529   4.992   1.210   5.686 -1.0075  2.1078  2.1509
  119OSM   C14F12530   5.191   1.242   5.587  0.0651 -0.0243 -0.6537
  119OSM   H14F12531   5.259   1.236   5.674 -1.5044 -1.8390  0.5180
  119OSM   H14G12532   5.241   1.303   5.509 -0.4456  1.3075  0.0245
  119OSM   C15F12533   5.200   1.096   5.529 -0.2422  0.1356 -0.3180
  119OSM   H15F12534   5.160   1.029   5.608 -2.3412  1.4634 -0.1686
  119OSM   H15G12535   5.307   1.069   5.521 -0.8733 -2.2964 -1.4512
  119OSM   C16F12536   5.133   1.078   5.395 -0.2307 -0.0853  0.2070
  119OSM   H16F12537   5.194   1.142   5.328  1.1830 -1.1312  0.4516
  119OSM   H16G12538   5.027   1.112   5.393  0.1390  1.1414 -1.9470
  119OSM   C17F12539   5.156   0.942   5.331 -0.1007  0.1599 -0.1478
  119OSM   H17F12540   5.101   0.867   5.393 -1.7388  0.7296 -0.8480
  119OSM   H17G12541   5.261   0.909   5.316 -0.1300  0.0415 -0.0948
  119OSM   C18F12542   5.099   0.926   5.186  0.1489 -0.1193  0.2606
  119OSM   H18F12543   5.148   0.835   5.144  0.2661 -0.0786  0.3108
  119OSM   H18G12544   5.109   1.027   5.141 -1.9422 -0.3886 -0.9899
  119OSM   H18H12545   4.990   0.910   5.199 -0.3215  0.9597 -1.8793
  120OSM      N12546   5.458   0.510   7.553  0.2711  0.3141  0.3959
  120OSM    C1512547   5.326   0.537   7.603  0.7894 -0.2771 -0.3127
  120OSM   H15A12548   5.258   0.576   7.529 -1.0531  0.9946  1.9174
  120OSM   H15B12549   5.325   0.617   7.676  3.8406 -0.4441  0.0403
  120OSM   H15C12550   5.279   0.457   7.659 -1.9110  2.6072  1.9124
  120OSM    C1412551   5.558   0.476   7.655  0.5737 -0.2782 -0.4459
  120OSM   H14A12552   5.584   0.558   7.720  0.9034 -0.9293  0.2570
  120OSM   H14B12553   5.651   0.444   7.610  1.3072  0.8735  0.1906
  120OSM   H14C12554   5.527   0.398   7.724  1.0246  0.4709  0.6374
  120OSM    C1312555   5.441   0.386   7.466 -0.2003 -0.3941 -0.1355
  120OSM   H13A12556   5.399   0.301   7.517 -0.0130  0.2710  1.1719
  120OSM   H13B12557   5.536   0.356   7.422 -1.4185 -0.9477 -2.5940
  120OSM   H13C12558   5.372   0.404   7.385  0.3035  1.3963 -0.2114
  120OSM    C1212559   5.516   0.621   7.460  0.9961 -0.1087 -0.2077
  120OSM   H12A12560   5.506   0.713   7.514  1.1329 -0.5508  0.5843
  120OSM   H12B12561   5.448   0.630   7.376 -0.7502 -0.0125  1.1672
  120OSM    C1112562   5.670   0.594   7.402  0.6757 -0.1621  0.3894
  120OSM   H11A12563   5.734   0.596   7.493 -0.0022 -2.3376  0.9684
  120OSM   H11B12564   5.709   0.675   7.337  0.1986 -0.4647 -0.2857
  120OSM      P12565   5.627   0.462   7.178  0.4371 -0.1932  0.0185
  120OSM    O1312566   5.668   0.329   7.123  0.2862  0.4831 -0.2423
  120OSM    O1412567   5.482   0.504   7.178  0.3604  0.3308  0.9589
  120OSM    O1112568   5.713   0.574   7.115  0.1307 -0.2490  0.0183
  120OSM    O1212569   5.682   0.470   7.328  0.3578 -0.2069 -0.0827
  120OSM    C1S12570   5.834   0.549   7.049 -0.5664  0.3296  0.2892
  120OSM    H1S12571   5.882   0.460   7.094 -1.3310  0.2422  0.9652
  120OSM    H1T12572   5.902   0.636   7.058 -2.1911  1.6942 -0.1323
  120OSM     NF12573   5.938   0.500   6.821  0.0312  0.2132  0.2055
  120OSM    HNF12574   5.978   0.568   6.759 -2.7142  0.7014 -1.2044
  120OSM    C2S12575   5.815   0.535   6.892  0.1947  0.2157 -0.4370
  120OSM    H2S12576   5.734   0.459   6.883  0.9083 -0.6709  0.4162
  120OSM    C3S12577   5.746   0.664   6.841  0.3398  0.4206  0.3592
  120OSM    H3S12578   5.823   0.734   6.803 -0.2697 -0.3502 -2.5598
  120OSM     O312579   5.664   0.743   6.935  0.5615  0.0800 -0.0640
  120OSM    HO312580   5.686   0.709   7.022  0.4476  2.9541  1.2060
  120OSM    C4S12581   5.668   0.640   6.709  0.3608 -0.1503  0.8187
  120OSM    H4S12582   5.732   0.656   6.621 -0.8588 -0.6774 -0.1843
  120OSM    C5S12583   5.535   0.605   6.686  0.2484  0.1653  0.2271
  120OSM    H5S12584   5.468   0.617   6.773  1.8698  0.1244  1.5427
  120OSM    C6S12585   5.475   0.613   6.551 -0.0146  0.3325  0.7174
  120OSM    H6S12586   5.404   0.698   6.551 -0.2639  0.1246  0.5722
  120OSM    H6T12587   5.412   0.525   6.527  0.7774  0.2573 -1.2137
  120OSM    C7S12588   5.561   0.609   6.420 -0.1535  0.3994  0.1303
  120OSM    H7S12589   5.644   0.536   6.431  0.2752  1.0790  1.6364
  120OSM    H7T12590   5.595   0.715   6.420 -2.4664  1.1994  0.5192
  120OSM    C8S12591   5.477   0.601   6.290 -0.1808 -0.3155 -0.1780
  120OSM    H8S12592   5.385   0.664   6.297  0.3588  0.3242  1.9868
  120OSM    H8T12593   5.438   0.497   6.277  0.2203 -0.6789  1.3533
  120OSM    C9S12594   5.556   0.655   6.168  0.5586 -0.4829  0.4443
  120OSM    H9S12595   5.625   0.573   6.139 -0.7725 -1.7324  0.6568
  120OSM    H9T12596   5.606   0.752   6.187 -1.4554  1.2908 -2.6030
  120OSM   C10S12597   5.465   0.674   6.040 -0.3479 -0.5552  0.3253
  120OSM   H10S12598   5.430   0.776   6.067  1.0583  0.4234 -1.2960
  120OSM   H10T12599   5.385   0.598   6.049 -0.8538  0.1561  2.8203
  120OSM   C11S12600   5.548   0.692   5.912  0.4967 -0.3272  0.2651
  120OSM   H11S12601   5.603   0.597   5.895 -1.8907 -2.1626  2.0297
  120OSM   H11T12602   5.617   0.777   5.930 -0.4416  0.8157 -1.3515
  120OSM   C12S12603   5.465   0.726   5.786 -0.1746  0.1505  0.0427
  120OSM   H12S12604   5.530   0.721   5.696 -1.4768  0.1178 -0.9199
  120OSM   H12T12605   5.410   0.822   5.773  4.1539  2.6846 -2.0066
  120OSM   C13S12606   5.360   0.609   5.770 -0.5354 -0.4703 -0.5615
  120OSM   H13S12607   5.297   0.601   5.862 -0.2166 -1.2172 -0.4001
  120OSM   H13T12608   5.415   0.513   5.766  0.4079 -0.2104  2.8181
  120OSM   C14S12609   5.265   0.624   5.653  0.9014 -0.4194  0.3604
  120OSM   H14S12610   5.320   0.644   5.558  0.1982 -2.9535 -0.6777
  120OSM   H14T12611   5.202   0.709   5.687 -0.1257 -1.9311  2.4240
  120OSM   C15S12612   5.170   0.500   5.644 -0.4095  0.1936 -0.0308
  120OSM   H15S12613   5.130   0.452   5.736 -0.8946 -1.9544 -1.2940
  120OSM   H15T12614   5.237   0.419   5.609 -1.3808 -2.0280  2.8272
  120OSM   C16S12615   5.051   0.518   5.544  0.2689  0.5277 -0.3232
  120OSM   H16S12616   4.991   0.606   5.576  1.9083  1.7092 -0.4145
  120OSM   H16T12617   4.990   0.425   5.547  0.7178  0.2518  1.3983
  120OSM   C17S12618   5.100   0.542   5.404 -0.0467  0.1631  0.7673
  120OSM   H17S12619   5.164   0.457   5.372 -0.3966  0.1463  0.0924
  120OSM   H17T12620   5.162   0.634   5.412 -1.8304  1.5795 -0.8712
  120OSM   C18S12621   5.006   0.590   5.292  0.9311 -0.0287  0.0578
  120OSM   H18S12622   4.948   0.679   5.324 -1.0867 -1.5583  0.8772
  120OSM   H18T12623   4.924   0.516   5.281  0.3592  0.4763  0.8055
  120OSM   H18U12624   5.060   0.612   5.197 -0.5863  0.6385 -0.6840
  120OSM    C1F12625   5.987   0.382   6.839 -0.3787  0.0714  0.7547
  120OSM     OF12626   5.922   0.292   6.900 -0.2501  0.1206  0.2334
  120OSM    C2F12627   6.131   0.362   6.798  0.4680  0.0578 -0.2170
  120OSM    H2F12628   6.193   0.364   6.890 -0.6721 -0.3491  0.5779
  120OSM    H2G12629   6.164   0.459   6.753 -3.2696  1.7885  0.3609
  120OSM    C3F12630   6.150   0.240   6.700  0.0231  0.1977 -0.5923
  120OSM    H3F12631   6.083   0.260   6.614 -0.0659 -0.3073 -0.6429
  120OSM    H3G12632   6.107   0.150   6.750 -0.4879  0.1823 -1.0538
  120OSM    C4F12633   6.295   0.212   6.658 -0.6117  0.1629 -0.3790
  120OSM    H4F12634   6.343   0.153   6.739  0.8500 -0.9041 -1.9561
  120OSM    H4G12635   6.356   0.303   6.645 -1.1897  0.5623 -0.3560
  120OSM    C5F12636   6.305   0.130   6.531 -0.1763 -0.1285  0.5193
  120OSM    H5F12637   6.240   0.040   6.531  1.1211 -1.1041 -0.4445
  120OSM    H5G12638   6.413   0.105   6.541 -0.2592 -0.1477  1.4436
  120OSM    C6F12639   6.300   0.215   6.404 -0.1704 -0.8497 -0.5824
  120OSM    H6F12640   6.336   0.318   6.419 -0.0215 -0.8276 -1.0510
  120OSM    H6G12641   6.190   0.232   6.396 -0.2438  0.0188  1.6608
  120OSM    C7F12642   6.344   0.165   6.264  0.3252  0.1022 -1.5602
  120OSM    H7F12643   6.297   0.066   6.243  0.2967  0.1236 -1.5979
  120OSM    H7G12644   6.453   0.141   6.259  0.4154 -0.1680  0.7442
  120OSM    C8F12645   6.286   0.254   6.154  0.0899 -0.1003 -0.1419
  120OSM    H8F12646   6.314   0.361   6.165 -0.5515 -0.0061  0.6507
  120OSM    H8G12647   6.176   0.255   6.166 -0.3849 -4.5525 -2.0042
  120OSM    C9F12648   6.334   0.205   6.018 -0.2008  0.1431  0.6892
  120OSM    H9F12649   6.437   0.168   6.014  0.4216  1.8455  0.2605
  120OSM   C10F12650   6.268   0.221   5.898  0.5266 -0.5795 -0.1434
  120OSM   H10F12651   6.312   0.170   5.811  0.1203  0.5590 -1.0485
  120OSM   C11F12652   6.124   0.274   5.874 -1.1158 -0.1361 -0.2186
  120OSM   H11F12653   6.124   0.344   5.787 -2.2497  2.0982  1.4609
  120OSM   H11G12654   6.089   0.337   5.959 -0.4647 -1.1591  0.8348
  120OSM   C12F12655   6.018   0.171   5.849  0.4866 -0.0569 -0.7243
  120OSM   H12F12656   5.915   0.212   5.843  0.3656 -0.4447 -1.4284
  120OSM   H12G12657   6.020   0.108   5.940 -0.9303  1.2692  0.2718
  120OSM   C13F12658   6.030   0.077   5.727  0.3838 -0.0462  0.0518
  120OSM   H13F12659   5.937   0.016   5.720 -0.3394  1.1644 -1.5856
  120OSM   H13G12660   6.125   0.023   5.747  1.1243  2.1204  3.1648
  120OSM   C14F12661   6.030   0.152   5.592  0.2254 -0.5365 -0.3305
  120OSM   H14F12662   6.121   0.208   5.560  1.8363 -3.4150 -1.1586
  120OSM   H14G12663   5.946   0.224   5.596  2.1672  1.9999 -2.1077
  120OSM   C15F12664   6.001   0.051   5.479 -0.7532 -0.0336  0.5330
  120OSM   H15F12665   5.899   0.009   5.469 -0.0578 -1.9336  0.9377
  120OSM   H15G12666   6.077  -0.028   5.499 -0.0939  0.3687 -0.2978
  120OSM   C16F12667   6.046   0.110   5.348  0.5185  0.1592  0.1134
  120OSM   H16F12668   6.139   0.170   5.350  0.0626  1.0613 -2.3169
  120OSM   H16G12669   5.982   0.195   5.315  2.2581  0.1716 -3.7865
  120OSM   C17F12670   6.060   0.012   5.228  0.3422 -0.0072 -0.1356
  120OSM   H17F12671   5.961  -0.039   5.226  1.4517 -2.2527 -1.5348
  120OSM   H17G12672   6.132  -0.067   5.258 -0.8022 -0.9479  0.2083
  120OSM   C18F12673   6.086   0.073   5.095 -0.3377  0.2412  0.3862
  120OSM   H18F12674   6.009   0.147   5.067  0.8049  1.8793  1.3791
  120OSM   H18G12675   6.093  -0.008   5.019  0.5163  1.7317 -1.1936
  120OSM   H18H12676   6.185   0.124   5.094  0.1199 -0.6169 -0.7864
  121OSM      N12677   2.197   0.190   7.462  0.7962  0.1371  0.1215
  121OSM    C1512678   2.328   0.177   7.538  0.1495 -0.3026  0.8070
  121OSM   H15A12679   2.333   0.097   7.611  1.0851  0.1848  1.2932
  121OSM   H15B12680   2.355   0.274   7.578  0.7954  0.2146 -0.8001
  121OSM   H15C12681   2.406   0.165   7.464  0.7568 -0.5743  1.4716
  121OSM    C1412682   2.157   0.054   7.403 -0.7222  0.1128  0.4038
  121OSM   H14A12683   2.223   0.016   7.326 -1.2375 -0.2605  0.1381
  121OSM   H14B12684   2.072   0.074   7.338  0.7691 -1.4704 -2.2425
  121OSM   H14C12685   2.138  -0.028   7.471 -0.2883 -1.9707 -1.8390
  121OSM    C1312686   2.089   0.238   7.549 -0.2954  0.7467 -0.2721
  121OSM   H13A12687   1.996   0.212   7.502  0.2247  0.7825 -1.3650
  121OSM   H13B12688   2.100   0.339   7.584  0.2834  0.8477 -0.7230
  121OSM   H13C12689   2.079   0.175   7.636 -1.8436 -0.7953 -1.5038
  121OSM    C1212690   2.217   0.288   7.350 -0.2256  0.2116 -0.2388
  121OSM   H12A12691   2.258   0.385   7.375 -0.5592  0.5455 -0.9575
  121OSM   H12B12692   2.118   0.303   7.310  0.2858 -2.7925 -3.0993
  121OSM    C1112693   2.315   0.249   7.236 -0.1357  0.0073 -0.2801
  121OSM   H11A12694   2.306   0.328   7.158  0.9027  0.1311 -0.2904
  121OSM   H11B12695   2.280   0.163   7.174 -0.4904 -0.5392  0.6532
  121OSM      P12696   2.547   0.365   7.272 -0.4375 -0.0596  0.4829
  121OSM    O1312697   2.471   0.492   7.262 -0.2435 -0.1382  0.0684
  121OSM    O1412698   2.647   0.350   7.381 -0.0358  0.2076  0.2449
  121OSM    O1112699   2.623   0.352   7.130 -0.1372 -0.9354 -0.3328
  121OSM    O1212700   2.449   0.242   7.277  0.3324 -0.1016  0.2850
  121OSM    C1S12701   2.648   0.227   7.065  0.4796 -0.1891  0.3714
  121OSM    H1S12702   2.576   0.146   7.091  1.0029 -0.4091  1.1812
  121OSM    H1T12703   2.751   0.191   7.083  0.5863 -0.1389 -0.1272
  121OSM     NF12704   2.666   0.112   6.842  0.6489  0.4776 -0.2493
  121OSM    HNF12705   2.751   0.096   6.793 -0.9759  0.8429 -3.4680
  121OSM    C2S12706   2.636   0.242   6.910 -0.2585  0.1263  0.8450
  121OSM    H2S12707   2.531   0.264   6.882  0.7714  0.4301 -3.4427
  121OSM    C3S12708   2.726   0.358   6.861 -0.5487 -0.8593  0.0240
  121OSM    H3S12709   2.832   0.330   6.876 -0.2754  0.9792  2.2508
  121OSM     O312710   2.726   0.484   6.931 -0.3033 -0.5869 -0.2096
  121OSM    HO312711   2.667   0.465   7.004 -3.0547  0.2480 -2.0752
  121OSM    C4S12712   2.711   0.386   6.716 -0.7614 -0.1617  0.0208
  121OSM    H4S12713   2.609   0.413   6.685 -0.0674  0.0156 -2.3186
  121OSM    C5S12714   2.814   0.395   6.622  0.9694 -0.9413 -0.0163
  121OSM    H5S12715   2.913   0.368   6.660  1.8165 -0.0774 -1.5087
  121OSM    C6S12716   2.806   0.430   6.480 -0.3616  0.2497 -0.2631
  121OSM    H6S12717   2.805   0.331   6.431 -1.1688  0.2721 -0.2938
  121OSM    H6T12718   2.906   0.473   6.456 -0.1074 -0.6927 -0.9197
  121OSM    C7S12719   2.692   0.527   6.433 -0.8646  0.0579  0.3828
  121OSM    H7S12720   2.688   0.612   6.504 -1.0581  0.4804 -0.1290
  121OSM    H7T12721   2.593   0.476   6.438 -0.5379 -0.6770 -0.2929
  121OSM    C8S12722   2.720   0.575   6.291  0.1856  0.2359  0.5230
  121OSM    H8S12723   2.810   0.640   6.283 -1.5036  2.5965 -0.5118
  121OSM    H8T12724   2.644   0.651   6.263  0.3861 -0.5711 -2.6134
  121OSM    C9S12725   2.719   0.463   6.187  0.1238 -0.3661  0.3214
  121OSM    H9S12726   2.637   0.393   6.215 -0.2441  0.0744  0.3530
  121OSM    H9T12727   2.813   0.406   6.197  1.7886  2.2331  0.4006
  121OSM   C10S12728   2.705   0.529   6.052  0.0736 -0.4932 -0.2591
  121OSM   H10S12729   2.787   0.600   6.026  0.3698 -0.9607 -0.6137
  121OSM   H10T12730   2.616   0.595   6.052  0.3742  0.2086 -4.5262
  121OSM   C11S12731   2.697   0.435   5.934  0.5725  0.1365  0.5061
  121OSM   H11S12732   2.623   0.357   5.960  0.6898 -0.6651 -1.4429
  121OSM   H11T12733   2.796   0.386   5.918  0.7049  0.9465 -1.4338
  121OSM   C12S12734   2.665   0.505   5.803  0.4603  0.0036 -0.2086
  121OSM   H12S12735   2.753   0.571   5.785  0.1309  0.9096  1.3616
  121OSM   H12T12736   2.564   0.550   5.810 -0.0480 -0.9948 -0.8301
  121OSM   C13S12737   2.655   0.416   5.674  1.0828 -0.2411 -0.0113
  121OSM   H13S12738   2.569   0.347   5.683 -0.0889  0.8650 -1.8931
  121OSM   H13T12739   2.750   0.361   5.656 -0.2926 -2.6226 -0.3432
  121OSM   C14S12740   2.638   0.504   5.548 -0.0798 -0.5504  0.4633
  121OSM   H14S12741   2.727   0.569   5.532  1.1120 -2.1680  0.2729
  121OSM   H14T12742   2.548   0.568   5.561 -0.3219 -1.0502  1.3349
  121OSM   C15S12743   2.634   0.424   5.420  0.4830 -0.8944 -0.7630
  121OSM   H15S12744   2.552   0.350   5.413  1.6526 -2.0965 -3.0459
  121OSM   H15T12745   2.727   0.369   5.392  1.0044 -1.3608  1.6421
  121OSM   C16S12746   2.604   0.508   5.287 -0.2906 -0.3392 -0.6563
  121OSM   H16S12747   2.637   0.613   5.300  1.2385 -0.8102 -0.5721
  121OSM   H16T12748   2.495   0.525   5.272  0.0541  0.9787 -1.9053
  121OSM   C17S12749   2.659   0.459   5.147  0.3083 -0.2743  0.2220
  121OSM   H17S12750   2.606   0.511   5.064  0.4854 -1.1300 -0.4382
  121OSM   H17T12751   2.635   0.351   5.138 -0.5331 -0.0015 -1.2325
  121OSM   C18S12752   2.805   0.477   5.116  0.4919  0.2134 -0.0944
  121OSM   H18S12753   2.856   0.451   5.212 -0.6126  2.8612  1.3125
  121OSM   H18T12754   2.827   0.585   5.107  0.1449  0.1426 -2.1628
  121OSM   H18U12755   2.843   0.414   5.033  0.3989 -2.2283  1.5826
  121OSM    C1F12756   2.585   0.009   6.860 -0.2391  0.6878  0.0334
  121OSM     OF12757   2.468   0.014   6.901  0.5004  0.0413  0.0011
  121OSM    C2F12758   2.644  -0.124   6.833 -0.1635 -0.3005 -0.3810
  121OSM    H2F12759   2.733  -0.122   6.898  0.3156 -1.0848 -0.9943
  121OSM    H2G12760   2.674  -0.150   6.729 -1.2038 -0.5647 -0.6316
  121OSM    C3F12761   2.565  -0.234   6.901 -0.4281  0.3713  0.3071
  121OSM    H3F12762   2.537  -0.215   7.007 -2.7553 -4.0131  0.7486
  121OSM    H3G12763   2.643  -0.313   6.910  1.7606  2.2019 -1.7132
  121OSM    C4F12764   2.442  -0.290   6.827  0.2080 -0.2265  0.0000
  121OSM    H4F12765   2.357  -0.220   6.835  0.3229 -0.0953  0.0817
  121OSM    H4G12766   2.414  -0.388   6.870 -1.3659 -0.3594 -1.2246
  121OSM    C5F12767   2.471  -0.318   6.675 -0.2985 -0.5369  0.0238
  121OSM    H5F12768   2.566  -0.375   6.662 -0.1471 -0.7233  1.7074
  121OSM    H5G12769   2.494  -0.219   6.631 -1.9132 -0.1903 -0.1029
  121OSM    C6F12770   2.357  -0.388   6.599  0.0762  0.5453  0.4421
  121OSM    H6F12771   2.273  -0.315   6.602 -0.6989 -0.2780 -0.3698
  121OSM    H6G12772   2.312  -0.474   6.654  3.8619 -2.6551 -1.0118
  121OSM    C7F12773   2.389  -0.415   6.452 -0.7611  0.2292  0.4056
  121OSM    H7F12774   2.461  -0.500   6.455  0.7009  1.4229  0.3045
  121OSM    H7G12775   2.444  -0.324   6.422 -0.6768  0.1450  0.3042
  121OSM    C8F12776   2.266  -0.449   6.364 -0.3481 -0.2921 -0.0742
  121OSM    H8F12777   2.286  -0.435   6.256  0.9284 -1.3196  0.0142
  121OSM    H8G12778   2.199  -0.368   6.403  5.2804  3.8809  2.4000
  121OSM    C9F12779   2.196  -0.581   6.395  0.4290  0.0098 -0.0346
  121OSM    H9F12780   2.148  -0.592   6.493 -2.4660  1.9482 -1.1079
  121OSM   C10F12781   2.200  -0.686   6.313 -0.0860 -0.0413 -0.4268
  121OSM   H10F12782   2.150  -0.778   6.349  0.0069 -0.3529 -1.0802
  121OSM   C11F12783   2.256  -0.693   6.169 -0.0697 -0.7739  0.2081
  121OSM   H11F12784   2.258  -0.800   6.139 -0.8211 -0.5973 -0.5179
  121OSM   H11G12785   2.362  -0.660   6.170 -0.1454 -0.1024  4.3209
  121OSM   C12F12786   2.160  -0.625   6.064  0.3660 -0.2011  0.4964
  121OSM   H12F12787   2.134  -0.525   6.104  4.0932  0.3907  1.8444
  121OSM   H12G12788   2.067  -0.686   6.063  0.4668 -0.4754 -2.7405
  121OSM   C13F12789   2.207  -0.618   5.923 -0.7685 -0.3822 -0.2756
  121OSM   H13F12790   2.309  -0.573   5.923 -0.9056 -0.0075 -2.1175
  121OSM   H13G12791   2.155  -0.559   5.845  1.1338 -0.2611 -1.5166
  121OSM   C14F12792   2.208  -0.759   5.872 -0.8691  1.0664 -0.1124
  121OSM   H14F12793   2.104  -0.799   5.859 -0.9719  0.9617  0.9854
  121OSM   H14G12794   2.269  -0.824   5.938  0.1484  2.3671  0.2450
  121OSM   C15F12795   2.278  -0.763   5.733  1.0156 -0.8301  0.1250
  121OSM   H15F12796   2.304  -0.869   5.711 -2.8617 -1.2247 -4.5227
  121OSM   H15G12797   2.367  -0.698   5.725  0.0476  0.6268  0.7152
  121OSM   C16F12798   2.188  -0.717   5.612 -0.3313  0.0051 -0.0973
  121OSM   H16F12799   2.151  -0.614   5.629  1.8398  0.4416  2.8070
  121OSM   H16G12800   2.090  -0.768   5.611 -0.2474 -0.1569 -0.6057
  121OSM   C17F12801   2.262  -0.732   5.481  0.3511 -0.0398  0.4021
  121OSM   H17F12802   2.294  -0.838   5.470 -0.4850 -0.2184 -0.4379
  121OSM   H17G12803   2.354  -0.670   5.487 -0.8092  1.7157  0.5003
  121OSM   C18F12804   2.184  -0.681   5.357 -0.0622 -0.8038  0.0756
  121OSM   H18F12805   2.091  -0.738   5.336 -1.0478  0.2457  1.4348
  121OSM   H18G12806   2.240  -0.686   5.261 -2.2748 -0.3162 -1.3176
  121OSM   H18H12807   2.148  -0.578   5.379  1.1544 -0.3475  0.0158
  122OSM      N12808   4.125   3.540   7.007  0.2141  0.3020  0.4084
  122OSM    C1512809   4.159   3.395   6.990  0.0368 -0.0692 -0.2368
  122OSM   H15A12810   4.078   3.333   7.026 -0.8213  1.7606  1.1637
  122OSM   H15B12811   4.249   3.378   7.048 -0.7579  1.3997  1.5345
  122OSM   H15C12812   4.184   3.366   6.889 -1.4062 -1.6841 -0.1752
  122OSM    C1412813   4.251   3.621   7.004 -0.0964 -0.3834 -0.1053
  122OSM   H14A12814   4.240   3.722   7.039  2.4115  0.2714 -0.9727
  122OSM   H14B12815   4.283   3.644   6.904 -1.4535  0.9510 -0.2654
  122OSM   H14C12816   4.334   3.574   7.057  0.4139  1.6883  1.0400
  122OSM    C1312817   4.032   3.591   6.898  0.8025  0.4413 -0.0195
  122OSM   H13A12818   3.928   3.567   6.916 -1.2083  3.8566 -4.8837
  122OSM   H13B12819   4.055   3.537   6.807 -0.6680 -2.6745  1.3052
  122OSM   H13C12820   4.036   3.699   6.900 -0.1112  0.4748  1.6005
  122OSM    C1212821   4.061   3.555   7.146 -0.8989 -0.3985  0.2672
  122OSM   H12A12822   4.128   3.499   7.210  1.7643  0.9633 -1.1619
  122OSM   H12B12823   3.963   3.511   7.139 -1.3273  0.7085 -1.2182
  122OSM    C1112824   4.045   3.701   7.200 -0.3716 -0.1131  0.5575
  122OSM   H11A12825   4.143   3.753   7.196  0.0039 -0.8859 -2.1575
  122OSM   H11B12826   4.009   3.707   7.305  2.3958  1.3497  1.5293
  122OSM      P12827   3.828   3.850   7.158  0.3869  0.3137  0.2032
  122OSM    O1312828   3.711   3.766   7.194  0.0485 -0.0494  0.1453
  122OSM    O1412829   3.878   3.946   7.257  0.4917 -0.7109 -0.2320
  122OSM    O1112830   3.796   3.936   7.025  0.2436 -0.2831  0.4455
  122OSM    O1212831   3.947   3.765   7.111 -0.1849 -0.1621  0.4089
  122OSM    C1S12832   3.902   4.018   6.971  0.7490 -0.3358 -0.5321
  122OSM    H1S12833   4.003   3.976   6.991  1.5861  1.2700 -1.2041
  122OSM    H1T12834   3.906   4.112   7.030  3.8064  0.7760 -2.2795
  122OSM     NF12835   3.983   4.093   6.756 -0.3679  0.6371  0.2233
  122OSM    HNF12836   3.993   4.192   6.745  1.9581  0.5047  0.7125
  122OSM    C2S12837   3.871   4.039   6.820  0.1187  0.0695 -0.0504
  122OSM    H2S12838   3.868   3.939   6.773  0.8468  0.1206 -0.2095
  122OSM    C3S12839   3.733   4.109   6.793  0.5763  0.3214 -0.0581
  122OSM    H3S12840   3.723   4.206   6.846  2.5996 -0.5838  2.1297
  122OSM     O312841   3.624   4.046   6.848  0.0723 -0.1018  0.1089
  122OSM    HO312842   3.656   3.978   6.907 -2.0051 -0.3861  0.9963
  122OSM    C4S12843   3.718   4.123   6.644 -0.2429 -0.5339 -0.0609
  122OSM    H4S12844   3.737   4.028   6.593  0.9688  0.0169 -0.6752
  122OSM    C5S12845   3.708   4.241   6.584  0.6858 -0.4369 -0.1061
  122OSM    H5S12846   3.696   4.334   6.643 -2.3612 -0.6012 -0.3105
  122OSM    C6S12847   3.704   4.264   6.435  0.0050 -0.6706 -0.2704
  122OSM    H6S12848   3.811   4.260   6.405  0.5224 -2.9780  1.5615
  122OSM    H6T12849   3.657   4.362   6.416  0.9787 -0.1628 -0.0980
  122OSM    C7S12850   3.625   4.150   6.367 -0.3842 -0.0531 -0.2738
  122OSM    H7S12851   3.521   4.138   6.404  0.4856 -0.3848  2.3007
  122OSM    H7T12852   3.665   4.048   6.385  1.6525  0.2581 -2.5446
  122OSM    C8S12853   3.620   4.170   6.222  0.6584 -0.1557  0.9232
  122OSM    H8S12854   3.721   4.171   6.174 -0.9997 -1.1894 -2.9531
  122OSM    H8T12855   3.559   4.256   6.190  1.1783  0.0565  0.4891
  122OSM    C9S12856   3.557   4.048   6.154 -0.2152 -0.5137  0.7586
  122OSM    H9S12857   3.448   4.049   6.179  0.0351 -0.4242  1.8987
  122OSM    H9T12858   3.600   3.950   6.183  2.4575  0.3664  0.0460
  122OSM   C10S12859   3.558   4.065   5.999  0.8377  0.4936 -0.1176
  122OSM   H10S12860   3.666   4.079   5.974  1.3955  2.1938  2.7893
  122OSM   H10T12861   3.500   4.156   5.975 -1.6811 -1.0623 -0.3109
  122OSM   C11S12862   3.493   3.944   5.929  0.5882 -0.5622  0.7168
  122OSM   H11S12863   3.385   3.955   5.953  1.0970  2.7057  2.0842
  122OSM   H11T12864   3.534   3.845   5.958  2.7928  0.4464  1.2516
  122OSM   C12S12865   3.508   3.955   5.780 -0.7188 -0.2663  0.2061
  122OSM   H12S12866   3.499   3.854   5.734  0.6946 -0.4915  0.3609
  122OSM   H12T12867   3.614   3.985   5.768 -1.1593  0.7641 -1.3267
  122OSM   C13S12868   3.422   4.053   5.696  0.1381  0.1797 -0.6914
  122OSM   H13S12869   3.482   4.102   5.617 -0.2405  0.0169 -1.0875
  122OSM   H13T12870   3.370   4.128   5.759 -2.7796  0.1102 -2.8097
  122OSM   C14S12871   3.295   3.982   5.633 -0.5723  0.0151  0.3078
  122OSM   H14S12872   3.243   3.929   5.715 -0.1069 -1.0437 -0.0628
  122OSM   H14T12873   3.327   3.899   5.566 -1.6491  0.6547 -1.0372
  122OSM   C15S12874   3.226   4.092   5.552 -0.0258  0.1637 -0.3637
  122OSM   H15S12875   3.275   4.108   5.454 -0.4131  0.2094 -0.5536
  122OSM   H15T12876   3.215   4.183   5.615 -3.3992 -1.7167  2.0803
  122OSM   C16S12877   3.088   4.040   5.511 -0.5438 -0.2594 -0.2138
  122OSM   H16S12878   3.053   3.984   5.600  0.5083 -0.1742  0.2621
  122OSM   H16T12879   3.107   3.972   5.425 -1.7402  0.3255 -0.9701
  122OSM   C17S12880   2.994   4.154   5.456 -0.2332  0.2695 -0.4970
  122OSM   H17S12881   2.939   4.121   5.365  0.6070 -1.1271 -0.5292
  122OSM   H17T12882   3.049   4.243   5.417  0.9694  0.2331  0.9978
  122OSM   C18S12883   2.895   4.208   5.559 -0.0940  0.1295  0.1655
  122OSM   H18S12884   2.826   4.278   5.506 -2.2901  0.2119  2.9102
  122OSM   H18T12885   2.936   4.260   5.648  1.1938  0.8196 -0.8012
  122OSM   H18U12886   2.829   4.128   5.597 -0.6571 -0.4627 -1.9170
  122OSM    C1F12887   4.091   4.013   6.739  0.3361 -0.2090  0.4283
  122OSM     OF12888   4.094   3.894   6.765  0.3540 -0.4418  0.5416
  122OSM    C2F12889   4.216   4.083   6.687  0.2974  0.4135 -0.3549
  122OSM    H2F12890   4.300   4.011   6.677  1.1521  0.8366  2.5951
  122OSM    H2G12891   4.256   4.153   6.764  1.6250 -1.1421  0.4552
  122OSM    C3F12892   4.185   4.149   6.552 -0.6630 -0.6262  0.0033
  122OSM    H3F12893   4.283   4.184   6.513 -0.3001 -1.0655  0.5007
  122OSM    H3G12894   4.128   4.243   6.571 -0.1325 -0.3080  0.0526
  122OSM    C4F12895   4.117   4.069   6.441 -0.1658  0.1509  0.5350
  122OSM    H4F12896   4.009   4.072   6.466  0.2132 -0.2058  2.3626
  122OSM    H4G12897   4.159   3.967   6.434  1.4992  0.8922 -0.9526
  122OSM    C5F12898   4.136   4.146   6.308  0.1911  0.8074 -0.1748
  122OSM    H5F12899   4.237   4.131   6.266 -0.8387 -2.2805 -1.8540
  122OSM    H5G12900   4.110   4.250   6.338  0.3357  0.8123 -0.0683
  122OSM    C6F12901   4.035   4.107   6.194  0.1682 -0.2488 -0.2514
  122OSM    H6F12902   3.938   4.128   6.244  1.1709  0.6760  1.3783
  122OSM    H6G12903   4.041   4.000   6.164  0.3632 -0.4521  0.4992
  122OSM    C7F12904   4.061   4.187   6.074  0.0809  0.8494  0.9256
  122OSM    H7F12905   4.171   4.182   6.055  0.1285 -1.9114  1.5326
  122OSM    H7G12906   4.039   4.295   6.089 -1.9969  0.6962 -0.6279
  122OSM    C8F12907   3.969   4.145   5.953 -0.7403 -0.0334 -0.3527
  122OSM    H8F12908   3.997   4.204   5.864  0.6496 -0.7447 -0.4284
  122OSM    H8G12909   3.869   4.182   5.982 -0.5624  2.3316 -2.4559
  122OSM    C9F12910   3.971   3.997   5.903  0.1996 -0.4136 -0.3492
  122OSM    H9F12911   3.956   3.926   5.986 -0.9924 -1.2077 -1.2096
  122OSM   C10F12912   3.989   3.956   5.783 -0.4493  0.0416 -0.3192
  122OSM   H10F12913   3.975   3.848   5.769  0.0006 -0.2243  1.0379
  122OSM   C11F12914   4.003   4.027   5.656  0.7958 -0.6598 -0.1236
  122OSM   H11F12915   4.088   3.990   5.595  0.7550 -0.9180 -0.0238
  122OSM   H11G12916   4.022   4.135   5.676  0.6395 -0.4270 -1.1855
  122OSM   C12F12917   3.880   4.018   5.563  0.1115 -0.0443 -0.1419
  122OSM   H12F12918   3.786   4.022   5.622  1.1362 -0.6457  1.5969
  122OSM   H12G12919   3.879   3.907   5.554  1.0305 -0.0872  0.2037
  122OSM   C13F12920   3.896   4.086   5.424 -0.1341  0.3854 -0.5272
  122OSM   H13F12921   3.851   4.026   5.343  1.4314 -1.8364  0.1332
  122OSM   H13G12922   4.000   4.106   5.392 -0.4306  1.1108 -1.0567
  122OSM   C14F12923   3.817   4.218   5.422 -0.5409 -0.0602  0.1187
  122OSM   H14F12924   3.863   4.292   5.490  0.2702  2.8895 -3.3162
  122OSM   H14G12925   3.721   4.189   5.470 -0.7907  0.2908 -0.1643
  122OSM   C15F12926   3.803   4.277   5.284 -0.3623 -0.2609  0.7519
  122OSM   H15F12927   3.752   4.198   5.225  0.1406 -1.2833  1.6444
  122OSM   H15G12928   3.902   4.297   5.238 -1.2618  0.7186 -0.8630
  122OSM   C16F12929   3.708   4.407   5.296  0.4502 -0.1771 -0.6251
  122OSM   H16F12930   3.763   4.494   5.338  3.0196 -1.4156 -1.1743
  122OSM   H16G12931   3.635   4.372   5.372  0.4235  0.0159 -0.5606
  122OSM   C17F12932   3.657   4.458   5.168 -0.4529 -0.3337  0.1923
  122OSM   H17F12933   3.561   4.514   5.177 -1.5980 -2.0275 -0.9278
  122OSM   H17G12934   3.629   4.380   5.094  1.2239 -1.8401  1.0759
  122OSM   C18F12935   3.777   4.545   5.101 -0.2785  0.0965  0.3515
  122OSM   H18F12936   3.766   4.547   4.991 -0.5095 -2.8319  0.2548
  122OSM   H18G12937   3.876   4.498   5.122  0.3346 -0.1254 -2.6128
  122OSM   H18H12938   3.777   4.645   5.150 -1.6608  0.5415 -0.5032
  123OSM      N12939   0.111   6.838   2.505 -0.1299  0.0853  0.0742
  123OSM    C1512940   0.050   6.892   2.377 -0.3157  0.5925  0.0458
  123OSM   H15A12941  -0.008   6.980   2.402  1.5414  1.6703  0.7742
  123OSM   H15B12942  -0.016   6.823   2.326 -0.0951  1.6344 -1.7250
  123OSM   H15C12943   0.132   6.931   2.320  1.8786 -1.7322  1.4296
  123OSM    C1412944   0.196   6.718   2.471 -0.9423 -0.2107 -0.0624
  123OSM   H14A12945   0.133   6.631   2.465 -1.6611  0.2230  0.8925
  123OSM   H14B12946   0.266   6.701   2.551 -2.2196 -0.0986  1.1211
  123OSM   H14C12947   0.258   6.723   2.383  0.6887 -0.1491  1.0480
  123OSM    C1312948   0.188   6.950   2.557 -0.2572 -0.3940 -0.3629
  123OSM   H13A12949   0.234   6.922   2.650 -0.1195  1.1539  0.0511
  123OSM   H13B12950   0.131   7.039   2.580 -0.3154 -0.1678 -1.3211
  123OSM   H13C12951   0.264   6.987   2.490  0.7248  0.2873  1.0994
  123OSM    C1212952  -0.002   6.801   2.599  0.0119  0.2405  0.0394
  123OSM   H12A12953  -0.047   6.709   2.564 -1.8393  1.2077 -0.2216
  123OSM   H12B12954  -0.086   6.867   2.588 -0.4000 -0.4892 -1.5506
  123OSM    C1112955   0.035   6.769   2.746  0.2533 -0.1028  0.1031
  123OSM   H11A12956  -0.061   6.760   2.802  0.8107 -1.8302  0.8436
  123OSM   H11B12957   0.094   6.851   2.794 -0.6793  0.9926 -0.5656
  123OSM      P12958   0.025   6.502   2.761  0.5447 -0.2655  0.1341
  123OSM    O1312959  -0.099   6.495   2.678  0.2375 -0.4105 -0.2215
  123OSM    O1412960   0.122   6.395   2.738  0.0858 -0.0023  0.5194
  123OSM    O1112961  -0.018   6.505   2.914  0.3824 -0.1572 -0.3556
  123OSM    O1212962   0.094   6.639   2.751 -0.0480 -0.0709 -0.2408
  123OSM    C1S12963   0.074   6.539   3.012  0.0475 -1.0547  0.3552
  123OSM    H1S12964   0.090   6.648   3.018  1.6805 -0.9937 -2.9334
  123OSM    H1T12965   0.168   6.481   2.998 -0.7488 -2.3108 -0.0421
  123OSM     NF12966   0.133   6.540   3.245 -0.0906  0.0119 -0.0811
  123OSM    HNF12967   0.200   6.479   3.288  0.3035  1.2343  1.1331
  123OSM    C2S12968   0.032   6.490   3.156 -0.2189 -0.1446 -0.4817
  123OSM    H2S12969  -0.065   6.540   3.177  1.3624  2.0105  2.3547
  123OSM    C3S12970  -0.001   6.349   3.156  0.0027  0.4204  0.7651
  123OSM    H3S12971   0.085   6.282   3.130 -1.8039 -1.5614 -0.4096
  123OSM     O312972  -0.095   6.304   3.056 -0.0368  0.1911 -0.1636
  123OSM    HO312973  -0.087   6.375   2.992 -0.4509 -0.0339 -0.4714
  123OSM    C4S12974  -0.031   6.300   3.296  0.1071 -0.2640  0.2756
  123OSM    H4S12975   0.057   6.268   3.353 -0.1615 -0.2550  0.6992
  123OSM    C5S12976  -0.151   6.291   3.347  0.1263 -0.1188 -0.1620
  123OSM    H5S12977  -0.239   6.301   3.282 -1.5257 -2.8784  1.4174
  123OSM    C6S12978  -0.178   6.216   3.481  0.0254 -0.6255 -0.9148
  123OSM    H6S12979  -0.086   6.165   3.517  0.5894  0.4544 -0.7526
  123OSM    H6T12980  -0.257   6.140   3.466  0.2099 -1.2551  1.0269
  123OSM    C7S12981  -0.216   6.306   3.600 -0.0976 -1.1602 -0.7929
  123OSM    H7S12982  -0.302   6.374   3.581 -0.3126 -0.7532  1.4324
  123OSM    H7T12983  -0.137   6.379   3.626 -0.2877 -1.2170 -0.0460
  123OSM    C8S12984  -0.245   6.233   3.731 -0.1995  0.3286  0.0805
  123OSM    H8S12985  -0.155   6.168   3.737  0.0488  0.5830 -0.7818
  123OSM    H8T12986  -0.331   6.163   3.732 -1.6946  2.0312  2.1349
  123OSM    C9S12987  -0.248   6.330   3.843 -0.5782 -0.0134 -0.3803
  123OSM    H9S12988  -0.346   6.383   3.849 -1.3028 -1.4400  1.3236
  123OSM    H9T12989  -0.166   6.401   3.865 -1.6311  0.7260  1.4757
  123OSM   C10S12990  -0.235   6.255   3.977 -1.1130 -0.1931 -0.6363
  123OSM   H10S12991  -0.134   6.208   3.978 -0.1207  1.8142  0.8627
  123OSM   H10T12992  -0.309   6.173   3.986 -1.0491 -0.0403  2.6140
  123OSM   C11S12993  -0.246   6.346   4.099  1.0709 -0.3658 -0.0140
  123OSM   H11S12994  -0.338   6.406   4.082  1.2385 -0.4796 -1.4144
  123OSM   H11T12995  -0.156   6.410   4.105  1.2464 -0.5866 -0.2397
  123OSM   C12S12996  -0.265   6.268   4.229  0.3986 -0.9290 -0.4233
  123OSM   H12S12997  -0.182   6.201   4.259 -0.9695 -2.6397 -0.3113
  123OSM   H12T12998  -0.353   6.202   4.213  1.4708 -2.4736 -0.1090
  123OSM   C13S12999  -0.309   6.374   4.338 -0.6233 -0.0923  0.7172
  123OSM   H13S13000  -0.403   6.428   4.313 -0.3698 -0.5538 -1.4194
  123OSM   H13T13001  -0.230   6.452   4.336 -0.0280 -0.6938 -0.4723
  123OSM   C14S13002  -0.324   6.318   4.481  1.2383 -0.0784 -0.0444
  123OSM   H14S13003  -0.325   6.208   4.466  1.1725  0.0034 -0.6455
  123OSM   H14T13004  -0.424   6.353   4.514 -0.4603 -2.6028 -2.0688
  123OSM   C15S13005  -0.201   6.349   4.571  0.3888  0.3717 -0.0237
  123OSM   H15S13006  -0.174   6.457   4.567 -0.5209  0.5959 -0.1780
  123OSM   H15T13007  -0.118   6.297   4.519 -2.6491 -2.2764 -2.6963
  123OSM   C16S13008  -0.213   6.301   4.713 -1.1296  0.0642 -0.2271
  123OSM   H16S13009  -0.256   6.199   4.722 -1.1361  0.1785  1.3806
  123OSM   H16T13010  -0.288   6.371   4.755 -1.9403 -0.5373 -0.6526
  123OSM   C17S13011  -0.084   6.321   4.795  0.0700  0.2627 -0.5809
  123OSM   H17S13012  -0.047   6.425   4.779  1.3902 -0.0254  0.3597
  123OSM   H17T13013  -0.008   6.247   4.761  0.0628  0.4057 -0.9080
  123OSM   C18S13014  -0.107   6.281   4.943  0.0113  0.1753  0.0410
  123OSM   H18S13015  -0.174   6.192   4.948 -0.4438  0.4937 -0.2823
  123OSM   H18T13016  -0.139   6.370   5.002  1.2613  1.5167 -1.2194
  123OSM   H18U13017  -0.007   6.253   4.982 -0.8694 -1.4157  1.2641
  123OSM    C1F13018   0.161   6.668   3.270 -0.0430  0.6083 -0.1758
  123OSM     OF13019   0.073   6.750   3.241 -0.0794 -0.3030 -0.0353
  123OSM    C2F13020   0.291   6.715   3.337  0.1083 -0.7577  1.1715
  123OSM    H2F13021   0.368   6.640   3.308  1.7229  0.8353  1.1218
  123OSM    H2G13022   0.272   6.700   3.446 -1.7238  1.1531  1.1731
  123OSM    C3F13023   0.336   6.861   3.310  1.1933  0.4071 -0.4086
  123OSM    H3F13024   0.254   6.936   3.303 -1.6484 -1.8073  4.2061
  123OSM    H3G13025   0.380   6.857   3.208 -0.6239 -2.4345 -1.2057
  123OSM    C4F13026   0.443   6.910   3.405 -0.2066 -0.0198  0.8349
  123OSM    H4F13027   0.471   7.009   3.364 -2.3444  1.0585  1.8169
  123OSM    H4G13028   0.526   6.835   3.406  0.4476  0.6329 -0.9556
  123OSM    C5F13029   0.375   6.934   3.545 -0.1672  0.6575 -0.6195
  123OSM    H5F13030   0.266   6.917   3.548 -0.1425 -0.1108  4.6122
  123OSM    H5G13031   0.395   7.042   3.563  3.1084  0.4562 -2.1722
  123OSM    C6F13032   0.449   6.850   3.652  1.0041  0.0439  0.0960
  123OSM    H6F13033   0.552   6.891   3.655  1.9078 -2.1452  0.3352
  123OSM    H6G13034   0.460   6.742   3.629  0.1026  0.1079 -0.6653
  123OSM    C7F13035   0.386   6.873   3.789 -0.0770  0.4121  1.1552
  123OSM    H7F13036   0.290   6.817   3.792 -0.1632  0.4706  0.0338
  123OSM    H7G13037   0.370   6.983   3.794  2.3744  0.8254  1.4909
  123OSM    C8F13038   0.467   6.824   3.904 -0.1280  0.5204  0.0312
  123OSM    H8F13039   0.558   6.887   3.914 -0.6470  1.2010  0.6409
  123OSM    H8G13040   0.493   6.718   3.883  0.3948  0.9092 -1.3580
  123OSM    C9F13041   0.395   6.823   4.033  0.2743  0.2671  0.3655
  123OSM    H9F13042   0.330   6.736   4.052 -2.1770  1.3201 -2.2556
  123OSM   C10F13043   0.401   6.915   4.131 -0.2709  0.0273  0.2103
  123OSM   H10F13044   0.342   6.892   4.221  1.6688  0.7182  1.7249
  123OSM   C11F13045   0.506   7.026   4.145 -1.0860 -0.2198 -0.6170
  123OSM   H11F13046   0.469   7.130   4.159  4.4085  2.2658 -1.5057
  123OSM   H11G13047   0.566   7.032   4.052  0.1499 -0.3241  0.1472
  123OSM   C12F13048   0.603   6.994   4.263 -0.5461  0.1543 -0.3716
  123OSM   H12F13049   0.673   7.081   4.268  0.2212 -0.5238  1.8970
  123OSM   H12G13050   0.656   6.899   4.244  0.7199  0.1104  2.7859
  123OSM   C13F13051   0.536   6.990   4.398 -0.0117  0.3693  0.1328
  123OSM   H13F13052   0.464   6.907   4.412 -0.9737  1.1794  0.0704
  123OSM   H13G13053   0.463   7.072   4.415 -0.7199 -0.5457  1.6845
  123OSM   C14F13054   0.626   6.989   4.522  0.1167  0.0768  0.0587
  123OSM   H14F13055   0.701   6.907   4.531  0.0201 -0.3768 -2.4357
  123OSM   H14G13056   0.567   6.984   4.616 -1.3073 -2.2877 -0.8561
  123OSM   C15F13057   0.714   7.121   4.527 -0.2281  0.2951  0.5937
  123OSM   H15F13058   0.647   7.206   4.504  0.8855  1.1083  0.2670
  123OSM   H15G13059   0.792   7.115   4.448  0.0855  2.2539  0.7010
  123OSM   C16F13060   0.800   7.153   4.656  0.7861 -0.3961 -0.0035
  123OSM   H16F13061   0.863   7.239   4.624 -1.4992  1.7405  0.8905
  123OSM   H16G13062   0.860   7.062   4.679 -0.8262 -2.6934 -3.9797
  123OSM   C17F13063   0.709   7.200   4.776  0.0136 -0.3164 -0.0610
  123OSM   H17F13064   0.647   7.111   4.800 -0.5836 -0.1631 -1.0186
  123OSM   H17G13065   0.636   7.279   4.748 -1.4427 -2.1912 -1.7939
  123OSM   C18F13066   0.793   7.252   4.895  0.6090 -0.1686 -0.4749
  123OSM   H18F13067   0.733   7.253   4.988  0.4814  0.5448 -0.5571
  123OSM   H18G13068   0.849   7.346   4.876 -1.8446  1.5379  0.3379
  123OSM   H18H13069   0.874   7.181   4.922 -1.6581 -2.1525  1.4899
  124OSM      N13070   4.606   0.984   2.889 -0.3692  0.1115 -0.7281
  124OSM    C1513071   4.632   0.945   2.753 -0.5993  0.0602  0.6386
  124OSM   H15A13072   4.638   0.837   2.749  1.6278  0.1589 -2.4556
  124OSM   H15B13073   4.717   0.988   2.702 -1.0987  0.7921  0.4217
  124OSM   H15C13074   4.556   0.981   2.687  0.6948  1.2367 -0.2564
  124OSM    C1413075   4.583   1.135   2.891 -0.4519 -0.2320 -0.2878
  124OSM   H14A13076   4.668   1.193   2.857 -1.3499  0.7717 -0.8774
  124OSM   H14B13077   4.566   1.158   2.995  0.2875 -1.6980  0.1956
  124OSM   H14C13078   4.498   1.160   2.829  0.2149 -1.4998 -1.7842
  124OSM    C1313079   4.482   0.919   2.933  0.0270 -0.6088  0.3271
  124OSM   H13A13080   4.479   0.813   2.912  1.6305 -0.8664  1.1794
  124OSM   H13B13081   4.398   0.939   2.869 -0.3285 -0.0192  0.9569
  124OSM   H13C13082   4.466   0.933   3.039 -1.2751  1.3693 -0.0848
  124OSM    C1213083   4.712   0.944   2.987  0.2933  0.5397 -0.1322
  124OSM   H12A13084   4.732   0.838   2.979  0.0807  0.4627  0.3291
  124OSM   H12B13085   4.672   0.950   3.087 -0.3116 -3.3988  0.0232
  124OSM    C1113086   4.846   1.017   2.977 -0.2458 -0.4637 -0.1342
  124OSM   H11A13087   4.908   0.989   3.065  0.2671  0.8750 -0.0406
  124OSM   H11B13088   4.837   1.128   2.980 -1.3065 -0.5432  0.5864
  124OSM      P13089   5.007   0.862   2.834 -0.4227  0.1221 -0.1488
  124OSM    O1313090   4.961   0.756   2.920 -0.0549 -0.4838 -0.3221
  124OSM    O1413091   5.015   0.835   2.689 -0.4945 -0.5580 -0.1530
  124OSM    O1113092   5.144   0.910   2.887 -0.0736 -0.5657 -0.4861
  124OSM    O1213093   4.916   0.990   2.855 -0.1557  0.0677 -0.0093
  124OSM    C1S13094   5.166   1.048   2.924  0.8880 -0.2127 -0.5523
  124OSM    H1S13095   5.093   1.121   2.885  1.8751  0.1086 -1.8352
  124OSM    H1T13096   5.259   1.066   2.867  1.4707 -0.5479  0.2625
  124OSM     NF13097   5.248   1.207   3.079  0.4755 -0.6515  0.6188
  124OSM    HNF13098   5.345   1.226   3.066 -0.1228  0.7933 -2.7914
  124OSM    C2S13099   5.197   1.080   3.071  0.2842  0.4901  0.1347
  124OSM    H2S13100   5.110   1.060   3.136  0.7996 -2.1875  0.1208
  124OSM    C3S13101   5.282   0.959   3.133  0.1210 -1.0442  0.4515
  124OSM    H3S13102   5.373   0.953   3.070  0.4548  0.9409  0.6786
  124OSM     O313103   5.215   0.834   3.129  0.1528  0.0814 -0.1537
  124OSM    HO313104   5.166   0.845   3.047 -0.5246 -1.4417  0.0203
  124OSM    C4S13105   5.336   0.998   3.271 -0.7626 -0.7668 -0.5007
  124OSM    H4S13106   5.434   1.048   3.277  0.1914 -2.6940  3.6633
  124OSM    C5S13107   5.271   0.966   3.384 -0.0568  0.2246  0.1427
  124OSM    H5S13108   5.171   0.920   3.389 -0.5392  1.3376  1.2775
  124OSM    C6S13109   5.322   1.007   3.519 -0.4166  0.2453 -0.0271
  124OSM    H6S13110   5.408   0.938   3.538 -1.4572 -0.3860  2.8581
  124OSM    H6T13111   5.256   0.979   3.604 -0.4629 -0.6218 -0.3396
  124OSM    C7S13112   5.365   1.149   3.530 -0.4059 -0.5814 -0.7835
  124OSM    H7S13113   5.276   1.213   3.510 -0.4242  0.4198  2.0260
  124OSM    H7T13114   5.449   1.185   3.466 -0.4935 -0.4315 -0.8155
  124OSM    C8S13115   5.395   1.189   3.677 -0.4599  0.0181 -0.1215
  124OSM    H8S13116   5.496   1.150   3.702  1.1974  3.8456 -0.1178
  124OSM    H8T13117   5.323   1.138   3.744  0.0356  0.1948  0.5618
  124OSM    C9S13118   5.392   1.344   3.702 -0.6757 -0.1033 -0.3625
  124OSM    H9S13119   5.289   1.386   3.700 -0.3080  0.7897 -1.0249
  124OSM    H9T13120   5.458   1.381   3.621  0.7541 -1.5438  0.0946
  124OSM   C10S13121   5.468   1.372   3.829  0.0465  0.6708 -0.0862
  124OSM   H10S13122   5.576   1.345   3.823 -0.0720  0.3648 -1.1507
  124OSM   H10T13123   5.432   1.309   3.913  2.3345  0.6583  0.9663
  124OSM   C11S13124   5.461   1.518   3.865 -1.0675  0.1281 -0.5507
  124OSM   H11S13125   5.358   1.555   3.881 -1.4065 -1.3877  1.1412
  124OSM   H11T13126   5.520   1.584   3.798  0.9570  0.3503  1.3075
  124OSM   C12S13127   5.535   1.527   4.003  0.1817 -0.1592  0.1908
  124OSM   H12S13128   5.534   1.632   4.040 -0.4870  0.4408 -1.4328
  124OSM   H12T13129   5.640   1.497   3.983  1.3469  1.7989  2.7774
  124OSM   C13S13130   5.483   1.432   4.113  0.4100 -0.6162  0.0493
  124OSM   H13S13131   5.480   1.322   4.100  1.5822 -0.7227  0.5760
  124OSM   H13T13132   5.388   1.482   4.142 -0.0548 -1.5433  0.1636
  124OSM   C14S13133   5.568   1.449   4.240  0.5582 -0.1339 -0.0097
  124OSM   H14S13134   5.605   1.554   4.248 -0.6032  0.5064 -2.0675
  124OSM   H14T13135   5.654   1.380   4.228  0.8805  0.2957 -0.2408
  124OSM   C15S13136   5.486   1.402   4.362 -0.9330 -0.2067  0.0780
  124OSM   H15S13137   5.439   1.309   4.326  0.2852 -0.0039 -2.2325
  124OSM   H15T13138   5.407   1.474   4.390 -0.8652  0.3402 -1.0877
  124OSM   C16S13139   5.565   1.388   4.497  0.6140  0.2820 -0.0652
  124OSM   H16S13140   5.616   1.483   4.527 -0.3564 -0.0434  2.9793
  124OSM   H16T13141   5.654   1.324   4.480  2.2319  1.4325  3.0950
  124OSM   C17S13142   5.473   1.328   4.601 -0.5797 -1.3098 -0.6384
  124OSM   H17S13143   5.444   1.226   4.567  1.7545 -1.4364 -2.5071
  124OSM   H17T13144   5.378   1.385   4.608  0.0519 -0.1606 -1.0958
  124OSM   C18S13145   5.547   1.317   4.736 -0.6426  0.4201  0.5611
  124OSM   H18S13146   5.597   1.408   4.776  1.2547  0.0485 -0.8312
  124OSM   H18T13147   5.626   1.244   4.708  0.0521  1.6562 -0.8764
  124OSM   H18U13148   5.477   1.270   4.808  1.4201 -1.4213  1.4899
  124OSM    C1F13149   5.167   1.313   3.079 -0.0700 -0.1995 -0.5849
  124OSM     OF13150   5.047   1.305   3.074 -0.0781  0.4822 -0.1253
  124OSM    C2F13151   5.239   1.453   3.079  0.1418  1.0259 -0.1060
  124OSM    H2F13152   5.241   1.496   2.977  3.7375 -2.9442 -2.0442
  124OSM    H2G13153   5.340   1.428   3.115 -0.4286 -1.2736  0.0646
  124OSM    C3F13154   5.164   1.551   3.170 -0.2969  0.1543 -0.6506
  124OSM    H3F13155   5.057   1.555   3.138 -0.7983 -0.8432  0.7992
  124OSM    H3G13156   5.194   1.657   3.180 -0.7427  0.0639  2.8812
  124OSM    C4F13157   5.150   1.491   3.314 -0.3445  0.3647  0.2107
  124OSM    H4F13158   5.099   1.393   3.321  1.3030 -0.4954  0.8125
  124OSM    H4G13159   5.075   1.558   3.362 -1.1265 -0.2774 -0.1000
  124OSM    C5F13160   5.291   1.485   3.382  0.5714 -0.4793  0.5314
  124OSM    H5F13161   5.348   1.403   3.332 -1.8871 -1.6295 -0.5477
  124OSM    H5G13162   5.278   1.449   3.486  0.9300  0.0853  0.7772
  124OSM    C6F13163   5.369   1.614   3.379 -0.0973 -0.1735  0.0084
  124OSM    H6F13164   5.291   1.692   3.390  1.7467  1.7015  0.3040
  124OSM    H6G13165   5.420   1.633   3.281 -0.3777  1.4937  0.1569
  124OSM    C7F13166   5.465   1.641   3.497 -0.1405  0.8088  0.2060
  124OSM    H7F13167   5.546   1.568   3.476 -0.6089 -0.1965  1.7716
  124OSM    H7G13168   5.403   1.604   3.581 -1.2992 -3.0033 -2.0874
  124OSM    C8F13169   5.535   1.773   3.506  0.0834 -0.2572  0.0928
  124OSM    H8F13170   5.598   1.800   3.418  0.0568 -1.7835 -0.4206
  124OSM    H8G13171   5.614   1.767   3.584  2.3108  1.1443 -1.9025
  124OSM    C9F13172   5.430   1.879   3.518 -0.0557  0.1422 -0.7094
  124OSM    H9F13173   5.382   1.903   3.422  0.3017  1.6437 -0.5436
  124OSM   C10F13174   5.391   1.955   3.628 -0.3883  0.0021 -0.7989
  124OSM   H10F13175   5.308   2.027   3.616  0.9077  1.4012 -1.8013
  124OSM   C11F13176   5.445   1.948   3.770 -0.6220 -0.5209  0.4511
  124OSM   H11F13177   5.487   2.046   3.801  4.2139 -1.9978 -0.5595
  124OSM   H11G13178   5.537   1.887   3.779 -1.0830 -1.4516 -0.8050
  124OSM   C12F13179   5.347   1.890   3.861 -0.0044  1.0225 -0.2343
  124OSM   H12F13180   5.336   1.781   3.842 -0.4743  0.1716  4.0128
  124OSM   H12G13181   5.250   1.945   3.855 -0.5919 -0.1418 -3.1761
  124OSM   C13F13182   5.388   1.878   4.010  0.3963  0.0162  0.4310
  124OSM   H13F13183   5.416   1.980   4.044  0.3106  0.2490 -0.1779
  124OSM   H13G13184   5.478   1.813   4.015  1.3864  1.3126  0.1059
  124OSM   C14F13185   5.287   1.833   4.103 -0.2748  0.2603  0.3323
  124OSM   H14F13186   5.236   1.739   4.072  1.3609 -0.4169 -0.4059
  124OSM   H14G13187   5.199   1.901   4.096  0.4031  1.0396 -1.1024
  124OSM   C15F13188   5.333   1.821   4.249  0.2135 -0.7632 -0.0723
  124OSM   H15F13189   5.413   1.898   4.252  1.5444 -2.0976  0.2863
  124OSM   H15G13190   5.375   1.719   4.266 -0.5809 -0.9603  0.7877
  124OSM   C16F13191   5.219   1.853   4.347  0.8192 -0.5920 -0.4992
  124OSM   H16F13192   5.148   1.768   4.339  1.6279 -1.2608 -0.7159
  124OSM   H16G13193   5.174   1.951   4.322 -0.2377 -0.5107  1.5253
  124OSM   C17F13194   5.266   1.857   4.497 -0.2755  0.2421  0.3120
  124OSM   H17F13195   5.343   1.937   4.508 -0.2204  0.4011 -1.0491
  124OSM   H17G13196   5.318   1.764   4.528 -1.6048 -0.2389  1.1802
  124OSM   C18F13197   5.153   1.863   4.599 -0.1905  0.1297  0.7506
  124OSM   H18F13198   5.073   1.788   4.580 -1.7160  2.1883 -1.6634
  124OSM   H18G13199   5.098   1.960   4.590 -1.2954 -0.2361  2.9067
  124OSM   H18H13200   5.194   1.857   4.701  2.0467  0.5228 -0.0726
  125OSM      N13201   4.672   5.565   2.429  0.0677  0.1212  0.2444
  125OSM    C1513202   4.581   5.452   2.465  0.0095 -0.0251 -0.3552
  125OSM   H15A13203   4.496   5.452   2.398 -0.3082 -2.1436 -0.0292
  125OSM   H15B13204   4.540   5.463   2.565  1.1285  0.3995  0.0768
  125OSM   H15C13205   4.638   5.361   2.456 -1.6047 -0.9982 -1.1645
  125OSM    C1413206   4.723   5.553   2.291 -0.1335  0.1876 -0.6861
  125OSM   H14A13207   4.796   5.474   2.278 -1.8245 -1.1817 -2.3750
  125OSM   H14B13208   4.771   5.646   2.262 -1.7809  0.7155 -1.8805
  125OSM   H14C13209   4.646   5.530   2.219  1.0292 -2.3221 -1.2517
  125OSM    C1313210   4.596   5.694   2.438  0.4655 -0.1271  0.2891
  125OSM   H13A13211   4.652   5.780   2.403 -3.2662  2.5272  0.1666
  125OSM   H13B13212   4.573   5.714   2.541 -2.9495 -2.8916  0.2537
  125OSM   H13C13213   4.496   5.690   2.397  0.6286  2.7137 -0.6096
  125OSM    C1213214   4.796   5.576   2.519 -0.7996  0.3658  0.3629
  125OSM   H12A13215   4.769   5.608   2.618  0.2386 -1.1317  1.1742
  125OSM   H12B13216   4.863   5.647   2.474 -0.6167 -0.7211 -1.1873
  125OSM    C1113217   4.877   5.453   2.541  0.6283  0.3902 -0.4202
  125OSM   H11A13218   4.976   5.486   2.580  0.0412 -1.2075  2.7273
  125OSM   H11B13219   4.899   5.414   2.440  1.5730 -0.2978  0.0344
  125OSM      P13220   4.808   5.372   2.781 -0.3257 -0.1037 -0.0853
  125OSM    O1313221   4.733   5.495   2.813 -0.0025 -0.2189 -0.1274
  125OSM    O1413222   4.763   5.236   2.831 -0.5703 -0.5815 -0.3213
  125OSM    O1113223   4.961   5.392   2.816 -0.7457  0.4817 -0.4447
  125OSM    O1213224   4.808   5.364   2.626  0.0500 -1.3472  0.0987
  125OSM    C1S13225   5.013   5.479   2.915  0.7748 -0.5994  0.1514
  125OSM    H1S13226   4.937   5.556   2.943  0.4751 -1.1298  0.8128
  125OSM    H1T13227   5.102   5.535   2.881 -0.1795  0.5725 -0.5221
  125OSM     NF13228   5.088   5.492   3.160  0.0388 -0.7817 -0.3743
  125OSM    HNF13229   5.179   5.487   3.198 -0.4622  0.2861  1.0300
  125OSM    C2S13230   5.047   5.404   3.044 -0.4451  0.3760  0.2198
  125OSM    H2S13231   4.957   5.355   3.089  0.4655 -0.3721  1.2891
  125OSM    C3S13232   5.150   5.296   3.014  0.4397  0.3378  0.2584
  125OSM    H3S13233   5.244   5.344   2.979 -0.9557  1.5002 -2.1800
  125OSM     O313234   5.119   5.196   2.917  0.3608  0.5305  0.3208
  125OSM    HO313235   5.030   5.213   2.884  0.6961 -0.0160 -0.9250
  125OSM    C4S13236   5.187   5.228   3.144  0.6394  0.7606  0.4538
  125OSM    H4S13237   5.257   5.280   3.210 -0.4618  3.8182 -0.6337
  125OSM    C5S13238   5.109   5.136   3.196 -0.3615  0.1965 -0.0987
  125OSM    H5S13239   5.018   5.105   3.144 -2.1466  2.0198  1.7213
  125OSM    C6S13240   5.142   5.066   3.326  0.1501 -0.3151 -0.9446
  125OSM    H6S13241   5.231   5.001   3.317  1.1375  0.8099  0.1734
  125OSM    H6T13242   5.058   5.003   3.362  0.9064  0.3421  2.3237
  125OSM    C7S13243   5.151   5.165   3.448 -0.5041 -0.8642  0.1163
  125OSM    H7S13244   5.078   5.250   3.444  1.3618  0.9044  1.4845
  125OSM    H7T13245   5.247   5.221   3.449 -0.9313  0.0294 -2.1284
  125OSM    C8S13246   5.125   5.091   3.580  0.2618 -0.0929 -0.2655
  125OSM    H8S13247   5.167   5.146   3.667  0.6388 -1.3873  0.4048
  125OSM    H8T13248   5.186   4.999   3.582 -1.6189 -1.4371  2.7004
  125OSM    C9S13249   4.979   5.053   3.606 -0.2545 -0.5262  0.5321
  125OSM    H9S13250   4.943   4.966   3.546 -2.3857  1.9047 -2.0158
  125OSM    H9T13251   4.923   5.141   3.570  1.7384  0.2134 -0.9787
  125OSM   C10S13252   4.956   5.034   3.754 -0.5795 -0.6788 -0.0445
  125OSM   H10S13253   4.848   5.053   3.773 -0.3575 -0.3855  0.9896
  125OSM   H10T13254   5.023   5.107   3.805 -2.2802 -0.4991  2.0777
  125OSM   C11S13255   5.005   4.890   3.800 -0.0450 -0.1125  0.3272
  125OSM   H11S13256   5.094   4.857   3.743 -0.6491 -1.3292  0.0658
  125OSM   H11T13257   4.924   4.817   3.778 -2.3622  2.2860  0.2913
  125OSM   C12S13258   5.033   4.877   3.955 -0.2929  0.2916  0.0213
  125OSM   H12S13259   4.939   4.906   4.008 -1.7207 -2.6650 -0.6835
  125OSM   H12T13260   5.108   4.951   3.990 -0.3440 -0.3002  1.4436
  125OSM   C13S13261   5.090   4.745   3.992  0.2704 -0.3974  0.2295
  125OSM   H13S13262   5.188   4.738   3.940  1.2357 -1.9442  2.1292
  125OSM   H13T13263   5.027   4.664   3.949 -0.5704 -1.4037  3.1298
  125OSM   C14S13264   5.100   4.730   4.140 -1.3238  0.8207  0.6434
  125OSM   H14S13265   5.124   4.622   4.155  0.6930  1.0756 -0.4262
  125OSM   H14T13266   4.996   4.751   4.176 -2.0717 -1.1254 -0.2231
  125OSM   C15S13267   5.204   4.819   4.208 -0.3641  0.1212  0.4177
  125OSM   H15S13268   5.162   4.921   4.201 -0.8352 -0.1771 -1.8906
  125OSM   H15T13269   5.298   4.825   4.149 -0.1141  0.4599  0.8483
  125OSM   C16S13270   5.235   4.787   4.354  0.0368 -0.2227  0.1065
  125OSM   H16S13271   5.290   4.691   4.360  2.4751  1.0434 -0.7802
  125OSM   H16T13272   5.142   4.767   4.410 -0.1764 -0.4888 -0.3403
  125OSM   C17S13273   5.323   4.899   4.407  0.1725  0.0328 -0.1097
  125OSM   H17S13274   5.260   4.989   4.420 -0.0711 -0.1755  0.1657
  125OSM   H17T13275   5.396   4.912   4.324 -0.6069  2.3984 -0.4904
  125OSM   C18S13276   5.403   4.880   4.535  0.5756 -0.3641  0.6915
  125OSM   H18S13277   5.336   4.887   4.623 -0.6323 -0.7977 -0.1764
  125OSM   H18T13278   5.478   4.962   4.545 -0.3000  0.8155 -1.6070
  125OSM   H18U13279   5.464   4.787   4.534 -1.7490 -1.9895 -1.4324
  125OSM    C1F13280   4.991   5.578   3.208  0.4497 -0.3421  0.2161
  125OSM     OF13281   4.876   5.571   3.175 -0.0866 -0.2138  0.3579
  125OSM    C2F13282   5.037   5.689   3.291  0.3652 -0.5528  0.0650
  125OSM    H2F13283   5.028   5.772   3.218  1.0916 -0.6989 -0.2057
  125OSM    H2G13284   5.146   5.682   3.311  0.5759  1.9737  0.1288
  125OSM    C3F13285   4.958   5.711   3.421  0.3841 -0.7420 -0.4078
  125OSM    H3F13286   4.848   5.698   3.415  0.4163 -0.6211 -1.6004
  125OSM    H3G13287   4.970   5.816   3.455  0.3768 -0.9954  0.3844
  125OSM    C4F13288   5.008   5.632   3.539 -0.0954  0.3896 -0.2975
  125OSM    H4F13289   5.112   5.671   3.546 -0.3376  1.4044 -2.0165
  125OSM    H4G13290   5.014   5.526   3.506  0.3612  1.0859 -2.5740
  125OSM    C5F13291   4.936   5.651   3.673  0.5042  0.4480  0.5838
  125OSM    H5F13292   4.825   5.650   3.669  0.4617  3.0137 -1.0610
  125OSM    H5G13293   4.964   5.758   3.688  1.1832  0.3438  0.0813
  125OSM    C6F13294   5.006   5.567   3.779 -0.2934 -0.2115 -0.0507
  125OSM    H6F13295   4.980   5.608   3.879  1.6778  1.3645 -0.1112
  125OSM    H6G13296   5.114   5.591   3.772 -0.2440 -0.2288  0.5925
  125OSM    C7F13297   4.981   5.414   3.789 -0.1940 -0.4204  0.0903
  125OSM    H7F13298   5.042   5.358   3.863  0.0091  0.6528  0.7535
  125OSM    H7G13299   5.001   5.363   3.692 -0.0250 -1.8634  0.8522
  125OSM    C8F13300   4.830   5.388   3.822  0.1888  0.0900 -0.6232
  125OSM    H8F13301   4.818   5.278   3.837  1.5928 -0.3736 -2.5238
  125OSM    H8G13302   4.777   5.412   3.728 -0.6546 -1.5247 -0.6092
  125OSM    C9F13303   4.762   5.453   3.943 -0.1651  0.1438 -0.3429
  125OSM    H9F13304   4.804   5.554   3.951  1.9591 -0.6591 -0.7525
  125OSM   C10F13305   4.658   5.415   4.025 -0.8336  0.7717  0.1438
  125OSM   H10F13306   4.631   5.476   4.113 -2.7353 -0.7612  0.6774
  125OSM   C11F13307   4.600   5.274   4.022 -0.2902  0.1309  0.1772
  125OSM   H11F13308   4.576   5.245   3.917  1.1174  0.4633 -0.2546
  125OSM   H11G13309   4.503   5.281   4.074  0.3036 -0.0886  1.3432
  125OSM   C12F13310   4.693   5.169   4.096 -0.2172  1.2089  0.4063
  125OSM   H12F13311   4.796   5.163   4.055  1.6543 -2.6300  4.7672
  125OSM   H12G13312   4.642   5.071   4.094 -1.2568  1.7173  1.0344
  125OSM   C13F13313   4.711   5.181   4.250 -0.6781  0.2348 -0.2622
  125OSM   H13F13314   4.618   5.149   4.303  0.7374 -2.3430  0.8015
  125OSM   H13G13315   4.724   5.289   4.274 -0.0142 -0.2236  1.6193
  125OSM   C14F13316   4.840   5.116   4.303 -0.4176  0.6278  0.4066
  125OSM   H14F13317   4.927   5.161   4.250  0.4982  0.0508  1.3677
  125OSM   H14G13318   4.841   5.008   4.274 -0.0296  0.9095 -0.6727
  125OSM   C15F13319   4.857   5.126   4.444  0.5607  0.2039  0.5685
  125OSM   H15F13320   4.772   5.082   4.501  0.5040  0.5600  0.7594
  125OSM   H15G13321   4.862   5.230   4.481  1.8585  0.3679 -0.0280
  125OSM   C16F13322   4.986   5.048   4.483  0.4320  0.2340  0.4460
  125OSM   H16F13323   5.065   5.065   4.407 -2.0723  1.5094 -2.0534
  125OSM   H16G13324   4.959   4.940   4.477  2.8342 -0.5333  1.9273
  125OSM   C17F13325   5.037   5.092   4.624  0.1359  0.4756  0.4150
  125OSM   H17F13326   5.131   5.033   4.633 -0.4398 -0.7311 -0.9702
  125OSM   H17G13327   4.964   5.072   4.705  2.0496 -0.7504  1.9214
  125OSM   C18F13328   5.069   5.241   4.632  0.0908 -0.2047  0.4018
  125OSM   H18F13329   5.151   5.259   4.559  1.2050  0.5912  1.7856
  125OSM   H18G13330   5.122   5.285   4.719 -0.1069  2.8934 -0.9177
  125OSM   H18H13331   4.982   5.310   4.619 -1.7581 -2.4309  0.3671
  126OSM      N13332   6.600   4.602   2.816 -0.8616  0.0934 -0.6357
  126OSM    C1513333   6.513   4.636   2.934  0.2049 -0.2058 -0.2614
  126OSM   H15A13334   6.580   4.641   3.019 -0.9844 -0.1501  0.7106
  126OSM   H15B13335   6.433   4.570   2.964 -1.0724  1.6045  0.5213
  126OSM   H15C13336   6.458   4.728   2.920 -0.7550 -0.3010  2.3777
  126OSM    C1413337   6.662   4.467   2.844  0.5694  0.2717 -0.0891
  126OSM   H14A13338   6.599   4.379   2.844  0.6464  0.1823  1.4267
  126OSM   H14B13339   6.704   4.473   2.943  0.2408  0.3764  0.0476
  126OSM   H14C13340   6.732   4.449   2.765  0.0887 -2.1293 -0.0567
  126OSM    C1313341   6.510   4.587   2.705  0.3715  0.1373  1.0115
  126OSM   H13A13342   6.557   4.520   2.635  1.2058  2.1207 -0.4492
  126OSM   H13B13343   6.473   4.673   2.652  0.0886 -0.8964 -0.5257
  126OSM   H13C13344   6.420   4.535   2.732 -0.1894  0.5995  0.0788
  126OSM    C1213345   6.714   4.703   2.796 -0.3724  0.6462  0.2465
  126OSM   H12A13346   6.791   4.690   2.870  2.0299 -1.6956 -2.4267
  126OSM   H12B13347   6.679   4.805   2.810  0.1692  0.6482  1.7435
  126OSM    C1113348   6.784   4.691   2.659 -0.0560  0.3214  0.4675
  126OSM   H11A13349   6.849   4.779   2.638  0.6093  0.2654  2.0730
  126OSM   H11B13350   6.702   4.701   2.585 -1.1668  2.7947  1.8832
  126OSM      P13351   7.012   4.560   2.617  0.1153 -0.1692 -0.0079
  126OSM    O1313352   7.041   4.446   2.528  0.0544 -0.3188 -0.3515
  126OSM    O1413353   7.074   4.683   2.563  0.1308  0.1566  0.0578
  126OSM    O1113354   7.063   4.530   2.760 -0.6699  0.4484  0.6026
  126OSM    O1213355   6.855   4.567   2.638 -0.4474 -0.2894 -0.3685
  126OSM    C1S13356   7.035   4.406   2.834  0.1086  0.0722  0.3615
  126OSM    H1S13357   7.114   4.335   2.801 -0.5497 -0.0683 -1.0143
  126OSM    H1T13358   6.948   4.349   2.795  1.3631 -0.7702 -1.3687
  126OSM     NF13359   7.054   4.292   3.037 -0.6137  0.1123 -0.1389
  126OSM    HNF13360   6.976   4.258   3.090 -1.4855 -1.0674 -2.0799
  126OSM    C2S13361   7.058   4.420   2.986  0.1519 -0.1849  0.6483
  126OSM    H2S13362   7.158   4.468   2.987 -0.5476  1.5431 -2.2693
  126OSM    C3S13363   6.952   4.515   3.054 -0.1339 -0.2226 -0.1185
  126OSM    H3S13364   6.853   4.464   3.057 -0.1131 -0.2446  0.3278
  126OSM     O313365   6.932   4.632   2.978 -0.4089  0.3909  0.0035
  126OSM    HO313366   6.993   4.613   2.906  0.6524  0.5734  0.8299
  126OSM    C4S13367   6.982   4.540   3.198 -0.8709 -0.0923 -0.2675
  126OSM    H4S13368   6.964   4.454   3.265  1.3801 -0.3216  0.1361
  126OSM    C5S13369   7.055   4.640   3.250 -0.4027  0.1646 -0.3180
  126OSM    H5S13370   7.095   4.719   3.185  2.1732 -0.6571  0.1452
  126OSM    C6S13371   7.082   4.658   3.401 -0.0865 -0.3783 -0.2637
  126OSM    H6S13372   7.052   4.761   3.431  0.5954 -0.8442  2.2612
  126OSM    H6T13373   7.191   4.649   3.421  0.3987  1.6789 -1.6349
  126OSM    C7S13374   7.010   4.558   3.492 -0.1459 -0.8383 -0.8668
  126OSM    H7S13375   7.046   4.453   3.479  1.2744 -0.9423  2.7814
  126OSM    H7T13376   6.900   4.572   3.489 -0.2007 -0.6471  0.9513
  126OSM    C8S13377   7.046   4.581   3.643  1.0580 -0.1756 -0.4776
  126OSM    H8S13378   7.077   4.686   3.663 -2.7056  1.2763 -1.3924
  126OSM    H8T13379   7.124   4.511   3.678 -0.3005 -0.5804  1.9455
  126OSM    C9S13380   6.911   4.548   3.719  0.0081 -0.4665 -0.4825
  126OSM    H9S13381   6.901   4.437   3.717  0.6600 -0.5174 -1.6028
  126OSM    H9T13382   6.814   4.585   3.681 -1.1305 -0.6707  2.0209
  126OSM   C10S13383   6.933   4.589   3.866  0.3308 -0.5807 -0.3658
  126OSM   H10S13384   6.930   4.700   3.866  0.0304 -0.5873 -0.5970
  126OSM   H10T13385   7.034   4.572   3.909  0.4395 -0.4727 -0.5784
  126OSM   C11S13386   6.819   4.547   3.958  0.6071  0.1744 -0.3385
  126OSM   H11S13387   6.812   4.438   3.975  0.2920  0.5542  2.3179
  126OSM   H11T13388   6.723   4.589   3.920  0.8753  2.4061  1.2415
  126OSM   C12S13389   6.850   4.613   4.097 -0.3925 -0.3291 -0.1699
  126OSM   H12S13390   6.870   4.722   4.088  2.4958 -0.7251  0.3368
  126OSM   H12T13391   6.946   4.586   4.145  0.4971  0.9370 -1.1491
  126OSM   C13S13392   6.741   4.607   4.201 -0.0570  0.1389 -0.7288
  126OSM   H13S13393   6.734   4.500   4.231  0.6110  0.8027  2.0354
  126OSM   H13T13394   6.641   4.626   4.158 -1.3301 -2.4388  0.8175
  126OSM   C14S13395   6.766   4.685   4.327  0.4014 -0.1827  0.0337
  126OSM   H14S13396   6.757   4.792   4.298 -1.3825 -0.3728 -0.2354
  126OSM   H14T13397   6.868   4.664   4.363 -0.1996 -0.2603  1.7653
  126OSM   C15S13398   6.667   4.667   4.446 -0.3641 -0.2108  1.3286
  126OSM   H15S13399   6.691   4.564   4.479 -2.4914 -1.4620 -0.7205
  126OSM   H15T13400   6.560   4.673   4.417 -0.5763  0.6975  2.2418
  126OSM   C16S13401   6.691   4.783   4.547 -0.3308  0.0488  0.7797
  126OSM   H16S13402   6.635   4.875   4.518 -0.0529  0.4894  1.5912
  126OSM   H16T13403   6.796   4.819   4.553 -0.4230  0.1014  3.2785
  126OSM   C17S13404   6.629   4.763   4.683  0.2170  0.2216  0.5612
  126OSM   H17S13405   6.659   4.666   4.729 -0.8491 -0.3445  0.0917
  126OSM   H17T13406   6.521   4.754   4.662  0.5244  1.0256 -1.5939
  126OSM   C18S13407   6.651   4.884   4.774 -0.1273 -0.2037 -0.5022
  126OSM   H18S13408   6.761   4.896   4.787  0.0801 -0.3396 -1.9977
  126OSM   H18T13409   6.622   4.864   4.879 -1.9390 -0.2312 -0.9864
  126OSM   H18U13410   6.621   4.975   4.720 -0.1877 -0.3313 -0.6837
  126OSM    C1F13411   7.150   4.201   3.020  0.2976 -0.3888  0.3317
  126OSM     OF13412   7.259   4.228   2.964 -0.2135  0.6188  0.0844
  126OSM    C2F13413   7.128   4.066   3.075 -0.3032 -0.5244  0.3178
  126OSM    H2F13414   7.159   4.005   2.987 -0.4104  1.3268 -1.0574
  126OSM    H2G13415   7.021   4.060   3.105 -0.1169  0.5104  1.2599
  126OSM    C3F13416   7.220   4.023   3.190 -0.3384 -0.1367 -0.1498
  126OSM    H3F13417   7.325   4.051   3.167 -0.2755  0.0473  0.3417
  126OSM    H3G13418   7.219   3.913   3.205 -0.7265 -0.3987 -1.8474
  126OSM    C4F13419   7.179   4.094   3.318  0.4114  0.8000  0.6489
  126OSM    H4F13420   7.075   4.063   3.340  0.2078 -0.3859 -1.6577
  126OSM    H4G13421   7.174   4.204   3.303  0.4488  0.7339  0.0999
  126OSM    C5F13422   7.267   4.060   3.441  0.1417 -0.1400  0.0452
  126OSM    H5F13423   7.362   4.119   3.445  2.1383 -3.0492 -1.0664
  126OSM    H5G13424   7.298   3.954   3.433  1.0369 -0.1368  2.5617
  126OSM    C6F13425   7.194   4.085   3.575 -0.5135 -0.2255  0.4849
  126OSM    H6F13426   7.115   4.010   3.596 -0.1886 -0.5033  0.7280
  126OSM    H6G13427   7.136   4.179   3.571 -0.6278 -0.3403 -2.0773
  126OSM    C7F13428   7.295   4.098   3.689 -0.2791  0.0106 -0.0460
  126OSM    H7F13429   7.374   4.170   3.658 -1.5311 -0.0679 -3.9281
  126OSM    H7G13430   7.339   3.996   3.697 -1.5236 -0.5858 -0.5652
  126OSM    C8F13431   7.239   4.130   3.828  0.0752 -0.0751  0.5748
  126OSM    H8F13432   7.324   4.135   3.899 -0.6103 -1.9272  1.5982
  126OSM    H8G13433   7.194   4.034   3.862  1.5564 -0.8210  0.4886
  126OSM    C9F13434   7.140   4.245   3.841  0.9906  0.2594  0.6064
  126OSM    H9F13435   7.138   4.302   3.747  3.0982  1.9993  1.5365
  126OSM   C10F13436   7.035   4.247   3.924 -0.5608 -0.1527 -0.9576
  126OSM   H10F13437   6.966   4.332   3.929  0.6914  0.9523 -1.7896
  126OSM   C11F13438   7.015   4.159   4.039  0.1276  0.0804 -0.3527
  126OSM   H11F13439   7.065   4.060   4.033 -0.3850 -0.2428  0.5051
  126OSM   H11G13440   6.911   4.120   4.045 -0.8404  2.7347  2.1144
  126OSM   C12F13441   7.047   4.242   4.163 -0.0916 -0.3691 -0.7286
  126OSM   H12F13442   7.002   4.344   4.167 -1.2482 -0.8915  0.8183
  126OSM   H12G13443   7.157   4.254   4.170 -0.1056 -0.3282 -0.5749
  126OSM   C13F13444   6.993   4.166   4.290 -0.0647  0.0614  0.2288
  126OSM   H13F13445   7.054   4.073   4.298  2.3132  1.5834  0.9678
  126OSM   H13G13446   6.885   4.148   4.273 -0.2474  2.4546 -1.6840
  126OSM   C14F13447   7.015   4.248   4.420 -0.2896  0.7350  0.2347
  126OSM   H14F13448   7.119   4.285   4.432  0.4556 -1.4593  0.9613
  126OSM   H14G13449   6.996   4.185   4.509 -0.1253 -0.2257 -0.3978
  126OSM   C15F13450   6.941   4.370   4.441 -0.2349  0.7045 -0.3632
  126OSM   H15F13451   6.833   4.343   4.436 -0.4004  0.9578  1.4452
  126OSM   H15G13452   6.959   4.455   4.371  0.3686  0.1452 -0.9059
  126OSM   C16F13453   6.941   4.425   4.592 -0.4866 -0.2818  0.3510
  126OSM   H16F13454   6.931   4.339   4.662  0.0046 -0.9117 -0.3432
  126OSM   H16G13455   6.854   4.492   4.613  0.7830  2.1145 -1.5615
  126OSM   C17F13456   7.073   4.502   4.627  0.0178 -0.3490  0.4976
  126OSM   H17F13457   7.162   4.440   4.603 -0.4023 -0.5083 -0.7011
  126OSM   H17G13458   7.078   4.516   4.738  1.2677  3.4359  0.1114
  126OSM   C18F13459   7.079   4.648   4.577 -0.4652  0.3751  0.3479
  126OSM   H18F13460   7.112   4.655   4.471  1.1767  1.0953  0.8830
  126OSM   H18G13461   7.150   4.707   4.638 -1.7661 -0.5840  2.9484
  126OSM   H18H13462   6.981   4.697   4.597 -1.2601 -0.5318 -1.1568
  127OSM      N13463   5.194   1.901   2.703 -0.1071  0.4507  0.3034
  127OSM    C1513464   5.245   1.985   2.585 -0.8813 -0.4559 -0.3900
  127OSM   H15A13465   5.173   2.031   2.518 -0.6959 -1.4363 -1.3064
  127OSM   H15B13466   5.294   1.919   2.514 -0.6401 -0.5484 -0.1363
  127OSM   H15C13467   5.323   2.049   2.620 -0.2365 -2.2973  1.7825
  127OSM    C1413468   5.086   1.818   2.640  0.2097  0.3227 -0.2531
  127OSM   H14A13469   5.116   1.749   2.562  2.4097 -0.1520  0.9359
  127OSM   H14B13470   5.020   1.879   2.580 -0.8857 -2.4694 -2.0974
  127OSM   H14C13471   5.022   1.762   2.707 -0.4755 -0.0739 -1.2190
  127OSM    C1313472   5.306   1.808   2.754  0.2406 -0.6451 -0.2552
  127OSM   H13A13473   5.391   1.862   2.793 -0.8613 -0.7204  2.4184
  127OSM   H13B13474   5.337   1.748   2.670  0.9800  2.4408 -2.3853
  127OSM   H13C13475   5.270   1.742   2.831 -4.6328  1.1217 -0.6878
  127OSM    C1213476   5.128   1.983   2.808  0.4214  0.4778 -0.2473
  127OSM   H12A13477   5.043   2.034   2.766 -0.3957  0.4833  1.3245
  127OSM   H12B13478   5.194   2.062   2.842  2.0998 -1.0082  0.1467
  127OSM    C1113479   5.078   1.912   2.944 -0.2118  0.2541  0.0394
  127OSM   H11A13480   5.068   1.992   3.020 -0.9320  2.5491 -2.3437
  127OSM   H11B13481   5.157   1.841   2.977  1.0289  0.4637 -2.2763
  127OSM      P13482   4.824   1.898   2.973 -0.0347  0.4467  0.4484
  127OSM    O1313483   4.793   2.025   2.897 -0.3646  0.4731 -0.3845
  127OSM    O1413484   4.715   1.795   2.971  0.2433 -0.7241  0.7619
  127OSM    O1113485   4.850   1.946   3.123  0.7179 -0.4418  0.3829
  127OSM    O1213486   4.960   1.836   2.912  0.1807  0.5862  0.5522
  127OSM    C1S13487   4.898   1.875   3.230 -0.8686 -0.0968  0.3169
  127OSM    H1S13488   5.009   1.887   3.227 -0.9688  0.7153 -0.9325
  127OSM    H1T13489   4.875   1.767   3.219  0.6873 -0.4253  0.0124
  127OSM     NF13490   4.879   1.835   3.471 -0.0599 -0.0334 -0.0191
  127OSM    HNF13491   4.815   1.765   3.503 -0.5114  0.6761  0.6587
  127OSM    C2S13492   4.832   1.921   3.359 -0.4312 -0.0562 -0.1751
  127OSM    H2S13493   4.851   2.027   3.386 -0.2672 -0.4405  1.3164
  127OSM    C3S13494   4.676   1.920   3.352 -0.1003  0.4361  0.4237
  127OSM    H3S13495   4.643   1.823   3.308  0.4938  0.3342  0.1955
  127OSM     O313496   4.627   2.020   3.261  0.2094  0.3237 -0.1340
  127OSM    HO313497   4.705   2.051   3.215  0.4764 -1.3166 -0.8968
  127OSM    C4S13498   4.603   1.924   3.490 -0.0737  0.0956  0.4089
  127OSM    H4S13499   4.541   1.834   3.496  1.3703 -1.2244 -2.5060
  127OSM    C5S13500   4.595   2.014   3.587 -0.2635  0.2484 -0.3658
  127OSM    H5S13501   4.661   2.102   3.590  0.8387 -0.5303 -0.9763
  127OSM    C6S13502   4.514   1.989   3.714 -0.1831  0.4872 -0.3337
  127OSM    H6S13503   4.437   1.911   3.696 -0.5522  0.1513  2.2655
  127OSM    H6T13504   4.456   2.078   3.745  0.7224  1.3640 -1.0898
  127OSM    C7S13505   4.597   1.941   3.838  0.2545 -0.8866  0.1227
  127OSM    H7S13506   4.686   2.006   3.853 -0.8244  1.0445 -1.2876
  127OSM    H7T13507   4.632   1.842   3.803  0.1297 -0.4943 -1.1777
  127OSM    C8S13508   4.521   1.923   3.969  0.6565  0.1804  0.1685
  127OSM    H8S13509   4.587   1.872   4.043  0.3741 -2.2550 -1.1319
  127OSM    H8T13510   4.431   1.858   3.955  0.1957  0.2302  2.4701
  127OSM    C9S13511   4.464   2.045   4.031 -0.3848 -0.5394 -0.4501
  127OSM    H9S13512   4.379   2.083   3.971 -0.8513  1.1906  1.1739
  127OSM    H9T13513   4.549   2.116   4.031 -0.9449  0.1591 -0.0922
  127OSM   C10S13514   4.413   2.020   4.177 -0.0917 -0.3594  0.1901
  127OSM   H10S13515   4.481   1.954   4.234 -0.0200 -0.4972 -0.0549
  127OSM   H10T13516   4.316   1.967   4.175 -0.5946  0.5558 -1.3734
  127OSM   C11S13517   4.385   2.148   4.253  0.6523 -0.7478 -0.0336
  127OSM   H11S13518   4.308   2.212   4.205  0.7681 -1.2616 -0.9183
  127OSM   H11T13519   4.471   2.218   4.246 -1.3095  1.6653 -1.9271
  127OSM   C12S13520   4.351   2.127   4.402 -0.1592 -0.1703  0.0652
  127OSM   H12S13521   4.426   2.167   4.474  0.8208  0.1900 -1.1218
  127OSM   H12T13522   4.334   2.018   4.415 -0.0123  0.0370  2.4431
  127OSM   C13S13523   4.219   2.192   4.444 -0.1035 -0.0193  0.2253
  127OSM   H13S13524   4.127   2.167   4.387  0.6836 -1.2152 -0.5642
  127OSM   H13T13525   4.225   2.302   4.431 -1.0395 -0.0018 -0.1632
  127OSM   C14S13526   4.186   2.170   4.587  0.6013  0.1659 -0.4235
  127OSM   H14S13527   4.261   2.216   4.655 -0.1501  2.9770 -1.3779
  127OSM   H14T13528   4.189   2.059   4.586 -0.3042  0.1385 -1.9346
  127OSM   C15S13529   4.052   2.236   4.625 -0.1107 -0.6384 -0.4986
  127OSM   H15S13530   3.976   2.183   4.563 -0.7161  0.1859 -0.4765
  127OSM   H15T13531   4.048   2.342   4.592  0.0796 -0.1516  0.9862
  127OSM   C16S13532   4.018   2.237   4.774 -0.0765  0.3805 -0.4331
  127OSM   H16S13533   4.028   2.134   4.816  0.8114  0.3361 -0.7444
  127OSM   H16T13534   3.914   2.269   4.795 -0.1522  1.8462 -2.7209
  127OSM   C17S13535   4.104   2.337   4.859 -0.7806  0.3506  0.4590
  127OSM   H17S13536   4.203   2.353   4.810 -0.4747 -1.7528  0.2935
  127OSM   H17T13537   4.114   2.289   4.959 -1.8139  0.3379  0.5631
  127OSM   C18S13538   4.036   2.468   4.866  0.0237 -0.4336  0.0758
  127OSM   H18S13539   4.028   2.496   4.759  2.6784 -3.3084 -1.0106
  127OSM   H18T13540   4.107   2.529   4.925  0.2885  0.0171 -0.7077
  127OSM   H18U13541   3.942   2.459   4.925  0.2919 -2.6871  0.2700
  127OSM    C1F13542   5.003   1.844   3.521 -0.5165 -0.5688  0.4020
  127OSM     OF13543   5.077   1.921   3.459 -0.4930  0.6350  0.1293
  127OSM    C2F13544   5.043   1.765   3.643 -0.1718  0.1495  0.0021
  127OSM    H2F13545   5.143   1.808   3.664 -1.1588  2.7945 -0.3664
  127OSM    H2G13546   5.057   1.658   3.614 -2.2204 -0.0413 -0.4363
  127OSM    C3F13547   4.943   1.786   3.753 -0.2321 -0.8960  0.3559
  127OSM    H3F13548   4.842   1.750   3.724 -0.5221  1.5687 -2.0901
  127OSM    H3G13549   4.937   1.896   3.756 -1.0527 -0.9523  2.6889
  127OSM    C4F13550   4.976   1.732   3.898  0.0554 -0.1157  0.5321
  127OSM    H4F13551   5.081   1.761   3.916  0.1624  0.2600 -0.6244
  127OSM    H4G13552   4.968   1.622   3.886  0.7400  0.0182 -1.6353
  127OSM    C5F13553   4.872   1.772   4.001 -0.0242 -1.0275  0.8482
  127OSM    H5F13554   4.765   1.765   3.970 -0.5512 -1.9248  2.7527
  127OSM    H5G13555   4.897   1.875   4.035 -1.0920 -1.3648  2.7986
  127OSM    C6F13556   4.890   1.691   4.128  0.4728 -0.1274  0.5878
  127OSM    H6F13557   4.994   1.706   4.164  0.7920 -0.6731 -0.1074
  127OSM    H6G13558   4.886   1.581   4.113  0.1420 -0.3286  2.0014
  127OSM    C7F13559   4.779   1.725   4.234  0.0317  0.2956 -0.5149
  127OSM    H7F13560   4.680   1.688   4.201 -1.4329  2.2821  1.3980
  127OSM    H7G13561   4.770   1.835   4.238 -0.6133  0.2091  2.6071
  127OSM    C8F13562   4.812   1.664   4.375  0.2853  0.2627  0.1275
  127OSM    H8F13563   4.732   1.713   4.435  0.9686  0.4161  0.9374
  127OSM    H8G13564   4.914   1.697   4.404 -0.2083  1.5286  0.4921
  127OSM    C9F13565   4.794   1.514   4.390  0.1118  0.3087  0.3344
  127OSM    H9F13566   4.702   1.476   4.344  1.3364  0.1660 -2.1550
  127OSM   C10F13567   4.869   1.435   4.467 -0.3962  0.2274 -0.1817
  127OSM   H10F13568   4.845   1.328   4.471 -1.5941  0.4991  0.1297
  127OSM   C11F13569   4.991   1.476   4.537  0.3770  0.5955  0.1667
  127OSM   H11F13570   5.020   1.582   4.523  0.7897  0.5780  0.8550
  127OSM   H11G13571   5.070   1.416   4.487  0.7673  0.3815  1.0179
  127OSM   C12F13572   4.983   1.453   4.693 -0.1299  0.5632 -0.2897
  127OSM   H12F13573   5.081   1.490   4.732 -0.7120  0.8701  0.9480
  127OSM   H12G13574   4.980   1.343   4.709 -0.6561  0.1660 -2.6947
  127OSM   C13F13575   4.869   1.522   4.765  0.2523 -0.4953  0.2687
  127OSM   H13F13576   4.862   1.493   4.872  0.1081 -0.2990  0.3137
  127OSM   H13G13577   4.769   1.485   4.733 -1.2900  0.0780  3.8610
  127OSM   C14F13578   4.882   1.671   4.779  0.2052  0.4344  0.1378
  127OSM   H14F13579   4.858   1.706   4.676  2.5951 -3.0367 -1.8103
  127OSM   H14G13580   4.980   1.714   4.809 -0.7437  0.5308  3.5223
  127OSM   C15F13581   4.774   1.743   4.865 -0.2500  0.6835  0.1212
  127OSM   H15F13582   4.682   1.755   4.805 -0.8774  0.8322  1.0869
  127OSM   H15G13583   4.807   1.848   4.885 -0.6720  0.5624  1.6296
  127OSM   C16F13584   4.734   1.684   5.003 -0.9227  0.7652  0.4880
  127OSM   H16F13585   4.814   1.623   5.051 -1.1221 -0.2402 -0.4139
  127OSM   H16G13586   4.648   1.614   4.996 -0.5026 -0.0784  2.7977
  127OSM   C17F13587   4.690   1.790   5.103  0.4275  0.3225 -0.4033
  127OSM   H17F13588   4.610   1.853   5.059 -0.5904 -0.3476  0.4168
  127OSM   H17G13589   4.769   1.865   5.121 -1.5677  2.5492 -0.4479
  127OSM   C18F13590   4.630   1.735   5.234 -0.0742 -0.5716 -0.2530
  127OSM   H18F13591   4.593   1.814   5.304 -0.8697 -0.2508 -1.0157
  127OSM   H18G13592   4.682   1.650   5.282  1.6301  0.6935  0.2397
  127OSM   H18H13593   4.541   1.685   5.191 -0.4267 -0.4935  0.3747
  128OSM      N13594   6.442   6.483   2.884  0.1264  0.2789  0.0383
  128OSM    C1513595   6.302   6.534   2.865  0.2734  0.3414 -0.4329
  128OSM   H15A13596   6.233   6.450   2.865  0.5531  0.1067  0.2673
  128OSM   H15B13597   6.300   6.586   2.771  0.6779  0.4689 -0.3716
  128OSM   H15C13598   6.274   6.603   2.944 -1.0922  1.2264 -1.6507
  128OSM    C1413599   6.467   6.412   3.013  0.3965  0.4562 -0.1486
  128OSM   H14A13600   6.398   6.329   3.021 -0.3888  1.1499  0.2857
  128OSM   H14B13601   6.447   6.472   3.100 -1.2801 -0.6108  0.2508
  128OSM   H14C13602   6.568   6.372   3.019  0.0180 -0.2728  2.2334
  128OSM    C1313603   6.466   6.391   2.771 -0.3887  0.4535  0.0858
  128OSM   H13A13604   6.435   6.289   2.792 -3.5173  1.4456  0.7279
  128OSM   H13B13605   6.572   6.382   2.755 -0.4136  2.0093 -1.1196
  128OSM   H13C13606   6.438   6.433   2.676 -2.0331 -0.6812  0.0260
  128OSM    C1213607   6.531   6.602   2.852 -0.2877  0.6521 -0.5427
  128OSM   H12A13608   6.522   6.625   2.747 -1.7231 -0.2894 -0.6452
  128OSM   H12B13609   6.633   6.572   2.873 -0.5100 -2.4926 -3.1578
  128OSM    C1113610   6.496   6.729   2.923 -0.0487  0.4217  0.5752
  128OSM   H11A13611   6.585   6.793   2.940  1.5705 -1.5926  0.0438
  128OSM   H11B13612   6.461   6.706   3.026  1.7069  0.3973  1.1956
  128OSM      P13613   6.449   6.897   2.722 -0.3573 -0.1561  0.0535
  128OSM    O1313614   6.488   6.812   2.609  0.0784 -0.3239 -0.3683
  128OSM    O1413615   6.348   6.992   2.689  0.8183 -0.3506  0.2170
  128OSM    O1113616   6.581   6.972   2.794 -0.1517  0.1622  0.5760
  128OSM    O1213617   6.408   6.812   2.844  0.4054  0.1536 -0.1273
  128OSM    C1S13618   6.558   7.065   2.897  0.4295 -0.1415  0.4220
  128OSM    H1S13619   6.539   7.017   2.995 -1.3670  1.0240  0.6891
  128OSM    H1T13620   6.475   7.136   2.877  0.9669  0.7065  1.0863
  128OSM     NF13621   6.635   7.257   3.029 -0.0668  0.4982 -0.3758
  128OSM    HNF13622   6.597   7.347   3.011 -0.4804  0.6783  1.2892
  128OSM    C2S13623   6.669   7.172   2.917 -0.1338  0.5389 -0.0267
  128OSM    H2S13624   6.764   7.123   2.945 -0.6333 -0.6894 -0.3847
  128OSM    C3S13625   6.692   7.246   2.780 -0.1511 -0.0682  0.1552
  128OSM    H3S13626   6.600   7.307   2.765 -1.5278 -1.4131  2.6408
  128OSM     O313627   6.694   7.160   2.662  0.9014  1.1355  0.4728
  128OSM    HO313628   6.662   7.078   2.698 -0.5529  0.8565 -1.3165
  128OSM    C4S13629   6.821   7.331   2.779  0.7427  0.3432 -0.2147
  128OSM    H4S13630   6.809   7.439   2.799 -0.4330  0.0446  0.8063
  128OSM    C5S13631   6.947   7.281   2.757  0.2511  0.3085 -0.3097
  128OSM    H5S13632   6.960   7.175   2.731 -0.8735  0.3987 -1.3578
  128OSM    C6S13633   7.066   7.368   2.764  0.4769 -1.5696 -0.3248
  128OSM    H6S13634   7.046   7.476   2.783 -0.1181 -2.0599  2.2005
  128OSM    H6T13635   7.126   7.372   2.671  0.3542  2.2876 -0.4047
  128OSM    C7S13636   7.156   7.332   2.877  0.5538  0.6117 -0.7103
  128OSM    H7S13637   7.243   7.400   2.862 -0.9222  2.2768 -2.1843
  128OSM    H7T13638   7.192   7.228   2.861 -3.4419 -1.1524  0.4356
  128OSM    C8S13639   7.094   7.352   3.018 -0.6896  0.3410  0.0742
  128OSM    H8S13640   7.000   7.293   3.023  0.7217 -2.1949 -1.0151
  128OSM    H8T13641   7.068   7.458   3.035 -0.6953 -0.0478  3.1064
  128OSM    C9S13642   7.193   7.324   3.134  0.0549  0.5231 -1.1613
  128OSM    H9S13643   7.287   7.379   3.113  0.5929 -0.2229 -0.7891
  128OSM    H9T13644   7.221   7.216   3.138 -1.9954 -0.0254 -0.6287
  128OSM   C10S13645   7.126   7.363   3.266 -0.3231  0.2035 -0.3368
  128OSM   H10S13646   7.073   7.460   3.251  0.8336  0.7487 -1.0657
  128OSM   H10T13647   7.209   7.378   3.339 -0.6352 -1.0820  0.3190
  128OSM   C11S13648   7.041   7.251   3.332 -0.1691  0.0007  0.3443
  128OSM   H11S13649   7.107   7.162   3.338 -2.9572 -2.2870 -0.7545
  128OSM   H11T13650   6.954   7.229   3.267 -0.3786  1.3189  0.1572
  128OSM   C12S13651   6.983   7.299   3.466 -0.1244 -0.2159  0.1519
  128OSM   H12S13652   6.898   7.235   3.500 -0.4396  0.2574  0.2629
  128OSM   H12T13653   6.935   7.396   3.441 -2.2017 -1.2360 -0.0394
  128OSM   C13S13654   7.078   7.304   3.584  0.2322 -0.7122  0.5809
  128OSM   H13S13655   7.119   7.406   3.570  0.0209 -0.7935 -0.8058
  128OSM   H13T13656   7.164   7.235   3.571 -0.2868 -1.5866  1.5916
  128OSM   C14S13657   7.007   7.292   3.717 -0.5418 -0.2415  1.0781
  128OSM   H14S13658   6.983   7.184   3.729 -0.4257 -0.9719 -3.4777
  128OSM   H14T13659   6.914   7.353   3.721 -0.7702 -0.6472  3.0516
  128OSM   C15S13660   7.094   7.342   3.827 -0.1967  0.0033  0.3341
  128OSM   H15S13661   7.079   7.452   3.831 -0.5090 -0.0034 -0.3753
  128OSM   H15T13662   7.201   7.314   3.817  0.0554  0.7854  0.7320
  128OSM   C16S13663   7.054   7.305   3.976 -0.3663 -0.1572 -0.0897
  128OSM   H16S13664   7.058   7.196   4.000 -2.0629  0.0480  1.3024
  128OSM   H16T13665   6.955   7.350   3.998 -0.6370  0.4038 -2.2399
  128OSM   C17S13666   7.148   7.353   4.089 -0.4082 -0.3306  0.0253
  128OSM   H17S13667   7.252   7.342   4.053  0.1118  3.5924 -0.0853
  128OSM   H17T13668   7.129   7.291   4.180 -1.7036  0.2181  0.1455
  128OSM   C18S13669   7.132   7.507   4.122  1.0776 -0.8740 -0.1008
  128OSM   H18S13670   7.118   7.572   4.033 -2.1776 -2.8536 -1.2336
  128OSM   H18T13671   7.217   7.539   4.185 -0.3107 -0.9441  1.8792
  128OSM   H18U13672   7.033   7.511   4.171  1.8165 -0.2855  1.3847
  128OSM    C1F13673   6.617   7.217   3.154 -0.0973 -0.1737  0.2856
  128OSM     OF13674   6.660   7.105   3.177 -0.0933  0.4037 -0.3497
  128OSM    C2F13675   6.545   7.306   3.248 -0.0730  0.2960 -0.6404
  128OSM    H2F13676   6.443   7.266   3.265  0.5828 -0.6084  1.4059
  128OSM    H2G13677   6.527   7.408   3.206  0.3164  0.9627  0.7625
  128OSM    C3F13678   6.631   7.318   3.385 -0.1548 -0.5794 -0.2578
  128OSM    H3F13679   6.737   7.349   3.370  0.7314 -2.1778  2.0248
  128OSM    H3G13680   6.632   7.219   3.436  0.4388  1.0700  3.2558
  128OSM    C4F13681   6.572   7.416   3.497  0.1506  0.4634 -0.1472
  128OSM    H4F13682   6.479   7.370   3.538 -0.9080  0.6443 -2.1932
  128OSM    H4G13683   6.528   7.506   3.449  2.0339  1.8190  0.5783
  128OSM    C5F13684   6.673   7.445   3.616 -0.6096 -0.1706  0.3074
  128OSM    H5F13685   6.752   7.512   3.578 -0.2702 -0.6826  0.1014
  128OSM    H5G13686   6.731   7.355   3.648 -1.5557 -0.6549  0.7176
  128OSM    C6F13687   6.606   7.510   3.736 -0.5763 -1.0255 -0.1060
  128OSM    H6F13688   6.543   7.430   3.781 -1.5750 -0.0363  0.3391
  128OSM    H6G13689   6.537   7.589   3.699  0.8865  0.6400  0.6034
  128OSM    C7F13690   6.703   7.575   3.836 -0.5134 -0.9595 -0.0985
  128OSM    H7F13691   6.743   7.675   3.811  1.0142 -1.4007  0.4502
  128OSM    H7G13692   6.794   7.511   3.850  0.7877  1.0500  1.1800
  128OSM    C8F13693   6.644   7.599   3.981 -0.0388  0.2242 -0.7127
  128OSM    H8F13694   6.626   7.495   4.015 -0.4385 -0.9751 -4.2045
  128OSM    H8G13695   6.545   7.649   3.976 -0.5297 -0.5180  0.8586
  128OSM    C9F13696   6.733   7.675   4.071  0.1043 -0.4052  0.7288
  128OSM    H9F13697   6.759   7.777   4.039  0.4798 -0.7542 -0.1013
  128OSM   C10F13698   6.778   7.638   4.192 -0.0506  0.0848  0.2790
  128OSM   H10F13699   6.842   7.711   4.244 -1.0876  1.3161 -0.1298
  128OSM   C11F13700   6.739   7.508   4.256  0.1834  0.0876 -0.0692
  128OSM   H11F13701   6.782   7.421   4.203 -0.8016 -0.3514 -0.1572
  128OSM   H11G13702   6.629   7.498   4.245  0.1224  0.9093 -0.2750
  128OSM   C12F13703   6.775   7.494   4.410 -0.1253 -0.4262 -0.3108
  128OSM   H12F13704   6.885   7.505   4.421 -0.1610 -1.6224  1.6907
  128OSM   H12G13705   6.765   7.389   4.446 -0.7820 -0.0230  0.7151
  128OSM   C13F13706   6.692   7.583   4.500 -0.3823 -0.3641  0.0262
  128OSM   H13F13707   6.586   7.589   4.468 -0.0534  0.7995 -0.9064
  128OSM   H13G13708   6.738   7.682   4.480  0.0263  0.0023  2.4301
  128OSM   C14F13709   6.714   7.562   4.651 -0.2705  0.5014 -0.0844
  128OSM   H14F13710   6.825   7.561   4.661 -0.3073 -1.0071  0.4793
  128OSM   H14G13711   6.689   7.461   4.689 -1.5779  1.5974  2.1675
  128OSM   C15F13712   6.649   7.666   4.737 -0.5865 -0.1202 -0.2207
  128OSM   H15F13713   6.542   7.641   4.752 -0.6294  0.3544  0.3285
  128OSM   H15G13714   6.664   7.765   4.689  3.3330 -0.1753  0.5315
  128OSM   C16F13715   6.714   7.683   4.875 -0.3478 -0.3935  0.1121
  128OSM   H16F13716   6.655   7.772   4.907  0.4416  1.4009 -3.0478
  128OSM   H16G13717   6.821   7.709   4.860 -0.5383  0.4546  0.1636
  128OSM   C17F13718   6.721   7.560   4.967 -0.0758 -1.0691 -0.0989
  128OSM   H17F13719   6.788   7.482   4.928 -0.7834 -1.1496 -1.2132
  128OSM   H17G13720   6.618   7.519   4.969 -0.2943 -0.6136 -1.1159
  128OSM   C18F13721   6.756   7.577   5.111 -0.3395 -0.1208 -0.1722
  128OSM   H18F13722   6.731   7.479   5.157 -0.6183 -0.7922 -1.6604
  128OSM   H18G13723   6.694   7.650   5.166 -1.0865 -2.3924  2.2094
  128OSM   H18H13724   6.864   7.600   5.122 -0.7976  3.2492 -1.5262
  129OSM      N13725   2.255   5.702   2.821  0.1375  0.2827 -0.2324
  129OSM    C1513726   2.202   5.795   2.716  0.3823  0.3305 -0.6293
  129OSM   H15A13727   2.179   5.887   2.767  0.1482  0.6280 -1.2654
  129OSM   H15B13728   2.113   5.750   2.675  0.8056 -0.2209 -0.9808
  129OSM   H15C13729   2.276   5.815   2.639 -0.4316  0.7052 -1.3333
  129OSM    C1413730   2.385   5.753   2.891  0.2044 -0.2689  0.5966
  129OSM   H14A13731   2.418   5.672   2.954 -2.7628 -3.1344 -1.1887
  129OSM   H14B13732   2.370   5.847   2.941 -1.4804  0.5912 -1.3803
  129OSM   H14C13733   2.462   5.767   2.816 -0.7934  2.7855 -0.0083
  129OSM    C1313734   2.145   5.696   2.925  0.5758  0.2139  0.2068
  129OSM   H13A13735   2.049   5.663   2.886 -0.0939 -3.7933  4.3833
  129OSM   H13B13736   2.140   5.798   2.960  1.0297  0.4896 -0.5054
  129OSM   H13C13737   2.169   5.637   3.012  1.0724  1.1711  0.7349
  129OSM    C1213738   2.283   5.566   2.760 -0.4681  0.0216 -0.3670
  129OSM   H12A13739   2.336   5.584   2.667  1.2054  0.8383  0.6947
  129OSM   H12B13740   2.184   5.529   2.736  0.3262 -0.8628 -2.5742
  129OSM    C1113741   2.362   5.463   2.850 -0.2017 -0.3382  0.0743
  129OSM   H11A13742   2.326   5.377   2.790 -2.5049  0.9022 -0.4643
  129OSM   H11B13743   2.329   5.455   2.956  2.0925 -0.7102  0.8118
  129OSM      P13744   2.581   5.462   2.709  0.2500  0.1864  0.1555
  129OSM    O1313745   2.591   5.317   2.690  0.3381 -0.6690  0.4969
  129OSM    O1413746   2.518   5.537   2.602 -0.2219 -0.4970  0.3007
  129OSM    O1113747   2.720   5.521   2.729 -0.3291  0.0218 -0.4404
  129OSM    O1213748   2.505   5.485   2.847  0.0807  0.0181 -0.2337
  129OSM    C1S13749   2.759   5.638   2.802 -0.0481  0.4394  0.3630
  129OSM    H1S13750   2.674   5.700   2.838 -0.8085 -1.5143  2.1200
  129OSM    H1T13751   2.814   5.708   2.736 -2.4746 -0.1375 -2.5107
  129OSM     NF13752   2.840   5.717   3.030 -0.4868  0.3403  0.3539
  129OSM    HNF13753   2.924   5.770   3.032  0.8949 -1.7615  0.9216
  129OSM    C2S13754   2.839   5.603   2.936  0.5754  0.0071  0.0455
  129OSM    H2S13755   2.782   5.516   2.975  0.0308  0.0647 -0.6106
  129OSM    C3S13756   2.978   5.551   2.895 -0.5864  0.2172 -0.4254
  129OSM    H3S13757   3.021   5.619   2.818 -0.8722 -0.6935 -1.4087
  129OSM     O313758   2.980   5.439   2.805 -0.0092  0.2841 -0.5337
  129OSM    HO313759   2.891   5.443   2.768  0.4565 -0.7145 -1.8167
  129OSM    C4S13760   3.081   5.535   3.002  0.7051 -0.1967 -0.6664
  129OSM    H4S13761   3.164   5.607   3.007  1.4941 -1.1506  0.3175
  129OSM    C5S13762   3.087   5.428   3.087 -0.1527  0.0049 -0.1828
  129OSM    H5S13763   3.021   5.341   3.072 -1.7760  1.1732 -0.1258
  129OSM    C6S13764   3.183   5.418   3.201 -0.1592 -0.1852 -0.3264
  129OSM    H6S13765   3.292   5.414   3.181  0.5614 -1.9241  3.1793
  129OSM    H6T13766   3.161   5.328   3.261 -0.5030  0.5799  0.7247
  129OSM    C7S13767   3.162   5.525   3.310 -0.2227 -1.0331  0.1668
  129OSM    H7S13768   3.060   5.531   3.353  0.3412  0.8792  1.3334
  129OSM    H7T13769   3.187   5.621   3.261  4.2958 -1.3862  1.3205
  129OSM    C8S13770   3.258   5.496   3.431  0.5088 -0.5252 -0.2799
  129OSM    H8S13771   3.364   5.516   3.406  0.3840  1.2829  0.4835
  129OSM    H8T13772   3.237   5.393   3.468 -0.2012 -0.3444 -0.1600
  129OSM    C9S13773   3.221   5.587   3.546 -0.1247  0.0145 -0.1933
  129OSM    H9S13774   3.122   5.563   3.589 -1.0255  0.6682 -1.8219
  129OSM    H9T13775   3.223   5.694   3.518 -0.4210  0.6088  1.8971
  129OSM   C10S13776   3.338   5.569   3.647 -0.6387  0.1314 -0.1244
  129OSM   H10S13777   3.429   5.614   3.601 -0.6201 -0.0610 -0.2747
  129OSM   H10T13778   3.354   5.461   3.666  1.6508  0.4946  0.3817
  129OSM   C11S13779   3.299   5.637   3.781 -0.4018  0.9012  0.3492
  129OSM   H11S13780   3.207   5.586   3.816  0.5445 -0.5358  0.8702
  129OSM   H11T13781   3.283   5.746   3.770  0.1038  0.8814 -0.7819
  129OSM   C12S13782   3.411   5.628   3.887  1.1369 -0.7049 -0.1158
  129OSM   H12S13783   3.490   5.701   3.860  0.5455 -0.7478 -2.0906
  129OSM   H12T13784   3.448   5.524   3.874  1.9051 -0.2188 -2.3260
  129OSM   C13S13785   3.365   5.648   4.030 -0.0128  0.1638  0.2816
  129OSM   H13S13786   3.290   5.567   4.047 -0.3800  0.4178 -0.0984
  129OSM   H13T13787   3.315   5.747   4.033 -3.3276 -1.2652 -1.8147
  129OSM   C14S13788   3.477   5.628   4.133 -0.2440  0.1641  0.0046
  129OSM   H14S13789   3.554   5.707   4.133 -0.8373  0.8099  1.8329
  129OSM   H14T13790   3.519   5.527   4.115  1.9779  1.0514 -0.1120
  129OSM   C15S13791   3.423   5.621   4.271  0.7178  0.4446  0.5705
  129OSM   H15S13792   3.343   5.544   4.275  1.0325 -0.0477 -1.5021
  129OSM   H15T13793   3.380   5.719   4.300  3.3966  1.2950  2.0984
  129OSM   C16S13794   3.540   5.592   4.373  0.7655 -0.4996 -0.0207
  129OSM   H16S13795   3.619   5.667   4.349  0.9129 -0.1086  1.5976
  129OSM   H16T13796   3.586   5.492   4.356  1.2053 -0.1766 -0.8270
  129OSM   C17S13797   3.496   5.600   4.524 -0.1115 -0.4596 -0.5238
  129OSM   H17S13798   3.418   5.678   4.539 -0.6185 -0.8452 -1.1178
  129OSM   H17T13799   3.586   5.635   4.578  0.3472 -0.3487 -1.3373
  129OSM   C18S13800   3.446   5.469   4.584  0.0856 -0.0383 -0.7264
  129OSM   H18S13801   3.367   5.426   4.520  0.2682  1.3428 -1.9262
  129OSM   H18T13802   3.405   5.513   4.678 -1.5173  0.2190 -1.5215
  129OSM   H18U13803   3.528   5.396   4.602 -0.8000 -0.8232  0.2231
  129OSM    C1F13804   2.730   5.771   3.089 -0.1478  0.3183 -0.1955
  129OSM     OF13805   2.622   5.715   3.078  0.5539 -0.0455 -0.6936
  129OSM    C2F13806   2.756   5.889   3.182 -0.2035  0.6625 -0.2730
  129OSM    H2F13807   2.691   5.975   3.158  1.2699  1.3624 -1.9504
  129OSM    H2G13808   2.861   5.922   3.165  0.8935 -2.2607  0.1809
  129OSM    C3F13809   2.709   5.845   3.321 -0.4708  0.0211  0.0011
  129OSM    H3F13810   2.769   5.755   3.348 -0.6840 -0.6725 -1.7410
  129OSM    H3G13811   2.604   5.808   3.326 -0.6761  0.4683 -0.8133
  129OSM    C4F13812   2.728   5.951   3.430  0.0257 -0.0148  0.1152
  129OSM    H4F13813   2.628   5.977   3.471  0.2727 -0.1250  0.7972
  129OSM    H4G13814   2.772   6.039   3.379 -1.2318  0.7126  0.2379
  129OSM    C5F13815   2.843   5.914   3.539 -0.1469 -0.0107  0.0322
  129OSM    H5F13816   2.934   5.884   3.482 -1.9129  0.3964 -3.2492
  129OSM    H5G13817   2.801   5.838   3.608  0.7956  0.3924  1.0890
  129OSM    C6F13818   2.879   6.024   3.642  0.7789  0.1796  0.2870
  129OSM    H6F13819   2.786   6.075   3.676 -0.5318 -2.3093  0.5953
  129OSM    H6G13820   2.956   6.091   3.598  2.4398 -1.5003  0.4988
  129OSM    C7F13821   2.939   5.960   3.758  0.0992  0.6469  0.5085
  129OSM    H7F13822   3.021   5.896   3.722 -0.7658  0.6036 -1.4877
  129OSM    H7G13823   2.868   5.889   3.806  0.1017  0.0833 -0.3114
  129OSM    C8F13824   2.998   6.063   3.855  0.4116 -0.3462 -0.8433
  129OSM    H8F13825   2.924   6.138   3.888  0.5353 -0.2613 -0.7612
  129OSM    H8G13826   3.080   6.121   3.806  0.9252  0.5831  1.0244
  129OSM    C9F13827   3.045   5.979   3.971 -0.5554 -0.0464  0.4669
  129OSM    H9F13828   3.116   5.901   3.940 -3.1784 -2.5983  0.3924
  129OSM   C10F13829   3.019   5.989   4.104  0.1442  0.6595 -0.0810
  129OSM   H10F13830   3.047   5.914   4.180 -2.2314 -0.6073 -0.3739
  129OSM   C11F13831   2.935   6.097   4.168 -0.3227 -0.0966  0.5572
  129OSM   H11F13832   2.826   6.076   4.175 -1.0390  2.6565 -0.9395
  129OSM   H11G13833   2.936   6.187   4.103  1.1180 -0.7740 -0.4008
  129OSM   C12F13834   2.975   6.149   4.309  0.3850  0.3826  0.8522
  129OSM   H12F13835   3.068   6.209   4.305  1.3669 -1.1295  0.1945
  129OSM   H12G13836   3.008   6.060   4.367  1.4831  0.9971  1.1991
  129OSM   C13F13837   2.858   6.227   4.376 -0.5900 -0.5369 -0.6149
  129OSM   H13F13838   2.754   6.189   4.372 -1.3039  1.3373 -0.7750
  129OSM   H13G13839   2.858   6.322   4.320  0.3008 -1.0641 -1.5280
  129OSM   C14F13840   2.885   6.263   4.527  0.7774  0.0036  0.2873
  129OSM   H14F13841   2.798   6.307   4.580  1.0107  0.4300  0.3193
  129OSM   H14G13842   2.967   6.337   4.534  0.7851  0.0189  0.0529
  129OSM   C15F13843   2.924   6.141   4.616 -0.1509  0.3675  0.2766
  129OSM   H15F13844   2.953   6.181   4.715  1.1224  0.0501  0.0454
  129OSM   H15G13845   3.015   6.091   4.578  0.7354  0.2805  2.4232
  129OSM   C16F13846   2.816   6.030   4.634  0.0579 -0.5486 -0.1473
  129OSM   H16F13847   2.860   5.951   4.699  0.7692  0.3511  0.4775
  129OSM   H16G13848   2.794   5.980   4.537  1.0893  0.5719 -0.9823
  129OSM   C17F13849   2.684   6.087   4.692 -0.0452  0.2972  0.0200
  129OSM   H17F13850   2.644   6.165   4.623 -1.0212  0.1083  0.3634
  129OSM   H17G13851   2.713   6.128   4.791  1.3857  1.2348 -0.7405
  129OSM   C18F13852   2.582   5.974   4.712  0.0646  0.1044 -0.2789
  129OSM   H18F13853   2.584   5.906   4.624 -0.5335  0.6130 -0.6953
  129OSM   H18G13854   2.478   6.005   4.736 -1.3885 -5.2049  1.7277
  129OSM   H18H13855   2.616   5.909   4.795  2.0050 -0.0009 -1.1132
  130OSM      N13856   5.789   0.799   2.296  0.1857  0.1549 -0.0497
  130OSM    C1513857   5.860   0.902   2.214  0.1823 -0.2255 -0.2995
  130OSM   H15A13858   5.963   0.882   2.188  0.1641 -1.0805  0.2418
  130OSM   H15B13859   5.872   0.991   2.275  0.3781  1.0662 -2.1385
  130OSM   H15C13860   5.806   0.916   2.122  1.2770  2.7393 -0.5937
  130OSM    C1413861   5.657   0.852   2.334  0.5674  0.0697 -0.4301
  130OSM   H14A13862   5.604   0.880   2.245 -0.7602 -0.6200  0.1255
  130OSM   H14B13863   5.659   0.937   2.401 -1.7430  0.1031 -0.3317
  130OSM   H14C13864   5.602   0.771   2.378  2.1079 -0.6350  0.2821
  130OSM    C1313865   5.762   0.680   2.205  0.3191 -0.0407 -0.3007
  130OSM   H13A13866   5.686   0.713   2.135 -1.6620  1.8281  2.5177
  130OSM   H13B13867   5.720   0.595   2.256  1.8446  1.0731  3.1277
  130OSM   H13C13868   5.853   0.657   2.150  0.7710  1.2230 -0.1237
  130OSM    C1213869   5.871   0.762   2.417 -0.5560 -0.7569 -0.2704
  130OSM   H12A13870   5.969   0.736   2.382  0.1347  0.7784  0.4205
  130OSM   H12B13871   5.839   0.671   2.466  0.5273 -1.6926 -1.2612
  130OSM    C1113872   5.892   0.866   2.532 -0.1309  0.2320 -0.6213
  130OSM   H11A13873   5.922   0.806   2.621 -0.1958 -0.2542 -0.9257
  130OSM   H11B13874   5.802   0.920   2.568  0.0504 -0.0509  0.2871
  130OSM      P13875   5.996   1.115   2.537 -0.1324  0.0764  0.0699
  130OSM    O1313876   6.092   1.177   2.444 -1.3020  0.1728 -0.3569
  130OSM    O1413877   5.860   1.174   2.518  0.5030 -0.2073  0.2547
  130OSM    O1113878   6.036   1.147   2.678  0.7886 -0.8705  0.2412
  130OSM    O1213879   5.999   0.955   2.502  0.3748 -0.0353 -0.1080
  130OSM    C1S13880   6.067   1.035   2.772  0.2310 -0.2527 -0.1435
  130OSM    H1S13881   6.111   0.945   2.723 -0.5243  0.5984 -2.5332
  130OSM    H1T13882   5.971   1.007   2.819  0.6323 -1.5092 -0.0292
  130OSM     NF13883   6.170   0.969   2.980  0.6733  0.2001 -0.0566
  130OSM    HNF13884   6.125   0.968   3.070  0.3402  1.0890 -0.2057
  130OSM    C2S13885   6.156   1.083   2.886 -0.6668 -0.0743  0.0538
  130OSM    H2S13886   6.254   1.105   2.838 -1.1687  1.4661 -0.3281
  130OSM    C3S13887   6.101   1.211   2.955 -0.7168 -0.1563 -0.2303
  130OSM    H3S13888   6.003   1.193   3.003  1.3268  1.1861  5.2062
  130OSM     O313889   6.078   1.320   2.862 -0.2286 -0.0351 -0.3915
  130OSM    HO313890   6.116   1.284   2.782  0.4521  1.4507 -0.7734
  130OSM    C4S13891   6.198   1.255   3.071  0.1369 -0.1300 -0.4701
  130OSM    H4S13892   6.158   1.214   3.164  0.0762  0.7792 -0.0962
  130OSM    C5S13893   6.298   1.346   3.083 -0.0143 -0.1311 -0.2238
  130OSM    H5S13894   6.333   1.391   2.989  0.8228  1.2717  0.7181
  130OSM    C6S13895   6.377   1.380   3.207 -0.6504  0.1968 -0.6908
  130OSM    H6S13896   6.454   1.457   3.187 -0.2103 -0.7252 -2.7749
  130OSM    H6T13897   6.428   1.300   3.266 -0.1768  1.2666  0.4063
  130OSM    C7S13898   6.292   1.456   3.309  0.7406 -0.3150 -0.5681
  130OSM    H7S13899   6.208   1.393   3.345  1.3134 -0.1966  1.0750
  130OSM    H7T13900   6.239   1.539   3.257  0.8148 -1.2068 -2.1300
  130OSM    C8S13901   6.375   1.524   3.421  0.0916  0.2784  0.1308
  130OSM    H8S13902   6.449   1.586   3.366  0.2837 -0.4315 -0.4298
  130OSM    H8T13903   6.417   1.440   3.480 -1.2708 -0.7632 -0.3436
  130OSM    C9S13904   6.296   1.620   3.509 -0.0393  0.1982 -0.1190
  130OSM    H9S13905   6.189   1.597   3.529 -0.3979  2.4740  0.8409
  130OSM    H9T13906   6.301   1.725   3.473  0.8775  0.0581 -0.4267
  130OSM   C10S13907   6.357   1.624   3.652  0.8178  0.6625 -0.0974
  130OSM   H10S13908   6.467   1.616   3.638  0.8749  0.4043  0.4752
  130OSM   H10T13909   6.333   1.528   3.702  0.8706 -0.6071 -2.3726
  130OSM   C11S13910   6.319   1.743   3.725  1.0536  0.5039  0.3290
  130OSM   H11S13911   6.220   1.780   3.692 -0.1252 -1.1325  1.8453
  130OSM   H11T13912   6.380   1.830   3.692 -0.3511  0.6868 -1.9740
  130OSM   C12S13913   6.321   1.724   3.878  0.0840 -0.3217 -0.5344
  130OSM   H12S13914   6.265   1.629   3.895 -1.4773  0.8116  0.9926
  130OSM   H12T13915   6.280   1.810   3.933 -1.1789  0.4642 -2.5879
  130OSM   C13S13916   6.469   1.700   3.926  0.7468  0.1904 -0.6064
  130OSM   H13S13917   6.522   1.793   3.897  1.3023 -0.1271 -0.6116
  130OSM   H13T13918   6.505   1.607   3.877  0.7741  1.3775 -2.9937
  130OSM   C14S13919   6.488   1.690   4.076 -0.4414  0.2359 -0.5215
  130OSM   H14S13920   6.421   1.764   4.125  0.6900  0.3967  0.8213
  130OSM   H14T13921   6.594   1.708   4.104 -0.2565  0.2530 -1.2019
  130OSM   C15S13922   6.445   1.549   4.133  0.3108  0.8168  0.5892
  130OSM   H15S13923   6.523   1.474   4.108  0.3003  0.8685  0.4049
  130OSM   H15T13924   6.350   1.516   4.085  0.5972 -2.1504  1.8444
  130OSM   C16S13925   6.426   1.567   4.284  0.7857  0.1922  0.2426
  130OSM   H16S13926   6.347   1.644   4.299  1.1333  0.4924  0.5185
  130OSM   H16T13927   6.514   1.611   4.335  0.0505  0.0985  1.6535
  130OSM   C17S13928   6.381   1.433   4.346 -0.3778  0.1186  1.0280
  130OSM   H17S13929   6.462   1.360   4.328 -0.5435  0.5010 -1.5954
  130OSM   H17T13930   6.291   1.404   4.288 -0.3176  1.5092  0.1948
  130OSM   C18S13931   6.355   1.435   4.497 -0.2273  0.4054  0.6943
  130OSM   H18S13932   6.297   1.345   4.525 -0.3490  0.1688 -0.2778
  130OSM   H18T13933   6.291   1.519   4.532 -2.8555 -1.3352  0.3448
  130OSM   H18U13934   6.454   1.431   4.547  0.3134 -1.9903 -0.4111
  130OSM    C1F13935   6.237   0.849   2.959  0.0858 -0.0717 -0.6803
  130OSM     OF13936   6.293   0.820   2.855  0.2994 -0.3946 -0.0432
  130OSM    C2F13937   6.235   0.748   3.077  0.5076  0.1234  0.0884
  130OSM    H2F13938   6.267   0.652   3.031  0.4480 -0.3768  1.0712
  130OSM    H2G13939   6.135   0.762   3.122  0.5547  1.5079 -0.1900
  130OSM    C3F13940   6.346   0.782   3.178  0.5518  0.6374  0.2770
  130OSM    H3F13941   6.442   0.810   3.130  0.6638 -2.3436 -1.4709
  130OSM    H3G13942   6.371   0.687   3.230 -1.5892 -0.4553 -0.5404
  130OSM    C4F13943   6.293   0.885   3.284 -0.3688  1.0919 -0.4233
  130OSM    H4F13944   6.201   0.851   3.335  0.5071 -2.0457 -0.7083
  130OSM    H4G13945   6.263   0.978   3.232 -1.7502  1.9511  1.7431
  130OSM    C5F13946   6.393   0.923   3.393 -0.3328  0.3935 -0.4696
  130OSM    H5F13947   6.469   0.990   3.347 -0.7094 -0.7354 -2.8749
  130OSM    H5G13948   6.444   0.848   3.457 -0.3559  0.8233  0.0653
  130OSM    C6F13949   6.322   1.019   3.490  0.2194 -0.0298  0.3372
  130OSM    H6F13950   6.245   0.968   3.552 -0.7157  0.7619 -0.1526
  130OSM    H6G13951   6.271   1.089   3.421  0.1051  0.2706  0.7227
  130OSM    C7F13952   6.412   1.100   3.582 -0.2176 -0.6227  0.4800
  130OSM    H7F13953   6.494   1.134   3.515 -0.3743  2.6393  1.7396
  130OSM    H7G13954   6.463   1.038   3.659 -0.3057 -1.2349  0.0475
  130OSM    C8F13955   6.342   1.217   3.652  0.1439 -0.2908 -0.3023
  130OSM    H8F13956   6.287   1.274   3.574 -0.2117 -0.6295 -0.3024
  130OSM    H8G13957   6.410   1.297   3.688 -1.7954  0.9169  0.8504
  130OSM    C9F13958   6.250   1.160   3.757 -0.8419  0.1265  0.2852
  130OSM    H9F13959   6.161   1.109   3.716 -0.5917 -0.5685  0.5954
  130OSM   C10F13960   6.272   1.159   3.890  0.1255  0.4404  0.5913
  130OSM   H10F13961   6.195   1.117   3.955  0.2212  0.9544  1.0488
  130OSM   C11F13962   6.391   1.226   3.966 -0.0448  0.0547  0.9350
  130OSM   H11F13963   6.355   1.309   4.031 -0.9336 -0.5206  1.1923
  130OSM   H11G13964   6.469   1.261   3.895 -2.1858  1.1284 -1.0373
  130OSM   C12F13965   6.458   1.128   4.065 -0.7916  0.9995 -0.4745
  130OSM   H12F13966   6.531   1.187   4.124  0.0323  0.6187 -1.0862
  130OSM   H12G13967   6.504   1.045   4.007 -0.9884  1.4779 -1.3496
  130OSM   C13F13968   6.353   1.098   4.166 -0.3822  0.8192 -0.3044
  130OSM   H13F13969   6.283   1.032   4.110 -1.7828 -0.2950  2.5518
  130OSM   H13G13970   6.303   1.193   4.195  0.4570  1.6759 -1.5677
  130OSM   C14F13971   6.407   1.017   4.286  0.5290  0.2727  0.5822
  130OSM   H14F13972   6.465   1.081   4.356  2.6421  0.3703 -1.1528
  130OSM   H14G13973   6.478   0.935   4.263  1.8345  0.8004  2.5238
  130OSM   C15F13974   6.281   0.972   4.370 -1.0408  0.0882 -0.5154
  130OSM   H15F13975   6.208   0.918   4.307  0.7283 -0.9533 -1.7765
  130OSM   H15G13976   6.226   1.064   4.399  0.0041  0.2823  0.9598
  130OSM   C16F13977   6.323   0.898   4.504  0.1570  1.2219  0.0820
  130OSM   H16F13978   6.391   0.961   4.565 -0.2089  0.8848  0.8528
  130OSM   H16G13979   6.383   0.814   4.465  0.5688  0.8016  1.5877
  130OSM   C17F13980   6.192   0.857   4.579  0.2574 -0.1091 -0.2600
  130OSM   H17F13981   6.161   0.766   4.522  0.1834 -0.7522  0.7743
  130OSM   H17G13982   6.102   0.922   4.579 -1.8366 -2.7980  1.1115
  130OSM   C18F13983   6.220   0.807   4.718  0.0352  0.1376  0.0714
  130OSM   H18F13984   6.246   0.893   4.784 -1.6672  0.2325  0.6644
  130OSM   H18G13985   6.297   0.728   4.715 -0.3007 -0.1732 -0.4448
  130OSM   H18H13986   6.128   0.758   4.754 -0.2753  1.3506  1.0072
  131OSM      N13987   5.784   5.438   2.442 -0.3800 -0.6137 -0.1738
  131OSM    C1513988   5.859   5.312   2.431 -0.1006  0.0700  0.2738
  131OSM   H15A13989   5.963   5.334   2.453 -0.0925  1.2240 -0.7849
  131OSM   H15B13990   5.863   5.268   2.333 -1.3320  0.0034  0.2431
  131OSM   H15C13991   5.820   5.252   2.512 -1.6578  3.4398  2.2682
  131OSM    C1413992   5.867   5.545   2.367 -0.5105 -0.0699 -0.1193
  131OSM   H14A13993   5.968   5.553   2.403 -0.1639 -1.8162 -0.5910
  131OSM   H14B13994   5.821   5.643   2.374 -0.4765 -0.1426  1.4692
  131OSM   H14C13995   5.889   5.520   2.264  0.4345 -2.3642  0.5872
  131OSM    C1313996   5.659   5.415   2.368  0.3062  0.2158  0.1592
  131OSM   H13A13997   5.587   5.495   2.358  0.5493  0.3826 -0.2668
  131OSM   H13B13998   5.617   5.325   2.412  1.0946 -1.4782 -2.3113
  131OSM   H13C13999   5.671   5.380   2.266  0.0892  3.0728 -0.9352
  131OSM    C1214000   5.757   5.486   2.583 -0.2895  0.5237  0.3529
  131OSM   H12A14001   5.672   5.435   2.625 -1.0216  1.7678  0.4430
  131OSM   H12B14002   5.714   5.585   2.583  0.4090  0.8334  0.3993
  131OSM    C1114003   5.877   5.492   2.681  0.0840  0.0513 -1.1006
  131OSM   H11A14004   5.905   5.384   2.682 -1.0865 -0.2974 -2.3396
  131OSM   H11B14005   5.834   5.533   2.775 -0.5641  0.2202 -1.4648
  131OSM      P14006   6.002   5.732   2.684  0.4832  0.1941  0.5451
  131OSM    O1314007   6.140   5.769   2.657  0.2711 -0.1864 -0.1226
  131OSM    O1414008   5.899   5.820   2.626 -0.5311 -0.5725  0.7779
  131OSM    O1114009   5.986   5.735   2.838 -0.3935  0.4057 -0.3068
  131OSM    O1214010   5.979   5.588   2.629  0.3370  1.0396 -0.1379
  131OSM    C1S14011   6.052   5.634   2.917  0.6837 -0.8904 -0.1908
  131OSM    H1S14012   6.150   5.597   2.881  1.4215  1.0889 -0.3308
  131OSM    H1T14013   5.982   5.549   2.932 -0.8537  0.1588 -1.0683
  131OSM     NF14014   6.162   5.580   3.130  0.0280  0.4626 -0.1534
  131OSM    HNF14015   6.102   5.507   3.160  0.7880  0.2560  0.8941
  131OSM    C2S14016   6.078   5.684   3.065  0.8175  0.0520 -0.0380
  131OSM    H2S14017   6.138   5.777   3.064  0.1832  0.4681 -0.9200
  131OSM    C3S14018   5.944   5.710   3.128  0.4465  0.3198 -0.0651
  131OSM    H3S14019   5.874   5.625   3.112 -0.2307  1.1750 -1.9647
  131OSM     O314020   5.872   5.821   3.072  0.0665  0.8961 -0.1544
  131OSM    HO314021   5.914   5.832   2.986  2.7793 -0.5691  0.8486
  131OSM    C4S14022   5.957   5.746   3.268 -0.0707  0.0168  0.0059
  131OSM    H4S14023   5.963   5.854   3.286  0.1147 -0.1472  0.9427
  131OSM    C5S14024   5.950   5.663   3.370  0.0971  0.3928 -0.0986
  131OSM    H5S14025   5.939   5.557   3.346  1.1941  0.7034 -2.1959
  131OSM    C6S14026   5.947   5.701   3.514  0.5032 -0.8024 -0.0231
  131OSM    H6S14027   6.029   5.643   3.562  0.1274 -0.4177  1.1306
  131OSM    H6T14028   5.852   5.669   3.562  2.0618 -1.8778  2.5802
  131OSM    C7S14029   5.979   5.844   3.557 -0.3916 -0.7015 -0.5388
  131OSM    H7S14030   5.927   5.925   3.500 -0.8697 -1.1633 -0.7690
  131OSM    H7T14031   6.086   5.867   3.540 -0.1010 -1.0687  0.6907
  131OSM    C8S14032   5.943   5.867   3.704 -0.5242  0.1591 -0.1849
  131OSM    H8S14033   6.003   5.950   3.746 -0.3683  1.5395 -2.9077
  131OSM    H8T14034   5.966   5.780   3.769  0.0355 -0.2477 -0.9172
  131OSM    C9S14035   5.797   5.905   3.721  0.3447  0.5531 -0.2657
  131OSM    H9S14036   5.726   5.839   3.666  0.5634  2.0811 -2.5402
  131OSM    H9T14037   5.779   5.997   3.662 -3.9261 -0.7252 -1.3093
  131OSM   C10S14038   5.762   5.895   3.874  0.4950 -0.3841  0.2182
  131OSM   H10S14039   5.797   5.795   3.907 -0.4278 -0.8312 -0.1202
  131OSM   H10T14040   5.652   5.903   3.887  0.5600  1.5919 -0.1648
  131OSM   C11S14041   5.825   6.013   3.953  0.1293  0.1478 -0.1703
  131OSM   H11S14042   5.783   6.107   3.910 -0.6570 -0.1430 -0.0541
  131OSM   H11T14043   5.935   6.008   3.937  0.3594  1.1280  0.9759
  131OSM   C12S14044   5.804   5.990   4.108 -0.9240  0.0235 -0.4103
  131OSM   H12S14045   5.890   6.025   4.170 -0.3446 -0.8139 -0.7246
  131OSM   H12T14046   5.817   5.880   4.105  0.8821  0.2199 -1.0435
  131OSM   C13S14047   5.671   6.037   4.163 -0.7124  0.8293  0.4910
  131OSM   H13S14048   5.589   6.014   4.092 -1.0674  1.6580  0.6160
  131OSM   H13T14049   5.663   6.146   4.186 -1.7329  0.8429  0.1159
  131OSM   C14S14050   5.640   5.955   4.293 -0.1370 -0.0598  0.3137
  131OSM   H14S14051   5.635   5.846   4.275 -0.0660 -0.1730  0.9647
  131OSM   H14T14052   5.536   5.985   4.319 -0.1245  0.0924  0.1908
  131OSM   C15S14053   5.732   5.982   4.413 -0.9587  1.3813 -0.2668
  131OSM   H15S14054   5.741   6.091   4.435  2.1188  0.9202  1.3825
  131OSM   H15T14055   5.839   5.970   4.386 -1.1172 -0.2531 -0.2717
  131OSM   C16S14056   5.700   5.892   4.532  0.0220 -0.3200  0.5598
  131OSM   H16S14057   5.749   5.794   4.515  0.8132  0.1930 -0.2397
  131OSM   H16T14058   5.590   5.875   4.535  0.2039 -2.0782 -0.8030
  131OSM   C17S14059   5.753   5.933   4.677  0.0792  0.4478 -0.2055
  131OSM   H17S14060   5.864   5.931   4.668 -0.0571  0.4023 -2.4249
  131OSM   H17T14061   5.714   5.852   4.742 -1.9652  0.3917 -1.3950
  131OSM   C18S14062   5.712   6.073   4.728  0.3776  0.6403 -0.0807
  131OSM   H18S14063   5.760   6.086   4.827  1.6241 -1.2501 -0.3959
  131OSM   H18T14064   5.604   6.076   4.753  0.9728 -0.5368  3.0946
  131OSM   H18U14065   5.730   6.157   4.658  0.2694  1.8916  1.3395
  131OSM    C1F14066   6.285   5.554   3.092 -0.2056  0.1503  0.6590
  131OSM     OF14067   6.356   5.635   3.035 -0.9669  0.0024 -0.3948
  131OSM    C2F14068   6.340   5.412   3.108  0.2548 -0.3510 -0.5655
  131OSM    H2F14069   6.430   5.414   3.044 -0.1367  1.0607 -1.1035
  131OSM    H2G14070   6.260   5.349   3.064 -1.9845  2.5657 -1.0029
  131OSM    C3F14071   6.382   5.351   3.242  0.5103  0.1649  0.2788
  131OSM    H3F14072   6.377   5.240   3.239 -1.1593  0.1496  1.7588
  131OSM    H3G14073   6.306   5.381   3.317 -1.2222  0.7824 -1.6188
  131OSM    C4F14074   6.508   5.419   3.302 -0.3250  0.8472 -0.0177
  131OSM    H4F14075   6.481   5.527   3.309  0.1128  0.9411  0.2552
  131OSM    H4G14076   6.600   5.421   3.241  0.0949  0.5805  0.6038
  131OSM    C5F14077   6.523   5.381   3.454 -0.6494  0.6307 -0.9054
  131OSM    H5F14078   6.519   5.270   3.463 -0.9959  0.6875 -0.2770
  131OSM    H5G14079   6.427   5.409   3.502 -1.0894 -1.6128 -0.3823
  131OSM    C6F14080   6.628   5.462   3.523 -0.2790  0.3359 -0.1691
  131OSM    H6F14081   6.600   5.569   3.533  0.8263  0.8007 -1.5749
  131OSM    H6G14082   6.713   5.460   3.451  0.8404 -2.2012  1.0807
  131OSM    C7F14083   6.694   5.409   3.656  0.6019 -0.5617 -0.1023
  131OSM    H7F14084   6.740   5.495   3.708 -1.2047  0.1370  0.3873
  131OSM    H7G14085   6.765   5.325   3.635  0.1123 -0.5985 -1.7644
  131OSM    C8F14086   6.585   5.353   3.752  0.0427 -0.3272  0.0884
  131OSM    H8F14087   6.535   5.266   3.705 -0.9474  1.0940 -1.6210
  131OSM    H8G14088   6.509   5.433   3.746  1.4828  1.1820  1.0817
  131OSM    C9F14089   6.637   5.330   3.889 -0.2989 -1.3495 -0.0529
  131OSM    H9F14090   6.722   5.392   3.924 -1.7106  0.6536  0.0035
  131OSM   C10F14091   6.581   5.241   3.968  0.1673  0.0668 -0.4457
  131OSM   H10F14092   6.624   5.216   4.066  0.4822 -1.0867 -0.8716
  131OSM   C11F14093   6.474   5.141   3.926  0.3682 -0.0778 -0.3328
  131OSM   H11F14094   6.507   5.058   3.861 -0.1974  0.2167 -1.0054
  131OSM   H11G14095   6.383   5.187   3.881 -0.4718 -0.2161  1.1665
  131OSM   C12F14096   6.418   5.071   4.054  0.0261  0.8405  0.5971
  131OSM   H12F14097   6.494   5.012   4.110 -2.4894 -2.8189  0.4628
  131OSM   H12G14098   6.355   4.990   4.012  1.4758  0.0053 -0.0648
  131OSM   C13F14099   6.332   5.168   4.128 -0.5271 -0.2825  0.3768
  131OSM   H13F14100   6.305   5.255   4.065 -0.6349 -0.2882  0.4156
  131OSM   H13G14101   6.394   5.211   4.210  0.3936 -0.5734 -0.1412
  131OSM   C14F14102   6.196   5.109   4.175 -0.2563  0.1556 -0.0917
  131OSM   H14F14103   6.218   5.027   4.247  0.4530 -1.5021 -2.1016
  131OSM   H14G14104   6.147   5.059   4.089  1.2063  0.4310 -1.1341
  131OSM   C15F14105   6.099   5.218   4.230 -0.3235  0.0001  0.0085
  131OSM   H15F14106   5.994   5.181   4.238 -1.3189  2.7401  1.0420
  131OSM   H15G14107   6.102   5.307   4.163 -0.2042  1.4915  1.8986
  131OSM   C16F14108   6.146   5.266   4.367 -0.2041  0.6697 -0.4558
  131OSM   H16F14109   6.249   5.307   4.355  0.0457 -0.5066 -3.0430
  131OSM   H16G14110   6.146   5.191   4.449  0.2040 -1.4380 -2.2534
  131OSM   C17F14111   6.057   5.380   4.413 -0.5652  0.3870  0.5363
  131OSM   H17F14112   5.951   5.347   4.413 -0.4389 -0.0375  1.2144
  131OSM   H17G14113   6.070   5.460   4.337 -1.0395  0.3475  0.4096
  131OSM   C18F14114   6.103   5.434   4.546  0.2334 -1.2331 -0.5126
  131OSM   H18F14115   6.103   5.370   4.637 -0.8310 -0.4516  0.0657
  131OSM   H18G14116   6.023   5.507   4.573 -1.2509 -3.3734  1.3327
  131OSM   H18H14117   6.197   5.493   4.539 -0.0962 -0.7681 -1.1663
  132OSM      N14118   4.235   6.227   3.003 -0.2532 -0.1659  0.1956
  132OSM    C1514119   4.375   6.239   3.045  0.1728  0.0984  1.0178
  132OSM   H15A14120   4.438   6.181   2.978 -1.0201 -1.7858  1.4491
  132OSM   H15B14121   4.390   6.204   3.146 -1.2131  0.2090  1.2759
  132OSM   H15C14122   4.417   6.339   3.044 -0.1470  0.2376 -0.7572
  132OSM    C1414123   4.201   6.080   2.984  0.3400 -0.3925 -0.0932
  132OSM   H14A14124   4.094   6.081   2.966  0.0982  0.1686  1.2133
  132OSM   H14B14125   4.213   6.012   3.067  1.5660  2.1078  1.9311
  132OSM   H14C14126   4.257   6.041   2.901 -1.1287 -1.9462 -0.4019
  132OSM    C1314127   4.152   6.280   3.118 -1.0172  0.4640  1.2480
  132OSM   H13A14128   4.161   6.384   3.144  0.4452  0.3640  1.2127
  132OSM   H13B14129   4.186   6.218   3.200  1.3487 -2.0569 -1.4082
  132OSM   H13C14130   4.048   6.257   3.103 -1.1197  2.0583 -0.7385
  132OSM    C1214131   4.196   6.321   2.885 -0.3549  0.2310  0.0684
  132OSM   H12A14132   4.091   6.303   2.870 -0.3747  0.1391  0.3099
  132OSM   H12B14133   4.251   6.277   2.803 -1.6099 -0.5459 -0.3928
  132OSM    C1114134   4.223   6.471   2.884 -0.2467  0.1151 -0.4209
  132OSM   H11A14135   4.160   6.514   2.964 -0.6403  0.9828 -1.1857
  132OSM   H11B14136   4.181   6.516   2.791 -0.6867  0.3113 -0.1282
  132OSM      P14137   4.439   6.582   3.001  0.0785 -0.0800  0.0196
  132OSM    O1314138   4.570   6.520   3.034  0.3636  0.7472 -0.5434
  132OSM    O1414139   4.442   6.718   2.951  0.3802  0.2613  0.1128
  132OSM    O1114140   4.345   6.568   3.129 -0.0100  0.6019 -0.1517
  132OSM    O1214141   4.364   6.495   2.893  0.2119 -0.2914 -0.2143
  132OSM    C1S14142   4.400   6.592   3.251  0.5836  0.3967 -0.2975
  132OSM    H1S14143   4.510   6.609   3.257  0.6950  0.0019 -1.0287
  132OSM    H1T14144   4.382   6.503   3.315  0.2422  0.2258 -0.6290
  132OSM     NF14145   4.387   6.759   3.437  0.1103 -0.3044 -0.1070
  132OSM    HNF14146   4.333   6.747   3.519  1.7154 -3.1419  0.6680
  132OSM    C2S14147   4.326   6.716   3.310 -0.5543  0.6867  0.1859
  132OSM    H2S14148   4.344   6.797   3.237 -0.1313 -0.1427 -0.6448
  132OSM    C3S14149   4.172   6.695   3.322  0.1271  0.0884  0.2602
  132OSM    H3S14150   4.146   6.618   3.398 -0.2259  0.9511  1.0202
  132OSM     O314151   4.098   6.665   3.204 -0.2410  0.2234 -0.1384
  132OSM    HO314152   4.170   6.665   3.140 -1.0902  0.6685 -1.1295
  132OSM    C4S14153   4.113   6.824   3.380 -0.1756 -0.4651 -0.2678
  132OSM    H4S14154   4.084   6.826   3.486 -1.8797  1.4868 -0.6922
  132OSM    C5S14155   4.063   6.934   3.310 -0.3649  0.5273  0.2791
  132OSM    H5S14156   4.059   6.930   3.200  1.1546 -0.8790  0.2358
  132OSM    C6S14157   3.995   7.049   3.386 -0.2905 -0.6714  0.6824
  132OSM    H6S14158   3.902   7.082   3.333 -0.1758 -2.8592 -1.0230
  132OSM    H6T14159   4.075   7.126   3.378 -0.3254 -0.7864 -1.2442
  132OSM    C7S14160   3.966   7.027   3.530 -0.0213 -0.0592 -0.3493
  132OSM    H7S14161   4.051   6.990   3.591 -1.1299 -0.2231  1.1489
  132OSM    H7T14162   3.876   6.962   3.528  0.8376 -1.2843 -1.2201
  132OSM    C8S14163   3.917   7.150   3.605  0.4940  0.1335  0.1054
  132OSM    H8S14164   3.830   7.204   3.563  1.1329 -0.0113 -1.4775
  132OSM    H8T14165   3.998   7.225   3.595  1.0322 -0.1001  2.2770
  132OSM    C9S14166   3.909   7.132   3.757  0.0208  0.2118  0.4594
  132OSM    H9S14167   4.006   7.087   3.788  0.1631  0.8095  0.9063
  132OSM    H9T14168   3.825   7.060   3.772 -0.2186 -0.3375 -2.8496
  132OSM   C10S14169   3.875   7.271   3.821 -0.7076  0.3512 -0.1402
  132OSM   H10S14170   3.793   7.305   3.755 -2.0069  0.4789  1.4854
  132OSM   H10T14171   3.965   7.336   3.814  0.3330 -1.1423 -1.5616
  132OSM   C11S14172   3.823   7.257   3.965  0.3979  0.0867 -0.6592
  132OSM   H11S14173   3.727   7.201   3.967 -0.5101  1.5934  1.2575
  132OSM   H11T14174   3.805   7.362   3.998  1.1439 -0.3049  1.1052
  132OSM   C12S14175   3.921   7.196   4.065 -0.5797 -0.4005 -0.0177
  132OSM   H12S14176   4.021   7.243   4.053 -0.3002 -1.0227 -0.1977
  132OSM   H12T14177   3.949   7.093   4.033  0.6850 -0.2699  0.5804
  132OSM   C13S14178   3.876   7.207   4.211  0.7396  0.1590  0.2744
  132OSM   H13S14179   3.766   7.193   4.211  0.7855 -0.2275  0.8441
  132OSM   H13T14180   3.888   7.309   4.253  2.2108  1.0624 -2.1264
  132OSM   C14S14181   3.949   7.106   4.298 -0.3127 -0.1705  0.2169
  132OSM   H14S14182   4.055   7.139   4.302 -0.5273  0.9956 -2.0168
  132OSM   H14T14183   3.938   7.004   4.257 -0.1085 -0.1736  0.1670
  132OSM   C15S14184   3.896   7.113   4.440 -0.3002  0.5406  0.2103
  132OSM   H15S14185   3.799   7.059   4.449  1.2665 -2.5793 -0.2621
  132OSM   H15T14186   3.880   7.219   4.471  1.3964  0.9851 -0.3098
  132OSM   C16S14187   3.991   7.054   4.546  0.1812  0.5009 -0.2673
  132OSM   H16S14188   4.095   7.091   4.554 -0.3517  1.6853  3.1354
  132OSM   H16T14189   4.002   6.949   4.513 -1.6548  0.2996 -0.3583
  132OSM   C17S14190   3.919   7.049   4.688 -0.3278 -0.3437 -0.9147
  132OSM   H17S14191   3.814   7.014   4.675 -0.3777  0.3224 -2.6132
  132OSM   H17T14192   3.926   7.156   4.714 -0.7734 -0.8332  1.3845
  132OSM   C18S14193   4.004   6.963   4.783  0.3213  0.1008  0.2509
  132OSM   H18S14194   3.996   6.992   4.889  2.7496  2.7224 -0.1513
  132OSM   H18T14195   4.111   6.969   4.751 -0.3018  1.3656 -1.8359
  132OSM   H18U14196   3.974   6.857   4.768 -0.9466  0.2634  1.5104
  132OSM    C1F14197   4.510   6.804   3.461 -0.2042  0.1366  0.8346
  132OSM     OF14198   4.582   6.836   3.370  0.3096 -0.4656  0.6314
  132OSM    C2F14199   4.540   6.828   3.605  0.3887  0.4654 -0.7634
  132OSM    H2F14200   4.530   6.735   3.664  0.4134  0.5108 -0.6886
  132OSM    H2G14201   4.452   6.886   3.641  0.2337 -1.5533  2.5372
  132OSM    C3F14202   4.673   6.889   3.638 -0.2170 -0.6660  0.1804
  132OSM    H3F14203   4.676   6.995   3.602 -1.5082  0.2400  2.5120
  132OSM    H3G14204   4.756   6.842   3.582 -0.9678 -1.0116 -0.6407
  132OSM    C4F14205   4.699   6.885   3.791  0.7321  0.2940  0.1952
  132OSM    H4F14206   4.709   6.778   3.819 -1.9139  0.2993  1.4536
  132OSM    H4G14207   4.609   6.933   3.835  0.6304 -0.4077  0.7733
  132OSM    C5F14208   4.819   6.975   3.830  0.0900  0.3782 -0.2849
  132OSM    H5F14209   4.811   7.084   3.811 -0.2557  0.4574  0.3074
  132OSM    H5G14210   4.905   6.937   3.771  0.2208  1.4923 -0.8436
  132OSM    C6F14211   4.861   6.943   3.976  0.4172  0.2702  0.4179
  132OSM    H6F14212   4.967   6.975   3.988  0.0104  1.3104  1.5092
  132OSM    H6G14213   4.860   6.833   3.987  1.2284 -0.0773 -2.2820
  132OSM    C7F14214   4.780   7.020   4.075  1.1373  0.3156  0.1619
  132OSM    H7F14215   4.671   7.003   4.063  0.9323 -0.0150  2.1799
  132OSM    H7G14216   4.790   7.126   4.044 -1.4261  0.1861 -1.3619
  132OSM    C8F14217   4.826   6.989   4.215 -0.1908 -0.1868  0.0165
  132OSM    H8F14218   4.937   6.989   4.214 -0.1761  0.4764  0.8789
  132OSM    H8G14219   4.808   6.886   4.251  0.8943 -0.0063  1.1209
  132OSM    C9F14220   4.757   7.081   4.309  0.7674  0.3726 -0.1043
  132OSM    H9F14221   4.676   7.142   4.267  0.3387 -0.2363 -0.1683
  132OSM   C10F14222   4.779   7.081   4.447  0.2551  0.1268 -0.1603
  132OSM   H10F14223   4.726   7.153   4.510 -0.9625 -1.7214  1.0211
  132OSM   C11F14224   4.872   6.994   4.534  0.6070 -0.1998  0.3204
  132OSM   H11F14225   4.949   7.052   4.588  1.1429 -1.1263  0.5753
  132OSM   H11G14226   4.933   6.917   4.482 -1.1194 -1.6447  0.3215
  132OSM   C12F14227   4.778   6.927   4.633  0.0031  0.2808  0.0780
  132OSM   H12F14228   4.725   6.840   4.589  0.8597 -0.7204  0.9610
  132OSM   H12G14229   4.698   6.990   4.677 -1.7016 -1.2409 -0.6981
  132OSM   C13F14230   4.855   6.876   4.750 -0.4463 -0.1985 -0.7598
  132OSM   H13F14231   4.906   6.964   4.796 -0.8053 -0.8050  0.8772
  132OSM   H13G14232   4.924   6.794   4.721  0.4251  0.1291  0.2861
  132OSM   C14F14233   4.764   6.815   4.859 -0.6991 -0.1607  0.4008
  132OSM   H14F14234   4.749   6.706   4.844  0.0887  0.0649 -2.8921
  132OSM   H14G14235   4.659   6.852   4.856 -0.5008  0.3535 -1.0291
  132OSM   C15F14236   4.822   6.846   4.999  0.0659 -1.4832 -0.4117
  132OSM   H15F14237   4.800   6.955   5.009  1.0094 -1.2639 -0.5916
  132OSM   H15G14238   4.932   6.831   4.993  0.1151 -0.8861 -1.0956
  132OSM   C16F14239   4.737   6.796   5.119  0.3376 -0.0994 -0.2478
  132OSM   H16F14240   4.724   6.687   5.100  2.4849 -0.3059 -0.8218
  132OSM   H16G14241   4.642   6.853   5.112  0.0960 -0.6583 -1.7944
  132OSM   C17F14242   4.799   6.826   5.246  0.3299 -0.5447 -0.1396
  132OSM   H17F14243   4.829   6.932   5.238 -0.3791 -0.3778 -0.7710
  132OSM   H17G14244   4.889   6.762   5.261  1.3929  1.4593  3.2305
  132OSM   C18F14245   4.704   6.792   5.368  0.6734 -0.0853  0.1657
  132OSM   H18F14246   4.659   6.694   5.345 -1.0414  0.9192 -1.0219
  132OSM   H18G14247   4.628   6.873   5.378  0.6192 -0.0467 -0.5484
  132OSM   H18H14248   4.763   6.794   5.463  1.0591  1.8013 -0.0693
  133OSM      N14249   4.725   0.555   2.493  0.2117 -0.0303 -0.3578
  133OSM    C1514250   4.721   0.647   2.381 -0.4148 -0.0877  0.2701
  133OSM   H15A14251   4.652   0.729   2.386 -0.3161  0.0574 -0.6362
  133OSM   H15B14252   4.690   0.589   2.295  0.6753 -2.5739  1.4221
  133OSM   H15C14253   4.818   0.685   2.351 -0.2208 -1.8251 -1.5023
  133OSM    C1414254   4.817   0.447   2.471 -0.3850  0.3524  0.2013
  133OSM   H14A14255   4.824   0.383   2.558  0.7335 -1.7040 -1.3118
  133OSM   H14B14256   4.911   0.491   2.443 -1.0425  0.1892 -2.5276
  133OSM   H14C14257   4.783   0.382   2.391 -0.5617  0.4962  0.1594
  133OSM    C1314258   4.789   0.623   2.610  0.3507 -1.0056  0.1327
  133OSM   H13A14259   4.791   0.549   2.688 -1.0687 -0.2554  0.9164
  133OSM   H13B14260   4.722   0.705   2.632 -1.4324 -2.4045  0.0750
  133OSM   H13C14261   4.886   0.658   2.578  0.1781  1.1039  1.6872
  133OSM    C1214262   4.589   0.508   2.539  0.4968  0.0289 -0.7032
  133OSM   H12A14263   4.529   0.468   2.458 -0.4205 -1.9271  0.8546
  133OSM   H12B14264   4.542   0.600   2.573  0.1566 -0.4936  0.2930
  133OSM    C1114265   4.589   0.397   2.646 -0.2691  0.6896 -0.0231
  133OSM   H11A14266   4.643   0.309   2.605  0.0222  0.8396  0.0402
  133OSM   H11B14267   4.488   0.361   2.676 -1.1259  1.6320 -1.6123
  133OSM      P14268   4.577   0.520   2.872 -0.5308  0.2246 -0.3178
  133OSM    O1314269   4.677   0.565   2.970 -0.2246  0.0078  0.4366
  133OSM    O1414270   4.488   0.622   2.817 -0.3900  0.3341 -0.9073
  133OSM    O1114271   4.484   0.415   2.946  0.0854  0.3224 -0.0031
  133OSM    O1214272   4.656   0.441   2.761 -0.3194  0.8483 -0.4045
  133OSM    C1S14273   4.545   0.299   3.015 -0.6528 -0.3223 -0.2213
  133OSM    H1S14274   4.644   0.282   2.967  0.1008 -0.5558  1.3708
  133OSM    H1T14275   4.483   0.208   3.004  0.0995 -1.1839  2.1759
  133OSM     NF14276   4.655   0.239   3.223  0.3359 -0.1163 -0.1768
  133OSM    HNF14277   4.627   0.161   3.278  3.0782  0.2710  2.0293
  133OSM    C2S14278   4.557   0.329   3.166  0.6205 -0.0150 -0.1711
  133OSM    H2S14279   4.581   0.437   3.170 -0.7704  0.2891  2.3270
  133OSM    C3S14280   4.416   0.309   3.223 -0.6159 -0.8008 -0.0651
  133OSM    H3S14281   4.384   0.204   3.206  0.7121 -1.0395 -1.2110
  133OSM     O314282   4.323   0.395   3.163  0.3088 -0.0622 -0.2116
  133OSM    HO314283   4.362   0.421   3.078 -0.1535 -0.0364 -0.4212
  133OSM    C4S14284   4.420   0.331   3.370 -0.0247  0.0304 -0.4423
  133OSM    H4S14285   4.457   0.254   3.439 -3.6436 -1.0461  0.5188
  133OSM    C5S14286   4.381   0.447   3.435 -0.2662  0.1621 -0.1628
  133OSM    H5S14287   4.352   0.533   3.373 -2.3035 -0.8153 -0.6513
  133OSM    C6S14288   4.392   0.470   3.582  0.5709 -0.5093  0.2194
  133OSM    H6S14289   4.323   0.547   3.623 -0.1650 -0.3973 -1.1821
  133OSM    H6T14290   4.490   0.522   3.590 -1.0219  2.7954  0.0664
  133OSM    C7S14291   4.379   0.348   3.676  0.1779  0.5371  0.2916
  133OSM    H7S14292   4.473   0.288   3.675 -0.9554 -1.3281 -0.3386
  133OSM    H7T14293   4.305   0.277   3.632 -0.1810  1.8687 -1.3556
  133OSM    C8S14294   4.355   0.399   3.816 -0.6537  0.5398 -0.1596
  133OSM    H8S14295   4.252   0.441   3.816 -1.3356 -1.0053 -1.3537
  133OSM    H8T14296   4.431   0.479   3.824  1.3451 -1.0509 -1.9240
  133OSM    C9S14297   4.384   0.299   3.934  0.1501 -0.4519  0.0543
  133OSM    H9S14298   4.490   0.272   3.917 -0.0222 -3.4193  2.6803
  133OSM    H9T14299   4.307   0.219   3.931 -0.9990  0.6157  0.2000
  133OSM   C10S14300   4.368   0.368   4.073 -0.3466  0.1532 -0.1433
  133OSM   H10S14301   4.274   0.427   4.069 -0.5910 -0.2219  0.0565
  133OSM   H10T14302   4.446   0.447   4.080 -0.1229  0.0278 -1.1097
  133OSM   C11S14303   4.390   0.271   4.189 -0.0835 -0.1070  0.4093
  133OSM   H11S14304   4.476   0.206   4.164  0.4763  0.1426  1.6068
  133OSM   H11T14305   4.294   0.215   4.190  0.0804 -0.5000 -1.5603
  133OSM   C12S14306   4.413   0.336   4.328 -0.1588 -0.7865 -0.0113
  133OSM   H12S14307   4.329   0.408   4.334  1.6723  1.3620  2.1881
  133OSM   H12T14308   4.503   0.399   4.313  1.8521 -3.3576  0.5259
  133OSM   C13S14309   4.424   0.243   4.445  0.5635 -0.6699 -0.4308
  133OSM   H13S14310   4.516   0.181   4.454  0.1761 -1.3555 -1.1351
  133OSM   H13T14311   4.337   0.174   4.445  0.4503 -0.5339 -0.9531
  133OSM   C14S14312   4.423   0.333   4.572 -0.2260 -0.1600 -0.2273
  133OSM   H14S14313   4.340   0.407   4.576  0.3835  0.5349 -0.0324
  133OSM   H14T14314   4.522   0.385   4.571 -0.4482  0.2800 -2.0321
  133OSM   C15S14315   4.404   0.246   4.702  0.0830  0.0427 -0.0151
  133OSM   H15S14316   4.469   0.156   4.704  0.5562  0.3858  0.0711
  133OSM   H15T14317   4.299   0.210   4.694 -0.0441  0.2244  0.7894
  133OSM   C16S14318   4.427   0.330   4.832  0.4153 -0.2540 -0.9640
  133OSM   H16S14319   4.359   0.417   4.838  1.7981  0.8028  0.3101
  133OSM   H16T14320   4.528   0.377   4.825  0.5861 -0.5581 -0.5729
  133OSM   C17S14321   4.404   0.255   4.957 -0.0577  0.1614  0.0906
  133OSM   H17S14322   4.454   0.155   4.962 -2.7900 -1.2841  0.6544
  133OSM   H17T14323   4.301   0.214   4.966  0.3237 -0.8280  0.1405
  133OSM   C18S14324   4.434   0.331   5.081 -0.2869 -0.2790 -0.4409
  133OSM   H18S14325   4.545   0.339   5.089 -0.2145 -1.4149 -0.2062
  133OSM   H18T14326   4.415   0.273   5.174  1.5491 -0.7232 -0.3008
  133OSM   H18U14327   4.392   0.434   5.087  0.5342  0.0379 -0.0075
  133OSM    C1F14328   4.792   0.257   3.203 -0.1504  0.1883  0.3091
  133OSM     OF14329   4.836   0.355   3.140 -0.2485  0.1937 -0.4191
  133OSM    C2F14330   4.879   0.171   3.283 -1.3966  0.2617  0.1475
  133OSM    H2F14331   4.916   0.081   3.230  0.1268  1.1437 -0.3229
  133OSM    H2G14332   4.831   0.129   3.374  1.7148  0.5630  2.0696
  133OSM    C3F14333   5.015   0.238   3.318 -0.6625 -0.1560 -0.5290
  133OSM    H3F14334   4.994   0.319   3.391  3.4042 -0.6505  1.4246
  133OSM    H3G14335   5.053   0.291   3.228  1.7773 -0.1954  0.4086
  133OSM    C4F14336   5.140   0.159   3.358  0.0151  0.1994  0.9725
  133OSM    H4F14337   5.189   0.124   3.264  1.6709  0.2614  1.7663
  133OSM    H4G14338   5.096   0.079   3.422  1.8688 -1.7597 -0.0475
  133OSM    C5F14339   5.239   0.249   3.432  0.7479 -0.7724  0.5029
  133OSM    H5F14340   5.182   0.283   3.520 -1.3357 -1.7135 -0.4236
  133OSM    H5G14341   5.262   0.334   3.364  0.5115 -1.8937 -1.0326
  133OSM    C6F14342   5.361   0.172   3.453  1.0702 -0.1922 -0.1938
  133OSM    H6F14343   5.394   0.153   3.349  0.1554 -0.1205 -0.5091
  133OSM    H6G14344   5.342   0.072   3.497  1.2288 -0.6086 -1.0453
  133OSM    C7F14345   5.473   0.243   3.530 -0.2756 -0.4141 -0.2502
  133OSM    H7F14346   5.459   0.352   3.513 -1.4586 -0.3375  1.0739
  133OSM    H7G14347   5.571   0.223   3.481  0.8026  2.6561  0.3720
  133OSM    C8F14348   5.471   0.221   3.678 -0.4597  0.3695 -1.1023
  133OSM    H8F14349   5.385   0.286   3.703 -1.2007  1.0260 -4.7241
  133OSM    H8G14350   5.558   0.266   3.730  0.5241 -1.5614 -0.9946
  133OSM    C9F14351   5.460   0.075   3.723  0.1941 -0.6977 -0.9872
  133OSM    H9F14352   5.358   0.035   3.734 -0.4164  0.9219 -0.4293
  133OSM   C10F14353   5.561  -0.002   3.764  0.2165  0.1394 -0.5379
  133OSM   H10F14354   5.538  -0.101   3.806  3.3964 -0.0265  1.0418
  133OSM   C11F14355   5.704   0.040   3.778 -0.8573 -0.7463  0.4302
  133OSM   H11F14356   5.715   0.139   3.727 -0.5152 -0.8198  0.3595
  133OSM   H11G14357   5.768  -0.029   3.719  0.9248  1.9399 -1.0407
  133OSM   C12F14358   5.752   0.051   3.919 -0.0141  1.2642  0.2456
  133OSM   H12F14359   5.857   0.087   3.922 -0.2325  1.8645  0.7177
  133OSM   H12G14360   5.764  -0.052   3.958  0.4476 -0.5511 -4.0897
  133OSM   C13F14361   5.673   0.142   4.008  0.0338  0.1916 -0.1066
  133OSM   H13F14362   5.603   0.077   4.064  2.0390 -1.3224  0.7585
  133OSM   H13G14363   5.604   0.207   3.950 -1.8597 -2.5526 -1.1232
  133OSM   C14F14364   5.766   0.217   4.108 -0.4385  0.6561  0.1649
  133OSM   H14F14365   5.823   0.283   4.040 -1.2378 -0.1222 -1.3097
  133OSM   H14G14366   5.829   0.148   4.168 -3.0445 -1.8752  0.2077
  133OSM   C15F14367   5.686   0.298   4.205  0.1010  0.0243  0.2970
  133OSM   H15F14368   5.654   0.226   4.284  1.7433  0.0680  1.0329
  133OSM   H15G14369   5.601   0.350   4.155  0.1075  1.2717  1.5182
  133OSM   C16F14370   5.766   0.398   4.285 -0.5318 -0.3918  0.0988
  133OSM   H16F14371   5.697   0.471   4.334  1.4653  1.5926  0.1237
  133OSM   H16G14372   5.836   0.458   4.224 -1.2905 -0.6621 -1.0739
  133OSM   C17F14373   5.837   0.319   4.401  0.0897  0.2846  0.3496
  133OSM   H17F14374   5.935   0.274   4.376  0.3114  0.2216  1.3067
  133OSM   H17G14375   5.764   0.246   4.442 -2.1094 -0.5749 -4.3744
  133OSM   C18F14376   5.879   0.418   4.517 -0.0531 -0.1485  0.4939
  133OSM   H18F14377   5.916   0.360   4.604 -0.0599 -1.9629 -0.6797
  133OSM   H18G14378   5.786   0.467   4.552 -0.0594 -1.3565  2.3015
  133OSM   H18H14379   5.952   0.494   4.482  2.1386 -1.4588  1.9902
  134OSM      N14380   2.180   0.583   2.215 -0.6281  0.3680 -0.1751
  134OSM    C1514381   2.195   0.434   2.205 -0.0322 -1.0374 -0.0775
  134OSM   H15A14382   2.177   0.386   2.300  1.3378 -0.4698  0.4984
  134OSM   H15B14383   2.296   0.405   2.179  0.5150  1.2731 -0.7247
  134OSM   H15C14384   2.131   0.390   2.130  1.0019 -0.2360 -1.4813
  134OSM    C1414385   2.273   0.634   2.114 -0.1960  0.3894  0.1881
  134OSM   H14A14386   2.259   0.578   2.023 -0.9761  1.0389 -0.0982
  134OSM   H14B14387   2.378   0.622   2.137  0.0605  1.8240 -0.1537
  134OSM   H14C14388   2.258   0.738   2.092 -0.1601  0.8049  1.9691
  134OSM    C1314389   2.037   0.621   2.186 -0.2961 -0.1269  0.3191
  134OSM   H13A14390   2.028   0.727   2.165  0.0560 -0.2862 -0.7383
  134OSM   H13B14391   1.975   0.608   2.273 -0.0246 -3.1026  0.1717
  134OSM   H13C14392   2.003   0.573   2.095  0.1093  0.0614  0.0607
  134OSM    C1214393   2.219   0.625   2.357 -0.0315 -0.0977  0.2865
  134OSM   H12A14394   2.218   0.732   2.369  0.6740 -0.1129  0.5690
  134OSM   H12B14395   2.322   0.592   2.371 -0.2364  0.0126  2.4886
  134OSM    C1114396   2.137   0.562   2.474  1.2806 -0.6607  0.6211
  134OSM   H11A14397   2.205   0.589   2.558  2.6872 -1.9870 -0.0334
  134OSM   H11B14398   2.129   0.451   2.477  1.4040 -0.6706  0.6159
  134OSM      P14399   1.956   0.755   2.537  0.0850 -0.0385  0.1844
  134OSM    O1314400   2.044   0.865   2.486  0.0866  0.0535  0.0739
  134OSM    O1414401   1.809   0.769   2.512 -0.0222  0.2445 -0.6696
  134OSM    O1114402   1.996   0.734   2.687  0.4499 -0.1248  0.1246
  134OSM    O1214403   2.004   0.623   2.477 -0.7707  1.0060  0.0841
  134OSM    C1S14404   1.919   0.646   2.775  0.2017  0.3142  0.1543
  134OSM    H1S14405   1.959   0.542   2.772 -1.3947 -0.3712  1.2238
  134OSM    H1T14406   1.814   0.642   2.738  0.0891 -1.0305  0.5719
  134OSM     NF14407   1.802   0.608   2.984  0.3513  1.0911  0.2247
  134OSM    HNF14408   1.705   0.633   2.985 -0.3336 -0.8667 -2.7156
  134OSM    C2S14409   1.883   0.699   2.917  0.3694  0.0986 -0.2768
  134OSM    H2S14410   1.984   0.689   2.964  0.6753 -1.3464 -1.1687
  134OSM    C3S14411   1.833   0.845   2.906 -0.0405  0.0824  0.0973
  134OSM    H3S14412   1.737   0.838   2.849 -0.7678 -2.2435  1.4647
  134OSM     O314413   1.914   0.944   2.854 -0.4650 -0.6614 -0.0533
  134OSM    HO314414   1.985   0.895   2.811 -0.5181 -0.3111 -0.5405
  134OSM    C4S14415   1.804   0.884   3.046 -0.1721 -0.1617 -0.7182
  134OSM    H4S14416   1.882   0.867   3.121 -0.4475 -0.1707 -0.4290
  134OSM    C5S14417   1.690   0.942   3.088 -0.1332  0.2489  0.1954
  134OSM    H5S14418   1.632   0.976   3.001  1.6168  3.1940  0.0473
  134OSM    C6S14419   1.656   1.001   3.219  0.2070 -0.5795 -0.2345
  134OSM    H6S14420   1.559   0.960   3.253  0.2613 -0.7225 -0.2513
  134OSM    H6T14421   1.639   1.109   3.199 -1.0687 -1.1360 -2.5659
  134OSM    C7S14422   1.753   0.984   3.341  0.6708  0.5240  0.3131
  134OSM    H7S14423   1.849   1.036   3.325  0.3048  1.4380  1.0357
  134OSM    H7T14424   1.762   0.873   3.340 -3.4739 -0.0214 -1.5120
  134OSM    C8S14425   1.699   1.040   3.467  0.5519 -0.5685  0.1114
  134OSM    H8S14426   1.615   0.985   3.514  1.0997  0.6304  2.7086
  134OSM    H8T14427   1.663   1.144   3.450 -1.0518 -1.3460 -1.6354
  134OSM    C9S14428   1.801   1.052   3.576 -0.1588  0.0449 -0.4430
  134OSM    H9S14429   1.889   1.111   3.540  0.7353 -1.0670 -0.1289
  134OSM    H9T14430   1.827   0.948   3.606 -0.7043 -0.4875 -1.7337
  134OSM   C10S14431   1.736   1.126   3.697 -0.4969 -0.3560  0.5391
  134OSM   H10S14432   1.640   1.082   3.729 -0.1922 -0.9238  0.6977
  134OSM   H10T14433   1.697   1.220   3.653 -1.0178 -2.5821 -4.4655
  134OSM   C11S14434   1.838   1.149   3.812 -0.1332  0.2885  0.7006
  134OSM   H11S14435   1.929   1.201   3.775 -0.0859  1.4206  2.2613
  134OSM   H11T14436   1.868   1.046   3.839  1.3261  0.5142  0.0084
  134OSM   C12S14437   1.794   1.239   3.927  0.4714 -0.3379 -0.2191
  134OSM   H12S14438   1.691   1.212   3.960  1.0493 -0.4888  1.5459
  134OSM   H12T14439   1.786   1.342   3.886  2.7154 -0.3573 -0.8295
  134OSM   C13S14440   1.871   1.215   4.054 -0.6160 -0.4236 -0.2346
  134OSM   H13S14441   1.977   1.237   4.030 -0.6662 -0.3501 -0.3894
  134OSM   H13T14442   1.866   1.107   4.079  0.1590 -0.2745  0.6153
  134OSM   C14S14443   1.828   1.317   4.166 -0.5331  0.1196 -0.6505
  134OSM   H14S14444   1.718   1.304   4.178 -0.4351  0.1810  0.4476
  134OSM   H14T14445   1.838   1.419   4.123  2.3864 -0.4861 -1.5990
  134OSM   C15S14446   1.912   1.309   4.299  0.3744 -0.9114  0.4573
  134OSM   H15S14447   2.018   1.341   4.289 -0.1220  0.8361  0.4608
  134OSM   H15T14448   1.915   1.205   4.338  1.8020 -0.8778  0.4857
  134OSM   C16S14449   1.845   1.390   4.405  0.0824  0.4593 -1.0006
  134OSM   H16S14450   1.740   1.360   4.425  0.1722  0.6237 -0.2268
  134OSM   H16T14451   1.844   1.498   4.381 -0.5008  0.4513 -1.0348
  134OSM   C17S14452   1.913   1.380   4.538  0.3141  0.1939  0.0122
  134OSM   H17S14453   1.872   1.461   4.603 -1.8255 -0.5420 -0.3566
  134OSM   H17T14454   2.024   1.388   4.535  0.5186 -0.5725  2.6832
  134OSM   C18S14455   1.890   1.238   4.598 -0.0062 -0.1868  0.1866
  134OSM   H18S14456   1.916   1.145   4.543  1.0357 -1.6913  3.0170
  134OSM   H18T14457   1.779   1.232   4.599 -0.1751  1.4791 -1.8079
  134OSM   H18U14458   1.924   1.237   4.704  1.7662  0.4813 -0.3450
  134OSM    C1F14459   1.829   0.492   3.038 -0.2027  0.0018  0.7307
  134OSM     OF14460   1.938   0.442   3.016 -0.4479 -0.1053 -0.0340
  134OSM    C2F14461   1.711   0.432   3.111  0.4858  0.2025 -0.3872
  134OSM    H2F14462   1.686   0.336   3.060  0.5364 -0.5166  0.9016
  134OSM    H2G14463   1.629   0.506   3.104  0.4542  0.4064  1.5717
  134OSM    C3F14464   1.746   0.392   3.258  0.4177 -0.2440  0.5119
  134OSM    H3F14465   1.831   0.321   3.264  0.3146 -0.3157  1.2169
  134OSM    H3G14466   1.653   0.345   3.299  1.4348 -2.0337  0.8634
  134OSM    C4F14467   1.759   0.511   3.351 -1.0095  0.0080  0.0735
  134OSM    H4F14468   1.656   0.539   3.383 -1.4181  2.0138 -2.7052
  134OSM    H4G14469   1.811   0.589   3.292 -0.9851  1.3083  1.7152
  134OSM    C5F14470   1.841   0.481   3.473 -1.5416 -0.1099  0.2966
  134OSM    H5F14471   1.938   0.440   3.440 -1.0476 -0.1596  1.7140
  134OSM    H5G14472   1.806   0.385   3.519 -0.3581 -0.4677  0.4926
  134OSM    C6F14473   1.851   0.598   3.564  0.8344 -0.1092  0.3282
  134OSM    H6F14474   1.744   0.621   3.583 -0.3386 -1.4193 -3.6591
  134OSM    H6G14475   1.904   0.679   3.510  1.6731 -0.4851  0.5862
  134OSM    C7F14476   1.914   0.568   3.705 -0.4288  0.5005 -0.7158
  134OSM    H7F14477   2.003   0.506   3.682 -1.0580 -1.5655  1.8576
  134OSM    H7G14478   1.846   0.500   3.761 -1.3190  0.9184 -1.2599
  134OSM    C8F14479   1.951   0.694   3.792 -0.1962  0.0717  0.4305
  134OSM    H8F14480   2.006   0.762   3.724  1.4628  3.2893  4.5321
  134OSM    H8G14481   2.024   0.674   3.873  0.4929 -0.5123 -0.3231
  134OSM    C9F14482   1.820   0.749   3.839  0.2604 -0.1491  0.2002
  134OSM    H9F14483   1.748   0.755   3.756  0.2806  0.0615  0.1979
  134OSM   C10F14484   1.786   0.803   3.958  0.0647 -0.1732 -0.4041
  134OSM   H10F14485   1.690   0.855   3.965 -0.0401 -0.2782 -0.9796
  134OSM   C11F14486   1.876   0.804   4.086  0.6150  0.5838  0.7693
  134OSM   H11F14487   1.871   0.905   4.131 -2.6177  1.5035 -1.3046
  134OSM   H11G14488   1.983   0.790   4.058  0.7782  1.3466  0.9985
  134OSM   C12F14489   1.826   0.700   4.187  0.2363 -0.3192  0.3122
  134OSM   H12F14490   1.809   0.604   4.135 -0.6089 -0.5975  1.0719
  134OSM   H12G14491   1.729   0.731   4.232  1.7875  1.9572  2.4352
  134OSM   C13F14492   1.922   0.683   4.312 -0.4681 -0.3832  0.4136
  134OSM   H13F14493   2.020   0.648   4.275 -0.4695 -2.2833  1.9931
  134OSM   H13G14494   1.875   0.609   4.381  0.6513 -2.1692 -0.6559
  134OSM   C14F14495   1.943   0.810   4.400 -0.3955 -0.8750 -0.1452
  134OSM   H14F14496   1.845   0.840   4.443 -0.7540 -2.0115 -0.1464
  134OSM   H14G14497   1.957   0.893   4.327 -3.3476 -0.1906 -0.0282
  134OSM   C15F14498   2.058   0.804   4.508  0.9825 -0.8243 -0.8018
  134OSM   H15F14499   2.092   0.909   4.521  1.6638 -0.8176 -2.4077
  134OSM   H15G14500   2.144   0.758   4.455  1.4142 -0.5423 -0.3500
  134OSM   C16F14501   2.021   0.716   4.630  0.0627 -0.3171  0.0238
  134OSM   H16F14502   2.106   0.708   4.701  0.5229  2.4458 -0.1190
  134OSM   H16G14503   2.011   0.622   4.571 -0.3982  1.0055 -2.1186
  134OSM   C17F14504   1.892   0.749   4.708 -0.0032  0.3514 -0.1732
  134OSM   H17F14505   1.887   0.684   4.798  2.1651 -0.0084 -0.2677
  134OSM   H17G14506   1.807   0.722   4.642 -0.2559  1.5761 -0.3659
  134OSM   C18F14507   1.892   0.890   4.756 -0.0774 -0.3321 -0.4906
  134OSM   H18F14508   1.793   0.942   4.759 -0.2977 -0.7697 -0.0043
  134OSM   H18G14509   1.955   0.947   4.684 -1.8129 -0.6670 -2.3605
  134OSM   H18H14510   1.950   0.890   4.851 -0.8042  0.3898 -0.0320
  135OSM      N14511   3.867   2.798   2.665  0.3048  0.2624  0.1637
  135OSM    C1514512   3.837   2.945   2.639 -0.2884 -0.4512  0.6490
  135OSM   H15A14513   3.755   2.991   2.691  0.1035  1.1873 -0.1115
  135OSM   H15B14514   3.809   2.949   2.534 -2.4528  1.2210  1.2224
  135OSM   H15C14515   3.926   3.005   2.653 -0.1045  0.7418 -3.9730
  135OSM    C1414516   3.734   2.737   2.636 -0.3894 -0.5971 -0.1403
  135OSM   H14A14517   3.648   2.788   2.677 -1.2353 -3.0954  1.4247
  135OSM   H14B14518   3.728   2.638   2.679 -0.7489 -0.3235  0.4643
  135OSM   H14C14519   3.717   2.730   2.530  3.0163 -1.3225 -0.7492
  135OSM    C1314520   3.969   2.739   2.577  0.2963  0.3133  0.0956
  135OSM   H13A14521   4.070   2.764   2.608 -0.1256 -0.5630  2.4466
  135OSM   H13B14522   3.954   2.767   2.474 -0.0770  1.7164  0.5150
  135OSM   H13C14523   3.977   2.632   2.588 -1.6613  0.1519  0.2292
  135OSM    C1214524   3.912   2.785   2.807  0.1465 -0.6379 -0.2257
  135OSM   H12A14525   3.861   2.855   2.872  0.0064  0.7175 -1.7449
  135OSM   H12B14526   4.016   2.810   2.822  0.0934  0.7033 -1.8374
  135OSM    C1114527   3.881   2.651   2.882  0.4103  0.0615  0.7898
  135OSM   H11A14528   3.773   2.630   2.868  0.3573  1.3121 -0.9832
  135OSM   H11B14529   3.890   2.653   2.993 -2.2282  0.2590  1.0705
  135OSM      P14530   4.112   2.530   2.841 -0.1873 -0.0611 -0.2394
  135OSM    O1314531   4.154   2.406   2.773  0.3068 -0.7407  0.1409
  135OSM    O1414532   4.173   2.652   2.781  0.5219 -0.2243  0.0621
  135OSM    O1114533   4.152   2.510   2.996 -0.0684  0.4975  0.0940
  135OSM    O1214534   3.954   2.543   2.836 -0.3019 -0.1626 -0.3255
  135OSM    C1S14535   4.084   2.402   3.068  0.1613 -0.1183  0.3475
  135OSM    H1S14536   4.126   2.300   3.056  0.6641  0.0064  0.9834
  135OSM    H1T14537   3.975   2.408   3.047  0.2170  1.4451  0.3519
  135OSM     NF14538   4.048   2.304   3.296  1.0074  0.7683 -0.3934
  135OSM    HNF14539   3.958   2.317   3.336  0.5164  1.6067 -1.7091
  135OSM    C2S14540   4.086   2.424   3.230 -0.1929 -0.4207 -0.1037
  135OSM    H2S14541   4.195   2.439   3.239  0.0262  0.1321 -2.7480
  135OSM    C3S14542   4.019   2.559   3.276 -0.2214  0.3380 -0.8089
  135OSM    H3S14543   3.912   2.546   3.251 -0.7359 -1.8101  2.0083
  135OSM     O314544   4.056   2.666   3.192 -0.2176  0.0433 -0.4138
  135OSM    HO314545   4.098   2.634   3.112 -0.2756  0.3871 -0.5820
  135OSM    C4S14546   4.019   2.590   3.429  1.0080 -0.5172  0.3215
  135OSM    H4S14547   4.117   2.584   3.477  1.6419  0.4181 -0.7970
  135OSM    C5S14548   3.905   2.630   3.489  0.3904  0.6130 -0.2272
  135OSM    H5S14549   3.814   2.650   3.431  1.3164  1.4893 -1.4294
  135OSM    C6S14550   3.889   2.670   3.633  0.2750 -0.8867  0.0638
  135OSM    H6S14551   3.889   2.781   3.646 -0.5193 -1.0158  1.3683
  135OSM    H6T14552   3.967   2.636   3.704 -0.2568  0.2611  1.2550
  135OSM    C7S14553   3.745   2.627   3.688 -0.6949 -0.2656 -0.1366
  135OSM    H7S14554   3.751   2.518   3.670 -0.1692 -0.3451  0.4866
  135OSM    H7T14555   3.654   2.662   3.634 -0.7923 -1.4684 -0.7909
  135OSM    C8S14556   3.742   2.650   3.846  0.4698  1.1304  0.0589
  135OSM    H8S14557   3.825   2.591   3.891 -0.9165 -2.8660 -2.1169
  135OSM    H8T14558   3.656   2.592   3.885  0.7951 -0.0817 -0.9533
  135OSM    C9S14559   3.739   2.797   3.877  0.0491 -0.1578 -0.4910
  135OSM    H9S14560   3.667   2.849   3.810  0.6940 -0.3637 -1.3661
  135OSM    H9T14561   3.833   2.855   3.862  1.6203 -2.3211  0.5106
  135OSM   C10S14562   3.705   2.832   4.022  0.1565  0.6647  0.1237
  135OSM   H10S14563   3.768   2.776   4.094 -0.4959  0.2641  0.3901
  135OSM   H10T14564   3.602   2.794   4.042  0.3241  1.1049  1.9926
  135OSM   C11S14565   3.718   2.982   4.064 -0.7201 -0.1475  0.0385
  135OSM   H11S14566   3.664   3.050   3.995  0.6127 -0.0419 -0.9244
  135OSM   H11T14567   3.826   3.005   4.050 -0.6789 -0.8427 -0.8593
  135OSM   C12S14568   3.683   3.022   4.214 -0.5362  0.7961 -0.0092
  135OSM   H12S14569   3.583   3.068   4.195 -0.6323 -0.3137 -2.6145
  135OSM   H12T14570   3.751   3.096   4.261 -1.6072  0.8599  1.5134
  135OSM   C13S14571   3.668   2.904   4.308 -0.5111  0.2529 -0.7695
  135OSM   H13S14572   3.758   2.839   4.309 -0.4452  0.3209  1.0997
  135OSM   H13T14573   3.584   2.840   4.274  0.1925 -1.2290  0.1789
  135OSM   C14S14574   3.626   2.941   4.462 -0.1687  0.2394  0.2480
  135OSM   H14S14575   3.726   2.951   4.509  0.0073 -1.3958  0.2880
  135OSM   H14T14576   3.563   2.859   4.501  1.2123 -1.3323 -0.6897
  135OSM   C15S14577   3.554   3.075   4.474  0.3713  0.2917  0.0725
  135OSM   H15S14578   3.455   3.082   4.426 -0.4781  1.2048  1.8736
  135OSM   H15T14579   3.615   3.153   4.424 -0.5623  0.0307 -1.5180
  135OSM   C16S14580   3.527   3.115   4.623  0.1759 -0.2737 -0.5464
  135OSM   H16S14581   3.515   3.225   4.622  2.9136  0.1340  1.2312
  135OSM   H16T14582   3.619   3.090   4.680  0.3887  2.1131  0.2659
  135OSM   C17S14583   3.407   3.058   4.699  0.1154 -0.5061 -0.1312
  135OSM   H17S14584   3.392   2.956   4.656 -0.8951 -0.1201 -0.7022
  135OSM   H17T14585   3.321   3.123   4.678  1.5404  1.2843 -0.6424
  135OSM   C18S14586   3.439   3.039   4.847 -0.1243 -0.5319 -0.0571
  135OSM   H18S14587   3.529   2.975   4.860 -0.5980 -1.0889  0.5688
  135OSM   H18T14588   3.347   2.988   4.881  1.2312 -1.8970  1.7459
  135OSM   H18U14589   3.460   3.134   4.902  0.2057 -0.3506 -0.4885
  135OSM    C1F14590   4.108   2.184   3.284 -0.4300 -0.5591 -0.3428
  135OSM     OF14591   4.218   2.192   3.233 -0.5899 -0.2807 -0.1060
  135OSM    C2F14592   4.042   2.063   3.334  0.0155  0.1501 -0.3482
  135OSM    H2F14593   4.034   1.996   3.246  1.4283  0.3132 -0.6278
  135OSM    H2G14594   3.942   2.088   3.376 -0.8123 -3.3402  0.0163
  135OSM    C3F14595   4.115   1.989   3.442 -0.0759  0.4058  0.4334
  135OSM    H3F14596   4.204   1.943   3.396 -1.5681 -1.7128 -0.5256
  135OSM    H3G14597   4.051   1.904   3.476  2.3525 -0.5468  2.9865
  135OSM    C4F14598   4.152   2.071   3.568  0.1341  0.4161  0.4770
  135OSM    H4F14599   4.228   2.144   3.533  1.0060 -0.7255 -0.0799
  135OSM    H4G14600   4.198   1.991   3.630 -1.1311 -1.0378 -0.3824
  135OSM    C5F14601   4.036   2.141   3.651  0.4796 -0.1818 -0.2450
  135OSM    H5F14602   3.961   2.082   3.708 -1.6181  2.2442 -0.3287
  135OSM    H5G14603   3.965   2.183   3.577 -1.3795 -0.0786  1.5151
  135OSM    C6F14604   4.091   2.259   3.747 -0.3325  0.6566  0.3796
  135OSM    H6F14605   4.156   2.316   3.678 -0.9206 -0.2883 -1.0178
  135OSM    H6G14606   4.142   2.213   3.834 -2.1126 -1.5994  0.3344
  135OSM    C7F14607   3.980   2.361   3.795  0.3267  0.5430  0.1350
  135OSM    H7F14608   3.904   2.365   3.713 -1.1801 -1.6901  1.3093
  135OSM    H7G14609   4.027   2.457   3.822 -0.6650  0.9568  0.4461
  135OSM    C8F14610   3.902   2.314   3.919 -0.3504  0.5284  0.3636
  135OSM    H8F14611   3.854   2.225   3.872  2.0797 -1.1036  0.7305
  135OSM    H8G14612   3.819   2.382   3.945 -0.2419  1.5373 -1.6967
  135OSM    C9F14613   3.973   2.264   4.043 -0.1417 -0.4632 -0.3218
  135OSM    H9F14614   4.004   2.159   4.041 -2.4033 -1.1800 -1.3999
  135OSM   C10F14615   3.982   2.341   4.154 -0.6239 -0.0541  0.0213
  135OSM   H10F14616   4.047   2.311   4.237 -0.3959 -1.0940 -0.5093
  135OSM   C11F14617   3.940   2.485   4.164  0.3237  0.7096  0.4591
  135OSM   H11F14618   3.844   2.492   4.109 -0.0589 -1.9557  0.6548
  135OSM   H11G14619   4.003   2.563   4.117 -0.0604  1.9945  1.9701
  135OSM   C12F14620   3.929   2.547   4.303 -0.5246 -0.4571  0.1325
  135OSM   H12F14621   3.896   2.652   4.289  0.2194 -0.3376 -0.8210
  135OSM   H12G14622   4.028   2.549   4.352 -0.4484  1.9461 -0.0176
  135OSM   C13F14623   3.829   2.470   4.395  0.3775 -0.5209  0.2224
  135OSM   H13F14624   3.879   2.372   4.415  1.3544  0.2778  1.9772
  135OSM   H13G14625   3.730   2.464   4.347 -0.1258  0.2048  1.1471
  135OSM   C14F14626   3.811   2.538   4.528  0.2088 -0.0457 -0.2139
  135OSM   H14F14627   3.764   2.638   4.511  1.7718  0.4562 -1.9210
  135OSM   H14G14628   3.911   2.545   4.574  1.1068 -1.3129 -1.8570
  135OSM   C15F14629   3.729   2.444   4.623  0.9281 -0.3880  0.0986
  135OSM   H15F14630   3.785   2.354   4.655 -1.6306 -1.2670  2.5616
  135OSM   H15G14631   3.637   2.406   4.573  1.2549 -0.9943 -0.0530
  135OSM   C16F14632   3.671   2.527   4.744 -0.3653 -0.1891 -0.5179
  135OSM   H16F14633   3.584   2.589   4.712  0.7593  1.4741 -0.5045
  135OSM   H16G14634   3.751   2.594   4.784 -0.0199 -1.6733  1.3950
  135OSM   C17F14635   3.629   2.445   4.871 -0.5692 -0.4529  0.1957
  135OSM   H17F14636   3.575   2.511   4.942  0.7055 -0.3784  1.1382
  135OSM   H17G14637   3.716   2.414   4.933 -1.5490  1.0595  2.4684
  135OSM   C18F14638   3.531   2.331   4.860 -0.0427  0.2949  0.2414
  135OSM   H18F14639   3.448   2.369   4.798 -0.1584 -0.6612 -0.2098
  135OSM   H18G14640   3.496   2.289   4.957 -0.5067  1.3472  0.5459
  135OSM   H18H14641   3.576   2.250   4.799  0.1345 -0.5446  1.4388
  136OSM      N14642   3.097   4.921   2.819  0.7627  0.0457 -0.4994
  136OSM    C1514643   3.159   4.933   2.685  0.8097 -0.1348 -0.1472
  136OSM   H15A14644   3.132   5.026   2.638 -0.0743 -0.9165 -1.2654
  136OSM   H15B14645   3.149   4.851   2.615  0.6099 -0.5690  0.3783
  136OSM   H15C14646   3.265   4.948   2.695  1.0116  0.3704 -2.5444
  136OSM    C1414647   3.138   4.798   2.886  0.5205 -0.7154  0.3567
  136OSM   H14A14648   3.245   4.791   2.899  0.3943 -2.6745  0.6006
  136OSM   H14B14649   3.111   4.713   2.825  1.0424  1.2826 -2.8809
  136OSM   H14C14650   3.092   4.797   2.984 -1.1728 -0.7822 -0.4081
  136OSM    C1314651   3.146   5.040   2.899  0.1968  0.4956 -0.7364
  136OSM   H13A14652   3.117   5.021   3.001  3.1832 -1.2746 -0.1135
  136OSM   H13B14653   3.114   5.138   2.866 -2.0012  0.3245  0.6873
  136OSM   H13C14654   3.253   5.041   2.908  0.0251  0.4626  2.5466
  136OSM    C1214655   2.944   4.926   2.815 -0.3365 -0.1323 -0.2239
  136OSM   H12A14656   2.910   5.014   2.763 -0.3533  0.7999  1.3245
  136OSM   H12B14657   2.896   4.948   2.908 -1.3564 -1.4119 -0.4191
  136OSM    C1114658   2.872   4.800   2.745 -0.4788  0.3524  0.2635
  136OSM   H11A14659   2.935   4.710   2.759  0.9646  1.2376 -0.3547
  136OSM   H11B14660   2.878   4.828   2.638  0.6077  0.0254  0.2277
  136OSM      P14661   2.697   4.723   2.928 -0.3972  0.0661 -0.2360
  136OSM    O1314662   2.574   4.648   2.921 -0.6591 -0.2917 -0.1346
  136OSM    O1414663   2.815   4.649   2.973 -0.2060 -0.1410 -0.3889
  136OSM    O1114664   2.681   4.844   3.021 -0.0068 -0.6813  0.1641
  136OSM    O1214665   2.737   4.788   2.792  1.1492  0.3755  0.5560
  136OSM    C1S14666   2.608   4.960   2.983  0.8073 -0.7543 -0.4907
  136OSM    H1S14667   2.500   4.949   2.960 -0.0028  1.2113  1.8746
  136OSM    H1T14668   2.648   5.002   2.888  0.5691 -0.4143 -0.4429
  136OSM     NF14669   2.497   5.139   3.096 -0.3004 -0.0918  0.4073
  136OSM    HNF14670   2.511   5.237   3.110 -2.4793  0.0443  2.0728
  136OSM    C2S14671   2.621   5.059   3.098 -0.2252 -0.3874  0.1621
  136OSM    H2S14672   2.622   4.997   3.191 -1.8025 -0.7058 -0.0045
  136OSM    C3S14673   2.757   5.129   3.082 -0.6797 -0.2868  0.3492
  136OSM    H3S14674   2.780   5.165   2.979  3.0372 -1.5446  0.5779
  136OSM     O314675   2.875   5.043   3.103 -0.0252  0.1306  0.0855
  136OSM    HO314676   2.840   4.954   3.112 -0.8872  0.4791  0.2800
  136OSM    C4S14677   2.773   5.248   3.175  0.1315  0.0100 -0.7647
  136OSM    H4S14678   2.767   5.347   3.130  1.3172  0.4573  0.0024
  136OSM    C5S14679   2.799   5.235   3.307 -0.5063 -1.0817 -0.4309
  136OSM    H5S14680   2.823   5.140   3.357  2.4011 -0.0999  0.2538
  136OSM    C6S14681   2.838   5.358   3.392 -0.0998 -0.6267  0.7252
  136OSM    H6S14682   2.784   5.441   3.341 -0.8464 -1.9030 -0.6583
  136OSM    H6T14683   2.946   5.379   3.380  0.1073 -1.9950 -0.0991
  136OSM    C7S14684   2.807   5.345   3.540 -0.0239 -0.4793 -0.6307
  136OSM    H7S14685   2.875   5.268   3.580 -1.6356 -0.3065  2.8959
  136OSM    H7T14686   2.701   5.311   3.548  0.2671 -1.1216  0.9987
  136OSM    C8S14687   2.820   5.476   3.622 -0.5165  0.1076  0.6101
  136OSM    H8S14688   2.727   5.536   3.618 -0.4517  0.1921  0.3411
  136OSM    H8T14689   2.908   5.535   3.587 -0.3673 -0.0411  0.7291
  136OSM    C9S14690   2.839   5.434   3.771  0.0596  0.2142 -0.9534
  136OSM    H9S14691   2.924   5.364   3.781  0.1502  0.0467 -2.6143
  136OSM    H9T14692   2.754   5.377   3.813  1.8093 -0.3445  2.1773
  136OSM   C10S14693   2.872   5.556   3.868  0.1651 -0.0576 -0.0791
  136OSM   H10S14694   2.800   5.637   3.843  0.2375 -0.6538 -2.3979
  136OSM   H10T14695   2.974   5.596   3.851  0.1886  1.4628  2.8776
  136OSM   C11S14696   2.864   5.517   4.013 -0.4814  0.4557  0.5026
  136OSM   H11S14697   2.901   5.412   4.017 -1.0421  0.0242 -2.8672
  136OSM   H11T14698   2.757   5.512   4.045 -0.3231  0.3264  1.0278
  136OSM   C12S14699   2.940   5.600   4.112  0.3624 -0.2215 -0.7071
  136OSM   H12S14700   2.938   5.708   4.085 -1.4055  0.4380  1.7300
  136OSM   H12T14701   3.046   5.575   4.091  0.9967  1.9827 -0.3823
  136OSM   C13S14702   2.900   5.580   4.263 -0.2071  0.2125 -0.2167
  136OSM   H13S14703   2.925   5.474   4.283  0.1265  0.4240  0.5042
  136OSM   H13T14704   2.791   5.593   4.276 -0.4737  0.1066 -2.0874
  136OSM   C14S14705   2.993   5.658   4.357 -0.3534  0.5726 -0.2534
  136OSM   H14S14706   2.984   5.767   4.335  0.4109  0.2565 -2.3740
  136OSM   H14T14707   3.100   5.635   4.337 -0.0802 -0.0658  1.7000
  136OSM   C15S14708   2.963   5.617   4.507 -0.3412  0.4642  0.3095
  136OSM   H15S14709   2.973   5.507   4.515  0.4673  0.1802 -3.1551
  136OSM   H15T14710   2.853   5.626   4.521 -0.1356 -0.1738  2.7009
  136OSM   C16S14711   3.037   5.695   4.613 -0.1004 -0.0770 -0.4289
  136OSM   H16S14712   3.047   5.803   4.589 -1.1186  0.0135 -0.4917
  136OSM   H16T14713   3.135   5.645   4.626 -0.1692 -0.0909  0.0338
  136OSM   C17S14714   2.963   5.687   4.741 -0.5167 -0.2983  0.8509
  136OSM   H17S14715   2.962   5.579   4.767 -0.7854 -0.8260 -1.1743
  136OSM   H17T14716   2.858   5.720   4.725  0.3846  2.7371  0.5870
  136OSM   C18S14717   3.006   5.774   4.860 -0.6217  0.0329  0.4780
  136OSM   H18S14718   2.928   5.758   4.938  0.1601 -0.7790  1.1081
  136OSM   H18T14719   3.028   5.879   4.830  1.7859 -0.3860  0.5926
  136OSM   H18U14720   3.096   5.726   4.904  0.0504 -1.1837 -2.0743
  136OSM    C1F14721   2.374   5.092   3.127  0.0285 -0.0918 -0.6866
  136OSM     OF14722   2.350   4.971   3.139  0.2458 -0.1218 -0.5846
  136OSM    C2F14723   2.268   5.197   3.136 -0.1641 -0.1484 -0.1108
  136OSM    H2F14724   2.218   5.183   3.038 -0.1076 -1.0276 -0.0239
  136OSM    H2G14725   2.306   5.301   3.137  0.2521 -0.2960 -0.1045
  136OSM    C3F14726   2.180   5.174   3.262  0.3304 -0.0844  0.5473
  136OSM    H3F14727   2.133   5.075   3.246 -1.4593  1.0316 -1.8487
  136OSM    H3G14728   2.105   5.255   3.248 -1.4194 -1.8439 -0.7568
  136OSM    C4F14729   2.247   5.186   3.399  0.7640  0.5628  0.1529
  136OSM    H4F14730   2.301   5.283   3.411  5.1644 -1.5917 -0.3667
  136OSM    H4G14731   2.317   5.100   3.400 -1.9681 -1.8011  1.2510
  136OSM    C5F14732   2.145   5.146   3.509 -0.8002  0.2574 -0.2867
  136OSM    H5F14733   2.093   5.054   3.473  1.3227 -1.7104  1.3892
  136OSM    H5G14734   2.077   5.234   3.520  0.8159  1.4908  0.1720
  136OSM    C6F14735   2.217   5.111   3.638 -0.0202 -0.2788  0.1923
  136OSM    H6F14736   2.299   5.178   3.672  0.8936 -0.8252 -0.8643
  136OSM    H6G14737   2.265   5.016   3.605  1.4069  0.3022  0.5463
  136OSM    C7F14738   2.121   5.090   3.757 -0.2163 -0.0610 -0.3018
  136OSM    H7F14739   2.153   5.020   3.838 -0.7589  0.4950  0.4031
  136OSM    H7G14740   2.024   5.060   3.712 -0.0652  0.2967 -0.8714
  136OSM    C8F14741   2.083   5.228   3.825  0.0005 -0.6721 -0.5084
  136OSM    H8F14742   2.056   5.300   3.745  1.7426 -0.5215 -1.0197
  136OSM    H8G14743   2.177   5.267   3.869 -1.7133  1.9849  1.0139
  136OSM    C9F14744   1.991   5.205   3.937  0.1985 -0.1580 -0.4116
  136OSM    H9F14745   1.912   5.134   3.910 -0.1766  0.5674 -1.2768
  136OSM   C10F14746   2.005   5.276   4.054 -0.0450  0.0360  0.0085
  136OSM   H10F14747   1.948   5.241   4.141 -0.7508  1.0614 -0.0179
  136OSM   C11F14748   2.109   5.381   4.083  0.6406  0.6996  0.1480
  136OSM   H11F14749   2.057   5.478   4.067 -1.5510  0.0427  2.4859
  136OSM   H11G14750   2.194   5.391   4.013 -0.7801  3.7598 -1.3578
  136OSM   C12F14751   2.148   5.377   4.237 -0.6906  0.9283  0.3346
  136OSM   H12F14752   2.231   5.450   4.247 -1.7412  2.2198 -0.0497
  136OSM   H12G14753   2.191   5.275   4.235 -0.5752  0.9821 -0.0013
  136OSM   C13F14754   2.041   5.414   4.339  0.3480  0.8670 -0.2019
  136OSM   H13F14755   1.943   5.381   4.298  1.1898 -2.1194 -0.0170
  136OSM   H13G14756   2.043   5.525   4.335  0.0274  0.8797 -0.0799
  136OSM   C14F14757   2.066   5.365   4.488 -0.4634  0.5324  0.1321
  136OSM   H14F14758   2.169   5.406   4.495 -0.0353 -0.3989 -0.4694
  136OSM   H14G14759   2.062   5.254   4.480 -2.7534  0.4284  1.8984
  136OSM   C15F14760   1.966   5.423   4.588 -0.5934  0.3406  0.3846
  136OSM   H15F14761   1.870   5.367   4.586  0.8652 -2.3340  0.2124
  136OSM   H15G14762   1.954   5.529   4.559 -0.7559 -0.2769 -2.0020
  136OSM   C16F14763   2.005   5.420   4.736  0.4046 -0.7539 -0.5047
  136OSM   H16F14764   2.103   5.472   4.745  0.4214 -1.0706  2.1933
  136OSM   H16G14765   2.009   5.311   4.761 -1.6745 -0.1761  3.0803
  136OSM   C17F14766   1.911   5.500   4.823  0.1897 -0.3136  0.4278
  136OSM   H17F14767   1.815   5.509   4.768 -0.1084  0.5524  1.0742
  136OSM   H17G14768   1.937   5.607   4.837  0.8923 -0.2088 -1.4260
  136OSM   C18F14769   1.889   5.436   4.964 -0.3295  0.4422 -0.4363
  136OSM   H18F14770   1.989   5.445   5.012 -0.9228  0.1339  0.8694
  136OSM   H18G14771   1.851   5.333   4.946 -0.8135  0.9314 -2.5680
  136OSM   H18H14772   1.805   5.481   5.021 -1.2181 -0.5430 -0.9355
  137OSM      N14773   5.451   2.639   2.618 -0.1421  0.1145  1.4158
  137OSM    C1514774   5.450   2.679   2.472 -0.8414  0.0927  0.0182
  137OSM   H15A14775   5.407   2.778   2.461  0.7060  0.9436  1.1492
  137OSM   H15B14776   5.381   2.617   2.418 -0.5433 -0.3745  0.1634
  137OSM   H15C14777   5.549   2.679   2.429 -1.1633 -0.9466 -0.7594
  137OSM    C1414778   5.525   2.509   2.632  0.4850 -0.2308  1.0915
  137OSM   H14A14779   5.541   2.482   2.735 -0.3056 -2.0544  0.7769
  137OSM   H14B14780   5.624   2.505   2.589  0.2408 -3.7215  0.5845
  137OSM   H14C14781   5.461   2.429   2.597  1.6159 -0.9990  0.7330
  137OSM    C1314782   5.539   2.737   2.687 -0.2947 -0.3617 -0.3141
  137OSM   H13A14783   5.497   2.837   2.684 -2.3240 -1.0504  1.7664
  137OSM   H13B14784   5.627   2.733   2.625 -1.2942 -3.1978 -1.7489
  137OSM   H13C14785   5.553   2.707   2.790  0.6598  0.7022 -0.1182
  137OSM    C1214786   5.309   2.631   2.670  0.3465  0.1486  0.6472
  137OSM   H12A14787   5.256   2.723   2.654 -2.0915 -1.2603 -0.0014
  137OSM   H12B14788   5.303   2.610   2.776 -1.3094 -0.8045  0.3955
  137OSM    C1114789   5.222   2.522   2.614 -0.2995 -0.2076 -0.8105
  137OSM   H11A14790   5.219   2.523   2.503  1.6652  0.8874 -0.8956
  137OSM   H11B14791   5.117   2.550   2.634  0.4719  1.3389  1.4509
  137OSM      P14792   5.218   2.341   2.805  0.0062  0.0274 -0.2121
  137OSM    O1314793   5.077   2.301   2.805 -0.3747 -0.4379  0.6978
  137OSM    O1414794   5.325   2.246   2.840  0.1188 -0.1783  0.3035
  137OSM    O1114795   5.237   2.473   2.895 -0.2371 -0.1751  0.1114
  137OSM    O1214796   5.261   2.390   2.665  0.4063  0.2729  0.4609
  137OSM    C1S14797   5.215   2.440   3.037 -0.5483  0.4746 -0.5789
  137OSM    H1S14798   5.295   2.378   3.083 -0.6103 -1.7344 -3.1728
  137OSM    H1T14799   5.119   2.386   3.052 -0.0333 -0.4456 -0.5359
  137OSM     NF14800   5.238   2.550   3.258 -0.1792 -0.7740 -0.5799
  137OSM    HNF14801   5.167   2.545   3.328  1.3624  0.1315  1.1564
  137OSM    C2S14802   5.201   2.570   3.119 -0.7200  0.3552  0.9790
  137OSM    H2S14803   5.282   2.635   3.077 -1.0851  0.8020  0.9612
  137OSM    C3S14804   5.075   2.642   3.082  0.1145 -0.9427  0.5834
  137OSM    H3S14805   4.995   2.575   3.122 -0.2610 -0.6789  0.2819
  137OSM     O314806   5.053   2.666   2.937 -0.2239  0.5555 -0.2049
  137OSM    HO314807   5.099   2.595   2.891  1.1521  0.8056  0.7136
  137OSM    C4S14808   5.069   2.769   3.165 -0.5867  0.5813  0.6628
  137OSM    H4S14809   5.028   2.750   3.266 -3.4427  1.2261 -0.2762
  137OSM    C5S14810   5.089   2.899   3.127 -0.1769 -0.1555  0.0797
  137OSM    H5S14811   5.129   2.927   3.028  1.2839  1.3644  1.0410
  137OSM    C6S14812   5.085   3.018   3.211  0.5224  0.0497 -0.2265
  137OSM    H6S14813   5.012   3.091   3.170  1.2694 -0.2241 -2.1405
  137OSM    H6T14814   5.185   3.066   3.203 -0.5536  2.0993 -2.5665
  137OSM    C7S14815   5.045   2.999   3.361 -0.4778  0.6200 -0.3214
  137OSM    H7S14816   5.122   2.925   3.391 -1.6654 -0.6961 -0.4533
  137OSM    H7T14817   4.940   2.962   3.366 -0.5558  0.8594 -0.1435
  137OSM    C8S14818   5.065   3.117   3.453 -0.0240  0.4445  0.4360
  137OSM    H8S14819   5.014   3.210   3.419  2.1133  0.9089 -1.8250
  137OSM    H8T14820   5.174   3.139   3.451  0.1566 -0.3813  0.8690
  137OSM    C9S14821   5.033   3.091   3.606  1.1425  0.5260  0.2397
  137OSM    H9S14822   5.059   2.984   3.619  1.3913  0.2260 -2.1872
  137OSM    H9T14823   4.923   3.111   3.607  0.8646 -0.1908 -3.0798
  137OSM   C10S14824   5.115   3.172   3.710  0.2673 -0.1747  0.0094
  137OSM   H10S14825   5.217   3.199   3.675  0.6421 -1.4715  0.0430
  137OSM   H10T14826   5.123   3.109   3.801  0.6675 -0.3250 -0.1272
  137OSM   C11S14827   5.033   3.293   3.764 -0.0485  0.4584 -0.0100
  137OSM   H11S14828   4.966   3.343   3.691 -1.2150  0.7936  1.2476
  137OSM   H11T14829   5.102   3.371   3.803  0.1587  0.3776 -0.2170
  137OSM   C12S14830   4.964   3.256   3.897 -0.1241 -0.6867 -0.7070
  137OSM   H12S14831   4.898   3.167   3.894 -0.3778 -0.7177  2.4424
  137OSM   H12T14832   4.897   3.343   3.914 -2.5796 -2.4974 -0.5851
  137OSM   C13S14833   5.061   3.252   4.021  0.2122  1.1211  0.1041
  137OSM   H13S14834   5.111   3.351   4.024  1.0168  0.7465 -0.5212
  137OSM   H13T14835   5.145   3.181   4.004 -0.4553  0.4637 -0.5428
  137OSM   C14S14836   4.989   3.215   4.149  0.3651  0.1042 -0.0713
  137OSM   H14S14837   4.963   3.107   4.150  3.5141 -0.8392 -2.4766
  137OSM   H14T14838   4.899   3.280   4.157  0.7155  0.5264  0.5101
  137OSM   C15S14839   5.071   3.243   4.281  0.1264 -0.0493  0.1836
  137OSM   H15S14840   5.106   3.349   4.281 -1.2884  0.4479 -0.7171
  137OSM   H15T14841   5.162   3.180   4.287 -1.4547 -2.5194 -0.3594
  137OSM   C16S14842   4.990   3.227   4.412 -0.4431  0.4485  0.2386
  137OSM   H16S14843   4.953   3.122   4.404  1.3751 -0.1391 -1.1584
  137OSM   H16T14844   4.904   3.297   4.413 -0.9350 -0.1258 -0.3454
  137OSM   C17S14845   5.066   3.244   4.543  0.0266 -0.7369 -0.7477
  137OSM   H17S14846   4.997   3.205   4.620 -1.1445  0.7283 -1.0025
  137OSM   H17T14847   5.080   3.351   4.570  0.5268 -0.7741 -0.8417
  137OSM   C18S14848   5.204   3.179   4.564  0.0705  0.0872  0.5493
  137OSM   H18S14849   5.250   3.221   4.656  0.1447 -2.4354  1.7458
  137OSM   H18T14850   5.273   3.200   4.480  1.9697 -0.2107  1.9707
  137OSM   H18U14851   5.193   3.069   4.574  1.7767 -0.2260 -0.6933
  137OSM    C1F14852   5.359   2.490   3.299  0.2353 -0.7374  0.0640
  137OSM     OF14853   5.452   2.455   3.227 -0.1297  0.8841 -0.6178
  137OSM    C2F14854   5.358   2.457   3.444 -0.6596 -0.0144  0.2549
  137OSM    H2F14855   5.325   2.353   3.463 -0.6046  0.3450  2.6754
  137OSM    H2G14856   5.297   2.529   3.502 -2.1809  0.2064 -1.5227
  137OSM    C3F14857   5.500   2.470   3.498 -0.0298 -0.6435  0.2414
  137OSM    H3F14858   5.523   2.578   3.490 -0.0242 -0.7606 -1.9964
  137OSM    H3G14859   5.562   2.415   3.424 -2.2447  0.0647 -2.2982
  137OSM    C4F14860   5.518   2.417   3.639  0.3216  0.0955  0.1281
  137OSM    H4F14861   5.474   2.315   3.645  3.0343 -1.1312  0.9651
  137OSM    H4G14862   5.462   2.484   3.708  1.9675  1.4220  0.2380
  137OSM    C5F14863   5.665   2.420   3.678 -0.9062 -0.6931 -0.0342
  137OSM    H5F14864   5.703   2.524   3.677 -2.1341 -0.1210  2.8314
  137OSM    H5G14865   5.711   2.362   3.596 -0.0721 -1.7587  1.1524
  137OSM    C6F14866   5.692   2.341   3.810  0.1292 -0.1709  0.6454
  137OSM    H6F14867   5.802   2.326   3.812  0.5876  2.1727 -1.7794
  137OSM    H6G14868   5.653   2.237   3.808  1.5272 -0.8099  2.6101
  137OSM    C7F14869   5.643   2.403   3.935 -0.7042 -0.6573  0.0909
  137OSM    H7F14870   5.535   2.389   3.959 -0.0647 -1.6795  2.8356
  137OSM    H7G14871   5.659   2.513   3.930  0.4893 -0.7428  1.5039
  137OSM    C8F14872   5.710   2.341   4.061 -0.1312 -0.4800  0.4252
  137OSM    H8F14873   5.817   2.343   4.031  1.1935  3.1074  4.3891
  137OSM    H8G14874   5.690   2.233   4.076  0.3430 -1.1183 -2.7439
  137OSM    C9F14875   5.699   2.427   4.184  0.5287  0.6742 -0.5761
  137OSM    H9F14876   5.784   2.493   4.208  2.6152 -2.1302  0.4379
  137OSM   C10F14877   5.600   2.428   4.278 -0.5016  0.0154  0.1417
  137OSM   H10F14878   5.609   2.501   4.360 -1.0953 -0.5366  0.7023
  137OSM   C11F14879   5.473   2.356   4.276  0.8133 -0.3305  0.0785
  137OSM   H11F14880   5.491   2.249   4.248 -2.6317 -0.8309 -0.6977
  137OSM   H11G14881   5.411   2.398   4.194  2.1355  2.5782  0.4450
  137OSM   C12F14882   5.395   2.374   4.401 -0.1867 -0.6860  0.0074
  137OSM   H12F14883   5.286   2.360   4.389 -0.0415 -1.9361  0.0001
  137OSM   H12G14884   5.397   2.482   4.425  2.9786 -0.7777  0.5730
  137OSM   C13F14885   5.443   2.298   4.527 -0.0747  0.6374  0.5717
  137OSM   H13F14886   5.551   2.312   4.548  0.5038 -0.1633 -1.5190
  137OSM   H13G14887   5.423   2.188   4.524 -1.9675  0.9309  1.6461
  137OSM   C14F14888   5.360   2.334   4.656  0.3093 -0.4656 -0.3914
  137OSM   H14F14889   5.262   2.283   4.641  0.0073  0.0679 -0.2226
  137OSM   H14G14890   5.346   2.444   4.661  0.2596 -0.3629 -2.0918
  137OSM   C15F14891   5.428   2.292   4.786 -0.1904 -0.3531  0.3911
  137OSM   H15F14892   5.440   2.183   4.769 -2.6129 -0.4470 -1.1972
  137OSM   H15G14893   5.360   2.296   4.874  1.5589  1.6529  1.7556
  137OSM   C16F14894   5.557   2.367   4.821 -0.2919  0.4557 -0.2968
  137OSM   H16F14895   5.530   2.474   4.832 -0.9946  0.2275  0.2349
  137OSM   H16G14896   5.623   2.358   4.732 -1.4068  0.2295 -1.1215
  137OSM   C17F14897   5.630   2.309   4.948  0.2512 -0.0423 -0.2871
  137OSM   H17F14898   5.713   2.376   4.982  0.4134  0.4764 -1.6404
  137OSM   H17G14899   5.669   2.207   4.926 -0.5268 -0.1218 -1.3597
  137OSM   C18F14900   5.540   2.272   5.074  0.0515 -0.9021  0.1025
  137OSM   H18F14901   5.481   2.363   5.100 -0.8149 -1.1887 -0.7988
  137OSM   H18G14902   5.604   2.249   5.162 -0.5309 -0.1486  0.7377
  137OSM   H18H14903   5.471   2.187   5.056 -0.0916 -0.4684 -1.4876
  138OSM      N14904   5.708   3.813   2.792 -0.4026  0.5210  0.4046
  138OSM    C1514905   5.567   3.869   2.785  0.0418  0.1193 -0.6456
  138OSM   H15A14906   5.560   3.949   2.857 -0.0371 -0.1372 -0.3628
  138OSM   H15B14907   5.492   3.792   2.802 -1.2003  1.4527  0.1648
  138OSM   H15C14908   5.548   3.901   2.684  0.5569 -0.7275 -1.0225
  138OSM    C1414909   5.807   3.925   2.765  0.0643 -0.0298 -0.4008
  138OSM   H14A14910   5.768   3.999   2.697  2.1111  1.6576  0.1374
  138OSM   H14B14911   5.906   3.887   2.745 -0.1983 -1.2928  0.5346
  138OSM   H14C14912   5.828   3.984   2.854  0.2182 -0.7872  0.0768
  138OSM    C1314913   5.726   3.759   2.932 -0.1358 -0.1570 -0.4954
  138OSM   H13A14914   5.700   3.824   3.014 -0.2148 -1.0350  0.1895
  138OSM   H13B14915   5.824   3.714   2.937  0.9208  2.0596  0.0746
  138OSM   H13C14916   5.655   3.680   2.951 -1.8825  1.1558 -1.2592
  138OSM    C1214917   5.723   3.696   2.699  0.7212 -0.1399  0.1037
  138OSM   H12A14918   5.683   3.726   2.603 -2.2065  0.1003  1.3136
  138OSM   H12B14919   5.664   3.615   2.738  0.0708  1.0202  1.6053
  138OSM    C1114920   5.865   3.644   2.679 -0.3392  0.3857  0.0702
  138OSM   H11A14921   5.920   3.728   2.630  1.0378 -0.2819  0.4215
  138OSM   H11B14922   5.865   3.572   2.595 -0.3651 -0.3144  0.6567
  138OSM      P14923   6.060   3.646   2.855  0.0649  0.1173 -0.3603
  138OSM    O1314924   6.166   3.581   2.769  0.6780 -0.1354 -0.1668
  138OSM    O1414925   6.068   3.793   2.863 -1.0532  0.4415  0.6452
  138OSM    O1114926   6.075   3.579   2.992  0.3082  0.4631 -0.5157
  138OSM    O1214927   5.919   3.596   2.801  0.1813  0.3047  0.1595
  138OSM    C1S14928   6.092   3.429   2.997 -0.4463 -0.0822 -0.5921
  138OSM    H1S14929   6.199   3.406   2.982 -0.0945  0.2916  1.1816
  138OSM    H1T14930   6.032   3.381   2.916 -2.6642 -0.5869  1.2346
  138OSM     NF14931   6.101   3.240   3.156  0.3105  0.4603  0.3576
  138OSM    HNF14932   6.039   3.163   3.141 -0.0006  0.3122  2.2410
  138OSM    C2S14933   6.048   3.370   3.139  0.1310 -0.1500  0.5897
  138OSM    H2S14934   6.087   3.444   3.212  1.7588  0.2684 -0.6391
  138OSM    C3S14935   5.892   3.379   3.145  0.9622 -0.2895 -0.3091
  138OSM    H3S14936   5.848   3.321   3.061 -1.4134  2.8837 -1.4693
  138OSM     O314937   5.843   3.506   3.114 -0.4547 -0.1614 -0.0553
  138OSM    HO314938   5.917   3.543   3.066  2.1771 -1.9222  2.3421
  138OSM    C4S14939   5.828   3.337   3.282 -0.0663 -0.2278 -1.1826
  138OSM    H4S14940   5.799   3.233   3.305 -2.1311 -0.0869 -2.8614
  138OSM    C5S14941   5.794   3.424   3.387  1.2635  0.5082 -0.1159
  138OSM    H5S14942   5.804   3.533   3.377  0.3771  0.5690 -0.3893
  138OSM    C6S14943   5.732   3.372   3.516 -0.4298 -0.2811  0.5882
  138OSM    H6S14944   5.795   3.422   3.592  0.7150  0.0995 -0.5744
  138OSM    H6T14945   5.747   3.265   3.540 -0.5210 -1.1920 -2.8707
  138OSM    C7S14946   5.582   3.405   3.515 -0.0937  0.1501 -0.0694
  138OSM    H7S14947   5.537   3.368   3.420 -1.6419 -1.4325  1.2303
  138OSM    H7T14948   5.574   3.516   3.521  1.2502  0.3041 -0.7054
  138OSM    C8S14949   5.489   3.347   3.629  0.3321  0.9068  1.3217
  138OSM    H8S14950   5.470   3.241   3.602 -0.7645  1.8410 -2.0800
  138OSM    H8T14951   5.385   3.386   3.626 -0.1197 -0.3110 -0.3361
  138OSM    C9S14952   5.550   3.385   3.767  0.5632 -0.0454  0.4353
  138OSM    H9S14953   5.574   3.493   3.766  3.3812 -0.4926  3.0795
  138OSM    H9T14954   5.647   3.332   3.774  0.0482 -1.0146  0.5449
  138OSM   C10S14955   5.460   3.361   3.880  0.4309 -0.2546  0.1101
  138OSM   H10S14956   5.430   3.254   3.884  0.3027 -0.1978  0.9099
  138OSM   H10T14957   5.364   3.415   3.867  0.1074 -0.8611 -0.0760
  138OSM   C11S14958   5.516   3.402   4.011 -0.3903  0.3648  0.0750
  138OSM   H11S14959   5.542   3.509   4.022 -0.4840  0.5125 -0.9977
  138OSM   H11T14960   5.610   3.345   4.028 -2.5587 -3.0945  1.4112
  138OSM   C12S14961   5.421   3.371   4.130  0.1904  0.5510  0.6923
  138OSM   H12S14962   5.391   3.264   4.121  1.1501  0.3290  0.0682
  138OSM   H12T14963   5.325   3.423   4.107 -0.4022 -1.1102 -0.7935
  138OSM   C13S14964   5.485   3.401   4.266  0.2405  0.6254  0.2362
  138OSM   H13S14965   5.417   3.417   4.352  0.7372 -0.6882  0.9122
  138OSM   H13T14966   5.536   3.497   4.244 -2.4171  1.9196 -0.5741
  138OSM   C14S14967   5.577   3.297   4.315 -0.4063  0.7576 -0.6406
  138OSM   H14S14968   5.654   3.274   4.238 -0.3408 -0.4255 -0.2343
  138OSM   H14T14969   5.513   3.210   4.337  0.7536 -0.3758 -1.5914
  138OSM   C15S14970   5.654   3.343   4.447 -0.5568 -0.4452 -0.3227
  138OSM   H15S14971   5.583   3.367   4.529 -1.9075 -4.1242 -0.2564
  138OSM   H15T14972   5.714   3.433   4.422 -2.1906  0.6083 -0.5919
  138OSM   C16S14973   5.741   3.222   4.507 -0.3253 -0.4330  0.6658
  138OSM   H16S14974   5.834   3.196   4.452  0.3014  0.8052  1.0725
  138OSM   H16T14975   5.677   3.133   4.490 -1.3420  0.2798  0.6765
  138OSM   C17S14976   5.788   3.248   4.649  0.0339 -0.0587  0.0530
  138OSM   H17S14977   5.702   3.263   4.718 -1.5163  1.5067 -2.0749
  138OSM   H17T14978   5.848   3.342   4.639  1.4965 -1.1424 -2.2097
  138OSM   C18S14979   5.874   3.133   4.696  0.0330  0.5054 -0.5165
  138OSM   H18S14980   5.942   3.101   4.613  0.3590 -2.1230  0.6634
  138OSM   H18T14981   5.820   3.039   4.719 -1.8524  1.7445  0.3424
  138OSM   H18U14982   5.948   3.168   4.771 -0.3272 -0.0799  0.1274
  138OSM    C1F14983   6.227   3.219   3.191 -0.1097 -0.1020  0.2520
  138OSM     OF14984   6.302   3.314   3.209  0.4726 -0.1230  0.3929
  138OSM    C2F14985   6.265   3.080   3.214  0.1668  0.6169  0.1281
  138OSM    H2F14986   6.288   3.025   3.120  0.3665 -2.3064  1.7650
  138OSM    H2G14987   6.188   3.015   3.262  1.0534 -0.8076 -0.3079
  138OSM    C3F14988   6.387   3.065   3.315 -0.1293 -0.4884 -0.9107
  138OSM    H3F14989   6.478   3.120   3.281  0.3579 -0.5845  0.1954
  138OSM    H3G14990   6.426   2.961   3.315  2.0526  0.2560 -1.7832
  138OSM    C4F14991   6.366   3.102   3.461  0.3861  0.0000 -0.2601
  138OSM    H4F14992   6.262   3.080   3.493  0.5236  0.2673  0.3812
  138OSM    H4G14993   6.379   3.210   3.481  1.9201 -0.3795  1.0136
  138OSM    C5F14994   6.471   3.027   3.546 -0.2980  0.5214  0.5809
  138OSM    H5F14995   6.575   3.048   3.514  0.2777 -2.6681  0.0395
  138OSM    H5G14996   6.479   2.918   3.527 -1.4485  0.0950  2.3028
  138OSM    C6F14997   6.449   3.038   3.697  0.0497  0.8372 -0.5062
  138OSM    H6F14998   6.460   3.144   3.726  0.4106  0.5714  0.3543
  138OSM    H6G14999   6.532   2.984   3.748  1.2336  0.3871 -2.7646
  138OSM    C7F15000   6.316   2.975   3.741  0.0456  0.3701  1.2514
  138OSM    H7F15001   6.307   2.868   3.712 -0.4229  0.3230  1.5657
  138OSM    H7G15002   6.227   3.022   3.694 -0.6547 -1.1392  1.0066
  138OSM    C8F15003   6.302   2.985   3.895  0.7611  0.5740  0.2093
  138OSM    H8F15004   6.269   3.089   3.913 -1.2103 -0.1101  0.7995
  138OSM    H8G15005   6.395   2.959   3.951 -0.0876 -1.6563  0.6728
  138OSM    C9F15006   6.189   2.903   3.951  0.6204 -1.0657 -0.0103
  138OSM    H9F15007   6.110   2.865   3.885 -1.2731  0.5656  1.2062
  138OSM   C10F15008   6.176   2.875   4.082  0.4497  0.5034 -0.5605
  138OSM   H10F15009   6.089   2.825   4.128  1.2662 -0.3755  0.0738
  138OSM   C11F15010   6.282   2.915   4.184 -0.2017  0.2074  0.4614
  138OSM   H11F15011   6.294   3.025   4.174 -3.3317  0.6888  1.0506
  138OSM   H11G15012   6.375   2.866   4.147 -1.0990 -3.3678  2.5148
  138OSM   C12F15013   6.261   2.885   4.330  0.0489  0.4516 -0.9063
  138OSM   H12F15014   6.266   2.774   4.344 -0.7555  0.3988 -0.9619
  138OSM   H12G15015   6.168   2.922   4.379  1.4271  0.5093  1.8776
  138OSM   C13F15016   6.368   2.957   4.415 -0.2475 -0.6074  0.1989
  138OSM   H13F15017   6.369   3.068   4.419  1.7729 -0.6104  3.8196
  138OSM   H13G15018   6.466   2.925   4.373 -0.4177 -2.9962  1.4186
  138OSM   C14F15019   6.378   2.898   4.551 -0.0360  0.1559 -0.1563
  138OSM   H14F15020   6.474   2.923   4.601 -1.6960  0.2911  3.1920
  138OSM   H14G15021   6.371   2.787   4.558 -1.6598  0.2865  0.6242
  138OSM   C15F15022   6.266   2.946   4.646  0.3272 -0.2356 -0.5675
  138OSM   H15F15023   6.170   2.910   4.604  0.6926 -1.4936 -0.3717
  138OSM   H15G15024   6.261   3.057   4.635  0.3988 -0.2119 -0.3640
  138OSM   C16F15025   6.288   2.901   4.791  0.0713  0.1520  0.5193
  138OSM   H16F15026   6.384   2.945   4.826  0.2033 -0.5454  1.0537
  138OSM   H16G15027   6.302   2.791   4.790  0.9328  0.2604 -0.8049
  138OSM   C17F15028   6.175   2.940   4.889 -0.3122 -0.1670  0.2424
  138OSM   H17F15029   6.078   2.889   4.871 -0.8321  1.0085 -0.3813
  138OSM   H17G15030   6.148   3.048   4.888 -1.6500 -0.4810 -1.4604
  138OSM   C18F15031   6.223   2.900   5.034 -0.5473 -0.1560 -0.5983
  138OSM   H18F15032   6.147   2.932   5.108  0.1532 -4.3750  2.2875
  138OSM   H18G15033   6.308   2.968   5.054 -0.4696 -0.0836 -1.1475
  138OSM   H18H15034   6.249   2.793   5.047  1.2584 -0.0161 -2.5143
  139OSM      N15035   3.707   1.207   2.821 -0.1086  0.3045  0.1816
  139OSM    C1515036   3.677   1.140   2.696 -0.3421 -0.5196  0.4661
  139OSM   H15A15037   3.626   1.046   2.713 -1.3949 -0.1747 -0.6502
  139OSM   H15B15038   3.773   1.120   2.649  0.0352 -1.5555  1.6291
  139OSM   H15C15039   3.625   1.198   2.622  2.1939  0.9130 -0.2964
  139OSM    C1415040   3.790   1.322   2.791  0.1560 -0.4997 -0.2352
  139OSM   H14A15041   3.879   1.285   2.742  0.7605 -2.0993  1.9137
  139OSM   H14B15042   3.820   1.375   2.880 -0.4932 -0.6849  0.0939
  139OSM   H14C15043   3.729   1.386   2.729 -1.9720 -0.5180  1.7391
  139OSM    C1315044   3.571   1.263   2.862  0.1799  0.0400  0.4662
  139OSM   H13A15045   3.581   1.332   2.945 -1.5605  0.9808 -0.0720
  139OSM   H13B15046   3.505   1.182   2.890  0.5255 -0.3957  0.0409
  139OSM   H13C15047   3.524   1.324   2.787  0.1330 -1.0126 -0.3805
  139OSM    C1215048   3.772   1.113   2.928  0.1470  0.1650  0.8517
  139OSM   H12A15049   3.702   1.032   2.946  2.8062 -2.3852  0.3738
  139OSM   H12B15050   3.792   1.159   3.023 -0.0109  0.7090  0.6209
  139OSM    C1115051   3.900   1.039   2.894 -0.2753 -0.3096  0.6625
  139OSM   H11A15052   3.893   0.962   2.814  0.2212  0.2174  0.1060
  139OSM   H11B15053   3.927   0.988   2.989  0.7523  0.3153  0.7191
  139OSM      P15054   4.153   1.123   2.857  0.3742  0.0333  0.0569
  139OSM    O1315055   4.209   0.989   2.885  0.2949 -0.0699  0.1841
  139OSM    O1415056   4.193   1.195   2.734  0.0929  0.3129 -0.1226
  139OSM    O1115057   4.186   1.205   2.980 -0.1917  0.4618  0.2053
  139OSM    O1215058   3.995   1.133   2.844  0.0787 -0.1909 -0.5884
  139OSM    C1S15059   4.100   1.250   3.083 -0.3704 -0.3249 -0.2805
  139OSM    H1S15060   3.996   1.270   3.050 -0.3109  0.9530  0.2500
  139OSM    H1T15061   4.138   1.348   3.118  0.8192 -0.9097  0.1471
  139OSM     NF15062   4.024   1.205   3.313  0.3892  0.5696 -0.1645
  139OSM    HNF15063   4.065   1.248   3.393  0.0365 -0.8514  0.8361
  139OSM    C2S15064   4.107   1.155   3.206  0.6503  0.0216  0.1053
  139OSM    H2S15065   4.080   1.053   3.174  1.8194 -0.6781  1.2419
  139OSM    C3S15066   4.253   1.150   3.262 -0.0465  0.6910  0.2267
  139OSM    H3S15067   4.285   1.251   3.297  0.1038  2.0242 -3.3600
  139OSM     O315068   4.348   1.083   3.175  0.2735 -0.5461 -0.0390
  139OSM    HO315069   4.303   1.082   3.091  0.5975  0.6027 -0.2568
  139OSM    C4S15070   4.254   1.067   3.388  0.3261  0.2410  0.0661
  139OSM    H4S15071   4.220   0.963   3.376  0.0254  0.3308  0.1184
  139OSM    C5S15072   4.272   1.114   3.517  0.2676  0.0898 -0.3783
  139OSM    H5S15073   4.289   1.222   3.525  0.8582 -0.1359  2.2748
  139OSM    C6S15074   4.266   1.026   3.639 -0.0538  0.7460  0.1244
  139OSM    H6S15075   4.271   0.918   3.615 -2.6622  0.0783  2.0698
  139OSM    H6T15076   4.173   1.033   3.701 -1.1505 -1.3776 -1.1826
  139OSM    C7S15077   4.386   1.038   3.738  0.3013  0.2785  0.0151
  139OSM    H7S15078   4.381   1.141   3.780 -2.8672  0.8527 -1.4477
  139OSM    H7T15079   4.481   1.018   3.685  1.1260  0.2138  1.4857
  139OSM    C8S15080   4.372   0.941   3.861 -0.3478  0.1851  0.0273
  139OSM    H8S15081   4.337   0.844   3.821  0.7251  0.5347 -1.8973
  139OSM    H8T15082   4.289   0.976   3.926  0.3937 -1.8036  2.1879
  139OSM    C9S15083   4.508   0.909   3.924  0.0592 -0.7941  0.2299
  139OSM    H9S15084   4.564   0.998   3.962  1.6536  0.2052 -3.9586
  139OSM    H9T15085   4.568   0.851   3.851  4.3376  2.2293  0.9562
  139OSM   C10S15086   4.477   0.830   4.052  0.0796  0.0591 -0.1849
  139OSM   H10S15087   4.425   0.734   4.032  0.8071 -0.2805 -0.4726
  139OSM   H10T15088   4.416   0.899   4.115 -0.5123 -1.2034  0.6633
  139OSM   C11S15089   4.610   0.791   4.126 -0.0515  0.0731  0.1750
  139OSM   H11S15090   4.666   0.885   4.145 -0.8855  0.8926 -1.2704
  139OSM   H11T15091   4.665   0.711   4.072 -0.5337 -0.4619  0.4704
  139OSM   C12S15092   4.578   0.725   4.263  0.1370  0.1764  0.4103
  139OSM   H12S15093   4.494   0.654   4.249 -0.3294  0.6506  0.7575
  139OSM   H12T15094   4.543   0.804   4.332 -0.2921  0.9619 -0.6865
  139OSM   C13S15095   4.709   0.657   4.320  0.3920  0.3347  0.3493
  139OSM   H13S15096   4.792   0.731   4.315 -0.0402  0.7410 -1.3652
  139OSM   H13T15097   4.730   0.585   4.238 -2.4281 -0.5079  0.2766
  139OSM   C14S15098   4.688   0.580   4.455  0.9715 -0.2691 -0.4687
  139OSM   H14S15099   4.776   0.513   4.467  2.2891  1.3472 -0.6890
  139OSM   H14T15100   4.600   0.514   4.441  0.7659 -0.6401  2.0023
  139OSM   C15S15101   4.672   0.679   4.577 -0.1763  0.1904  0.6244
  139OSM   H15S15102   4.568   0.718   4.575  0.7706  3.0223 -2.8301
  139OSM   H15T15103   4.732   0.768   4.549  0.0560 -0.2123 -0.2020
  139OSM   C16S15104   4.697   0.627   4.712  0.6418 -0.1344  0.4096
  139OSM   H16S15105   4.601   0.580   4.741 -0.6254  2.0026 -0.1139
  139OSM   H16T15106   4.719   0.711   4.781  1.1168 -1.0686  1.4323
  139OSM   C17S15107   4.809   0.530   4.735 -0.6287  0.1291 -0.4354
  139OSM   H17S15108   4.902   0.553   4.677  0.9867  0.9929  2.3420
  139OSM   H17T15109   4.784   0.431   4.691  2.7224  0.4123 -3.5180
  139OSM   C18S15110   4.858   0.513   4.885  0.0929 -0.4412  0.6479
  139OSM   H18S15111   4.776   0.471   4.947 -0.2679  0.2112  0.6254
  139OSM   H18T15112   4.886   0.605   4.941 -2.8448  0.1753  1.2881
  139OSM   H18U15113   4.946   0.446   4.886  2.5481  2.5434  0.1099
  139OSM    C1F15114   3.893   1.188   3.303 -0.6320 -0.1836 -0.3430
  139OSM     OF15115   3.848   1.117   3.217 -0.0058  0.4041  0.1052
  139OSM    C2F15116   3.813   1.242   3.415 -0.0844  0.9565  0.5541
  139OSM    H2F15117   3.714   1.193   3.406  0.0326  0.8153 -0.0596
  139OSM    H2G15118   3.793   1.351   3.405 -1.3936  0.6076 -1.2005
  139OSM    C3F15119   3.878   1.213   3.552 -0.3741  0.6197  1.4967
  139OSM    H3F15120   3.983   1.250   3.558 -0.1710  0.6313 -0.9087
  139OSM    H3G15121   3.867   1.102   3.557 -1.9319  0.2090 -4.0975
  139OSM    C4F15122   3.801   1.272   3.667 -0.0136 -0.4629  0.7444
  139OSM    H4F15123   3.712   1.209   3.690 -0.2516 -0.7547 -0.8444
  139OSM    H4G15124   3.784   1.375   3.630 -0.4981 -0.9743 -0.5011
  139OSM    C5F15125   3.884   1.277   3.799 -0.0609  0.1648 -0.0776
  139OSM    H5F15126   3.816   1.331   3.868 -1.1270 -2.7280  1.3270
  139OSM    H5G15127   3.979   1.328   3.770  0.1956 -0.6303 -0.6694
  139OSM    C6F15128   3.915   1.134   3.849 -0.5760 -0.5365 -0.7398
  139OSM    H6F15129   3.984   1.082   3.780  1.4992 -2.0282  2.2631
  139OSM    H6G15130   3.814   1.089   3.858 -0.7920  0.0258 -0.2632
  139OSM    C7F15131   3.989   1.124   3.983  0.0641  0.1896 -0.0673
  139OSM    H7F15132   3.930   1.171   4.064 -0.5207 -2.7938  1.3895
  139OSM    H7G15133   4.084   1.176   3.957  0.9658 -0.4517  1.7320
  139OSM    C8F15134   4.022   0.973   4.021 -0.1343  0.0143 -1.1945
  139OSM    H8F15135   4.085   0.985   4.112  0.4271  1.8808 -1.7761
  139OSM    H8G15136   4.078   0.946   3.929 -0.2084  1.3146 -1.6412
  139OSM    C9F15137   3.907   0.881   4.059 -0.8867  0.1864 -0.0121
  139OSM    H9F15138   3.814   0.890   4.001 -1.5857 -1.1969  0.8399
  139OSM   C10F15139   3.919   0.774   4.147  0.2164  0.4644 -0.0285
  139OSM   H10F15140   3.840   0.698   4.157  2.3807 -1.8424  0.6053
  139OSM   C11F15141   4.042   0.723   4.218 -0.5304  0.2786 -0.1112
  139OSM   H11F15142   4.132   0.781   4.187 -0.6338 -0.4958 -2.0172
  139OSM   H11G15143   4.053   0.613   4.204 -3.9730 -0.0565 -1.0627
  139OSM   C12F15144   4.032   0.746   4.374  0.3900  0.1389  0.4085
  139OSM   H12F15145   3.965   0.673   4.426  1.8720 -0.1703  1.9953
  139OSM   H12G15146   3.996   0.848   4.398  1.8592  1.0025 -0.8975
  139OSM   C13F15147   4.172   0.738   4.446 -1.2265  0.1109 -0.5085
  139OSM   H13F15148   4.243   0.809   4.398 -0.6426 -1.1978 -1.6427
  139OSM   H13G15149   4.221   0.642   4.423  1.1535  1.3003 -0.6799
  139OSM   C14F15150   4.151   0.755   4.598  0.1414  0.2915  0.8728
  139OSM   H14F15151   4.102   0.665   4.641  2.3751 -0.3469  2.2637
  139OSM   H14G15152   4.099   0.850   4.622  0.7733  0.7134  0.6100
  139OSM   C15F15153   4.294   0.759   4.659  0.8455 -0.1196 -0.0738
  139OSM   H15F15154   4.353   0.842   4.613  0.9568 -0.2173 -0.1080
  139OSM   H15G15155   4.342   0.661   4.638  1.6065 -0.1651  1.7505
  139OSM   C16F15156   4.283   0.786   4.810  0.1232  0.5356 -0.3754
  139OSM   H16F15157   4.382   0.763   4.856  0.5902  0.4493 -1.4097
  139OSM   H16G15158   4.204   0.724   4.857  0.5556  0.7202  0.6251
  139OSM   C17F15159   4.252   0.931   4.851  0.1507  0.1833 -0.0218
  139OSM   H17F15160   4.156   0.958   4.802  0.1849 -1.2119 -0.9015
  139OSM   H17G15161   4.328   0.999   4.808 -0.6105  0.2396 -1.3300
  139OSM   C18F15162   4.244   0.939   5.004  0.1002  0.0654  0.0504
  139OSM   H18F15163   4.266   1.044   5.035  0.8033 -0.3283  0.9479
  139OSM   H18G15164   4.320   0.881   5.061 -0.3697  2.5432  3.5341
  139OSM   H18H15165   4.138   0.930   5.037 -0.5430 -1.7841 -2.2574
  140OSM      N15166   2.924   2.842   2.542 -0.4256  0.3123 -0.0440
  140OSM    C1515167   2.880   2.959   2.469  0.4800 -0.7568 -0.2952
  140OSM   H15A15168   2.822   2.935   2.381  0.5442  0.1552 -0.6020
  140OSM   H15B15169   2.963   3.021   2.437 -0.9866  0.9625 -0.9768
  140OSM   H15C15170   2.822   3.027   2.530 -1.5141 -1.8218 -0.9234
  140OSM    C1415171   2.811   2.747   2.546  0.1365 -0.3359 -0.8153
  140OSM   H14A15172   2.846   2.659   2.598  0.2917 -0.1478 -0.5971
  140OSM   H14B15173   2.778   2.726   2.445  0.5164  0.1295 -1.0402
  140OSM   H14C15174   2.721   2.784   2.593  1.0209  0.1346  0.5634
  140OSM    C1315175   3.040   2.771   2.472  0.2875  0.2599  0.9930
  140OSM   H13A15176   3.027   2.668   2.503 -1.7996  0.4480  0.9014
  140OSM   H13B15177   3.136   2.809   2.501  0.7578  1.1458 -1.4910
  140OSM   H13C15178   3.033   2.770   2.364  3.1023  1.9148  0.7035
  140OSM    C1215179   2.969   2.870   2.688 -0.3699 -0.3704 -0.3573
  140OSM   H12A15180   2.886   2.898   2.751  0.6447 -0.8518  1.2550
  140OSM   H12B15181   3.030   2.959   2.681  0.1208 -0.7602 -1.1589
  140OSM    C1115182   3.038   2.756   2.756  0.5948  0.0697 -0.1886
  140OSM   H11A15183   3.082   2.808   2.844 -2.3405  0.9572  0.8652
  140OSM   H11B15184   3.116   2.702   2.699 -0.3862 -0.7343 -0.8029
  140OSM      P15185   2.935   2.517   2.783 -0.2591 -0.0598  0.1595
  140OSM    O1315186   2.809   2.472   2.841  0.1469 -0.3544 -0.1843
  140OSM    O1415187   2.959   2.486   2.640 -0.5964 -0.0995 -0.1138
  140OSM    O1115188   3.052   2.462   2.868 -0.4154 -0.1465  0.6870
  140OSM    O1215189   2.933   2.673   2.803  0.1821  0.1810 -0.3682
  140OSM    C1S15190   3.087   2.522   2.994 -0.4934  0.1024  0.3059
  140OSM    H1S15191   3.040   2.620   3.017 -0.5680 -0.0695  0.8834
  140OSM    H1T15192   3.193   2.556   3.004 -1.1622  2.5007 -0.0397
  140OSM     NF15193   3.043   2.487   3.238 -0.3468 -0.1955 -0.0926
  140OSM    HNF15194   3.127   2.486   3.291  0.0914 -2.0572 -0.7373
  140OSM    C2S15195   3.047   2.425   3.107 -0.3971 -0.0896 -0.7155
  140OSM    H2S15196   2.951   2.375   3.084 -1.2318  0.8442  0.6071
  140OSM    C3S15197   3.144   2.308   3.095 -0.7423 -0.8355 -0.1910
  140OSM    H3S15198   3.247   2.346   3.109 -0.7655 -0.8212 -0.0498
  140OSM     O315199   3.153   2.247   2.967 -0.1413 -0.1224  0.0429
  140OSM    HO315200   3.107   2.309   2.909  0.9722  0.2064 -0.5050
  140OSM    C4S15201   3.113   2.211   3.200 -0.0143  0.9166 -0.3226
  140OSM    H4S15202   3.016   2.160   3.199 -0.3632  1.2475  3.3413
  140OSM    C5S15203   3.198   2.173   3.301  0.5644  0.5042 -0.0102
  140OSM    H5S15204   3.302   2.209   3.308  0.8864 -0.3602 -0.1598
  140OSM    C6S15205   3.164   2.061   3.401  0.4777  0.1893 -0.6826
  140OSM    H6S15206   3.236   1.976   3.399  1.3454  0.9231 -1.7636
  140OSM    H6T15207   3.058   2.031   3.394  0.0307  1.4528  0.3235
  140OSM    C7S15208   3.185   2.099   3.552 -0.0626  0.0694  0.2403
  140OSM    H7S15209   3.145   2.200   3.575 -0.1033  0.3074 -0.8060
  140OSM    H7T15210   3.294   2.101   3.575 -0.3538  0.1914  1.6652
  140OSM    C8S15211   3.124   2.001   3.647  0.4937 -0.0601 -0.2516
  140OSM    H8S15212   3.195   1.916   3.641  1.3673  0.6179  0.2043
  140OSM    H8T15213   3.029   1.952   3.615 -1.0693 -0.3543  4.0941
  140OSM    C9S15214   3.121   2.043   3.798 -0.0745 -0.4072  0.9328
  140OSM    H9S15215   3.062   2.137   3.809 -0.2669 -0.4559  0.3889
  140OSM    H9T15216   3.216   2.082   3.838 -0.0328  2.3609 -1.5320
  140OSM   C10S15217   3.073   1.928   3.892 -0.1690 -0.9135  0.0372
  140OSM   H10S15218   3.118   1.832   3.858 -0.5435 -1.2002  0.3443
  140OSM   H10T15219   2.966   1.915   3.867  0.1101  1.0813 -2.7040
  140OSM   C11S15220   3.095   1.964   4.040  0.2280  0.6973 -0.7195
  140OSM   H11S15221   3.195   2.005   4.065 -0.1451  1.2114 -0.0338
  140OSM   H11T15222   3.090   1.874   4.105 -2.5630  0.5390 -1.0253
  140OSM   C12S15223   2.991   2.063   4.089  0.0772  0.1562 -0.1818
  140OSM   H12S15224   2.896   2.039   4.035  0.6744 -0.8967 -0.7911
  140OSM   H12T15225   3.014   2.167   4.061 -3.5333  1.5296  1.3567
  140OSM   C13S15226   2.953   2.045   4.236  0.0533  0.0514 -0.1148
  140OSM   H13S15227   3.039   2.027   4.304  0.4878  0.7553 -0.4588
  140OSM   H13T15228   2.886   1.957   4.243  0.4047 -0.3760 -1.6818
  140OSM   C14S15229   2.858   2.161   4.285 -0.3835  0.1313  0.0661
  140OSM   H14S15230   2.776   2.152   4.211  1.2949  0.9591 -2.0215
  140OSM   H14T15231   2.920   2.251   4.266  1.3763 -0.8763  0.7201
  140OSM   C15S15232   2.797   2.158   4.425  0.1986 -0.7306 -0.0375
  140OSM   H15S15233   2.806   2.057   4.471  1.1398 -0.1454  1.1258
  140OSM   H15T15234   2.688   2.176   4.410  0.4481 -0.2145 -1.3862
  140OSM   C16S15235   2.867   2.264   4.517  1.1420 -0.3012 -0.2491
  140OSM   H16S15236   2.885   2.358   4.459 -1.3834 -0.4269 -1.3760
  140OSM   H16T15237   2.965   2.224   4.549  0.1908 -2.5069  0.0885
  140OSM   C17S15238   2.789   2.301   4.647  0.3745 -0.4345 -0.3685
  140OSM   H17S15239   2.682   2.304   4.616  0.2993  0.4463 -0.0604
  140OSM   H17T15240   2.821   2.400   4.686 -0.1458 -0.1159 -0.7329
  140OSM   C18S15241   2.811   2.185   4.745  0.0204  0.2252 -0.1489
  140OSM   H18S15242   2.754   2.204   4.839  0.8499 -1.6521  0.7924
  140OSM   H18T15243   2.919   2.188   4.768 -0.1363 -1.4463  1.0436
  140OSM   H18U15244   2.780   2.083   4.712 -3.4350 -0.4796  4.2608
  140OSM    C1F15245   2.929   2.547   3.267 -0.2692  0.9164  0.1111
  140OSM     OF15246   2.826   2.534   3.196  0.2356  0.5533  0.6808
  140OSM    C2F15247   2.932   2.624   3.394 -0.6640  0.3552 -0.7564
  140OSM    H2F15248   2.874   2.717   3.379 -0.2573  0.8215  0.4339
  140OSM    H2G15249   3.038   2.640   3.420 -0.9184 -0.0942  0.6489
  140OSM    C3F15250   2.852   2.536   3.494  0.6948 -0.0335  0.3191
  140OSM    H3F15251   2.888   2.431   3.490  0.4618 -0.1389  0.9036
  140OSM    H3G15252   2.746   2.544   3.461  0.7439  2.5289  0.5856
  140OSM    C4F15253   2.874   2.586   3.638  0.4996 -0.4144  0.0174
  140OSM    H4F15254   2.819   2.682   3.643 -0.0039 -0.5890 -1.6501
  140OSM    H4G15255   2.983   2.600   3.658  0.9155 -1.8946 -1.0612
  140OSM    C5F15256   2.807   2.498   3.749 -0.1146  0.1919  0.0015
  140OSM    H5F15257   2.849   2.395   3.747 -2.3044 -0.7335 -0.6359
  140OSM    H5G15258   2.699   2.483   3.729  0.0630 -0.4886 -0.5213
  140OSM    C6F15259   2.844   2.556   3.892  0.2304 -0.0608  0.0533
  140OSM    H6F15260   2.831   2.667   3.891 -0.3629 -0.0838  2.0528
  140OSM    H6G15261   2.953   2.538   3.907  1.0530  1.9104 -2.5955
  140OSM    C7F15262   2.763   2.501   4.014 -0.3057  0.4967  0.8486
  140OSM    H7F15263   2.796   2.398   4.036  0.8845  1.1575  2.3429
  140OSM    H7G15264   2.661   2.485   3.973  1.0546 -1.9656 -1.8934
  140OSM    C8F15265   2.774   2.593   4.134  0.2136 -0.0600  0.2262
  140OSM    H8F15266   2.720   2.688   4.110 -3.8640 -1.7639  1.7812
  140OSM    H8G15267   2.873   2.617   4.178 -0.6633 -2.0985  3.7083
  140OSM    C9F15268   2.704   2.511   4.241  0.0382  0.8117  0.1051
  140OSM    H9F15269   2.659   2.415   4.213 -1.2689  1.3762  0.2020
  140OSM   C10F15270   2.683   2.559   4.365  0.9175  0.1093  0.0332
  140OSM   H10F15271   2.626   2.495   4.433 -0.0638 -0.5286 -1.3291
  140OSM   C11F15272   2.713   2.701   4.415  0.4949 -0.3779  0.5766
  140OSM   H11F15273   2.741   2.780   4.342 -0.2845 -0.0381  0.6375
  140OSM   H11G15274   2.802   2.696   4.481 -1.0148 -0.1877  2.7520
  140OSM   C12F15275   2.610   2.773   4.508  0.2820  0.0052  0.3800
  140OSM   H12F15276   2.508   2.755   4.468  0.8376  1.4582 -1.8596
  140OSM   H12G15277   2.616   2.884   4.508  2.2910 -0.0343  1.6953
  140OSM   C13F15278   2.612   2.736   4.659  0.4439  0.0965 -0.2077
  140OSM   H13F15279   2.715   2.747   4.700  0.3240 -0.6477  0.2981
  140OSM   H13G15280   2.581   2.630   4.663 -1.5140  0.6219 -0.1876
  140OSM   C14F15281   2.510   2.812   4.744  0.3875 -0.4762 -0.9348
  140OSM   H14F15282   2.413   2.799   4.691 -0.0510 -0.6844 -0.0883
  140OSM   H14G15283   2.539   2.918   4.728 -0.1085 -0.2027 -0.0869
  140OSM   C15F15284   2.496   2.787   4.893  0.0715 -0.0092 -0.1972
  140OSM   H15F15285   2.599   2.792   4.933  0.3012 -1.1767 -0.6129
  140OSM   H15G15286   2.466   2.681   4.899  1.2623 -0.4925 -2.0094
  140OSM   C16F15287   2.397   2.886   4.949 -0.0758 -0.0021  0.2631
  140OSM   H16F15288   2.370   2.856   5.052 -1.5603  1.6092  0.3887
  140OSM   H16G15289   2.297   2.888   4.900 -1.0125  2.5234  2.0794
  140OSM   C17F15290   2.449   3.034   4.957  0.7241  0.6825 -0.6378
  140OSM   H17F15291   2.393   3.086   5.037  1.1835 -1.0957  0.9405
  140OSM   H17G15292   2.434   3.086   4.861 -0.3258  1.7103  0.0624
  140OSM   C18F15293   2.598   3.050   4.987 -0.4556 -0.3785  0.0574
  140OSM   H18F15294   2.643   2.986   4.908 -0.4199  1.2974 -1.3527
  140OSM   H18G15295   2.628   3.000   5.082  0.9373 -0.2623 -0.3099
  140OSM   H18H15296   2.619   3.158   4.977  0.0053 -0.3791  0.9370
  141OSM      N15297   0.278   3.012   2.756  0.4360 -0.5411  0.2106
  141OSM    C1515298   0.217   2.985   2.623 -0.1273  0.4057 -0.6222
  141OSM   H15A15299   0.159   3.066   2.581 -1.1758  0.8479  1.5537
  141OSM   H15B15300   0.147   2.904   2.634  2.8505 -2.3843 -0.8257
  141OSM   H15C15301   0.293   2.942   2.559 -0.8940 -0.4839 -0.9373
  141OSM    C1415302   0.167   3.057   2.860 -0.6350 -0.2736  0.4077
  141OSM   H14A15303   0.109   2.969   2.881 -1.0386 -0.0510  0.2246
  141OSM   H14B15304   0.103   3.133   2.819  1.3106  0.3578 -1.6800
  141OSM   H14C15305   0.210   3.105   2.947 -0.2686 -0.4410  0.3220
  141OSM    C1315306   0.329   2.888   2.826 -0.2865 -0.2882 -0.1923
  141OSM   H13A15307   0.269   2.798   2.826 -0.8513  0.0813 -0.9428
  141OSM   H13B15308   0.350   2.910   2.929 -1.7552 -0.9085  0.2594
  141OSM   H13C15309   0.415   2.855   2.769  0.0565 -0.4277  0.3931
  141OSM    C1215310   0.377   3.124   2.750 -0.0558  0.5276 -0.2879
  141OSM   H12A15311   0.418   3.126   2.850 -0.3125  1.4097 -0.1888
  141OSM   H12B15312   0.322   3.212   2.722  1.2504  1.8389  1.0826
  141OSM    C1115313   0.490   3.095   2.653 -0.7784  0.2440  0.6386
  141OSM   H11A15314   0.549   3.188   2.640  1.5978 -1.0596  1.4497
  141OSM   H11B15315   0.444   3.081   2.553  1.7213 -2.3347 -0.2825
  141OSM      P15316   0.714   2.983   2.702  0.0760 -0.1124 -0.3172
  141OSM    O1315317   0.762   2.845   2.709  0.4392 -1.3026 -0.3497
  141OSM    O1415318   0.768   3.078   2.603 -0.7541 -0.5963  0.0347
  141OSM    O1115319   0.724   3.050   2.843 -0.1906  0.5342  0.3986
  141OSM    O1215320   0.564   2.971   2.686 -0.3255 -0.7823 -0.6072
  141OSM    C1S15321   0.648   3.016   2.956 -0.0092  0.0410 -0.5934
  141OSM    H1S15322   0.616   2.909   2.953 -1.2053  0.1882  2.7422
  141OSM    H1T15323   0.561   3.084   2.964 -0.2845 -0.1668 -1.6932
  141OSM     NF15324   0.660   2.993   3.203 -0.6712  0.0072 -0.0857
  141OSM    HNF15325   0.650   3.070   3.265 -2.2326  0.3362 -0.6891
  141OSM    C2S15326   0.738   3.021   3.089  0.3760  0.3643  0.0643
  141OSM    H2S15327   0.809   2.936   3.078  0.0149  0.3408 -2.8597
  141OSM    C3S15328   0.826   3.144   3.099 -0.2273 -0.7584 -0.7229
  141OSM    H3S15329   0.757   3.227   3.125 -2.7311 -2.8409 -0.2985
  141OSM     O315330   0.895   3.178   2.981  0.3467  0.2275 -0.1963
  141OSM    HO315331   0.851   3.136   2.907  0.6406  0.3290 -0.4320
  141OSM    C4S15332   0.931   3.134   3.213  0.2832 -0.2553 -0.2693
  141OSM    H4S15333   0.995   3.044   3.212  1.3041  0.4266  0.7688
  141OSM    C5S15334   0.944   3.216   3.317 -0.4132 -0.6177  0.3033
  141OSM    H5S15335   0.872   3.298   3.331 -1.6936 -1.8668  1.3814
  141OSM    C6S15336   1.042   3.191   3.431 -0.2562  0.0015 -0.1669
  141OSM    H6S15337   1.113   3.273   3.457 -1.7744  0.7487  1.8201
  141OSM    H6T15338   1.121   3.115   3.408  2.3635  2.7284 -0.8535
  141OSM    C7S15339   0.959   3.147   3.562 -0.3481 -0.1246 -0.5764
  141OSM    H7S15340   0.895   3.057   3.549 -1.4241  0.4639  0.4799
  141OSM    H7T15341   0.887   3.227   3.588 -0.2953 -0.0162 -0.7618
  141OSM    C8S15342   1.039   3.108   3.694 -0.2041 -1.1679  0.0225
  141OSM    H8S15343   1.098   3.015   3.681 -0.1731 -1.5870  2.6167
  141OSM    H8T15344   0.965   3.076   3.771 -0.6477  0.3222  0.2441
  141OSM    C9S15345   1.114   3.238   3.737 -0.1411 -0.4025 -0.2129
  141OSM    H9S15346   1.034   3.311   3.712 -1.2597 -1.7213 -0.6310
  141OSM    H9T15347   1.204   3.251   3.674  1.9613  2.7016  3.0853
  141OSM   C10S15348   1.155   3.247   3.889  0.8142  0.1430  1.0637
  141OSM   H10S15349   1.205   3.344   3.904 -0.7887  1.2013 -0.0164
  141OSM   H10T15350   1.204   3.153   3.921 -2.7974 -1.6415  1.8764
  141OSM   C11S15351   1.027   3.264   3.973 -0.1704  0.0800  0.1536
  141OSM   H11S15352   0.985   3.168   4.009  0.7974 -0.5031 -0.2387
  141OSM   H11T15353   0.940   3.320   3.932 -2.5226 -1.5432  2.5911
  141OSM   C12S15354   1.061   3.330   4.112  0.4671  0.1142  0.6679
  141OSM   H12S15355   1.095   3.434   4.091  0.7738 -0.1882 -0.3549
  141OSM   H12T15356   1.143   3.267   4.151  1.0000 -0.6704 -1.5768
  141OSM   C13S15357   0.953   3.333   4.213 -0.2150  0.1734  0.2840
  141OSM   H13S15358   0.902   3.234   4.215  2.0480 -1.0503  0.1568
  141OSM   H13T15359   0.886   3.413   4.176  0.3618  0.3890 -0.2955
  141OSM   C14S15360   0.990   3.370   4.357  0.1333 -0.2144 -0.6755
  141OSM   H14S15361   1.078   3.437   4.351 -0.9101  1.1599 -1.1323
  141OSM   H14T15362   1.026   3.285   4.419  2.2112  0.6466 -0.6365
  141OSM   C15S15363   0.868   3.438   4.428 -0.4290 -0.5606 -0.3074
  141OSM   H15S15364   0.780   3.370   4.426  0.6581 -2.0700  1.1636
  141OSM   H15T15365   0.837   3.525   4.365 -1.0778 -1.6462 -1.5408
  141OSM   C16S15366   0.890   3.477   4.582  0.0626 -0.6058  0.3566
  141OSM   H16S15367   0.971   3.551   4.599 -1.6623  0.9610  2.3014
  141OSM   H16T15368   0.910   3.378   4.628  1.8665  0.5245  2.1602
  141OSM   C17S15369   0.771   3.550   4.645  0.4129 -0.2839  0.4708
  141OSM   H17S15370   0.674   3.508   4.612 -1.6894  3.7054  0.8923
  141OSM   H17T15371   0.770   3.652   4.600  0.7145 -0.7120 -0.5117
  141OSM   C18S15372   0.778   3.568   4.793 -0.0828 -0.4477 -0.1253
  141OSM   H18S15373   0.818   3.473   4.834  1.3593 -0.5301 -1.6158
  141OSM   H18T15374   0.676   3.589   4.833  0.4299  2.1830 -0.0695
  141OSM   H18U15375   0.830   3.661   4.824  0.2543  0.1975 -2.4188
  141OSM    C1F15376   0.582   2.883   3.235  0.4133 -0.5580  0.1332
  141OSM     OF15377   0.582   2.780   3.176 -0.2429 -0.0881  0.2297
  141OSM    C2F15378   0.490   2.909   3.352 -0.4567  0.1471  0.7135
  141OSM    H2F15379   0.403   2.968   3.316 -1.7616 -1.8908  0.3667
  141OSM    H2G15380   0.549   2.979   3.414  3.0673 -0.6965 -1.3912
  141OSM    C3F15381   0.446   2.786   3.432  0.4459  0.3531 -0.2353
  141OSM    H3F15382   0.519   2.746   3.505 -0.4183 -1.7839 -0.4660
  141OSM    H3G15383   0.428   2.706   3.357 -1.7043  0.3674  0.1898
  141OSM    C4F15384   0.325   2.801   3.526 -0.3188 -0.4602 -0.0784
  141OSM    H4F15385   0.313   2.702   3.576  1.7122 -0.8574 -0.2772
  141OSM    H4G15386   0.233   2.814   3.466  0.2808  0.1519 -0.9030
  141OSM    C5F15387   0.339   2.900   3.642 -0.4217  0.3014 -0.3661
  141OSM    H5F15388   0.237   2.921   3.681 -1.0962 -2.5646 -0.3210
  141OSM    H5G15389   0.393   2.994   3.619  1.2614 -0.3486  0.7176
  141OSM    C6F15390   0.416   2.844   3.761  0.0497  0.1548  0.2320
  141OSM    H6F15391   0.516   2.808   3.728 -0.3411 -1.8725  1.0933
  141OSM    H6G15392   0.352   2.763   3.802 -1.2225  0.2159 -1.5184
  141OSM    C7F15393   0.453   2.947   3.873  0.5006 -0.4757  0.1781
  141OSM    H7F15394   0.519   3.020   3.821 -0.0633  1.6558  2.2521
  141OSM    H7G15395   0.506   2.900   3.958 -0.0481  0.8154  1.2770
  141OSM    C8F15396   0.330   3.037   3.918  0.1568  0.4342 -0.3803
  141OSM    H8F15397   0.271   3.070   3.829 -2.1783 -0.5983  0.6841
  141OSM    H8G15398   0.364   3.117   3.987 -1.4738 -0.1549  1.1785
  141OSM    C9F15399   0.244   2.942   4.002 -0.3927  0.3543 -0.1417
  141OSM    H9F15400   0.163   2.889   3.949 -0.4876 -0.7122  1.0245
  141OSM   C10F15401   0.269   2.906   4.127 -0.0751 -0.1076  0.0879
  141OSM   H10F15402   0.199   2.840   4.179 -0.8044  1.4278  1.1498
  141OSM   C11F15403   0.372   2.963   4.217 -0.3347  0.5315 -0.4870
  141OSM   H11F15404   0.447   3.033   4.175 -0.5464  0.3061 -1.2562
  141OSM   H11G15405   0.437   2.885   4.262 -0.7488 -0.0609 -0.9054
  141OSM   C12F15406   0.316   3.054   4.326  0.2332 -0.1609  0.5345
  141OSM   H12F15407   0.236   2.996   4.378 -2.3068  1.3457 -1.4393
  141OSM   H12G15408   0.259   3.140   4.284 -1.1065 -0.5525  1.4762
  141OSM   C13F15409   0.404   3.098   4.445  0.3077  0.0860 -0.5170
  141OSM   H13F15410   0.493   3.153   4.408 -0.2154  0.3880 -1.3600
  141OSM   H13G15411   0.443   3.020   4.514 -0.7592  1.7726  2.1817
  141OSM   C14F15412   0.326   3.198   4.533  0.0540  0.4549  1.1284
  141OSM   H14F15413   0.226   3.158   4.561 -0.7395 -0.0086 -2.0026
  141OSM   H14G15414   0.312   3.292   4.476  0.7450  1.5359  2.6845
  141OSM   C15F15415   0.399   3.221   4.670 -0.3620 -0.6486  0.3242
  141OSM   H15F15416   0.486   3.289   4.654 -1.6351  1.1819  0.9232
  141OSM   H15G15417   0.443   3.125   4.707  0.9932  0.1118  0.7709
  141OSM   C16F15418   0.301   3.270   4.774  0.1652  0.3816 -0.5184
  141OSM   H16F15419   0.229   3.191   4.806 -0.1243  0.6351 -0.5426
  141OSM   H16G15420   0.233   3.350   4.737 -0.8931 -0.0725  0.3556
  141OSM   C17F15421   0.378   3.321   4.893  0.5750  0.4210 -0.6364
  141OSM   H17F15422   0.450   3.403   4.869  0.5403 -0.1200 -2.7707
  141OSM   H17G15423   0.443   3.243   4.937  1.9026  0.7485 -1.9112
  141OSM   C18F15424   0.292   3.398   4.992 -0.3566 -0.6926  0.3454
  141OSM   H18F15425   0.203   3.341   5.027 -0.5478 -0.7335 -0.1994
  141OSM   H18G15426   0.236   3.470   4.929 -0.1220 -2.3404 -1.8477
  141OSM   H18H15427   0.351   3.444   5.074  1.1299 -0.9586 -0.5397
  142OSM      N15428   1.838   5.082   2.437  1.1242 -0.8869 -0.4259
  142OSM    C1515429   1.884   4.953   2.371  0.5121  0.2733  0.5349
  142OSM   H15A15430   1.992   4.953   2.371  0.6242 -0.3436 -2.5936
  142OSM   H15B15431   1.856   4.946   2.266  0.7603  0.2339  0.4708
  142OSM   H15C15432   1.839   4.867   2.419 -2.2953  0.2082 -1.8902
  142OSM    C1415433   1.893   5.205   2.369 -0.6257  0.6934  1.0660
  142OSM   H14A15434   1.881   5.193   2.263 -0.2926  0.4501  1.0540
  142OSM   H14B15435   1.997   5.229   2.390  0.7290 -3.3083 -0.2161
  142OSM   H14C15436   1.834   5.290   2.398 -1.1100  0.3973  0.9558
  142OSM    C1315437   1.690   5.085   2.424 -0.2885 -0.2092  0.2410
  142OSM   H13A15438   1.658   5.100   2.322 -0.5408  0.2118  0.3769
  142OSM   H13B15439   1.655   5.170   2.481  3.1866  0.4530  1.6689
  142OSM   H13C15440   1.654   4.993   2.467 -0.3304 -0.3708 -0.1382
  142OSM    C1215441   1.877   5.088   2.579  0.5109  0.1674  0.4151
  142OSM   H12A15442   1.981   5.115   2.577  0.6554  0.5161 -5.4299
  142OSM   H12B15443   1.855   5.000   2.637 -0.9945  0.9910  1.1634
  142OSM    C1115444   1.804   5.199   2.660  0.3207 -0.5684 -0.2935
  142OSM   H11A15445   1.831   5.174   2.765 -0.5674 -2.0883 -0.3839
  142OSM   H11B15446   1.693   5.192   2.648 -0.1252  2.7455  0.8954
  142OSM      P15447   1.924   5.441   2.688  0.3121 -0.2778  0.1607
  142OSM    O1315448   2.068   5.404   2.682  0.1259  0.6776  0.1812
  142OSM    O1415449   1.887   5.571   2.630 -0.0180  0.1545 -0.1197
  142OSM    O1115450   1.871   5.417   2.832  0.0299  0.6904 -0.0262
  142OSM    O1215451   1.838   5.332   2.611  0.5168  0.0461  0.3039
  142OSM    C1S15452   1.751   5.486   2.879  0.4553  0.8006  0.1539
  142OSM    H1S15453   1.660   5.451   2.825 -0.6967  2.5885  0.8263
  142OSM    H1T15454   1.758   5.596   2.866 -1.6447  1.1448  1.3375
  142OSM     NF15455   1.608   5.522   3.076 -0.5330 -0.4221  0.3645
  142OSM    HNF15456   1.610   5.600   3.138  2.0015 -1.0300  1.1508
  142OSM    C2S15457   1.730   5.467   3.036  0.0494  0.4268  0.0118
  142OSM    H2S15458   1.722   5.359   3.059  1.1242  0.2133 -0.5665
  142OSM    C3S15459   1.860   5.511   3.118 -0.0522 -0.4007 -0.2621
  142OSM    H3S15460   1.873   5.616   3.085  1.5829 -0.8673 -1.2304
  142OSM     O315461   1.987   5.447   3.077  0.0954  0.0430  0.2031
  142OSM    HO315462   1.964   5.403   2.994  0.5797 -1.7062  0.9394
  142OSM    C4S15463   1.832   5.514   3.271 -0.2942  0.2642  0.0677
  142OSM    H4S15464   1.822   5.614   3.315 -0.4658  0.4593 -0.4041
  142OSM    C5S15465   1.861   5.413   3.357 -0.4755 -0.0089 -0.3672
  142OSM    H5S15466   1.887   5.317   3.310 -1.1095  0.8881 -2.6917
  142OSM    C6S15467   1.861   5.438   3.504 -0.3058  0.2601 -0.4516
  142OSM    H6S15468   1.896   5.346   3.554  0.7425  1.9574  2.1638
  142OSM    H6T15469   1.762   5.451   3.552 -0.8190 -1.4360 -0.9963
  142OSM    C7S15470   1.944   5.554   3.551 -0.0530 -0.5805  0.1124
  142OSM    H7S15471   1.904   5.646   3.503 -1.1851 -0.0560  1.9676
  142OSM    H7T15472   2.052   5.538   3.532  0.4785  2.2949  0.1990
  142OSM    C8S15473   1.914   5.575   3.696  0.2048 -0.0848 -0.5041
  142OSM    H8S15474   1.929   5.482   3.755 -1.4548  0.5047  0.9328
  142OSM    H8T15475   1.812   5.616   3.707  0.2710 -0.0733  0.1181
  142OSM    C9S15476   2.012   5.678   3.761  0.0712  1.0432  1.0795
  142OSM    H9S15477   2.029   5.753   3.681 -0.2592  2.1704  2.0424
  142OSM    H9T15478   2.106   5.621   3.781  1.3674  1.0753 -3.5804
  142OSM   C10S15479   1.962   5.737   3.897  0.9477 -0.8340  0.2534
  142OSM   H10S15480   1.925   5.655   3.962 -0.2943  1.5240  2.7226
  142OSM   H10T15481   1.864   5.786   3.876  1.0534 -1.2006 -1.1851
  142OSM   C11S15482   2.066   5.820   3.964 -0.3540 -0.6205 -0.6406
  142OSM   H11S15483   2.118   5.888   3.893 -0.0263  1.4976  1.4720
  142OSM   H11T15484   2.135   5.746   4.010 -1.1575  0.5457  2.7020
  142OSM   C12S15485   2.010   5.906   4.074  0.6456 -0.5070 -0.1763
  142OSM   H12S15486   1.924   5.953   4.020  1.9144  1.0576 -0.9218
  142OSM   H12T15487   2.085   5.986   4.094 -0.2640 -0.3399  3.2020
  142OSM   C13S15488   1.975   5.829   4.201 -0.1743  0.0666 -0.2575
  142OSM   H13S15489   2.053   5.750   4.211  0.6516  0.7294 -1.2589
  142OSM   H13T15490   1.878   5.776   4.187  0.3647 -0.9421 -0.2550
  142OSM   C14S15491   1.960   5.934   4.320  0.2556  0.2143  0.3262
  142OSM   H14S15492   1.893   6.018   4.290 -1.0279 -0.9360 -0.1538
  142OSM   H14T15493   2.060   5.980   4.336  0.2880  0.2122  0.1428
  142OSM   C15S15494   1.903   5.879   4.454 -0.7873  0.3512  0.1659
  142OSM   H15S15495   1.958   5.787   4.485 -0.3475  1.1148  1.7245
  142OSM   H15T15496   1.796   5.853   4.438 -1.7920  3.6061  1.0026
  142OSM   C16S15497   1.919   5.985   4.558 -0.2794  0.0225  0.5506
  142OSM   H16S15498   1.858   6.073   4.527 -0.5418  0.1200  1.3069
  142OSM   H16T15499   2.024   6.022   4.568 -0.4222  0.3893  0.6986
  142OSM   C17S15500   1.872   5.932   4.692  0.1381  0.6745 -0.3062
  142OSM   H17S15501   1.929   5.842   4.725 -0.2546  0.4822 -0.1372
  142OSM   H17T15502   1.767   5.895   4.689  0.0477  0.4124  2.7107
  142OSM   C18S15503   1.867   6.036   4.800  0.2864 -0.2410  0.7118
  142OSM   H18S15504   1.838   5.991   4.898 -0.7312 -0.2327  0.4222
  142OSM   H18T15505   1.801   6.121   4.775  0.3236  0.0822  1.6458
  142OSM   H18U15506   1.968   6.082   4.807  0.6910 -0.2914 -3.1495
  142OSM    C1F15507   1.495   5.492   3.033  1.0863 -0.5338  0.5070
  142OSM     OF15508   1.469   5.374   3.010  0.2640 -0.4955  0.2354
  142OSM    C2F15509   1.396   5.603   3.024 -0.7122 -0.0245  0.1187
  142OSM    H2F15510   1.385   5.633   2.918  1.7329  0.0021 -0.1699
  142OSM    H2G15511   1.432   5.689   3.084  2.2946 -0.0961 -1.4230
  142OSM    C3F15512   1.257   5.560   3.084 -0.2121  0.4882 -0.6746
  142OSM    H3F15513   1.198   5.493   3.017 -1.9820  1.4765 -0.1568
  142OSM    H3G15514   1.193   5.651   3.077 -0.7791  0.1088 -0.5405
  142OSM    C4F15515   1.253   5.509   3.230  0.2964  0.1598 -0.8286
  142OSM    H4F15516   1.292   5.405   3.224  1.2567  0.4996 -0.6063
  142OSM    H4G15517   1.150   5.502   3.271  0.8839  0.2980  0.7068
  142OSM    C5F15518   1.346   5.581   3.328 -0.5095  0.3740 -0.3211
  142OSM    H5F15519   1.323   5.690   3.318 -2.9613 -0.0957 -0.5445
  142OSM    H5G15520   1.456   5.574   3.313 -0.1737 -0.1454  1.9160
  142OSM    C6F15521   1.309   5.544   3.482 -0.0236 -0.3469  0.0955
  142OSM    H6F15522   1.310   5.433   3.482 -0.5357 -0.3600  0.5075
  142OSM    H6G15523   1.209   5.590   3.502 -0.8721 -1.5757 -1.1251
  142OSM    C7F15524   1.417   5.585   3.587  0.6282 -0.2310  0.1495
  142OSM    H7F15525   1.436   5.691   3.562  0.0094 -0.8593 -3.6704
  142OSM    H7G15526   1.506   5.525   3.558 -0.7290 -2.0418 -0.5086
  142OSM    C8F15527   1.376   5.544   3.736  0.0315  0.4884  0.4864
  142OSM    H8F15528   1.285   5.603   3.761 -0.0013  0.9291 -0.5934
  142OSM    H8G15529   1.462   5.569   3.802  1.9758  1.3945 -2.2251
  142OSM    C9F15530   1.344   5.398   3.751  0.6981 -0.1669  0.7231
  142OSM    H9F15531   1.237   5.372   3.759  0.2548  1.7721  1.5266
  142OSM   C10F15532   1.436   5.292   3.735 -0.5681 -0.1486  0.4802
  142OSM   H10F15533   1.406   5.187   3.734  0.8467 -0.5612 -0.3016
  142OSM   C11F15534   1.586   5.297   3.726 -0.6169  1.1888 -0.7049
  142OSM   H11F15535   1.617   5.404   3.736  2.3450  0.2610  2.2495
  142OSM   H11G15536   1.616   5.252   3.629  0.2036  0.4703 -0.1329
  142OSM   C12F15537   1.665   5.216   3.831  0.2148 -0.7253  0.7485
  142OSM   H12F15538   1.774   5.238   3.831  0.5492 -2.0849 -1.0289
  142OSM   H12G15539   1.660   5.109   3.801  0.1081 -0.2611 -1.0248
  142OSM   C13F15540   1.617   5.227   3.974 -0.5765  0.6929  0.1948
  142OSM   H13F15541   1.673   5.148   4.028 -0.9369 -0.2136 -0.7224
  142OSM   H13G15542   1.513   5.189   3.964  0.0146 -1.0477  0.2935
  142OSM   C14F15543   1.620   5.366   4.039 -0.7226  0.6011 -0.1919
  142OSM   H14F15544   1.559   5.440   3.984 -0.8064  0.9047  0.3017
  142OSM   H14G15545   1.729   5.392   4.041  0.4695 -3.6662  0.4251
  142OSM   C15F15546   1.570   5.346   4.178  0.8271 -0.1993  0.0370
  142OSM   H15F15547   1.631   5.272   4.233 -0.6369 -0.0692  1.9217
  142OSM   H15G15548   1.473   5.292   4.186  0.9572 -0.9883 -2.6597
  142OSM   C16F15549   1.567   5.481   4.258  0.6923  0.2136 -0.2993
  142OSM   H16F15550   1.479   5.538   4.222 -0.0520 -0.7816 -0.0831
  142OSM   H16G15551   1.654   5.543   4.226  0.4053  0.6721 -0.1956
  142OSM   C17F15552   1.569   5.459   4.411 -0.5342 -0.2609 -0.3026
  142OSM   H17F15553   1.669   5.432   4.452 -0.5235  0.6005  0.2645
  142OSM   H17G15554   1.500   5.375   4.436 -0.9288  0.4126  0.9698
  142OSM   C18F15555   1.498   5.580   4.482  0.5119 -0.4706 -0.0507
  142OSM   H18F15556   1.489   5.569   4.593  0.3024  2.6547  0.3175
  142OSM   H18G15557   1.404   5.608   4.431  1.3095  0.8312 -0.8446
  142OSM   H18H15558   1.558   5.670   4.459 -0.9103  0.1775 -1.3905
  143OSM      N15559   0.098   3.795   2.555  0.0506 -0.1025 -0.4753
  143OSM    C1515560   0.076   3.654   2.519  0.1686 -0.0796 -0.1966
  143OSM   H15A15561   0.062   3.644   2.413  1.2439 -1.0996 -0.2671
  143OSM   H15B15562  -0.015   3.613   2.560  0.2589 -2.3529 -2.0437
  143OSM   H15C15563   0.150   3.581   2.545 -0.3959 -1.2172 -1.6318
  143OSM    C1415564   0.235   3.818   2.504  0.2696  0.5074 -0.0114
  143OSM   H14A15565   0.261   3.907   2.559  0.3368 -0.0079  0.8052
  143OSM   H14B15566   0.241   3.826   2.396  1.3017 -0.1935 -0.0220
  143OSM   H14C15567   0.295   3.734   2.534 -2.4403 -1.8685 -0.7516
  143OSM    C1315568   0.002   3.893   2.493 -0.1202 -0.2995  0.3999
  143OSM   H13A15569   0.012   3.887   2.386  0.6741  2.8065  0.2023
  143OSM   H13B15570   0.033   3.990   2.528 -0.0107 -0.7920  1.7322
  143OSM   H13C15571  -0.101   3.874   2.522 -1.2090  0.4708 -2.5983
  143OSM    C1215572   0.103   3.808   2.701 -0.2275  0.4791 -0.9059
  143OSM   H12A15573   0.145   3.901   2.735  1.0949 -0.2927 -0.3431
  143OSM   H12B15574   0.164   3.728   2.740 -0.8855 -0.7821 -2.3360
  143OSM    C1115575  -0.030   3.808   2.801 -0.7494  0.5566 -0.3395
  143OSM   H11A15576   0.003   3.807   2.907 -0.0764 -0.5949 -0.5391
  143OSM   H11B15577  -0.092   3.721   2.770  1.3703 -0.7359 -1.1993
  143OSM      P15578  -0.056   4.070   2.824  0.0344 -0.0733  0.0161
  143OSM    O1315579   0.089   4.086   2.806 -0.4892  0.1402  0.3057
  143OSM    O1415580  -0.133   4.174   2.760  0.3425 -0.0098  0.5154
  143OSM    O1115581  -0.070   4.078   2.981 -0.0283 -0.7110  0.0321
  143OSM    O1215582  -0.110   3.923   2.778 -0.2602  0.5480  0.0884
  143OSM    C1S15583  -0.196   4.040   3.036  0.2931  1.0546  0.1297
  143OSM    H1S15584  -0.235   3.941   3.003 -1.1868  1.5536  0.3228
  143OSM    H1T15585  -0.275   4.112   3.008  0.0669  1.2780  1.2694
  143OSM     NF15586  -0.331   3.964   3.229  0.4834  0.5017 -0.2809
  143OSM    HNF15587  -0.391   4.018   3.287  0.1542  2.2035 -2.0617
  143OSM    C2S15588  -0.201   4.021   3.193  1.0822  0.0912  0.6111
  143OSM    H2S15589  -0.122   3.945   3.212 -0.4779 -2.0911 -1.1873
  143OSM    C3S15590  -0.163   4.161   3.258 -0.3394  0.0967  0.9554
  143OSM    H3S15591  -0.247   4.227   3.226 -0.5875  0.2129  1.8329
  143OSM     O315592  -0.040   4.212   3.209  0.6631 -0.5624 -0.6720
  143OSM    HO315593  -0.038   4.154   3.133 -1.0318  0.0332 -1.2137
  143OSM    C4S15594  -0.149   4.131   3.404  0.0329  0.5953 -0.3988
  143OSM    H4S15595  -0.245   4.113   3.455 -0.6546  1.3163 -1.3963
  143OSM    C5S15596  -0.041   4.123   3.483 -0.0910 -0.2960 -0.0057
  143OSM    H5S15597   0.059   4.134   3.438  1.2227  3.4695  3.2797
  143OSM    C6S15598  -0.045   4.114   3.634 -0.6623  0.2805 -0.0343
  143OSM    H6S15599   0.040   4.177   3.665 -0.7921  0.2413  0.4057
  143OSM    H6T15600  -0.023   4.010   3.666 -0.6971  0.3170  0.1082
  143OSM    C7S15601  -0.178   4.161   3.698 -0.8225 -0.0045  0.3208
  143OSM    H7S15602  -0.262   4.089   3.687 -0.8561 -0.1358  1.2884
  143OSM    H7T15603  -0.212   4.258   3.656 -1.0310 -0.2947 -0.1750
  143OSM    C8S15604  -0.158   4.200   3.846  0.5307  0.5545  0.2829
  143OSM    H8S15605  -0.082   4.280   3.844  2.5318 -1.2572 -1.3958
  143OSM    H8T15606  -0.108   4.112   3.893 -0.5234  0.6694  1.7074
  143OSM    C9S15607  -0.284   4.236   3.920 -0.1083 -0.5756  1.0170
  143OSM    H9S15608  -0.348   4.147   3.937 -1.1441  0.5098  3.1629
  143OSM    H9T15609  -0.348   4.312   3.870 -0.8956 -1.3539  0.8210
  143OSM   C10S15610  -0.258   4.284   4.067 -0.3576  0.1497 -0.1988
  143OSM   H10S15611  -0.207   4.381   4.083  0.7866 -0.4570 -0.0457
  143OSM   H10T15612  -0.188   4.206   4.104 -1.4467  0.1284  1.9467
  143OSM   C11S15613  -0.386   4.272   4.144  0.1415 -0.0129 -0.5095
  143OSM   H11S15614  -0.435   4.174   4.126  0.4638 -0.3843  0.5867
  143OSM   H11T15615  -0.460   4.354   4.128 -2.2932 -1.2962  2.9778
  143OSM   C12S15616  -0.355   4.264   4.290  0.5220  0.8540 -0.5028
  143OSM   H12S15617  -0.306   4.351   4.337 -0.6248  0.5307  1.3973
  143OSM   H12T15618  -0.288   4.177   4.309 -0.5012  0.2684  0.6118
  143OSM   C13S15619  -0.484   4.252   4.385 -0.6859  0.5340 -0.3316
  143OSM   H13S15620  -0.535   4.157   4.357  0.7497 -0.7856  1.3013
  143OSM   H13T15621  -0.549   4.332   4.345 -0.3663 -0.3404 -2.8282
  143OSM   C14S15622  -0.444   4.263   4.529  0.2789 -0.2610  0.1154
  143OSM   H14S15623  -0.358   4.202   4.563  0.8850  1.0604  1.0384
  143OSM   H14T15624  -0.524   4.231   4.599  0.0811 -0.8303 -0.3689
  143OSM   C15S15625  -0.403   4.400   4.565  0.0076 -0.3200  0.1118
  143OSM   H15S15626  -0.485   4.464   4.527 -1.5168 -1.6858  0.9651
  143OSM   H15T15627  -0.311   4.426   4.509 -0.0957  0.0612  0.1131
  143OSM   C16S15628  -0.379   4.428   4.710 -0.3497  0.2494 -0.3221
  143OSM   H16S15629  -0.461   4.424   4.785  1.5440  1.7181  1.9775
  143OSM   H16T15630  -0.351   4.536   4.719 -0.8554  0.2576  1.9613
  143OSM   C17S15631  -0.259   4.345   4.768  0.1607  0.0249 -0.8749
  143OSM   H17S15632  -0.180   4.375   4.697  0.1763  1.2537 -0.3694
  143OSM   H17T15633  -0.270   4.235   4.766 -0.4818  0.0116  0.8043
  143OSM   C18S15634  -0.210   4.387   4.911  0.7811  0.1389 -0.0349
  143OSM   H18S15635  -0.219   4.495   4.935 -0.1161 -0.0191  0.3998
  143OSM   H18T15636  -0.106   4.350   4.921  1.3365  1.8068  0.6879
  143OSM   H18U15637  -0.278   4.330   4.978  1.2771  0.6770  0.9392
  143OSM    C1F15638  -0.371   3.843   3.189 -0.4608  0.1456  0.0311
  143OSM     OF15639  -0.283   3.761   3.163 -0.1192 -0.4168  0.3217
  143OSM    C2F15640  -0.519   3.821   3.189 -0.1942 -0.8355  0.8090
  143OSM    H2F15641  -0.551   3.814   3.083  0.5444 -0.4072  0.5468
  143OSM    H2G15642  -0.569   3.909   3.235 -2.5377 -1.6681 -0.0594
  143OSM    C3F15643  -0.565   3.688   3.253  0.0593 -0.3826  0.3865
  143OSM    H3F15644  -0.494   3.610   3.218  0.2352 -0.1341  0.1822
  143OSM    H3G15645  -0.665   3.662   3.213  0.2685  0.5230 -0.7758
  143OSM    C4F15646  -0.553   3.693   3.404 -0.3991  0.4535  0.1556
  143OSM    H4F15647  -0.621   3.772   3.442 -0.1373  0.5039  0.5281
  143OSM    H4G15648  -0.450   3.716   3.440  0.4585  1.2443 -2.5475
  143OSM    C5F15649  -0.595   3.555   3.467  0.2013 -0.6914  1.0740
  143OSM    H5F15650  -0.538   3.463   3.441 -0.1107 -1.4188  2.8486
  143OSM    H5G15651  -0.699   3.532   3.435 -0.8486  0.5604  3.3389
  143OSM    C6F15652  -0.591   3.569   3.616 -0.2745  0.1969  0.2772
  143OSM    H6F15653  -0.658   3.655   3.640 -0.9502 -0.1323 -0.3977
  143OSM    H6G15654  -0.489   3.584   3.656  0.4609  0.3290 -1.5863
  143OSM    C7F15655  -0.659   3.444   3.677 -0.8953  1.2583 -0.0052
  143OSM    H7F15656  -0.588   3.359   3.666 -0.6587  1.4841 -0.2450
  143OSM    H7G15657  -0.749   3.419   3.617  0.6334  1.0270 -2.3082
  143OSM    C8F15658  -0.702   3.466   3.827 -0.2664 -0.6171  0.1897
  143OSM    H8F15659  -0.738   3.571   3.825  0.5831 -0.3144 -1.8138
  143OSM    H8G15660  -0.605   3.465   3.881 -1.7844  1.6760  3.2830
  143OSM    C9F15661  -0.798   3.366   3.888 -0.2464  0.3845 -0.5963
  143OSM    H9F15662  -0.875   3.332   3.817  0.2736  0.8250 -1.3790
  143OSM   C10F15663  -0.785   3.309   4.013 -1.0403  0.7202  0.5138
  143OSM   H10F15664  -0.854   3.227   4.039  0.0553 -1.3879 -2.6005
  143OSM   C11F15665  -0.680   3.341   4.122  0.7116 -0.1632  0.1654
  143OSM   H11F15666  -0.640   3.444   4.116 -1.5120  1.1016  3.7537
  143OSM   H11G15667  -0.599   3.266   4.111 -1.3165 -2.3316 -0.8721
  143OSM   C12F15668  -0.739   3.337   4.260 -0.3478  0.5234 -0.2524
  143OSM   H12F15669  -0.788   3.239   4.278  0.9740  0.0186  0.7465
  143OSM   H12G15670  -0.814   3.418   4.265 -0.6066  0.3176 -0.7343
  143OSM   C13F15671  -0.641   3.359   4.374 -0.3198 -0.3380  0.1582
  143OSM   H13F15672  -0.615   3.468   4.371  1.2239 -0.6849 -3.0539
  143OSM   H13G15673  -0.550   3.297   4.359 -0.4437 -0.4555 -0.1209
  143OSM   C14F15674  -0.693   3.336   4.517 -0.5393 -0.6386  0.3871
  143OSM   H14F15675  -0.733   3.233   4.526 -1.5209 -0.3887 -0.8836
  143OSM   H14G15676  -0.782   3.403   4.528  0.3993  0.7026  0.1231
  143OSM   C15F15677  -0.587   3.361   4.620 -0.8055 -0.8646  0.1729
  143OSM   H15F15678  -0.574   3.471   4.613 -1.8097 -0.8258 -1.6858
  143OSM   H15G15679  -0.493   3.303   4.608 -0.6597 -0.7277  0.6247
  143OSM   C16F15680  -0.637   3.322   4.755 -0.0019 -0.2785 -1.1353
  143OSM   H16F15681  -0.678   3.220   4.766  0.5600 -0.3233  0.7644
  143OSM   H16G15682  -0.715   3.397   4.780  1.8008  0.9450  1.1649
  143OSM   C17F15683  -0.525   3.342   4.858 -0.1445 -0.0298 -0.9191
  143OSM   H17F15684  -0.472   3.437   4.834  0.0884  0.4615  1.3395
  143OSM   H17G15685  -0.450   3.262   4.843  0.5231  0.5084 -0.4905
  143OSM   C18F15686  -0.574   3.322   5.002 -0.0604  0.2758 -0.1792
  143OSM   H18F15687  -0.489   3.319   5.073  0.0494  1.8293 -0.2278
  143OSM   H18G15688  -0.647   3.238   5.007 -1.6408  1.6352  0.3032
  143OSM   H18H15689  -0.637   3.410   5.027 -0.2680  0.3626 -0.9938
  144OSM      N15690   0.786   3.453   2.708  0.5492 -0.3635 -0.3858
  144OSM    C1515691   0.932   3.449   2.719 -0.9194  0.3918 -0.3123
  144OSM   H15A15692   0.967   3.347   2.721  0.2103  0.7603 -0.5356
  144OSM   H15B15693   0.971   3.490   2.811  0.0551 -1.6741  0.2652
  144OSM   H15C15694   0.994   3.492   2.641 -1.4483  0.5779 -0.6366
  144OSM    C1415695   0.747   3.596   2.717 -0.0455 -0.4589 -0.0479
  144OSM   H14A15696   0.641   3.616   2.717 -0.0149 -0.1733  1.6448
  144OSM   H14B15697   0.795   3.644   2.634 -0.3735  0.2165  0.1413
  144OSM   H14C15698   0.775   3.639   2.812 -2.0246 -0.7145  0.7074
  144OSM    C1315699   0.743   3.386   2.582  0.5903  0.0504 -0.1112
  144OSM   H13A15700   0.803   3.415   2.497 -1.3402  1.0217 -1.2041
  144OSM   H13B15701   0.639   3.401   2.559  1.1450  1.1535 -2.0974
  144OSM   H13C15702   0.745   3.278   2.594 -0.6467 -0.2532 -2.1557
  144OSM    C1215703   0.718   3.380   2.825 -0.2487  0.1468  0.5262
  144OSM   H12A15704   0.774   3.388   2.917  0.4941  0.0821  0.0789
  144OSM   H12B15705   0.742   3.278   2.800 -0.5714  0.0290  0.6871
  144OSM    C1115706   0.566   3.416   2.846 -0.2189 -0.2808  0.0979
  144OSM   H11A15707   0.574   3.522   2.878  0.0042 -0.1682 -0.3227
  144OSM   H11B15708   0.524   3.356   2.930 -1.6632  0.3419 -0.1420
  144OSM      P15709   0.351   3.487   2.728 -0.1984 -0.2835  0.2424
  144OSM    O1315710   0.388   3.613   2.661  0.3540 -0.1176  0.3374
  144OSM    O1415711   0.244   3.411   2.662 -0.1112  0.1698  0.4047
  144OSM    O1115712   0.321   3.518   2.880  0.1678  0.1967  0.2391
  144OSM    O1215713   0.482   3.405   2.735 -0.4909  0.0125 -0.0730
  144OSM    C1S15714   0.219   3.434   2.940 -0.4590 -0.2751 -0.5818
  144OSM    H1S15715   0.223   3.324   2.925  2.0777 -0.1178 -1.4129
  144OSM    H1T15716   0.112   3.460   2.925 -1.1844 -1.5949  1.7104
  144OSM     NF15717   0.153   3.360   3.179  0.6987 -0.6961 -0.3452
  144OSM    HNF15718   0.062   3.383   3.212  0.5613 -2.0870  0.3401
  144OSM    C2S15719   0.222   3.461   3.100 -0.3631 -0.2635 -0.2241
  144OSM    H2S15720   0.330   3.455   3.127 -0.2507  1.2416 -0.2528
  144OSM    C3S15721   0.186   3.604   3.132 -0.5078  0.8201  0.5157
  144OSM    H3S15722   0.084   3.626   3.095 -0.2806 -0.0643 -0.6952
  144OSM     O315723   0.267   3.707   3.064  0.0302 -0.0230  0.1797
  144OSM    HO315724   0.316   3.663   2.994 -3.6447 -1.1417 -1.9328
  144OSM    C4S15725   0.181   3.635   3.278 -0.3975 -0.5732  0.3075
  144OSM    H4S15726   0.079   3.653   3.313 -1.1045  1.5373 -2.4351
  144OSM    C5S15727   0.288   3.663   3.361  0.1812  0.0215 -0.3624
  144OSM    H5S15728   0.387   3.667   3.313  0.7389 -0.4747  0.7082
  144OSM    C6S15729   0.278   3.692   3.506  0.2864 -0.0109  0.4755
  144OSM    H6S15730   0.330   3.789   3.520  0.0653  0.1390  0.2814
  144OSM    H6T15731   0.335   3.615   3.562  2.4851  0.4417 -0.9916
  144OSM    C7S15732   0.143   3.713   3.561 -0.6045  0.4342  0.1283
  144OSM    H7S15733   0.086   3.617   3.554  1.0011 -0.6450  1.1659
  144OSM    H7T15734   0.086   3.792   3.507 -0.1882  0.0154 -0.9587
  144OSM    C8S15735   0.150   3.747   3.712 -0.0376  0.1357 -0.1738
  144OSM    H8S15736   0.188   3.850   3.732  0.7389 -0.1159 -0.3007
  144OSM    H8T15737   0.228   3.678   3.752 -0.8769  0.4183  2.0882
  144OSM    C9S15738   0.023   3.710   3.787 -0.0948 -0.5260  0.4102
  144OSM    H9S15739   0.001   3.601   3.777  0.6360 -0.6568  0.1818
  144OSM    H9T15740  -0.061   3.767   3.743  1.0446  2.8878  2.2380
  144OSM   C10S15741   0.039   3.746   3.940 -0.5981  0.3463 -0.5362
  144OSM   H10S15742   0.070   3.852   3.951  0.3639 -0.0270  0.5301
  144OSM   H10T15743   0.119   3.681   3.982 -0.3495  1.4315  0.7503
  144OSM   C11S15744  -0.087   3.716   4.022  0.1438 -0.4581  0.1422
  144OSM   H11S15745  -0.063   3.697   4.128 -0.8193  1.3032  0.7168
  144OSM   H11T15746  -0.135   3.633   3.966  2.7503 -0.2123 -2.7866
  144OSM   C12S15747  -0.195   3.833   4.035  0.2913 -0.2657 -0.2754
  144OSM   H12S15748  -0.285   3.792   3.985  0.8601 -2.2944  0.2706
  144OSM   H12T15749  -0.166   3.923   3.976 -1.5194  0.6126  0.1189
  144OSM   C13S15750  -0.218   3.869   4.181  0.0898  0.8516 -0.9187
  144OSM   H13S15751  -0.276   3.964   4.189 -3.0816 -1.0836  0.8097
  144OSM   H13T15752  -0.119   3.880   4.231 -0.3763  0.6046  0.0716
  144OSM   C14S15753  -0.305   3.762   4.256  0.3312  0.2984  0.2865
  144OSM   H14S15754  -0.237   3.675   4.274  0.0377  0.2021  0.9608
  144OSM   H14T15755  -0.389   3.736   4.187  0.2455  1.5534 -0.0986
  144OSM   C15S15756  -0.369   3.794   4.388  0.4380 -0.1342 -0.2412
  144OSM   H15S15757  -0.448   3.724   4.422  1.3069 -0.8556  0.3347
  144OSM   H15T15758  -0.426   3.886   4.365 -0.3783 -0.8037 -0.9739
  144OSM   C16S15759  -0.267   3.818   4.502 -0.1165  0.3675 -0.0498
  144OSM   H16S15760  -0.189   3.739   4.502 -1.1713 -0.7033  0.4866
  144OSM   H16T15761  -0.325   3.809   4.596 -1.2717 -0.3724 -0.8198
  144OSM   C17S15762  -0.192   3.950   4.503 -0.0892 -0.3351 -0.7012
  144OSM   H17S15763  -0.265   4.016   4.552 -0.1835 -0.0753 -1.1842
  144OSM   H17T15764  -0.148   4.000   4.414  2.8868 -0.5583  0.4946
  144OSM   C18S15765  -0.070   3.949   4.594 -0.3151 -0.0682  0.6559
  144OSM   H18S15766   0.006   3.880   4.553  0.6291  1.3685 -0.1091
  144OSM   H18T15767  -0.096   3.908   4.694  2.8660 -0.1990  1.5180
  144OSM   H18U15768  -0.014   4.045   4.600  0.6931 -0.6903  1.3863
  144OSM    C1F15769   0.208   3.240   3.203 -0.3895 -0.6711 -0.2420
  144OSM     OF15770   0.311   3.208   3.147 -0.5407  0.3276  0.5153
  144OSM    C2F15771   0.143   3.143   3.301  0.2962  0.2184  0.7315
  144OSM    H2F15772   0.204   3.119   3.391  0.0548 -0.5651  0.6919
  144OSM    H2G15773   0.142   3.048   3.245 -2.0143 -1.6327  3.6142
  144OSM    C3F15774  -0.008   3.178   3.330  0.4869 -0.6511 -0.4030
  144OSM    H3F15775  -0.063   3.087   3.363  1.8078 -1.0887  0.6984
  144OSM    H3G15776  -0.061   3.208   3.237  1.2289 -1.6476 -1.1619
  144OSM    C4F15777  -0.032   3.284   3.442 -0.2300 -0.3624  0.1218
  144OSM    H4F15778  -0.142   3.294   3.450 -0.3178  1.4890 -2.2820
  144OSM    H4G15779   0.014   3.382   3.416 -0.0701 -0.4170  0.1905
  144OSM    C5F15780   0.020   3.229   3.586  0.1524 -0.5621  0.6609
  144OSM    H5F15781   0.131   3.230   3.577  0.0238  1.0204 -1.8295
  144OSM    H5G15782  -0.009   3.122   3.587 -0.3608 -0.5071 -2.0027
  144OSM    C6F15783  -0.027   3.301   3.709  0.0809 -0.4951 -0.5721
  144OSM    H6F15784  -0.132   3.270   3.727 -0.0825 -0.9873 -2.1913
  144OSM    H6G15785  -0.027   3.408   3.678  3.5858 -0.2134  0.0192
  144OSM    C7F15786   0.054   3.273   3.831  0.2037  0.3138  0.0971
  144OSM    H7F15787   0.146   3.333   3.816  0.9298 -1.4198 -3.1606
  144OSM    H7G15788   0.088   3.168   3.826 -0.0630  0.1779  0.9402
  144OSM    C8F15789  -0.014   3.309   3.969 -0.2981  0.0359  0.3044
  144OSM    H8F15790  -0.040   3.417   3.967  1.9641  0.6158 -2.1441
  144OSM    H8G15791   0.068   3.308   4.044 -0.2521 -2.1441  0.3047
  144OSM    C9F15792  -0.138   3.237   4.019 -0.1587 -0.3052  1.0865
  144OSM    H9F15793  -0.226   3.260   3.957  0.5732 -1.9845 -0.6779
  144OSM   C10F15794  -0.144   3.163   4.131 -0.1303 -0.0275  0.0729
  144OSM   H10F15795  -0.237   3.109   4.153  0.6765 -2.7815 -2.6839
  144OSM   C11F15796  -0.032   3.120   4.220  0.2767 -0.0267  0.5966
  144OSM   H11F15797   0.070   3.127   4.176  0.5357 -1.4941  0.9077
  144OSM   H11G15798  -0.051   3.012   4.234 -1.1797  0.1300 -0.0404
  144OSM   C12F15799  -0.038   3.182   4.362 -0.2746 -0.6516 -0.0075
  144OSM   H12F15800  -0.017   3.291   4.353  4.3445 -1.4063 -0.9143
  144OSM   H12G15801   0.054   3.142   4.409 -0.4772 -0.7006  0.3474
  144OSM   C13F15802  -0.162   3.146   4.448  0.4752 -0.0780 -0.4695
  144OSM   H13F15803  -0.156   3.038   4.475 -0.1072 -0.6272 -2.3293
  144OSM   H13G15804  -0.256   3.143   4.389 -1.2330 -0.4242  2.0912
  144OSM   C14F15805  -0.168   3.241   4.573 -0.1009 -0.4575 -0.2957
  144OSM   H14F15806  -0.263   3.213   4.623 -0.7165 -0.3096 -1.3608
  144OSM   H14G15807  -0.171   3.347   4.542  0.7445 -0.1431  0.6598
  144OSM   C15F15808  -0.054   3.229   4.675  0.0219 -0.1787 -0.1859
  144OSM   H15F15809   0.034   3.275   4.625 -0.3593  0.3128 -0.4196
  144OSM   H15G15810  -0.046   3.119   4.692  0.9857  0.0012  0.5910
  144OSM   C16F15811  -0.094   3.305   4.811  0.0853 -0.0875 -0.2540
  144OSM   H16F15812  -0.014   3.303   4.888 -1.3358 -0.4545  1.2589
  144OSM   H16G15813  -0.167   3.235   4.856  0.9407 -2.7956 -2.8007
  144OSM   C17F15814  -0.164   3.442   4.797 -0.0322  0.5562 -0.2415
  144OSM   H17F15815  -0.209   3.456   4.897  0.4691 -0.0950  0.0888
  144OSM   H17G15816  -0.241   3.437   4.717  0.5605 -1.3013 -0.7663
  144OSM   C18F15817  -0.070   3.562   4.774  0.0186  0.0858 -0.7920
  144OSM   H18F15818  -0.139   3.648   4.785  1.0491  0.6559  2.3983
  144OSM   H18G15819  -0.016   3.552   4.678 -0.3777 -0.3234 -0.9756
  144OSM   H18H15820   0.001   3.581   4.857 -3.0334  2.0267  1.5758
  145SAPE     N15821   0.858   2.590   7.425  0.5006  0.4376  0.1917
  145SAPE   HN115822   0.886   2.660   7.354  2.1977 -0.2042  0.1668
  145SAPE   HN215823   0.802   2.637   7.499  0.9242  1.2341  0.0153
  145SAPE   HN315824   0.945   2.548   7.465  0.8009  0.8568 -0.0184
  145SAPE   C1215825   0.782   2.478   7.360  0.6329  0.4818  0.4700
  145SAPE  H12A15826   0.794   2.385   7.420  0.1975 -0.8933 -1.4611
  145SAPE  H12B15827   0.815   2.464   7.254  2.4976  2.7792  0.6596
  145SAPE   C1115828   0.628   2.505   7.371 -0.7779 -0.8387  0.7516
  145SAPE  H11A15829   0.603   2.502   7.479 -1.2403 -3.0256  0.6342
  145SAPE  H11B15830   0.575   2.423   7.317 -0.7975 -0.9100  0.8776
  145SAPE     P15831   0.447   2.685   7.305 -0.0358  0.0886  0.6137
  145SAPE   O1315832   0.359   2.572   7.265  0.0549 -0.2673 -0.0266
  145SAPE   O1415833   0.414   2.757   7.430 -0.3016  0.0091  0.5464
  145SAPE   O1215834   0.597   2.631   7.309 -0.0621 -0.2726  0.3461
  145SAPE   O1115835   0.450   2.788   7.191  0.7402  0.0987  0.0914
  145SAPE    C115836   0.565   2.873   7.159  0.0572 -0.3356 -0.3224
  145SAPE    HA15837   0.548   2.977   7.195  2.0657 -0.0810  0.0373
  145SAPE    HB15838   0.667   2.842   7.191  0.6403  0.7778 -1.0546
  145SAPE    C215839   0.573   2.871   7.004 -0.1721  0.3639  0.1802
  145SAPE    HS15840   0.634   2.781   6.981 -0.4432 -0.8123  3.4551
  145SAPE   O2115841   0.635   2.992   6.970 -0.1144 -0.1951 -0.8337
  145SAPE   C2115842   0.701   2.988   6.855  0.0143 -0.0049  0.3346
  145SAPE   O2215843   0.710   2.887   6.785 -0.1043 -0.0423  0.3644
  145SAPE   C2215844   0.765   3.122   6.827 -0.7411 -0.5173 -0.0501
  145SAPE   H2R15845   0.678   3.185   6.857 -0.8161 -0.7306  0.1760
  145SAPE   H2S15846   0.851   3.129   6.897 -1.0952  0.4635  0.3139
  145SAPE    C315847   0.433   2.860   6.933  0.6482 -0.2478  0.1045
  145SAPE    HX15848   0.376   2.955   6.935 -0.5725 -0.9619  2.0836
  145SAPE    HY15849   0.369   2.792   6.994  0.6657 -0.3018  0.0632
  145SAPE   O3115850   0.444   2.808   6.800 -0.5766  0.4681 -0.2987
  145SAPE   C3115851   0.341   2.849   6.727 -0.5349 -0.0691 -0.1516
  145SAPE   O3215852   0.259   2.934   6.756  0.5611 -0.4092  0.4749
  145SAPE   C3215853   0.336   2.776   6.585 -0.2967  0.2797  0.5594
  145SAPE   H2X15854   0.316   2.668   6.599 -1.8822  0.5350  0.4420
  145SAPE   H2Y15855   0.435   2.778   6.534 -1.5751 -1.0065 -2.1454
  145SAPE   C2315856   0.810   3.150   6.677  0.5689 -0.5960 -0.4797
  145SAPE   H3R15857   0.869   3.065   6.637  0.4896 -0.1979 -1.4878
  145SAPE   H3S15858   0.869   3.244   6.686 -2.8235  1.5751  1.7166
  145SAPE   C2415859   0.701   3.189   6.578  0.5589  0.2265  0.0153
  145SAPE   H4R15860   0.746   3.248   6.495  1.9627 -0.9997 -0.1343
  145SAPE   H4S15861   0.628   3.254   6.631  0.0717  1.1895 -1.7383
  145SAPE   C2515862   0.624   3.066   6.524  0.0348 -0.2370 -0.1920
  145SAPE   H5R15863   0.607   2.978   6.587 -1.1119 -0.6839 -1.0852
  145SAPE   C2615864   0.599   3.042   6.396 -0.0999 -0.1088 -0.0444
  145SAPE   H6R15865   0.535   2.955   6.376 -0.4486  0.1722 -0.1689
  145SAPE   C2715866   0.632   3.126   6.276 -0.1430 -0.2967 -0.1686
  145SAPE   H7R15867   0.727   3.083   6.239  1.9950  2.8612  1.2235
  145SAPE   H7S15868   0.667   3.228   6.302  0.2591 -0.8884  1.7768
  145SAPE   C2815869   0.504   3.131   6.194 -0.0582  0.1305 -0.3917
  145SAPE   H8R15870   0.418   3.186   6.234 -0.7220 -1.1613  0.0080
  145SAPE   C2915871   0.488   3.078   6.068 -0.2747 -0.4340  0.1310
  145SAPE   H9R15872   0.391   3.099   6.020  0.4342  0.4124 -1.0000
  145SAPE  C21015873   0.596   3.009   5.992  0.1971 -0.9420  0.0096
  145SAPE  H10R15874   0.555   2.931   5.923 -2.7261  2.0695 -1.9747
  145SAPE  H10S15875   0.647   2.941   6.064  0.5971  1.4121  2.0487
  145SAPE  C21115876   0.695   3.103   5.925 -0.1897  0.4819 -0.0345
  145SAPE  H11R15877   0.761   3.163   5.988 -1.4306  0.6767  1.1350
  145SAPE  C21215878   0.721   3.103   5.796  0.8464  0.1730  0.7094
  145SAPE  H12R15879   0.782   3.182   5.750 -0.7102  1.9199  1.5216
  145SAPE  C21315880   0.656   3.011   5.697  0.4492  0.0421 -0.3574
  145SAPE  H13R15881   0.554   3.054   5.682 -0.0686 -0.2717  1.8398
  145SAPE  H13S15882   0.637   2.908   5.732 -0.1230  0.1163 -0.4389
  145SAPE  C21415883   0.738   2.997   5.572 -0.4523  0.3802  0.2923
  145SAPE  H14R15884   0.811   2.915   5.579 -0.0730  0.5352 -1.5106
  145SAPE  C21515885   0.733   3.065   5.460  0.1535  0.1959  0.1890
  145SAPE  H15R15886   0.790   3.035   5.371 -1.8014 -0.7154 -0.8202
  145SAPE  C21615887   0.629   3.169   5.432 -0.3601  0.5860  0.0206
  145SAPE  H16R15888   0.683   3.244   5.370  1.3338  1.0760  1.9559
  145SAPE  H16S15889   0.595   3.218   5.526 -1.9480  0.7552 -0.6110
  145SAPE  C21715890   0.507   3.127   5.351  0.7449 -0.0325 -0.4906
  145SAPE  H17R15891   0.546   3.063   5.269  1.7041 -1.3737  0.9447
  145SAPE  H17S15892   0.463   3.220   5.311 -1.2037 -1.6128 -2.2291
  145SAPE  C21815893   0.411   3.045   5.432  0.1600 -0.0702  0.4326
  145SAPE  H18R15894   0.385   3.112   5.517  0.0578  0.6935 -0.1917
  145SAPE  H18S15895   0.455   2.955   5.480 -2.7304 -1.5651  0.5052
  145SAPE  C21915896   0.291   3.000   5.354 -1.0331  0.2331 -0.0621
  145SAPE  H19R15897   0.205   3.070   5.344 -1.4098  0.0715  1.6803
  145SAPE  H19S15898   0.248   2.909   5.401  0.7524  0.9666  3.3092
  145SAPE  C22015899   0.325   2.952   5.212  0.0876 -0.3944 -0.6016
  145SAPE  H20R15900   0.369   3.031   5.148 -0.4234  0.4384  0.0614
  145SAPE  H20S15901   0.233   2.917   5.161  0.9965 -0.7317 -2.0515
  145SAPE  H20T15902   0.396   2.866   5.212 -1.4113 -1.6931 -1.3798
  145SAPE   C3315903   0.236   2.855   6.502 -0.8432 -0.0243  0.7648
  145SAPE   H3X15904   0.266   2.961   6.493 -0.1922 -0.3259 -0.8903
  145SAPE   H3Y15905   0.131   2.844   6.538 -0.8450  0.3124  0.8631
  145SAPE   C3415906   0.244   2.800   6.354  0.7856  0.3862  0.4230
  145SAPE   H4X15907   0.207   2.695   6.351 -0.7862  0.8725  1.5273
  145SAPE   H4Y15908   0.344   2.797   6.306 -0.1063  1.8303 -1.7040
  145SAPE   C3515909   0.163   2.896   6.259  0.3280  0.2501 -0.7956
  145SAPE   H5X15910   0.205   2.996   6.285 -1.6960  0.6886  0.9891
  145SAPE   H5Y15911   0.057   2.902   6.288  0.5469  0.1705  0.0344
  145SAPE   C3615912   0.170   2.865   6.108  0.3656  0.0522 -0.0363
  145SAPE   H6X15913   0.136   2.760   6.120 -0.8775  0.6523  2.7300
  145SAPE   H6Y15914   0.277   2.862   6.077 -0.2286 -2.0362 -2.1707
  145SAPE   C3715915   0.080   2.956   6.021 -0.7281  0.7126 -0.2817
  145SAPE   H7X15916   0.091   3.064   6.045  0.9280  1.7171 -4.6923
  145SAPE   H7Y15917  -0.021   2.918   6.050  1.4739 -3.3348  3.2575
  145SAPE   C3815918   0.087   2.937   5.870 -0.6496  0.5588 -0.2637
  145SAPE   H8X15919   0.193   2.961   5.847 -1.6814  2.3176 -3.8398
  145SAPE   H8Y15920   0.013   3.010   5.832 -0.4457  0.7307 -0.3328
  145SAPE   C3915921   0.065   2.794   5.823 -0.0258  0.4842  0.1631
  145SAPE   H9X15922  -0.039   2.761   5.846 -0.6655  2.0821 -0.3536
  145SAPE   H9Y15923   0.141   2.731   5.874  0.5074  0.7059 -0.3424
  145SAPE  C31015924   0.083   2.772   5.668 -0.1980  0.0119  0.1597
  145SAPE  H10X15925   0.124   2.669   5.656  0.5039  0.4324 -1.2478
  145SAPE  H10Y15926   0.165   2.841   5.642 -0.3000  0.3225  0.6394
  145SAPE  C31115927  -0.049   2.776   5.578  0.2397  0.1977 -0.6742
  145SAPE  H11X15928  -0.116   2.858   5.611 -0.5453 -0.7339  0.1072
  145SAPE  H11Y15929  -0.112   2.686   5.593  0.5508  0.0812  0.0132
  145SAPE  C31215930  -0.014   2.807   5.431 -0.7181 -0.4239 -0.1953
  145SAPE  H12X15931   0.058   2.727   5.404 -1.2245 -0.6929 -0.7788
  145SAPE  H12Y15932   0.030   2.909   5.430 -0.0495 -0.7106 -1.7857
  145SAPE  C31315933  -0.136   2.818   5.334 -0.2943 -1.0880 -0.4098
  145SAPE  H13X15934  -0.200   2.886   5.394  0.7877  0.5352 -1.0273
  145SAPE  H13Y15935  -0.188   2.720   5.328 -3.0629  0.1297  1.6223
  145SAPE  C31415936  -0.107   2.870   5.197  0.1109  0.6112 -0.1477
  145SAPE  H14X15937  -0.015   2.828   5.151 -1.7738  0.7686 -4.6454
  145SAPE  H14Y15938  -0.079   2.977   5.208  0.9015  0.6604 -2.0998
  145SAPE  C31515939  -0.212   2.867   5.089 -0.0026 -0.3358 -0.6673
  145SAPE  H15X15940  -0.187   2.933   5.003  0.3410  1.0029  0.4274
  145SAPE  H15Y15941  -0.304   2.914   5.131  0.5598  3.0777 -2.8608
  145SAPE  C31615942  -0.243   2.733   5.034 -0.4675  0.2290  0.4513
  145SAPE  H16X15943  -0.336   2.746   4.974 -1.2716  0.8611  1.7869
  145SAPE  H16Y15944  -0.270   2.662   5.115 -0.5466  0.1678  0.3715
  145SAPE  C31715945  -0.133   2.670   4.948 -0.0545  0.6062 -0.4818
  145SAPE  H17X15946  -0.036   2.668   5.000 -1.0273  1.3113  1.4490
  145SAPE  H17Y15947  -0.110   2.716   4.850  0.9556 -0.8189 -0.9487
  145SAPE  C31815948  -0.153   2.519   4.927 -0.0130  0.2851  0.4125
  145SAPE  H18X15949  -0.210   2.476   5.013 -1.4461  0.2536 -0.5180
  145SAPE  H18Y15950  -0.056   2.470   4.906  0.2120  1.7118 -2.2509
  145SAPE  H18Z15951  -0.218   2.505   4.838  0.2955  0.3672  0.1765
  146SAPE     N15952   3.412   1.367   6.941  0.0095 -0.9249 -0.2680
  146SAPE   HN115953   3.503   1.372   6.991 -1.3504 -0.6309  2.3479
  146SAPE   HN215954   3.350   1.325   7.013  0.9115  1.2469  1.8954
  146SAPE   HN315955   3.410   1.307   6.856 -1.2810  3.3890 -3.6615
  146SAPE   C1215956   3.337   1.495   6.897  0.4748  0.4156 -0.7479
  146SAPE  H12A15957   3.414   1.559   6.848 -0.2235  0.3186 -1.9984
  146SAPE  H12B15958   3.311   1.534   6.998  0.0294  0.9163 -1.0551
  146SAPE   C1115959   3.219   1.483   6.813 -0.5342  0.2555 -0.1306
  146SAPE  H11A15960   3.229   1.420   6.722  0.6705  0.4994 -0.1853
  146SAPE  H11B15961   3.212   1.584   6.768 -0.9204 -0.7395 -2.4402
  146SAPE     P15962   3.011   1.540   6.946 -0.0216 -0.1478 -0.1387
  146SAPE   O1315963   2.980   1.510   7.081  0.2444 -0.0935 -0.2162
  146SAPE   O1415964   3.059   1.682   6.934  0.6084  0.2843  0.5211
  146SAPE   O1215965   3.103   1.442   6.884  0.3144  0.4705 -0.1677
  146SAPE   O1115966   2.880   1.515   6.870 -0.7216  0.3405 -0.1915
  146SAPE    C115967   2.866   1.483   6.730 -0.0473 -1.1793 -0.5666
  146SAPE    HA15968   2.956   1.509   6.670 -1.1386 -1.1261 -2.2272
  146SAPE    HB15969   2.849   1.374   6.718 -3.3328 -1.0993  2.0842
  146SAPE    C215970   2.749   1.566   6.671 -0.2408 -0.2585 -0.5826
  146SAPE    HS15971   2.656   1.543   6.728 -1.0141  1.8681 -0.9110
  146SAPE   O2115972   2.757   1.515   6.534  0.1663 -0.3045  0.0152
  146SAPE   C2115973   2.646   1.532   6.468 -0.2936 -1.2584  0.4139
  146SAPE   O2215974   2.542   1.586   6.500  0.1009 -0.0795 -0.4153
  146SAPE   C2215975   2.670   1.484   6.321 -0.2420 -0.4897  0.2404
  146SAPE   H2R15976   2.777   1.453   6.318  0.6757  2.4415 -2.0787
  146SAPE   H2S15977   2.607   1.394   6.301  1.2789 -1.1324 -2.1109
  146SAPE    C315978   2.778   1.719   6.676 -0.4450  0.1459  0.3458
  146SAPE    HX15979   2.874   1.729   6.621 -0.4781 -1.6865 -0.1278
  146SAPE    HY15980   2.795   1.743   6.783  0.3461  2.3556 -0.2263
  146SAPE   O3115981   2.679   1.811   6.621 -0.1969 -0.4664 -0.4058
  146SAPE   C3115982   2.690   1.937   6.655  0.0200 -0.2427  0.3407
  146SAPE   O3215983   2.773   1.983   6.736  0.1405 -0.2477  0.3567
  146SAPE   C3215984   2.586   2.015   6.576 -0.1640 -0.2629 -0.4164
  146SAPE   H2X15985   2.493   2.008   6.635 -0.2941 -1.0135 -0.6998
  146SAPE   H2Y15986   2.582   1.984   6.469  1.0048  1.3783 -0.9853
  146SAPE   C2315987   2.655   1.600   6.225 -0.3135  0.0916 -0.1098
  146SAPE   H3R15988   2.718   1.691   6.234 -0.3574  0.0608  0.6130
  146SAPE   H3S15989   2.552   1.640   6.241 -0.9956 -1.0816 -1.3247
  146SAPE   C2415990   2.653   1.546   6.080  0.5445  0.1362  0.2546
  146SAPE   H4R15991   2.747   1.486   6.080 -0.2843 -1.1932  0.1794
  146SAPE   H4S15992   2.660   1.637   6.016  2.8667  0.2231  0.5572
  146SAPE   C2515993   2.532   1.461   6.041  0.0417 -0.1757 -0.0773
  146SAPE   H5R15994   2.458   1.450   6.121  1.9278  3.1799  2.3415
  146SAPE   C2615995   2.507   1.405   5.921 -0.5119 -0.2073  0.0262
  146SAPE   H6R15996   2.413   1.351   5.902  0.1604 -0.5852 -2.7222
  146SAPE   C2715997   2.581   1.428   5.794 -0.1726  0.4051 -0.0960
  146SAPE   H7R15998   2.580   1.339   5.727  3.8674  0.3739 -0.3255
  146SAPE   H7S15999   2.687   1.430   5.825 -0.4066  1.4455  0.6916
  146SAPE   C2816000   2.554   1.553   5.717 -0.2185  0.1900  0.8632
  146SAPE   H8R16001   2.587   1.648   5.761  3.5211  0.3139 -1.6701
  146SAPE   C2916002   2.502   1.540   5.591  0.1635 -0.5096  0.5483
  146SAPE   H9R16003   2.518   1.632   5.532 -2.1545 -0.1758  0.3558
  146SAPE  C21016004   2.458   1.416   5.520  0.1149 -0.0468  0.1447
  146SAPE  H10R16005   2.413   1.344   5.591 -1.3544 -0.0643 -0.7729
  146SAPE  H10S16006   2.548   1.366   5.479  1.8731  0.1457  3.4156
  146SAPE  C21116007   2.335   1.445   5.429  0.3673 -0.0906  0.2202
  146SAPE  H11R16008   2.254   1.475   5.497  2.3988 -2.2447  3.9529
  146SAPE  C21216009   2.324   1.439   5.298 -0.4759 -0.3493  0.1243
  146SAPE  H12R16010   2.226   1.457   5.253 -0.2528 -0.0717 -0.2648
  146SAPE  C21316011   2.431   1.390   5.209  0.4506  0.4551  0.5842
  146SAPE  H13R16012   2.405   1.285   5.184  0.1288  1.2325 -2.8928
  146SAPE  H13S16013   2.519   1.371   5.274  0.0585 -0.9189  0.7330
  146SAPE  C21416014   2.476   1.461   5.085  0.6879 -0.1653  0.0673
  146SAPE  H14R16015   2.398   1.520   5.034  1.9207  1.5704  0.1044
  146SAPE  C21516016   2.603   1.467   5.045  0.2174 -0.3549 -0.1558
  146SAPE  H15R16017   2.622   1.518   4.949  0.7002  0.0632  0.1578
  146SAPE  C21616018   2.726   1.405   5.104 -0.4144 -0.0503  0.1976
  146SAPE  H16R16019   2.702   1.307   5.150  0.9323 -0.2658  0.4686
  146SAPE  H16S16020   2.760   1.466   5.190 -3.0708 -0.6312  1.7773
  146SAPE  C21716021   2.828   1.382   4.995  0.4336  0.6006  0.7939
  146SAPE  H17R16022   2.847   1.474   4.934  0.5352  0.0486 -0.0210
  146SAPE  H17S16023   2.795   1.305   4.922 -2.4301  2.9516 -0.6762
  146SAPE  C21816024   2.963   1.321   5.045  0.0554 -0.5635 -0.0938
  146SAPE  H18R16025   2.943   1.257   5.134 -2.6637  1.0593  0.5570
  146SAPE  H18S16026   3.023   1.401   5.093 -1.8383  0.1457  1.2296
  146SAPE  C21916027   3.046   1.253   4.936 -0.6798 -0.3976 -0.5632
  146SAPE  H19R16028   3.098   1.336   4.884 -0.1929 -1.2813 -1.4964
  146SAPE  H19S16029   2.976   1.215   4.858 -0.1605 -0.9716 -0.7522
  146SAPE  C22016030   3.156   1.168   4.994 -0.7400  0.0417  0.3892
  146SAPE  H20R16031   3.116   1.076   5.042  3.3572 -3.3937 -2.0394
  146SAPE  H20S16032   3.218   1.226   5.064  1.9630 -0.1442 -1.6960
  146SAPE  H20T16033   3.226   1.130   4.916 -0.8080  1.0353 -0.1787
  146SAPE   C3316034   2.609   2.168   6.562 -0.0277 -0.4812 -0.1823
  146SAPE   H3X16035   2.708   2.187   6.515 -0.1193 -0.9556 -0.5719
  146SAPE   H3Y16036   2.624   2.195   6.669  0.1887 -1.1858 -0.0265
  146SAPE   C3416037   2.493   2.247   6.503  0.0733  0.4044  0.0229
  146SAPE   H4X16038   2.464   2.321   6.580 -0.0720  2.4012 -1.8362
  146SAPE   H4Y16039   2.409   2.175   6.491 -0.2520  1.1144 -2.6498
  146SAPE   C3516040   2.514   2.299   6.358  0.1671 -0.3860  0.0329
  146SAPE   H5X16041   2.610   2.353   6.358  0.7834 -1.4530  0.4075
  146SAPE   H5Y16042   2.427   2.366   6.338 -0.7659 -1.3970  0.5681
  146SAPE   C3616043   2.524   2.179   6.259  0.7778  0.2661  0.5248
  146SAPE   H6X16044   2.489   2.080   6.296 -1.1523  0.7797  0.1998
  146SAPE   H6Y16045   2.631   2.179   6.230  1.0049  1.0893  1.3028
  146SAPE   C3716046   2.433   2.202   6.139  0.3698 -0.8899 -0.3543
  146SAPE   H7X16047   2.475   2.293   6.091 -0.1607 -0.0768  0.6864
  146SAPE   H7Y16048   2.327   2.217   6.169  0.4434 -0.9876 -0.0426
  146SAPE   C3816049   2.426   2.082   6.043 -0.1819 -0.8505 -1.0379
  146SAPE   H8X16050   2.383   1.997   6.100  1.6181 -0.5527  0.8613
  146SAPE   H8Y16051   2.532   2.058   6.021  1.4775  1.1718  3.4636
  146SAPE   C3916052   2.349   2.093   5.909 -0.0969  0.3611 -0.5702
  146SAPE   H9X16053   2.249   2.137   5.930  0.4199  0.1959  2.9764
  146SAPE   H9Y16054   2.336   1.992   5.866  0.3526  0.9807 -2.2168
  146SAPE  C31016055   2.438   2.156   5.795  0.0434 -0.6624  0.3798
  146SAPE  H10X16056   2.542   2.131   5.827  0.0289  0.1559  1.0973
  146SAPE  H10Y16057   2.421   2.265   5.810 -0.4354 -0.3996 -1.7580
  146SAPE  C31116058   2.403   2.124   5.655 -1.0206 -0.2286 -0.2178
  146SAPE  H11X16059   2.459   2.196   5.591  0.8444 -1.7004 -0.3073
  146SAPE  H11Y16060   2.296   2.125   5.626 -0.6781  1.6939 -1.6541
  146SAPE  C31216061   2.472   1.988   5.630  0.3156 -0.0185  0.3947
  146SAPE  H12X16062   2.408   1.900   5.652 -1.2808  0.5957 -1.5230
  146SAPE  H12Y16063   2.566   1.969   5.686 -1.2275 -0.6306  2.9348
  146SAPE  C31316064   2.517   1.984   5.485 -0.5287 -0.4877  0.3771
  146SAPE  H13X16065   2.570   1.887   5.475  2.9569  1.3537 -0.8977
  146SAPE  H13Y16066   2.595   2.062   5.472  0.3280 -1.1495  1.3304
  146SAPE  C31416067   2.411   1.986   5.372 -0.2037 -0.1535 -0.4709
  146SAPE  H14X16068   2.365   2.087   5.368  2.1988  0.9839 -1.3917
  146SAPE  H14Y16069   2.335   1.907   5.390  1.7861 -2.1484 -0.5184
  146SAPE  C31516070   2.478   1.953   5.235 -0.8907 -0.5860  0.1281
  146SAPE  H15X16071   2.518   1.849   5.241  0.1933 -0.1423  0.7508
  146SAPE  H15Y16072   2.565   2.018   5.211 -0.1025 -1.9132 -0.7694
  146SAPE  C31616073   2.385   1.960   5.110 -0.1690 -0.2839 -0.1788
  146SAPE  H16X16074   2.391   2.054   5.052 -0.4821 -1.1209 -1.6254
  146SAPE  H16Y16075   2.283   1.950   5.151 -1.6397  1.2296 -3.1707
  146SAPE  C31716076   2.419   1.847   5.007 -0.0797  0.1460 -0.3213
  146SAPE  H17X16077   2.343   1.831   4.928  0.2752  0.8329 -0.8101
  146SAPE  H17Y16078   2.419   1.751   5.063 -0.6510  0.5104  0.3358
  146SAPE  C31816079   2.559   1.857   4.936 -0.1854 -0.7004  0.4435
  146SAPE  H18X16080   2.561   1.952   4.877 -1.9657 -0.8783  0.0458
  146SAPE  H18Y16081   2.583   1.773   4.867 -0.2936 -0.2378 -0.1731
  146SAPE  H18Z16082   2.631   1.868   5.019 -1.3272  1.2296  1.2393
  147SAPE     N16083   4.730   6.816   7.141 -0.5868  0.2335 -0.1113
  147SAPE   HN116084   4.736   6.841   7.040  1.1782 -2.0816 -0.6753
  147SAPE   HN216085   4.767   6.719   7.142  1.5055  0.8990 -2.4614
  147SAPE   HN316086   4.628   6.817   7.164 -0.4596  0.0242  0.4574
  147SAPE   C1216087   4.821   6.903   7.221 -0.7229  0.6760 -0.5457
  147SAPE  H12A16088   4.826   6.858   7.322 -0.8010 -0.4970 -1.0491
  147SAPE  H12B16089   4.777   7.001   7.250 -1.8776  0.4009 -1.2921
  147SAPE   C1116090   4.962   6.925   7.166 -0.3950 -0.2183 -0.6974
  147SAPE  H11A16091   4.975   6.961   7.062  0.9555  0.6607 -0.2548
  147SAPE  H11B16092   5.002   6.822   7.167 -2.8638 -1.2523  0.8685
  147SAPE     P16093   5.193   7.029   7.234  0.0401 -0.1047 -0.6292
  147SAPE   O1316094   5.212   7.172   7.201 -0.5881  0.6805 -0.5064
  147SAPE   O1416095   5.255   6.973   7.354 -0.2875  0.0881 -0.7131
  147SAPE   O1216096   5.039   7.003   7.255  0.6601 -0.1670 -0.1054
  147SAPE   O1116097   5.233   6.935   7.119  0.8971  1.1579  0.1146
  147SAPE    C116098   5.371   6.903   7.101 -0.3357 -0.0609  0.0362
  147SAPE    HA16099   5.439   6.991   7.099 -0.6519  0.2258  1.2406
  147SAPE    HB16100   5.402   6.833   7.181  1.3264  1.0507  0.4054
  147SAPE    C216101   5.380   6.812   6.972 -0.5183  0.4532 -0.3928
  147SAPE    HS16102   5.475   6.754   6.969 -1.1753 -0.8466  1.9261
  147SAPE   O2116103   5.390   6.909   6.861  0.1780  0.6492  0.8166
  147SAPE   C2116104   5.502   6.962   6.836 -1.1960  0.2075  0.1777
  147SAPE   O2216105   5.606   6.943   6.899 -0.1233 -0.3583  0.0416
  147SAPE   C2216106   5.487   7.061   6.713  0.0669 -0.3683  0.0976
  147SAPE   H2R16107   5.433   7.004   6.634  0.5428  0.5498 -0.9160
  147SAPE   H2S16108   5.430   7.150   6.748  2.3752  1.1817  0.0837
  147SAPE    C316109   5.251   6.727   6.950 -0.0101 -0.2212  0.2468
  147SAPE    HX16110   5.174   6.804   6.931 -0.6526 -0.9007  0.0389
  147SAPE    HY16111   5.215   6.669   7.037 -2.5634  0.9225  0.0448
  147SAPE   O3116112   5.267   6.631   6.845 -0.2125 -0.2663 -0.1596
  147SAPE   C3116113   5.149   6.566   6.814  0.1528  0.0057 -0.5670
  147SAPE   O3216114   5.047   6.581   6.874  0.0400 -0.1562 -0.7115
  147SAPE   C3216115   5.167   6.463   6.706 -0.9604  0.7805 -0.2710
  147SAPE   H2X16116   5.198   6.367   6.751 -0.5214  1.0312 -0.0288
  147SAPE   H2Y16117   5.239   6.505   6.632  1.6211 -2.4686  0.1557
  147SAPE   C2316118   5.630   7.107   6.653 -0.2454 -0.5587 -0.0178
  147SAPE   H3R16119   5.681   7.139   6.746 -2.0063 -0.4237  0.9540
  147SAPE   H3S16120   5.611   7.200   6.596 -0.1959  0.6212  1.8168
  147SAPE   C2416121   5.695   6.999   6.565  0.0799  0.2544  0.0180
  147SAPE   H4R16122   5.617   6.950   6.503  1.7674 -0.3320 -1.7348
  147SAPE   H4S16123   5.726   6.925   6.642  1.1875  0.8443  0.1539
  147SAPE   C2516124   5.825   7.035   6.489 -0.4588 -0.4759 -0.2839
  147SAPE   H5R16125   5.913   7.017   6.553 -1.9862 -1.5173  1.6200
  147SAPE   C2616126   5.842   7.095   6.373  0.5603  0.8057  0.2411
  147SAPE   H6R16127   5.949   7.099   6.346  0.2729 -0.7376 -1.2973
  147SAPE   C2716128   5.749   7.120   6.262  0.7514 -0.2055  0.2660
  147SAPE   H7R16129   5.768   7.226   6.233 -1.2036  0.0107 -0.3707
  147SAPE   H7S16130   5.642   7.112   6.291  1.0253  0.3248  1.4762
  147SAPE   C2816131   5.766   7.027   6.141  0.2848 -0.1494 -0.0920
  147SAPE   H8R16132   5.853   6.959   6.141  1.0711  0.8331 -0.2984
  147SAPE   C2916133   5.678   7.027   6.037  0.2383  0.6292 -0.1307
  147SAPE   H9R16134   5.690   6.963   5.948 -0.8640  1.4103 -0.8627
  147SAPE  C21016135   5.549   7.108   6.030  0.1689 -0.1421  0.0307
  147SAPE  H10R16136   5.583   7.203   5.984  1.4676 -1.1257 -1.1291
  147SAPE  H10S16137   5.501   7.136   6.127 -3.0948 -2.6192 -0.7000
  147SAPE  C21116138   5.444   7.049   5.932 -0.0934 -0.1821 -0.2157
  147SAPE  H11R16139   5.352   7.018   5.983  1.0878 -2.2994  0.7607
  147SAPE  C21216140   5.455   7.043   5.795 -0.3327 -0.1797 -0.3709
  147SAPE  H12R16141   5.385   6.988   5.730  0.0459 -1.2352  0.0952
  147SAPE  C21316142   5.568   7.104   5.719  0.1368 -0.3554  0.1662
  147SAPE  H13R16143   5.665   7.074   5.764  0.3436  1.8511  1.2915
  147SAPE  H13S16144   5.562   7.214   5.730  0.6458 -0.1000 -1.7457
  147SAPE  C21416145   5.568   7.074   5.569 -1.8864  0.2256  0.3310
  147SAPE  H14R16146   5.530   6.976   5.538  1.5381 -1.0191 -0.4218
  147SAPE  C21516147   5.631   7.147   5.472  0.1244 -0.2274 -0.5505
  147SAPE  H15R16148   5.630   7.107   5.369  0.1026 -2.6370  0.3184
  147SAPE  C21616149   5.701   7.280   5.498 -0.4411 -0.3708 -0.2721
  147SAPE  H16R16150   5.792   7.280   5.435 -0.1426 -2.4104  0.0723
  147SAPE  H16S16151   5.738   7.299   5.600 -0.0026 -0.2390 -0.4537
  147SAPE  C21716152   5.605   7.398   5.474  0.1117 -0.3703 -0.4685
  147SAPE  H17R16153   5.672   7.487   5.481 -1.3226  0.6807  0.6326
  147SAPE  H17S16154   5.519   7.413   5.543  0.4305  3.0225 -0.6417
  147SAPE  C21816155   5.532   7.400   5.338  0.3502 -0.9994 -0.4052
  147SAPE  H18R16156   5.433   7.349   5.341 -0.3180  0.1792 -1.3031
  147SAPE  H18S16157   5.595   7.359   5.256  3.5184  1.4334  0.6464
  147SAPE  C21916158   5.503   7.549   5.296  1.1573 -0.4403 -0.6553
  147SAPE  H19R16159   5.601   7.601   5.294  0.7785  0.3264 -2.9141
  147SAPE  H19S16160   5.441   7.601   5.373  0.5645  0.6866 -1.8409
  147SAPE  C22016161   5.432   7.550   5.160 -0.1405 -0.6603 -0.1688
  147SAPE  H20R16162   5.505   7.522   5.081 -0.7817  1.7244 -1.7156
  147SAPE  H20S16163   5.402   7.655   5.137  0.4425 -0.2203  0.9998
  147SAPE  H20T16164   5.340   7.488   5.158 -0.4010 -0.3314  1.1777
  147SAPE   C3316165   5.034   6.442   6.618 -0.3245 -1.0464 -0.2051
  147SAPE   H3X16166   4.988   6.541   6.600 -0.0739 -1.0033 -0.6128
  147SAPE   H3Y16167   4.958   6.384   6.675  0.0703 -1.2558  0.1103
  147SAPE   C3416168   5.075   6.383   6.484  0.0807  0.3099  0.3958
  147SAPE   H4X16169   5.119   6.282   6.499 -2.1044 -0.9977 -1.4280
  147SAPE   H4Y16170   5.145   6.449   6.429 -0.5993 -0.6064 -1.6400
  147SAPE   C3516171   4.960   6.377   6.388  0.1225 -0.0944  0.0621
  147SAPE   H5X16172   4.933   6.485   6.380 -1.2634 -0.2610  1.9811
  147SAPE   H5Y16173   4.873   6.315   6.417 -0.3117 -0.2989 -1.5612
  147SAPE   C3616174   5.013   6.340   6.245 -0.2592  0.0526 -0.4742
  147SAPE   H6X16175   4.985   6.234   6.227  0.1835  0.1420 -1.8007
  147SAPE   H6Y16176   5.120   6.369   6.248 -0.4302  0.6206  1.8800
  147SAPE   C3716177   4.950   6.413   6.131 -0.0753 -0.2871  0.4715
  147SAPE   H7X16178   4.976   6.521   6.132 -3.8532  0.7594  0.2031
  147SAPE   H7Y16179   4.840   6.416   6.146 -0.0172  0.4919  0.7730
  147SAPE   C3816180   4.989   6.348   5.996  0.0810 -0.4798  0.0764
  147SAPE   H8X16181   4.946   6.246   5.987  0.5979 -0.6307 -0.7550
  147SAPE   H8Y16182   5.099   6.339   6.006 -0.0561 -0.3291  2.5132
  147SAPE   C3916183   4.946   6.434   5.876 -0.1374 -0.1379  0.1712
  147SAPE   H9X16184   4.978   6.540   5.882 -0.7170 -0.0258  1.7842
  147SAPE   H9Y16185   4.837   6.416   5.866  0.1921 -1.3790 -1.7987
  147SAPE  C31016186   4.995   6.377   5.746  0.2000  0.2129  0.2403
  147SAPE  H10X16187   4.956   6.274   5.730 -1.0656  0.6543  0.3928
  147SAPE  H10Y16188   5.104   6.363   5.761  0.5068  2.2651  0.1033
  147SAPE  C31116189   4.971   6.470   5.619  0.0754 -0.4976  0.4489
  147SAPE  H11X16190   5.036   6.559   5.629 -0.3186 -0.2466  0.8277
  147SAPE  H11Y16191   4.862   6.492   5.620  0.4614  1.5289  0.3392
  147SAPE  C31216192   5.013   6.407   5.482  1.1228  0.2735 -0.5808
  147SAPE  H12X16193   4.952   6.319   5.453 -0.5847  1.9631 -2.3919
  147SAPE  H12Y16194   5.112   6.373   5.520 -0.3140 -0.5461  2.7912
  147SAPE  C31316195   5.006   6.510   5.369 -0.5760 -0.1743  0.3265
  147SAPE  H13X16196   5.052   6.610   5.388  0.8200 -0.5945 -0.7010
  147SAPE  H13Y16197   4.899   6.539   5.363 -0.5490 -0.2219 -0.4992
  147SAPE  C31416198   5.080   6.469   5.238  0.0726 -0.3322  0.2994
  147SAPE  H14X16199   5.023   6.388   5.188 -2.6756  1.7297 -0.1687
  147SAPE  H14Y16200   5.184   6.437   5.258  0.4684  1.1411  0.7694
  147SAPE  C31516201   5.093   6.586   5.140 -0.0431 -0.3651  0.7312
  147SAPE  H15X16202   5.163   6.668   5.168  1.0407 -0.6532 -0.9995
  147SAPE  H15Y16203   4.994   6.630   5.116  0.6987  0.4093 -1.1093
  147SAPE  C31616204   5.149   6.541   5.002  0.7294  0.0744  0.2891
  147SAPE  H16X16205   5.099   6.448   4.967  2.1140 -0.3404 -0.6811
  147SAPE  H16Y16206   5.257   6.514   5.008  0.6478 -0.3926 -0.2065
  147SAPE  C31716207   5.141   6.655   4.904  0.0591 -1.0421  0.4675
  147SAPE  H17X16208   5.162   6.753   4.952 -0.7445 -0.2185 -0.7982
  147SAPE  H17Y16209   5.034   6.678   4.883  0.4092  0.6356  0.4110
  147SAPE  C31816210   5.206   6.645   4.770  0.3463 -0.0182 -0.0370
  147SAPE  H18X16211   5.308   6.601   4.776 -0.1524 -1.4758 -1.4629
  147SAPE  H18Y16212   5.207   6.743   4.718 -0.3937  0.6144  1.0961
  147SAPE  H18Z16213   5.147   6.577   4.705 -1.5161  1.1866  0.3204
  148SAPE     N16214   6.408   5.052   7.486  0.1874  0.3674 -0.2599
  148SAPE   HN116215   6.395   5.131   7.418 -0.1503  0.1630 -0.4366
  148SAPE   HN216216   6.480   5.074   7.558  3.0617 -2.2482 -2.0366
  148SAPE   HN316217   6.451   4.983   7.421 -0.6990 -0.1866 -0.2725
  148SAPE   C1216218   6.279   5.001   7.546 -0.5942 -0.2233 -0.2380
  148SAPE  H12A16219   6.234   5.099   7.572  0.3313  0.1603 -0.0575
  148SAPE  H12B16220   6.293   4.948   7.643 -4.7563  0.9998  1.2550
  148SAPE   C1116221   6.199   4.908   7.453  0.2820  0.5205  0.0685
  148SAPE  H11A16222   6.097   4.889   7.494  0.3797 -1.1780 -0.3938
  148SAPE  H11B16223   6.255   4.812   7.459 -0.8977 -0.1026  2.1465
  148SAPE     P16224   6.079   5.038   7.247 -0.3261 -0.1567 -0.1950
  148SAPE   O1316225   5.949   4.977   7.292 -0.1858 -0.1273 -0.1521
  148SAPE   O1416226   6.097   5.184   7.275  0.4876  0.5994  0.0098
  148SAPE   O1216227   6.193   4.949   7.315 -0.7824 -0.8256  0.3502
  148SAPE   O1116228   6.094   5.011   7.094 -0.6262 -0.3600  0.4972
  148SAPE    C116229   6.220   5.012   7.027  0.3754  0.8828  0.0463
  148SAPE    HA16230   6.293   4.944   7.076 -0.1415  0.5931  0.4290
  148SAPE    HB16231   6.202   4.971   6.926 -4.8213  0.3751  0.8647
  148SAPE    C216232   6.276   5.155   7.008 -0.7080  0.7134 -0.0408
  148SAPE    HS16233   6.301   5.187   7.111  2.2976 -2.7829  0.5041
  148SAPE   O2116234   6.182   5.242   6.939 -0.4289  0.0729  0.0956
  148SAPE   C2116235   6.194   5.367   6.980  0.1469  0.1647  0.4311
  148SAPE   O2216236   6.286   5.405   7.047 -0.3129 -0.1136 -0.5157
  148SAPE   C2216237   6.095   5.461   6.910 -0.2827 -0.1136  1.3492
  148SAPE   H2R16238   5.999   5.406   6.900 -0.7813  0.1511  3.9763
  148SAPE   H2S16239   6.077   5.542   6.985  2.4032  1.7350  0.1391
  148SAPE    C316240   6.414   5.140   6.931  0.2157 -0.3104  0.2133
  148SAPE    HX16241   6.483   5.067   6.978 -0.0272 -1.1365 -0.6739
  148SAPE    HY16242   6.451   5.244   6.919 -1.3843  0.2593  0.0115
  148SAPE   O3116243   6.398   5.081   6.800 -0.6491 -0.1767 -0.1159
  148SAPE   C3116244   6.423   5.145   6.685  0.7593  0.3680  0.2003
  148SAPE   O3216245   6.492   5.247   6.678  0.5877  0.1196 -0.3141
  148SAPE   C3216246   6.385   5.062   6.558 -0.4473 -0.0390  0.1655
  148SAPE   H2X16247   6.286   5.016   6.576 -1.0883  1.2822  0.1138
  148SAPE   H2Y16248   6.451   4.973   6.549 -1.1318 -0.4957 -0.4644
  148SAPE   C2316249   6.142   5.528   6.779 -0.3030 -0.2313 -0.1333
  148SAPE   H3R16250   6.240   5.581   6.774  0.5585 -1.8204 -0.7700
  148SAPE   H3S16251   6.065   5.599   6.742  2.2025  2.2002 -1.0584
  148SAPE   C2416252   6.170   5.439   6.655 -0.2161  0.0921 -0.5963
  148SAPE   H4R16253   6.254   5.369   6.675 -0.1549 -0.1614 -1.6478
  148SAPE   H4S16254   6.200   5.505   6.571 -1.1205  3.7360  1.7272
  148SAPE   C2516255   6.053   5.353   6.617  0.4575 -0.0543 -0.2303
  148SAPE   H5R16256   5.989   5.312   6.696  0.4257  0.5184  0.0482
  148SAPE   C2616257   6.006   5.326   6.493  0.1632 -0.7862  0.2750
  148SAPE   H6R16258   5.915   5.267   6.475 -0.1466  0.3080 -2.3254
  148SAPE   C2716259   6.055   5.373   6.363  0.2298  0.0496 -0.5774
  148SAPE   H7R16260   6.056   5.288   6.292  1.3454 -0.7313  0.3379
  148SAPE   H7S16261   6.157   5.416   6.380  0.8255 -1.8401  0.9718
  148SAPE   C2816262   5.966   5.485   6.308 -0.5238 -0.4383 -0.5306
  148SAPE   H8R16263   5.938   5.566   6.378  0.5236 -1.2251  0.8650
  148SAPE   C2916264   5.920   5.494   6.184 -0.6612 -0.3172  0.1746
  148SAPE   H9R16265   5.855   5.575   6.148  0.7311 -0.1109 -2.0766
  148SAPE  C21016266   5.943   5.405   6.067 -0.2215  0.5981  0.4597
  148SAPE  H10R16267   5.850   5.371   6.017 -1.5375  0.0748  3.0703
  148SAPE  H10S16268   5.977   5.306   6.104  1.1781  1.0849  0.5622
  148SAPE  C21116269   6.042   5.461   5.973 -0.3369 -0.5205  1.2071
  148SAPE  H11R16270   6.126   5.511   6.024  0.2352  0.1464 -0.3098
  148SAPE  C21216271   6.040   5.449   5.839 -0.1029  0.5914  0.4232
  148SAPE  H12R16272   6.122   5.495   5.781 -0.9622  1.3123 -0.2442
  148SAPE  C21316273   5.935   5.398   5.748  0.3538 -0.7749  0.4269
  148SAPE  H13R16274   5.913   5.479   5.676 -1.5203 -2.9492 -1.6315
  148SAPE  H13S16275   5.840   5.370   5.800  0.6933 -2.4751  0.1952
  148SAPE  C21416276   5.986   5.275   5.671  0.5884 -0.0631  0.1532
  148SAPE  H14R16277   6.063   5.211   5.718  2.6330 -0.2989 -3.1646
  148SAPE  C21516278   5.932   5.224   5.562 -0.1326 -0.4503 -0.1319
  148SAPE  H15R16279   5.981   5.138   5.515  2.2073  0.4336  0.5597
  148SAPE  C21616280   5.832   5.289   5.479  0.2976  0.3320  0.1052
  148SAPE  H16R16281   5.870   5.369   5.412 -0.3228  0.6182  0.0872
  148SAPE  H16S16282   5.758   5.340   5.545 -1.3017 -1.1125 -0.4758
  148SAPE  C21716283   5.742   5.192   5.390  0.0415 -0.6216 -0.2642
  148SAPE  H17R16284   5.679   5.120   5.448  0.4224  0.6910  1.8832
  148SAPE  H17S16285   5.801   5.150   5.306 -2.1699 -0.0750 -2.2117
  148SAPE  C21816286   5.639   5.262   5.292  0.2072 -0.2121  0.5624
  148SAPE  H18R16287   5.592   5.179   5.235 -1.6623 -0.7167  2.6870
  148SAPE  H18S16288   5.705   5.331   5.236  0.2573 -0.3014  0.5117
  148SAPE  C21916289   5.518   5.336   5.351 -0.3187  0.0402 -0.4732
  148SAPE  H19R16290   5.548   5.410   5.428 -0.1780 -0.3128 -0.1883
  148SAPE  H19S16291   5.445   5.269   5.402  0.3739 -1.0210 -0.8318
  148SAPE  C22016292   5.438   5.410   5.247 -0.0570 -0.2859 -0.3295
  148SAPE  H20R16293   5.354   5.462   5.299 -0.2672 -0.8171 -0.1285
  148SAPE  H20S16294   5.389   5.341   5.176  1.8206 -0.8516 -1.1184
  148SAPE  H20T16295   5.495   5.486   5.189 -0.7836  1.4439  1.0914
  148SAPE   C3316296   6.382   5.150   6.431  0.2819  0.4157  0.2009
  148SAPE   H3X16297   6.468   5.220   6.428 -0.5341  1.4970  1.1713
  148SAPE   H3Y16298   6.285   5.203   6.416 -1.0161 -2.0613 -0.8677
  148SAPE   C3416299   6.393   5.056   6.309 -0.8022  0.3185  0.2251
  148SAPE   H4X16300   6.330   4.965   6.300  1.0675 -0.9705 -0.4764
  148SAPE   H4Y16301   6.492   5.005   6.316  0.0427  1.8653 -0.0166
  148SAPE   C3516302   6.392   5.128   6.175 -0.0716 -0.3005 -0.3689
  148SAPE   H5X16303   6.469   5.205   6.154  0.7914 -1.5446 -2.0952
  148SAPE   H5Y16304   6.291   5.173   6.159 -1.0642 -2.5419 -0.8774
  148SAPE   C3616305   6.414   5.032   6.053  0.1859  0.9075 -0.2856
  148SAPE   H6X16306   6.376   4.929   6.073  0.7937  0.7422  0.0573
  148SAPE   H6Y16307   6.525   5.023   6.049  0.0076 -2.5186 -4.2686
  148SAPE   C3716308   6.375   5.081   5.917  0.8574  0.2745 -0.2802
  148SAPE   H7X16309   6.282   5.143   5.917  0.6981  0.2269  3.3314
  148SAPE   H7Y16310   6.354   4.987   5.863  0.1869 -0.0690  0.5508
  148SAPE   C3816311   6.479   5.167   5.835  0.2455 -0.1573  0.0926
  148SAPE   H8X16312   6.573   5.108   5.838  0.2273 -0.2180 -0.3608
  148SAPE   H8Y16313   6.500   5.267   5.879  0.1558  0.0134 -0.2409
  148SAPE   C3916314   6.436   5.175   5.689  0.7017 -0.1332  0.3908
  148SAPE   H9X16315   6.329   5.206   5.682  0.8265 -0.0336 -1.8720
  148SAPE   H9Y16316   6.444   5.073   5.646  0.5600 -0.4430  1.0835
  148SAPE  C31016317   6.527   5.265   5.603  0.2488 -0.1512 -0.4298
  148SAPE  H10X16318   6.630   5.225   5.604  0.9429  1.4777 -1.6332
  148SAPE  H10Y16319   6.525   5.372   5.634 -0.4402 -0.1811 -0.3618
  148SAPE  C31116320   6.476   5.269   5.458  0.3053  0.3871  0.5511
  148SAPE  H11X16321   6.462   5.164   5.425  0.6070  0.7151 -0.6560
  148SAPE  H11Y16322   6.561   5.311   5.400 -0.0499  1.3064  0.6754
  148SAPE  C31216323   6.344   5.333   5.434  0.4859 -0.5780  1.0189
  148SAPE  H12X16324   6.336   5.437   5.472 -1.4630 -0.8926  1.5656
  148SAPE  H12Y16325   6.262   5.278   5.484 -2.5866  0.7820 -2.1582
  148SAPE  C31316326   6.309   5.327   5.279 -0.7445 -0.1712  0.3925
  148SAPE  H13X16327   6.322   5.223   5.243 -3.0898 -0.4084  0.0949
  148SAPE  H13Y16328   6.382   5.389   5.222 -0.4021 -2.4763 -1.8470
  148SAPE  C31416329   6.166   5.368   5.242 -0.3367 -0.0150  0.4920
  148SAPE  H14X16330   6.128   5.443   5.315  0.3696  1.3673 -0.5156
  148SAPE  H14Y16331   6.102   5.277   5.248 -1.0782  0.4336 -0.4261
  148SAPE  C31516332   6.159   5.411   5.097  0.1560  0.5887 -0.2304
  148SAPE  H15X16333   6.194   5.337   5.022  1.1103  0.8006 -0.0197
  148SAPE  H15Y16334   6.227   5.498   5.083 -1.0661  1.2766 -2.1404
  148SAPE  C31616335   6.022   5.458   5.049 -0.3307 -0.0352 -0.5522
  148SAPE  H16X16336   5.987   5.525   5.129  2.8271  1.2824 -0.1431
  148SAPE  H16Y16337   5.956   5.368   5.053  0.6208 -0.6867  1.1608
  148SAPE  C31716338   6.022   5.523   4.910 -1.0258 -0.0767  0.4356
  148SAPE  H17X16339   6.098   5.469   4.850 -0.7619  0.9606 -0.1901
  148SAPE  H17Y16340   6.057   5.627   4.926 -0.4306 -0.4979  2.0592
  148SAPE  C31816341   5.882   5.526   4.851 -0.8270 -0.2401  0.1974
  148SAPE  H18X16342   5.838   5.425   4.836 -1.4087 -0.0580  0.6559
  148SAPE  H18Y16343   5.877   5.581   4.755  1.6338 -1.0312 -0.4517
  148SAPE  H18Z16344   5.819   5.587   4.920  0.4718 -0.1669  1.3516
  149SAPE     N16345   1.216   3.407   8.010 -0.5874  0.1215  0.4834
  149SAPE   HN116346   1.187   3.496   7.965 -2.0105 -1.2713 -1.5397
  149SAPE   HN216347   1.140   3.379   8.075 -1.0549  0.6224  0.1585
  149SAPE   HN316348   1.301   3.429   8.066 -1.8955  1.4618  2.0541
  149SAPE   C1216349   1.248   3.298   7.918  0.1000 -0.2430 -0.9621
  149SAPE  H12A16350   1.206   3.209   7.970  0.0320  0.8399  0.9088
  149SAPE  H12B16351   1.358   3.294   7.899  0.2698  0.0551 -0.0930
  149SAPE   C1116352   1.172   3.322   7.787  0.9636  0.2625  0.1029
  149SAPE  H11A16353   1.062   3.318   7.799  1.0123 -1.3875  0.3454
  149SAPE  H11B16354   1.184   3.234   7.720 -0.7764  0.8920 -1.1043
  149SAPE     P16355   1.135   3.525   7.619 -0.1289  0.0317  0.1405
  149SAPE   O1316356   1.008   3.544   7.694  0.6568 -0.5018  0.0588
  149SAPE   O1416357   1.199   3.651   7.573  0.2358  0.0081 -0.2388
  149SAPE   O1216358   1.227   3.440   7.715  0.4269  0.2468 -0.1963
  149SAPE   O1116359   1.107   3.428   7.503 -0.3263  0.0174  0.2322
  149SAPE    C116360   1.195   3.343   7.428  0.1252  0.0173  0.3634
  149SAPE    HA16361   1.299   3.341   7.469 -0.3708 -2.6623  1.7444
  149SAPE    HB16362   1.156   3.241   7.408  0.9960 -0.1799 -0.4121
  149SAPE    C216363   1.195   3.403   7.282 -0.1708  0.1347 -0.2165
  149SAPE    HS16364   1.257   3.496   7.288  0.3931 -0.3166  1.3061
  149SAPE   O2116365   1.063   3.413   7.221  0.4617 -0.3420  0.3374
  149SAPE   C2116366   1.061   3.511   7.122  0.0888 -1.0479 -0.0414
  149SAPE   O2216367   1.147   3.600   7.110  0.1968 -0.4273 -0.1865
  149SAPE   C2216368   0.955   3.478   7.013 -0.0562  0.3036 -0.2922
  149SAPE   H2R16369   0.928   3.370   7.020  0.7298 -0.1201 -2.6866
  149SAPE   H2S16370   0.871   3.543   7.045 -0.0620 -0.0335  0.3793
  149SAPE    C316371   1.282   3.305   7.200  0.2012  0.3286 -0.0656
  149SAPE    HX16372   1.221   3.215   7.177  0.7650 -0.0103 -0.2666
  149SAPE    HY16373   1.363   3.279   7.271  0.5595  0.2401 -0.5006
  149SAPE   O3116374   1.325   3.361   7.079 -0.2435 -0.6210  0.4174
  149SAPE   C3116375   1.454   3.382   7.069 -0.2211  0.1796 -0.0465
  149SAPE   O3216376   1.536   3.342   7.148 -0.6218  0.4001  0.3964
  149SAPE   C3216377   1.505   3.459   6.942 -0.0600 -0.2945  0.0776
  149SAPE   H2X16378   1.527   3.382   6.865 -2.8332 -2.0817  0.9506
  149SAPE   H2Y16379   1.597   3.513   6.973  0.1908  0.3027 -1.6037
  149SAPE   C2316380   0.995   3.517   6.868  1.0314  0.1731  0.4775
  149SAPE   H3R16381   1.075   3.448   6.833  2.4637  1.4292  1.1734
  149SAPE   H3S16382   1.035   3.620   6.866 -0.4269  0.7978  1.5692
  149SAPE   C2416383   0.878   3.523   6.768 -0.4151  0.5560 -0.4040
  149SAPE   H4R16384   0.820   3.429   6.769  2.0199 -1.0429 -1.1646
  149SAPE   H4S16385   0.932   3.539   6.672  0.6138  1.0586  0.2391
  149SAPE   C2516386   0.792   3.640   6.788  0.3929 -0.9997 -0.7542
  149SAPE   H5R16387   0.806   3.705   6.877  0.4593 -0.6584 -1.0109
  149SAPE   C2616388   0.709   3.697   6.698  0.3976 -0.4202 -0.8632
  149SAPE   H6R16389   0.661   3.791   6.728  1.2521 -0.7908  1.9469
  149SAPE   C2716390   0.689   3.639   6.559 -0.3686  0.1055  0.1469
  149SAPE   H7R16391   0.580   3.655   6.540 -0.7040 -1.3952  0.6600
  149SAPE   H7S16392   0.703   3.529   6.561  1.6663  0.3458  1.5352
  149SAPE   C2816393   0.767   3.705   6.450  0.1502 -0.2726  0.1840
  149SAPE   H8R16394   0.863   3.745   6.484 -0.7864 -0.9573  4.0975
  149SAPE   C2916395   0.734   3.708   6.322 -0.0445  0.6632 -0.1411
  149SAPE   H9R16396   0.800   3.766   6.256  1.0166  0.2661  0.5355
  149SAPE  C21016397   0.614   3.658   6.249  0.8265  0.5610 -0.0914
  149SAPE  H10R16398   0.582   3.730   6.169  0.2590 -0.9452 -1.2776
  149SAPE  H10S16399   0.528   3.645   6.318  0.7661 -0.8253 -0.3978
  149SAPE  C21116400   0.639   3.519   6.191  0.6515  0.3839 -0.1341
  149SAPE  H11R16401   0.671   3.441   6.262  1.1408  0.1305 -0.6264
  149SAPE  C21216402   0.637   3.484   6.058 -0.2514 -0.7023 -0.4090
  149SAPE  H12R16403   0.671   3.383   6.028  0.0228 -0.8742  0.4454
  149SAPE  C21316404   0.621   3.569   5.938 -0.5900 -0.0815 -0.5816
  149SAPE  H13R16405   0.557   3.656   5.963 -2.0290 -0.9769 -0.9757
  149SAPE  H13S16406   0.569   3.514   5.856 -0.1128 -0.6634 -0.4987
  149SAPE  C21416407   0.756   3.620   5.882  0.2039 -0.3379 -0.3312
  149SAPE  H14R16408   0.822   3.650   5.965 -0.5480  1.8249 -0.4531
  149SAPE  C21516409   0.810   3.621   5.758 -0.0666 -0.4237  0.8546
  149SAPE  H15R16410   0.912   3.660   5.745  0.3651 -1.7217  0.2313
  149SAPE  C21616411   0.728   3.585   5.631  0.7249 -0.6479  0.2391
  149SAPE  H16R16412   0.621   3.615   5.627  1.0022  0.8256  2.3454
  149SAPE  H16S16413   0.720   3.474   5.627 -0.6451 -0.5594 -0.2564
  149SAPE  C21716414   0.785   3.616   5.487 -0.3345  0.1477 -0.5663
  149SAPE  H17R16415   0.888   3.574   5.485 -0.3522 -0.9290  4.6962
  149SAPE  H17S16416   0.783   3.724   5.462 -0.3181  0.3246  0.1528
  149SAPE  C21816417   0.691   3.546   5.384 -0.8753  0.2744 -0.6415
  149SAPE  H18R16418   0.596   3.602   5.385 -1.5954 -0.9144 -0.0395
  149SAPE  H18S16419   0.668   3.440   5.409  1.7312 -0.4290 -0.8442
  149SAPE  C21916420   0.753   3.544   5.243  0.1488  0.2528  0.2181
  149SAPE  H19R16421   0.840   3.475   5.238 -0.1423 -0.0514 -1.4389
  149SAPE  H19S16422   0.796   3.643   5.218  0.8602 -0.7791 -3.2026
  149SAPE  C22016423   0.645   3.512   5.138  0.0588 -0.8108 -0.2700
  149SAPE  H20R16424   0.695   3.509   5.038  0.1317  0.7987 -0.3090
  149SAPE  H20S16425   0.562   3.586   5.141 -0.8340 -1.7386 -1.2825
  149SAPE  H20T16426   0.595   3.414   5.154  0.2767 -0.6890  1.2537
  149SAPE   C3316427   1.420   3.562   6.885 -0.3323 -1.1028  1.1230
  149SAPE   H3X16428   1.373   3.620   6.968 -0.9994  0.8172 -0.5199
  149SAPE   H3Y16429   1.341   3.519   6.820 -1.6382  1.4303  0.9036
  149SAPE   C3416430   1.508   3.658   6.802  0.4097 -0.1129  0.3993
  149SAPE   H4X16431   1.599   3.686   6.860  0.5794 -1.2077  0.6820
  149SAPE   H4Y16432   1.444   3.749   6.806 -0.9526 -0.7746 -2.8972
  149SAPE   C3516433   1.543   3.617   6.654  0.1767  0.0388  0.0493
  149SAPE   H5X16434   1.452   3.575   6.605  1.0845 -1.7610 -0.1582
  149SAPE   H5Y16435   1.619   3.536   6.651 -0.1975 -0.2942 -0.9678
  149SAPE   C3616436   1.596   3.733   6.572  0.0498 -1.0282 -0.1365
  149SAPE   H6X16437   1.679   3.771   6.635  0.2198  0.2805 -1.1134
  149SAPE   H6Y16438   1.511   3.804   6.580  1.2648  0.5484 -0.8153
  149SAPE   C3716439   1.648   3.696   6.442 -0.5457 -0.5320  0.3603
  149SAPE   H7X16440   1.567   3.637   6.394  0.9858 -1.7040 -0.9176
  149SAPE   H7Y16441   1.730   3.621   6.442  2.8039  2.8264  1.6190
  149SAPE   C3816442   1.660   3.820   6.350 -0.2614  0.0798 -0.0627
  149SAPE   H8X16443   1.744   3.886   6.382 -0.2173  0.0855 -0.1900
  149SAPE   H8Y16444   1.567   3.880   6.356 -0.0647  0.6040 -1.7889
  149SAPE   C3916445   1.675   3.771   6.208  0.1718 -1.0441 -0.7618
  149SAPE   H9X16446   1.595   3.694   6.202 -0.3068 -1.1166  3.6043
  149SAPE   H9Y16447   1.775   3.721   6.210  2.7090  3.5147 -0.8961
  149SAPE  C31016448   1.654   3.880   6.102 -0.1885  0.4137 -0.5731
  149SAPE  H10X16449   1.713   3.969   6.131  1.1143 -0.4204 -0.5507
  149SAPE  H10Y16450   1.550   3.916   6.110 -0.7640 -0.9209 -1.5963
  149SAPE  C31116451   1.681   3.822   5.962  0.2157 -0.5337  0.0414
  149SAPE  H11X16452   1.632   3.723   5.950  0.0475 -0.6089  1.1800
  149SAPE  H11Y16453   1.790   3.805   5.950  0.3455  0.5008 -0.3186
  149SAPE  C31216454   1.638   3.918   5.853 -0.0044  0.0685  0.4587
  149SAPE  H12X16455   1.715   3.998   5.847  0.1626  0.0852  2.3117
  149SAPE  H12Y16456   1.548   3.969   5.893  0.2030 -1.1211  2.5742
  149SAPE  C31316457   1.597   3.858   5.718  0.1948 -0.2327 -0.1668
  149SAPE  H13X16458   1.509   3.790   5.723 -1.3357  1.6328 -0.6488
  149SAPE  H13Y16459   1.677   3.798   5.670 -0.1803 -1.0733  0.2435
  149SAPE  C31416460   1.556   3.978   5.631 -0.4172 -0.6153 -0.0047
  149SAPE  H14X16461   1.643   4.043   5.608 -0.9980  0.3928  0.5770
  149SAPE  H14Y16462   1.477   4.036   5.683 -0.4875 -1.2813  0.6555
  149SAPE  C31516463   1.495   3.933   5.499  0.7759  0.8941  0.0955
  149SAPE  H15X16464   1.424   3.853   5.530 -0.6417  2.3124  0.6655
  149SAPE  H15Y16465   1.577   3.894   5.436 -1.2287 -2.9065 -0.4453
  149SAPE  C31616466   1.416   4.045   5.433 -0.2650 -0.5767  0.4951
  149SAPE  H16X16467   1.344   4.099   5.498 -0.9911 -0.2626 -0.5274
  149SAPE  H16Y16468   1.359   4.012   5.343 -2.4734  2.3682  0.6467
  149SAPE  C31716469   1.516   4.159   5.384 -0.1434  0.1575  0.2308
  149SAPE  H17X16470   1.568   4.130   5.291  0.5064  2.5452 -0.2178
  149SAPE  H17Y16471   1.589   4.187   5.462 -1.3192  0.4002  1.2895
  149SAPE  C31816472   1.440   4.285   5.349  0.1000 -0.2295 -0.4193
  149SAPE  H18X16473   1.351   4.265   5.286 -0.8752  1.6066  0.2997
  149SAPE  H18Y16474   1.515   4.342   5.290 -0.9961  0.8121 -0.8589
  149SAPE  H18Z16475   1.424   4.339   5.444  3.7992 -0.9129  0.7611
  150SAPE     N16476   3.612   0.894   7.041 -0.2662  0.4421  0.9455
  150SAPE   HN116477   3.707   0.869   7.005 -0.7829 -1.4046  0.7666
  150SAPE   HN216478   3.621   0.956   7.124  0.3946 -0.1723  1.3603
  150SAPE   HN316479   3.571   0.804   7.075  0.7819  0.3739  2.1281
  150SAPE   C1216480   3.533   0.952   6.929  0.2919 -0.0216 -0.0925
  150SAPE  H12A16481   3.563   0.908   6.832  0.6332  3.3263 -1.6609
  150SAPE  H12B16482   3.556   1.061   6.922 -0.4881  0.0581 -1.8516
  150SAPE   C1116483   3.380   0.937   6.949 -0.4265  0.6176  0.4107
  150SAPE  H11A16484   3.360   0.828   6.965 -1.5911  0.8084  0.3360
  150SAPE  H11B16485   3.326   0.979   6.862  1.0552  3.4780  0.7474
  150SAPE     P16486   3.215   1.089   7.086  0.0525  0.0475  0.1706
  150SAPE   O1316487   3.125   1.040   7.190 -0.5974 -0.4454  0.2423
  150SAPE   O1416488   3.268   1.223   7.113 -0.0251 -0.5541 -0.1726
  150SAPE   O1216489   3.343   0.988   7.072 -0.5743  0.0539  0.1788
  150SAPE   O1116490   3.142   1.086   6.945  0.1555  0.1825 -0.5472
  150SAPE    C116491   3.014   1.133   6.923 -0.2000 -0.1749 -0.4402
  150SAPE    HA16492   2.993   1.213   6.996  0.0037  0.0797 -0.6569
  150SAPE    HB16493   2.993   1.173   6.821 -0.8711 -1.7032 -0.9238
  150SAPE    C216494   2.908   1.019   6.919 -0.0631  0.2202  0.3292
  150SAPE    HS16495   2.908   0.980   7.023 -0.0853  2.2399  1.1371
  150SAPE   O2116496   2.965   0.934   6.815 -0.5429  0.1470  0.5257
  150SAPE   C2116497   2.990   0.813   6.855 -0.3065  0.7307 -0.2153
  150SAPE   O2216498   2.961   0.771   6.967 -0.1135  0.4620  0.7364
  150SAPE   C2216499   3.049   0.732   6.733  1.3156 -0.3070 -0.2565
  150SAPE   H2R16500   3.110   0.644   6.765  2.0503  0.0533 -0.6379
  150SAPE   H2S16501   2.962   0.702   6.671  1.1080  2.2273 -1.2983
  150SAPE    C316502   2.761   1.068   6.886  0.2171 -0.5007  0.1552
  150SAPE    HX16503   2.740   1.145   6.963 -1.7204 -1.1270  0.3071
  150SAPE    HY16504   2.698   0.978   6.902  0.5146 -0.8443 -0.5796
  150SAPE   O3116505   2.746   1.126   6.753 -0.3527 -0.1783 -0.0569
  150SAPE   C3116506   2.720   1.036   6.653  0.3127  0.7587 -0.3353
  150SAPE   O3216507   2.716   0.916   6.669  0.3891  0.0825 -0.4918
  150SAPE   C3216508   2.706   1.104   6.527  0.4779 -0.3261  0.6959
  150SAPE   H2X16509   2.774   1.190   6.511 -0.1828  0.4046  1.7001
  150SAPE   H2Y16510   2.602   1.139   6.511  1.5967  3.2570  0.2912
  150SAPE   C2316511   3.125   0.818   6.630 -0.1864 -0.2792 -0.1862
  150SAPE   H3R16512   3.206   0.869   6.687  1.0551 -2.1519 -0.2011
  150SAPE   H3S16513   3.061   0.891   6.575  0.2847 -0.2403 -0.6867
  150SAPE   C2416514   3.190   0.719   6.531 -0.1575 -0.5735  0.3364
  150SAPE   H4R16515   3.115   0.659   6.475 -1.0430  1.2280 -0.5002
  150SAPE   H4S16516   3.252   0.647   6.588 -1.1288 -0.6881  1.2995
  150SAPE   C2516517   3.270   0.793   6.426 -0.3758  0.3248  0.5426
  150SAPE   H5R16518   3.379   0.795   6.441 -0.0885 -2.1156 -0.7100
  150SAPE   C2616519   3.232   0.863   6.316 -1.1308 -0.7134 -0.9080
  150SAPE   H6R16520   3.311   0.905   6.252 -0.8409  3.5724  1.8557
  150SAPE   C2716521   3.097   0.859   6.256  0.2905 -0.0381  0.1979
  150SAPE   H7R16522   3.081   0.964   6.223  1.0219  0.5497  1.6248
  150SAPE   H7S16523   3.014   0.850   6.330  0.8674 -0.7270  0.7720
  150SAPE   C2816524   3.078   0.761   6.141 -0.0714 -0.3260 -0.2662
  150SAPE   H8R16525   3.067   0.654   6.166  1.4537 -0.4544 -0.0602
  150SAPE   C2916526   3.076   0.807   6.010  0.1740 -0.0037  0.2371
  150SAPE   H9R16527   3.075   0.728   5.933  1.8635  1.8757 -1.8335
  150SAPE  C21016528   3.128   0.949   5.973  0.6172 -0.1676 -0.9024
  150SAPE  H10R16529   3.185   1.008   6.049  0.8772 -1.7484  0.1634
  150SAPE  H10S16530   3.041   1.014   5.949  0.8781  0.4256 -0.3064
  150SAPE  C21116531   3.229   0.943   5.861 -0.1402 -0.2575  0.7515
  150SAPE  H11R16532   3.327   0.931   5.910 -1.3148 -2.3491  2.8361
  150SAPE  C21216533   3.212   0.933   5.726  0.7440  0.1778 -0.3247
  150SAPE  H12R16534   3.301   0.949   5.663  0.2822 -1.8218 -1.5896
  150SAPE  C21316535   3.079   0.924   5.658 -0.0666 -0.1173 -0.2739
  150SAPE  H13R16536   3.077   0.993   5.571 -0.6048 -0.6264 -0.6735
  150SAPE  H13S16537   2.995   0.949   5.726  1.0414  2.7734  0.1739
  150SAPE  C21416538   3.058   0.781   5.603 -0.0547 -0.2403  0.2462
  150SAPE  H14R16539   3.010   0.726   5.685 -0.3112  1.5149  1.2973
  150SAPE  C21516540   3.082   0.730   5.480  0.3331  0.0008  0.7800
  150SAPE  H15R16541   3.049   0.626   5.463  0.3811  0.2327 -0.8001
  150SAPE  C21616542   3.158   0.793   5.362  0.7446 -0.5595 -0.2960
  150SAPE  H16R16543   3.235   0.871   5.385  1.1676 -0.4541 -1.9300
  150SAPE  H16S16544   3.073   0.837   5.307 -1.1300 -2.0026  1.3243
  150SAPE  C21716545   3.242   0.691   5.280 -0.3658 -0.0755  0.1509
  150SAPE  H17R16546   3.306   0.628   5.346  2.1087  0.2623 -1.8112
  150SAPE  H17S16547   3.306   0.751   5.212  1.2739 -1.7671  0.1380
  150SAPE  C21816548   3.163   0.598   5.185 -0.4396  0.3318  0.3395
  150SAPE  H18R16549   3.091   0.643   5.113 -1.5626 -1.2681  0.4106
  150SAPE  H18S16550   3.099   0.537   5.252  0.7037  0.8591  1.9591
  150SAPE  C21916551   3.259   0.510   5.099 -0.2838 -0.2877 -0.2464
  150SAPE  H19R16552   3.330   0.466   5.173  1.1733 -1.3078 -2.1877
  150SAPE  H19S16553   3.332   0.568   5.039 -0.0202 -1.7414 -1.3546
  150SAPE  C22016554   3.193   0.411   5.001  0.3911  0.0376 -0.1162
  150SAPE  H20R16555   3.263   0.389   4.918  0.4266 -0.4010  0.0299
  150SAPE  H20S16556   3.095   0.438   4.956 -0.5835 -2.6438  0.2227
  150SAPE  H20T16557   3.192   0.308   5.042  1.8159 -0.3058 -0.8907
  150SAPE   C3316558   2.725   0.996   6.421 -0.2290 -0.1425  0.5595
  150SAPE   H3X16559   2.642   0.922   6.425 -0.3345 -0.0558  0.1013
  150SAPE   H3Y16560   2.814   0.930   6.436  0.1228  0.4374  1.0666
  150SAPE   C3416561   2.733   1.059   6.281  0.0410 -0.4764  0.1168
  150SAPE   H4X16562   2.834   1.102   6.267  0.5214 -1.7389 -0.4495
  150SAPE   H4Y16563   2.656   1.139   6.284 -0.1134 -0.6293  0.3104
  150SAPE   C3516564   2.724   0.962   6.163  0.0614 -0.0318  0.1095
  150SAPE   H5X16565   2.624   0.913   6.164 -0.1766  0.1685 -3.0280
  150SAPE   H5Y16566   2.800   0.881   6.161 -0.8906 -0.9902 -2.8855
  150SAPE   C3616567   2.717   1.035   6.030  0.4504  0.2785  0.0331
  150SAPE   H6X16568   2.800   1.107   6.012  0.5260  0.2800  0.3692
  150SAPE   H6Y16569   2.634   1.107   6.047  1.8104  1.8418  0.2512
  150SAPE   C3716570   2.698   0.935   5.909 -0.4325  0.0910 -0.0657
  150SAPE   H7X16571   2.604   0.878   5.922  0.0717 -0.3415  2.1252
  150SAPE   H7Y16572   2.783   0.863   5.910 -0.9155 -0.4987  1.6759
  150SAPE   C3816573   2.688   1.004   5.769 -0.0430  0.4722 -0.1428
  150SAPE   H8X16574   2.762   1.086   5.779 -1.2479  1.5023  0.5725
  150SAPE   H8Y16575   2.584   1.040   5.757 -1.0610 -1.9667  0.7148
  150SAPE   C3916576   2.727   0.902   5.657  0.5859 -0.7261  0.0541
  150SAPE   H9X16577   2.650   0.822   5.658  0.1385 -0.3566 -1.3942
  150SAPE   H9Y16578   2.818   0.841   5.664 -0.9781 -3.0597  1.1346
  150SAPE  C31016579   2.733   0.977   5.520  0.2655 -0.1192 -0.3316
  150SAPE  H10X16580   2.814   1.053   5.522  0.1153  0.0472 -0.6055
  150SAPE  H10Y16581   2.641   1.038   5.525  0.5561  0.2608  2.2725
  150SAPE  C31116582   2.733   0.888   5.401 -0.4076 -0.5108  0.4986
  150SAPE  H11X16583   2.646   0.819   5.403 -1.8464  1.1685 -1.3336
  150SAPE  H11Y16584   2.829   0.831   5.403  0.9351  1.6503  1.1976
  150SAPE  C31216585   2.740   0.970   5.267  0.3358  0.0552 -0.0097
  150SAPE  H12X16586   2.830   1.035   5.273  0.2320  0.0970  1.5525
  150SAPE  H12Y16587   2.647   1.024   5.241 -0.9080 -1.3181  1.3759
  150SAPE  C31316588   2.761   0.870   5.153  0.0167  0.3732 -0.2132
  150SAPE  H13X16589   2.658   0.839   5.125 -0.2618  1.7387 -0.7905
  150SAPE  H13Y16590   2.820   0.782   5.187  0.1320  0.7019  0.4701
  150SAPE  C31416591   2.835   0.930   5.038 -0.1092  0.3477  0.1774
  150SAPE  H14X16592   2.939   0.957   5.068  0.0352 -1.5832  1.6083
  150SAPE  H14Y16593   2.782   1.022   5.004  0.5626 -0.1762 -2.4839
  150SAPE  C31516594   2.847   0.837   4.916  0.0647  0.2718  0.0952
  150SAPE  H15X16595   2.747   0.797   4.888  0.7856 -2.1891  0.7760
  150SAPE  H15Y16596   2.921   0.757   4.936  0.6726  1.1704  1.6877
  150SAPE  C31616597   2.904   0.893   4.784 -0.5011  0.2025 -0.7989
  150SAPE  H16X16598   2.940   0.805   4.726  0.4334 -0.3165  0.5195
  150SAPE  H16Y16599   2.993   0.959   4.799 -1.8594  1.7489  0.9915
  150SAPE  C31716600   2.811   0.987   4.703  0.1253  0.0467 -0.8836
  150SAPE  H17X16601   2.876   1.058   4.648 -0.1980  0.5836 -0.5771
  150SAPE  H17Y16602   2.751   1.047   4.774 -0.2927 -3.0372  1.5964
  150SAPE  C31816603   2.723   0.909   4.604 -0.1540 -0.7085 -0.2184
  150SAPE  H18X16604   2.773   0.821   4.558  1.5250  0.3789 -0.5967
  150SAPE  H18Y16605   2.691   0.976   4.521 -1.3693  1.6771  2.0404
  150SAPE  H18Z16606   2.631   0.890   4.662 -0.9590  2.5080 -0.2537
  151SAPE     N16607   0.245   0.177   7.762 -0.7525 -0.2179 -0.4887
  151SAPE   HN116608   0.242   0.265   7.818  1.7623  0.0073 -0.5945
  151SAPE   HN216609   0.266   0.204   7.664 -1.3815  1.7929 -0.1078
  151SAPE   HN316610   0.154   0.127   7.767 -0.2403 -1.0789  2.7352
  151SAPE   C1216611   0.368   0.092   7.809  0.2244  0.7726 -0.2367
  151SAPE  H12A16612   0.353   0.073   7.918  1.1247  1.2762 -0.0130
  151SAPE  H12B16613   0.460   0.151   7.794  0.5775  0.4562  0.6121
  151SAPE   C1116614   0.384  -0.045   7.723  0.2418 -0.7117  0.2887
  151SAPE  H11A16615   0.293  -0.104   7.744  0.0066 -0.1859  0.7843
  151SAPE  H11B16616   0.464  -0.110   7.765  0.6472  0.0719  0.7637
  151SAPE     P16617   0.311  -0.016   7.479  0.0851 -0.1102  0.2634
  151SAPE   O1316618   0.218  -0.130   7.502  0.1652 -0.4820 -0.1976
  151SAPE   O1416619   0.243   0.119   7.485 -0.1000 -0.2769 -0.0145
  151SAPE   O1216620   0.419  -0.013   7.588  0.1064  0.5167 -0.2446
  151SAPE   O1116621   0.394  -0.016   7.353 -0.5495  0.2444 -0.5629
  151SAPE    C116622   0.485  -0.118   7.311  0.4587  0.7950 -0.2956
  151SAPE    HA16623   0.582  -0.092   7.358 -0.7911  3.6765  0.9403
  151SAPE    HB16624   0.452  -0.219   7.343 -0.6627  0.3436 -2.6294
  151SAPE    C216625   0.514  -0.129   7.159  0.1334 -0.5617  0.2135
  151SAPE    HS16626   0.559  -0.228   7.137 -0.7368 -1.0985  0.8032
  151SAPE   O2116627   0.602  -0.021   7.124 -0.0718  0.1378  0.1668
  151SAPE   C2116628   0.694  -0.054   7.032 -0.6369  0.5211  0.3108
  151SAPE   O2216629   0.710  -0.165   6.979  0.9736 -1.0688  0.3900
  151SAPE   C2216630   0.796   0.057   7.007 -0.4417 -0.5306  0.2327
  151SAPE   H2R16631   0.848   0.094   7.097 -2.2757 -0.5550  1.3404
  151SAPE   H2S16632   0.884   0.012   6.956  0.2887 -1.1455  1.9742
  151SAPE    C316633   0.378  -0.117   7.077 -0.3122  0.3321 -0.2534
  151SAPE    HX16634   0.326  -0.023   7.106  0.9233  1.5722 -1.8438
  151SAPE    HY16635   0.314  -0.203   7.105  0.1469 -0.0293 -0.2976
  151SAPE   O3116636   0.403  -0.112   6.934  0.1860 -0.2616  0.5172
  151SAPE   C3116637   0.433  -0.225   6.874  0.4069  0.0519  0.2008
  151SAPE   O3216638   0.432  -0.328   6.932 -0.4463  0.1016 -0.3582
  151SAPE   C3216639   0.477  -0.216   6.730 -0.5623 -0.1961 -0.1955
  151SAPE   H2X16640   0.563  -0.147   6.718 -0.9044  0.1071 -0.9232
  151SAPE   H2Y16641   0.386  -0.163   6.694 -0.5208  0.4357  0.6088
  151SAPE   C2316642   0.735   0.176   6.932 -0.2955  0.3871 -0.3054
  151SAPE   H3R16643   0.807   0.260   6.942  1.2192 -0.8030 -0.8163
  151SAPE   H3S16644   0.643   0.205   6.987 -1.5503 -1.8708 -1.0666
  151SAPE   C2416645   0.705   0.151   6.777  0.0121  0.3824  0.3717
  151SAPE   H4R16646   0.637   0.235   6.753  0.3895  0.8030  0.7488
  151SAPE   H4S16647   0.651   0.055   6.763  1.7664 -0.6950  0.6828
  151SAPE   C2516648   0.822   0.179   6.691  0.5269 -0.0757  0.6735
  151SAPE   H5R16649   0.852   0.285   6.693  0.2806  0.0055  2.5421
  151SAPE   C2616650   0.878   0.106   6.601 -0.2857  0.3942  0.6204
  151SAPE   H6R16651   0.965   0.150   6.550  1.5404 -0.2090  3.0545
  151SAPE   C2716652   0.848  -0.033   6.569  0.1125  0.2314 -0.1869
  151SAPE   H7R16653   0.749  -0.031   6.519 -0.1547 -1.8017  0.1893
  151SAPE   H7S16654   0.843  -0.093   6.662  0.7966 -0.4717 -0.6004
  151SAPE   C2816655   0.942  -0.107   6.482  0.1063 -0.1512 -0.5271
  151SAPE   H8R16656   1.016  -0.155   6.549  0.1791  0.6849  0.0093
  151SAPE   C2916657   0.950  -0.103   6.349  0.5101  0.5446  0.1716
  151SAPE   H9R16658   1.023  -0.171   6.302  0.1848  1.1611 -1.3003
  151SAPE  C21016659   0.854  -0.048   6.249  0.1829  0.1311  0.6273
  151SAPE  H10R16660   0.905   0.010   6.169  0.7924  0.2495  1.0914
  151SAPE  H10S16661   0.798   0.036   6.295 -2.0851  1.2246 -3.6614
  151SAPE  C21116662   0.757  -0.145   6.186  0.1669  0.4658 -0.2453
  151SAPE  H11R16663   0.710  -0.216   6.255 -1.9599  1.5024 -0.5575
  151SAPE  C21216664   0.715  -0.144   6.058  0.0067 -0.1660 -0.9120
  151SAPE  H12R16665   0.636  -0.216   6.033 -1.4034  1.5092 -1.5021
  151SAPE  C21316666   0.761  -0.056   5.947  0.1165 -0.2376  0.3384
  151SAPE  H13R16667   0.808  -0.118   5.868  0.5385 -0.2424  0.5908
  151SAPE  H13S16668   0.842   0.013   5.979 -1.0444  1.2367  0.2398
  151SAPE  C21416669   0.644   0.030   5.900 -0.5836  0.8610  0.2649
  151SAPE  H14R16670   0.614   0.107   5.974 -0.5224 -0.2330  1.4629
  151SAPE  C21516671   0.569   0.021   5.786  0.9166  0.5294  0.6443
  151SAPE  H15R16672   0.484   0.090   5.772 -1.3446 -2.3620 -0.9249
  151SAPE  C21616673   0.597  -0.081   5.677 -0.2678 -0.6804  0.6355
  151SAPE  H16R16674   0.502  -0.136   5.658 -0.1966 -0.9365  1.0193
  151SAPE  H16S16675   0.670  -0.159   5.704 -0.8371 -0.8317  1.7835
  151SAPE  C21716676   0.635  -0.006   5.550  0.0557  0.4331 -0.2180
  151SAPE  H17R16677   0.738   0.037   5.550 -0.8332  2.7527 -1.4221
  151SAPE  H17S16678   0.572   0.084   5.533  2.1087  1.6860 -1.7506
  151SAPE  C21816679   0.636  -0.101   5.425  0.1719  0.0891 -0.4983
  151SAPE  H18R16680   0.536  -0.150   5.419 -0.0799  0.6635 -1.0142
  151SAPE  H18S16681   0.715  -0.175   5.451  1.4361  0.8348 -2.0249
  151SAPE  C21916682   0.694  -0.033   5.304 -0.0467  0.3081  0.5528
  151SAPE  H19R16683   0.668  -0.094   5.215  0.8620 -0.3850  0.7491
  151SAPE  H19S16684   0.804  -0.018   5.299  0.0392 -0.5654 -0.8553
  151SAPE  C22016685   0.624   0.097   5.279  0.2697 -0.9014  0.0333
  151SAPE  H20R16686   0.640   0.165   5.365 -2.7367 -1.3616  1.0847
  151SAPE  H20S16687   0.514   0.079   5.276  0.2254 -1.3582  2.2576
  151SAPE  H20T16688   0.653   0.160   5.193  0.8514  1.3237  1.7772
  151SAPE   C3316689   0.521  -0.353   6.677 -0.0089  0.4128 -0.1472
  151SAPE   H3X16690   0.442  -0.426   6.708 -0.3849  1.3417  1.1856
  151SAPE   H3Y16691   0.616  -0.388   6.723  0.7433  0.3922 -1.6637
  151SAPE   C3416692   0.532  -0.354   6.521 -0.4516 -0.8064 -0.1106
  151SAPE   H4X16693   0.588  -0.443   6.486  3.6788  0.6790  1.9703
  151SAPE   H4Y16694   0.595  -0.268   6.490 -0.7332 -0.3440  0.5730
  151SAPE   C3516695   0.400  -0.345   6.449 -0.3938 -0.0495  0.4520
  151SAPE   H5X16696   0.345  -0.259   6.494  0.4845  1.7409 -1.6909
  151SAPE   H5Y16697   0.339  -0.431   6.483  0.2803 -0.1196  1.5226
  151SAPE   C3616698   0.415  -0.326   6.303 -0.3905 -1.0084  0.5492
  151SAPE   H6X16699   0.459  -0.419   6.261 -0.8701 -1.4382  0.9724
  151SAPE   H6Y16700   0.486  -0.243   6.284 -1.2655 -0.6432 -1.3898
  151SAPE   C3716701   0.283  -0.300   6.228  0.0896  0.2559  0.3147
  151SAPE   H7X16702   0.232  -0.229   6.297  1.7722  1.1487  0.6778
  151SAPE   H7Y16703   0.223  -0.394   6.228 -0.7989  0.7904 -0.8000
  151SAPE   C3816704   0.305  -0.242   6.088  1.3421  0.3425 -0.5277
  151SAPE   H8X16705   0.388  -0.302   6.045  0.3272  0.0143 -2.1194
  151SAPE   H8Y16706   0.343  -0.137   6.091  2.6907 -0.1394  0.0056
  151SAPE   C3916707   0.188  -0.256   5.992 -0.7114 -0.1587 -0.1482
  151SAPE   H9X16708   0.107  -0.185   6.019 -1.7774 -1.2357 -0.4396
  151SAPE   H9Y16709   0.148  -0.359   5.984 -0.2772 -0.2238 -1.7179
  151SAPE  C31016710   0.234  -0.209   5.851  0.2028  0.2648 -0.4743
  151SAPE  H10X16711   0.298  -0.276   5.789 -1.2988 -0.7259 -1.0178
  151SAPE  H10Y16712   0.279  -0.108   5.859  0.5519  0.3653 -2.8697
  151SAPE  C31116713   0.107  -0.186   5.762  0.0410  0.5406  0.2740
  151SAPE  H11X16714   0.068  -0.084   5.779 -1.6612 -0.1929  0.9568
  151SAPE  H11Y16715   0.028  -0.255   5.798  1.5021 -1.2067  0.2807
  151SAPE  C31216716   0.125  -0.199   5.609  0.1440 -0.0471  0.5778
  151SAPE  H12X16717   0.029  -0.223   5.559  0.8517 -3.0827  0.4869
  151SAPE  H12Y16718   0.177  -0.296   5.598  0.0491  0.0130 -0.5362
  151SAPE  C31316719   0.206  -0.088   5.538 -0.5006 -0.7819  0.0864
  151SAPE  H13X16720   0.271  -0.133   5.459  0.3611  0.8586 -0.1884
  151SAPE  H13Y16721   0.259  -0.028   5.615 -2.5552  0.6798  0.4518
  151SAPE  C31416722   0.120   0.023   5.467  0.2850  0.4061  0.4122
  151SAPE  H14X16723   0.056   0.058   5.551  0.2413 -1.1796  1.0747
  151SAPE  H14Y16724   0.069  -0.032   5.386 -3.9036  0.8888  2.4518
  151SAPE  C31516725   0.203   0.144   5.415  0.3962 -0.3716 -0.5308
  151SAPE  H15X16726   0.235   0.130   5.309 -2.1286  0.9149 -1.5356
  151SAPE  H15Y16727   0.292   0.171   5.476 -1.5667  0.4720  2.1440
  151SAPE  C31616728   0.110   0.266   5.413  0.0645  0.4745  0.2406
  151SAPE  H16X16729   0.077   0.304   5.512  0.7060 -0.2277  0.7278
  151SAPE  H16Y16730   0.009   0.248   5.369 -0.8127  2.1563  1.4073
  151SAPE  C31716731   0.169   0.384   5.334  0.5686 -0.2631  0.5213
  151SAPE  H17X16732   0.171   0.359   5.226  0.2793  0.3995  0.3585
  151SAPE  H17Y16733   0.273   0.403   5.369  1.6285  0.2914 -2.6059
  151SAPE  C31816734   0.091   0.517   5.350  0.2954 -0.2967 -0.6945
  151SAPE  H18X16735   0.126   0.604   5.291 -0.1591  2.5427  2.8786
  151SAPE  H18Y16736   0.104   0.555   5.453 -1.0594  1.2363 -1.0496
  151SAPE  H18Z16737  -0.016   0.497   5.329 -0.3721  1.5557  0.7259
  152SAPE     N16738   3.561   2.566   7.360  0.6517 -0.0058  0.1069
  152SAPE   HN116739   3.591   2.522   7.449  3.1366  1.6580  0.2114
  152SAPE   HN216740   3.458   2.575   7.352  0.0727 -3.5416  1.4802
  152SAPE   HN316741   3.586   2.505   7.280 -0.6939 -0.2331 -0.1610
  152SAPE   C1216742   3.629   2.700   7.348 -0.1744  0.2777  0.6232
  152SAPE  H12A16743   3.605   2.767   7.433  0.8941  1.5181 -0.0079
  152SAPE  H12B16744   3.604   2.757   7.255  0.2342 -0.4961  0.0357
  152SAPE   C1116745   3.780   2.681   7.344  0.1068  0.0924  0.0202
  152SAPE  H11A16746   3.799   2.623   7.250 -1.5771 -3.6559  1.7911
  152SAPE  H11B16747   3.822   2.617   7.424  1.1297  0.2926 -0.3423
  152SAPE     P16748   3.983   2.832   7.271 -0.2264 -0.1713  0.2264
  152SAPE   O1316749   4.018   2.974   7.279  0.0554  0.8301 -0.6367
  152SAPE   O1416750   4.082   2.739   7.334 -0.0625  0.0981 -0.5623
  152SAPE   O1216751   3.845   2.806   7.332  0.3821 -0.3201 -0.3429
  152SAPE   O1116752   3.967   2.799   7.118 -0.3606  0.4451 -0.4609
  152SAPE    C116753   3.902   2.895   7.034 -0.0253  0.0650 -0.5613
  152SAPE    HA16754   3.845   2.968   7.096 -1.3783 -3.7505  3.1499
  152SAPE    HB16755   3.971   2.940   6.959 -0.3589  0.4020 -0.6726
  152SAPE    C216756   3.791   2.814   6.952 -0.1641 -0.1673 -0.7271
  152SAPE    HS16757   3.737   2.760   7.034  0.1314 -0.0833 -0.4737
  152SAPE   O2116758   3.856   2.734   6.856 -0.2942  0.0535 -0.3625
  152SAPE   C2116759   3.784   2.636   6.804  0.4770  0.4202  0.4553
  152SAPE   O2216760   3.684   2.588   6.858  0.0409 -0.2161 -0.2670
  152SAPE   C2216761   3.842   2.590   6.675 -0.0889 -0.2211 -0.0345
  152SAPE   H2R16762   3.856   2.683   6.617 -0.2304  0.1220  0.4790
  152SAPE   H2S16763   3.942   2.543   6.689 -0.1768 -1.3352 -2.6042
  152SAPE    C316764   3.699   2.917   6.882 -0.8115  0.0190 -0.1242
  152SAPE    HX16765   3.766   2.965   6.808 -2.3384  1.1030 -0.8715
  152SAPE    HY16766   3.668   2.986   6.964 -1.4675 -1.0463  0.5416
  152SAPE   O3116767   3.582   2.867   6.812 -0.2941  0.3380 -0.4505
  152SAPE   C3116768   3.470   2.853   6.885 -0.0354 -0.3023  1.0000
  152SAPE   O3216769   3.464   2.871   7.004  0.7214 -0.6803 -0.0631
  152SAPE   C3216770   3.356   2.821   6.792 -0.1714  0.4523  0.2454
  152SAPE   H2X16771   3.308   2.907   6.740  0.0502 -0.8832 -2.3494
  152SAPE   H2Y16772   3.281   2.766   6.853  0.1690  0.9946  1.1757
  152SAPE   C2316773   3.753   2.490   6.583 -0.7258 -0.2718  0.0077
  152SAPE   H3R16774   3.765   2.531   6.480  0.6079  1.3070  0.7334
  152SAPE   H3S16775   3.648   2.483   6.619 -0.5568 -0.8576  0.3796
  152SAPE   C2416776   3.808   2.347   6.580  0.1082  0.7359 -0.2931
  152SAPE   H4R16777   3.884   2.342   6.661 -0.5744  0.3264  0.3263
  152SAPE   H4S16778   3.860   2.345   6.481 -1.0048 -2.7905 -0.9432
  152SAPE   C2516779   3.721   2.219   6.581 -0.2647  0.0400 -0.3458
  152SAPE   H5R16780   3.638   2.223   6.653 -1.0630  1.3751 -1.2935
  152SAPE   C2616781   3.738   2.109   6.502 -0.8214 -0.1038 -0.2141
  152SAPE   H6R16782   3.684   2.016   6.523  1.1198 -0.7081  2.8029
  152SAPE   C2716783   3.832   2.100   6.384 -0.9076 -0.1377 -1.0516
  152SAPE   H7R16784   3.922   2.164   6.397  0.0553 -1.2162 -2.2195
  152SAPE   H7S16785   3.783   2.161   6.306 -0.8614  0.5845 -0.5287
  152SAPE   C2816786   3.853   1.966   6.323  0.4104  0.6218  0.0046
  152SAPE   H8R16787   3.765   1.900   6.325 -0.3552  1.6248 -0.2652
  152SAPE   C2916788   3.963   1.917   6.274 -1.1100  0.2983 -0.0680
  152SAPE   H9R16789   3.961   1.809   6.252  0.8748  0.6231 -2.2528
  152SAPE  C21016790   4.089   2.004   6.258 -0.6953  0.0571 -0.1035
  152SAPE  H10R16791   4.128   2.059   6.346 -1.5347  0.8377 -0.2064
  152SAPE  H10S16792   4.060   2.074   6.177 -2.5685  0.8135  1.1617
  152SAPE  C21116793   4.195   1.912   6.204  0.4965  0.0141  0.2460
  152SAPE  H11R16794   4.259   1.862   6.278  1.9069 -1.2458 -1.7226
  152SAPE  C21216795   4.225   1.872   6.082 -0.0825 -0.1124 -0.1192
  152SAPE  H12R16796   4.310   1.808   6.058  1.8132  2.7611 -1.6389
  152SAPE  C21316797   4.172   1.936   5.955  0.4620  0.7368 -0.1548
  152SAPE  H13R16798   4.250   1.932   5.876  0.8909 -0.1507  0.2923
  152SAPE  H13S16799   4.146   2.040   5.982  0.4635  0.6818  0.0592
  152SAPE  C21416800   4.042   1.865   5.910 -0.1273  0.2166  1.0655
  152SAPE  H14R16801   3.971   1.836   5.989 -1.1786 -1.2833 -0.3688
  152SAPE  C21516802   4.010   1.830   5.776  0.2500  0.2662  0.1065
  152SAPE  H15R16803   3.905   1.803   5.755  0.2737  0.1444  0.1389
  152SAPE  C21616804   4.102   1.856   5.655 -0.0954  0.0932 -0.2574
  152SAPE  H16R16805   4.208   1.854   5.688  0.1919 -0.6528 -1.1892
  152SAPE  H16S16806   4.078   1.949   5.600 -1.6338  1.0229  1.8359
  152SAPE  C21716807   4.109   1.733   5.569 -1.0939  0.4109  0.4172
  152SAPE  H17R16808   4.150   1.652   5.633 -0.3585  0.9814  0.6884
  152SAPE  H17S16809   4.184   1.742   5.488 -1.0615  0.5603  0.4632
  152SAPE  C21816810   3.979   1.683   5.512  0.6097 -0.3054 -0.4840
  152SAPE  H18R16811   3.934   1.773   5.465 -0.5111 -0.4336  0.3214
  152SAPE  H18S16812   3.922   1.645   5.599  1.1025  2.2430  1.0443
  152SAPE  C21916813   4.015   1.583   5.406 -0.3881  0.0574 -0.2181
  152SAPE  H19R16814   4.081   1.512   5.461 -0.4846 -0.0680 -0.2656
  152SAPE  H19S16815   4.080   1.636   5.333 -0.2141  1.1865  0.7258
  152SAPE  C22016816   3.891   1.516   5.342 -0.4540  0.2595 -1.2550
  152SAPE  H20R16817   3.854   1.433   5.406  2.1817 -0.2176 -0.2188
  152SAPE  H20S16818   3.911   1.466   5.244  0.0718 -1.1967 -0.4340
  152SAPE  H20T16819   3.805   1.585   5.334 -1.5913 -1.1470 -1.4530
  152SAPE   C3316820   3.406   2.711   6.692  0.2533  0.3931 -0.1346
  152SAPE   H3X16821   3.460   2.632   6.748  0.4130 -0.0201 -0.8564
  152SAPE   H3Y16822   3.488   2.754   6.630 -0.4461 -0.6738 -1.8795
  152SAPE   C3416823   3.290   2.652   6.605 -0.3039  0.2330  0.2240
  152SAPE   H4X16824   3.250   2.736   6.544 -1.2652 -0.8493 -0.6616
  152SAPE   H4Y16825   3.209   2.631   6.678  1.0869  0.2535  1.8407
  152SAPE   C3516826   3.326   2.530   6.526 -0.0688 -0.1689  0.4411
  152SAPE   H5X16827   3.238   2.480   6.481 -0.3433  0.6319  0.0867
  152SAPE   H5Y16828   3.377   2.452   6.587  1.4645 -0.1283 -0.7280
  152SAPE   C3616829   3.420   2.553   6.405 -0.0061  0.6228 -0.7586
  152SAPE   H6X16830   3.518   2.581   6.449 -0.9369  1.7287  0.7365
  152SAPE   H6Y16831   3.381   2.646   6.358 -3.1314 -0.0689  0.2108
  152SAPE   C3716832   3.453   2.432   6.306  0.2324  0.5042  0.0598
  152SAPE   H7X16833   3.356   2.390   6.270  1.2900 -3.1148  1.0460
  152SAPE   H7Y16834   3.498   2.352   6.368 -0.2981  0.2947  0.1855
  152SAPE   C3816835   3.535   2.460   6.180 -0.1898 -0.0800  0.4131
  152SAPE   H8X16836   3.629   2.511   6.209 -0.4178  1.2572 -1.0455
  152SAPE   H8Y16837   3.471   2.538   6.133  0.4357  0.7273  0.8909
  152SAPE   C3916838   3.549   2.330   6.099  0.5551  0.3761  0.7613
  152SAPE   H9X16839   3.448   2.292   6.073  0.5318  0.4391  0.7601
  152SAPE   H9Y16840   3.606   2.265   6.169  0.7365  0.6663  0.8854
  152SAPE  C31016841   3.629   2.349   5.969 -0.4208 -0.4430 -0.1947
  152SAPE  H10X16842   3.734   2.364   6.003 -0.3586 -1.2744 -0.0137
  152SAPE  H10Y16843   3.607   2.448   5.922  0.1181 -0.5115 -0.6125
  152SAPE  C31116844   3.613   2.233   5.871  0.5371  0.7073  0.5269
  152SAPE  H11X16845   3.513   2.220   5.826  0.2826 -1.3316  1.5773
  152SAPE  H11Y16846   3.631   2.149   5.942  0.5788  0.7298  0.5421
  152SAPE  C31216847   3.733   2.214   5.779 -0.1022  0.7276 -0.1405
  152SAPE  H12X16848   3.818   2.200   5.849  1.4041  1.2346 -1.7641
  152SAPE  H12Y16849   3.756   2.315   5.738 -1.2075  1.1044  0.1404
  152SAPE  C31316850   3.710   2.113   5.674  0.0208  0.3082 -0.0479
  152SAPE  H13X16851   3.599   2.118   5.661 -0.2315  1.3274  2.0690
  152SAPE  H13Y16852   3.735   2.009   5.704 -0.6680  0.1832  0.1201
  152SAPE  C31416853   3.784   2.141   5.548  0.2882  0.5616  0.2107
  152SAPE  H14X16854   3.891   2.114   5.558  0.0429 -1.0859 -1.1840
  152SAPE  H14Y16855   3.773   2.248   5.519  0.9257 -0.1515 -3.1659
  152SAPE  C31516856   3.731   2.056   5.432 -0.0131  0.2168  0.0905
  152SAPE  H15X16857   3.620   2.049   5.441  0.0228 -0.9446 -0.2015
  152SAPE  H15Y16858   3.766   1.952   5.447 -0.5601  0.3189  2.4518
  152SAPE  C31616859   3.781   2.123   5.294  0.1876  0.5467 -0.0883
  152SAPE  H16X16860   3.891   2.134   5.300 -0.0035  4.1709 -0.5316
  152SAPE  H16Y16861   3.747   2.227   5.273 -1.0489 -0.1864 -2.0230
  152SAPE  C31716862   3.726   2.045   5.170  0.5947  0.9250  0.7243
  152SAPE  H17X16863   3.617   2.064   5.171  0.3093 -0.5744  0.9472
  152SAPE  H17Y16864   3.741   1.936   5.187 -1.3838  0.4061 -0.5880
  152SAPE  C31816865   3.786   2.064   5.030  0.0223  0.3284 -0.5125
  152SAPE  H18X16866   3.802   2.170   5.003 -1.9103  0.7778 -0.0374
  152SAPE  H18Y16867   3.718   2.016   4.956  0.2975  1.0113 -1.2099
  152SAPE  H18Z16868   3.882   2.008   5.031  0.0444  0.3709  0.5910
  153SAPE     N16869   0.390   5.881   7.525  0.6783 -0.0121 -0.6877
  153SAPE   HN116870   0.470   5.853   7.585 -0.2810  0.7009  0.9820
  153SAPE   HN216871   0.307   5.903   7.583  1.5101  0.2006  0.4588
  153SAPE   HN316872   0.366   5.805   7.457 -1.2485  0.7246 -0.8902
  153SAPE   C1216873   0.428   5.998   7.444  0.5024  0.1590 -0.0219
  153SAPE  H12A16874   0.485   6.071   7.505  1.5793 -0.6341 -0.0351
  153SAPE  H12B16875   0.338   6.045   7.400 -1.4527 -1.0621  2.4342
  153SAPE   C1116876   0.525   5.958   7.329  0.0036 -0.5515 -0.7578
  153SAPE  H11A16877   0.552   6.056   7.283  1.3353 -0.0246  1.0031
  153SAPE  H11B16878   0.471   5.902   7.251  0.8493 -0.2099 -1.6085
  153SAPE     P16879   0.706   5.791   7.272 -0.2084 -0.0656  0.5566
  153SAPE   O1316880   0.854   5.791   7.286  0.6591 -0.2498 -0.2085
  153SAPE   O1416881   0.638   5.660   7.283 -0.0738  0.7353 -0.1667
  153SAPE   O1216882   0.640   5.890   7.374  0.0410 -0.7158 -0.0210
  153SAPE   O1116883   0.666   5.860   7.127  0.1864  0.5309 -0.1592
  153SAPE    C116884   0.732   5.979   7.092 -0.8341  0.1123  1.0599
  153SAPE    HA16885   0.698   6.065   7.154 -0.1119  0.9643  0.2972
  153SAPE    HB16886   0.842   5.969   7.107 -0.5253  0.6315 -0.6060
  153SAPE    C216887   0.721   6.015   6.944  0.3318 -0.4660  0.0730
  153SAPE    HS16888   0.762   6.116   6.924 -0.9909 -0.0975 -0.9377
  153SAPE   O2116889   0.586   6.023   6.897  0.4675 -0.2234  0.0665
  153SAPE   C2116890   0.503   6.097   6.961  0.5839  0.2560 -0.8018
  153SAPE   O2216891   0.512   6.160   7.065 -0.5251 -0.2529 -0.1737
  153SAPE   C2216892   0.379   6.096   6.872 -0.3304  0.0522  0.0972
  153SAPE   H2R16893   0.413   6.105   6.766 -0.2831 -2.6760 -0.1713
  153SAPE   H2S16894   0.312   6.011   6.894 -2.6450  1.8602  0.3470
  153SAPE    C316895   0.805   5.921   6.859 -0.4970 -0.0381 -0.4947
  153SAPE    HX16896   0.767   5.823   6.895  3.0836 -0.7125  2.0860
  153SAPE    HY16897   0.911   5.940   6.886 -0.4509 -1.0661  0.1059
  153SAPE   O3116898   0.788   5.945   6.717 -0.0136 -0.3881 -0.2152
  153SAPE   C3116899   0.681   5.897   6.655  0.0669 -0.0150  0.1330
  153SAPE   O3216900   0.604   5.811   6.702  1.0314 -0.1928 -0.0175
  153SAPE   C3216901   0.667   5.960   6.518 -0.3363  0.3348  0.1326
  153SAPE   H2X16902   0.720   5.892   6.448  0.1441 -0.8641  1.6007
  153SAPE   H2Y16903   0.730   6.049   6.536 -0.3020  0.2461  0.4521
  153SAPE   C2316904   0.285   6.216   6.902  0.0351 -0.2548  0.0226
  153SAPE   H3R16905   0.352   6.302   6.880  0.3931 -0.6752 -0.5554
  153SAPE   H3S16906   0.259   6.221   7.010 -0.3671 -0.8069 -0.0455
  153SAPE   C2416907   0.152   6.223   6.824 -0.1315 -0.2450 -0.3137
  153SAPE   H4R16908   0.094   6.309   6.864  0.6781 -0.7610  2.1601
  153SAPE   H4S16909   0.100   6.127   6.844 -0.2085 -0.3762 -1.1262
  153SAPE   C2516910   0.172   6.224   6.670 -1.0088 -0.9278 -0.0577
  153SAPE   H5R16911   0.270   6.236   6.621 -2.6090  1.3323 -3.0888
  153SAPE   C2616912   0.064   6.201   6.593  0.2782 -0.6336  0.2634
  153SAPE   H6R16913   0.063   6.214   6.484 -2.2237 -0.5561  0.2529
  153SAPE   C2716914  -0.073   6.177   6.648  0.2691  0.0463  0.0249
  153SAPE   H7R16915  -0.074   6.157   6.757  1.4447 -2.4418 -0.3511
  153SAPE   H7S16916  -0.106   6.076   6.617  2.1182 -0.4844 -0.3480
  153SAPE   C2816917  -0.178   6.269   6.604 -0.7766 -0.2614  0.0369
  153SAPE   H8R16918  -0.223   6.321   6.690 -1.2534  0.0052 -0.3677
  153SAPE   C2916919  -0.233   6.292   6.479  0.0181 -0.4860  0.6029
  153SAPE   H9R16920  -0.308   6.372   6.484  1.1189  0.5219  1.5572
  153SAPE  C21016921  -0.197   6.230   6.345  0.4897  0.1659  0.1246
  153SAPE  H10R16922  -0.109   6.163   6.360  0.7797  0.6402  0.5908
  153SAPE  H10S16923  -0.166   6.306   6.270  0.0856  1.7128  1.4702
  153SAPE  C21116924  -0.320   6.158   6.293  0.0278  0.1319 -0.3519
  153SAPE  H11R16925  -0.379   6.109   6.372  1.8253 -1.7581 -0.1035
  153SAPE  C21216926  -0.370   6.155   6.166 -0.2018  0.2116  0.9767
  153SAPE  H12R16927  -0.460   6.097   6.139 -0.2958  2.0761 -3.7680
  153SAPE  C21316928  -0.300   6.210   6.039 -0.4354 -0.3313  0.2979
  153SAPE  H13R16929  -0.189   6.222   6.043 -0.6085  2.9620 -1.1748
  153SAPE  H13S16930  -0.328   6.317   6.026  0.0264 -0.3399 -0.8955
  153SAPE  C21416931  -0.341   6.122   5.924  0.0400  0.3852  0.2171
  153SAPE  H14R16932  -0.369   6.022   5.959 -0.5333 -0.2854 -1.9981
  153SAPE  C21516933  -0.333   6.144   5.790  0.2231  0.3363 -0.3864
  153SAPE  H15R16934  -0.365   6.058   5.730 -0.0055  0.8683 -1.0387
  153SAPE  C21616935  -0.297   6.269   5.728 -0.4100 -0.3623 -0.6193
  153SAPE  H16R16936  -0.255   6.347   5.796 -0.9973  1.1476 -1.9131
  153SAPE  H16S16937  -0.392   6.313   5.691  0.4228  1.4714 -0.7152
  153SAPE  C21716938  -0.209   6.268   5.602  0.1983  0.2701 -0.3030
  153SAPE  H17R16939  -0.119   6.214   5.639 -1.3154 -0.9836  1.7707
  153SAPE  H17S16940  -0.179   6.368   5.563 -0.9584  1.2177  1.1444
  153SAPE  C21816941  -0.277   6.192   5.482 -0.5827  0.5525  0.1560
  153SAPE  H18R16942  -0.374   6.235   5.451 -1.2138  0.2580  1.6438
  153SAPE  H18S16943  -0.291   6.088   5.520  0.6793 -1.1253 -3.4913
  153SAPE  C21916944  -0.189   6.185   5.352  0.4347 -0.3286 -0.4468
  153SAPE  H19R16945  -0.078   6.182   5.358  0.4790  0.7995 -0.4052
  153SAPE  H19S16946  -0.216   6.276   5.294  0.4971 -0.4162 -0.6149
  153SAPE  C22016947  -0.217   6.058   5.271 -0.3028 -0.4364 -0.0271
  153SAPE  H20R16948  -0.169   5.960   5.294 -2.8505 -1.1970  2.5160
  153SAPE  H20S16949  -0.179   6.078   5.168  0.4094  0.1667  0.3464
  153SAPE  H20T16950  -0.323   6.027   5.263 -0.6408  0.3834  1.0632
  153SAPE   C3316951   0.533   5.996   6.470 -0.4030 -0.0751 -0.6212
  153SAPE   H3X16952   0.482   6.046   6.555  2.9751 -1.2851  2.3453
  153SAPE   H3Y16953   0.478   5.900   6.459  0.1755 -0.5349  0.3872
  153SAPE   C3416954   0.522   6.071   6.335 -0.2411  0.2706  0.2101
  153SAPE   H4X16955   0.585   6.019   6.259 -0.0939  1.0764 -0.2340
  153SAPE   H4Y16956   0.547   6.179   6.337 -0.6165  0.5495 -3.3504
  153SAPE   C3516957   0.381   6.054   6.290 -0.6807  0.2017  0.0926
  153SAPE   H5X16958   0.321   6.069   6.382  2.0308  1.3186  1.8051
  153SAPE   H5Y16959   0.366   5.949   6.257  1.7560  0.4053 -2.0147
  153SAPE   C3616960   0.338   6.143   6.170 -0.5779  0.4879 -0.4278
  153SAPE   H6X16961   0.340   6.252   6.194  0.2110  0.1663  1.1161
  153SAPE   H6Y16962   0.230   6.121   6.159 -0.3162 -2.4355  1.6293
  153SAPE   C3716963   0.414   6.133   6.035  0.3435  0.2014 -0.2305
  153SAPE   H7X16964   0.425   6.026   6.008  0.7196 -0.6856  3.0595
  153SAPE   H7Y16965   0.510   6.187   6.046 -0.3054  0.9379  2.1979
  153SAPE   C3816966   0.339   6.208   5.921  0.5761 -0.3192 -0.0126
  153SAPE   H8X16967   0.313   6.313   5.949 -0.4736 -0.6443  0.2968
  153SAPE   H8Y16968   0.248   6.149   5.899  2.0406 -1.3082 -4.4864
  153SAPE   C3916969   0.416   6.208   5.791 -0.0586 -0.1480  0.2106
  153SAPE   H9X16970   0.455   6.105   5.775  1.0424  0.2370  0.3452
  153SAPE   H9Y16971   0.507   6.272   5.795 -0.3142  0.1954  0.5248
  153SAPE  C31016972   0.327   6.252   5.672  0.2282  0.1614 -0.6237
  153SAPE  H10X16973   0.303   6.360   5.682  2.3439  0.4908  2.2224
  153SAPE  H10Y16974   0.233   6.192   5.665 -0.5172  1.2135  0.0096
  153SAPE  C31116975   0.394   6.229   5.536  0.3236 -0.0754  0.5333
  153SAPE  H11X16976   0.411   6.120   5.521  0.2907 -0.1481  1.0120
  153SAPE  H11Y16977   0.488   6.287   5.529  1.4221 -1.7402  1.0882
  153SAPE  C31216978   0.303   6.277   5.424  0.9447 -0.2180  0.0800
  153SAPE  H12X16979   0.260   6.372   5.462  0.0825 -0.0207 -1.3264
  153SAPE  H12Y16980   0.213   6.212   5.418  0.5618  0.4096 -1.2305
  153SAPE  C31316981   0.368   6.299   5.290  0.5266  0.1977 -0.8014
  153SAPE  H13X16982   0.420   6.203   5.266 -0.9454 -0.3613 -1.9742
  153SAPE  H13Y16983   0.447   6.376   5.288 -0.2354  1.0328  0.2316
  153SAPE  C31416984   0.273   6.339   5.174  0.7101  0.1524  0.1374
  153SAPE  H14X16985   0.181   6.276   5.178 -1.2069  2.7934 -0.1317
  153SAPE  H14Y16986   0.333   6.327   5.081 -1.6845  1.9719 -1.7620
  153SAPE  C31516987   0.214   6.479   5.188  0.0962 -0.4230 -0.0903
  153SAPE  H15X16988   0.298   6.552   5.193 -1.0245  0.9957 -1.0699
  153SAPE  H15Y16989   0.153   6.485   5.281 -1.7279  1.6877 -1.3147
  153SAPE  C31616990   0.120   6.519   5.074  0.3350 -0.3578 -0.0812
  153SAPE  H16X16991   0.036   6.447   5.079 -0.6510  0.7444 -0.2887
  153SAPE  H16Y16992   0.170   6.505   4.976  0.8305  0.0874  0.1059
  153SAPE  C31716993   0.072   6.664   5.072  0.1371 -0.6557  0.2780
  153SAPE  H17X16994   0.158   6.728   5.102 -1.2968  0.9593  1.1222
  153SAPE  H17Y16995  -0.006   6.677   5.150  1.8820 -0.4769  2.0818
  153SAPE  C31816996   0.027   6.720   4.938  0.5006  0.2747 -0.3214
  153SAPE  H18X16997  -0.012   6.822   4.958  1.5366  0.5250  0.4882
  153SAPE  H18Y16998  -0.060   6.663   4.898 -1.1666  1.1092  1.9085
  153SAPE  H18Z16999   0.111   6.721   4.865 -0.3603 -0.0362 -1.3455
  154SAPE     N17000   0.589   1.031   7.303 -0.1166  0.4992 -0.1999
  154SAPE   HN117001   0.587   0.939   7.351  2.7253  1.6083  2.3666
  154SAPE   HN217002   0.660   1.090   7.352  0.4682  1.7788 -2.4437
  154SAPE   HN317003   0.498   1.081   7.312 -0.0847  0.2304  2.1007
  154SAPE   C1217004   0.627   1.033   7.157  0.4961 -0.1099 -0.3072
  154SAPE  H12A17005   0.532   1.020   7.102 -0.4086 -0.6775  1.3192
  154SAPE  H12B17006   0.704   0.955   7.138 -1.7557 -2.6616  0.4930
  154SAPE   C1117007   0.682   1.166   7.103 -0.0565 -0.3427 -0.3605
  154SAPE  H11A17008   0.714   1.152   6.997 -0.9705 -1.1896 -0.5434
  154SAPE  H11B17009   0.778   1.203   7.146 -0.1436 -0.1633 -0.3181
  154SAPE     P17010   0.601   1.425   7.108 -0.0502 -0.0151 -0.2687
  154SAPE   O1317011   0.481   1.483   7.169 -0.3219 -0.5063  0.4666
  154SAPE   O1417012   0.730   1.467   7.165 -0.2770 -0.7506  0.3086
  154SAPE   O1217013   0.578   1.265   7.115 -0.1248 -0.2639 -0.4712
  154SAPE   O1117014   0.609   1.449   6.957  0.0647 -0.1403 -0.3477
  154SAPE    C117015   0.484   1.438   6.886  0.5040  0.0283  0.3795
  154SAPE    HA17016   0.428   1.347   6.914 -3.0299  1.6796 -0.7352
  154SAPE    HB17017   0.422   1.530   6.892 -0.4099 -0.5755  0.4048
  154SAPE    C217018   0.511   1.401   6.728  0.3882  0.7755  0.6236
  154SAPE    HS17019   0.575   1.310   6.727  1.0278  1.2206  0.7357
  154SAPE   O2117020   0.587   1.507   6.670 -0.1647  0.3116 -0.2379
  154SAPE   C2117021   0.719   1.510   6.690 -0.2417 -0.0810  0.4367
  154SAPE   O2217022   0.780   1.421   6.743  0.6029  0.0745  0.1639
  154SAPE   C2217023   0.785   1.627   6.611  1.1574 -0.1148  0.9830
  154SAPE   H2R17024   0.702   1.663   6.546  1.3616 -1.7630 -0.2909
  154SAPE   H2S17025   0.805   1.705   6.687 -0.5697 -0.0418  1.4118
  154SAPE    C317026   0.381   1.372   6.651  0.6649 -0.1256 -0.1989
  154SAPE    HX17027   0.321   1.465   6.659 -0.0615 -0.6455  0.5136
  154SAPE    HY17028   0.320   1.290   6.694 -0.2657 -0.5902 -2.2603
  154SAPE   O3117029   0.403   1.356   6.510  0.7270  0.0257 -0.3741
  154SAPE   C3117030   0.443   1.237   6.480  0.7013 -0.7806  0.1834
  154SAPE   O3217031   0.460   1.138   6.550 -0.7299 -0.1768 -0.0958
  154SAPE   C3217032   0.460   1.229   6.327  0.4237  0.0782  0.2255
  154SAPE   H2X17033   0.387   1.153   6.291  0.0177  0.4000  0.3556
  154SAPE   H2Y17034   0.565   1.194   6.320  0.6022  0.4264  0.9901
  154SAPE   C2317035   0.900   1.578   6.519  0.6267  1.0786 -0.6126
  154SAPE   H3R17036   0.861   1.505   6.445 -0.6074  1.5004 -0.4120
  154SAPE   H3S17037   0.967   1.525   6.590 -1.1230  0.3076  0.5518
  154SAPE   C2417038   0.980   1.698   6.459  0.2965 -0.3050 -0.3241
  154SAPE   H4R17039   1.064   1.650   6.405  1.4618  0.4368  0.7741
  154SAPE   H4S17040   1.020   1.738   6.555  0.5114 -0.4388 -0.3570
  154SAPE   C2517041   0.901   1.798   6.371 -0.5373 -0.3467  0.0294
  154SAPE   H5R17042   0.848   1.874   6.431 -0.1981 -1.7196  2.1627
  154SAPE   C2617043   0.896   1.809   6.239 -0.2963  0.1159 -0.1592
  154SAPE   H6R17044   0.831   1.884   6.192  1.5160  2.0281  0.2414
  154SAPE   C2717045   0.968   1.717   6.147 -0.0917 -0.1540 -0.3459
  154SAPE   H7R17046   1.054   1.668   6.197 -1.4288  1.0363  3.4231
  154SAPE   H7S17047   1.010   1.770   6.058 -0.7354  0.2693 -0.4125
  154SAPE   C2817048   0.873   1.616   6.097  0.4083 -0.1681 -0.5363
  154SAPE   H8R17049   0.824   1.553   6.172  0.7856  1.7979  1.4826
  154SAPE   C2917050   0.857   1.585   5.970  0.0244  0.4113  0.1643
  154SAPE   H9R17051   0.790   1.504   5.937  1.7904  0.6193 -4.8063
  154SAPE  C21017052   0.915   1.664   5.853  0.2069 -0.0735 -0.2903
  154SAPE  H10R17053   1.023   1.646   5.834  0.2373 -0.3757  0.1697
  154SAPE  H10S17054   0.892   1.771   5.874  3.6697  0.1910  3.2964
  154SAPE  C21117055   0.852   1.630   5.719 -0.3359  0.1098 -0.3273
  154SAPE  H11R17056   0.762   1.566   5.724 -0.6435  0.5305 -0.3398
  154SAPE  C21217057   0.898   1.664   5.596  0.4945 -0.1441 -0.0905
  154SAPE  H12R17058   0.841   1.627   5.509 -1.6357 -0.7313  1.4664
  154SAPE  C21317059   1.015   1.750   5.566 -0.0127 -0.5118  0.2299
  154SAPE  H13R17060   1.059   1.798   5.656  2.5643  0.2900 -1.3825
  154SAPE  H13S17061   0.979   1.823   5.490  1.0935 -2.0088 -1.8259
  154SAPE  C21417062   1.127   1.677   5.505  0.6400  0.3899  0.6931
  154SAPE  H14R17063   1.181   1.612   5.576 -1.3819 -1.4152  0.6709
  154SAPE  C21517064   1.151   1.672   5.377 -0.3434  0.7928 -0.0173
  154SAPE  H15R17065   1.229   1.601   5.345  1.5282  0.8814  3.7677
  154SAPE  C21617066   1.085   1.739   5.257  0.1045 -0.0994  0.3198
  154SAPE  H16R17067   1.157   1.803   5.201 -0.2055  1.4489  1.6183
  154SAPE  H16S17068   0.999   1.804   5.283  0.4434  0.4376  0.1396
  154SAPE  C21717069   1.039   1.636   5.153 -0.2009  0.8928 -0.4906
  154SAPE  H17R17070   1.126   1.568   5.140 -1.0142 -0.7516  1.8876
  154SAPE  H17S17071   1.027   1.688   5.055 -1.7446  0.6389 -0.4727
  154SAPE  C21817072   0.910   1.559   5.190  0.1536 -0.1350  0.4265
  154SAPE  H18R17073   0.903   1.555   5.301  1.9975  0.3043  0.5908
  154SAPE  H18S17074   0.924   1.455   5.154  2.0228  0.7962 -1.7639
  154SAPE  C21917075   0.782   1.639   5.145  0.5867  0.4533 -0.0915
  154SAPE  H19R17076   0.786   1.747   5.168 -1.4667  1.3350 -3.2979
  154SAPE  H19S17077   0.696   1.594   5.200  0.6949 -0.8776 -0.9736
  154SAPE  C22017078   0.754   1.625   4.993 -0.1374  0.8018  0.2650
  154SAPE  H20R17079   0.652   1.645   4.956 -0.0193 -1.1507 -1.2924
  154SAPE  H20S17080   0.791   1.525   4.962 -1.2212  0.5167 -0.1480
  154SAPE  H20T17081   0.816   1.695   4.934  1.5684 -0.6695  0.2144
  154SAPE   C3317082   0.452   1.366   6.248  0.1091  0.8966  0.4605
  154SAPE   H3X17083   0.501   1.443   6.311  1.4005 -0.1102  0.7407
  154SAPE   H3Y17084   0.345   1.398   6.242 -0.0684  0.4058  0.9091
  154SAPE   C3417085   0.520   1.365   6.112 -0.2943  0.3817 -0.4777
  154SAPE   H4X17086   0.607   1.297   6.112  0.1802  0.7416  3.3302
  154SAPE   H4Y17087   0.549   1.469   6.086  0.5783  0.2454 -0.0746
  154SAPE   C3517088   0.421   1.325   5.999 -0.6427 -0.0459 -0.2219
  154SAPE   H5X17089   0.347   1.407   5.984  0.2909  0.6502 -1.1765
  154SAPE   H5Y17090   0.364   1.235   6.032 -0.9712 -0.1613 -1.0911
  154SAPE   C3617091   0.477   1.314   5.861 -0.1008 -0.1540  0.3186
  154SAPE   H6X17092   0.405   1.264   5.792  0.0488 -0.4371  0.3651
  154SAPE   H6Y17093   0.566   1.248   5.849  0.2705  0.7554 -2.9624
  154SAPE   C3717094   0.510   1.443   5.785  0.0051  0.5248  0.2868
  154SAPE   H7X17095   0.592   1.486   5.848  0.6994 -0.5160  0.1165
  154SAPE   H7Y17096   0.422   1.510   5.781  0.5139  1.3184  1.6476
  154SAPE   C3817097   0.566   1.417   5.644  0.3837  0.0780  0.1149
  154SAPE   H8X17098   0.664   1.365   5.641  1.6914  2.4473 -1.1105
  154SAPE   H8Y17099   0.580   1.516   5.597  3.3509 -1.2511 -2.1194
  154SAPE   C3917100   0.460   1.359   5.541 -0.8492  0.2029 -0.8994
  154SAPE   H9X17101   0.370   1.400   5.592 -0.2756  0.8628 -0.3983
  154SAPE   H9Y17102   0.474   1.249   5.543  1.0399  0.3397 -3.0780
  154SAPE  C31017103   0.475   1.414   5.392  0.1339 -0.0563 -0.4732
  154SAPE  H10X17104   0.576   1.412   5.346 -0.6414  0.2173 -2.2533
  154SAPE  H10Y17105   0.450   1.522   5.390  0.2503  0.0023  0.4517
  154SAPE  C31117106   0.378   1.339   5.297  0.0252 -0.0031 -1.3118
  154SAPE  H11X17107   0.274   1.362   5.331  0.0546  0.5254 -1.5702
  154SAPE  H11Y17108   0.382   1.229   5.304 -0.6582 -0.0081 -0.8509
  154SAPE  C31217109   0.388   1.397   5.156  1.1643  0.4676  0.0717
  154SAPE  H12X17110   0.376   1.508   5.148  0.2349  0.4366  0.8986
  154SAPE  H12Y17111   0.298   1.359   5.102 -0.7449  1.4118  2.3936
  154SAPE  C31317112   0.503   1.353   5.076 -0.2749  0.2249  0.1590
  154SAPE  H13X17113   0.528   1.249   5.104 -1.9537 -0.1933  0.2458
  154SAPE  H13Y17114   0.590   1.418   5.098 -0.3183  0.5827 -0.6595
  154SAPE  C31417115   0.479   1.349   4.927 -0.2742  0.0536 -0.1401
  154SAPE  H14X17116   0.452   1.455   4.907 -1.3620 -0.4882 -1.7123
  154SAPE  H14Y17117   0.390   1.284   4.911  1.0198 -1.7780 -0.2518
  154SAPE  C31517118   0.602   1.308   4.840  0.4804 -0.1159  0.5627
  154SAPE  H15X17119   0.680   1.386   4.856  1.7082 -1.3128  0.6476
  154SAPE  H15Y17120   0.580   1.297   4.732 -1.1503 -2.1213  1.0251
  154SAPE  C31617121   0.675   1.175   4.889  0.9043 -0.1399  0.3967
  154SAPE  H16X17122   0.589   1.127   4.940  0.3284  0.0548 -0.3728
  154SAPE  H16Y17123   0.746   1.221   4.961 -1.7587  1.4717  2.1855
  154SAPE  C31717124   0.746   1.092   4.779  0.0268 -0.2208 -0.2290
  154SAPE  H17X17125   0.842   1.143   4.758  0.1674  1.6202  3.8738
  154SAPE  H17Y17126   0.697   1.088   4.679 -2.4563 -1.4754  0.9435
  154SAPE  C31817127   0.776   0.944   4.836  0.1557 -0.9640 -0.6686
  154SAPE  H18X17128   0.819   0.880   4.756  1.3457 -2.9576  1.4080
  154SAPE  H18Y17129   0.686   0.902   4.886  0.6321  0.7387  1.7986
  154SAPE  H18Z17130   0.858   0.938   4.911 -1.5356  1.3736  1.5344
  155SAPE     N17131   1.650   6.832   7.588 -0.2118  0.5468 -0.6295
  155SAPE   HN117132   1.598   6.769   7.652  1.8557  1.1029  1.7664
  155SAPE   HN217133   1.704   6.764   7.531 -0.9809 -1.3682  0.8040
  155SAPE   HN317134   1.710   6.896   7.644  0.9864  0.1295 -1.3961
  155SAPE   C1217135   1.557   6.910   7.502 -0.0464 -0.8296  0.0599
  155SAPE  H12A17136   1.608   6.916   7.403 -0.4109 -3.0229 -0.3037
  155SAPE  H12B17137   1.535   7.012   7.538 -3.7415 -1.1013 -1.0109
  155SAPE   C1117138   1.435   6.830   7.468  0.0086  0.2840  1.0292
  155SAPE  H11A17139   1.459   6.740   7.408  1.4765  0.8620  0.7072
  155SAPE  H11B17140   1.377   6.890   7.395 -1.8011  0.9657  2.9190
  155SAPE     P17141   1.260   6.885   7.673  0.2704  0.2724  0.0339
  155SAPE   O1317142   1.204   6.790   7.774 -0.1995 -0.1802  0.0306
  155SAPE   O1417143   1.333   7.005   7.719  0.7277  0.4999  0.5037
  155SAPE   O1217144   1.358   6.798   7.583 -0.3485 -0.1648 -0.2031
  155SAPE   O1117145   1.155   6.926   7.565 -0.3221  0.1037  0.3138
  155SAPE    C117146   1.030   6.862   7.541  0.3418 -0.2189 -0.1799
  155SAPE    HA17147   0.985   6.834   7.639  0.9924  2.2228  0.8853
  155SAPE    HB17148   0.961   6.932   7.491 -2.7765 -1.0347  2.6044
  155SAPE    C217149   1.047   6.738   7.444 -0.1669 -0.0509  0.5150
  155SAPE    HS17150   1.113   6.655   7.476 -0.0742 -0.1186  0.1494
  155SAPE   O2117151   1.087   6.790   7.312  0.3132  0.2821  0.6533
  155SAPE   C2117152   1.182   6.721   7.247 -0.4191  0.6068  0.0909
  155SAPE   O2217153   1.244   6.624   7.287  0.2801  0.1800 -0.9245
  155SAPE   C2217154   1.216   6.780   7.110  0.0139 -0.0635  0.5317
  155SAPE   H2R17155   1.193   6.889   7.111  2.6389  0.5494  0.1727
  155SAPE   H2S17156   1.325   6.771   7.095  0.0257 -0.6514  0.9456
  155SAPE    C317157   0.910   6.668   7.429  0.2810  0.3521  0.2211
  155SAPE    HX17158   0.834   6.741   7.395 -1.3689 -0.8970  1.0559
  155SAPE    HY17159   0.863   6.626   7.520 -0.4528  0.2143 -0.2114
  155SAPE   O3117160   0.898   6.569   7.319 -0.1369  0.3898  0.5429
  155SAPE   C3117161   0.950   6.445   7.354  0.6063 -0.3053 -0.2444
  155SAPE   O3217162   1.016   6.416   7.448  0.7285 -0.3342 -0.6580
  155SAPE   C3217163   0.875   6.344   7.267 -0.2758  0.0434 -0.0251
  155SAPE   H2X17164   0.817   6.395   7.187  3.3865  0.5139 -2.6725
  155SAPE   H2Y17165   0.824   6.284   7.345 -1.0594  1.8747  0.9017
  155SAPE   C2317166   1.141   6.715   6.991 -0.4089 -0.6642  0.3551
  155SAPE   H3R17167   1.033   6.701   7.010 -0.5849 -0.5124 -0.4939
  155SAPE   H3S17168   1.189   6.615   6.980 -0.0502 -0.3199 -1.4936
  155SAPE   C2417169   1.131   6.791   6.859  0.5786 -0.8126  0.2294
  155SAPE   H4R17170   1.065   6.881   6.864  0.0489 -1.0766 -1.4236
  155SAPE   H4S17171   1.075   6.725   6.789  0.7175  0.8291 -1.5252
  155SAPE   C2517172   1.267   6.834   6.809 -0.0843  0.3551 -0.2707
  155SAPE   H5R17173   1.309   6.929   6.846 -1.8211  0.9561  0.2411
  155SAPE   C2617174   1.322   6.768   6.708 -0.0292  0.4255  0.2105
  155SAPE   H6R17175   1.415   6.805   6.662 -1.3068  0.7965 -2.2798
  155SAPE   C2717176   1.279   6.647   6.633  0.4417  0.4271  0.2871
  155SAPE   H7R17177   1.224   6.674   6.540 -1.4840 -2.5363  0.4308
  155SAPE   H7S17178   1.209   6.587   6.695  0.2186  0.3706 -0.0142
  155SAPE   C2817179   1.392   6.554   6.612  0.0892  0.5820  0.5264
  155SAPE   H8R17180   1.450   6.538   6.704  0.6624 -2.0176 -0.2213
  155SAPE   C2917181   1.396   6.466   6.514  0.2019  1.2989  0.1131
  155SAPE   H9R17182   1.489   6.407   6.506  0.5698  1.8393  0.3144
  155SAPE  C21017183   1.306   6.451   6.390 -0.2191  0.4585  0.0073
  155SAPE  H10R17184   1.201   6.455   6.425 -0.4450 -0.6254 -0.5185
  155SAPE  H10S17185   1.332   6.352   6.346  0.9561  0.7855 -0.0756
  155SAPE  C21117186   1.327   6.552   6.286 -0.2633 -0.4729  0.1621
  155SAPE  H11R17187   1.397   6.631   6.318 -0.7108 -0.6158  1.5580
  155SAPE  C21217188   1.262   6.570   6.170 -0.4606 -0.4471 -0.1835
  155SAPE  H12R17189   1.289   6.656   6.107  4.7683 -0.4853  1.5527
  155SAPE  C21317190   1.148   6.480   6.119  0.2246 -0.5339 -0.0239
  155SAPE  H13R17191   1.051   6.504   6.169  1.2685  1.6568  1.0947
  155SAPE  H13S17192   1.156   6.373   6.147  0.7311 -0.6878 -0.7238
  155SAPE  C21417193   1.130   6.499   5.972 -0.3958 -0.3831 -0.4618
  155SAPE  H14R17194   1.081   6.595   5.947 -0.8628  0.3334  2.8029
  155SAPE  C21517195   1.158   6.410   5.876 -0.1394  0.0578 -0.0787
  155SAPE  H15R17196   1.147   6.445   5.772 -1.9784  3.0356  0.9829
  155SAPE  C21617197   1.223   6.278   5.894  0.0348 -0.3966 -0.1577
  155SAPE  H16R17198   1.212   6.227   5.991 -0.2387 -0.1930 -0.0791
  155SAPE  H16S17199   1.331   6.301   5.884  0.9314 -1.9803  4.0483
  155SAPE  C21717200   1.180   6.176   5.786 -0.1322 -0.2221  0.2597
  155SAPE  H17R17201   1.076   6.152   5.817  0.4896 -0.1226  2.5856
  155SAPE  H17S17202   1.236   6.081   5.799  0.7190  0.1556 -0.5870
  155SAPE  C21817203   1.211   6.215   5.645  0.1897 -0.3410  0.6816
  155SAPE  H18R17204   1.319   6.240   5.642 -0.0259  0.6230  0.4798
  155SAPE  H18S17205   1.149   6.303   5.616  0.8482 -0.1281 -0.1136
  155SAPE  C21917206   1.190   6.107   5.539 -0.6571  0.1466 -0.0293
  155SAPE  H19R17207   1.084   6.073   5.544 -1.1216  1.6526  1.2799
  155SAPE  H19S17208   1.262   6.025   5.557  0.8190  0.7727 -2.6871
  155SAPE  C22017209   1.226   6.158   5.400  0.1422 -0.8899  0.6970
  155SAPE  H20R17210   1.323   6.212   5.394  0.1828 -0.9908  0.4173
  155SAPE  H20S17211   1.139   6.222   5.371  0.6158  0.6025  2.3551
  155SAPE  H20T17212   1.232   6.078   5.323  1.4095  1.2976 -1.5977
  155SAPE   C3317213   0.978   6.248   7.187 -0.4373 -0.7349  0.3888
  155SAPE   H3X17214   0.938   6.157   7.137 -0.4493 -1.5391  1.8130
  155SAPE   H3Y17215   1.052   6.217   7.264 -0.6979 -0.4310  0.7581
  155SAPE   C3417216   1.053   6.339   7.085 -0.8967  0.1281 -0.3170
  155SAPE   H4X17217   1.107   6.418   7.142  1.7758 -2.1750  0.5711
  155SAPE   H4Y17218   0.975   6.390   7.024 -1.6389  1.6844  1.8494
  155SAPE   C3517219   1.156   6.275   6.997 -0.6684 -0.1263  0.1027
  155SAPE   H5X17220   1.223   6.202   7.047 -0.2182 -0.0193 -0.3214
  155SAPE   H5Y17221   1.220   6.363   6.973  0.0320 -0.6146  0.1270
  155SAPE   C3617222   1.099   6.213   6.870 -0.0797 -0.3197 -0.1407
  155SAPE   H6X17223   1.027   6.137   6.908 -1.9365  2.2418  1.8852
  155SAPE   H6Y17224   1.186   6.164   6.822  0.5208  3.1052 -2.9216
  155SAPE   C3717225   1.032   6.309   6.773 -0.1742 -0.9354  0.4401
  155SAPE   H7X17226   1.104   6.388   6.744  0.4742 -2.0699 -1.1929
  155SAPE   H7Y17227   0.944   6.360   6.818  1.2467  0.8113  1.3894
  155SAPE   C3817228   0.979   6.242   6.646  0.1934  0.3125 -1.0365
  155SAPE   H8X17229   0.896   6.173   6.670  0.0865  1.5501  2.8615
  155SAPE   H8Y17230   1.054   6.175   6.598 -0.7441 -0.9435 -0.7779
  155SAPE   C3917231   0.926   6.333   6.539 -0.1817 -0.7084  0.0291
  155SAPE   H9X17232   0.999   6.414   6.517 -2.4439  1.4452  0.1694
  155SAPE   H9Y17233   0.826   6.371   6.568  0.3669  1.4331 -0.7557
  155SAPE  C31017234   0.910   6.261   6.400  0.0528  0.1787  0.7749
  155SAPE  H10X17235   0.859   6.163   6.406  0.6035 -0.0771  1.3403
  155SAPE  H10Y17236   1.013   6.261   6.358 -0.5695  3.1688 -1.0670
  155SAPE  C31117237   0.831   6.329   6.291  0.5133  0.3527 -0.4451
  155SAPE  H11X17238   0.875   6.431   6.285 -0.5277  0.9917  1.7942
  155SAPE  H11Y17239   0.725   6.346   6.318  0.9603  0.6389  1.2487
  155SAPE  C31217240   0.839   6.253   6.163 -0.6007 -0.6404  0.1246
  155SAPE  H12X17241   0.784   6.159   6.185 -0.9073 -0.3024  0.8520
  155SAPE  H12Y17242   0.946   6.231   6.142  0.4829  2.2138  1.8851
  155SAPE  C31317243   0.792   6.336   6.044  0.1453  0.3203 -0.7008
  155SAPE  H13X17244   0.853   6.428   6.048 -1.7346  1.5952 -0.2299
  155SAPE  H13Y17245   0.689   6.373   6.066  0.5539 -0.0016  2.1961
  155SAPE  C31417246   0.792   6.271   5.912  0.3211  0.3203  0.5186
  155SAPE  H14X17247   0.698   6.219   5.887  0.7364  0.9093 -2.6636
  155SAPE  H14Y17248   0.877   6.199   5.904 -1.9456 -2.4305 -0.4827
  155SAPE  C31517249   0.795   6.379   5.805 -0.1309  0.3911 -0.5017
  155SAPE  H15X17250   0.884   6.441   5.830  0.7382 -2.0210  3.2603
  155SAPE  H15Y17251   0.700   6.435   5.816  0.8421  1.9658  0.2872
  155SAPE  C31617252   0.796   6.323   5.666  0.4836  0.0072 -0.5917
  155SAPE  H16X17253   0.702   6.269   5.640 -0.2154  0.2162  1.3086
  155SAPE  H16Y17254   0.885   6.258   5.664 -0.2635 -1.1053  0.4528
  155SAPE  C31717255   0.813   6.439   5.560  0.0039  0.1676  0.1322
  155SAPE  H17X17256   0.913   6.479   5.588  1.5256 -3.3552  0.1854
  155SAPE  H17Y17257   0.729   6.509   5.583 -1.0282 -0.9510 -0.1583
  155SAPE  C31817258   0.797   6.391   5.416  0.5268  0.5505  0.7035
  155SAPE  H18X17259   0.816   6.469   5.339 -1.3144 -0.7747 -1.1903
  155SAPE  H18Y17260   0.690   6.368   5.399  0.6707  0.8965 -0.8106
  155SAPE  H18Z17261   0.858   6.303   5.386 -1.1944 -0.4454  0.0244
  156SAPE     N17262   5.838   2.307   7.150 -0.6219 -0.1329  0.4061
  156SAPE   HN117263   5.913   2.235   7.149  0.4136  0.9069  1.1194
  156SAPE   HN217264   5.841   2.345   7.246  0.0562  1.3831 -0.1876
  156SAPE   HN317265   5.747   2.256   7.142 -1.1391  0.8657 -0.3399
  156SAPE   C1217266   5.880   2.409   7.050 -0.4783 -0.5136 -0.1324
  156SAPE  H12A17267   5.870   2.363   6.950  2.0478  2.9911 -2.2482
  156SAPE  H12B17268   5.988   2.424   7.070 -0.8211  1.8180  0.3062
  156SAPE   C1117269   5.801   2.541   7.060  0.4193 -0.2612  0.0674
  156SAPE  H11A17270   5.700   2.517   7.021  0.6788  0.0094 -0.8005
  156SAPE  H11B17271   5.846   2.612   6.986  0.0687 -0.2224 -0.1112
  156SAPE     P17272   5.670   2.595   7.272 -0.2612  0.0275 -0.2677
  156SAPE   O1317273   5.650   2.459   7.324 -0.0630 -0.0924 -0.4174
  156SAPE   O1417274   5.684   2.694   7.381 -0.0588 -0.5082  0.5691
  156SAPE   O1217275   5.802   2.592   7.191  0.2085  0.3934  0.7040
  156SAPE   O1117276   5.549   2.637   7.176 -0.3004  0.2009  0.2538
  156SAPE    C117277   5.550   2.773   7.139  0.1412 -0.2446  0.2573
  156SAPE    HA17278   5.473   2.816   7.207 -0.8264  0.9734 -1.5245
  156SAPE    HB17279   5.647   2.824   7.158 -1.0240  1.6861  1.3283
  156SAPE    C217280   5.498   2.799   6.997  0.4119  0.7727  0.1654
  156SAPE    HS17281   5.464   2.905   6.990 -1.4919  0.1993  0.3582
  156SAPE   O2117282   5.399   2.704   6.958 -0.1420 -0.2493  0.1574
  156SAPE   C2117283   5.275   2.728   7.007  0.5150  0.4315 -0.1883
  156SAPE   O2217284   5.248   2.826   7.069  0.5823  0.1466 -0.0841
  156SAPE   C2217285   5.178   2.615   6.963  0.5216 -0.1117  0.0150
  156SAPE   H2R17286   5.224   2.558   6.880 -1.8409  0.0485 -1.5023
  156SAPE   H2S17287   5.169   2.547   7.050  4.0216 -1.6920 -0.6778
  156SAPE    C317288   5.611   2.777   6.898 -0.0015  0.2668  0.1117
  156SAPE    HX17289   5.645   2.673   6.919 -1.0450  0.3342  2.3473
  156SAPE    HY17290   5.695   2.841   6.934  0.8100 -1.2673  1.0594
  156SAPE   O3117291   5.581   2.808   6.759  0.7199 -0.2683  0.3209
  156SAPE   C3117292   5.527   2.705   6.694 -0.2886 -0.6646  0.0638
  156SAPE   O3217293   5.545   2.589   6.715 -0.6026 -1.5924 -0.3425
  156SAPE   C3217294   5.441   2.763   6.575  0.1195 -0.2257 -0.0115
  156SAPE   H2X17295   5.504   2.831   6.513 -0.8402 -1.4121 -2.4341
  156SAPE   H2Y17296   5.353   2.818   6.616  0.7813  1.2314 -0.4566
  156SAPE   C2317297   5.036   2.670   6.913 -0.3710 -0.9797 -0.4928
  156SAPE   H3R17298   4.981   2.723   6.993  0.1997  4.0894 -3.0564
  156SAPE   H3S17299   4.977   2.578   6.897 -1.2005 -0.6499  0.5698
  156SAPE   C2417300   5.041   2.767   6.799  0.1104  0.2320 -0.0151
  156SAPE   H4R17301   5.122   2.839   6.823 -1.1766  0.6998  3.5142
  156SAPE   H4S17302   4.950   2.830   6.806  0.3979  0.6692 -0.2027
  156SAPE   C2517303   5.056   2.697   6.672 -0.5251 -0.2246 -0.1327
  156SAPE   H5R17304   5.152   2.644   6.667  0.3300  0.8602  2.6655
  156SAPE   C2617305   4.960   2.692   6.574  0.1652 -0.0054 -0.0183
  156SAPE   H6R17306   4.974   2.617   6.494  2.8901  0.6155 -0.2322
  156SAPE   C2717307   4.832   2.771   6.556  0.1473  0.2322  0.0440
  156SAPE   H7R17308   4.816   2.788   6.447 -0.1974  0.7516  0.1716
  156SAPE   H7S17309   4.842   2.875   6.594 -1.4899 -0.0031  1.2042
  156SAPE   C2817310   4.723   2.700   6.632  0.0428 -0.5852 -0.1043
  156SAPE   H8R17311   4.761   2.640   6.717 -0.9862 -1.3245 -0.1511
  156SAPE   C2917312   4.592   2.680   6.597 -0.6596 -0.2290  0.1880
  156SAPE   H9R17313   4.531   2.615   6.662  0.6892 -0.1538  1.5827
  156SAPE  C21017314   4.525   2.733   6.478  0.3173 -0.3533  0.9090
  156SAPE  H10R17315   4.589   2.817   6.443  1.6190 -1.8813 -0.5807
  156SAPE  H10S17316   4.431   2.778   6.516  0.5342  0.2867  0.6960
  156SAPE  C21117317   4.506   2.634   6.363  0.1139 -0.4295 -0.0910
  156SAPE  H11R17318   4.471   2.536   6.398  1.1823 -0.0108  2.3609
  156SAPE  C21217319   4.523   2.639   6.227  0.5236  0.0671 -0.0805
  156SAPE  H12R17320   4.513   2.551   6.160  1.2837  0.3797 -0.6237
  156SAPE  C21317321   4.573   2.762   6.162 -0.1115  0.6895  0.7480
  156SAPE  H13R17322   4.567   2.853   6.225 -2.4806  1.1657 -0.0504
  156SAPE  H13S17323   4.505   2.779   6.075 -1.1815 -3.1389  0.6376
  156SAPE  C21417324   4.716   2.734   6.114 -0.3115  0.5410  0.5874
  156SAPE  H14R17325   4.790   2.758   6.191  0.8331  0.5889 -0.4990
  156SAPE  C21517326   4.767   2.693   5.989 -0.2524  0.1109  0.6871
  156SAPE  H15R17327   4.876   2.678   5.979  0.0460  2.7555 -1.4226
  156SAPE  C21617328   4.681   2.652   5.876 -0.0248 -0.0737 -0.0974
  156SAPE  H16R17329   4.577   2.692   5.878  0.4608  1.2566 -0.3833
  156SAPE  H16S17330   4.676   2.541   5.869  0.0685 -0.0784 -0.0932
  156SAPE  C21717331   4.733   2.691   5.738 -0.0184 -0.1378 -0.6582
  156SAPE  H17R17332   4.843   2.675   5.737  0.4517  2.1237  2.4306
  156SAPE  H17S17333   4.721   2.795   5.703 -0.3262  0.0411 -0.0267
  156SAPE  C21817334   4.669   2.613   5.625  0.4288 -0.3151 -0.4211
  156SAPE  H18R17335   4.562   2.639   5.636  0.2803 -1.4274  0.9312
  156SAPE  H18S17336   4.663   2.504   5.644 -0.9448 -0.1258  0.3592
  156SAPE  C21917337   4.729   2.640   5.486  0.6112 -0.0502  0.0680
  156SAPE  H19R17338   4.726   2.748   5.460 -0.2527 -0.7701 -3.3893
  156SAPE  H19S17339   4.654   2.597   5.416 -1.7126 -0.3708  2.5621
  156SAPE  C22017340   4.867   2.576   5.477 -0.6755  0.0706 -0.0595
  156SAPE  H20R17341   4.925   2.620   5.561 -0.8461 -0.2717  0.2414
  156SAPE  H20S17342   4.922   2.609   5.386 -1.9052  1.0655 -0.4627
  156SAPE  H20T17343   4.867   2.465   5.480 -0.6088  0.0333 -1.0478
  156SAPE   C3317344   5.383   2.665   6.473 -0.4355  0.0007  0.3952
  156SAPE   H3X17345   5.329   2.576   6.513 -1.5189  0.4787  0.0326
  156SAPE   H3Y17346   5.472   2.633   6.414 -0.2085  1.9942 -0.4405
  156SAPE   C3417347   5.301   2.737   6.362  0.6640 -0.2724 -0.6701
  156SAPE   H4X17348   5.368   2.810   6.313 -0.5457  0.3393 -1.4470
  156SAPE   H4Y17349   5.215   2.791   6.408  0.3466  0.2244 -1.8218
  156SAPE   C3517350   5.242   2.636   6.263 -0.0651  0.4569  0.2308
  156SAPE   H5X17351   5.162   2.577   6.313  1.0706  0.7742  2.5765
  156SAPE   H5Y17352   5.322   2.559   6.259  0.2324  0.7189  0.8921
  156SAPE   C3617353   5.211   2.705   6.131 -0.4299  0.4437 -0.1136
  156SAPE   H6X17354   5.244   2.811   6.125 -2.2158  1.0001 -0.8068
  156SAPE   H6Y17355   5.101   2.705   6.119 -0.7042  0.9732  2.0012
  156SAPE   C3717356   5.287   2.634   6.027  0.0784  0.4663 -0.1958
  156SAPE   H7X17357   5.266   2.527   6.044 -0.3174  0.9750  3.2129
  156SAPE   H7Y17358   5.398   2.638   6.025  0.2196 -2.1339 -1.9950
  156SAPE   C3817359   5.242   2.687   5.888  0.0542 -0.3442 -0.3802
  156SAPE   H8X17360   5.266   2.795   5.878 -1.1470 -0.0090  0.1673
  156SAPE   H8Y17361   5.131   2.689   5.890 -0.0253 -2.1938 -0.5482
  156SAPE   C3917362   5.311   2.628   5.766 -0.3992  0.0902 -0.0496
  156SAPE   H9X17363   5.334   2.520   5.770  0.0274  0.1462 -0.8469
  156SAPE   H9Y17364   5.414   2.669   5.762 -0.1985 -0.2681  1.2213
  156SAPE  C31017365   5.233   2.654   5.635 -0.1454  0.7327  0.1516
  156SAPE  H10X17366   5.218   2.763   5.625  2.1580  1.0402 -0.4053
  156SAPE  H10Y17367   5.136   2.599   5.635 -1.3689  2.8033  0.4275
  156SAPE  C31117368   5.322   2.593   5.524  0.0184  0.2290 -0.0781
  156SAPE  H11X17369   5.343   2.485   5.539 -0.6653  0.2021  0.7355
  156SAPE  H11Y17370   5.419   2.647   5.523  0.1823  0.2163  3.4146
  156SAPE  C31217371   5.255   2.614   5.390  0.4759  0.2642 -0.0311
  156SAPE  H12X17372   5.207   2.714   5.387  1.6271  0.8080 -1.1553
  156SAPE  H12Y17373   5.162   2.552   5.392  0.0042  0.7992 -2.3370
  156SAPE  C31317374   5.337   2.595   5.268 -0.0435 -0.4133 -0.6954
  156SAPE  H13X17375   5.362   2.487   5.252 -1.6974 -0.7824 -0.9525
  156SAPE  H13Y17376   5.435   2.645   5.283 -0.0585 -1.1246  2.5827
  156SAPE  C31417377   5.270   2.640   5.137 -0.6623  0.1612  0.4604
  156SAPE  H14X17378   5.331   2.610   5.049 -1.1474 -1.4329  0.6419
  156SAPE  H14Y17379   5.272   2.751   5.144 -2.7814  0.2682  0.2229
  156SAPE  C31517380   5.135   2.584   5.123 -0.0771 -0.1871  0.4396
  156SAPE  H15X17381   5.074   2.625   5.206 -0.8982 -0.4520 -0.0278
  156SAPE  H15Y17382   5.133   2.473   5.133  1.9587 -0.4110 -1.0346
  156SAPE  C31617383   5.066   2.626   4.987  0.1753 -0.3792  0.0114
  156SAPE  H16X17384   5.125   2.607   4.895 -0.5680  1.1045 -0.8076
  156SAPE  H16Y17385   5.032   2.732   4.983 -4.1420 -1.4996  1.3287
  156SAPE  C31717386   4.937   2.540   4.967 -0.0225 -0.0794  0.1478
  156SAPE  H17X17387   4.862   2.577   5.040 -0.3217  1.4889 -0.9028
  156SAPE  H17Y17388   4.966   2.435   4.990 -0.4518 -0.2747 -0.1835
  156SAPE  C31817389   4.873   2.530   4.823  0.4728 -0.0958  0.0847
  156SAPE  H18X17390   4.832   2.631   4.804 -0.0084 -0.2970  0.0446
  156SAPE  H18Y17391   4.788   2.459   4.814  1.1808 -0.9730  0.1710
  156SAPE  H18Z17392   4.950   2.495   4.751 -0.4698 -0.1065 -0.9392
  157SAPE     N17393   3.762   0.297   7.341 -0.1708  0.0522 -0.5065
  157SAPE   HN117394   3.831   0.260   7.411  2.7797  2.2185 -2.0252
  157SAPE   HN217395   3.746   0.394   7.375  1.1370  0.1059  0.0419
  157SAPE   HN317396   3.665   0.260   7.348 -0.6043  1.1889 -0.3885
  157SAPE   C1217397   3.806   0.295   7.200 -0.0947 -0.0857 -0.0076
  157SAPE  H12A17398   3.833   0.190   7.173 -0.7370  0.1429 -1.6339
  157SAPE  H12B17399   3.893   0.363   7.203 -0.5795  0.5788 -0.5925
  157SAPE   C1117400   3.699   0.356   7.113 -0.3093  0.4192  0.5458
  157SAPE  H11A17401   3.611   0.289   7.117 -1.8180  2.3361  2.7670
  157SAPE  H11B17402   3.742   0.351   7.011  1.4622  0.5992  1.2427
  157SAPE     P17403   3.510   0.534   7.159 -0.3370  0.3052 -0.2069
  157SAPE   O1317404   3.451   0.484   7.282 -0.0259 -0.1879 -0.1133
  157SAPE   O1417405   3.509   0.680   7.136 -0.0336 -0.0209 -0.2597
  157SAPE   O1217406   3.660   0.491   7.151 -0.3040  0.4324  0.3088
  157SAPE   O1117407   3.447   0.466   7.038  0.2215 -0.4843  0.4015
  157SAPE    C117408   3.338   0.511   6.958 -0.1583 -0.8311  0.4214
  157SAPE    HA17409   3.247   0.449   6.972 -0.7322 -0.2533 -0.6548
  157SAPE    HB17410   3.321   0.620   6.967  0.1325 -0.8717  1.6063
  157SAPE    C217411   3.380   0.486   6.803  0.3540 -0.3565  1.0110
  157SAPE    HS17412   3.316   0.551   6.740  0.8945 -1.0136 -0.2379
  157SAPE   O2117413   3.352   0.348   6.763 -0.8114 -0.4018 -0.0687
  157SAPE   C2117414   3.221   0.321   6.747  0.0982  0.1683 -0.1673
  157SAPE   O2217415   3.132   0.403   6.745  0.6184 -0.0954 -0.5545
  157SAPE   C2217416   3.201   0.175   6.701  0.0152 -0.0739 -0.4805
  157SAPE   H2R17417   3.259   0.116   6.775 -1.3209  1.3807  1.8589
  157SAPE   H2S17418   3.096   0.145   6.719  0.1235 -0.2572 -0.1522
  157SAPE    C317419   3.533   0.519   6.765  0.2641  0.0793  0.3791
  157SAPE    HX17420   3.599   0.438   6.803 -0.8364  0.1921  2.7086
  157SAPE    HY17421   3.553   0.616   6.813  0.1954  0.6514 -0.7183
  157SAPE   O3117422   3.551   0.525   6.627 -0.4698  0.3281 -0.1312
  157SAPE   C3117423   3.674   0.579   6.601  0.1699  0.7327  0.1364
  157SAPE   O3217424   3.758   0.604   6.687  0.8053 -0.0538 -0.3725
  157SAPE   C3217425   3.702   0.565   6.455 -0.2755 -0.0303  0.0832
  157SAPE   H2X17426   3.610   0.527   6.405 -0.5161  0.3487  0.2245
  157SAPE   H2Y17427   3.791   0.503   6.436  0.9029  1.9184 -1.0654
  157SAPE   C2317428   3.235   0.160   6.550 -0.6214  0.0825  0.3580
  157SAPE   H3R17429   3.282   0.061   6.530  0.4793  0.5017  0.7634
  157SAPE   H3S17430   3.317   0.232   6.531  0.4340 -1.6914 -2.4885
  157SAPE   C2417431   3.119   0.179   6.441  0.2866 -0.8569 -0.7836
  157SAPE   H4R17432   3.176   0.158   6.348  1.0009  0.2151 -0.6100
  157SAPE   H4S17433   3.091   0.287   6.437 -0.0079 -0.8968  0.0087
  157SAPE   C2517434   3.010   0.081   6.464 -0.3671  0.9533 -0.0260
  157SAPE   H5R17435   3.006   0.029   6.561  0.5873  0.4964 -0.2158
  157SAPE   C2617436   2.911   0.055   6.387 -0.0100  0.1490  0.9387
  157SAPE   H6R17437   2.834  -0.020   6.409  0.0015 -0.2120 -0.1947
  157SAPE   C2717438   2.896   0.115   6.245  0.0110 -0.2417  0.5063
  157SAPE   H7R17439   2.993   0.161   6.216  0.2959 -0.3712  1.2464
  157SAPE   H7S17440   2.833   0.206   6.245  1.9377  1.2501 -2.0750
  157SAPE   C2817441   2.850   0.022   6.137  0.1367 -0.0076 -0.4309
  157SAPE   H8R17442   2.791  -0.065   6.172  1.8474 -0.4701  1.5410
  157SAPE   C2917443   2.877   0.030   6.006 -0.0611  0.3177  0.3139
  157SAPE   H9R17444   2.839  -0.048   5.940  2.5604 -0.5329 -0.3293
  157SAPE  C21017445   2.960   0.131   5.936 -0.8583  0.0017 -0.0034
  157SAPE  H10R17446   2.932   0.230   5.977 -0.4197  0.1138  0.0292
  157SAPE  H10S17447   2.931   0.125   5.829  1.8016  1.2125 -0.8641
  157SAPE  C21117448   3.113   0.116   5.953 -0.4717 -0.3768 -0.2289
  157SAPE  H11R17449   3.151   0.019   5.919  0.6159 -0.1585  0.2899
  157SAPE  C21217450   3.197   0.205   6.023 -1.4358  0.1211  0.3699
  157SAPE  H12R17451   3.304   0.185   6.010 -1.4888  0.3515 -0.4491
  157SAPE  C21317452   3.165   0.340   6.085  0.4736 -0.1981 -0.1328
  157SAPE  H13R17453   3.159   0.331   6.195 -2.3505  1.3810 -0.0686
  157SAPE  H13S17454   3.061   0.366   6.055  0.2995  1.2694  1.5959
  157SAPE  C21417455   3.257   0.451   6.046 -0.4630  0.1215  0.5184
  157SAPE  H14R17456   3.347   0.470   6.108  0.8175 -2.9774 -0.1820
  157SAPE  C21517457   3.262   0.501   5.919  0.7634 -0.3351 -0.0557
  157SAPE  H15R17458   3.325   0.586   5.889  1.1963 -0.0436  1.6059
  157SAPE  C21617459   3.152   0.474   5.814 -0.5569  0.2083  0.6941
  157SAPE  H16R17460   3.111   0.568   5.769 -2.5847 -1.4338 -1.1447
  157SAPE  H16S17461   3.064   0.425   5.861  0.7941 -0.9697  2.0660
  157SAPE  C21717462   3.191   0.376   5.698 -0.3666  0.6175  0.3379
  157SAPE  H17R17463   3.100   0.347   5.641 -0.4328  1.1817  0.1499
  157SAPE  H17S17464   3.231   0.283   5.742  0.9225  1.6003  1.3223
  157SAPE  C21817465   3.295   0.433   5.598  0.7455 -0.5367  0.1587
  157SAPE  H18R17466   3.352   0.506   5.660  1.3813 -1.9019  1.2229
  157SAPE  H18S17467   3.237   0.486   5.519 -0.3423 -0.6885  0.8350
  157SAPE  C21917468   3.380   0.324   5.541 -0.0026 -0.2046 -0.7096
  157SAPE  H19R17469   3.432   0.280   5.629 -1.1970 -4.2357 -1.8035
  157SAPE  H19S17470   3.461   0.364   5.476 -1.6406 -1.1689 -3.5325
  157SAPE  C22017471   3.310   0.217   5.456 -0.0744 -0.1557 -0.3921
  157SAPE  H20R17472   3.227   0.166   5.511  0.0963 -0.0886 -0.0729
  157SAPE  H20S17473   3.387   0.146   5.419 -0.6019  0.0447 -1.9766
  157SAPE  H20T17474   3.264   0.257   5.363 -1.5291 -1.8807 -0.4747
  157SAPE   C3317475   3.732   0.709   6.390 -0.7339  0.3696 -0.1587
  157SAPE   H3X17476   3.836   0.729   6.422 -1.1513  1.7115  0.4490
  157SAPE   H3Y17477   3.669   0.790   6.433  0.2696  0.3068  1.5205
  157SAPE   C3417478   3.706   0.712   6.240 -0.5847 -0.3721  0.2016
  157SAPE   H4X17479   3.602   0.676   6.228 -0.6434 -0.2462  0.3293
  157SAPE   H4Y17480   3.777   0.638   6.197 -1.3032 -0.6149 -0.5875
  157SAPE   C3517481   3.708   0.849   6.173 -0.0647  0.1222  0.0313
  157SAPE   H5X17482   3.811   0.890   6.186  1.1320 -2.2892 -1.3579
  157SAPE   H5Y17483   3.629   0.911   6.221 -1.0776 -2.2046  1.5069
  157SAPE   C3617484   3.697   0.833   6.020 -0.3667  0.0309  0.0586
  157SAPE   H6X17485   3.790   0.779   5.991  1.9085  2.2433  2.6500
  157SAPE   H6Y17486   3.707   0.933   5.973 -2.1820 -0.5055 -1.6213
  157SAPE   C3717487   3.572   0.759   5.971  0.0539 -0.3440  0.2184
  157SAPE   H7X17488   3.477   0.808   6.003 -0.2079 -1.5347  1.3677
  157SAPE   H7Y17489   3.581   0.652   6.001  2.6066 -0.5838 -1.1321
  157SAPE   C3817490   3.569   0.754   5.823  0.3655 -0.4581  0.3198
  157SAPE   H8X17491   3.523   0.843   5.775 -1.9145 -1.9259 -0.3410
  157SAPE   H8Y17492   3.500   0.669   5.805  1.8839 -1.9571  1.2593
  157SAPE   C3917493   3.693   0.717   5.751  0.2454 -0.1253  0.0224
  157SAPE   H9X17494   3.738   0.646   5.823  0.9153 -0.1437 -0.4004
  157SAPE   H9Y17495   3.756   0.807   5.738 -0.0237 -0.2109 -2.3174
  157SAPE  C31017496   3.681   0.658   5.609 -0.4231 -0.1404 -0.4546
  157SAPE  H10X17497   3.589   0.596   5.605  0.0140 -0.7350 -1.4385
  157SAPE  H10Y17498   3.772   0.597   5.592 -0.2342  0.2636 -0.9170
  157SAPE  C31117499   3.675   0.757   5.498 -0.1310 -0.5166  0.5369
  157SAPE  H11X17500   3.779   0.797   5.496 -0.6301  0.8026 -0.2698
  157SAPE  H11Y17501   3.603   0.839   5.517  0.5293  0.2787 -0.3277
  157SAPE  C31217502   3.636   0.688   5.364 -0.4888 -0.0089 -0.6828
  157SAPE  H12X17503   3.531   0.653   5.371 -1.0875  1.5991 -1.0164
  157SAPE  H12Y17504   3.709   0.607   5.344 -0.5815 -0.7262  1.5939
  157SAPE  C31317505   3.652   0.785   5.244  0.1752 -0.1259 -0.0580
  157SAPE  H13X17506   3.603   0.883   5.262  2.2404  0.8260  0.6613
  157SAPE  H13Y17507   3.616   0.729   5.155 -1.6118  0.6134  0.1518
  157SAPE  C31417508   3.799   0.819   5.219  1.2125  0.0153 -0.0279
  157SAPE  H14X17509   3.853   0.725   5.194  0.9709  0.2298 -1.4984
  157SAPE  H14Y17510   3.838   0.876   5.305 -2.6960  0.1081  1.9300
  157SAPE  C31517511   3.819   0.934   5.112 -0.1094  0.1341  0.1274
  157SAPE  H15X17512   3.929   0.950   5.108  0.2275 -2.0264 -0.8104
  157SAPE  H15Y17513   3.760   1.021   5.146  0.4800  0.1926  1.0338
  157SAPE  C31617514   3.760   0.895   4.974 -0.6372  0.5426 -0.0863
  157SAPE  H16X17515   3.656   0.934   4.968 -1.0481 -0.3289  1.1180
  157SAPE  H16Y17516   3.763   0.784   4.966  0.8520  0.4796  0.9382
  157SAPE  C31717517   3.859   0.947   4.865 -0.3722  0.1457  0.8679
  157SAPE  H17X17518   3.942   0.873   4.866 -0.0497  0.4538 -0.5575
  157SAPE  H17Y17519   3.892   1.052   4.883 -1.0823  0.6363 -0.5239
  157SAPE  C31817520   3.801   0.941   4.720 -0.1361 -0.6167  1.0767
  157SAPE  H18X17521   3.882   0.967   4.649 -1.8128 -0.3378 -0.7890
  157SAPE  H18Y17522   3.727   1.018   4.692  1.3769  0.8517  0.9419
  157SAPE  H18Z17523   3.758   0.842   4.694  1.5842 -1.2050  0.2984
  158SAPE     N17524   6.642   2.117   7.315 -0.0558  0.9205  0.3063
  158SAPE   HN117525   6.713   2.043   7.298 -1.3669 -0.7008  1.5610
  158SAPE   HN217526   6.696   2.205   7.310  0.2654  0.6685 -2.1548
  158SAPE   HN317527   6.607   2.107   7.412 -1.8736 -1.3278 -0.4965
  158SAPE   C1217528   6.541   2.111   7.206  0.7185  0.0228 -0.4879
  158SAPE  H12A17529   6.590   2.097   7.107  0.6701 -2.6142 -0.2113
  158SAPE  H12B17530   6.475   2.200   7.213  2.3117  1.2114 -0.1719
  158SAPE   C1117531   6.451   1.980   7.229  0.0150  0.0717  0.6790
  158SAPE  H11A17532   6.400   1.989   7.328 -0.2973 -1.1706  0.6511
  158SAPE  H11B17533   6.519   1.892   7.235  0.1695 -0.1334 -2.5392
  158SAPE     P17534   6.262   1.834   7.120 -0.0660 -0.1315  0.2179
  158SAPE   O1317535   6.343   1.718   7.168  0.6305  0.0809 -0.3684
  158SAPE   O1417536   6.137   1.865   7.195  0.2514  0.2973 -0.6240
  158SAPE   O1217537   6.355   1.962   7.119 -0.0692  0.2958 -0.1462
  158SAPE   O1117538   6.230   1.820   6.968  0.2524 -0.2419  0.2173
  158SAPE    C117539   6.230   1.938   6.882  0.5210  0.3532  0.0842
  158SAPE    HA17540   6.130   1.949   6.837  0.2643 -0.2424  0.5019
  158SAPE    HB17541   6.263   2.033   6.931  1.1901 -0.1368  0.6117
  158SAPE    C217542   6.320   1.919   6.755  0.2812  0.2536 -1.6317
  158SAPE    HS17543   6.305   2.009   6.692 -2.7957  1.6173  0.7497
  158SAPE   O2117544   6.284   1.797   6.688 -0.5787  0.2240 -0.2111
  158SAPE   C2117545   6.279   1.799   6.554 -0.3579 -0.4689  0.0311
  158SAPE   O2217546   6.296   1.899   6.488 -0.0259 -0.4103  0.2603
  158SAPE   C2217547   6.245   1.652   6.509 -0.3977  0.4058  0.0592
  158SAPE   H2R17548   6.305   1.587   6.576  1.9935  2.1356 -0.2748
  158SAPE   H2S17549   6.140   1.645   6.543 -0.2091  0.1547  0.5956
  158SAPE    C317550   6.462   1.914   6.808 -0.2578  0.0187 -0.6638
  158SAPE    HX17551   6.472   1.826   6.876  2.8140  0.2140 -0.7388
  158SAPE    HY17552   6.492   2.005   6.864  0.6517 -0.5585 -0.1867
  158SAPE   O3117553   6.555   1.886   6.699 -0.4600 -0.7212 -0.4004
  158SAPE   C3117554   6.588   1.991   6.622  0.0926  0.2131  0.3106
  158SAPE   O3217555   6.554   2.106   6.644  0.2976 -0.4560 -0.4300
  158SAPE   C3217556   6.676   1.944   6.505 -0.4610  0.5329 -0.1388
  158SAPE   H2X17557   6.652   1.837   6.490  1.8745 -0.1605  0.6311
  158SAPE   H2Y17558   6.775   1.961   6.553 -1.0128  3.5399  0.1743
  158SAPE   C2317559   6.282   1.631   6.358 -0.0893 -0.6501 -0.5541
  158SAPE   H3R17560   6.222   1.691   6.287  0.9657 -1.5809 -2.2774
  158SAPE   H3S17561   6.255   1.525   6.338 -1.0612 -0.4626 -0.3199
  158SAPE   C2417562   6.427   1.661   6.336 -0.5157  0.5154  0.4149
  158SAPE   H4R17563   6.488   1.637   6.426 -0.1003 -0.4089 -0.0957
  158SAPE   H4S17564   6.446   1.770   6.319 -0.3546  0.5303  0.6768
  158SAPE   C2517565   6.465   1.575   6.218  0.0205 -0.1377  0.1239
  158SAPE   H5R17566   6.502   1.476   6.248 -1.0452 -0.9892 -1.2492
  158SAPE   C2617567   6.482   1.612   6.096 -0.0003  0.2851 -0.0514
  158SAPE   H6R17568   6.505   1.542   6.013  1.9893  1.8076 -0.8615
  158SAPE   C2717569   6.445   1.745   6.035  0.1295 -0.0215 -0.3947
  158SAPE   H7R17570   6.527   1.762   5.963 -0.3287 -1.8822 -1.4053
  158SAPE   H7S17571   6.449   1.827   6.110 -1.5924 -1.1764  1.0508
  158SAPE   C2817572   6.307   1.752   5.971 -0.7422 -0.1253 -0.4267
  158SAPE   H8R17573   6.225   1.798   6.028  0.1606  1.8675 -0.6296
  158SAPE   C2917574   6.274   1.706   5.848 -0.2973  0.9064 -0.7637
  158SAPE   H9R17575   6.173   1.725   5.807 -1.5017 -1.6562  0.7744
  158SAPE  C21017576   6.374   1.633   5.763  0.0597  0.2673  0.6773
  158SAPE  H10R17577   6.479   1.634   5.799  0.3035 -0.4409  0.0277
  158SAPE  H10S17578   6.363   1.692   5.669 -1.1426  0.4176  0.9019
  158SAPE  C21117579   6.340   1.488   5.737 -0.0819  0.3936  0.5270
  158SAPE  H11R17580   6.249   1.455   5.787 -0.0449  0.8954  0.9332
  158SAPE  C21217581   6.410   1.399   5.664  0.1478  0.5785  0.4397
  158SAPE  H12R17582   6.374   1.295   5.656  1.9024  0.1099 -2.5615
  158SAPE  C21317583   6.538   1.425   5.585  0.1380 -0.1359  0.3366
  158SAPE  H13R17584   6.627   1.423   5.652 -1.2141 -0.3524  2.1950
  158SAPE  H13S17585   6.538   1.528   5.543  0.5174 -0.1775  0.2266
  158SAPE  C21417586   6.563   1.322   5.477 -0.3833  0.5261  0.2749
  158SAPE  H14R17587   6.559   1.219   5.515 -1.7039  0.3591 -0.2641
  158SAPE  C21517588   6.557   1.320   5.350 -0.0153 -0.0946  0.2774
  158SAPE  H15R17589   6.561   1.226   5.294 -2.6630  0.4565 -0.9880
  158SAPE  C21617590   6.552   1.453   5.262  0.4776  0.1725  0.1755
  158SAPE  H16R17591   6.653   1.467   5.217  0.6200 -0.3829  0.3250
  158SAPE  H16S17592   6.518   1.529   5.336  0.5859 -1.2214  1.7301
  158SAPE  C21717593   6.463   1.441   5.135 -0.4411 -0.5507  0.6974
  158SAPE  H17R17594   6.448   1.542   5.090 -2.0719 -1.4989 -1.0178
  158SAPE  H17S17595   6.365   1.396   5.162 -0.9561  0.9522  1.4720
  158SAPE  C21817596   6.520   1.354   5.024 -0.3159  0.6902 -0.0088
  158SAPE  H18R17597   6.541   1.252   5.064  3.3798  1.7965  1.3632
  158SAPE  H18S17598   6.614   1.395   4.980  0.7930 -2.3042 -0.6833
  158SAPE  C21917599   6.417   1.337   4.911 -0.0266  0.0212  0.0577
  158SAPE  H19R17600   6.428   1.440   4.871  1.9953  0.0076  0.4654
  158SAPE  H19S17601   6.310   1.331   4.937 -1.2014  1.0579 -3.8910
  158SAPE  C22017602   6.454   1.233   4.808  0.0790 -0.4818 -1.0885
  158SAPE  H20R17603   6.394   1.250   4.716  1.1152 -0.7163 -1.8285
  158SAPE  H20S17604   6.429   1.130   4.844  1.8835 -1.5923 -2.7858
  158SAPE  H20T17605   6.562   1.252   4.793 -0.0750  2.6174  0.9681
  158SAPE   C3317606   6.668   2.023   6.372  0.1157  0.3506  0.0619
  158SAPE   H3X17607   6.661   2.131   6.398 -1.3591  0.4047 -0.4911
  158SAPE   H3Y17608   6.573   1.993   6.323  0.7736 -2.0240  0.1055
  158SAPE   C3417609   6.787   1.985   6.281 -0.3887 -0.8232  1.0253
  158SAPE   H4X17610   6.785   1.878   6.249 -1.0204 -0.3770 -0.5507
  158SAPE   H4Y17611   6.882   1.998   6.337  0.6537  1.3749 -1.0650
  158SAPE   C3517612   6.777   2.060   6.147  1.1258  0.4371  0.5656
  158SAPE   H5X17613   6.876   2.052   6.095  0.5325  2.1645 -0.9230
  158SAPE   H5Y17614   6.757   2.168   6.162  2.5376  0.7260  0.5686
  158SAPE   C3617615   6.674   2.005   6.044  0.1314 -0.4647 -0.0225
  158SAPE   H6X17616   6.568   2.035   6.062  0.6849  1.7549 -0.1015
  158SAPE   H6Y17617   6.670   1.895   6.055  2.3641 -0.5592  0.2909
  158SAPE   C3717618   6.706   2.043   5.898  0.4891 -0.3299 -0.5540
  158SAPE   H7X17619   6.808   2.001   5.886 -0.5477 -3.9673  1.7670
  158SAPE   H7Y17620   6.720   2.153   5.887  0.4743 -0.4141 -1.5411
  158SAPE   C3817621   6.611   1.982   5.787 -0.0179 -0.7380 -0.6587
  158SAPE   H8X17622   6.513   2.023   5.819 -0.7666 -1.9008 -1.3918
  158SAPE   H8Y17623   6.611   1.872   5.802  2.2050 -0.8849 -1.3957
  158SAPE   C3917624   6.640   2.012   5.636 -0.5071 -0.3392 -0.4045
  158SAPE   H9X17625   6.718   1.937   5.612 -0.1716 -0.1809  0.1569
  158SAPE   H9Y17626   6.664   2.119   5.620 -0.6358 -0.3374 -0.5885
  158SAPE  C31017627   6.521   1.972   5.553  0.2708  0.2287  0.5807
  158SAPE  H10X17628   6.429   2.016   5.596 -0.0247  0.5458 -0.3558
  158SAPE  H10Y17629   6.511   1.862   5.559  3.1720 -0.0322  2.6717
  158SAPE  C31117630   6.541   2.020   5.415 -0.5496 -0.5620  0.7524
  158SAPE  H11X17631   6.638   1.981   5.378  0.1353  0.5852  1.2618
  158SAPE  H11Y17632   6.541   2.131   5.413  0.1769 -0.5502  1.0614
  158SAPE  C31217633   6.432   1.977   5.305 -0.0807 -0.5475 -0.2053
  158SAPE  H12X17634   6.343   2.039   5.331 -0.6183 -1.3165 -0.2052
  158SAPE  H12Y17635   6.409   1.869   5.308  0.9080 -0.7963 -1.0298
  158SAPE  C31317636   6.474   2.016   5.161  0.6247 -0.2653  0.5769
  158SAPE  H13X17637   6.570   1.969   5.131  1.4375  0.5576  1.7965
  158SAPE  H13Y17638   6.486   2.127   5.162 -0.4709 -0.1456  1.2418
  158SAPE  C31417639   6.370   1.981   5.054  0.3110  0.1685  0.2303
  158SAPE  H14X17640   6.371   2.041   4.961 -2.3875  0.1920  0.1262
  158SAPE  H14Y17641   6.276   2.001   5.110  0.9685  0.2394  1.3309
  158SAPE  C31517642   6.373   1.831   5.022  0.3667  0.4216  0.2518
  158SAPE  H15X17643   6.330   1.778   5.110 -0.3628  0.8442  0.1631
  158SAPE  H15Y17644   6.476   1.795   5.000  0.5289  1.3186 -0.5175
  158SAPE  C31617645   6.279   1.790   4.908 -0.1724 -0.6848 -0.4658
  158SAPE  H16X17646   6.276   1.680   4.918  1.5229 -0.6544  0.7675
  158SAPE  H16Y17647   6.334   1.809   4.814  0.8157 -2.6661 -0.3264
  158SAPE  C31717648   6.142   1.851   4.905 -0.2477 -0.6919  0.4621
  158SAPE  H17X17649   6.143   1.949   4.855  0.3486  0.0745  1.9162
  158SAPE  H17Y17650   6.108   1.864   5.010  0.6903  0.4554  0.6475
  158SAPE  C31817651   6.038   1.778   4.823  0.3088  0.1876  0.0003
  158SAPE  H18X17652   6.011   1.694   4.891 -0.0698  0.3663  0.0712
  158SAPE  H18Y17653   6.085   1.744   4.728 -1.7709  1.3889 -1.5372
  158SAPE  H18Z17654   5.944   1.832   4.797  0.5250  0.5699  0.0002
  159SAPE     N17655   2.556   0.024   2.806  0.2411 -0.4987  0.0563
  159SAPE   HN117656   2.495   0.108   2.809 -0.3520 -0.7249 -2.9788
  159SAPE   HN217657   2.544  -0.004   2.706 -0.4755  1.2404 -0.3797
  159SAPE   HN317658   2.522  -0.053   2.867  0.2169 -0.7922 -0.3224
  159SAPE   C1217659   2.700   0.054   2.840 -0.3008 -0.3695  0.0191
  159SAPE  H12A17660   2.703   0.128   2.923 -0.3505  1.8995 -1.9055
  159SAPE  H12B17661   2.758   0.103   2.759  1.9064 -0.7071  1.3269
  159SAPE   C1117662   2.774  -0.071   2.891  0.7810 -0.8113 -0.0760
  159SAPE  H11A17663   2.726  -0.127   2.974 -0.2369 -4.0210 -2.5936
  159SAPE  H11B17664   2.873  -0.033   2.925 -0.8431  2.5541  1.2733
  159SAPE     P17665   2.914  -0.250   2.763 -0.4783  0.0440  0.1586
  159SAPE   O1317666   2.870  -0.370   2.687  0.3796 -0.4460  0.1995
  159SAPE   O1417667   3.036  -0.175   2.715  0.5955 -0.3436  0.1384
  159SAPE   O1217668   2.788  -0.156   2.771 -0.3410 -0.0388 -0.0951
  159SAPE   O1117669   2.938  -0.274   2.922 -0.1913 -0.5891  0.3244
  159SAPE    C117670   2.952  -0.408   2.969  0.7735 -0.3538 -0.3860
  159SAPE    HA17671   2.978  -0.479   2.887  2.3361  0.4195 -0.6149
  159SAPE    HB17672   3.041  -0.414   3.035  0.8284 -1.7607 -0.5596
  159SAPE    C217673   2.830  -0.458   3.046 -0.1881 -0.4119 -0.2084
  159SAPE    HS17674   2.750  -0.465   2.968 -0.2482 -1.7965 -0.0450
  159SAPE   O2117675   2.793  -0.371   3.157  0.4529  0.0768 -0.0283
  159SAPE   C2117676   2.663  -0.379   3.182  0.2081  0.2326 -0.6866
  159SAPE   O2217677   2.571  -0.429   3.119 -0.8473  0.3535 -0.0323
  159SAPE   C2217678   2.649  -0.292   3.303  0.3283 -0.0715  0.4782
  159SAPE   H2R17679   2.717  -0.342   3.376 -0.1660 -1.4227  0.0464
  159SAPE   H2S17680   2.693  -0.194   3.279  1.1358 -0.9057 -1.6730
  159SAPE    C317681   2.851  -0.602   3.089  0.3805  0.0130  0.0835
  159SAPE    HX17682   2.878  -0.665   3.002 -4.4660 -0.8078 -1.1236
  159SAPE    HY17683   2.751  -0.639   3.118  1.1413 -3.2949 -1.1300
  159SAPE   O3117684   2.935  -0.604   3.204 -0.1124  0.1826 -0.4232
  159SAPE   C3117685   3.056  -0.655   3.185  0.1502  0.3064  0.2249
  159SAPE   O3217686   3.092  -0.709   3.084  0.5590  0.0449  0.4372
  159SAPE   C3217687   3.140  -0.640   3.313  0.4426  0.1224  0.6418
  159SAPE   H2X17688   3.089  -0.694   3.395  0.1259 -0.0864  0.3127
  159SAPE   H2Y17689   3.150  -0.531   3.332 -1.5213  0.4386  0.0511
  159SAPE   C2317690   2.502  -0.297   3.364 -0.2422 -0.2142  0.6607
  159SAPE   H3R17691   2.422  -0.259   3.297  0.3211 -1.5568 -0.8309
  159SAPE   H3S17692   2.519  -0.230   3.451  0.7748  3.2578 -1.9630
  159SAPE   C2417693   2.450  -0.431   3.424 -0.0880  0.4085 -0.5900
  159SAPE   H4R17694   2.429  -0.495   3.336 -0.7284  0.4246 -0.4489
  159SAPE   H4S17695   2.356  -0.410   3.478  0.1009  1.8940 -0.7855
  159SAPE   C2517696   2.550  -0.505   3.516 -0.7483  0.1396  0.2960
  159SAPE   H5R17697   2.597  -0.591   3.466 -2.5913  0.0489 -1.3908
  159SAPE   C2617698   2.579  -0.477   3.642 -0.4365  0.0776  0.1868
  159SAPE   H6R17699   2.663  -0.540   3.674  0.5229  1.9374  1.5354
  159SAPE   C2717700   2.517  -0.386   3.739  0.2857 -0.6431 -0.2666
  159SAPE   H7R17701   2.449  -0.445   3.803 -0.8403  0.1379 -0.6970
  159SAPE   H7S17702   2.453  -0.311   3.686  1.8754  0.7879 -0.2563
  159SAPE   C2817703   2.609  -0.294   3.817  0.4722 -0.1441 -0.1656
  159SAPE   H8R17704   2.678  -0.234   3.756  1.0920 -2.3202 -1.7362
  159SAPE   C2917705   2.615  -0.259   3.953  0.5309  0.1128  0.5805
  159SAPE   H9R17706   2.690  -0.183   3.977  0.2012  0.2718  1.1377
  159SAPE  C21017707   2.531  -0.332   4.058  0.0290 -0.0013  0.5843
  159SAPE  H10R17708   2.591  -0.404   4.117  2.1666 -0.4534 -1.9499
  159SAPE  H10S17709   2.447  -0.388   4.010 -0.4728 -1.2453  2.7588
  159SAPE  C21117710   2.482  -0.224   4.147  0.1594 -0.1475 -0.7215
  159SAPE  H11R17711   2.414  -0.149   4.104 -0.4341  1.0936  2.1419
  159SAPE  C21217712   2.507  -0.209   4.278  0.8656 -0.1334  0.1416
  159SAPE  H12R17713   2.456  -0.125   4.327  1.1831 -0.3906  0.9199
  159SAPE  C21317714   2.574  -0.301   4.379 -0.0807  0.1316 -0.1702
  159SAPE  H13R17715   2.597  -0.403   4.344  0.1429  0.4907 -1.1113
  159SAPE  H13S17716   2.488  -0.323   4.446 -0.9639  3.2420 -0.0991
  159SAPE  C21417717   2.691  -0.262   4.464  0.1025 -0.1236 -0.1166
  159SAPE  H14R17718   2.783  -0.245   4.405  0.4226 -0.1908  0.3563
  159SAPE  C21517719   2.702  -0.246   4.601 -0.6770 -0.2069  0.1432
  159SAPE  H15R17720   2.794  -0.210   4.648 -0.7543  1.0352 -0.6092
  159SAPE  C21617721   2.591  -0.263   4.698  0.7985  0.4403 -0.2546
  159SAPE  H16R17722   2.508  -0.321   4.653  0.8213 -0.8055  1.2019
  159SAPE  H16S17723   2.557  -0.164   4.737 -1.2993  0.5945 -2.2504
  159SAPE  C21717724   2.628  -0.344   4.838 -0.8258 -0.3388  0.7186
  159SAPE  H17R17725   2.632  -0.453   4.818  1.5248  0.2115 -2.6057
  159SAPE  H17S17726   2.545  -0.322   4.909 -1.3848 -0.6348  0.1569
  159SAPE  C21817727   2.756  -0.289   4.899 -0.1567  0.3455  0.8052
  159SAPE  H18R17728   2.736  -0.180   4.894 -0.6560  0.2680  1.0429
  159SAPE  H18S17729   2.839  -0.305   4.827 -1.1407  1.6548 -0.6757
  159SAPE  C21917730   2.775  -0.348   5.040 -0.2230  0.9147 -0.0645
  159SAPE  H19R17731   2.685  -0.325   5.101  0.0638  2.3998 -0.1530
  159SAPE  H19S17732   2.857  -0.294   5.093 -0.8972 -0.0983  2.1288
  159SAPE  C22017733   2.807  -0.500   5.033  0.2520 -0.0341 -0.6240
  159SAPE  H20R17734   2.718  -0.555   4.997 -0.2061 -0.4871  1.0966
  159SAPE  H20S17735   2.833  -0.534   5.135 -2.2160 -0.9805 -0.2404
  159SAPE  H20T17736   2.897  -0.525   4.973  0.0367  1.7667 -1.7778
  159SAPE   C3317737   3.267  -0.717   3.282 -0.0700 -0.0025 -0.1510
  159SAPE   H3X17738   3.316  -0.654   3.205  1.3780 -0.0869  0.6594
  159SAPE   H3Y17739   3.239  -0.820   3.250  0.0598 -1.1085  2.9348
  159SAPE   C3417740   3.366  -0.730   3.399 -0.3297 -0.0350 -0.6300
  159SAPE   H4X17741   3.414  -0.630   3.408  3.3209 -1.7421  0.6601
  159SAPE   H4Y17742   3.450  -0.799   3.375  0.4107  0.9144 -0.8344
  159SAPE   C3517743   3.324  -0.776   3.534 -0.2544  0.4652  0.0505
  159SAPE   H5X17744   3.296  -0.883   3.530  0.3255  0.2678  0.9285
  159SAPE   H5Y17745   3.245  -0.710   3.575 -0.6483  1.0988 -1.6451
  159SAPE   C3617746   3.439  -0.760   3.632 -0.4386 -0.7060  0.0023
  159SAPE   H6X17747   3.488  -0.661   3.630 -0.8588 -0.5000 -0.8231
  159SAPE   H6Y17748   3.519  -0.834   3.609 -1.7225 -2.1070 -0.1948
  159SAPE   C3717749   3.388  -0.780   3.779 -0.3125 -0.2882  0.3775
  159SAPE   H7X17750   3.316  -0.863   3.798 -0.8037  0.3381  1.3388
  159SAPE   H7Y17751   3.340  -0.682   3.801  0.8072  0.2791  0.3636
  159SAPE   C3817752   3.513  -0.803   3.871 -0.2114 -0.0789  0.1696
  159SAPE   H8X17753   3.602  -0.750   3.831 -0.6373  0.3275 -0.2483
  159SAPE   H8Y17754   3.537  -0.907   3.842  1.3268 -0.1842  1.6460
  159SAPE   C3917755   3.487  -0.793   4.015  0.2926  0.2181  0.1188
  159SAPE   H9X17756   3.574  -0.824   4.077 -0.7997  1.3221  2.3247
  159SAPE   H9Y17757   3.406  -0.867   4.032  2.1188 -1.6639  1.0058
  159SAPE  C31017758   3.441  -0.651   4.062  0.1425  0.1627  0.1545
  159SAPE  H10X17759   3.345  -0.618   4.017  0.6388  0.1909 -0.9022
  159SAPE  H10Y17760   3.509  -0.575   4.019  0.7756 -1.9799 -2.8960
  159SAPE  C31117761   3.434  -0.648   4.213  0.8521  0.0580 -0.7508
  159SAPE  H11X17762   3.361  -0.569   4.239 -1.0448 -1.6771 -0.5406
  159SAPE  H11Y17763   3.535  -0.616   4.245  0.4711  2.1080 -1.4365
  159SAPE  C31217764   3.401  -0.781   4.285 -0.3020  0.2051 -0.7933
  159SAPE  H12X17765   3.478  -0.860   4.265  1.8648  1.7762  0.8170
  159SAPE  H12Y17766   3.304  -0.809   4.240 -0.9651  2.4224 -0.8495
  159SAPE  C31317767   3.383  -0.762   4.441  0.3882 -0.3690  0.7664
  159SAPE  H13X17768   3.297  -0.693   4.454  0.3024 -0.4954  0.8764
  159SAPE  H13Y17769   3.470  -0.709   4.485  0.2093  0.7190 -0.1529
  159SAPE  C31417770   3.371  -0.889   4.520 -0.1429 -0.9368  0.5152
  159SAPE  H14X17771   3.466  -0.949   4.518  0.5666  0.1263  1.3630
  159SAPE  H14Y17772   3.298  -0.963   4.480  0.0552 -0.4659 -0.7865
  159SAPE  C31517773   3.322  -0.871   4.659  0.8416  0.1163 -0.1782
  159SAPE  H15X17774   3.211  -0.869   4.657  0.8135 -1.2836 -1.9886
  159SAPE  H15Y17775   3.378  -0.795   4.718  2.2252  0.4038 -1.7929
  159SAPE  C31617776   3.344  -0.998   4.751 -0.0261 -0.0183  0.1686
  159SAPE  H16X17777   3.320  -1.084   4.685  0.7285 -0.1487  0.0538
  159SAPE  H16Y17778   3.274  -0.992   4.837 -0.4155 -1.3019 -0.0455
  159SAPE  C31717779   3.491  -1.005   4.820 -0.4236 -0.5551 -0.0534
  159SAPE  H17X17780   3.510  -0.920   4.888 -0.7728  0.2496 -0.9348
  159SAPE  H17Y17781   3.564  -0.999   4.736  0.1653  0.8893  0.5338
  159SAPE  C31817782   3.512  -1.140   4.900  0.2731  0.0543 -0.8298
  159SAPE  H18X17783   3.453  -1.144   4.994  1.1990  0.4820 -0.2141
  159SAPE  H18Y17784   3.615  -1.139   4.943 -0.2427 -1.7808  0.6257
  159SAPE  H18Z17785   3.506  -1.232   4.838  0.4768 -2.1987  2.2159
  160SAPE     N17786   4.715   4.998   2.703 -0.2727 -0.0129 -0.2370
  160SAPE   HN117787   4.703   5.066   2.781 -4.6925 -0.3310 -0.3813
  160SAPE   HN217788   4.695   5.042   2.611 -2.3177 -2.0584 -0.8536
  160SAPE   HN317789   4.639   4.927   2.704 -1.1969  0.9457 -0.2431
  160SAPE   C1217790   4.847   4.932   2.702 -1.2771  0.1371  0.6654
  160SAPE  H12A17791   4.927   5.003   2.673 -0.4868 -0.8860  0.2664
  160SAPE  H12B17792   4.845   4.859   2.619 -0.0610  1.5270 -0.6532
  160SAPE   C1117793   4.887   4.865   2.832  0.5431  0.5124  0.1433
  160SAPE  H11A17794   4.896   4.945   2.908 -0.5165 -0.2995  1.1480
  160SAPE  H11B17795   4.981   4.805   2.824  0.4422  0.5641 -2.1190
  160SAPE     P17796   4.791   4.622   2.882 -0.0523 -0.1389 -0.2241
  160SAPE   O1317797   4.664   4.567   2.836  0.0583  0.2109 -1.0418
  160SAPE   O1417798   4.906   4.579   2.803  0.0837  0.3218  0.0904
  160SAPE   O1217799   4.779   4.778   2.876  0.3317  0.2111  0.0399
  160SAPE   O1117800   4.825   4.585   3.024 -0.1323  0.3518  0.1964
  160SAPE    C117801   4.940   4.639   3.092 -0.0102  0.4000  0.6446
  160SAPE    HA17802   4.990   4.548   3.131 -0.3213 -0.3100 -0.5549
  160SAPE    HB17803   5.019   4.684   3.029 -0.3662  0.0241 -0.0877
  160SAPE    C217804   4.900   4.744   3.201 -0.3321  0.4491  0.7370
  160SAPE    HS17805   4.926   4.843   3.160 -1.3260  0.9438  1.2518
  160SAPE   O2117806   4.975   4.720   3.318  0.4713  0.2416 -0.5014
  160SAPE   C2117807   5.103   4.699   3.325 -0.2978 -0.0819  0.4897
  160SAPE   O2217808   5.185   4.718   3.235  0.3678  0.4421 -0.0121
  160SAPE   C2217809   5.140   4.661   3.467  0.3525 -0.1785  0.0280
  160SAPE   H2R17810   5.116   4.741   3.539  1.3858 -0.2648  0.4868
  160SAPE   H2S17811   5.074   4.576   3.494  0.4264 -1.0581 -2.3753
  160SAPE    C317812   4.748   4.766   3.228 -0.4647  0.4140  0.5946
  160SAPE    HX17813   4.705   4.664   3.245 -3.1194  0.8133 -2.7563
  160SAPE    HY17814   4.696   4.803   3.137 -0.5128 -2.9119 -0.8736
  160SAPE   O3117815   4.708   4.853   3.335  0.2913  0.7642  0.3734
  160SAPE   C3117816   4.676   4.787   3.444 -0.0852  0.6799  0.0684
  160SAPE   O3217817   4.695   4.670   3.470  0.2753 -0.4294  0.1570
  160SAPE   C3217818   4.589   4.881   3.527  0.2941 -0.8561 -0.5604
  160SAPE   H2X17819   4.485   4.867   3.490  0.2514  0.8572 -1.1718
  160SAPE   H2Y17820   4.620   4.983   3.493  1.6632 -1.7353 -2.1544
  160SAPE   C2317821   5.292   4.625   3.493 -0.0570 -0.1129 -0.3059
  160SAPE   H3R17822   5.354   4.635   3.402  0.6725 -0.4429  0.1443
  160SAPE   H3S17823   5.299   4.521   3.531  0.2082 -0.4448 -1.2314
  160SAPE   C2417824   5.350   4.708   3.614 -0.4976  0.2644 -0.2205
  160SAPE   H4R17825   5.274   4.707   3.695 -1.6367  1.0433 -1.2424
  160SAPE   H4S17826   5.359   4.816   3.587 -0.5796 -0.2473 -2.5672
  160SAPE   C2517827   5.485   4.656   3.651 -0.9346 -0.3060  0.3288
  160SAPE   H5R17828   5.552   4.671   3.565  0.0215  2.0755  1.4083
  160SAPE   C2617829   5.521   4.600   3.770 -0.3224  0.5197 -0.8077
  160SAPE   H6R17830   5.622   4.558   3.779 -1.2985 -1.6886  0.4555
  160SAPE   C2717831   5.434   4.591   3.887 -0.0299 -0.0298 -0.6658
  160SAPE   H7R17832   5.341   4.545   3.848  0.6537 -1.5912 -0.5435
  160SAPE   H7S17833   5.399   4.691   3.922 -0.3270 -0.0762 -0.8239
  160SAPE   C2817834   5.483   4.513   4.007 -0.3282  0.1230 -0.5803
  160SAPE   H8R17835   5.428   4.418   4.008 -1.3566  0.6877  0.4933
  160SAPE   C2917836   5.561   4.566   4.107  0.1079  0.0901  0.8088
  160SAPE   H9R17837   5.591   4.503   4.191 -0.8651 -3.3474 -1.1977
  160SAPE  C21017838   5.623   4.703   4.113 -0.3326  0.2358  0.4255
  160SAPE  H10R17839   5.570   4.774   4.045 -0.9046 -1.2400 -0.7348
  160SAPE  H10S17840   5.716   4.710   4.052 -1.2228  1.1362 -0.8940
  160SAPE  C21117841   5.641   4.760   4.247 -0.5801  0.3873 -0.6372
  160SAPE  H11R17842   5.564   4.736   4.322 -0.3281 -1.0559 -0.8228
  160SAPE  C21217843   5.731   4.861   4.272  0.4166 -0.0098  0.4035
  160SAPE  H12R17844   5.734   4.912   4.369 -0.2758  0.3921  0.2235
  160SAPE  C21317845   5.837   4.907   4.175 -0.7851  0.1698  0.5357
  160SAPE  H13R17846   5.910   4.826   4.154 -1.1739  0.2405 -1.2144
  160SAPE  H13S17847   5.901   4.972   4.238  1.0442 -2.2681  1.3465
  160SAPE  C21417848   5.801   4.993   4.050  0.5153  0.2284  0.0327
  160SAPE  H14R17849   5.742   5.078   4.086 -1.0283 -1.3675  1.4987
  160SAPE  C21517850   5.836   4.970   3.919 -0.4231 -0.1059 -0.1917
  160SAPE  H15R17851   5.794   5.038   3.843 -0.9675  0.4853  0.6150
  160SAPE  C21617852   5.918   4.854   3.864  0.0827  0.4031 -0.1050
  160SAPE  H16R17853   5.960   4.778   3.933 -3.3579 -1.6301  0.0164
  160SAPE  H16S17854   6.012   4.899   3.828 -0.9802  2.8392 -0.0283
  160SAPE  C21717855   5.845   4.792   3.743 -0.3904 -0.2440 -0.8064
  160SAPE  H17R17856   5.841   4.870   3.663  1.2367 -0.6890 -1.3606
  160SAPE  H17S17857   5.743   4.763   3.776 -0.8217  1.2945 -0.6933
  160SAPE  C21817858   5.924   4.670   3.693  0.7119  0.4411 -0.6877
  160SAPE  H18R17859   5.969   4.624   3.783  1.0753  0.4440 -0.8689
  160SAPE  H18S17860   6.015   4.707   3.640  1.4399 -1.1465 -0.5874
  160SAPE  C21917861   5.847   4.587   3.589  0.0865  0.6503  0.5065
  160SAPE  H19R17862   5.823   4.659   3.507  1.2506 -0.1016 -0.5373
  160SAPE  H19S17863   5.753   4.544   3.631 -0.2352  0.9557  0.1087
  160SAPE  C22017864   5.932   4.471   3.531  0.9223 -0.2576 -0.2206
  160SAPE  H20R17865   5.867   4.400   3.476  0.1218 -1.5859  2.2972
  160SAPE  H20S17866   5.969   4.420   3.623 -0.3911  0.0336  0.4893
  160SAPE  H20T17867   6.013   4.500   3.461 -0.7795 -1.2897 -2.7744
  160SAPE   C3317868   4.604   4.856   3.678 -0.2660 -0.2070  0.5086
  160SAPE   H3X17869   4.561   4.942   3.733  0.7626  0.0350  0.9588
  160SAPE   H3Y17870   4.709   4.835   3.708  0.1601 -0.9462 -1.3238
  160SAPE   C3417871   4.528   4.732   3.719  0.3054  0.4181 -0.6062
  160SAPE   H4X17872   4.553   4.651   3.647 -1.3161  1.0260 -1.9192
  160SAPE   H4Y17873   4.421   4.761   3.727 -0.6676 -3.1450  2.3573
  160SAPE   C3517874   4.579   4.678   3.858  0.3906 -1.4745 -0.2628
  160SAPE   H5X17875   4.689   4.669   3.854  0.6241 -1.2061  3.0119
  160SAPE   H5Y17876   4.527   4.583   3.884  1.6308 -2.2682 -0.6121
  160SAPE   C3617877   4.569   4.776   3.981  0.2644 -0.1619  0.4503
  160SAPE   H6X17878   4.464   4.810   3.992  1.0281  1.9118  2.0481
  160SAPE   H6Y17879   4.634   4.863   3.958  0.3993 -0.3299  0.1876
  160SAPE   C3717880   4.633   4.713   4.104  0.4402 -0.0848 -0.6015
  160SAPE   H7X17881   4.744   4.713   4.097  0.5174  0.2120  0.4535
  160SAPE   H7Y17882   4.600   4.607   4.106 -0.5867  0.1746 -2.2027
  160SAPE   C3817883   4.579   4.774   4.234  0.4323  0.3709 -0.3928
  160SAPE   H8X17884   4.471   4.750   4.246  0.4890 -0.1922 -0.9356
  160SAPE   H8Y17885   4.592   4.885   4.233 -0.1833  0.4456 -0.6296
  160SAPE   C3917886   4.654   4.730   4.352 -0.8162 -0.3333  0.4658
  160SAPE   H9X17887   4.759   4.761   4.332 -1.4506  1.4979 -0.2684
  160SAPE   H9Y17888   4.641   4.620   4.350 -2.4103 -0.1611 -0.1413
  160SAPE  C31017889   4.603   4.790   4.480 -0.0525  0.2613  0.4344
  160SAPE  H10X17890   4.499   4.753   4.489 -0.3918  0.7611 -1.1683
  160SAPE  H10Y17891   4.588   4.900   4.473  0.6191  0.3049 -0.4712
  160SAPE  C31117892   4.686   4.763   4.601  0.0867 -0.2343 -0.2104
  160SAPE  H11X17893   4.785   4.809   4.580  0.4371 -0.6728  0.4597
  160SAPE  H11Y17894   4.705   4.655   4.621 -0.1208 -0.4082 -0.9200
  160SAPE  C31217895   4.634   4.836   4.725 -0.1930 -0.5801  0.3028
  160SAPE  H12X17896   4.545   4.782   4.765  1.2704 -2.4650  1.1087
  160SAPE  H12Y17897   4.627   4.945   4.704 -0.0985 -0.2499  1.8907
  160SAPE  C31317898   4.724   4.827   4.850 -0.3998  0.1714  0.2883
  160SAPE  H13X17899   4.676   4.867   4.942 -0.4988 -1.7341  1.0946
  160SAPE  H13Y17900   4.821   4.877   4.828 -0.0792  0.1022  1.4662
  160SAPE  C31417901   4.771   4.681   4.880 -0.1677 -0.2696  0.6847
  160SAPE  H14X17902   4.832   4.639   4.797  2.5718 -0.8386  2.8325
  160SAPE  H14Y17903   4.684   4.615   4.901  1.8155 -2.8603  1.3084
  160SAPE  C31517904   4.843   4.682   5.015  0.2465 -0.8013 -0.2538
  160SAPE  H15X17905   4.772   4.747   5.071  0.2309 -0.9100 -0.1465
  160SAPE  H15Y17906   4.941   4.734   5.008 -0.8294  1.2890 -0.6038
  160SAPE  C31617907   4.861   4.542   5.082 -0.3904  0.5842 -0.2992
  160SAPE  H16X17908   4.947   4.560   5.151  0.5387 -2.7637 -0.4186
  160SAPE  H16Y17909   4.891   4.476   4.998 -0.6246 -0.6128  0.5326
  160SAPE  C31717910   4.730   4.492   5.144 -0.2947 -0.1510  0.8284
  160SAPE  H17X17911   4.673   4.462   5.054 -1.4217  2.1622  0.7102
  160SAPE  H17Y17912   4.687   4.576   5.202  0.1790  0.8940 -0.2830
  160SAPE  C31817913   4.729   4.364   5.230 -0.3080  0.7413 -0.0191
  160SAPE  H18X17914   4.753   4.277   5.166 -0.6682  0.8675 -0.3306
  160SAPE  H18Y17915   4.628   4.342   5.271  0.3241 -0.1487  1.1439
  160SAPE  H18Z17916   4.810   4.359   5.306 -1.1710  1.8281  1.0055
  161SAPE     N17917   1.069   0.238   2.546  0.7846  0.1391  0.2725
  161SAPE   HN117918   1.166   0.214   2.516  1.1182  0.5366  1.0214
  161SAPE   HN217919   1.044   0.331   2.506  1.2654  0.0659 -0.2054
  161SAPE   HN317920   1.065   0.236   2.650  1.9139 -3.4843  0.3626
  161SAPE   C1217921   0.959   0.145   2.511 -0.4664 -0.2373 -0.1761
  161SAPE  H12A17922   1.003   0.043   2.512  3.6127  1.3062 -1.1862
  161SAPE  H12B17923   0.918   0.166   2.410 -0.4532 -2.7561 -0.7597
  161SAPE   C1117924   0.855   0.169   2.615  0.2510 -0.9421  0.1872
  161SAPE  H11A17925   0.762   0.115   2.588  0.6029 -0.7571 -1.5403
  161SAPE  H11B17926   0.820   0.274   2.608 -5.0099 -2.3999  0.7224
  161SAPE     P17927   0.835   0.145   2.875 -0.2186  0.2022  0.1145
  161SAPE   O1317928   0.691   0.143   2.844 -0.4945  0.6969  0.1170
  161SAPE   O1417929   0.887   0.052   2.979 -0.4676 -0.0345  0.0978
  161SAPE   O1217930   0.924   0.130   2.741  0.3462 -0.1840 -0.0320
  161SAPE   O1117931   0.861   0.291   2.917 -0.1414  0.3609 -0.1318
  161SAPE    C117932   0.981   0.351   2.971 -0.0120 -0.1396 -0.2784
  161SAPE    HA17933   1.067   0.284   2.951  0.8883  0.6146  0.9054
  161SAPE    HB17934   1.005   0.438   2.906 -0.9640 -0.0397 -0.5216
  161SAPE    C217935   0.957   0.393   3.119 -0.0460  0.0762 -0.0190
  161SAPE    HS17936   1.051   0.444   3.150  0.8920 -1.2530 -0.5873
  161SAPE   O2117937   0.927   0.284   3.213  0.3245 -0.4122  0.1228
  161SAPE   C2117938   1.032   0.206   3.229  0.6676 -0.4065 -0.3212
  161SAPE   O2217939   1.142   0.226   3.179  0.1935 -0.1436 -0.1581
  161SAPE   C2217940   0.990   0.082   3.316 -0.2865  0.3125  0.1694
  161SAPE   H2R17941   0.926   0.117   3.400 -2.1344 -1.3035 -0.4995
  161SAPE   H2S17942   0.943   0.012   3.244 -1.7319  2.7186 -1.3729
  161SAPE    C317943   0.833   0.489   3.128  0.1151 -0.0097 -0.1790
  161SAPE    HX17944   0.753   0.468   3.055  2.6418  1.0551 -3.5043
  161SAPE    HY17945   0.864   0.589   3.089 -0.4045  0.5426  0.7715
  161SAPE   O3117946   0.782   0.507   3.265 -0.0882  0.6017 -0.3908
  161SAPE   C3117947   0.683   0.427   3.305 -0.4519  0.0288  0.6406
  161SAPE   O3217948   0.636   0.335   3.241 -0.3846 -0.1774 -0.5963
  161SAPE   C3217949   0.623   0.480   3.431 -0.0006  0.0762  0.3866
  161SAPE   H2X17950   0.539   0.410   3.451 -0.2688  0.3205  0.1169
  161SAPE   H2Y17951   0.585   0.583   3.415 -0.8747 -0.2978  0.0175
  161SAPE   C2317952   1.110   0.005   3.379  0.0563  0.2750  0.3660
  161SAPE   H3R17953   1.189  -0.007   3.301 -2.5002 -0.6784 -2.2786
  161SAPE   H3S17954   1.069  -0.095   3.403 -0.9093  1.2963  3.4313
  161SAPE   C2417955   1.169   0.067   3.510 -0.0544 -0.3457 -0.2233
  161SAPE   H4R17956   1.213   0.167   3.492  1.8556 -0.9487  0.7575
  161SAPE   H4S17957   1.259   0.004   3.528  1.0651  1.2185 -0.1869
  161SAPE   C2517958   1.068   0.043   3.630 -0.0271  0.7858  0.8671
  161SAPE   H5R17959   1.029  -0.059   3.641  1.8328 -0.1016 -0.3454
  161SAPE   C2617960   1.042   0.132   3.724 -0.0826 -0.0569  0.2875
  161SAPE   H6R17961   0.976   0.099   3.805  0.8598 -0.2986  0.9735
  161SAPE   C2717962   1.092   0.276   3.740  0.3722  0.2859  0.0965
  161SAPE   H7R17963   1.011   0.333   3.790 -0.8760 -0.6481 -0.8012
  161SAPE   H7S17964   1.113   0.321   3.641  2.2716 -0.2397  0.2198
  161SAPE   C2817965   1.220   0.276   3.827  0.1244 -0.2353  0.2234
  161SAPE   H8R17966   1.300   0.216   3.781 -0.5867  1.1132 -3.0304
  161SAPE   C2917967   1.226   0.324   3.951 -0.6485 -0.9201 -0.1294
  161SAPE   H9R17968   1.319   0.313   4.009 -0.8040  2.0640  0.8369
  161SAPE  C21017969   1.125   0.391   4.041 -0.6684  0.3245 -0.2432
  161SAPE  H10R17970   1.112   0.345   4.141 -2.4125  1.0032 -0.1182
  161SAPE  H10S17971   1.030   0.373   3.987  0.0606 -0.0061 -1.4380
  161SAPE  C21117972   1.167   0.533   4.059 -0.1588 -0.2995 -0.3076
  161SAPE  H11R17973   1.121   0.610   3.995  0.3737  0.7621  0.5393
  161SAPE  C21217974   1.257   0.588   4.146  0.0595  0.7080  0.6218
  161SAPE  H12R17975   1.274   0.697   4.145 -2.0696  1.1014 -0.6323
  161SAPE  C21317976   1.339   0.509   4.240 -0.8189  0.1164  0.1781
  161SAPE  H13R17977   1.380   0.418   4.191  0.3877 -0.4923  2.2341
  161SAPE  H13S17978   1.259   0.469   4.306 -1.4465  0.1281 -0.5470
  161SAPE  C21417979   1.462   0.574   4.300 -0.2218 -0.3166 -0.1186
  161SAPE  H14R17980   1.534   0.615   4.228 -0.7159  1.8513  0.5271
  161SAPE  C21517981   1.489   0.567   4.436 -0.1171  0.6990 -0.1846
  161SAPE  H15R17982   1.576   0.624   4.471 -1.3652  2.0561  0.9049
  161SAPE  C21617983   1.409   0.504   4.550 -0.1539 -0.1704 -0.1666
  161SAPE  H16R17984   1.474   0.443   4.615  1.7570  1.7543 -0.1432
  161SAPE  H16S17985   1.327   0.443   4.505 -0.1814  1.0393 -1.8531
  161SAPE  C21717986   1.350   0.622   4.632  0.3069 -0.0739 -0.3625
  161SAPE  H17R17987   1.294   0.687   4.561  0.9600  0.8335 -0.0658
  161SAPE  H17S17988   1.429   0.691   4.668 -0.3022  0.5560 -0.2095
  161SAPE  C21817989   1.257   0.576   4.747  0.2042 -0.3048  0.1392
  161SAPE  H18R17990   1.316   0.562   4.839 -2.1794 -0.5614  1.7128
  161SAPE  H18S17991   1.212   0.476   4.727  1.1384 -0.7345  0.1527
  161SAPE  C21917992   1.135   0.667   4.757 -0.2060  0.4049  0.2724
  161SAPE  H19R17993   1.057   0.612   4.813 -0.6541  1.4786  0.7424
  161SAPE  H19S17994   1.107   0.686   4.651 -1.5731  3.5322  1.0627
  161SAPE  C22017995   1.168   0.797   4.833 -0.0260  0.3971 -0.0092
  161SAPE  H20R17996   1.084   0.869   4.846 -0.3817  0.4636 -2.3156
  161SAPE  H20S17997   1.260   0.849   4.799  0.6657  0.6317  2.0238
  161SAPE  H20T17998   1.198   0.763   4.935 -0.7793 -1.0011 -0.2332
  161SAPE   C3317999   0.725   0.477   3.547  0.3502 -0.1568  0.1497
  161SAPE   H3X18000   0.809   0.546   3.522  0.0165 -0.1630 -1.0144
  161SAPE   H3Y18001   0.760   0.373   3.566  1.8609  0.5776  1.6875
  161SAPE   C3418002   0.655   0.530   3.668 -0.6202 -0.5199 -0.2522
  161SAPE   H4X18003   0.594   0.447   3.710 -0.7503  0.6027  1.9184
  161SAPE   H4Y18004   0.599   0.624   3.644  1.9044  0.7536 -1.5061
  161SAPE   C3518005   0.751   0.561   3.789  0.7236 -0.6820  0.5057
  161SAPE   H5X18006   0.819   0.643   3.757 -0.1032 -0.0664  0.2612
  161SAPE   H5Y18007   0.822   0.480   3.814  2.4315  1.2424  2.3614
  161SAPE   C3618008   0.684   0.590   3.922 -0.0544 -0.5740  0.2187
  161SAPE   H6X18009   0.592   0.528   3.921 -0.5073  0.0694  0.8460
  161SAPE   H6Y18010   0.657   0.697   3.930 -1.5281 -1.0415  2.3534
  161SAPE   C3718011   0.771   0.554   4.038  0.4468 -0.3262  0.2575
  161SAPE   H7X18012   0.853   0.630   4.033  0.5766 -0.5169 -4.0199
  161SAPE   H7Y18013   0.812   0.451   4.043  1.1299 -0.0600  0.2880
  161SAPE   C3818014   0.710   0.588   4.180  0.3506 -0.1013 -0.0284
  161SAPE   H8X18015   0.626   0.516   4.182 -0.8995  1.2575 -1.5006
  161SAPE   H8Y18016   0.661   0.686   4.162 -0.1553 -0.1082  1.2078
  161SAPE   C3918017   0.795   0.593   4.300  0.5210  0.1956 -0.1445
  161SAPE   H9X18018   0.857   0.501   4.301 -0.1955 -0.2905 -0.2910
  161SAPE   H9Y18019   0.725   0.601   4.386  0.4493 -0.5667 -0.1281
  161SAPE  C31018020   0.885   0.714   4.301 -0.2280  0.3871 -0.2687
  161SAPE  H10X18021   0.816   0.799   4.282 -0.2428  0.2126 -1.0163
  161SAPE  H10Y18022   0.958   0.705   4.218  1.2150 -0.9497  1.0814
  161SAPE  C31118023   0.961   0.731   4.432  0.1821 -0.4186  0.6728
  161SAPE  H11X18024   1.022   0.644   4.464 -0.0756 -1.0431 -0.4734
  161SAPE  H11Y18025   0.870   0.728   4.495 -2.1152 -3.2183 -2.4294
  161SAPE  C31218026   1.043   0.859   4.457  0.3359 -1.0803 -0.5334
  161SAPE  H12X18027   1.123   0.855   4.379 -1.3740 -1.5763 -2.3291
  161SAPE  H12Y18028   1.094   0.869   4.555 -2.4234  0.8756  0.8223
  161SAPE  C31318029   0.969   0.986   4.428  0.7036  0.4994 -0.6648
  161SAPE  H13X18030   0.868   0.980   4.474  1.0118 -0.2777 -0.0569
  161SAPE  H13Y18031   0.939   0.986   4.321  0.3651  2.8613 -0.6136
  161SAPE  C31418032   1.041   1.113   4.448  0.0528  0.5881 -0.1828
  161SAPE  H14X18033   1.129   1.130   4.382  0.0257  1.9922  0.1041
  161SAPE  H14Y18034   1.075   1.121   4.554 -0.7368 -1.0077  0.2240
  161SAPE  C31518035   0.948   1.229   4.406 -0.1669  0.1201 -0.4505
  161SAPE  H15X18036   0.850   1.199   4.448  0.3423 -1.2784 -0.2127
  161SAPE  H15Y18037   0.941   1.230   4.295 -2.7339 -1.8795 -0.3882
  161SAPE  C31618038   0.982   1.362   4.476 -0.3849 -0.6838  0.3171
  161SAPE  H16X18039   0.915   1.443   4.441  0.8460  0.1860 -0.0832
  161SAPE  H16Y18040   1.087   1.385   4.451 -0.9983  0.0890 -1.7609
  161SAPE  C31718041   0.965   1.358   4.632  0.7860 -0.4122  0.9070
  161SAPE  H17X18042   1.030   1.283   4.681 -2.5360 -1.9520  3.3161
  161SAPE  H17Y18043   0.861   1.323   4.650  0.0458  0.9505 -0.4207
  161SAPE  C31818044   0.975   1.499   4.702  0.3277  0.3655 -0.7234
  161SAPE  H18X18045   0.952   1.464   4.804 -0.0832  0.5147 -0.7594
  161SAPE  H18Y18046   0.904   1.571   4.654  1.2162  1.5469 -0.3069
  161SAPE  H18Z18047   1.079   1.535   4.691  0.1646  1.3632  0.7760
  162SAPE     N18048   2.858   4.307   2.822  0.1602  0.3682 -0.5890
  162SAPE   HN118049   2.874   4.206   2.846 -0.7428  0.6678  1.5731
  162SAPE   HN218050   2.803   4.348   2.900  1.3534  1.4736 -0.3027
  162SAPE   HN318051   2.789   4.318   2.746 -0.8820 -1.1529  0.0663
  162SAPE   C1218052   2.989   4.383   2.812 -0.4603  1.0691  0.1215
  162SAPE  H12A18053   3.002   4.432   2.911 -0.2586 -1.5148  1.4926
  162SAPE  H12B18054   2.980   4.460   2.734 -1.6060  0.4582 -0.3719
  162SAPE   C1118055   3.101   4.289   2.777  0.4297 -0.2971 -0.2204
  162SAPE  H11A18056   3.198   4.343   2.783  0.3785 -0.2925  0.8878
  162SAPE  H11B18057   3.090   4.259   2.671 -2.0136  2.3090 -0.8167
  162SAPE     P18058   3.195   4.057   2.853  0.3144  0.1409  0.1787
  162SAPE   O1318059   3.127   3.926   2.836  0.0375 -0.7656  0.9842
  162SAPE   O1418060   3.291   4.093   2.750 -0.2097  0.2311  0.7892
  162SAPE   O1218061   3.095   4.175   2.861 -0.0617 -0.4539  0.5140
  162SAPE   O1118062   3.271   4.060   2.989  0.5593  0.0404  0.5847
  162SAPE    C118063   3.277   4.177   3.068 -0.1369  0.4290 -0.7967
  162SAPE    HA18064   3.361   4.167   3.140 -1.5061  2.9119  1.2892
  162SAPE    HB18065   3.298   4.272   3.015 -1.9791  1.6082  0.4859
  162SAPE    C218066   3.153   4.209   3.151  0.5427  0.9878  0.4696
  162SAPE    HS18067   3.083   4.265   3.085  2.0011  2.0527 -0.2288
  162SAPE   O2118068   3.203   4.288   3.256 -0.5750 -0.0447 -0.3712
  162SAPE   C2118069   3.105   4.353   3.315 -0.3710 -0.1954 -0.4095
  162SAPE   O2218070   2.995   4.374   3.269 -0.1923 -0.3530  0.5682
  162SAPE   C2218071   3.149   4.403   3.456  0.2097  0.2569  0.0714
  162SAPE   H2R18072   3.227   4.334   3.494 -1.0312 -0.0954  2.1498
  162SAPE   H2S18073   3.184   4.508   3.461  1.6680 -0.2031  0.1026
  162SAPE    C318074   3.075   4.077   3.207 -0.8129  0.3083  0.4798
  162SAPE    HX18075   3.147   4.047   3.287  0.2475  2.2646  0.3383
  162SAPE    HY18076   3.066   3.999   3.128 -3.7351  0.2591  0.7744
  162SAPE   O3118077   2.941   4.101   3.267 -0.4919 -0.6415 -0.1215
  162SAPE   C3118078   2.838   4.105   3.173 -0.0157 -0.2282 -0.1881
  162SAPE   O3218079   2.863   4.090   3.056  0.3390  0.8440  0.0999
  162SAPE   C3218080   2.700   4.122   3.239  0.7887 -0.9332  0.1280
  162SAPE   H2X18081   2.641   4.045   3.185 -1.3057  0.3366  0.5146
  162SAPE   H2Y18082   2.669   4.225   3.211 -0.9900 -0.7072  2.6148
  162SAPE   C2318083   3.029   4.383   3.553 -0.3873  0.0957  0.0103
  162SAPE   H3R18084   2.993   4.278   3.555 -0.3184  0.0532 -0.7930
  162SAPE   H3S18085   2.940   4.439   3.518 -2.2406 -2.8842 -0.4090
  162SAPE   C2418086   3.069   4.417   3.700  0.7245  0.5606 -0.4085
  162SAPE   H4R18087   3.106   4.522   3.702  2.0093  0.1191  1.2961
  162SAPE   H4S18088   3.141   4.344   3.742  0.3559 -1.7040 -3.3939
  162SAPE   C2518089   2.939   4.421   3.775 -0.2109  0.4427 -0.1334
  162SAPE   H5R18090   2.859   4.358   3.734  1.1714 -2.5848  1.4400
  162SAPE   C2618091   2.929   4.469   3.901 -0.3350  0.0608 -0.4283
  162SAPE   H6R18092   2.828   4.462   3.944  0.1704 -0.1118  0.7562
  162SAPE   C2718093   3.034   4.544   3.984  0.7258  0.0081  0.1723
  162SAPE   H7R18094   3.126   4.562   3.923  1.8139 -3.6509  0.4575
  162SAPE   H7S18095   3.076   4.502   4.078  1.6373 -1.3061 -0.7730
  162SAPE   C2818096   2.963   4.678   4.003  0.3147 -0.5705 -0.0321
  162SAPE   H8R18097   2.919   4.737   3.922  0.8936  2.7080  1.8484
  162SAPE   C2918098   2.940   4.741   4.122 -0.3050 -0.6870 -0.3399
  162SAPE   H9R18099   2.884   4.834   4.110 -1.3655 -1.3005 -0.2882
  162SAPE  C21018100   2.970   4.688   4.258  0.0128 -0.1305  0.3606
  162SAPE  H10R18101   3.077   4.659   4.261  0.5968  1.7926  0.0231
  162SAPE  H10S18102   2.918   4.590   4.267 -0.1307 -0.2900 -1.7644
  162SAPE  C21118103   2.954   4.791   4.369 -0.8929 -0.0458  0.3362
  162SAPE  H11R18104   3.010   4.885   4.352  0.9159 -1.5880 -3.3332
  162SAPE  C21218105   2.868   4.785   4.477 -0.2174 -0.5856 -0.4338
  162SAPE  H12R18106   2.860   4.877   4.538 -3.9632 -1.6569  0.9369
  162SAPE  C21318107   2.781   4.671   4.505 -0.1757 -0.3503  0.0085
  162SAPE  H13R18108   2.791   4.590   4.430  0.7431  0.4409 -0.7706
  162SAPE  H13S18109   2.676   4.705   4.492 -0.9283 -1.5292  2.3332
  162SAPE  C21418110   2.797   4.610   4.640 -0.0790  0.6177  0.0563
  162SAPE  H14R18111   2.867   4.526   4.645  1.4678  1.8983  0.8975
  162SAPE  C21518112   2.738   4.645   4.758 -0.5107 -0.0861  0.0228
  162SAPE  H15R18113   2.765   4.583   4.845  0.8820 -2.5342 -1.9981
  162SAPE  C21618114   2.636   4.751   4.786  0.0256 -0.6559 -0.1997
  162SAPE  H16R18115   2.565   4.725   4.867 -0.7479  1.1833 -0.2390
  162SAPE  H16S18116   2.580   4.760   4.691  2.1265 -1.0052 -1.5350
  162SAPE  C21718117   2.703   4.883   4.824  0.2291 -0.0360  0.2849
  162SAPE  H17R18118   2.625   4.959   4.806 -0.2542 -0.3878  0.8412
  162SAPE  H17S18119   2.778   4.904   4.745 -1.4854 -0.2462 -1.4612
  162SAPE  C21818120   2.749   4.893   4.967 -0.1457  0.1927  0.0895
  162SAPE  H18R18121   2.816   4.807   4.987 -0.9669 -0.3607  0.5117
  162SAPE  H18S18122   2.659   4.880   5.031  0.1110 -1.2688  0.1785
  162SAPE  C21918123   2.815   5.024   5.014 -0.6764 -0.3958 -0.0417
  162SAPE  H19R18124   2.768   5.116   4.973  1.1251  0.6805  0.1728
  162SAPE  H19S18125   2.923   5.017   4.989 -0.4057 -1.7636  1.3326
  162SAPE  C22018126   2.825   5.040   5.170 -0.1798  0.1416  0.2055
  162SAPE  H20R18127   2.837   4.942   5.221 -3.8113 -1.2224 -1.2701
  162SAPE  H20S18128   2.730   5.087   5.203  0.6660  1.4820  0.8524
  162SAPE  H20T18129   2.893   5.123   5.200 -0.2882 -0.0622  1.0367
  162SAPE   C3318130   2.693   4.121   3.390  0.5589  0.3164 -0.5095
  162SAPE   H3X18131   2.766   4.194   3.431 -0.6822  0.0175  2.5016
  162SAPE   H3Y18132   2.715   4.017   3.424 -0.6093 -0.1697 -1.1632
  162SAPE   C3418133   2.549   4.153   3.433  0.5901 -0.1098  0.2526
  162SAPE   H4X18134   2.481   4.092   3.371 -0.1710  0.1166  0.8378
  162SAPE   H4Y18135   2.530   4.253   3.389  0.6171 -0.4650 -0.5759
  162SAPE   C3518136   2.518   4.118   3.581 -0.6268 -0.0413 -0.5813
  162SAPE   H5X18137   2.550   4.013   3.595  1.0519  0.6282  1.0078
  162SAPE   H5Y18138   2.408   4.107   3.594 -0.7428 -4.2507 -3.1452
  162SAPE   C3618139   2.584   4.214   3.685  0.4354  0.4760 -0.2167
  162SAPE   H6X18140   2.585   4.315   3.639 -0.2908  0.0199 -1.2730
  162SAPE   H6Y18141   2.691   4.189   3.694 -0.0069 -0.8107  3.0686
  162SAPE   C3718142   2.517   4.199   3.817  0.3937  0.0567  0.8540
  162SAPE   H7X18143   2.542   4.097   3.853 -0.4242 -0.7933 -0.9062
  162SAPE   H7Y18144   2.406   4.197   3.810  0.4814 -1.3442 -0.5703
  162SAPE   C3818145   2.547   4.302   3.932  0.1170 -0.5205 -0.3684
  162SAPE   H8X18146   2.510   4.403   3.905 -0.6802  0.2774  3.2168
  162SAPE   H8Y18147   2.655   4.315   3.954 -0.1262  1.3621 -0.2111
  162SAPE   C3918148   2.483   4.267   4.075 -0.0823  0.3404 -0.1591
  162SAPE   H9X18149   2.508   4.161   4.097 -0.6876 -0.2704 -2.1649
  162SAPE   H9Y18150   2.376   4.255   4.048  0.0537 -3.8827  0.6074
  162SAPE  C31018151   2.513   4.380   4.180  0.1511  0.4498  0.0197
  162SAPE  H10X18152   2.478   4.479   4.144  0.8697  0.1159 -1.7164
  162SAPE  H10Y18153   2.624   4.374   4.179  0.1045 -1.8611 -1.7090
  162SAPE  C31118154   2.460   4.341   4.316  0.0479  0.7244  0.2147
  162SAPE  H11X18155   2.491   4.238   4.345 -0.3661  0.0741 -1.5354
  162SAPE  H11Y18156   2.349   4.345   4.321 -0.0066  1.5669 -1.2008
  162SAPE  C31218157   2.507   4.435   4.427  0.6111 -0.1120 -0.3717
  162SAPE  H12X18158   2.461   4.534   4.406 -1.4080 -0.2331  2.7819
  162SAPE  H12Y18159   2.618   4.437   4.421  0.6490 -0.3319  0.1984
  162SAPE  C31318160   2.457   4.407   4.572 -0.3704 -0.1169  0.2139
  162SAPE  H13X18161   2.537   4.449   4.637  0.0910 -0.6173 -0.0151
  162SAPE  H13Y18162   2.463   4.299   4.598  1.8361  0.2546  1.5143
  162SAPE  C31418163   2.321   4.477   4.605 -0.4488  0.7004 -0.4805
  162SAPE  H14X18164   2.233   4.418   4.571 -1.4351  1.2405  1.0309
  162SAPE  H14Y18165   2.329   4.582   4.569  5.1217  0.7080 -0.0709
  162SAPE  C31518166   2.308   4.485   4.761 -0.2984  0.2184 -0.0863
  162SAPE  H15X18167   2.219   4.542   4.796 -0.9598 -1.3561  0.9346
  162SAPE  H15Y18168   2.387   4.546   4.810  0.7705 -1.7787  0.7899
  162SAPE  C31618169   2.290   4.350   4.836  0.1483 -0.2331  0.1120
  162SAPE  H16X18170   2.384   4.290   4.834  1.6258  1.8655  1.5392
  162SAPE  H16Y18171   2.203   4.302   4.788  0.7657  1.1827 -2.6231
  162SAPE  C31718172   2.252   4.374   4.986  0.0400  0.2636 -0.0467
  162SAPE  H17X18173   2.222   4.274   5.024 -0.9691  0.3118 -0.6670
  162SAPE  H17Y18174   2.161   4.438   4.987  1.3055  2.2055  3.2168
  162SAPE  C31818175   2.359   4.442   5.068 -0.0149 -0.4089 -0.1282
  162SAPE  H18X18176   2.366   4.406   5.173  2.7753 -1.5995 -0.6227
  162SAPE  H18Y18177   2.342   4.552   5.067 -1.6982 -0.6497 -0.0098
  162SAPE  H18Z18178   2.460   4.431   5.024 -0.4350  0.7870 -1.4758
  163SAPE     N18179   0.646   1.188   2.580  0.4277 -0.0303  0.0893
  163SAPE   HN118180   0.578   1.199   2.502  0.0990 -0.3868  0.3229
  163SAPE   HN218181   0.647   1.084   2.589 -0.4326  0.0445  1.1352
  163SAPE   HN318182   0.601   1.241   2.657  1.0866  0.5620  0.0834
  163SAPE   C1218183   0.789   1.248   2.559  0.5004 -0.0630  0.0404
  163SAPE  H12A18184   0.850   1.175   2.502  0.7010  1.0282 -1.2212
  163SAPE  H12B18185   0.839   1.256   2.658  1.3633 -1.2145 -0.2833
  163SAPE   C1118186   0.779   1.379   2.473  0.0224  0.4929 -1.1757
  163SAPE  H11A18187   0.757   1.356   2.367 -0.6087 -2.3684 -0.5260
  163SAPE  H11B18188   0.885   1.413   2.466  0.3900 -0.6458 -1.3925
  163SAPE     P18189   0.712   1.593   2.622 -0.2599 -0.2034  0.0698
  163SAPE   O1318190   0.728   1.700   2.521 -0.1664  0.4260  0.9053
  163SAPE   O1418191   0.612   1.615   2.728 -0.1414  0.7238 -0.1450
  163SAPE   O1218192   0.677   1.462   2.541  0.8267  0.0518 -0.2786
  163SAPE   O1118193   0.853   1.554   2.689  0.6978 -0.3972  0.0641
  163SAPE    C118194   0.901   1.626   2.803  0.2083 -0.1732 -0.4706
  163SAPE    HA18195   1.011   1.640   2.792 -0.1463  0.8841 -3.9649
  163SAPE    HB18196   0.865   1.731   2.806  1.1852  0.1491  0.5813
  163SAPE    C218197   0.872   1.567   2.946  0.0043  0.1460 -0.4991
  163SAPE    HS18198   0.761   1.567   2.950  0.0006 -1.1178 -0.1013
  163SAPE   O2118199   0.934   1.647   3.056 -0.5396 -0.2067 -0.0366
  163SAPE   C2118200   0.870   1.765   3.068 -0.5491  0.7313 -0.4244
  163SAPE   O2218201   0.757   1.789   3.032  0.0482 -0.3733 -0.3521
  163SAPE   C2218202   0.959   1.873   3.133  0.1325 -0.1341  0.1609
  163SAPE   H2R18203   1.006   1.825   3.222 -1.9917  1.4067  2.2348
  163SAPE   H2S18204   1.039   1.897   3.060 -0.4028  1.4860  0.0665
  163SAPE    C318205   0.906   1.421   2.964  0.4585 -0.3958 -0.6032
  163SAPE    HX18206   1.016   1.416   2.951  0.7882  0.7569  1.3641
  163SAPE    HY18207   0.861   1.358   2.885 -0.5224 -4.8587  3.0670
  163SAPE   O3118208   0.887   1.375   3.098 -0.1403  0.7403 -0.2390
  163SAPE   C3118209   0.761   1.341   3.137 -0.9181 -0.1529  0.2739
  163SAPE   O3218210   0.662   1.346   3.065 -0.1164  0.3770  0.0434
  163SAPE   C3218211   0.768   1.292   3.282 -0.0075  0.6247  0.2186
  163SAPE   H2X18212   0.843   1.211   3.293 -0.5238  0.1261  0.1117
  163SAPE   H2Y18213   0.668   1.251   3.308  0.4777 -1.1630 -0.5705
  163SAPE   C2318214   0.899   2.001   3.199  0.8200  0.7486 -0.0026
  163SAPE   H3R18215   0.859   2.062   3.116  0.3817 -0.6128 -0.8210
  163SAPE   H3S18216   0.983   2.053   3.251  0.9595 -0.0158  0.5591
  163SAPE   C2418217   0.782   1.982   3.301 -0.3364 -0.4405 -0.0947
  163SAPE   H4R18218   0.689   1.945   3.253 -1.3244  0.4894  1.0412
  163SAPE   H4S18219   0.759   2.080   3.347  0.6167 -0.7902  1.1622
  163SAPE   C2518220   0.820   1.882   3.411 -0.2195 -0.6106  0.4196
  163SAPE   H5R18221   0.836   1.785   3.362  1.4809 -0.9059  1.5144
  163SAPE   C2618222   0.836   1.902   3.541 -0.1896  0.3334 -0.3288
  163SAPE   H6R18223   0.858   1.819   3.610 -2.1187  0.0333 -0.0154
  163SAPE   C2718224   0.821   2.040   3.607 -0.3094  0.4745  0.3781
  163SAPE   H7R18225   0.731   2.021   3.669 -0.8485  2.1039  0.1296
  163SAPE   H7S18226   0.778   2.123   3.547  0.7227  0.2738 -0.6668
  163SAPE   C2818227   0.941   2.092   3.690  0.1668  0.3170  0.2883
  163SAPE   H8R18228   1.032   2.101   3.629  0.4048  2.3863  0.8518
  163SAPE   C2918229   0.938   2.135   3.814  0.3836  0.7850  0.0612
  163SAPE   H9R18230   1.025   2.182   3.862 -0.2293  1.2026  0.8000
  163SAPE  C21018231   0.818   2.136   3.898  0.2625 -0.4045 -0.4286
  163SAPE  H10R18232   0.749   2.060   3.856  0.2577 -0.1268 -0.9288
  163SAPE  H10S18233   0.768   2.235   3.886 -2.4440 -1.8012 -1.3896
  163SAPE  C21118234   0.844   2.100   4.042  0.3213  1.2158  0.1935
  163SAPE  H11R18235   0.912   2.014   4.039 -0.8898  0.2496 -0.8918
  163SAPE  C21218236   0.810   2.157   4.158  0.4905  0.9640 -0.3592
  163SAPE  H12R18237   0.843   2.097   4.245  0.6007  2.8014  0.9262
  163SAPE  C21318238   0.721   2.273   4.199 -0.5965  0.0684  0.0799
  163SAPE  H13R18239   0.643   2.239   4.270 -1.3328  0.1964 -0.6526
  163SAPE  H13S18240   0.679   2.323   4.110  1.5628  2.5453  0.3177
  163SAPE  C21418241   0.804   2.388   4.246  0.5008  0.4920  0.2932
  163SAPE  H14R18242   0.911   2.387   4.219  0.3128  2.0321 -0.6230
  163SAPE  C21518243   0.765   2.475   4.339 -0.6118  0.0464 -0.9611
  163SAPE  H15R18244   0.850   2.529   4.383  0.3915 -2.6899  0.6944
  163SAPE  C21618245   0.626   2.488   4.392  0.6849  0.1177 -0.2098
  163SAPE  H16R18246   0.547   2.423   4.348 -0.9520  1.7674  0.1579
  163SAPE  H16S18247   0.603   2.595   4.373  1.2236  0.0966 -1.0212
  163SAPE  C21718248   0.623   2.461   4.545 -0.0529 -0.6272  0.6811
  163SAPE  H17R18249   0.535   2.507   4.595 -0.8871 -0.6589 -0.7030
  163SAPE  H17S18250   0.709   2.511   4.594  0.0094  0.2075 -0.2558
  163SAPE  C21818251   0.622   2.316   4.588 -0.3517  0.4142 -0.0078
  163SAPE  H18R18252   0.641   2.307   4.697  0.3244 -3.1923 -0.3040
  163SAPE  H18S18253   0.704   2.259   4.539 -0.8572 -1.5744  1.3199
  163SAPE  C21918254   0.496   2.225   4.567  0.1897 -0.0456  0.2070
  163SAPE  H19R18255   0.448   2.230   4.468 -1.1052 -0.3329  0.8034
  163SAPE  H19S18256   0.432   2.277   4.642 -0.9861 -0.4039 -0.5381
  163SAPE  C22018257   0.525   2.084   4.620 -0.3090  0.5749  0.2327
  163SAPE  H20R18258   0.593   2.038   4.544  1.6256 -0.1873  2.3082
  163SAPE  H20S18259   0.435   2.026   4.648 -0.7161  1.3214  0.4753
  163SAPE  H20T18260   0.584   2.084   4.715 -0.7628  0.4104  0.5153
  163SAPE   C3318261   0.825   1.402   3.381 -0.9310  0.3117 -0.2532
  163SAPE   H3X18262   0.758   1.490   3.372 -1.7966 -0.2074  0.7661
  163SAPE   H3Y18263   0.917   1.447   3.337 -0.6988 -0.3279 -0.4333
  163SAPE   C3418264   0.852   1.346   3.520 -0.9844  0.0010 -0.1845
  163SAPE   H4X18265   0.936   1.273   3.521 -0.4428  0.4700  3.8852
  163SAPE   H4Y18266   0.762   1.285   3.545 -0.8205  0.3003  1.1996
  163SAPE   C3518267   0.866   1.464   3.623  0.6422 -0.7624  0.3825
  163SAPE   H5X18268   0.773   1.524   3.618 -0.2322 -2.0606  0.8119
  163SAPE   H5Y18269   0.945   1.533   3.587 -0.2991  1.0071  1.5870
  163SAPE   C3618270   0.903   1.418   3.766 -0.3607  0.2244  0.0372
  163SAPE   H6X18271   1.010   1.388   3.770  0.2472  2.2580 -0.0030
  163SAPE   H6Y18272   0.843   1.330   3.796 -0.6047  0.0842 -0.8187
  163SAPE   C3718273   0.898   1.526   3.871 -0.2851 -0.5913  0.3516
  163SAPE   H7X18274   0.808   1.592   3.872 -0.7160 -1.0115 -2.5641
  163SAPE   H7Y18275   0.982   1.595   3.850 -0.4462 -0.1553  1.0688
  163SAPE   C3818276   0.920   1.469   4.017  0.3276  0.2074 -0.2671
  163SAPE   H8X18277   1.001   1.395   4.005  0.5947  0.5048 -0.3225
  163SAPE   H8Y18278   0.825   1.419   4.045  0.0522  0.6539 -0.3868
  163SAPE   C3918279   0.971   1.572   4.121 -0.4394 -0.1429 -0.2287
  163SAPE   H9X18280   1.071   1.612   4.094 -0.7183  0.5858 -0.2113
  163SAPE   H9Y18281   0.973   1.519   4.218 -1.6432  0.4838  0.1671
  163SAPE  C31018282   0.871   1.691   4.139 -0.5311 -0.5823  0.1162
  163SAPE  H10X18283   0.773   1.647   4.165 -1.2198  0.6930 -0.2362
  163SAPE  H10Y18284   0.870   1.748   4.044  1.2417 -1.4047 -0.4443
  163SAPE  C31118285   0.922   1.796   4.244  0.2986 -0.6903 -0.2536
  163SAPE  H11X18286   0.840   1.869   4.258 -0.4032 -1.2775 -1.1481
  163SAPE  H11Y18287   1.019   1.836   4.205  0.5116 -1.1173 -0.1643
  163SAPE  C31218288   0.950   1.733   4.388  0.4829 -0.4210 -1.1804
  163SAPE  H12X18289   1.030   1.658   4.374  1.2133  0.2171 -0.5399
  163SAPE  H12Y18290   0.862   1.678   4.428  1.3664  0.0311  1.5867
  163SAPE  C31318291   0.998   1.832   4.498  0.5146 -0.6404  0.1453
  163SAPE  H13X18292   1.088   1.891   4.471 -0.5888  0.1464 -2.0529
  163SAPE  H13Y18293   1.021   1.769   4.588  1.2902 -1.2387 -0.4542
  163SAPE  C31418294   0.885   1.925   4.530  0.1935  0.3946  0.4219
  163SAPE  H14X18295   0.785   1.876   4.527  0.2924  0.2224 -0.1444
  163SAPE  H14Y18296   0.880   1.988   4.439 -1.5450 -1.5429 -0.9025
  163SAPE  C31518297   0.903   2.019   4.656  0.0487  0.1720 -0.0141
  163SAPE  H15X18298   0.811   2.081   4.663 -0.6409 -0.6877 -1.2498
  163SAPE  H15Y18299   0.992   2.085   4.641  0.5965 -1.0853 -2.9009
  163SAPE  C31618300   0.927   1.944   4.788 -0.2139 -0.1211 -0.2462
  163SAPE  H16X18301   1.018   1.881   4.793 -0.5344 -0.6587 -0.9609
  163SAPE  H16Y18302   0.844   1.871   4.794 -2.9255  2.6552 -0.8322
  163SAPE  C31718303   0.928   2.049   4.901  0.1350 -0.1449 -0.5806
  163SAPE  H17X18304   0.824   2.084   4.893 -1.1167 -2.7426  2.1693
  163SAPE  H17Y18305   0.994   2.131   4.866 -0.6910 -0.1875 -2.2953
  163SAPE  C31818306   0.964   2.002   5.045 -0.1990  0.3808 -0.2613
  163SAPE  H18X18307   1.067   1.960   5.052 -0.1041  0.8538  1.9858
  163SAPE  H18Y18308   0.903   1.918   5.083  2.2515 -0.9799  0.9001
  163SAPE  H18Z18309   0.965   2.076   5.128 -1.6003 -1.1872  1.2343
  164SAPE     N18310   3.245   1.962   2.957 -1.0954  0.1096  0.0454
  164SAPE   HN118311   3.300   2.033   2.904  2.0118 -0.7429  1.9148
  164SAPE   HN218312   3.212   1.881   2.900  0.8873  0.4195 -1.6823
  164SAPE   HN318313   3.159   1.999   3.002 -0.6657  0.1105  0.8759
  164SAPE   C1218314   3.335   1.911   3.067  0.1999  0.2190  0.4109
  164SAPE  H12A18315   3.329   1.987   3.149  2.7904  1.5134 -0.4839
  164SAPE  H12B18316   3.437   1.907   3.023  0.0881 -1.1169  0.2382
  164SAPE   C1118317   3.298   1.764   3.098  0.7045 -0.3653 -0.6101
  164SAPE  H11A18318   3.205   1.767   3.159  1.6762 -0.0258  0.9302
  164SAPE  H11B18319   3.376   1.730   3.171 -0.6925  2.8702  2.7172
  164SAPE     P18320   3.227   1.544   2.984 -0.0414  0.2939 -0.3781
  164SAPE   O1318321   3.088   1.561   2.939  0.1857 -0.5044  0.2565
  164SAPE   O1418322   3.296   1.435   2.908 -0.3316 -0.3903 -0.2585
  164SAPE   O1218323   3.299   1.685   2.974 -0.3114  0.8198  0.2515
  164SAPE   O1118324   3.246   1.517   3.138  0.4561  0.7319 -0.1732
  164SAPE    C118325   3.367   1.468   3.200 -0.8981  0.5968 -0.0891
  164SAPE    HA18326   3.454   1.528   3.166 -1.0921  0.2595 -1.2238
  164SAPE    HB18327   3.346   1.483   3.308 -1.9733  0.0488 -0.2047
  164SAPE    C218328   3.378   1.310   3.190  0.3624 -0.2873  0.6916
  164SAPE    HS18329   3.400   1.287   3.084 -1.1899 -1.9409  0.6803
  164SAPE   O2118330   3.248   1.260   3.222 -0.4592  0.3365  0.3750
  164SAPE   C2118331   3.216   1.142   3.176  0.5835 -0.1490 -0.1204
  164SAPE   O2218332   3.273   1.077   3.092 -0.2062  0.2456 -0.1542
  164SAPE   C2218333   3.094   1.093   3.247 -0.0801 -0.2985  0.6156
  164SAPE   H2R18334   3.121   1.060   3.349  1.0069 -1.9506 -0.1729
  164SAPE   H2S18335   3.023   1.174   3.274 -1.0538 -2.0937  4.0334
  164SAPE    C318336   3.488   1.250   3.277  0.1571 -0.5799  0.1911
  164SAPE    HX18337   3.576   1.313   3.253 -0.8222  1.8733  2.4975
  164SAPE    HY18338   3.504   1.147   3.240 -0.3779 -0.0320 -1.6818
  164SAPE   O3118339   3.463   1.254   3.420 -0.2993 -0.1111 -0.0715
  164SAPE   C3118340   3.439   1.140   3.476 -0.4413  1.0201 -0.6846
  164SAPE   O3218341   3.417   1.035   3.422  0.1333  0.2442 -0.3946
  164SAPE   C3218342   3.422   1.168   3.620  0.3121 -0.4316  0.2969
  164SAPE   H2X18343   3.358   1.257   3.639 -0.3922 -0.9432  0.3682
  164SAPE   H2Y18344   3.518   1.202   3.664 -0.7861  2.4352  0.7002
  164SAPE   C2318345   3.022   0.985   3.162 -0.4371  0.5861  0.7012
  164SAPE   H3R18346   3.097   0.909   3.132 -0.6459  1.4113 -2.2654
  164SAPE   H3S18347   2.962   1.039   3.085 -0.6943 -0.4646  0.1466
  164SAPE   C2418348   2.917   0.904   3.240 -0.1367  0.3215  0.6403
  164SAPE   H4R18349   2.957   0.865   3.336 -1.4125  0.7782  1.3733
  164SAPE   H4S18350   2.887   0.817   3.177 -0.6218  1.3492 -0.5889
  164SAPE   C2518351   2.787   0.976   3.256 -0.7429  0.3807 -0.2327
  164SAPE   H5R18352   2.734   0.986   3.160 -1.8928 -2.4047  0.0149
  164SAPE   C2618353   2.729   1.024   3.367 -0.5853 -1.1089  0.2377
  164SAPE   H6R18354   2.627   1.063   3.358 -0.4274 -0.1734  2.0678
  164SAPE   C2718355   2.782   1.015   3.511  0.3144 -0.4706  0.1232
  164SAPE   H7R18356   2.881   0.963   3.516  0.2583 -0.6287 -0.3502
  164SAPE   H7S18357   2.713   0.944   3.562 -0.0759  1.1911  2.0022
  164SAPE   C2818358   2.770   1.148   3.588  0.6142  0.4555 -0.1617
  164SAPE   H8R18359   2.688   1.214   3.555  0.8550 -0.0581 -1.8937
  164SAPE   C2918360   2.831   1.170   3.701 -0.2935  0.2957  0.1137
  164SAPE   H9R18361   2.815   1.269   3.746  1.4871  1.0396 -0.7880
  164SAPE  C21018362   2.930   1.080   3.773  0.6135  0.0548  0.7170
  164SAPE  H10R18363   2.995   1.157   3.820  0.4061  0.9919 -0.4949
  164SAPE  H10S18364   3.000   1.033   3.701  0.3037  2.7156 -1.4815
  164SAPE  C21118365   2.879   0.984   3.871  0.6738  0.4946  0.2782
  164SAPE  H11R18366   2.866   0.884   3.826  1.7084  1.0584 -1.3521
  164SAPE  C21218367   2.888   1.003   4.007  0.3025  0.4976  0.9098
  164SAPE  H12R18368   2.851   0.922   4.071 -1.0604 -1.5392 -2.2208
  164SAPE  C21318369   2.902   1.141   4.061 -0.2973 -0.0010 -0.3295
  164SAPE  H13R18370   2.863   1.219   3.993  1.2711  1.5442  0.4360
  164SAPE  H13S18371   3.010   1.167   4.064 -0.5957  1.5254 -1.5061
  164SAPE  C21418372   2.846   1.164   4.207 -0.0280 -0.0549 -0.7546
  164SAPE  H14R18373   2.737   1.176   4.205 -0.0241 -0.0184 -0.7531
  164SAPE  C21518374   2.922   1.180   4.316  0.5312  0.4477 -0.5846
  164SAPE  H15R18375   2.865   1.190   4.409  0.5729 -1.5134 -0.3020
  164SAPE  C21618376   3.069   1.160   4.331 -0.3436 -0.4462 -0.4557
  164SAPE  H16R18377   3.128   1.253   4.330  0.6023 -0.9471  2.0400
  164SAPE  H16S18378   3.102   1.091   4.250 -1.8225 -0.9052 -0.6970
  164SAPE  C21718379   3.106   1.104   4.471  0.4259  0.1018 -0.1120
  164SAPE  H17R18380   3.069   1.000   4.485  1.1617 -0.0363  0.8877
  164SAPE  H17S18381   3.052   1.163   4.549 -1.9487 -1.3185 -0.5712
  164SAPE  C21818382   3.260   1.104   4.496  0.2124 -0.3414  0.6462
  164SAPE  H18R18383   3.295   1.205   4.525  1.0566 -0.0829 -1.1120
  164SAPE  H18S18384   3.315   1.075   4.404  2.2056  1.8091  1.0712
  164SAPE  C21918385   3.303   1.011   4.610  0.2672 -0.1156 -0.3449
  164SAPE  H19R18386   3.275   0.903   4.603 -0.3412 -0.0147  0.4504
  164SAPE  H19S18387   3.268   1.047   4.709  5.7133 -1.5058  2.4669
  164SAPE  C22018388   3.453   1.016   4.620 -0.1875 -0.6352  0.3676
  164SAPE  H20R18389   3.484   0.980   4.720 -1.7674  2.1336  1.9852
  164SAPE  H20S18390   3.485   1.119   4.595  0.6736 -1.0833 -0.4591
  164SAPE  H20T18391   3.492   0.965   4.530  1.3689  1.9823 -0.5442
  164SAPE   C3318392   3.332   1.070   3.694  0.1091  0.3674 -1.3717
  164SAPE   H3X18393   3.382   0.973   3.713  0.8025  1.2500  1.9556
  164SAPE   H3Y18394   3.240   1.057   3.632 -1.1803 -0.9358  0.6798
  164SAPE   C3418395   3.287   1.104   3.837  0.2069 -0.0884 -0.8378
  164SAPE   H4X18396   3.244   1.014   3.885  1.5715  0.2262  1.0997
  164SAPE   H4Y18397   3.214   1.188   3.841 -0.2689 -0.5616  2.3344
  164SAPE   C3518398   3.400   1.151   3.930 -0.7862  0.4778 -1.0397
  164SAPE   H5X18399   3.448   1.247   3.899  0.6301  0.0429 -0.2937
  164SAPE   H5Y18400   3.492   1.089   3.928  1.3404  3.3683 -1.1496
  164SAPE   C3618401   3.359   1.174   4.079  0.7176  0.5054  0.0493
  164SAPE   H6X18402   3.332   1.075   4.122  2.5968  0.3072  0.8581
  164SAPE   H6Y18403   3.264   1.230   4.069  0.2424 -0.4779 -1.1518
  164SAPE   C3718404   3.449   1.253   4.172  0.2272  0.3800  0.4648
  164SAPE   H7X18405   3.382   1.299   4.248 -1.5175 -0.1279 -0.7029
  164SAPE   H7Y18406   3.503   1.327   4.110  0.3476 -0.3796 -0.3559
  164SAPE   C3818407   3.565   1.177   4.249  0.7857 -0.6872 -0.2368
  164SAPE   H8X18408   3.620   1.093   4.201 -0.9993 -0.9192 -1.9854
  164SAPE   H8Y18409   3.506   1.137   4.334 -0.6277 -0.1994 -0.9620
  164SAPE   C3918410   3.679   1.266   4.300 -0.3465  0.2612 -0.2768
  164SAPE   H9X18411   3.649   1.319   4.393 -2.6683 -0.2866 -0.6508
  164SAPE   H9Y18412   3.702   1.344   4.224  1.1821 -0.3721 -0.5079
  164SAPE  C31018413   3.804   1.186   4.344 -0.3138 -0.0841 -0.0102
  164SAPE  H10X18414   3.870   1.143   4.266  1.3079  0.1847  1.1709
  164SAPE  H10Y18415   3.773   1.103   4.411 -0.0134 -0.3532 -0.2065
  164SAPE  C31118416   3.907   1.268   4.424 -0.3612  0.5525 -0.1636
  164SAPE  H11X18417   3.857   1.299   4.518 -0.8308 -0.6658  0.0061
  164SAPE  H11Y18418   3.933   1.359   4.366  1.6340  0.4927  0.5556
  164SAPE  C31218419   4.037   1.184   4.443 -0.0443  0.8023 -0.2222
  164SAPE  H12X18420   4.069   1.160   4.339 -0.9788 -2.0822  0.0680
  164SAPE  H12Y18421   4.014   1.095   4.504 -1.7569  2.1898  1.2760
  164SAPE  C31318422   4.148   1.253   4.520 -0.8592  0.0938  0.0758
  164SAPE  H13X18423   4.167   1.355   4.480  0.1558 -0.1774 -0.1612
  164SAPE  H13Y18424   4.239   1.190   4.507 -1.4098 -0.8291  0.6152
  164SAPE  C31418425   4.113   1.274   4.668  0.6650  0.0053 -0.0937
  164SAPE  H14X18426   4.099   1.178   4.721 -2.2172  0.2139 -0.3276
  164SAPE  H14Y18427   4.014   1.325   4.672 -0.3362 -1.7998 -0.4022
  164SAPE  C31518428   4.222   1.340   4.748  0.2867  0.4584  0.3389
  164SAPE  H15X18429   4.241   1.448   4.727 -0.4968  1.0317  2.3405
  164SAPE  H15Y18430   4.317   1.290   4.719 -0.1936 -0.7708  0.8338
  164SAPE  C31618431   4.187   1.323   4.892 -0.7379  0.0846 -0.7368
  164SAPE  H16X18432   4.173   1.215   4.912 -0.7677  0.2974  0.4820
  164SAPE  H16Y18433   4.090   1.375   4.909 -0.1376  0.5999  1.3719
  164SAPE  C31718434   4.284   1.378   5.005  0.0966  0.1893  0.3532
  164SAPE  H17X18435   4.218   1.362   5.093  0.2939  0.9179  0.6404
  164SAPE  H17Y18436   4.301   1.488   4.993 -1.2442  0.3813  0.0082
  164SAPE  C31818437   4.418   1.303   5.004  0.0798  0.1381  0.2917
  164SAPE  H18X18438   4.465   1.322   5.103 -0.7112  2.5900  0.2592
  164SAPE  H18Y18439   4.489   1.331   4.923 -0.0135 -0.2114  0.0878
  164SAPE  H18Z18440   4.395   1.197   4.986 -1.8324  0.9293 -2.4479
  165SAPE     N18441   1.860   3.311   2.537  0.4124 -0.2921  0.3146
  165SAPE   HN118442   1.958   3.328   2.507  0.4060 -1.4606 -0.4334
  165SAPE   HN218443   1.823   3.407   2.522  1.1943 -0.1833 -1.0085
  165SAPE   HN318444   1.842   3.290   2.638  1.4348  1.3553  0.8809
  165SAPE   C1218445   1.778   3.203   2.463 -0.7269 -0.8545 -0.5816
  165SAPE  H12A18446   1.737   3.252   2.372 -0.2806  2.3211  0.7985
  165SAPE  H12B18447   1.699   3.166   2.531  1.1227 -3.0057  0.5338
  165SAPE   C1118448   1.865   3.090   2.404  0.0588  0.3745 -0.3199
  165SAPE  H11A18449   1.806   3.029   2.332 -1.0151 -2.1458  2.4794
  165SAPE  H11B18450   1.888   3.024   2.490 -0.3598 -1.0481 -1.2640
  165SAPE     P18451   2.125   3.106   2.395  0.0212 -0.0630 -0.0866
  165SAPE   O1318452   2.132   2.959   2.403  0.4207 -0.3802  0.1050
  165SAPE   O1418453   2.239   3.168   2.314 -0.0408 -0.3431 -0.0555
  165SAPE   O1218454   1.984   3.149   2.347 -0.4744 -0.4998 -0.1286
  165SAPE   O1118455   2.120   3.167   2.541 -0.2421 -0.3040  0.0789
  165SAPE    C118456   2.214   3.236   2.615 -0.4857 -0.2633 -0.0606
  165SAPE    HA18457   2.298   3.270   2.552 -0.9788 -3.5793 -2.8511
  165SAPE    HB18458   2.174   3.330   2.657 -2.9481 -1.1683 -0.1860
  165SAPE    C218459   2.270   3.152   2.734 -0.4186 -0.2501 -0.5817
  165SAPE    HS18460   2.313   3.067   2.676 -0.8561  1.9539 -4.5297
  165SAPE   O2118461   2.167   3.113   2.828  0.1941  0.3033 -0.5954
  165SAPE   C2118462   2.190   3.005   2.901  0.0067 -0.0342 -0.1445
  165SAPE   O2218463   2.296   2.950   2.908 -0.1528 -0.4131 -0.0365
  165SAPE   C2218464   2.065   2.971   2.973  0.6145 -0.6307  0.3108
  165SAPE   H2R18465   2.034   3.056   3.038 -0.9237 -1.2172  0.3865
  165SAPE   H2S18466   1.987   2.956   2.896  0.5126 -0.0851  0.3076
  165SAPE    C318467   2.379   3.228   2.814 -0.2080 -0.1572  0.1351
  165SAPE    HX18468   2.466   3.242   2.747 -1.5168  1.2444 -1.3502
  165SAPE    HY18469   2.413   3.164   2.898  3.1285  0.7119 -0.4263
  165SAPE   O3118470   2.341   3.362   2.864 -0.5296  0.4051 -0.4389
  165SAPE   C3118471   2.400   3.418   2.962 -0.0163  0.1042 -0.0500
  165SAPE   O3218472   2.485   3.369   3.035 -0.2779  0.7569  0.4551
  165SAPE   C3218473   2.347   3.560   2.980 -0.0121  0.9573  0.0995
  165SAPE   H2X18474   2.244   3.567   2.938 -0.2587 -2.1516 -0.0550
  165SAPE   H2Y18475   2.419   3.616   2.917  0.3908 -0.7437 -1.0128
  165SAPE   C2318476   2.073   2.851   3.065  0.7425 -0.5086  0.0523
  165SAPE   H3R18477   2.135   2.871   3.155 -0.3728 -0.8155  0.9215
  165SAPE   H3S18478   2.110   2.763   3.009 -0.6212 -0.8836 -0.3139
  165SAPE   C2418479   1.937   2.810   3.117  0.9634  0.2461 -0.8793
  165SAPE   H4R18480   1.963   2.730   3.189  0.7037  0.9211 -0.0145
  165SAPE   H4S18481   1.884   2.766   3.030  0.5064  0.9752 -0.9814
  165SAPE   C2518482   1.852   2.921   3.177  0.3833 -0.6260  0.1236
  165SAPE   H5R18483   1.804   2.988   3.104  1.6805  0.9290  0.6582
  165SAPE   C2618484   1.841   2.949   3.306  0.6201  0.5433  1.3660
  165SAPE   H6R18485   1.763   3.018   3.342  0.4321  0.9139  0.2655
  165SAPE   C2718486   1.897   2.865   3.419  0.2610 -0.8477 -0.1389
  165SAPE   H7R18487   1.943   2.944   3.483 -1.6966  0.3260 -0.0934
  165SAPE   H7S18488   1.979   2.800   3.382  3.7868  1.1464  3.3326
  165SAPE   C2818489   1.800   2.789   3.511 -0.4736  0.2997  0.5193
  165SAPE   H8R18490   1.777   2.693   3.463  2.2825 -0.4151  0.4843
  165SAPE   C2918491   1.731   2.835   3.619  0.2508  0.1483  0.0103
  165SAPE   H9R18492   1.661   2.765   3.668 -1.0322  0.5298 -1.2176
  165SAPE  C21018493   1.727   2.976   3.675  0.2349 -0.0145 -0.1829
  165SAPE  H10R18494   1.631   3.029   3.661  0.9994  2.6737  3.3406
  165SAPE  H10S18495   1.795   3.041   3.616 -0.4229  0.6852 -0.1852
  165SAPE  C21118496   1.769   2.962   3.823 -0.4955 -0.3659 -0.7942
  165SAPE  H11R18497   1.853   2.897   3.851  0.3849  1.3110  0.6618
  165SAPE  C21218498   1.705   3.006   3.931  0.3637 -0.0790 -0.8657
  165SAPE  H12R18499   1.744   2.971   4.027 -2.3739 -1.9720 -0.3411
  165SAPE  C21318500   1.586   3.090   3.938  0.2057 -0.7416 -0.0819
  165SAPE  H13R18501   1.512   3.048   4.010 -0.2098 -0.0140 -0.0767
  165SAPE  H13S18502   1.539   3.092   3.837 -0.1619 -0.0178  0.1000
  165SAPE  C21418503   1.644   3.224   3.983  0.3227 -0.0578 -0.3602
  165SAPE  H14R18504   1.691   3.279   3.900  3.7357  0.1246  1.4981
  165SAPE  C21518505   1.651   3.284   4.105 -0.5800 -0.4443  0.3341
  165SAPE  H15R18506   1.690   3.386   4.104 -1.6552  0.0792 -3.2403
  165SAPE  C21618507   1.607   3.223   4.235 -0.2731  0.0298  0.1054
  165SAPE  H16R18508   1.618   3.113   4.230  2.1037  0.2319 -0.0985
  165SAPE  H16S18509   1.503   3.252   4.262 -0.8524 -0.2312 -1.7030
  165SAPE  C21718510   1.688   3.273   4.353 -0.2867  0.6781  0.8835
  165SAPE  H17R18511   1.681   3.383   4.354 -0.2757  0.6864  0.2090
  165SAPE  H17S18512   1.795   3.245   4.343 -0.6576 -0.0579 -1.8000
  165SAPE  C21818513   1.624   3.232   4.488  0.2148  0.1238 -0.2045
  165SAPE  H18R18514   1.617   3.123   4.508 -3.0893  0.4433  0.8799
  165SAPE  H18S18515   1.515   3.251   4.477 -0.2141 -0.8694  1.7197
  165SAPE  C21918516   1.677   3.294   4.625  0.5105  1.0065  0.4638
  165SAPE  H19R18517   1.716   3.396   4.606  2.7391  0.1569  0.1338
  165SAPE  H19S18518   1.768   3.239   4.657  1.4128  2.7613  1.0268
  165SAPE  C22018519   1.567   3.278   4.737 -0.3479  0.1350  0.6188
  165SAPE  H20R18520   1.599   3.314   4.838  0.1608  2.2861 -0.2565
  165SAPE  H20S18521   1.541   3.170   4.746 -1.9944  0.5709  1.3894
  165SAPE  H20T18522   1.479   3.339   4.710 -0.8881  0.9022  3.6739
  165SAPE   C3318523   2.368   3.594   3.128  0.3907 -0.0083 -0.0670
  165SAPE   H3X18524   2.471   3.572   3.164  0.7400 -0.7981 -1.4774
  165SAPE   H3Y18525   2.306   3.526   3.191 -0.4954  0.4300 -0.4426
  165SAPE   C3418526   2.318   3.740   3.166 -0.3149  0.3237  0.2794
  165SAPE   H4X18527   2.209   3.759   3.168 -0.0925  2.1554 -1.3868
  165SAPE   H4Y18528   2.349   3.800   3.078  0.1940  0.9797  0.8893
  165SAPE   C3518529   2.381   3.800   3.284 -0.4097 -0.1521 -0.5186
  165SAPE   H5X18530   2.354   3.907   3.293 -1.2803 -0.3980 -0.0265
  165SAPE   H5Y18531   2.491   3.808   3.279 -0.3396 -0.3278  0.4438
  165SAPE   C3618532   2.346   3.725   3.416  0.2516 -0.5568 -0.0145
  165SAPE   H6X18533   2.375   3.618   3.414 -1.9075 -1.1895 -1.0098
  165SAPE   H6Y18534   2.235   3.711   3.418  0.5405 -3.2498  0.6280
  165SAPE   C3718535   2.398   3.801   3.539  0.0227  0.5029 -0.7900
  165SAPE   H7X18536   2.360   3.905   3.533  2.7827  1.5869 -0.6636
  165SAPE   H7Y18537   2.507   3.791   3.519  0.7143  1.0027  2.3290
  165SAPE   C3818538   2.355   3.739   3.674  0.7535 -0.1113  0.4225
  165SAPE   H8X18539   2.404   3.640   3.688  0.0814 -0.7872 -1.6107
  165SAPE   H8Y18540   2.248   3.717   3.692 -0.3772  3.7654 -0.6524
  165SAPE   C3918541   2.394   3.830   3.796  0.8972  0.0059 -1.1254
  165SAPE   H9X18542   2.344   3.927   3.777 -0.4170 -0.1124  1.3280
  165SAPE   H9Y18543   2.503   3.851   3.798  1.0233 -0.6327 -0.9823
  165SAPE  C31018544   2.347   3.786   3.931  0.5864 -0.3600  0.4585
  165SAPE  H10X18545   2.382   3.686   3.962  0.8422  0.4970  3.2370
  165SAPE  H10Y18546   2.236   3.779   3.918  0.4656  2.6648 -0.9871
  165SAPE  C31118547   2.363   3.890   4.041 -0.1158  0.6850  0.5053
  165SAPE  H11X18548   2.307   3.978   4.003  0.0717  2.0050  3.1003
  165SAPE  H11Y18549   2.472   3.906   4.036  0.0039 -0.2542 -0.2718
  165SAPE  C31218550   2.317   3.850   4.178  0.0618  0.8842 -0.4423
  165SAPE  H12X18551   2.373   3.763   4.216 -1.8506  0.0728  0.6463
  165SAPE  H12Y18552   2.212   3.817   4.171 -0.1520  1.3989  0.1902
  165SAPE  C31318553   2.335   3.965   4.286 -0.7437  0.5834  0.1850
  165SAPE  H13X18554   2.268   4.049   4.257 -2.8358 -1.5218 -1.5854
  165SAPE  H13Y18555   2.442   3.992   4.289 -0.0452 -1.8873 -0.5101
  165SAPE  C31418556   2.280   3.915   4.423 -0.0080 -0.4626  0.7294
  165SAPE  H14X18557   2.322   3.814   4.443 -1.5241 -1.7359 -1.9106
  165SAPE  H14Y18558   2.169   3.906   4.414  0.0422  0.4658 -1.4924
  165SAPE  C31518559   2.314   4.008   4.539 -0.2301 -0.4843  0.7628
  165SAPE  H15X18560   2.285   4.112   4.512 -1.3027 -1.2898 -1.4057
  165SAPE  H15Y18561   2.420   4.002   4.572  0.6381 -2.5353 -2.0633
  165SAPE  C31618562   2.232   3.975   4.667 -0.9172  0.4320 -0.1212
  165SAPE  H16X18563   2.259   4.051   4.744  3.1598 -1.3246  0.4400
  165SAPE  H16Y18564   2.284   3.887   4.711 -1.3091 -0.5162 -1.4994
  165SAPE  C31718565   2.080   3.967   4.662 -0.2019  0.2934  0.3642
  165SAPE  H17X18566   2.042   3.873   4.617  0.3834 -0.6302  1.7171
  165SAPE  H17Y18567   2.039   4.056   4.609 -2.0142 -0.3543  0.6047
  165SAPE  C31818568   2.010   3.966   4.793  0.1150  0.6207  0.2907
  165SAPE  H18X18569   2.058   4.031   4.869 -0.3866  0.2733  0.9232
  165SAPE  H18Y18570   2.013   3.865   4.840 -3.2106 -0.7696 -2.0719
  165SAPE  H18Z18571   1.902   3.990   4.790 -1.1487 -4.0659 -1.1580
  166SAPE     N18572   4.340   1.552   2.671  0.6496  0.2174 -0.3539
  166SAPE   HN118573   4.244   1.513   2.675  0.6444  0.2188 -0.4496
  166SAPE   HN218574   4.343   1.649   2.634  1.0103  0.5525  0.5356
  166SAPE   HN318575   4.386   1.492   2.599 -0.3097 -0.4420 -0.4383
  166SAPE   C1218576   4.395   1.526   2.805 -0.1805  0.6235 -0.1649
  166SAPE  H12A18577   4.466   1.606   2.834  0.2920  0.9215 -2.0381
  166SAPE  H12B18578   4.441   1.426   2.818  0.3469  0.9158  0.2794
  166SAPE   C1118579   4.282   1.526   2.907 -0.5432  0.5784 -0.1984
  166SAPE  H11A18580   4.314   1.481   3.003 -0.2004  0.0472 -0.5535
  166SAPE  H11B18581   4.201   1.455   2.877 -0.7533  0.7376 -0.0095
  166SAPE     P18582   4.107   1.689   3.003 -0.2079 -0.2561 -0.0738
  166SAPE   O1318583   4.101   1.839   2.998 -0.4485  0.0021 -0.5219
  166SAPE   O1418584   3.998   1.619   2.942 -0.3611 -0.0254 -0.4479
  166SAPE   O1218585   4.234   1.655   2.920  0.4960 -0.8917 -0.3884
  166SAPE   O1118586   4.124   1.640   3.151  0.4326  0.5139 -0.2567
  166SAPE    C118587   4.254   1.666   3.208 -0.2093  0.1343 -0.1743
  166SAPE    HA18588   4.335   1.648   3.134  0.1152  2.1823 -0.3884
  166SAPE    HB18589   4.265   1.773   3.235  0.4831  0.0620 -0.1529
  166SAPE    C218590   4.281   1.583   3.339  0.5187  0.3063 -0.2103
  166SAPE    HS18591   4.258   1.476   3.316 -1.0803 -0.4017  3.9434
  166SAPE   O2118592   4.199   1.637   3.447  0.0463 -0.9457  0.4104
  166SAPE   C2118593   4.134   1.549   3.516  0.3479 -0.6856  0.0406
  166SAPE   O2218594   4.137   1.424   3.495  0.4866 -0.0703  0.3168
  166SAPE   C2218595   4.040   1.619   3.617 -0.2961 -0.2180 -0.3884
  166SAPE   H2R18596   3.986   1.709   3.581 -1.5116 -0.6363  0.3532
  166SAPE   H2S18597   3.968   1.543   3.655  1.1352 -0.1768  2.7179
  166SAPE    C318598   4.435   1.576   3.382  0.1841  0.2925  0.7956
  166SAPE    HX18599   4.469   1.681   3.393  1.9809  0.3061 -3.0162
  166SAPE    HY18600   4.505   1.528   3.310  1.9515  0.4351  2.3623
  166SAPE   O3118601   4.447   1.498   3.504 -0.0993  0.3215 -0.3459
  166SAPE   C3118602   4.547   1.541   3.591  0.3393 -1.1949 -0.1183
  166SAPE   O3218603   4.626   1.629   3.566  0.5279 -0.1630  0.2045
  166SAPE   C3218604   4.546   1.459   3.711  0.2916  0.1883  0.0295
  166SAPE   H2X18605   4.638   1.397   3.705 -0.9138 -1.5164 -2.2104
  166SAPE   H2Y18606   4.451   1.402   3.716 -1.2513  2.7310  2.1671
  166SAPE   C2318607   4.122   1.683   3.735  0.3652 -0.5108  0.2540
  166SAPE   H3R18608   4.184   1.765   3.692 -1.7372  1.1255  0.2133
  166SAPE   H3S18609   4.201   1.608   3.761  1.0337 -0.5818 -1.7973
  166SAPE   C2418610   4.038   1.732   3.860  0.1387  0.3433  0.3200
  166SAPE   H4R18611   3.979   1.643   3.891  1.1457 -0.4020  0.1343
  166SAPE   H4S18612   3.967   1.816   3.844 -0.2765 -0.0469  0.0710
  166SAPE   C2518613   4.145   1.775   3.958  0.1685  0.4264  0.3767
  166SAPE   H5R18614   4.207   1.857   3.919  0.2445 -0.4169 -1.3723
  166SAPE   C2618615   4.152   1.721   4.079  0.5430  0.4897 -0.3554
  166SAPE   H6R18616   4.239   1.756   4.137 -0.2537  0.2994  1.0129
  166SAPE   C2718617   4.072   1.607   4.151  0.9649  0.1018 -0.2694
  166SAPE   H7R18618   3.988   1.573   4.087 -1.5018  0.2349  2.6909
  166SAPE   H7S18619   4.011   1.653   4.231  3.8509  0.8681  1.6518
  166SAPE   C2818620   4.160   1.499   4.203 -0.2215  0.2901 -0.3518
  166SAPE   H8R18621   4.172   1.405   4.147 -0.2215 -1.6779  2.7431
  166SAPE   C2918622   4.240   1.522   4.312 -0.5791 -0.1856  0.9624
  166SAPE   H9R18623   4.314   1.447   4.340 -1.3458 -0.2071  3.1368
  166SAPE  C21018624   4.247   1.654   4.393 -0.0465  0.2997 -0.4580
  166SAPE  H10R18625   4.157   1.655   4.458  1.3558  1.8551  1.5751
  166SAPE  H10S18626   4.243   1.749   4.335 -0.4552  2.0586  2.2959
  166SAPE  C21118627   4.381   1.657   4.465 -0.3349 -0.3122 -0.0964
  166SAPE  H11R18628   4.469   1.622   4.410 -0.1307  0.9715 -0.6205
  166SAPE  C21218629   4.402   1.698   4.591  0.2729 -0.3865 -0.0301
  166SAPE  H12R18630   4.502   1.678   4.632  0.7994 -0.5453 -1.3654
  166SAPE  C21318631   4.297   1.766   4.684 -0.8829 -0.4293  1.0013
  166SAPE  H13R18632   4.244   1.682   4.733  2.0971 -2.4286  1.1072
  166SAPE  H13S18633   4.233   1.835   4.626 -1.7879 -1.1757  1.0821
  166SAPE  C21418634   4.369   1.853   4.790 -0.3787 -0.1841 -0.0201
  166SAPE  H14R18635   4.439   1.930   4.754 -1.8827  1.2701  0.0626
  166SAPE  C21518636   4.353   1.844   4.919 -0.1249  0.3799  0.5581
  166SAPE  H15R18637   4.409   1.914   4.983 -0.5493  0.4150  0.8942
  166SAPE  C21618638   4.271   1.759   5.009  0.0726 -0.1518  0.7787
  166SAPE  H16R18639   4.343   1.687   5.054  0.1881 -0.5919 -0.1034
  166SAPE  H16S18640   4.204   1.696   4.946 -0.5119  0.5881  0.6506
  166SAPE  C21718641   4.182   1.824   5.115 -0.6640 -0.2130 -0.0072
  166SAPE  H17R18642   4.108   1.752   5.155 -1.7571  1.2404  0.6688
  166SAPE  H17S18643   4.119   1.899   5.064  0.6820 -0.0579 -1.4983
  166SAPE  C21818644   4.264   1.891   5.223  0.3066  0.5811  0.2804
  166SAPE  H18R18645   4.345   1.955   5.181  1.6045 -0.4801  1.0967
  166SAPE  H18S18646   4.316   1.820   5.291  3.3252  1.8941 -0.4946
  166SAPE  C21918647   4.163   1.979   5.300 -0.4212 -0.3036  0.1241
  166SAPE  H19R18648   4.101   1.908   5.360 -1.0009  0.2141  0.1402
  166SAPE  H19S18649   4.090   2.024   5.230  0.2311 -3.3293 -2.7628
  166SAPE  C22018650   4.241   2.078   5.382 -0.7135  0.4237  0.7372
  166SAPE  H20R18651   4.168   2.131   5.447 -1.3019  0.1695  0.2967
  166SAPE  H20S18652   4.291   2.155   5.320  0.3120 -0.4277  0.4856
  166SAPE  H20T18653   4.317   2.027   5.445  1.7092  1.4960 -1.1729
  166SAPE   C3318654   4.574   1.547   3.840 -0.5879 -0.3800 -0.2590
  166SAPE   H3X18655   4.492   1.606   3.885 -0.3607  0.3279 -0.7621
  166SAPE   H3Y18656   4.655   1.621   3.823  0.6102 -1.4095  0.8092
  166SAPE   C3418657   4.622   1.458   3.962 -0.2084  0.4466  0.0077
  166SAPE   H4X18658   4.657   1.537   4.032  0.8092 -0.1952  0.2348
  166SAPE   H4Y18659   4.706   1.395   3.925 -1.4345 -1.8592  0.9795
  166SAPE   C3518660   4.516   1.376   4.030 -0.2064 -0.2359 -0.1128
  166SAPE   H5X18661   4.465   1.315   3.953 -3.3348  0.9372  0.8605
  166SAPE   H5Y18662   4.439   1.451   4.059 -2.0882 -1.5797 -1.3683
  166SAPE   C3618663   4.561   1.290   4.149  0.4144 -0.4726  0.2063
  166SAPE   H6X18664   4.617   1.347   4.226  1.3154  0.3089 -0.9827
  166SAPE   H6Y18665   4.628   1.209   4.113  1.0915 -1.0423  2.5948
  166SAPE   C3718666   4.442   1.213   4.202 -0.3067 -0.5542  0.2067
  166SAPE   H7X18667   4.405   1.149   4.119  1.7657 -0.2216 -1.0381
  166SAPE   H7Y18668   4.360   1.282   4.234 -0.5960 -1.0458  0.5428
  166SAPE   C3818669   4.475   1.122   4.316  0.2487 -0.2792 -0.1283
  166SAPE   H8X18670   4.560   1.057   4.286  1.5219  1.1685  0.2018
  166SAPE   H8Y18671   4.387   1.060   4.341 -0.1388  0.1914 -0.3095
  166SAPE   C3918672   4.516   1.197   4.443 -0.5853  0.5110 -0.7687
  166SAPE   H9X18673   4.447   1.274   4.481 -0.8501  0.0384 -0.2832
  166SAPE   H9Y18674   4.609   1.252   4.416 -0.7065 -0.1257 -2.6012
  166SAPE  C31018675   4.536   1.097   4.556 -1.0567  0.0736 -0.3926
  166SAPE  H10X18676   4.594   1.011   4.515  0.4610 -0.5060  2.6207
  166SAPE  H10Y18677   4.439   1.068   4.601 -0.4057  0.5862  1.4388
  166SAPE  C31118678   4.622   1.148   4.672 -0.4705 -0.8413 -0.3469
  166SAPE  H11X18679   4.585   1.248   4.705 -2.1692 -0.2716 -3.5426
  166SAPE  H11Y18680   4.728   1.159   4.640 -0.6406  1.3697 -0.3018
  166SAPE  C31218681   4.634   1.050   4.795 -0.6893  0.1261  0.5143
  166SAPE  H12X18682   4.682   0.960   4.752 -1.9695 -0.9687  1.2804
  166SAPE  H12Y18683   4.529   1.023   4.822 -0.6780  0.3526  0.7878
  166SAPE  C31318684   4.724   1.103   4.907 -0.2759 -0.0250  0.1316
  166SAPE  H13X18685   4.673   1.188   4.957  0.0714 -1.2161  2.6603
  166SAPE  H13Y18686   4.814   1.132   4.848 -0.1082  0.2993  0.5488
  166SAPE  C31418687   4.761   1.005   5.019  0.2954  0.0829  0.0026
  166SAPE  H14X18688   4.795   1.063   5.107 -0.9505  0.0116  0.5531
  166SAPE  H14Y18689   4.840   0.932   4.992 -0.1245 -0.1801 -0.5628
  166SAPE  C31518690   4.639   0.928   5.069 -0.1881 -0.1066  1.2518
  166SAPE  H15X18691   4.574   0.887   4.989 -0.7741  0.6264  1.3428
  166SAPE  H15Y18692   4.574   1.002   5.120  1.4139  2.3209  0.0446
  166SAPE  C31618693   4.681   0.810   5.156 -0.7770  0.9313  0.1280
  166SAPE  H16X18694   4.746   0.836   5.242  0.3137  0.5884 -0.5691
  166SAPE  H16Y18695   4.743   0.739   5.097 -1.3276 -1.0465  1.8190
  166SAPE  C31718696   4.565   0.721   5.211 -0.4840  0.6749 -0.5112
  166SAPE  H17X18697   4.480   0.696   5.144 -0.4428 -0.3185 -0.2086
  166SAPE  H17Y18698   4.517   0.784   5.289 -1.2273  2.0835 -2.0371
  166SAPE  C31818699   4.622   0.593   5.273 -0.1079  0.7568  0.3890
  166SAPE  H18X18700   4.697   0.545   5.206 -0.9025  0.2431 -0.1539
  166SAPE  H18Y18701   4.544   0.516   5.295  0.2432  0.1434 -0.4574
  166SAPE  H18Z18702   4.680   0.612   5.366 -0.3517  0.4495  0.6086
  167SAPE     N18703   2.900   0.100   2.307  0.0155 -0.0206 -0.2044
  167SAPE   HN118704   2.933   0.190   2.268 -2.4750  1.0344 -0.0531
  167SAPE   HN218705   2.956   0.082   2.392 -0.2843  0.1327  0.0255
  167SAPE   HN318706   2.899   0.012   2.250 -1.7762 -0.8108  0.9489
  167SAPE   C1218707   2.765   0.128   2.370  0.2898  0.3067  0.7279
  167SAPE  H12A18708   2.761   0.061   2.458  0.0678 -0.6439  0.0174
  167SAPE  H12B18709   2.684   0.104   2.298  1.4047  1.2570 -0.9088
  167SAPE   C1118710   2.740   0.275   2.401 -0.5241 -0.6009  0.4204
  167SAPE  H11A18711   2.674   0.274   2.490 -2.0646  0.0937 -0.6802
  167SAPE  H11B18712   2.686   0.330   2.321 -0.2012 -0.2503  0.4398
  167SAPE     P18713   2.894   0.493   2.435  0.1210 -0.3627  0.3276
  167SAPE   O1318714   3.039   0.501   2.404 -0.3397  0.1638  0.4799
  167SAPE   O1418715   2.802   0.566   2.350 -0.2944 -0.2674 -0.0204
  167SAPE   O1218716   2.862   0.334   2.441 -0.4360 -0.3848 -0.5116
  167SAPE   O1118717   2.866   0.536   2.592  0.0725  0.4714 -0.3733
  167SAPE    C118718   2.922   0.665   2.633  0.9143  1.2184  0.8480
  167SAPE    HA18719   3.031   0.654   2.651  0.7459 -0.5749  0.9861
  167SAPE    HB18720   2.904   0.748   2.561 -1.9018 -0.4945 -0.6172
  167SAPE    C218721   2.849   0.709   2.764  0.4891 -0.4117 -0.8241
  167SAPE    HS18722   2.883   0.813   2.782 -0.1617 -0.3064 -0.1576
  167SAPE   O2118723   2.877   0.623   2.878 -0.0925  0.1775 -0.4516
  167SAPE   C2118724   2.989   0.649   2.938  0.3828 -0.2054  0.4174
  167SAPE   O2218725   3.069   0.731   2.900 -0.0331 -0.4264  0.2918
  167SAPE   C2218726   3.003   0.552   3.058  0.3399 -0.2638 -0.4225
  167SAPE   H2R18727   2.911   0.569   3.119  1.7685  3.7410  0.9039
  167SAPE   H2S18728   3.009   0.448   3.019  0.4629 -0.3624 -0.1364
  167SAPE    C318729   2.698   0.715   2.745  0.3354  0.1964 -0.4698
  167SAPE    HX18730   2.674   0.620   2.693  1.0723  0.8286 -2.0050
  167SAPE    HY18731   2.678   0.791   2.667  0.4101 -1.9748 -2.7116
  167SAPE   O3118732   2.633   0.742   2.871 -0.2419 -0.7074 -0.2985
  167SAPE   C3118733   2.597   0.648   2.952  0.5138  0.3420 -0.0030
  167SAPE   O3218734   2.602   0.528   2.918  0.1401  0.1620  0.8479
  167SAPE   C3218735   2.536   0.702   3.084  0.3593 -0.1714  0.4118
  167SAPE   H2X18736   2.430   0.725   3.057 -0.1508 -0.4756  2.0247
  167SAPE   H2Y18737   2.588   0.794   3.115 -0.3700  0.2790  0.3306
  167SAPE   C2318738   3.123   0.572   3.149 -0.2908 -0.2409  0.0214
  167SAPE   H3R18739   3.141   0.682   3.143  1.4389 -0.5650 -1.3644
  167SAPE   H3S18740   3.209   0.532   3.092 -0.0768  2.3730 -1.6734
  167SAPE   C2418741   3.095   0.518   3.291  0.0392  0.0126  0.2773
  167SAPE   H4R18742   3.049   0.417   3.287 -0.7399  0.2726 -4.6127
  167SAPE   H4S18743   3.020   0.589   3.332  0.3521  0.3063  0.3483
  167SAPE   C2518744   3.213   0.499   3.382 -0.3731 -0.1056  0.1582
  167SAPE   H5R18745   3.274   0.413   3.350  0.0866  0.6486 -1.0373
  167SAPE   C2618746   3.245   0.579   3.484  0.2103 -0.1964  0.0513
  167SAPE   H6R18747   3.338   0.561   3.539 -0.4996  0.4315  1.5250
  167SAPE   C2718748   3.183   0.702   3.541  0.8225 -0.3177  0.6410
  167SAPE   H7R18749   3.114   0.749   3.467 -0.1589 -1.0114  1.0778
  167SAPE   H7S18750   3.264   0.774   3.563  0.3659 -0.1921  1.9899
  167SAPE   C2818751   3.104   0.670   3.662 -0.4517  0.4142  0.0678
  167SAPE   H8R18752   3.000   0.641   3.640 -0.0449 -2.2780  1.3146
  167SAPE   C2918753   3.144   0.688   3.789 -0.0827 -0.5487 -0.2535
  167SAPE   H9R18754   3.077   0.661   3.871  1.2414  0.4037  1.2042
  167SAPE  C21018755   3.278   0.738   3.836  0.1375 -0.4440 -0.8471
  167SAPE  H10R18756   3.254   0.820   3.907 -0.6805 -0.3060 -1.2729
  167SAPE  H10S18757   3.348   0.775   3.757  1.1091  0.4684  0.3968
  167SAPE  C21118758   3.359   0.646   3.919  0.3120 -0.2719  0.1296
  167SAPE  H11R18759   3.294   0.591   3.988  0.8551 -1.3361 -0.1828
  167SAPE  C21218760   3.493   0.643   3.931  0.2455 -0.1148 -0.0121
  167SAPE  H12R18761   3.527   0.548   3.975 -2.2072 -0.5601  1.0858
  167SAPE  C21318762   3.594   0.726   3.860 -0.8360 -0.2696  0.0978
  167SAPE  H13R18763   3.688   0.722   3.918 -1.6782  1.0166  1.6404
  167SAPE  H13S18764   3.569   0.834   3.870  2.6036  0.5398  1.4508
  167SAPE  C21418765   3.607   0.684   3.720  0.2902  0.0543  0.1730
  167SAPE  H14R18766   3.524   0.627   3.677 -0.0980  0.5672  0.2391
  167SAPE  C21518767   3.698   0.726   3.633 -0.3054  0.7263  0.2788
  167SAPE  H15R18768   3.683   0.703   3.526  0.1231 -1.4410  0.6375
  167SAPE  C21618769   3.817   0.819   3.664 -0.2672 -0.2215 -0.3624
  167SAPE  H16R18770   3.845   0.808   3.771 -2.0321 -0.6792  0.0882
  167SAPE  H16S18771   3.790   0.925   3.647 -2.4158 -0.9811 -2.1843
  167SAPE  C21718772   3.939   0.801   3.574  0.4041 -0.0360 -0.0424
  167SAPE  H17R18773   4.016   0.879   3.596 -1.4082  2.4891 -1.9834
  167SAPE  H17S18774   3.921   0.826   3.468  1.8347  2.3268  0.1884
  167SAPE  C21818775   3.984   0.653   3.574  0.6086 -0.2396 -0.0709
  167SAPE  H18R18776   3.903   0.579   3.554  1.4212 -1.2141  0.1093
  167SAPE  H18S18777   4.036   0.632   3.670  1.5721  2.3729  0.0517
  167SAPE  C21918778   4.086   0.611   3.472  0.7273 -0.1466  0.0894
  167SAPE  H19R18779   4.130   0.514   3.505  0.3420 -0.4976 -0.4209
  167SAPE  H19S18780   4.171   0.683   3.477  0.1987  0.7690 -2.6629
  167SAPE  C22018781   4.037   0.595   3.326 -0.4963  0.3870  0.0575
  167SAPE  H20R18782   4.007   0.698   3.297  0.1266  0.3590 -0.7296
  167SAPE  H20S18783   3.956   0.519   3.322  2.2063 -2.6923 -3.8940
  167SAPE  H20T18784   4.120   0.564   3.260 -0.8301 -2.6498  0.9411
  167SAPE   C3318785   2.539   0.605   3.207  0.3324 -0.0132 -0.3946
  167SAPE   H3X18786   2.526   0.505   3.161  2.0611 -0.4536 -0.0046
  167SAPE   H3Y18787   2.467   0.627   3.289  1.7217 -0.7841  1.0967
  167SAPE   C3418788   2.674   0.609   3.286  0.4906 -0.7468  0.0870
  167SAPE   H4X18789   2.691   0.718   3.296  1.7059 -0.9237  0.1510
  167SAPE   H4Y18790   2.754   0.556   3.230  1.1557  0.3104  0.0048
  167SAPE   C3518791   2.662   0.535   3.416 -0.1549  0.8868 -0.2497
  167SAPE   H5X18792   2.655   0.426   3.393  1.1312  0.7256  0.0420
  167SAPE   H5Y18793   2.571   0.561   3.473 -0.5362 -1.4537  0.3164
  167SAPE   C3618794   2.782   0.546   3.512 -1.5107 -0.2775  0.6795
  167SAPE   H6X18795   2.820   0.650   3.509 -1.3410 -0.3382  0.6607
  167SAPE   H6Y18796   2.871   0.491   3.473 -1.7286 -0.9513  1.1099
  167SAPE   C3718797   2.755   0.505   3.649 -0.0506  0.4892 -0.2591
  167SAPE   H7X18798   2.858   0.486   3.688  0.4934 -0.6662 -2.1127
  167SAPE   H7Y18799   2.703   0.409   3.668  0.1427 -0.0789 -2.3572
  167SAPE   C3818800   2.684   0.615   3.722 -0.1230  0.2737  0.3521
  167SAPE   H8X18801   2.579   0.623   3.685  0.0078 -3.2710 -1.2243
  167SAPE   H8Y18802   2.736   0.710   3.697  1.5488 -1.0920 -1.7141
  167SAPE   C3918803   2.666   0.604   3.873 -1.1825 -0.2341 -0.4503
  167SAPE   H9X18804   2.627   0.504   3.903 -0.6768  0.3770  2.6603
  167SAPE   H9Y18805   2.621   0.691   3.927  1.3613  0.8804  0.0429
  167SAPE  C31018806   2.798   0.595   3.953  0.4154  0.5736 -0.4921
  167SAPE  H10X18807   2.874   0.653   3.896 -2.4588  0.9243 -4.4278
  167SAPE  H10Y18808   2.822   0.488   3.966  0.1814  0.6172  0.3750
  167SAPE  C31118809   2.798   0.641   4.098 -0.5048  0.6459  0.0867
  167SAPE  H11X18810   2.731   0.575   4.157  2.0407  0.8603  3.4564
  167SAPE  H11Y18811   2.768   0.748   4.100 -3.3088 -0.0479  0.5221
  167SAPE  C31218812   2.946   0.635   4.147 -0.1434  0.5484  0.4409
  167SAPE  H12X18813   3.012   0.685   4.073  0.9462 -0.0317  1.0036
  167SAPE  H12Y18814   2.978   0.529   4.141  0.1706  0.7019 -1.2119
  167SAPE  C31318815   2.952   0.699   4.280  0.5122  0.4460  0.0657
  167SAPE  H13X18816   2.920   0.626   4.358  2.3640  0.3127  0.7490
  167SAPE  H13Y18817   2.880   0.780   4.303  0.0383  0.0316  0.0696
  167SAPE  C31418818   3.100   0.737   4.310  0.9939 -0.3010 -0.0049
  167SAPE  H14X18819   3.100   0.796   4.404 -1.2139  1.1711 -0.8370
  167SAPE  H14Y18820   3.130   0.797   4.221 -0.1007 -0.7059 -0.6726
  167SAPE  C31518821   3.203   0.631   4.321  0.6518  0.1941  0.7013
  167SAPE  H15X18822   3.220   0.580   4.224  2.2918  0.6230  0.7245
  167SAPE  H15Y18823   3.171   0.556   4.397 -1.0129 -1.5847 -1.6074
  167SAPE  C31618824   3.342   0.691   4.358  0.3511 -0.4376  0.2690
  167SAPE  H16X18825   3.338   0.721   4.465  1.1352 -0.8068  0.4004
  167SAPE  H16Y18826   3.355   0.781   4.294  0.8582 -0.6525  0.0675
  167SAPE  C31718827   3.455   0.588   4.319 -0.0613 -0.3846 -0.5700
  167SAPE  H17X18828   3.446   0.563   4.211  0.5175  0.9431 -0.9491
  167SAPE  H17Y18829   3.437   0.496   4.378 -2.0950  0.1531 -0.2689
  167SAPE  C31818830   3.596   0.630   4.357 -0.2841 -0.1498  0.5966
  167SAPE  H18X18831   3.611   0.611   4.465 -1.8516  0.7003  0.9976
  167SAPE  H18Y18832   3.613   0.734   4.323  0.7590 -0.3587  0.4490
  167SAPE  H18Z18833   3.662   0.557   4.305 -2.0043 -1.7907  0.5770
  168SAPE     N18834   3.328   3.737   2.741  0.5350  0.6755  0.2655
  168SAPE   HN118835   3.397   3.744   2.664  0.1273  1.7937 -0.0180
  168SAPE   HN218836   3.264   3.656   2.733  0.6170  0.4657  1.4241
  168SAPE   HN318837   3.260   3.815   2.732 -1.7023 -1.3116 -1.2268
  168SAPE   C1218838   3.396   3.738   2.875  0.0966 -0.1526  0.5817
  168SAPE  H12A18839   3.455   3.828   2.902 -0.6837  0.7442 -0.6203
  168SAPE  H12B18840   3.467   3.653   2.867 -0.2642 -0.5653  1.5045
  168SAPE   C1118841   3.289   3.689   2.981  0.2479 -0.7286 -0.0313
  168SAPE  H11A18842   3.240   3.786   3.006 -0.6475 -1.0727 -0.4424
  168SAPE  H11B18843   3.340   3.646   3.070  0.9389 -0.6285 -0.3669
  168SAPE     P18844   3.227   3.435   2.933  0.3599  0.3491  0.2093
  168SAPE   O1318845   3.115   3.361   2.872  0.0507  0.1502  0.4740
  168SAPE   O1418846   3.372   3.409   2.887  0.2752  0.1056 -0.4272
  168SAPE   O1218847   3.199   3.591   2.923  0.2084 -0.4445 -0.2161
  168SAPE   O1118848   3.228   3.410   3.093  0.0729  0.2393  0.1405
  168SAPE    C118849   3.104   3.364   3.155  0.2494 -0.3231 -0.8481
  168SAPE    HA18850   3.043   3.294   3.093  0.0601  0.6225 -1.7596
  168SAPE    HB18851   3.120   3.339   3.262 -1.9995  0.9952 -0.1522
  168SAPE    C218852   3.008   3.495   3.172  0.3938  0.1154 -0.5343
  168SAPE    HS18853   3.029   3.551   3.078  0.1363  0.1435 -0.5775
  168SAPE   O2118854   3.047   3.582   3.282  0.1400 -0.1260  0.5562
  168SAPE   C2118855   3.001   3.712   3.281  0.4702  0.2988 -0.2315
  168SAPE   O2218856   2.937   3.760   3.191  0.0613 -0.5226  0.1961
  168SAPE   C2218857   3.064   3.788   3.400  0.1342  0.0066 -0.1668
  168SAPE   H2R18858   3.173   3.769   3.401  0.2985  0.8425 -0.7240
  168SAPE   H2S18859   3.038   3.893   3.374  1.3816 -0.1211 -2.1146
  168SAPE    C318860   2.859   3.452   3.174  0.6184 -0.6215 -0.4802
  168SAPE    HX18861   2.855   3.360   3.112  1.7144 -1.2124  0.3034
  168SAPE    HY18862   2.815   3.545   3.132  2.0825  1.6126  2.5324
  168SAPE   O3118863   2.808   3.419   3.306 -0.3275 -0.1140  0.5506
  168SAPE   C3118864   2.719   3.499   3.361 -0.2950 -0.0169  0.1671
  168SAPE   O3218865   2.679   3.605   3.316  0.2561 -0.0786 -0.1525
  168SAPE   C3218866   2.668   3.430   3.479 -0.1979 -0.0516  0.0601
  168SAPE   H2X18867   2.718   3.334   3.502  0.1853  0.2049  0.3226
  168SAPE   H2Y18868   2.561   3.410   3.458  0.1177 -0.7800 -0.9776
  168SAPE   C2318869   3.014   3.741   3.543  0.1457 -0.5211 -0.0125
  168SAPE   H3R18870   3.094   3.719   3.617 -1.1046 -0.9938  1.2417
  168SAPE   H3S18871   2.974   3.638   3.538  0.5180 -0.7286  1.0072
  168SAPE   C2418872   2.917   3.841   3.608  0.1629  0.1638  0.3503
  168SAPE   H4R18873   2.881   3.801   3.705 -2.5690 -2.5949 -1.6235
  168SAPE   H4S18874   2.836   3.856   3.533  1.1239  2.4596 -0.3387
  168SAPE   C2518875   2.994   3.967   3.635 -0.1173  0.0278  0.1314
  168SAPE   H5R18876   3.036   4.014   3.545 -1.6939 -1.1427 -1.2733
  168SAPE   C2618877   3.028   4.012   3.758  0.2914  0.1640  0.7197
  168SAPE   H6R18878   3.083   4.107   3.769 -0.3454  0.8533 -1.6007
  168SAPE   C2718879   2.995   3.957   3.899  0.6029 -0.6617 -0.1496
  168SAPE   H7R18880   3.074   4.001   3.964 -0.1222 -0.1063  0.3595
  168SAPE   H7S18881   3.023   3.849   3.902  0.2221 -0.8287 -1.7229
  168SAPE   C2818882   2.851   3.980   3.946  0.0448 -0.1226  0.2747
  168SAPE   H8R18883   2.779   3.974   3.863  1.9427  0.6127 -1.4953
  168SAPE   C2918884   2.821   3.988   4.076  0.0931 -0.4002  0.3014
  168SAPE   H9R18885   2.718   4.014   4.102 -1.0167 -1.6809 -2.4150
  168SAPE  C21018886   2.918   3.995   4.188 -0.2895 -0.6416 -0.3942
  168SAPE  H10R18887   3.023   3.977   4.158 -0.5149  1.1294 -2.4978
  168SAPE  H10S18888   2.884   3.911   4.253 -2.9872  0.0961 -0.7442
  168SAPE  C21118889   2.909   4.121   4.268 -0.6180  0.1379  0.5570
  168SAPE  H11R18890   2.971   4.205   4.233 -1.5069  0.9044  0.7916
  168SAPE  C21218891   2.854   4.138   4.389  0.5796  0.3643 -0.3647
  168SAPE  H12R18892   2.850   4.240   4.430 -0.1728 -0.2110  1.0541
  168SAPE  C21318893   2.778   4.037   4.469  0.5202  0.2630 -0.4708
  168SAPE  H13R18894   2.761   3.945   4.408  1.3449 -0.2841  0.0986
  168SAPE  H13S18895   2.672   4.070   4.477  0.2906  0.1921 -2.6125
  168SAPE  C21418896   2.851   3.997   4.599 -0.1327 -0.3004  0.4808
  168SAPE  H14R18897   2.907   3.902   4.597 -0.2598 -0.3668 -0.6032
  168SAPE  C21518898   2.868   4.068   4.712 -0.3834 -0.8169  0.0500
  168SAPE  H15R18899   2.916   4.024   4.800  2.5753  1.0885 -0.4700
  168SAPE  C21618900   2.811   4.205   4.757  0.0493 -0.2924  0.1376
  168SAPE  H16R18901   2.745   4.237   4.674 -2.5443 -2.0613  1.3566
  168SAPE  H16S18902   2.885   4.287   4.769 -0.1087 -0.0615 -0.4609
  168SAPE  C21718903   2.732   4.204   4.889  0.4191 -0.8867 -0.3405
  168SAPE  H17R18904   2.638   4.145   4.888 -0.9868  1.1374  1.5716
  168SAPE  H17S18905   2.700   4.310   4.899  0.5622 -0.5906 -2.3881
  168SAPE  C21818906   2.828   4.159   5.004  1.0666 -0.3584 -0.0224
  168SAPE  H18R18907   2.917   4.225   5.011  2.0394 -1.7958  2.8149
  168SAPE  H18S18908   2.857   4.054   4.985  2.4139  0.1386 -0.8115
  168SAPE  C21918909   2.754   4.155   5.147  0.1564 -0.7207 -0.2937
  168SAPE  H19R18910   2.819   4.095   5.215  0.6806 -0.9136 -0.9517
  168SAPE  H19S18911   2.656   4.105   5.134  0.5832 -1.9322  0.8994
  168SAPE  C22018912   2.745   4.294   5.212  0.2570 -0.4179  0.8104
  168SAPE  H20R18913   2.680   4.361   5.152  0.3945  1.2639  2.4674
  168SAPE  H20S18914   2.847   4.337   5.223  0.3828 -0.5842  0.3440
  168SAPE  H20T18915   2.691   4.295   5.309  1.5140 -1.0314  1.5417
  168SAPE   C3318916   2.688   3.520   3.606  0.6498  0.2817  0.1912
  168SAPE   H3X18917   2.646   3.622   3.592 -0.2262 -0.1938 -0.7211
  168SAPE   H3Y18918   2.798   3.531   3.621  1.0387 -0.6122 -1.6289
  168SAPE   C3418919   2.635   3.464   3.737  0.2498 -0.3880  0.1200
  168SAPE   H4X18920   2.675   3.363   3.761 -0.5170 -0.4106  1.3716
  168SAPE   H4Y18921   2.525   3.450   3.736  0.1249  0.3611  1.3364
  168SAPE   C3518922   2.668   3.553   3.854 -0.7038 -0.7134  0.2393
  168SAPE   H5X18923   2.618   3.650   3.834 -0.5037 -0.2890  1.7258
  168SAPE   H5Y18924   2.778   3.568   3.850 -0.8223 -0.0135 -2.5336
  168SAPE   C3618925   2.621   3.492   3.986  0.0186  0.1811  0.1451
  168SAPE   H6X18926   2.691   3.407   4.002  1.2510  1.0712 -0.2936
  168SAPE   H6Y18927   2.520   3.446   3.984 -0.5393  1.3320  0.8858
  168SAPE   C3718928   2.642   3.590   4.102  0.3755 -0.3170  0.2609
  168SAPE   H7X18929   2.579   3.679   4.081  1.1851 -0.0913 -1.4115
  168SAPE   H7Y18930   2.750   3.619   4.098  0.1970  0.1962 -1.3360
  168SAPE   C3818931   2.583   3.516   4.225  0.3786  0.6081  0.4125
  168SAPE   H8X18932   2.642   3.423   4.238  1.9954  1.4547 -0.5797
  168SAPE   H8Y18933   2.483   3.471   4.208  1.6070 -2.7248  1.1472
  168SAPE   C3918934   2.604   3.602   4.349  0.2110  0.4965 -0.2816
  168SAPE   H9X18935   2.528   3.682   4.362  1.1515  1.2523  0.7956
  168SAPE   H9Y18936   2.689   3.672   4.337  0.0529  0.6474 -0.5305
  168SAPE  C31018937   2.634   3.525   4.482  0.5969 -0.5436  0.8500
  168SAPE  H10X18938   2.736   3.485   4.467  0.4766 -0.0954 -1.7636
  168SAPE  H10Y18939   2.557   3.449   4.508 -0.0334 -0.8764 -1.6754
  168SAPE  C31118940   2.641   3.629   4.590  0.4206  0.0499  0.1090
  168SAPE  H11X18941   2.537   3.661   4.613  0.4544  0.6627 -0.5248
  168SAPE  H11Y18942   2.712   3.709   4.559  1.3891  0.3820  2.8862
  168SAPE  C31218943   2.698   3.574   4.721 -0.3892 -0.0714  0.8784
  168SAPE  H12X18944   2.799   3.546   4.684 -0.2150  1.5598  0.0330
  168SAPE  H12Y18945   2.634   3.489   4.755  0.3629 -0.7065  0.7535
  168SAPE  C31318946   2.708   3.680   4.834 -0.1018 -0.2856 -0.3678
  168SAPE  H13X18947   2.609   3.727   4.852  0.1657  1.0744 -2.1845
  168SAPE  H13Y18948   2.785   3.757   4.812  2.1328 -2.1802  0.4042
  168SAPE  C31418949   2.760   3.625   4.962 -0.2527  0.6745 -0.2123
  168SAPE  H14X18950   2.860   3.583   4.939  1.0663  2.4493  1.9389
  168SAPE  H14Y18951   2.692   3.546   5.001  2.8225 -0.8584  2.5695
  168SAPE  C31518952   2.778   3.723   5.069 -0.2516 -0.5794 -0.3865
  168SAPE  H15X18953   2.695   3.797   5.075 -1.0672 -1.1806 -2.8918
  168SAPE  H15Y18954   2.867   3.784   5.041 -0.8841 -0.2472 -1.7550
  168SAPE  C31618955   2.827   3.671   5.207  0.0974  0.3091  0.6580
  168SAPE  H16X18956   2.915   3.606   5.189 -0.3761 -0.3777  0.7985
  168SAPE  H16Y18957   2.742   3.611   5.244 -3.0820  4.0588  0.0884
  168SAPE  C31718958   2.873   3.775   5.310  0.6771 -0.1224  0.3278
  168SAPE  H17X18959   2.799   3.858   5.301 -0.7577 -1.2943  0.7359
  168SAPE  H17Y18960   2.971   3.806   5.270  1.5213 -0.0071  2.3821
  168SAPE  C31818961   2.883   3.712   5.450 -0.4544  0.3009 -0.0605
  168SAPE  H18X18962   2.788   3.667   5.487  0.5155 -1.8050  0.0078
  168SAPE  H18Y18963   2.908   3.788   5.527 -0.7777  0.2012  0.1458
  168SAPE  H18Z18964   2.959   3.632   5.452 -0.8691 -0.1679 -1.6326
  169SAPE     N18965   3.260   6.745   2.991  0.3868  0.8055 -0.2541
  169SAPE   HN118966   3.272   6.721   3.091 -1.0962  3.2980  0.6097
  169SAPE   HN218967   3.215   6.673   2.930 -0.4176  2.7569 -2.0932
  169SAPE   HN318968   3.353   6.760   2.948 -0.1486  0.1406 -1.7250
  169SAPE   C1218969   3.183   6.868   2.968  0.3892 -0.2563  0.0774
  169SAPE  H12A18970   3.096   6.866   3.038  0.1820 -0.5280 -0.1875
  169SAPE  H12B18971   3.151   6.855   2.863  1.4755  1.5342 -0.4999
  169SAPE   C1118972   3.266   6.994   2.984  1.0185 -0.0764 -0.1324
  169SAPE  H11A18973   3.283   7.022   3.091  2.2821  2.8859 -1.0006
  169SAPE  H11B18974   3.198   7.078   2.956 -1.9812 -1.3880  2.5384
  169SAPE     P18975   3.491   7.109   2.913  0.1496 -0.0873  0.4671
  169SAPE   O1318976   3.585   7.082   2.801  0.1152 -0.4990  0.0273
  169SAPE   O1418977   3.420   7.239   2.913 -0.1457 -0.3302  0.7113
  169SAPE   O1218978   3.391   6.990   2.921  0.0437 -0.1025  0.4043
  169SAPE   O1118979   3.573   7.092   3.049  0.4330  0.8865  0.8370
  169SAPE    C118980   3.611   6.956   3.089 -0.4089 -0.2749  0.3400
  169SAPE    HA18981   3.600   6.873   3.016 -1.4421 -1.2909  1.6092
  169SAPE    HB18982   3.721   6.949   3.100 -0.4188 -1.3053 -0.1126
  169SAPE    C218983   3.534   6.902   3.212 -0.3841  0.8019 -0.2402
  169SAPE    HS18984   3.423   6.906   3.207 -0.7257  0.2157  3.8669
  169SAPE   O2118985   3.581   6.979   3.317  0.2752 -0.5710  0.1466
  169SAPE   C2118986   3.487   7.009   3.411 -0.0729  0.0275 -1.2331
  169SAPE   O2218987   3.372   6.971   3.409 -0.4338 -0.5298 -0.0731
  169SAPE   C2218988   3.552   7.081   3.530  0.6173  1.1690 -0.0635
  169SAPE   H2R18989   3.654   7.038   3.537  0.0970 -0.5958 -2.0761
  169SAPE   H2S18990   3.569   7.186   3.496 -0.0857  1.3531  0.1489
  169SAPE    C318991   3.565   6.751   3.243  0.2379 -0.5523 -0.4375
  169SAPE    HX18992   3.675   6.750   3.260  0.5071 -0.8996 -2.1044
  169SAPE    HY18993   3.543   6.688   3.155 -1.5976 -0.5817  0.0024
  169SAPE   O3118994   3.498   6.706   3.369  0.2356 -0.2302  0.6415
  169SAPE   C3118995   3.376   6.667   3.349  0.4516 -0.5837  0.4697
  169SAPE   O3218996   3.321   6.669   3.238  0.7217  0.2497  0.1866
  169SAPE   C3218997   3.333   6.575   3.470 -0.0422 -0.3589  0.5517
  169SAPE   H2X18998   3.406   6.597   3.552 -0.2419  0.7328  0.4551
  169SAPE   H2Y18999   3.357   6.473   3.434 -1.0128 -0.4316  0.0951
  169SAPE   C2319000   3.469   7.067   3.663  0.6857 -0.2758  0.1470
  169SAPE   H3R19001   3.368   7.113   3.671  0.5206 -0.5785 -0.1659
  169SAPE   H3S19002   3.531   7.124   3.735 -1.5633  5.3050 -1.7638
  169SAPE   C2419003   3.439   6.918   3.705 -0.7651  0.2212 -0.7862
  169SAPE   H4R19004   3.351   6.884   3.646 -0.6692 -0.4506 -0.5475
  169SAPE   H4S19005   3.409   6.927   3.812  1.7614 -2.6866  0.3245
  169SAPE   C2519006   3.553   6.818   3.705 -0.0336 -0.4147 -0.8377
  169SAPE   H5R19007   3.561   6.742   3.625  0.0250 -1.0495 -0.2414
  169SAPE   C2619008   3.652   6.811   3.799 -0.5909  0.3225 -0.1266
  169SAPE   H6R19009   3.721   6.726   3.787 -0.7850  0.1321  0.0762
  169SAPE   C2719010   3.677   6.891   3.930  0.8909  0.1805 -0.0620
  169SAPE   H7R19011   3.614   6.981   3.945  0.4966  0.1378 -1.3641
  169SAPE   H7S19012   3.785   6.917   3.923  0.8395  0.5097  0.3313
  169SAPE   C2819013   3.651   6.795   4.050 -0.4357 -0.3232  1.1151
  169SAPE   H8R19014   3.723   6.713   4.037  2.9504  2.7746 -2.3115
  169SAPE   C2919015   3.576   6.799   4.162 -0.2497 -0.2420  1.0281
  169SAPE   H9R19016   3.587   6.724   4.242 -0.3687 -1.3809  0.0087
  169SAPE  C21019017   3.475   6.906   4.188  0.0917  0.0480 -0.1761
  169SAPE  H10R19018   3.386   6.862   4.240  1.3449 -0.5073  1.6097
  169SAPE  H10S19019   3.438   6.955   4.096  0.3144  1.6255  0.5382
  169SAPE  C21119020   3.550   6.997   4.286 -0.6281  0.3941  0.1039
  169SAPE  H11R19021   3.656   7.005   4.256 -0.3631 -2.2745  0.1033
  169SAPE  C21219022   3.497   7.059   4.389 -0.2692 -0.9198 -0.1773
  169SAPE  H12R19023   3.560   7.108   4.465  0.5226 -0.1358 -1.3106
  169SAPE  C21319024   3.361   7.047   4.443  0.7293  0.2440 -0.3964
  169SAPE  H13R19025   3.294   6.979   4.386  1.3080 -0.8855  0.2475
  169SAPE  H13S19026   3.316   7.149   4.446  1.9232  0.7760  0.0956
  169SAPE  C21419027   3.364   7.007   4.590  0.5514  0.3271  0.1580
  169SAPE  H14R19028   3.335   6.903   4.612 -1.4113  0.4713 -1.4842
  169SAPE  C21519029   3.375   7.090   4.696  0.1471  0.1378 -0.4456
  169SAPE  H15R19030   3.371   7.049   4.798  0.7712  1.6506  0.2123
  169SAPE  C21619031   3.420   7.235   4.683 -0.4475  0.7371  0.0343
  169SAPE  H16R19032   3.353   7.301   4.742 -1.2458 -0.0091 -0.0166
  169SAPE  H16S19033   3.423   7.271   4.578  0.1551 -0.8656 -0.5255
  169SAPE  C21719034   3.563   7.265   4.729  0.1141  0.2042 -0.2043
  169SAPE  H17R19035   3.595   7.348   4.663  2.1603  0.2772  0.8010
  169SAPE  H17S19036   3.637   7.185   4.708 -0.4326 -0.1522 -0.8103
  169SAPE  C21819037   3.570   7.307   4.878  0.0599 -0.2950  0.2963
  169SAPE  H18R19038   3.493   7.253   4.938 -2.3188  1.8018 -0.6862
  169SAPE  H18S19039   3.534   7.412   4.883  1.0180  0.3830 -3.7013
  169SAPE  C21919040   3.715   7.309   4.931  0.4319  0.3092  0.0616
  169SAPE  H19R19041   3.724   7.392   5.005 -0.5965  0.6161 -0.1367
  169SAPE  H19S19042   3.784   7.343   4.851  0.1726  1.5105  0.3364
  169SAPE  C22019043   3.763   7.174   4.989 -0.0702  0.8770  0.7037
  169SAPE  H20R19044   3.870   7.176   5.018  0.4022 -0.0685 -0.8179
  169SAPE  H20S19045   3.761   7.094   4.912  0.8559 -0.4411  2.0142
  169SAPE  H20T19046   3.703   7.140   5.076  0.7833  0.2190  1.0440
  169SAPE   C3319047   3.190   6.592   3.510  0.3973 -0.5178  0.1930
  169SAPE   H3X19048   3.116   6.570   3.429  0.8060  0.3579 -0.4354
  169SAPE   H3Y19049   3.162   6.692   3.549 -1.6915 -0.3801 -1.4670
  169SAPE   C3419050   3.144   6.496   3.618 -0.3051  0.4481 -0.0263
  169SAPE   H4X19051   3.178   6.391   3.605 -2.3443 -0.2485 -0.0155
  169SAPE   H4Y19052   3.033   6.493   3.615 -0.3287  0.9756  0.1354
  169SAPE   C3519053   3.201   6.541   3.747 -0.1281  0.2571 -0.2202
  169SAPE   H5X19054   3.183   6.649   3.762 -1.8835 -0.2535  1.9368
  169SAPE   H5Y19055   3.312   6.537   3.750 -0.0504  1.6043  2.9128
  169SAPE   C3619056   3.143   6.462   3.866  0.1113 -0.5365  0.2104
  169SAPE   H6X19057   3.175   6.356   3.861  2.6564  0.2371 -1.9315
  169SAPE   H6Y19058   3.034   6.456   3.843  0.2190 -2.1323  0.0141
  169SAPE   C3719059   3.186   6.528   3.992 -0.4173 -0.2095 -0.2733
  169SAPE   H7X19060   3.204   6.638   3.985  3.6237 -0.6150  0.9599
  169SAPE   H7Y19061   3.290   6.490   3.995 -1.3910 -3.0256  0.8868
  169SAPE   C3819062   3.107   6.482   4.118 -0.4973  0.2644 -0.3280
  169SAPE   H8X19063   3.135   6.377   4.142 -1.2871  0.3077  0.8666
  169SAPE   H8Y19064   2.997   6.488   4.109 -0.5127 -0.0416 -0.3529
  169SAPE   C3919065   3.155   6.566   4.242 -0.0577 -0.0905 -0.1462
  169SAPE   H9X19066   3.102   6.664   4.246  0.6421  0.3386 -0.9632
  169SAPE   H9Y19067   3.260   6.599   4.228 -0.2904  1.6797  1.7699
  169SAPE  C31019068   3.149   6.485   4.370 -0.2020 -0.4711 -0.3281
  169SAPE  H10X19069   3.216   6.399   4.348 -0.7467 -1.6930  2.4484
  169SAPE  H10Y19070   3.047   6.446   4.390 -1.4394  1.4916 -2.3134
  169SAPE  C31119071   3.198   6.558   4.501 -0.2571 -1.1603  0.7690
  169SAPE  H11X19072   3.131   6.644   4.524  2.1498  1.7103 -1.9432
  169SAPE  H11Y19073   3.296   6.607   4.479 -1.6568  1.2281 -0.6000
  169SAPE  C31219074   3.211   6.467   4.618  0.6637  0.7349 -0.5978
  169SAPE  H12X19075   3.295   6.397   4.599 -0.9150 -1.7397  1.0064
  169SAPE  H12Y19076   3.121   6.407   4.643 -1.7745  4.3234  0.0745
  169SAPE  C31319077   3.235   6.535   4.754  0.3567  0.8244  0.0042
  169SAPE  H13X19078   3.164   6.618   4.776 -1.6993 -0.9144  0.3326
  169SAPE  H13Y19079   3.335   6.582   4.766  0.3874  0.4091  1.6013
  169SAPE  C31419080   3.231   6.441   4.881 -0.4995 -0.2518  0.8432
  169SAPE  H14X19081   3.308   6.361   4.877 -0.4087 -0.1734  1.0007
  169SAPE  H14Y19082   3.133   6.389   4.890 -0.7907 -0.0217 -0.7049
  169SAPE  C31519083   3.249   6.530   5.007 -0.5386 -0.0017  0.6790
  169SAPE  H15X19084   3.182   6.618   4.995 -2.6377 -1.6457 -0.4121
  169SAPE  H15Y19085   3.356   6.558   5.005 -0.7560  0.8152 -0.5240
  169SAPE  C31619086   3.219   6.474   5.147 -0.9596 -0.6656  0.1835
  169SAPE  H16X19087   3.298   6.406   5.182 -1.3707 -1.0314  0.4056
  169SAPE  H16Y19088   3.122   6.420   5.137 -1.5356  0.5654 -1.3206
  169SAPE  C31719089   3.203   6.597   5.237 -0.4832 -0.6739  0.5423
  169SAPE  H17X19090   3.151   6.555   5.325  0.0439 -1.6474  0.4055
  169SAPE  H17Y19091   3.127   6.664   5.192  1.2847  0.9906 -0.0928
  169SAPE  C31819092   3.330   6.672   5.275  0.1156 -0.1099 -1.0474
  169SAPE  H18X19093   3.385   6.712   5.186 -2.8297  1.3552 -2.3605
  169SAPE  H18Y19094   3.402   6.602   5.322 -0.1269  0.8139  0.7880
  169SAPE  H18Z19095   3.315   6.748   5.354  1.3609 -3.7842  3.1068
  170SAPE     N19096   4.529   3.003   2.785  0.0138 -0.7230  0.2507
  170SAPE   HN119097   4.502   3.058   2.869 -0.7153  0.1478 -0.5395
  170SAPE   HN219098   4.458   3.031   2.715 -0.4658  0.7360  1.2667
  170SAPE   HN319099   4.528   2.901   2.808  1.4236 -0.3610  2.1749
  170SAPE   C1219100   4.662   3.063   2.733  1.1236  0.0839  0.0896
  170SAPE  H12A19101   4.674   3.020   2.631 -1.6996  0.2056 -0.3913
  170SAPE  H12B19102   4.741   3.039   2.807  1.7826 -0.3800 -0.7392
  170SAPE   C1119103   4.637   3.217   2.720 -0.4814 -0.2079 -0.3031
  170SAPE  H11A19104   4.728   3.270   2.684 -0.7609  0.5129  0.0475
  170SAPE  H11B19105   4.621   3.253   2.824  2.1864 -0.0128  0.1338
  170SAPE     P19106   4.435   3.374   2.664  0.1830 -0.2183 -0.1451
  170SAPE   O1319107   4.519   3.496   2.656 -0.9178  0.1007  0.9170
  170SAPE   O1419108   4.322   3.357   2.571 -0.2586 -0.1875  0.2458
  170SAPE   O1219109   4.527   3.247   2.636  0.1358  0.0392  0.6446
  170SAPE   O1119110   4.386   3.340   2.815 -0.6131 -0.6788  0.6999
  170SAPE    C119111   4.354   3.454   2.896  0.2551 -0.6284  0.7343
  170SAPE    HA19112   4.323   3.538   2.830  1.1815 -1.3276 -0.6614
  170SAPE    HB19113   4.267   3.439   2.963 -1.3587 -0.2683 -1.1804
  170SAPE    C219114   4.473   3.497   2.975  0.5052 -0.5798 -0.7698
  170SAPE    HS19115   4.566   3.501   2.914  1.2197 -1.7157  0.1992
  170SAPE   O2119116   4.482   3.405   3.084 -0.2574 -0.0965 -0.3233
  170SAPE   C2119117   4.599   3.358   3.117  0.4594  0.3413 -0.2287
  170SAPE   O2219118   4.705   3.386   3.065  0.4126 -0.0254 -0.0716
  170SAPE   C2219119   4.592   3.248   3.219  0.0799 -0.4820 -0.0506
  170SAPE   H2R19120   4.488   3.229   3.250 -0.5760  1.7718 -0.6343
  170SAPE   H2S19121   4.620   3.154   3.168 -2.3261 -1.3222  0.1045
  170SAPE    C319122   4.452   3.633   3.043 -0.2813  0.3503 -0.5501
  170SAPE    HX19123   4.355   3.626   3.097  0.6025 -1.5926  0.9284
  170SAPE    HY19124   4.438   3.710   2.964 -0.3452  0.3158 -0.5726
  170SAPE   O3119125   4.541   3.661   3.151  0.2411 -0.7322 -0.4996
  170SAPE   C3119126   4.663   3.697   3.112  0.0728  0.0022 -0.5782
  170SAPE   O3219127   4.697   3.707   2.994  0.4607  0.2549  0.4122
  170SAPE   C3219128   4.760   3.707   3.230  0.0379 -0.2967  0.6661
  170SAPE   H2X19129   4.832   3.792   3.226 -1.0856  0.6837  0.5444
  170SAPE   H2Y19130   4.828   3.619   3.230  0.6989  0.1008 -2.4049
  170SAPE   C2319131   4.673   3.285   3.342 -0.0977  0.6148  0.3230
  170SAPE   H3R19132   4.749   3.363   3.320  0.5326  0.2085  0.9972
  170SAPE   H3S19133   4.729   3.198   3.383 -0.5551 -0.7185 -1.7590
  170SAPE   C2419134   4.583   3.320   3.461 -0.1453  0.2105 -0.5378
  170SAPE   H4R19135   4.511   3.236   3.477 -0.2573 -0.0965 -2.4035
  170SAPE   H4S19136   4.524   3.404   3.418 -0.8694  0.3992  0.7837
  170SAPE   C2519137   4.659   3.362   3.587  0.0663  0.0349  0.1428
  170SAPE   H5R19138   4.719   3.454   3.581  0.3120  0.0320  1.8798
  170SAPE   C2619139   4.658   3.297   3.708  0.7183 -0.5472 -0.0734
  170SAPE   H6R19140   4.709   3.348   3.792  1.0525 -3.0789  1.3599
  170SAPE   C2719141   4.568   3.173   3.742 -0.5853 -0.1684  0.0313
  170SAPE   H7R19142   4.470   3.162   3.691 -0.9677  0.4794  0.6133
  170SAPE   H7S19143   4.533   3.184   3.847 -0.3388 -0.0719  0.1020
  170SAPE   C2819144   4.616   3.034   3.732  0.0162 -0.5922  0.5066
  170SAPE   H8R19145   4.641   3.005   3.629 -1.1165  0.1678 -0.0099
  170SAPE   C2919146   4.636   2.948   3.835  0.2697  0.0415 -0.4525
  170SAPE   H9R19147   4.677   2.850   3.806 -0.4610 -0.9085  1.5400
  170SAPE  C21019148   4.625   2.964   3.986  0.3692 -0.2683 -0.3211
  170SAPE  H10R19149   4.548   2.899   4.032 -0.4124  0.5224 -0.4977
  170SAPE  H10S19150   4.608   3.070   4.013  3.6103 -0.0558  1.4955
  170SAPE  C21119151   4.760   2.924   4.055  0.5121 -0.6476  0.0554
  170SAPE  H11R19152   4.845   2.952   3.992 -0.6458 -0.0058 -1.2601
  170SAPE  C21219153   4.778   2.880   4.184 -0.0484 -0.0644 -0.1063
  170SAPE  H12R19154   4.886   2.879   4.203  0.2469  2.6923 -1.1782
  170SAPE  C21319155   4.667   2.877   4.287  0.0893  0.0077  0.5149
  170SAPE  H13R19156   4.685   2.792   4.357  0.3408 -1.6397 -1.4420
  170SAPE  H13S19157   4.562   2.863   4.254  0.3963  1.4370 -1.1871
  170SAPE  C21419158   4.676   3.005   4.362  0.5048  0.8167  0.4847
  170SAPE  H14R19159   4.619   3.083   4.309 -0.3534 -0.2685 -0.2387
  170SAPE  C21519160   4.736   3.035   4.476  0.0507 -0.1734 -0.1875
  170SAPE  H15R19161   4.727   3.133   4.524  0.3890 -0.3450  0.2340
  170SAPE  C21619162   4.798   2.928   4.566  0.4851 -0.9192 -0.5144
  170SAPE  H16R19163   4.905   2.944   4.593  0.9267 -1.2487 -1.9728
  170SAPE  H16S19164   4.788   2.831   4.511 -1.7948 -0.9467 -0.1283
  170SAPE  C21719165   4.709   2.922   4.693 -0.2135  0.5161  0.1365
  170SAPE  H17R19166   4.738   2.835   4.757 -2.2578 -0.6124 -0.3706
  170SAPE  H17S19167   4.607   2.896   4.656 -0.9494  1.6887  1.2502
  170SAPE  C21819168   4.712   3.049   4.778 -0.1384 -0.3025  0.2869
  170SAPE  H18R19169   4.759   3.136   4.727  0.8595 -0.1628  1.3775
  170SAPE  H18S19170   4.772   3.030   4.870  0.9813  0.2340 -0.3181
  170SAPE  C21919171   4.575   3.098   4.819 -0.3495  0.1641  1.0916
  170SAPE  H19R19172   4.585   3.174   4.900 -2.5341  3.0945 -1.1549
  170SAPE  H19S19173   4.514   3.015   4.858 -0.9102 -0.8331 -1.6903
  170SAPE  C22019174   4.501   3.182   4.719 -0.9079  0.0772  0.2875
  170SAPE  H20R19175   4.562   3.274   4.706  0.0014 -0.2793  1.7687
  170SAPE  H20S19176   4.400   3.216   4.750 -1.6302  0.0612 -1.9213
  170SAPE  H20T19177   4.491   3.121   4.627 -0.6227  1.0477 -0.4111
  170SAPE   C3319178   4.695   3.731   3.370 -0.0184  0.3819  0.0992
  170SAPE   H3X19179   4.621   3.649   3.376  2.0138 -1.8634 -2.5747
  170SAPE   H3Y19180   4.648   3.832   3.375  1.2659  0.9575  1.1970
  170SAPE   C3419181   4.794   3.713   3.483 -0.5553  0.4175  0.2242
  170SAPE   H4X19182   4.880   3.784   3.484 -0.4966  0.3979  2.8930
  170SAPE   H4Y19183   4.837   3.611   3.486  0.5309  0.6774 -2.8428
  170SAPE   C3519184   4.732   3.735   3.615  0.2791 -0.4726  0.2099
  170SAPE   H5X19185   4.630   3.692   3.615 -0.4227  1.1007  1.1079
  170SAPE   H5Y19186   4.717   3.844   3.633 -1.0078 -0.5959 -0.0033
  170SAPE   C3619187   4.810   3.674   3.730  0.2734  0.2544 -0.1725
  170SAPE   H6X19188   4.909   3.723   3.734  0.9282 -1.0295  0.0681
  170SAPE   H6Y19189   4.838   3.568   3.712 -1.0303  0.2666 -2.6355
  170SAPE   C3719190   4.744   3.683   3.869  0.0944  0.4141  0.3887
  170SAPE   H7X19191   4.660   3.610   3.865 -0.0709  0.4178  2.5711
  170SAPE   H7Y19192   4.705   3.787   3.877 -1.5333 -0.1724  0.5931
  170SAPE   C3819193   4.828   3.635   3.987 -0.1118  1.0981  0.2410
  170SAPE   H8X19194   4.905   3.714   4.002  1.4269 -0.4391  0.8016
  170SAPE   H8Y19195   4.883   3.540   3.969 -2.5919 -0.4591  0.3841
  170SAPE   C3919196   4.740   3.604   4.109  0.1862 -0.2714  0.4130
  170SAPE   H9X19197   4.693   3.503   4.102 -2.0517  0.7442 -0.2276
  170SAPE   H9Y19198   4.648   3.665   4.123 -1.3218 -2.5935  1.2326
  170SAPE  C31019199   4.828   3.617   4.235  0.4676 -0.5612 -0.1238
  170SAPE  H10X19200   4.843   3.727   4.239 -1.7740 -0.2167  0.1252
  170SAPE  H10Y19201   4.916   3.551   4.221 -1.1250 -3.0828  0.9031
  170SAPE  C31119202   4.754   3.563   4.366  0.4318  0.6783 -1.1505
  170SAPE  H11X19203   4.737   3.456   4.342  1.5976  0.4202 -0.9033
  170SAPE  H11Y19204   4.655   3.609   4.386  0.2590 -0.3471  0.5334
  170SAPE  C31219205   4.839   3.566   4.499 -0.2910 -0.3052 -1.5274
  170SAPE  H12X19206   4.853   3.673   4.524 -2.5513  0.5168 -3.3682
  170SAPE  H12Y19207   4.938   3.518   4.484 -0.2662 -1.1404  0.9066
  170SAPE  C31319208   4.765   3.500   4.617  0.1085  0.2193  0.6036
  170SAPE  H13X19209   4.743   3.398   4.577  2.5480  0.0212 -0.4012
  170SAPE  H13Y19210   4.671   3.557   4.629 -0.1184  0.1479 -0.6321
  170SAPE  C31419211   4.848   3.487   4.745 -0.3489  0.7079  0.7163
  170SAPE  H14X19212   4.872   3.588   4.783  3.1449  0.3735 -0.2189
  170SAPE  H14Y19213   4.941   3.431   4.719 -0.2579  0.7972  0.8472
  170SAPE  C31519214   4.774   3.411   4.852  0.1028 -0.1419  0.0358
  170SAPE  H15X19215   4.834   3.413   4.945 -0.2220  0.1246  0.2424
  170SAPE  H15Y19216   4.747   3.307   4.824  0.0816 -0.0133 -0.4254
  170SAPE  C31619217   4.637   3.470   4.893  0.0736 -0.3919 -0.0673
  170SAPE  H16X19218   4.603   3.403   4.975  1.9092 -1.1256  0.1381
  170SAPE  H16Y19219   4.562   3.474   4.812 -1.3934 -0.1944  1.2475
  170SAPE  C31719220   4.639   3.614   4.950  0.1020  0.1198  0.1534
  170SAPE  H17X19221   4.673   3.681   4.868 -0.0544 -1.3573 -1.1634
  170SAPE  H17Y19222   4.701   3.618   5.043  0.9432 -0.3368 -0.3742
  170SAPE  C31819223   4.495   3.660   4.993 -0.2536  0.3852 -0.5040
  170SAPE  H18X19224   4.462   3.602   5.081  1.0429  0.4543  0.0458
  170SAPE  H18Y19225   4.430   3.638   4.905 -0.6617  0.1277 -0.1419
  170SAPE  H18Z19226   4.493   3.769   5.012  0.4686 -0.0520  2.5580
  171SAPE     N19227   0.634   2.558   3.033  0.7373  0.2089 -0.2262
  171SAPE   HN119228   0.580   2.576   2.946  0.3724 -0.9958 -0.2668
  171SAPE   HN219229   0.630   2.639   3.098  1.4443 -0.3314  0.5218
  171SAPE   HN319230   0.737   2.542   3.025  0.7639  0.0391  0.3780
  171SAPE   C1219231   0.571   2.445   3.110  0.1236  0.1737 -0.1709
  171SAPE  H12A19232   0.591   2.467   3.217 -1.2926 -3.1147  0.9218
  171SAPE  H12B19233   0.609   2.343   3.088 -1.2036 -0.8830  2.1360
  171SAPE   C1119234   0.425   2.446   3.085  0.7568  0.1987 -0.0745
  171SAPE  H11A19235   0.387   2.547   3.111  0.3922 -0.5046  2.4912
  171SAPE  H11B19236   0.370   2.382   3.158  0.1662  1.1200  0.3057
  171SAPE     P19237   0.268   2.440   2.876  0.6542  0.0043 -0.2304
  171SAPE   O1319238   0.252   2.581   2.881 -0.1203 -0.5123 -0.2018
  171SAPE   O1419239   0.274   2.379   2.738 -0.4192  0.1385  0.2004
  171SAPE   O1219240   0.395   2.404   2.951 -0.3453 -0.1229 -0.1769
  171SAPE   O1119241   0.156   2.364   2.963 -1.0500  0.0736  0.3022
  171SAPE    C119242   0.154   2.217   2.977 -0.3035 -0.0133 -0.2477
  171SAPE    HA19243   0.178   2.162   2.883 -0.8764  2.5402 -2.0064
  171SAPE    HB19244   0.229   2.189   3.054  0.4543  0.6537 -0.7189
  171SAPE    C219245   0.013   2.174   3.016 -0.8566  0.0772 -0.2092
  171SAPE    HS19246  -0.052   2.209   2.933  1.5594  1.6627 -1.5673
  171SAPE   O2119247  -0.013   2.246   3.138 -0.3522 -0.2344 -0.1933
  171SAPE   C2119248  -0.145   2.240   3.170 -0.3019 -0.1701 -0.0374
  171SAPE   O2219249  -0.223   2.162   3.121  0.0336  0.1777 -0.0023
  171SAPE   C2219250  -0.176   2.352   3.268 -0.1952 -0.1474  0.1401
  171SAPE   H2R19251  -0.099   2.376   3.345 -1.7298 -0.1457  1.7694
  171SAPE   H2S19252  -0.220   2.442   3.220  0.6786  0.1562 -0.1061
  171SAPE    C319253   0.011   2.019   3.034  0.1239  0.1931 -0.0031
  171SAPE    HX19254   0.035   1.965   2.939 -0.5485 -3.4748  1.7155
  171SAPE    HY19255  -0.090   1.981   3.060 -0.4522 -0.4907 -2.8630
  171SAPE   O3119256   0.108   1.967   3.123 -0.3309 -0.7254 -0.3687
  171SAPE   C3119257   0.136   1.831   3.112  0.6302 -0.1339 -0.0563
  171SAPE   O3219258   0.068   1.747   3.059  0.1478 -0.5940  0.1566
  171SAPE   C3219259   0.277   1.806   3.168  0.2307  0.7636 -0.3191
  171SAPE   H2X19260   0.336   1.748   3.093 -0.6644  2.0221 -2.0607
  171SAPE   H2Y19261   0.264   1.744   3.259 -0.3501  0.7684 -0.3969
  171SAPE   C2319262  -0.297   2.305   3.355 -0.0297  0.7654  1.1856
  171SAPE   H3R19263  -0.275   2.203   3.395  1.1073  1.3522  2.1193
  171SAPE   H3S19264  -0.387   2.300   3.291  0.4605  1.6226  0.4178
  171SAPE   C2419265  -0.332   2.381   3.482  0.6045  0.1893  0.4766
  171SAPE   H4R19266  -0.270   2.348   3.568 -0.2254  0.4344  1.1800
  171SAPE   H4S19267  -0.434   2.341   3.501  1.2133 -1.1995  1.0086
  171SAPE   C2519268  -0.332   2.533   3.477  0.4419  0.2678  0.2213
  171SAPE   H5R19269  -0.420   2.576   3.427  0.6016 -0.4293 -0.6830
  171SAPE   C2619270  -0.234   2.617   3.513  0.2680 -0.3005 -0.2971
  171SAPE   H6R19271  -0.258   2.725   3.507  0.2694 -0.3704 -2.1713
  171SAPE   C2719272  -0.092   2.581   3.571  0.3411 -0.2010  0.0844
  171SAPE   H7R19273  -0.022   2.552   3.489 -0.0911  0.6300 -0.5952
  171SAPE   H7S19274  -0.095   2.488   3.632 -0.7201 -1.1768 -1.3461
  171SAPE   C2819275  -0.035   2.702   3.648  0.6176  0.5797  0.7480
  171SAPE   H8R19276   0.024   2.762   3.578 -0.0649  0.6573  0.2259
  171SAPE   C2919277  -0.050   2.731   3.774  0.2686  0.3906 -0.4628
  171SAPE   H9R19278   0.005   2.819   3.811 -0.3007  0.1787  0.9643
  171SAPE  C21019279  -0.143   2.654   3.867  0.3257 -0.4788  0.3989
  171SAPE  H10R19280  -0.204   2.575   3.818  0.0700 -0.0336  0.0011
  171SAPE  H10S19281  -0.223   2.724   3.897 -0.6080  0.5424 -3.8765
  171SAPE  C21119282  -0.070   2.585   3.978 -0.5351 -1.1738  0.1137
  171SAPE  H11R19283  -0.004   2.502   3.949 -0.1611 -2.4691  4.0792
  171SAPE  C21219284  -0.067   2.621   4.112  0.2088  0.1368  0.8627
  171SAPE  H12R19285  -0.011   2.555   4.180 -0.6127 -0.2020  1.2224
  171SAPE  C21319286  -0.150   2.736   4.167  0.4843 -0.2455  0.2642
  171SAPE  H13R19287  -0.248   2.745   4.115  0.0654 -2.7072  0.5065
  171SAPE  H13S19288  -0.086   2.821   4.135  2.2157 -1.6248 -0.0996
  171SAPE  C21419289  -0.174   2.737   4.319  0.1054  0.2755  0.1236
  171SAPE  H14R19290  -0.169   2.835   4.368  0.9110 -0.2660  1.1596
  171SAPE  C21519291  -0.204   2.640   4.407 -0.7291  0.3353  0.7221
  171SAPE  H15R19292  -0.228   2.674   4.508 -0.7715  0.7073  0.5864
  171SAPE  C21619293  -0.240   2.502   4.357  0.3625 -0.2438 -0.4044
  171SAPE  H16R19294  -0.206   2.437   4.440 -2.7793 -1.0933  0.3605
  171SAPE  H16S19295  -0.184   2.464   4.269 -0.5883 -1.0038 -0.7039
  171SAPE  C21719296  -0.391   2.469   4.342  0.1225 -0.7900 -0.1099
  171SAPE  H17R19297  -0.379   2.364   4.307  0.1501 -1.0636  0.6925
  171SAPE  H17S19298  -0.434   2.537   4.265  2.2110 -0.2914 -0.8757
  171SAPE  C21819299  -0.477   2.445   4.468 -0.3461 -1.0448 -0.6004
  171SAPE  H18R19300  -0.576   2.400   4.443 -0.2825 -1.4696 -0.1048
  171SAPE  H18S19301  -0.500   2.540   4.521  2.0389 -1.2072  0.8640
  171SAPE  C21919302  -0.412   2.352   4.572  0.2959  0.5629 -0.3589
  171SAPE  H19R19303  -0.307   2.379   4.598  0.3908  0.6111 -0.7936
  171SAPE  H19S19304  -0.416   2.251   4.525 -0.9302 -0.2166  1.3170
  171SAPE  C22019305  -0.497   2.358   4.695  0.1962 -0.0676 -0.3422
  171SAPE  H20R19306  -0.456   2.299   4.780  0.2956 -0.7687 -0.8644
  171SAPE  H20S19307  -0.602   2.324   4.682 -0.1137  0.4409  0.7022
  171SAPE  H20T19308  -0.510   2.463   4.727  2.3278  0.3928 -0.8211
  171SAPE   C3319309   0.367   1.934   3.197  0.4770  0.8483 -0.1440
  171SAPE   H3X19310   0.349   2.008   3.116  0.2052  0.5666 -0.3427
  171SAPE   H3Y19311   0.474   1.901   3.199  0.6592  1.1367 -2.5306
  171SAPE   C3419312   0.332   2.012   3.326  0.3914  0.7534 -0.1448
  171SAPE   H4X19313   0.331   1.929   3.400  0.4807  1.1745  0.3362
  171SAPE   H4Y19314   0.229   2.054   3.320  0.1838  0.0495 -3.2817
  171SAPE   C3519315   0.441   2.118   3.344  0.4597 -0.1912 -0.3801
  171SAPE   H5X19316   0.469   2.151   3.242 -1.4929  1.0412 -0.5704
  171SAPE   H5Y19317   0.522   2.073   3.404 -1.5328  0.8049  3.3761
  171SAPE   C3619318   0.384   2.245   3.409  0.0914  0.3164 -0.0278
  171SAPE   H6X19319   0.298   2.282   3.348  0.9305  3.4938  0.5445
  171SAPE   H6Y19320   0.467   2.318   3.400  0.8918 -0.4655  0.8761
  171SAPE   C3719321   0.340   2.232   3.549 -0.2547  0.2830 -0.1461
  171SAPE   H7X19322   0.409   2.172   3.612 -2.2072 -2.8639 -0.7419
  171SAPE   H7Y19323   0.248   2.170   3.550 -1.1221  1.5105 -0.7458
  171SAPE   C3819324   0.301   2.372   3.597  0.1826 -0.3338 -0.6448
  171SAPE   H8X19325   0.243   2.415   3.513  0.0246 -1.9031 -1.3850
  171SAPE   H8Y19326   0.395   2.428   3.616  1.7715 -3.3975  1.4094
  171SAPE   C3919327   0.210   2.353   3.717  0.3577 -0.4736  0.0341
  171SAPE   H9X19328   0.110   2.312   3.691  0.4665 -0.6480 -0.1079
  171SAPE   H9Y19329   0.180   2.455   3.749  0.2386 -0.9433  1.4669
  171SAPE  C31019330   0.269   2.265   3.831  0.1794  0.2847 -0.6876
  171SAPE  H10X19331   0.296   2.162   3.799  0.4264 -0.5664  2.0237
  171SAPE  H10Y19332   0.198   2.256   3.915  1.1563  0.6867  0.2055
  171SAPE  C31119333   0.395   2.324   3.892  0.1579 -0.4272 -0.1071
  171SAPE  H11X19334   0.459   2.360   3.808 -2.8755  0.8756 -2.0370
  171SAPE  H11Y19335   0.453   2.246   3.944  2.0346 -0.3528 -1.9374
  171SAPE  C31219336   0.382   2.450   3.973  0.3599 -0.0517  0.5078
  171SAPE  H12X19337   0.298   2.512   3.935  0.2951 -1.1068 -1.1714
  171SAPE  H12Y19338   0.471   2.517   3.973 -0.0294  0.4905 -0.6042
  171SAPE  C31319339   0.344   2.424   4.123 -0.0226 -0.0372 -0.8195
  171SAPE  H13X19340   0.426   2.362   4.164 -1.3916 -0.6379  1.2036
  171SAPE  H13Y19341   0.247   2.371   4.134 -0.3905  0.5967 -0.9720
  171SAPE  C31419342   0.315   2.558   4.195 -0.3532 -0.3635  0.7744
  171SAPE  H14X19343   0.230   2.596   4.134 -0.8852 -2.1535  0.3295
  171SAPE  H14Y19344   0.394   2.636   4.197  0.7039 -1.4211  2.0186
  171SAPE  C31519345   0.276   2.535   4.343 -1.0682 -0.1511 -0.2391
  171SAPE  H15X19346   0.343   2.453   4.378  2.1268  1.0233 -3.0566
  171SAPE  H15Y19347   0.174   2.492   4.350 -0.9823 -0.6143 -1.6461
  171SAPE  C31619348   0.277   2.668   4.420 -0.2069  0.0649 -0.6654
  171SAPE  H16X19349   0.184   2.719   4.385 -0.0465  0.2388 -0.8421
  171SAPE  H16Y19350   0.364   2.737   4.413  0.3486 -0.6683 -1.1400
  171SAPE  C31719351   0.252   2.646   4.573  0.3819 -0.5991 -0.0928
  171SAPE  H17X19352   0.343   2.607   4.622  0.2557  0.8602  1.3606
  171SAPE  H17Y19353   0.168   2.573   4.580 -0.4234  0.2790 -0.3457
  171SAPE  C31819354   0.217   2.779   4.635 -0.2060  0.2467  0.5026
  171SAPE  H18X19355   0.161   2.748   4.726 -0.9913 -2.0250 -0.6600
  171SAPE  H18Y19356   0.140   2.835   4.578  0.5491  0.9084  0.1215
  171SAPE  H18Z19357   0.304   2.845   4.658 -0.6408  0.3471  1.9337
  172SAPE     N19358   5.234   5.879   2.881  0.3513  0.3654 -0.0957
  172SAPE   HN119359   5.304   5.926   2.821 -1.1241 -0.1155 -2.3243
  172SAPE   HN219360   5.180   5.943   2.943  0.4489  2.0759 -1.7081
  172SAPE   HN319361   5.289   5.813   2.940  0.7778 -1.1447 -2.0897
  172SAPE   C1219362   5.152   5.794   2.798 -0.3587  0.8771  0.4191
  172SAPE  H12A19363   5.088   5.855   2.731 -1.5587 -0.2028  0.5295
  172SAPE  H12B19364   5.095   5.725   2.865  0.8404  0.4750  1.0482
  172SAPE   C1119365   5.245   5.705   2.710 -0.0395 -0.0754 -0.0612
  172SAPE  H11A19366   5.316   5.778   2.664  1.1517  0.2360  2.1313
  172SAPE  H11B19367   5.182   5.645   2.641 -0.7715 -0.6507  1.0985
  172SAPE     P19368   5.438   5.543   2.711  0.3638 -0.4484 -0.1663
  172SAPE   O1319369   5.397   5.422   2.636 -0.0668 -0.2379  0.3350
  172SAPE   O1419370   5.513   5.637   2.632 -0.1852  0.0452  0.4861
  172SAPE   O1219371   5.319   5.612   2.794 -0.4614  0.8907 -0.5335
  172SAPE   O1119372   5.537   5.500   2.822 -0.7141 -0.2459 -0.4137
  172SAPE    C119373   5.569   5.579   2.937 -0.1064 -0.8157  0.5956
  172SAPE    HA19374   5.680   5.594   2.940 -0.0246 -1.0376 -0.7336
  172SAPE    HB19375   5.521   5.679   2.938  0.5833 -0.4824  1.0709
  172SAPE    C219376   5.533   5.501   3.067 -0.1314 -0.5740  0.1929
  172SAPE    HS19377   5.425   5.477   3.059  0.4665 -2.8913 -2.3335
  172SAPE   O2119378   5.563   5.578   3.182 -0.3642 -0.6751 -0.2123
  172SAPE   C2119379   5.485   5.563   3.282  0.0610  0.4528  0.2087
  172SAPE   O2219380   5.382   5.501   3.276  0.1533 -0.2497 -0.8871
  172SAPE   C2219381   5.545   5.659   3.386 -0.0991 -0.4629 -0.2743
  172SAPE   H2R19382   5.642   5.625   3.429 -0.2297  0.3554  0.7024
  172SAPE   H2S19383   5.571   5.753   3.333 -1.0318 -0.8595 -1.4832
  172SAPE    C319384   5.608   5.364   3.075 -0.2754 -0.4642 -0.4152
  172SAPE    HX19385   5.716   5.391   3.078 -1.1634  3.8489 -1.1195
  172SAPE    HY19386   5.598   5.316   2.975 -2.5072 -1.0762  0.0573
  172SAPE   O3119387   5.564   5.277   3.175  0.0434 -0.2825 -0.3444
  172SAPE   C3119388   5.652   5.235   3.267  0.3225 -0.2653  0.4170
  172SAPE   O3219389   5.767   5.268   3.277  0.2943 -0.7530 -0.1838
  172SAPE   C3219390   5.587   5.127   3.349 -0.1305 -0.3625  0.7356
  172SAPE   H2X19391   5.622   5.027   3.316 -0.8078 -0.5259  0.5027
  172SAPE   H2Y19392   5.478   5.147   3.340 -0.2525  0.1373  2.7300
  172SAPE   C2319393   5.436   5.698   3.497  0.0705 -0.1322  0.8957
  172SAPE   H3R19394   5.340   5.739   3.458  1.0081 -0.1110 -1.6062
  172SAPE   H3S19395   5.468   5.785   3.559  0.9099 -0.8214  1.4484
  172SAPE   C2419396   5.403   5.578   3.592 -0.3611  0.0935  0.3065
  172SAPE   H4R19397   5.376   5.501   3.517 -1.5182  2.9255 -2.3981
  172SAPE   H4S19398   5.307   5.591   3.646 -0.8507 -1.6793 -0.0634
  172SAPE   C2519399   5.514   5.545   3.687 -0.2714  0.5089  0.7318
  172SAPE   H5R19400   5.587   5.466   3.664  1.2791  1.9383  0.4523
  172SAPE   C2619401   5.510   5.588   3.814  0.3826 -0.2615 -0.2977
  172SAPE   H6R19402   5.584   5.566   3.893  1.1150  1.8904 -0.3113
  172SAPE   C2719403   5.397   5.678   3.874  0.2239 -0.3081  0.1384
  172SAPE   H7R19404   5.313   5.610   3.900 -0.8622  1.1596  0.6253
  172SAPE   H7S19405   5.353   5.746   3.799  2.7483  0.7547 -0.4906
  172SAPE   C2819406   5.433   5.749   4.008 -0.6390 -0.3774  0.1667
  172SAPE   H8R19407   5.533   5.736   4.054 -0.0853  2.6240  0.0107
  172SAPE   C2919408   5.359   5.849   4.055  0.7497  0.2306  0.7456
  172SAPE   H9R19409   5.373   5.903   4.150 -0.8497  0.8952  0.6326
  172SAPE  C21019410   5.226   5.896   3.993 -0.4495  0.6320 -0.2095
  172SAPE  H10R19411   5.154   5.912   4.076  1.0215  2.0138  0.8712
  172SAPE  H10S19412   5.176   5.804   3.956  0.3969  0.4126 -0.8257
  172SAPE  C21119413   5.225   6.019   3.900 -0.1014 -0.2202 -0.1176
  172SAPE  H11R19414   5.224   5.999   3.792 -1.5839  1.4206 -0.4559
  172SAPE  C21219415   5.218   6.142   3.940  0.1003  0.2440 -0.0298
  172SAPE  H12R19416   5.220   6.220   3.863 -0.8884  1.8119  1.4681
  172SAPE  C21319417   5.216   6.192   4.084 -0.3465 -0.2716 -0.0688
  172SAPE  H13R19418   5.206   6.109   4.157  1.0322  1.0579  1.7101
  172SAPE  H13S19419   5.124   6.253   4.096  1.3607  3.2768 -2.9577
  172SAPE  C21419420   5.332   6.282   4.130 -0.4154 -0.2843  0.2378
  172SAPE  H14R19421   5.370   6.351   4.054  0.1904 -0.8272  0.0391
  172SAPE  C21519422   5.389   6.285   4.249 -0.7226  0.1149 -0.3855
  172SAPE  H15R19423   5.472   6.354   4.270 -0.0942 -1.2224  1.8049
  172SAPE  C21619424   5.368   6.202   4.366 -0.4093  0.4168 -0.8438
  172SAPE  H16R19425   5.462   6.148   4.391  0.5944  1.8910 -1.3301
  172SAPE  H16S19426   5.286   6.129   4.347  0.9622 -1.2337 -0.6721
  172SAPE  C21719427   5.340   6.291   4.493 -0.7928  0.6234 -0.7249
  172SAPE  H17R19428   5.268   6.371   4.465  0.1772  1.4497 -0.9129
  172SAPE  H17S19429   5.439   6.336   4.517  0.0351 -1.1700 -0.6167
  172SAPE  C21819430   5.288   6.202   4.609 -0.1652 -0.2528  0.0008
  172SAPE  H18R19431   5.370   6.130   4.625  0.3340 -0.0362 -1.4194
  172SAPE  H18S19432   5.190   6.165   4.574 -1.2508  1.1274  1.4393
  172SAPE  C21919433   5.251   6.279   4.739  0.0160  0.5979  0.0366
  172SAPE  H19R19434   5.164   6.346   4.719  0.0681  1.0452  1.2452
  172SAPE  H19S19435   5.327   6.351   4.776  0.6606  0.0173 -0.1582
  172SAPE  C22019436   5.224   6.180   4.847 -0.6997 -0.0781  0.9168
  172SAPE  H20R19437   5.142   6.107   4.834 -1.2001  0.1602  2.5126
  172SAPE  H20S19438   5.202   6.227   4.945 -0.0834  0.5435  0.7688
  172SAPE  H20T19439   5.313   6.113   4.857  1.4587  2.5811  0.6931
  172SAPE   C3319440   5.604   5.160   3.496 -0.2660  0.1848 -0.1500
  172SAPE   H3X19441   5.564   5.260   3.520  1.1522  0.8519 -0.4560
  172SAPE   H3Y19442   5.708   5.164   3.535  0.1203 -2.2388 -0.7840
  172SAPE   C3419443   5.528   5.053   3.578  0.4369 -0.2796  0.2194
  172SAPE   H4X19444   5.580   4.955   3.566  0.7650  0.1513 -2.4788
  172SAPE   H4Y19445   5.431   5.033   3.527 -0.2470 -1.7233  1.9670
  172SAPE   C3519446   5.513   5.098   3.726  0.2793  0.0212 -0.4001
  172SAPE   H5X19447   5.463   5.197   3.728 -2.1755 -1.1566 -0.7947
  172SAPE   H5Y19448   5.611   5.121   3.773 -1.0377  2.2031  1.4965
  172SAPE   C3619449   5.441   5.001   3.817 -0.1470  0.0037  0.1318
  172SAPE   H6X19450   5.501   4.907   3.816  1.2134  0.8473 -0.1393
  172SAPE   H6Y19451   5.343   4.996   3.764  0.6530  0.7415 -1.4982
  172SAPE   C3719452   5.416   5.060   3.957  0.0346  0.6944 -0.6110
  172SAPE   H7X19453   5.515   5.081   4.005 -1.0360 -0.0710  2.1409
  172SAPE   H7Y19454   5.366   4.972   4.003  0.4551  0.3507 -0.7977
  172SAPE   C3819455   5.323   5.178   3.959 -0.2399  0.8210 -0.1962
  172SAPE   H8X19456   5.220   5.146   3.931 -0.4699  2.4486 -1.4138
  172SAPE   H8Y19457   5.347   5.263   3.891  1.5232  0.3009 -0.2475
  172SAPE   C3919458   5.321   5.253   4.095  0.2333 -0.2941 -0.4059
  172SAPE   H9X19459   5.421   5.301   4.106  0.0221  0.7213 -2.3854
  172SAPE   H9Y19460   5.302   5.183   4.179  1.1606  1.7571  1.6322
  172SAPE  C31019461   5.201   5.350   4.100 -0.4325  0.1099  0.4424
  172SAPE  H10X19462   5.113   5.286   4.124 -1.7981  1.8381  0.2407
  172SAPE  H10Y19463   5.181   5.398   4.002 -0.8060  2.2265  1.5100
  172SAPE  C31119464   5.224   5.464   4.204  0.3343  0.6672 -0.3486
  172SAPE  H11X19465   5.311   5.526   4.175 -0.3227  0.5073 -2.8361
  172SAPE  H11Y19466   5.247   5.411   4.300  0.9260  1.5171 -0.0053
  172SAPE  C31219467   5.103   5.569   4.229 -0.6420  0.5986  0.4673
  172SAPE  H12X19468   5.077   5.618   4.133 -1.5327  1.9331  1.3604
  172SAPE  H12Y19469   5.158   5.656   4.270  0.6739  0.7920 -1.5803
  172SAPE  C31319470   4.981   5.514   4.298  0.2441 -0.0183  0.0813
  172SAPE  H13X19471   5.001   5.458   4.392 -0.2524  0.3185  0.3948
  172SAPE  H13Y19472   4.935   5.446   4.223  0.4339  2.1855 -2.1428
  172SAPE  C31419473   4.881   5.617   4.346 -0.1311 -0.4646 -0.2418
  172SAPE  H14X19474   4.897   5.657   4.448 -1.5067  1.3155 -0.6794
  172SAPE  H14Y19475   4.783   5.565   4.342 -0.4071  0.0609 -0.3202
  172SAPE  C31519476   4.847   5.732   4.236 -0.2284  0.7538 -0.2308
  172SAPE  H15X19477   4.808   5.667   4.155  1.8554 -1.1767  0.2094
  172SAPE  H15Y19478   4.942   5.777   4.199  0.1203  0.8545  0.7621
  172SAPE  C31619479   4.764   5.849   4.286  0.1870 -0.0706 -0.2077
  172SAPE  H16X19480   4.688   5.815   4.360 -0.4180 -0.7058 -1.0990
  172SAPE  H16Y19481   4.705   5.894   4.203  2.0262  2.3977 -0.2720
  172SAPE  C31719482   4.842   5.968   4.346 -0.2282 -0.0537 -0.5049
  172SAPE  H17X19483   4.903   5.916   4.424 -1.6399  0.6655  1.1559
  172SAPE  H17Y19484   4.767   6.019   4.411  0.8545  1.1159 -0.1252
  172SAPE  C31819485   4.916   6.058   4.250  0.7569  0.4147 -0.4730
  172SAPE  H18X19486   4.846   6.123   4.193 -0.7381  1.5608  2.4427
  172SAPE  H18Y19487   4.975   5.999   4.177 -0.0683 -1.2343  0.1380
  172SAPE  H18Z19488   4.987   6.125   4.303  2.6857 -1.2701 -0.8140
  173SLPC     N19489   2.387   6.179   7.739 -0.1156  0.8115 -0.0288
  173SLPC   C1319490   2.414   6.032   7.729 -0.2587  0.1682  0.3891
  173SLPC  H13A19491   2.366   5.982   7.811 -2.7792  1.0247 -0.4710
  173SLPC  H13B19492   2.363   5.988   7.645  0.7925 -0.7322  0.2029
  173SLPC  H13C19493   2.520   6.013   7.723 -0.2924 -0.6343  1.8781
  173SLPC   C1419494   2.466   6.240   7.848  0.2057  0.3073 -0.5058
  173SLPC  H14A19495   2.449   6.181   7.937 -3.1723 -1.5544 -2.1763
  173SLPC  H14B19496   2.567   6.253   7.811 -0.0704 -1.7824 -2.1855
  173SLPC  H14C19497   2.420   6.335   7.871 -1.5975 -1.0863  2.1756
  173SLPC   C1519498   2.236   6.184   7.761 -0.5061 -0.4110  0.1420
  173SLPC  H15A19499   2.199   6.285   7.749 -0.8532 -0.5285  0.2014
  173SLPC  H15B19500   2.184   6.120   7.692 -0.8700 -0.1260  0.1495
  173SLPC  H15C19501   2.228   6.144   7.861  1.2735  0.6479  0.7539
  173SLPC   C1219502   2.416   6.242   7.603 -0.9007 -0.7625  0.2252
  173SLPC  H12A19503   2.372   6.184   7.524  1.2821 -1.5820 -0.4761
  173SLPC  H12B19504   2.521   6.217   7.593 -0.5515  0.1465  1.3572
  173SLPC   C1119505   2.377   6.397   7.587  0.1784 -0.2670  0.7503
  173SLPC  H11A19506   2.433   6.437   7.500 -0.7862 -0.5832 -0.0233
  173SLPC  H11B19507   2.418   6.450   7.676 -0.4903 -0.5316  1.2274
  173SLPC     P19508   2.162   6.507   7.489 -0.3069 -0.4621  0.2999
  173SLPC   O1319509   2.018   6.521   7.526 -0.0833  0.7411 -0.2235
  173SLPC   O1419510   2.233   6.636   7.488  0.3481  0.5348 -0.1439
  173SLPC   O1219511   2.234   6.410   7.582 -0.3784 -0.3272 -0.1513
  173SLPC   O1119512   2.169   6.440   7.341 -0.4621 -0.1962 -0.0630
  173SLPC    C119513   2.147   6.301   7.327 -0.0203  0.1433  0.6338
  173SLPC    HA19514   2.234   6.259   7.273  1.3768  2.4989  0.8898
  173SLPC    HB19515   2.144   6.238   7.418 -0.1530  1.3927  1.5226
  173SLPC    C219516   2.013   6.267   7.259  0.9660 -0.4999 -0.3170
  173SLPC    HS19517   2.000   6.157   7.271  1.7921 -0.6243 -0.5038
  173SLPC   O2119518   2.011   6.301   7.124 -0.1260 -0.2898  0.4240
  173SLPC   C2119519   1.956   6.217   7.028 -0.1457 -0.2252  0.9719
  173SLPC   O2219520   1.891   6.115   7.050 -0.7636 -0.1512 -0.1770
  173SLPC   C2219521   1.995   6.275   6.890  0.3423 -0.6413  0.1336
  173SLPC   H2R19522   2.076   6.350   6.901 -0.3456  0.7656 -3.1254
  173SLPC   H2S19523   2.028   6.201   6.813  1.3651  0.4794 -0.5441
  173SLPC    C319524   1.887   6.330   7.327 -0.2393  0.0297  0.3313
  173SLPC    HX19525   1.886   6.441   7.330 -0.9758  0.2108 -2.7375
  173SLPC    HY19526   1.898   6.290   7.430 -0.3236 -0.3487  0.1939
  173SLPC   O3119527   1.762   6.282   7.268 -0.2988 -0.2300 -0.0095
  173SLPC   C3119528   1.663   6.273   7.363 -0.9682  0.7194 -0.0896
  173SLPC   O3219529   1.679   6.295   7.482 -0.1136  0.2463 -0.3444
  173SLPC   C3219530   1.539   6.230   7.301  0.8536 -0.3729  0.3388
  173SLPC   H2X19531   1.464   6.197   7.376  0.1152  0.9055  0.1908
  173SLPC   H2Y19532   1.560   6.141   7.238  1.0177  0.3192 -0.6038
  173SLPC   C2319533   1.877   6.359   6.827 -0.1096  0.0854 -0.9585
  173SLPC   H3R19534   1.853   6.421   6.916  0.6923  1.0768 -1.4223
  173SLPC   H3S19535   1.795   6.287   6.802  1.0469 -1.5126 -0.3389
  173SLPC   C2419536   1.918   6.442   6.716  0.0950  0.2523 -0.1284
  173SLPC   H4R19537   2.023   6.443   6.680  0.7614 -0.2285  1.6702
  173SLPC   H4S19538   1.910   6.547   6.753 -0.1360 -0.1156  0.9122
  173SLPC   C2519539   1.813   6.439   6.602 -0.5793  0.4178 -0.4595
  173SLPC   H5R19540   1.714   6.479   6.636  0.4674  2.7914  0.0110
  173SLPC   H5S19541   1.797   6.336   6.563 -1.7125  0.3884  0.0467
  173SLPC   C2619542   1.862   6.525   6.485 -0.1661 -0.1638  0.4342
  173SLPC   H6R19543   1.950   6.474   6.441  0.7963  2.7288 -1.2964
  173SLPC   H6S19544   1.896   6.624   6.522 -1.8932  1.1040 -1.1699
  173SLPC   C2719545   1.749   6.572   6.384 -0.3440 -0.0768 -0.2846
  173SLPC   H7R19546   1.679   6.638   6.439 -0.4064 -0.4721  0.1191
  173SLPC   H7S19547   1.693   6.478   6.359 -1.5639 -0.5553  3.5580
  173SLPC   C2819548   1.794   6.642   6.259 -0.1757 -0.6605  0.7200
  173SLPC   H8R19549   1.843   6.563   6.198  0.4102  0.4289 -0.2649
  173SLPC   H8S19550   1.873   6.720   6.270  0.7553 -0.9698 -2.5795
  173SLPC   C2919551   1.683   6.702   6.174  0.2735 -0.2357  0.2152
  173SLPC   H9R19552   1.611   6.764   6.231  0.3179  0.9028 -0.9153
  173SLPC  C21019553   1.672   6.699   6.043 -0.4288 -0.8020 -0.3482
  173SLPC  H10R19554   1.580   6.731   5.992 -0.8618  0.8093  1.3551
  173SLPC  C21119555   1.754   6.625   5.945 -0.1262  0.5056  0.6092
  173SLPC  H11R19556   1.856   6.615   5.987  0.7836  1.9638 -1.1191
  173SLPC  H11S19557   1.752   6.683   5.850 -1.4017  1.6177  1.2758
  173SLPC  C21219558   1.689   6.491   5.929  0.1202  0.2025 -0.2622
  173SLPC  H12R19559   1.749   6.403   5.955 -0.1048 -0.1620 -0.9402
  173SLPC  C21319560   1.577   6.462   5.854 -0.2002  0.5423 -0.2570
  173SLPC  H13R19561   1.547   6.356   5.856 -0.5230  0.6433  0.8984
  173SLPC  C21419562   1.480   6.563   5.796 -0.8117 -0.3174  0.1596
  173SLPC  H14R19563   1.524   6.664   5.798 -2.5939  0.5101 -0.4781
  173SLPC  H14S19564   1.379   6.575   5.840 -1.0717  1.9012 -0.9260
  173SLPC  C21519565   1.442   6.536   5.650 -0.0912 -0.1705 -0.3425
  173SLPC  H15R19566   1.377   6.450   5.623  1.1201 -0.8291 -1.2869
  173SLPC  H15S19567   1.538   6.529   5.593 -0.2780 -0.1861 -0.6602
  173SLPC  C21619568   1.360   6.654   5.594 -0.6167 -0.0966  0.7519
  173SLPC  H16R19569   1.416   6.747   5.616 -0.3926 -0.8206  3.6638
  173SLPC  H16S19570   1.262   6.650   5.646 -0.6826 -1.0352  0.5727
  173SLPC  C21719571   1.325   6.635   5.449 -0.0782  1.0740  0.2233
  173SLPC  H17R19572   1.305   6.530   5.418  1.8374 -0.0815  2.5814
  173SLPC  H17S19573   1.417   6.667   5.397  0.5762  0.4358  0.9512
  173SLPC  C21819574   1.205   6.713   5.397  0.4980 -0.2619 -0.7401
  173SLPC  H18R19575   1.185   6.674   5.295  0.1047 -0.5711 -0.5451
  173SLPC  H18S19576   1.226   6.821   5.384  1.6393 -0.5167 -1.1222
  173SLPC  H18T19577   1.111   6.704   5.457  0.3700  2.4063 -0.4118
  173SLPC   C3319578   1.481   6.338   7.205 -0.4557  0.0941 -0.6667
  173SLPC   H3X19579   1.498   6.442   7.241 -2.5207  0.4299 -0.5494
  173SLPC   H3Y19580   1.371   6.330   7.212 -0.4855  1.1842  0.7885
  173SLPC   C3419581   1.523   6.318   7.060 -0.1468  0.1631 -0.1013
  173SLPC   H4X19582   1.464   6.234   7.019 -2.2302  0.5183  1.9883
  173SLPC   H4Y19583   1.631   6.291   7.056  0.0309  0.9558 -1.0480
  173SLPC   C3519584   1.497   6.441   6.971  0.4654  0.1795  0.0977
  173SLPC   H5X19585   1.392   6.474   6.986 -0.8693 -3.2909 -0.7216
  173SLPC   H5Y19586   1.510   6.415   6.864  0.2351  1.4238 -0.2419
  173SLPC   C3619587   1.588   6.556   7.008  0.2131 -0.0640  0.3247
  173SLPC   H6X19588   1.690   6.513   7.015  0.1092 -0.5285 -0.8000
  173SLPC   H6Y19589   1.569   6.596   7.110  0.9354  2.1959 -0.3708
  173SLPC   C3719590   1.586   6.673   6.910  0.3717 -0.1595 -0.3398
  173SLPC   H7X19591   1.482   6.709   6.926 -1.0777 -3.8379 -0.4733
  173SLPC   H7Y19592   1.604   6.643   6.805 -2.3671 -0.3185 -0.8550
  173SLPC   C3819593   1.689   6.777   6.952  0.2282 -0.8332  1.0129
  173SLPC   H8X19594   1.791   6.736   6.937 -0.0855 -0.5529 -2.7374
  173SLPC   H8Y19595   1.671   6.806   7.058  1.3388 -1.2076  1.3253
  173SLPC   C3919596   1.691   6.899   6.865 -0.8365 -0.1720 -0.0187
  173SLPC   H9X19597   1.761   6.976   6.904 -2.3382  1.5617 -0.6261
  173SLPC   H9Y19598   1.601   6.963   6.874 -1.4393 -1.0918  0.7486
  173SLPC  C31019599   1.732   6.882   6.716 -0.3427 -0.8512  0.2025
  173SLPC  H10X19600   1.679   6.797   6.667 -1.3752 -1.3393  2.0999
  173SLPC  H10Y19601   1.837   6.845   6.717  0.5184  1.4012 -0.0345
  173SLPC  C31119602   1.733   7.016   6.644 -0.6764  0.1151 -0.2474
  173SLPC  H11X19603   1.769   7.092   6.717  0.7679 -1.9300  1.2669
  173SLPC  H11Y19604   1.627   7.042   6.621 -1.1076 -1.5785 -0.2752
  173SLPC  C31219605   1.822   7.014   6.518 -0.2411  0.4560  0.1976
  173SLPC  H12X19606   1.795   6.941   6.440 -0.6162  0.4442  0.3393
  173SLPC  H12Y19607   1.921   6.970   6.546  0.2125  0.3947 -1.4282
  173SLPC  C31319608   1.822   7.152   6.461 -0.3668 -0.0811  0.2226
  173SLPC  H13X19609   1.921   7.197   6.485  0.7499 -1.4963 -1.4549
  173SLPC  H13Y19610   1.739   7.213   6.503 -2.1719 -3.8511  2.6574
  173SLPC  C31419611   1.786   7.157   6.304  0.2445  0.4729 -0.1436
  173SLPC  H14X19612   1.765   7.263   6.277 -2.3579 -0.1933 -1.0962
  173SLPC  H14Y19613   1.694   7.097   6.286  0.9111 -0.3980 -0.7222
  173SLPC  C31519614   1.912   7.120   6.222 -0.3578  0.1190  0.7150
  173SLPC  H15X19615   1.969   7.062   6.298  0.3706 -0.7212 -0.4482
  173SLPC  H15Y19616   1.975   7.204   6.186  0.7866 -1.0256 -0.0230
  173SLPC  C31619617   1.888   7.019   6.111  0.1876 -0.1470  0.2869
  173SLPC  H16X19618   1.788   6.975   6.135 -0.2353  0.8173  0.3547
  173SLPC  H16Y19619   1.966   6.943   6.092  0.5658  0.3798 -0.3016
  173SLPC  C31719620   1.865   7.084   5.973  0.3111  0.5773  0.2446
  173SLPC  H17X19621   1.966   7.102   5.929  0.6063 -1.5503 -0.1049
  173SLPC  H17Y19622   1.808   7.179   5.973 -1.3971 -0.3829 -1.0294
  173SLPC  C31819623   1.787   6.988   5.870  0.3937 -0.0117 -0.0985
  173SLPC  H18X19624   1.794   7.031   5.768 -3.7877 -1.2348 -1.0889
  173SLPC  H18Y19625   1.677   6.984   5.884 -0.0482  0.5751 -2.8140
  173SLPC  H18Z19626   1.843   6.894   5.888  4.2630  2.2259  0.6280
  174SLPC     N19627   5.826   3.661   7.496 -0.1199  0.7630  0.1769
  174SLPC   C1319628   5.832   3.520   7.542  1.0389  0.7444 -0.0992
  174SLPC  H13A19629   5.794   3.515   7.643 -2.3607 -0.2029 -1.3024
  174SLPC  H13B19630   5.768   3.465   7.474  1.4144  2.5020 -1.9680
  174SLPC  H13C19631   5.936   3.491   7.536  0.7363 -0.2471 -0.7528
  174SLPC   C1419632   5.891   3.665   7.360  0.1007  0.4199 -0.1089
  174SLPC  H14A19633   5.982   3.608   7.360 -1.2645 -1.9354  1.2714
  174SLPC  H14B19634   5.828   3.619   7.285 -1.3146  0.7149  0.8631
  174SLPC  H14C19635   5.901   3.765   7.319  1.0727  1.1995  1.9055
  174SLPC   C1519636   5.913   3.757   7.580  0.2900  0.1233  0.1705
  174SLPC  H15A19637   5.917   3.855   7.535  0.1791  0.1622  0.2445
  174SLPC  H15B19638   5.875   3.777   7.679  0.1071  1.9671 -0.2411
  174SLPC  H15C19639   6.011   3.714   7.598  0.6872 -0.1400 -2.3355
  174SLPC   C1219640   5.680   3.707   7.489 -0.0947 -0.2418 -0.1784
  174SLPC  H12A19641   5.678   3.815   7.481  1.6929 -0.1940 -0.3828
  174SLPC  H12B19642   5.634   3.672   7.580  0.8237 -0.1642  0.3273
  174SLPC   C1119643   5.591   3.648   7.380 -0.6113 -0.1747  0.2397
  174SLPC  H11A19644   5.630   3.682   7.282 -3.2556  1.2867 -0.4016
  174SLPC  H11B19645   5.500   3.711   7.385 -0.2469  0.3595  0.2911
  174SLPC     P19646   5.556   3.416   7.267  0.1037  0.0074 -0.5174
  174SLPC   O1319647   5.692   3.349   7.249 -0.0885  0.0588  0.4279
  174SLPC   O1419648   5.441   3.319   7.279 -0.3332 -0.0913  0.1801
  174SLPC   O1219649   5.568   3.508   7.393  0.2322 -0.0124  0.3799
  174SLPC   O1119650   5.532   3.503   7.138  0.6930 -0.1882  0.1957
  174SLPC    C119651   5.627   3.555   7.056  0.2095  0.0581 -0.2792
  174SLPC    HA19652   5.614   3.665   7.050  1.6509  0.2266 -0.6676
  174SLPC    HB19653   5.734   3.550   7.088  0.6284  0.9990 -1.4362
  174SLPC    C219654   5.634   3.482   6.926  0.6272 -0.1800  0.2034
  174SLPC    HS19655   5.715   3.528   6.865  1.3917 -0.3949  1.0338
  174SLPC   O2119656   5.506   3.495   6.854 -0.5686 -0.2518 -0.3188
  174SLPC   C2119657   5.494   3.601   6.773  0.0852 -0.4681  0.0281
  174SLPC   O2219658   5.575   3.698   6.769  0.3441 -0.2724  0.0024
  174SLPC   C2219659   5.375   3.587   6.681  0.5746  0.2820  0.5343
  174SLPC   H2R19660   5.323   3.492   6.706  0.4542  0.4048  0.7523
  174SLPC   H2S19661   5.311   3.675   6.700 -0.4381  0.0053 -1.3545
  174SLPC    C319662   5.679   3.339   6.934 -0.1158  0.4432  0.4466
  174SLPC    HX19663   5.603   3.285   6.994  0.6341  0.2050  1.1946
  174SLPC    HY19664   5.768   3.342   7.000 -0.1708 -0.3324  0.5701
  174SLPC   O3119665   5.703   3.286   6.805 -0.5287  0.1220  0.3971
  174SLPC   C3119666   5.738   3.157   6.809  0.1672  0.1805  0.4471
  174SLPC   O3219667   5.755   3.095   6.915  0.0144 -0.0749 -0.3053
  174SLPC   C3219668   5.758   3.099   6.666  0.2441 -0.6265  0.3512
  174SLPC   H2X19669   5.716   2.998   6.687 -1.0742 -0.0433  0.5999
  174SLPC   H2Y19670   5.861   3.113   6.627  0.1891  0.5073  0.5770
  174SLPC   C2319671   5.432   3.575   6.538 -0.9139 -0.6610 -0.1926
  174SLPC   H3R19672   5.511   3.499   6.524 -1.0325 -0.6849 -0.7299
  174SLPC   H3S19673   5.481   3.672   6.514  1.3689 -1.6196  0.3343
  174SLPC   C2419674   5.315   3.542   6.443 -0.9930 -0.3333  0.1830
  174SLPC   H4R19675   5.238   3.621   6.455 -0.2486  0.6141 -0.9901
  174SLPC   H4S19676   5.280   3.443   6.479  2.3206 -0.8559  2.3851
  174SLPC   C2519677   5.362   3.524   6.301 -0.2281  0.3191 -0.3783
  174SLPC   H5R19678   5.440   3.445   6.298  0.3640  0.8246  0.9446
  174SLPC   H5S19679   5.418   3.616   6.274 -1.1196  1.0524  0.1978
  174SLPC   C2619680   5.250   3.500   6.209  0.2036 -0.6413  0.2971
  174SLPC   H6R19681   5.204   3.599   6.185 -0.0383 -0.7938  0.1308
  174SLPC   H6S19682   5.171   3.444   6.265 -1.2948  1.3053  0.2437
  174SLPC   C2719683   5.276   3.415   6.082 -0.1836 -0.9234 -0.1136
  174SLPC   H7R19684   5.287   3.307   6.107 -1.0514 -1.5456 -2.2312
  174SLPC   H7S19685   5.373   3.443   6.035 -0.5498  1.7052  0.5747
  174SLPC   C2819686   5.162   3.432   5.984 -0.5895  0.2212  0.2787
  174SLPC   H8R19687   5.069   3.406   6.038  0.3430 -1.0933  1.2973
  174SLPC   H8S19688   5.181   3.355   5.907 -0.3623  2.0818 -1.6459
  174SLPC   C2919689   5.146   3.572   5.931  0.0587  0.4829  0.5322
  174SLPC   H9R19690   5.152   3.652   6.006  2.6532 -0.7142  1.7332
  174SLPC  C21019691   5.133   3.605   5.801  0.0831  0.6014  0.6916
  174SLPC  H10R19692   5.109   3.710   5.779 -0.4433  0.7699  2.0120
  174SLPC  C21119693   5.122   3.510   5.683  0.1420 -0.2357 -0.9186
  174SLPC  H11R19694   5.070   3.558   5.597  0.7394  3.5250  0.6178
  174SLPC  H11S19695   5.065   3.417   5.701  1.9134 -1.3334 -0.7207
  174SLPC  C21219696   5.255   3.470   5.630  0.5503  0.4271  0.3825
  174SLPC  H12R19697   5.324   3.412   5.693  0.5158 -0.3321 -0.2600
  174SLPC  C21319698   5.313   3.509   5.511  0.5407  0.5063 -0.1110
  174SLPC  H13R19699   5.415   3.473   5.489  1.5236  3.4617 -0.7958
  174SLPC  C21419700   5.242   3.574   5.399 -0.0787  0.2400 -0.2793
  174SLPC  H14R19701   5.254   3.683   5.416 -2.0312  0.3484  0.7857
  174SLPC  H14S19702   5.133   3.553   5.397  0.3712 -2.7916 -3.5055
  174SLPC  C21519703   5.308   3.556   5.271  0.0218  0.1354  0.0609
  174SLPC  H15R19704   5.413   3.594   5.273  0.0280  0.2185 -1.2795
  174SLPC  H15S19705   5.265   3.607   5.183 -1.6903  0.6963  1.1778
  174SLPC  C21619706   5.306   3.410   5.214  0.0210 -0.7989  0.4609
  174SLPC  H16R19707   5.363   3.349   5.287 -0.3668 -1.4716  0.2095
  174SLPC  H16S19708   5.367   3.417   5.122  0.4595  1.3275  0.8593
  174SLPC  C21719709   5.169   3.347   5.197  1.2809  0.0568 -0.2247
  174SLPC  H17R19710   5.124   3.314   5.293 -0.9077  1.1554 -0.8088
  174SLPC  H17S19711   5.173   3.249   5.146  0.9953 -0.0878  0.0292
  174SLPC  C21819712   5.061   3.428   5.122 -0.6144 -0.2447 -0.2293
  174SLPC  H18R19713   5.054   3.530   5.166 -0.6578  0.0546 -0.9196
  174SLPC  H18S19714   4.962   3.382   5.143 -1.2359  0.9964 -0.4011
  174SLPC  H18T19715   5.077   3.433   5.013 -3.6628 -3.7821 -1.0675
  174SLPC   C3319716   5.659   3.154   6.561  0.2916 -0.1877 -0.3205
  174SLPC   H3X19717   5.651   3.264   6.558 -0.8675 -0.2516 -2.9184
  174SLPC   H3Y19718   5.553   3.123   6.573  0.1869  0.1504 -0.3640
  174SLPC   C3419719   5.701   3.123   6.417  0.1390 -0.6779 -0.1991
  174SLPC   H4X19720   5.697   3.012   6.415  0.2475 -0.6771 -0.5094
  174SLPC   H4Y19721   5.805   3.163   6.416 -0.3657  0.6864 -0.7986
  174SLPC   C3519722   5.601   3.181   6.308  0.0497  0.5657  0.1229
  174SLPC   H5X19723   5.664   3.205   6.220 -0.6314 -0.4592 -0.6636
  174SLPC   H5Y19724   5.558   3.278   6.340  0.1778  0.5196  0.4438
  174SLPC   C3619725   5.487   3.083   6.269 -1.2619 -0.1328 -0.5590
  174SLPC   H6X19726   5.399   3.147   6.248 -0.9203  0.0406 -1.5197
  174SLPC   H6Y19727   5.469   3.018   6.357 -4.1702  1.9557  0.5540
  174SLPC   C3719728   5.515   2.995   6.143  0.9657 -0.0781  0.2455
  174SLPC   H7X19729   5.444   2.909   6.136  1.4371 -0.4671  0.2296
  174SLPC   H7Y19730   5.609   2.943   6.169 -1.1092 -3.8246  0.9567
  174SLPC   C3819731   5.511   3.061   6.008  0.1741 -0.5077 -0.7391
  174SLPC   H8X19732   5.568   3.156   6.008  0.4119 -0.6481 -0.8434
  174SLPC   H8Y19733   5.410   3.101   5.987  0.1324  0.3264  0.8933
  174SLPC   C3919734   5.549   2.963   5.898 -0.1969  0.0975  0.7256
  174SLPC   H9X19735   5.533   2.857   5.930  0.7068 -0.9124 -1.9436
  174SLPC   H9Y19736   5.657   2.974   5.877 -0.5139  0.1939 -0.9585
  174SLPC  C31019737   5.480   2.991   5.771 -0.1902  0.2163 -0.1480
  174SLPC  H10X19738   5.370   2.990   5.782 -0.2858 -1.6399 -0.9588
  174SLPC  H10Y19739   5.505   2.906   5.705  1.9728  2.7100 -2.8134
  174SLPC  C31119740   5.518   3.120   5.696  0.0513  0.0962  0.4697
  174SLPC  H11X19741   5.627   3.116   5.674  0.1194 -3.7783  0.8035
  174SLPC  H11Y19742   5.499   3.207   5.762  0.3436  0.5917 -0.0847
  174SLPC  C31219743   5.439   3.147   5.568  0.4747  0.0877  0.0144
  174SLPC  H12X19744   5.479   3.236   5.514 -1.7337 -0.5845 -2.9992
  174SLPC  H12Y19745   5.334   3.173   5.592 -0.1551 -2.1072 -0.1195
  174SLPC  C31319746   5.436   3.032   5.473 -0.9703  0.0509  0.3440
  174SLPC  H13X19747   5.335   2.988   5.488 -0.9254 -3.0655 -5.6743
  174SLPC  H13Y19748   5.513   2.958   5.504 -1.7197 -0.1551  1.8402
  174SLPC  C31419749   5.448   3.074   5.321 -0.7020 -0.7945 -0.7482
  174SLPC  H14X19750   5.548   3.120   5.301 -0.3072 -1.5209 -0.4962
  174SLPC  H14Y19751   5.364   3.145   5.309 -0.2036  0.1868  1.1048
  174SLPC  C31519752   5.433   2.959   5.220  0.3429  0.9978 -0.7820
  174SLPC  H15X19753   5.363   2.884   5.263  1.6429 -1.4143 -2.6102
  174SLPC  H15Y19754   5.532   2.910   5.212  0.0200  0.2546 -0.3801
  174SLPC  C31619755   5.393   3.009   5.080 -0.0462  0.3443 -0.1522
  174SLPC  H16X19756   5.315   3.088   5.090  1.1860  1.9774 -2.2790
  174SLPC  H16Y19757   5.371   2.920   5.018  1.0720 -2.8080  3.6528
  174SLPC  C31719758   5.508   3.084   5.015 -0.2734 -1.4010 -0.3152
  174SLPC  H17X19759   5.602   3.025   5.017 -0.6613 -2.2980 -3.3661
  174SLPC  H17Y19760   5.516   3.178   5.074 -0.3117 -0.9265 -1.0659
  174SLPC  C31819761   5.456   3.125   4.880 -0.8089  0.1039 -0.4396
  174SLPC  H18X19762   5.406   3.223   4.882 -0.4316  0.2930 -0.0776
  174SLPC  H18Y19763   5.383   3.050   4.842 -0.0487 -0.9515  0.1108
  174SLPC  H18Z19764   5.545   3.129   4.813  0.5818 -2.1465  1.0981
  175SLPC     N19765   2.862   2.009   7.101 -0.5593 -0.5439  0.1427
  175SLPC   C1319766   2.833   1.869   7.049 -0.0672  0.1179  0.2954
  175SLPC  H13A19767   2.892   1.854   6.960  1.7218 -1.3482  1.6660
  175SLPC  H13B19768   2.858   1.794   7.122  0.6217  0.5839  0.5455
  175SLPC  H13C19769   2.728   1.870   7.022  0.6191  2.6898 -2.9265
  175SLPC   C1419770   3.006   2.029   7.127  0.4823 -0.3604 -0.2265
  175SLPC  H14A19771   3.045   1.949   7.188  0.1598 -2.3720 -2.5048
  175SLPC  H14B19772   3.058   2.043   7.034  0.2851  1.3250 -0.1103
  175SLPC  H14C19773   3.026   2.120   7.181 -0.6757 -0.3110  0.1588
  175SLPC   C1519774   2.796   2.010   7.231  0.4140  0.2955  0.0515
  175SLPC  H15A19775   2.843   1.941   7.300  1.6121  2.0998  1.1192
  175SLPC  H15B19776   2.799   2.114   7.261 -0.9485  0.5137 -0.5171
  175SLPC  H15C19777   2.692   1.984   7.219  1.3935 -3.8012 -1.2566
  175SLPC   C1219778   2.794   2.111   7.015 -0.3698 -0.3316  0.4131
  175SLPC  H12A19779   2.687   2.099   7.022 -0.7017  1.1157 -1.2279
  175SLPC  H12B19780   2.815   2.098   6.910  2.5376  0.3933  0.8148
  175SLPC   C1119781   2.825   2.267   7.047 -0.3913  0.0729  0.1732
  175SLPC  H11A19782   2.761   2.333   6.986  0.3944  1.2802  0.6086
  175SLPC  H11B19783   2.931   2.273   7.015 -0.7513 -0.9001 -1.2478
  175SLPC     P19784   2.898   2.391   7.265  0.1626 -0.2397  0.0183
  175SLPC   O1319785   2.842   2.458   7.383 -0.1718  0.0810  0.2948
  175SLPC   O1419786   3.009   2.300   7.299 -0.2942  0.2282  0.3997
  175SLPC   O1219787   2.797   2.299   7.184 -0.3330  0.1038 -0.5530
  175SLPC   O1119788   2.947   2.495   7.162 -0.0435 -0.0142 -0.1797
  175SLPC    C119789   2.859   2.607   7.121 -0.3865  0.0719  0.0535
  175SLPC    HA19790   2.760   2.567   7.093  0.2348  0.1030 -2.4387
  175SLPC    HB19791   2.842   2.674   7.207 -0.1961 -1.8877  1.6941
  175SLPC    C219792   2.909   2.687   6.992  0.7636  0.2433 -0.5891
  175SLPC    HS19793   2.817   2.734   6.951 -0.2760 -0.2622  1.0896
  175SLPC   O2119794   2.976   2.592   6.903 -0.1533  0.2927  0.3809
  175SLPC   C2119795   2.897   2.538   6.810 -0.3053  0.2479 -0.3805
  175SLPC   O2219796   2.778   2.539   6.813  0.1353  0.5066 -0.5366
  175SLPC   C2219797   2.973   2.484   6.689 -0.4531 -0.4241 -0.2587
  175SLPC   H2R19798   3.002   2.571   6.626 -1.4917  0.5448  0.5627
  175SLPC   H2S19799   3.066   2.431   6.722 -1.8008 -0.3896  4.2304
  175SLPC    C319800   3.005   2.800   7.033 -0.6241  0.3252 -0.6039
  175SLPC    HX19801   3.095   2.753   7.078  0.5586  0.8559 -2.2780
  175SLPC    HY19802   2.964   2.860   7.117  0.5933  1.4421 -0.7763
  175SLPC   O3119803   3.049   2.875   6.920 -0.6378 -0.1438 -0.2342
  175SLPC   C3119804   2.970   2.966   6.874  0.4860 -0.0402 -0.1220
  175SLPC   O3219805   2.863   2.999   6.926  0.6786  0.2545  0.4109
  175SLPC   C3219806   3.023   3.028   6.751 -0.5926  0.0816 -0.4020
  175SLPC   H2X19807   3.126   3.062   6.777 -0.8834 -0.0833  1.0088
  175SLPC   H2Y19808   2.961   3.119   6.737 -0.7046  0.1083  0.2313
  175SLPC   C2319809   2.884   2.392   6.602 -0.5925  0.3709  1.4775
  175SLPC   H3R19810   2.797   2.451   6.564  1.0492  1.0883 -1.4303
  175SLPC   H3S19811   2.859   2.295   6.650  2.3681 -2.2249 -1.7287
  175SLPC   C2419812   2.956   2.345   6.471  0.5922 -0.2530  0.3571
  175SLPC   H4R19813   2.893   2.270   6.418  0.6172 -0.6257  0.8425
  175SLPC   H4S19814   3.049   2.290   6.497  0.9581  0.3672  0.3658
  175SLPC   C2519815   2.991   2.457   6.365 -0.6422 -0.1302 -0.6614
  175SLPC   H5R19816   3.054   2.533   6.418 -0.1223 -0.3887 -0.9058
  175SLPC   H5S19817   2.898   2.506   6.330 -1.0430 -1.6359 -1.7578
  175SLPC   C2619818   3.070   2.406   6.248  0.3489 -0.0344  0.7665
  175SLPC   H6R19819   3.159   2.354   6.289  0.3815 -2.8157 -2.4897
  175SLPC   H6S19820   3.108   2.485   6.180  2.4236 -1.3091  0.3558
  175SLPC   C2719821   2.998   2.299   6.169 -0.2011  0.3422  0.7381
  175SLPC   H7R19822   2.980   2.205   6.224 -2.5562  0.0197 -0.4633
  175SLPC   H7S19823   3.066   2.271   6.085  0.5402  4.1872 -0.1364
  175SLPC   C2819824   2.861   2.336   6.108  0.2825  0.8986  0.5495
  175SLPC   H8R19825   2.787   2.351   6.190  1.7424  0.1868  2.0521
  175SLPC   H8S19826   2.822   2.245   6.058  0.7068  2.0854 -2.1127
  175SLPC   C2919827   2.870   2.455   6.022 -0.3075 -0.0522  0.0611
  175SLPC   H9R19828   2.907   2.543   6.077  3.2455  0.2610 -2.4630
  175SLPC  C21019829   2.839   2.465   5.890  1.2583  0.1107  0.1468
  175SLPC  H10R19830   2.850   2.566   5.846  2.1709  0.4101  1.0269
  175SLPC  C21119831   2.797   2.354   5.796 -0.5625 -0.1298  0.1521
  175SLPC  H11R19832   2.770   2.262   5.852  0.7082 -0.8079 -0.3268
  175SLPC  H11S19833   2.884   2.320   5.737 -2.0598  0.8489 -2.8642
  175SLPC  C21219834   2.691   2.401   5.693 -0.2610 -0.0712 -0.3225
  175SLPC  H12R19835   2.590   2.412   5.736  0.7325 -0.8936  2.4549
  175SLPC  C21319836   2.715   2.427   5.559  0.3433 -0.3226  0.0214
  175SLPC  H13R19837   2.640   2.479   5.497  0.0350  1.0550  1.4756
  175SLPC  C21419838   2.854   2.414   5.494  0.1002  0.4925  0.3518
  175SLPC  H14R19839   2.879   2.312   5.456  2.1101  0.9250  0.4392
  175SLPC  H14S19840   2.935   2.444   5.563  0.4379  1.3617 -0.3966
  175SLPC  C21519841   2.867   2.501   5.370  0.1496  0.6723  0.0347
  175SLPC  H15R19842   2.975   2.505   5.346  0.6596  1.7278  2.3022
  175SLPC  H15S19843   2.842   2.609   5.381 -0.0641  0.5368  0.9029
  175SLPC  C21619844   2.808   2.443   5.246  0.4859  0.3687 -0.3547
  175SLPC  H16R19845   2.706   2.401   5.261  0.4123  0.4745 -0.5629
  175SLPC  H16S19846   2.874   2.372   5.192 -1.2989  0.0729 -2.2733
  175SLPC  C21719847   2.781   2.551   5.134 -0.4221 -0.4445 -0.1471
  175SLPC  H17R19848   2.881   2.596   5.117 -0.9293  1.6988  1.9022
  175SLPC  H17S19849   2.705   2.621   5.174  0.7992 -0.1637  1.8395
  175SLPC  C21819850   2.722   2.501   5.001  0.0821 -0.0208 -0.4973
  175SLPC  H18R19851   2.726   2.583   4.927  0.2309  2.7767  2.3912
  175SLPC  H18S19852   2.618   2.464   5.016  0.8616 -1.7918  0.9223
  175SLPC  H18T19853   2.776   2.409   4.969 -2.1592 -1.6458  0.1536
  175SLPC   C3319854   3.017   2.941   6.629  0.5330 -0.4425 -0.1941
  175SLPC   H3X19855   3.073   2.846   6.637  0.3413 -0.4481  1.4597
  175SLPC   H3Y19856   3.059   3.003   6.547 -1.3940  0.4142 -0.6109
  175SLPC   C3419857   2.877   2.917   6.574  0.3568 -0.2464 -0.3364
  175SLPC   H4X19858   2.822   3.011   6.552 -0.6224 -0.6717  0.2469
  175SLPC   H4Y19859   2.819   2.858   6.647  2.7399 -0.5688  1.3819
  175SLPC   C3519860   2.876   2.849   6.424  0.0374  0.2452  0.6369
  175SLPC   H5X19861   2.913   2.745   6.439 -0.3310  0.0971  0.5269
  175SLPC   H5Y19862   2.952   2.900   6.362  0.8074 -0.9638  0.5508
  175SLPC   C3619863   2.737   2.841   6.357 -0.1592  0.4443  0.3480
  175SLPC   H6X19864   2.706   2.946   6.374  0.0602  0.7304 -0.9074
  175SLPC   H6Y19865   2.679   2.769   6.419 -1.4507  0.6943 -0.5314
  175SLPC   C3719866   2.733   2.793   6.217 -0.0289 -0.4719  0.6382
  175SLPC   H7X19867   2.786   2.698   6.192  1.3291  1.1500 -3.5015
  175SLPC   H7Y19868   2.781   2.879   6.166 -1.3984  0.0074  0.1102
  175SLPC   C3819869   2.591   2.784   6.158 -0.5093  0.0968  0.2708
  175SLPC   H8X19870   2.535   2.875   6.187 -0.6458 -0.3031  1.2982
  175SLPC   H8Y19871   2.540   2.700   6.212 -1.1276  0.8245  0.8377
  175SLPC   C3919872   2.588   2.751   6.007 -0.5909 -0.9173  0.0401
  175SLPC   H9X19873   2.485   2.755   5.968 -0.6338 -2.3102 -0.0487
  175SLPC   H9Y19874   2.629   2.651   5.981  2.2204  0.1671 -0.1119
  175SLPC  C31019875   2.685   2.842   5.921  0.1134  0.4757  0.6599
  175SLPC  H10X19876   2.793   2.839   5.949  0.8759  1.4365 -1.8907
  175SLPC  H10Y19877   2.637   2.940   5.941  0.2338  0.5405  0.6365
  175SLPC  C31119878   2.673   2.826   5.766 -0.3467 -0.3456  0.4826
  175SLPC  H11X19879   2.578   2.873   5.734 -0.0637  1.0963  1.6497
  175SLPC  H11Y19880   2.666   2.717   5.746 -0.6241  0.0798 -2.0831
  175SLPC  C31219881   2.795   2.879   5.695 -0.4477 -0.0054  0.0718
  175SLPC  H12X19882   2.891   2.844   5.738 -0.1085  2.6913  1.8212
  175SLPC  H12Y19883   2.809   2.982   5.735  1.4989 -0.3105  0.2673
  175SLPC  C31319884   2.795   2.885   5.547  0.5281  0.0024  0.2407
  175SLPC  H13X19885   2.779   2.794   5.485 -0.5558  0.3425 -0.0110
  175SLPC  H13Y19886   2.899   2.911   5.520  0.3016  1.8110  0.9279
  175SLPC  C31419887   2.709   2.998   5.479  0.1424 -0.3537 -0.2335
  175SLPC  H14X19888   2.756   3.084   5.532 -2.0311 -0.4547  2.0037
  175SLPC  H14Y19889   2.601   3.008   5.501  0.2737 -2.1292  1.3748
  175SLPC  C31519890   2.751   3.017   5.329 -0.2997  0.2410 -0.0142
  175SLPC  H15X19891   2.679   3.085   5.278 -0.6040 -0.1499 -0.1148
  175SLPC  H15Y19892   2.742   2.918   5.279  2.7784 -0.3548  0.4471
  175SLPC  C31619893   2.891   3.070   5.294 -0.0499  0.1557  0.2930
  175SLPC  H16X19894   2.908   3.060   5.184 -1.1658  0.2867  0.0960
  175SLPC  H16Y19895   2.972   3.010   5.342  0.7928  0.1532 -1.0625
  175SLPC  C31719896   2.908   3.218   5.328  0.4552 -0.5294  0.4991
  175SLPC  H17X19897   2.971   3.243   5.415  0.3897  1.3877  0.0318
  175SLPC  H17Y19898   2.806   3.247   5.360  0.5477  1.3001 -0.7126
  175SLPC  C31819899   2.964   3.303   5.210  0.4435 -0.3023  0.4748
  175SLPC  H18X19900   2.933   3.410   5.223 -1.3969 -0.7132 -0.2087
  175SLPC  H18Y19901   2.914   3.259   5.121  1.9889 -1.3602  0.0957
  175SLPC  H18Z19902   3.074   3.298   5.201  0.3344 -0.9376 -0.5594
  176SLPC     N19903   4.145   1.494   7.247  0.1722  0.4179  0.3350
  176SLPC   C1319904   4.156   1.503   7.097  0.0118 -0.2595  0.2491
  176SLPC  H13A19905   4.260   1.507   7.071 -0.3655  0.9796 -1.2656
  176SLPC  H13B19906   4.117   1.414   7.049 -1.1296  0.5731 -0.4538
  176SLPC  H13C19907   4.101   1.587   7.056  1.2413 -0.0121 -0.9564
  176SLPC   C1419908   4.202   1.627   7.296  0.0720 -0.0857 -0.1632
  176SLPC  H14A19909   4.305   1.638   7.263  0.1893 -1.8991 -0.5358
  176SLPC  H14B19910   4.138   1.706   7.260 -0.5337 -0.7917 -0.6796
  176SLPC  H14C19911   4.194   1.632   7.403 -0.0675 -2.2887 -0.0320
  176SLPC   C1519912   4.226   1.376   7.296  0.1722 -0.4732  0.0662
  176SLPC  H15A19913   4.191   1.282   7.254  2.4483  0.0586 -3.4869
  176SLPC  H15B19914   4.324   1.390   7.253 -0.6803  1.9185 -1.2758
  176SLPC  H15C19915   4.236   1.369   7.403 -0.9271  2.5807  0.4653
  176SLPC   C1219916   3.999   1.479   7.292 -0.5628 -0.7356  0.0552
  176SLPC  H12A19917   3.943   1.565   7.260 -2.4620 -1.5825  0.9924
  176SLPC  H12B19918   4.006   1.464   7.398  1.2369 -2.2404 -0.2214
  176SLPC   C1119919   3.915   1.362   7.241  0.0227  0.5078 -0.9074
  176SLPC  H11A19920   3.832   1.364   7.315  1.0282 -0.0542  0.2905
  176SLPC  H11B19921   3.956   1.265   7.277  0.1541  0.6481 -0.6722
  176SLPC     P19922   3.751   1.453   7.059  0.0833  0.1195  0.2067
  176SLPC   O1319923   3.628   1.369   7.087 -0.0368  0.4140 -0.7337
  176SLPC   O1419924   3.761   1.596   7.112  0.5223  0.7713 -0.5914
  176SLPC   O1219925   3.875   1.369   7.107 -0.1002 -0.3377  0.2410
  176SLPC   O1119926   3.755   1.458   6.900 -0.1990 -0.0129  0.0527
  176SLPC    C119927   3.841   1.558   6.844 -0.1451 -0.0993 -0.2704
  176SLPC    HA19928   3.797   1.659   6.858  0.7237  0.4515 -1.4071
  176SLPC    HB19929   3.942   1.556   6.890 -0.7182 -3.1696  1.1414
  176SLPC    C219930   3.864   1.530   6.700 -0.2981 -0.0602  1.0597
  176SLPC    HS19931   3.938   1.603   6.661 -0.5120 -1.1796 -1.6827
  176SLPC   O2119932   3.741   1.539   6.622 -0.1845 -0.2559  0.4053
  176SLPC   C2119933   3.688   1.660   6.610 -0.1809 -0.3203  0.0504
  176SLPC   O2219934   3.734   1.766   6.653  0.1376  0.3806  0.0416
  176SLPC   C2219935   3.555   1.647   6.527  0.4226 -0.7763 -0.7757
  176SLPC   H2R19936   3.573   1.576   6.443  0.4256  1.3065 -2.6434
  176SLPC   H2S19937   3.488   1.606   6.605  1.6604  0.1651  0.8173
  176SLPC    C319938   3.920   1.392   6.680 -0.0186 -0.1503  0.0915
  176SLPC    HX19939   3.855   1.314   6.725 -0.0053 -0.3906 -0.3087
  176SLPC    HY19940   4.013   1.385   6.740 -0.1390 -0.2045  0.2745
  176SLPC   O3119941   3.946   1.353   6.544 -0.0206 -0.2005 -0.4746
  176SLPC   C3119942   3.856   1.273   6.492  0.0702  0.6804  0.0528
  176SLPC   O3219943   3.746   1.246   6.538  0.5971 -0.5010  0.4851
  176SLPC   C3219944   3.911   1.217   6.355  0.1741  0.4777 -0.4804
  176SLPC   H2X19945   3.825   1.163   6.310  2.5451 -2.7046 -1.5575
  176SLPC   H2Y19946   4.004   1.162   6.383 -0.5301 -0.6785 -0.3247
  176SLPC   C2319947   3.508   1.789   6.469 -0.3872 -0.2630  0.2864
  176SLPC   H3R19948   3.565   1.817   6.378 -0.1501 -1.0606  0.1815
  176SLPC   H3S19949   3.529   1.866   6.547 -0.0957 -0.8747  0.8139
  176SLPC   C2419950   3.362   1.783   6.428 -0.0222 -0.2771  0.1000
  176SLPC   H4R19951   3.302   1.726   6.502 -0.1688 -1.5515 -0.9602
  176SLPC   H4S19952   3.360   1.717   6.338 -0.0603  0.3920 -0.3955
  176SLPC   C2519953   3.303   1.922   6.403  0.1502 -0.0672 -0.6663
  176SLPC   H5R19954   3.372   1.975   6.334  0.1312 -0.0710 -0.6885
  176SLPC   H5S19955   3.291   1.961   6.506  3.2757  0.9427 -0.6024
  176SLPC   C2619956   3.167   1.916   6.326  0.1592  0.4550 -0.1808
  176SLPC   H6R19957   3.183   1.880   6.223  0.5739 -0.9290  0.3444
  176SLPC   H6S19958   3.135   2.018   6.296  0.4672  0.5103 -0.3313
  176SLPC   C2719959   3.060   1.837   6.394  0.1819  0.2682 -0.2659
  176SLPC   H7R19960   3.012   1.895   6.476  0.7317 -0.2488  0.4335
  176SLPC   H7S19961   3.107   1.750   6.445 -1.7942 -0.6843  0.0192
  176SLPC   C2819962   2.955   1.787   6.296  0.4205 -0.0746  0.4733
  176SLPC   H8R19963   2.885   1.723   6.353  0.2012 -0.0604  0.2209
  176SLPC   H8S19964   3.002   1.714   6.227 -0.0245 -1.9850  2.0687
  176SLPC   C2919965   2.883   1.894   6.222  0.5823 -0.9223 -0.2570
  176SLPC   H9R19966   2.816   1.956   6.283 -0.6330 -1.2744 -1.1877
  176SLPC  C21019967   2.888   1.932   6.089  0.2567  0.2373 -0.2653
  176SLPC  H10R19968   2.820   2.010   6.050 -2.9483 -3.4886 -2.9169
  176SLPC  C21119969   2.970   1.875   5.974 -0.3145 -0.6306 -0.7791
  176SLPC  H11R19970   3.030   1.794   6.019 -0.6141  0.8319  2.5721
  176SLPC  H11S19971   3.046   1.944   5.932 -0.2448 -1.1526 -1.5240
  176SLPC  C21219972   2.875   1.827   5.873 -0.8426  0.0351  0.4335
  176SLPC  H12R19973   2.844   1.722   5.885  0.3031 -0.3602  0.0318
  176SLPC  C21319974   2.849   1.880   5.753 -0.0488  0.0217 -0.3168
  176SLPC  H13R19975   2.788   1.818   5.685  0.1281 -2.1311  1.3652
  176SLPC  C21419976   2.901   2.005   5.690 -0.3412 -0.2262  0.1222
  176SLPC  H14R19977   2.917   2.079   5.772 -1.0873 -0.7800  0.7926
  176SLPC  H14S19978   2.826   2.049   5.620  0.4111  0.1729 -0.4465
  176SLPC  C21519979   3.030   1.980   5.618 -0.1337  0.6431 -0.3607
  176SLPC  H15R19980   3.019   1.914   5.530  1.3328 -0.7817  0.4514
  176SLPC  H15S19981   3.102   1.925   5.683 -1.9616 -1.4738  0.0087
  176SLPC  C21619982   3.099   2.108   5.573 -0.5934  0.7952  0.1454
  176SLPC  H16R19983   3.125   2.177   5.657 -0.2541  2.1763 -1.0566
  176SLPC  H16S19984   3.046   2.167   5.496 -1.0421  0.9539  0.5709
  176SLPC  C21719985   3.235   2.072   5.494 -0.3983  0.1728 -0.5945
  176SLPC  H17R19986   3.201   2.028   5.397  0.0264  1.9114 -1.5775
  176SLPC  H17S19987   3.292   2.000   5.556  1.1612  2.3677  0.6413
  176SLPC  C21819988   3.327   2.190   5.457 -0.2956  0.5616  0.4045
  176SLPC  H18R19989   3.370   2.231   5.551 -1.1414  0.0462  1.0227
  176SLPC  H18S19990   3.282   2.270   5.395  0.3552  0.7249  0.1302
  176SLPC  H18T19991   3.403   2.155   5.383  0.5353  2.5773  0.2459
  176SLPC   C3319992   3.955   1.328   6.261 -0.5253 -0.0047  0.3247
  176SLPC   H3X19993   4.020   1.278   6.185  0.5763 -1.4078  2.1147
  176SLPC   H3Y19994   4.012   1.406   6.314  0.7557  0.0632 -1.0870
  176SLPC   C3419995   3.848   1.396   6.171  0.4135 -0.5207  0.2009
  176SLPC   H4X19996   3.818   1.326   6.090  2.8860 -2.2225  0.6257
  176SLPC   H4Y19997   3.909   1.476   6.125  0.1795 -0.8834 -0.7590
  176SLPC   C3519998   3.720   1.455   6.250  0.2279  0.0252  0.4844
  176SLPC   H5X19999   3.754   1.509   6.341  1.0724 -1.1140  0.8680
  176SLPC   H5Y20000   3.660   1.367   6.284 -1.7020  0.5026 -1.4882
  176SLPC   C3620001   3.622   1.530   6.158  0.2731 -0.3715  0.4405
  176SLPC   H6X20002   3.532   1.541   6.223 -0.5516  0.6177 -0.8413
  176SLPC   H6Y20003   3.598   1.470   6.068 -0.1689 -0.8599  0.8752
  176SLPC   C3720004   3.661   1.673   6.127 -0.2831 -0.1237  0.0830
  176SLPC   H7X20005   3.754   1.678   6.065  0.5107 -0.7839  1.1836
  176SLPC   H7Y20006   3.683   1.721   6.224  1.8923 -2.9455  1.1529
  176SLPC   C3820007   3.539   1.745   6.068 -0.2892  0.0727 -0.3404
  176SLPC   H8X20008   3.549   1.855   6.059 -0.1622  0.3985  2.6325
  176SLPC   H8Y20009   3.443   1.725   6.121 -0.7577  0.5035 -1.0150
  176SLPC   C3920010   3.509   1.702   5.920 -0.4600 -0.0482 -0.5254
  176SLPC   H9X20011   3.400   1.722   5.905 -0.1107  0.4669 -2.8227
  176SLPC   H9Y20012   3.530   1.596   5.895  1.6835  0.2248 -0.0687
  176SLPC  C31020013   3.574   1.783   5.813  0.3996 -0.6434  0.9612
  176SLPC  H10X20014   3.681   1.754   5.801  0.8436  1.5850 -1.2669
  176SLPC  H10Y20015   3.568   1.891   5.840 -0.5895 -0.6656  0.8821
  176SLPC  C31120016   3.494   1.765   5.682 -0.2125  0.2594 -0.1252
  176SLPC  H11X20017   3.516   1.854   5.618  1.2088  0.0725  0.0735
  176SLPC  H11Y20018   3.385   1.773   5.698 -0.7598 -3.3393 -1.2433
  176SLPC  C31220019   3.514   1.642   5.587  0.7394 -0.2199  0.0979
  176SLPC  H12X20020   3.483   1.547   5.636 -0.0288 -0.7626 -1.3565
  176SLPC  H12Y20021   3.620   1.635   5.556  0.4747 -1.5726 -0.5758
  176SLPC  C31320022   3.427   1.654   5.464  0.0591 -0.2094 -0.1165
  176SLPC  H13X20023   3.441   1.752   5.414  1.2075  0.4741  1.4821
  176SLPC  H13Y20024   3.321   1.645   5.494 -0.2208 -1.9514 -1.4550
  176SLPC  C31420025   3.475   1.553   5.355  0.7050 -0.0416 -0.6518
  176SLPC  H14X20026   3.578   1.585   5.326  1.0591  0.7219  1.3167
  176SLPC  H14Y20027   3.414   1.558   5.262  2.4255 -1.6834 -1.9521
  176SLPC  C31520028   3.482   1.406   5.395 -0.4270  0.7529  0.4134
  176SLPC  H15X20029   3.388   1.365   5.439  0.3543 -2.2166 -0.4850
  176SLPC  H15Y20030   3.557   1.405   5.477 -2.0748  1.2723  2.0163
  176SLPC  C31620031   3.514   1.314   5.267 -0.1015  0.3815  0.1946
  176SLPC  H16X20032   3.608   1.352   5.222 -0.2322  1.5767  0.8697
  176SLPC  H16Y20033   3.430   1.335   5.197  0.5502  0.4239 -0.5849
  176SLPC  C31720034   3.528   1.163   5.295  0.2618  0.0431  0.4970
  176SLPC  H17X20035   3.616   1.140   5.360  0.3788  0.4001  0.4655
  176SLPC  H17Y20036   3.540   1.102   5.203  0.4837  0.4116  0.2790
  176SLPC  C31820037   3.401   1.105   5.360  0.3124  0.1075 -1.0784
  176SLPC  H18X20038   3.383   1.164   5.452  0.5393 -1.3018 -0.0950
  176SLPC  H18Y20039   3.419   0.999   5.390  2.5856  1.1333  1.5520
  176SLPC  H18Z20040   3.318   1.108   5.287 -2.1328 -0.5342  1.5198
  177SLPC     N20041   1.697   2.257   6.963  0.5831 -0.6553 -0.5189
  177SLPC   C1320042   1.631   2.285   6.833 -0.3689 -0.6320 -0.5831
  177SLPC  H13A20043   1.540   2.227   6.831  0.0094 -1.2573 -0.1062
  177SLPC  H13B20044   1.599   2.388   6.826 -2.4594 -0.8070  3.4275
  177SLPC  H13C20045   1.697   2.250   6.756  2.0504 -1.7151  1.8069
  177SLPC   C1420046   1.721   2.107   6.985  0.2352 -0.0660 -0.7303
  177SLPC  H14A20047   1.745   2.099   7.090 -0.2267 -0.2635 -0.6393
  177SLPC  H14B20048   1.628   2.054   6.969  0.1503  0.0088 -0.4849
  177SLPC  H14C20049   1.803   2.067   6.927  0.8024 -0.9671  0.6230
  177SLPC   C1520050   1.593   2.293   7.071 -0.0790  0.7559  0.3965
  177SLPC  H15A20051   1.503   2.233   7.071 -1.1762  2.2316 -2.6156
  177SLPC  H15B20052   1.637   2.285   7.170 -0.1970 -1.0567  0.3401
  177SLPC  H15C20053   1.557   2.394   7.067 -2.4341  0.0503  1.5583
  177SLPC   C1220054   1.822   2.338   6.978 -0.4904  0.2509 -0.2358
  177SLPC  H12A20055   1.797   2.436   6.940 -0.4416 -0.1181 -1.2566
  177SLPC  H12B20056   1.895   2.296   6.910 -0.9306 -1.1827  0.1422
  177SLPC   C1120057   1.894   2.338   7.113  0.3469 -0.0877 -0.1207
  177SLPC  H11A20058   1.823   2.367   7.194  2.3554 -0.8350  2.0236
  177SLPC  H11B20059   1.973   2.414   7.103  0.5551 -0.2618  0.1979
  177SLPC     P20060   2.085   2.172   7.114 -0.3979  0.3105  0.1470
  177SLPC   O1320061   2.188   2.212   7.214  0.8421 -0.0233  0.8000
  177SLPC   O1420062   2.074   2.031   7.074  0.1844  0.2272 -0.0588
  177SLPC   O1220063   1.947   2.216   7.165 -0.1783  0.8180  0.3684
  177SLPC   O1120064   2.108   2.256   6.984  0.2558 -0.1726 -0.3557
  177SLPC    C120065   2.234   2.333   6.972  0.6810  0.0922 -0.3811
  177SLPC    HA20066   2.247   2.408   7.053 -1.7236  0.9669 -0.7058
  177SLPC    HB20067   2.323   2.268   6.961  1.8105  1.3043  1.2140
  177SLPC    C220068   2.245   2.413   6.847 -0.5976 -0.0365 -0.1787
  177SLPC    HS20069   2.182   2.503   6.861 -0.2609  0.2303 -0.3496
  177SLPC   O2120070   2.204   2.329   6.738 -0.0684  0.7291  0.8266
  177SLPC   C2120071   2.081   2.342   6.689  0.6451 -0.1777 -0.3784
  177SLPC   O2220072   1.996   2.415   6.737  0.2679 -0.3475  0.2766
  177SLPC   C2220073   2.069   2.254   6.556  0.1260  0.1913 -0.5004
  177SLPC   H2R20074   2.114   2.315   6.474 -0.3463 -1.1442 -1.7987
  177SLPC   H2S20075   2.128   2.164   6.585  0.0502 -0.7704 -3.1014
  177SLPC    C320076   2.391   2.464   6.819 -0.0173  0.5682 -1.1147
  177SLPC    HX20077   2.446   2.378   6.775  0.0066 -1.3847  2.3597
  177SLPC    HY20078   2.455   2.482   6.908  0.9105 -0.5877 -1.5294
  177SLPC   O3120079   2.397   2.572   6.736  0.1114  0.1505 -0.1051
  177SLPC   C3120080   2.395   2.694   6.794 -0.5134 -0.3263 -0.5138
  177SLPC   O3220081   2.374   2.712   6.911  0.4901  0.1330  0.0967
  177SLPC   C3220082   2.427   2.801   6.685  0.2936 -0.3982  0.1038
  177SLPC   H2X20083   2.350   2.790   6.606  0.1808  3.8747 -0.5813
  177SLPC   H2Y20084   2.525   2.773   6.641  0.5451 -0.0045  0.4109
  177SLPC   C2320085   1.922   2.220   6.520 -0.5361  0.2046 -0.5118
  177SLPC   H3R20086   1.852   2.306   6.533 -2.8987 -1.5763 -0.6963
  177SLPC   H3S20087   1.881   2.144   6.591  0.2781 -0.0093 -0.2669
  177SLPC   C2420088   1.919   2.142   6.390  0.2382  0.3606  0.0099
  177SLPC   H4R20089   1.818   2.096   6.380  0.0657  0.4562  1.1790
  177SLPC   H4S20090   1.990   2.057   6.401  0.1404  0.2368 -0.3007
  177SLPC   C2520091   1.953   2.222   6.266 -0.0460  0.0203 -0.7118
  177SLPC   H5R20092   2.055   2.263   6.284  0.4440 -2.3564  2.9916
  177SLPC   H5S20093   1.883   2.307   6.279  1.7253  1.3846  0.4639
  177SLPC   C2620094   1.940   2.156   6.127  0.0496  0.0441  0.3912
  177SLPC   H6R20095   1.838   2.114   6.117 -0.1355  0.8642 -1.7309
  177SLPC   H6S20096   2.009   2.070   6.113  1.5058  1.1167  0.7322
  177SLPC   C2720097   1.963   2.260   6.022  0.2710  0.5136 -0.1266
  177SLPC   H7R20098   2.070   2.271   5.996  0.8046 -0.2766  1.6032
  177SLPC   H7S20099   1.933   2.358   6.065 -3.7542 -0.7962  0.4431
  177SLPC   C2820100   1.874   2.244   5.905 -0.2634 -0.4365  0.1597
  177SLPC   H8R20101   1.878   2.334   5.840 -0.8915 -2.3778 -2.7534
  177SLPC   H8S20102   1.768   2.229   5.935 -1.8234  4.7073 -1.6000
  177SLPC   C2920103   1.915   2.127   5.819 -0.1456  0.5156  1.3123
  177SLPC   H9R20104   1.936   2.033   5.872  1.8833  0.2616  0.1837
  177SLPC  C21020105   1.948   2.124   5.685 -0.5431  0.7269 -0.1866
  177SLPC  H10R20106   1.990   2.032   5.643  0.5465  1.4530 -0.7230
  177SLPC  C21120107   1.955   2.249   5.600 -0.3669 -0.0230 -0.4276
  177SLPC  H11R20108   2.021   2.225   5.514  1.6062  0.9541  0.7350
  177SLPC  H11S20109   1.999   2.334   5.656 -1.3614  1.0285 -1.2043
  177SLPC  C21220110   1.822   2.285   5.537  0.4519 -0.6041  0.2336
  177SLPC  H12R20111   1.725   2.262   5.584 -0.5310  1.9562 -0.3502
  177SLPC  C21320112   1.821   2.356   5.420  0.4600  0.0680  0.0088
  177SLPC  H13R20113   1.722   2.378   5.378  0.3460  0.3836  0.4334
  177SLPC  C21420114   1.936   2.379   5.332 -0.0578 -0.2419  0.3761
  177SLPC  H14R20115   2.001   2.291   5.309 -0.5625 -0.1397 -1.5789
  177SLPC  H14S20116   2.001   2.465   5.360  0.2008  0.4323 -2.0711
  177SLPC  C21520117   1.885   2.427   5.193 -0.5930 -0.3168  0.0355
  177SLPC  H15R20118   1.839   2.528   5.190  1.2511  0.5562 -0.3752
  177SLPC  H15S20119   1.813   2.351   5.154  0.4923 -1.8201  0.8460
  177SLPC  C21620120   2.010   2.427   5.098  0.2769 -0.3610 -0.4332
  177SLPC  H16R20121   2.054   2.325   5.091 -0.2892 -0.5039 -3.0687
  177SLPC  H16S20122   2.081   2.504   5.135  0.2919  1.3800 -3.7153
  177SLPC  C21720123   1.995   2.471   4.953  0.6482 -0.0484  0.8737
  177SLPC  H17R20124   1.912   2.417   4.902 -0.0918  1.0157  0.9117
  177SLPC  H17S20125   2.093   2.453   4.905 -0.1643 -2.8541  0.0666
  177SLPC  C21820126   1.964   2.625   4.933  0.5944  0.5001 -0.2166
  177SLPC  H18R20127   1.911   2.640   4.836 -0.5930 -0.0732  0.3255
  177SLPC  H18S20128   2.061   2.678   4.936  0.8397  0.0097  1.0666
  177SLPC  H18T20129   1.904   2.657   5.021  1.9514  1.8184  0.2761
  177SLPC   C3320130   2.435   2.944   6.731 -0.0617 -0.4007  0.0656
  177SLPC   H3X20131   2.506   2.970   6.812 -0.8784  0.2557  0.5920
  177SLPC   H3Y20132   2.341   2.981   6.778  1.0419  0.2391  1.8469
  177SLPC   C3420133   2.452   3.046   6.619 -0.2807  0.5699 -0.1045
  177SLPC   H4X20134   2.555   3.032   6.580  0.3804 -1.2551  2.1496
  177SLPC   H4Y20135   2.440   3.153   6.648 -1.2269  0.2136  0.8729
  177SLPC   C3520136   2.352   3.036   6.504  0.0133  0.6462 -0.4912
  177SLPC   H5X20137   2.250   3.023   6.546  0.0881 -1.8193 -0.9267
  177SLPC   H5Y20138   2.366   2.943   6.446  0.7251  0.2669  0.2719
  177SLPC   C3620139   2.372   3.159   6.415  0.3510  0.0382  0.1863
  177SLPC   H6X20140   2.475   3.160   6.374  0.3805  1.6688  0.2034
  177SLPC   H6Y20141   2.360   3.249   6.480 -0.1947  0.1423 -0.0515
  177SLPC   C3720142   2.278   3.164   6.292 -0.3453  0.2899 -0.2453
  177SLPC   H7X20143   2.260   3.262   6.243 -1.9710 -0.2564 -0.7967
  177SLPC   H7Y20144   2.177   3.130   6.326  0.5591 -0.4221  1.9366
  177SLPC   C3820145   2.327   3.080   6.166  0.1591  0.0230 -0.3227
  177SLPC   H8X20146   2.318   2.975   6.201  0.6127  0.0842 -0.0107
  177SLPC   H8Y20147   2.433   3.095   6.139  0.1910 -2.5258 -1.9078
  177SLPC   C3920148   2.249   3.091   6.035 -0.1337  0.5992 -0.5697
  177SLPC   H9X20149   2.248   3.199   6.006  0.3793  0.9609  0.7044
  177SLPC   H9Y20150   2.152   3.039   6.051  0.1512  0.4691  0.8273
  177SLPC  C31020151   2.306   3.020   5.910 -0.5099  0.2351  0.2396
  177SLPC  H10X20152   2.295   2.912   5.931  2.7231  0.1064  1.8311
  177SLPC  H10Y20153   2.412   3.050   5.895 -0.1321 -1.0231  0.2803
  177SLPC  C31120154   2.221   3.053   5.783 -0.1536 -0.4774  0.0618
  177SLPC  H11X20155   2.249   3.159   5.764 -0.0428 -0.4965  0.1128
  177SLPC  H11Y20156   2.117   3.065   5.821  0.0668  1.4061  0.1387
  177SLPC  C31220157   2.255   2.963   5.666 -0.4674  0.3429  0.0626
  177SLPC  H12X20158   2.194   2.871   5.680 -1.9080  0.7448 -2.7830
  177SLPC  H12Y20159   2.363   2.938   5.661 -0.1999  1.3352  0.6177
  177SLPC  C31320160   2.223   3.024   5.528  0.4230  0.0341 -0.7842
  177SLPC  H13X20161   2.296   3.106   5.509  2.1641 -0.8573  1.5811
  177SLPC  H13Y20162   2.125   3.076   5.520  0.5976  0.3375 -1.0096
  177SLPC  C31420163   2.228   2.917   5.421 -0.4142  0.1852 -0.3934
  177SLPC  H14X20164   2.140   2.851   5.433 -0.0657  0.1587  2.9924
  177SLPC  H14Y20165   2.316   2.851   5.444 -0.1110  1.1650  1.4743
  177SLPC  C31520166   2.219   2.965   5.273  0.3168  0.5785  0.4450
  177SLPC  H15X20167   2.245   2.883   5.202  0.2061  0.3902  0.6193
  177SLPC  H15Y20168   2.301   3.038   5.255 -1.0973  1.7096 -1.8901
  177SLPC  C31620169   2.081   3.026   5.223 -0.5612 -0.7278 -0.5687
  177SLPC  H16X20170   2.043   3.100   5.296  2.8027 -0.7983  1.4719
  177SLPC  H16Y20171   2.005   2.946   5.215  2.3008 -3.5804 -2.0037
  177SLPC  C31720172   2.093   3.092   5.085  0.0053  0.4836  0.3960
  177SLPC  H17X20173   2.126   3.011   5.017  0.2663 -1.7579  3.0216
  177SLPC  H17Y20174   2.165   3.177   5.083 -0.4306  0.8785 -2.3393
  177SLPC  C31820175   1.956   3.150   5.041  1.0442  0.1795  0.7362
  177SLPC  H18X20176   1.968   3.226   4.961  0.0207 -0.1068  0.2939
  177SLPC  H18Y20177   1.903   3.188   5.131 -1.7018  1.1286 -1.1348
  177SLPC  H18Z20178   1.890   3.070   5.001  0.2189  0.8844  0.6526
  178SLPC     N20179   6.536   0.932   7.188 -0.7412 -0.0907 -0.7552
  178SLPC   C1320180   6.681   0.952   7.223 -0.0015 -0.2777 -0.0802
  178SLPC  H13A20181   6.737   0.914   7.139  0.7901 -0.9542  0.7449
  178SLPC  H13B20182   6.696   1.059   7.232 -1.1655 -0.0978 -0.1210
  178SLPC  H13C20183   6.711   0.896   7.310 -0.7258  0.8777  0.9426
  178SLPC   C1420184   6.447   1.004   7.284 -0.7083  0.0861 -0.1578
  178SLPC  H14A20185   6.345   0.988   7.254 -1.1569  1.7821  0.3456
  178SLPC  H14B20186   6.460   0.953   7.378 -0.9412 -0.1237 -0.2385
  178SLPC  H14C20187   6.479   1.107   7.286 -0.0215 -0.0373 -2.1275
  178SLPC   C1520188   6.513   0.783   7.194  0.0682  0.2093 -0.0453
  178SLPC  H15A20189   6.584   0.736   7.127  1.0121  1.5912 -0.0718
  178SLPC  H15B20190   6.529   0.744   7.294  1.5955  0.2745 -0.2354
  178SLPC  H15C20191   6.413   0.761   7.160  0.2589 -1.3864  0.3185
  178SLPC   C1220192   6.508   0.977   7.044 -0.0969 -0.2482 -0.2289
  178SLPC  H12A20193   6.527   1.083   7.034  0.1981 -0.4752 -2.7227
  178SLPC  H12B20194   6.405   0.954   7.022 -0.3256 -1.8167  2.0217
  178SLPC   C1120195   6.605   0.911   6.933  0.4422 -0.0754 -0.2666
  178SLPC  H11A20196   6.558   0.922   6.833 -0.9599  0.3796  0.4279
  178SLPC  H11B20197   6.625   0.803   6.954  1.7209  0.1233 -0.3947
  178SLPC     P20198   6.842   0.962   6.830  0.0451 -0.2966 -0.1974
  178SLPC   O1320199   6.946   1.064   6.851  0.1106  0.5486 -0.2710
  178SLPC   O1420200   6.885   0.821   6.829  0.2348  0.6282  0.2384
  178SLPC   O1220201   6.736   0.973   6.945 -0.5652  0.1327 -0.1645
  178SLPC   O1120202   6.760   0.997   6.701 -0.7621 -0.2437  0.1775
  178SLPC    C120203   6.687   1.120   6.670 -0.1383 -0.5311  0.3065
  178SLPC    HA20204   6.581   1.096   6.646 -0.0311  0.1531 -0.9371
  178SLPC    HB20205   6.681   1.194   6.753  0.4168  1.7105 -1.5274
  178SLPC    C220206   6.739   1.198   6.538  0.1841 -0.3693 -0.6366
  178SLPC    HS20207   6.674   1.287   6.542  0.1807 -0.3495 -1.1069
  178SLPC   O2120208   6.722   1.113   6.422  0.5223 -0.8090  0.0717
  178SLPC   C2120209   6.671   1.178   6.315  0.9052  0.4039  0.0117
  178SLPC   O2220210   6.630   1.292   6.314 -0.1279  0.0939  0.1503
  178SLPC   C2220211   6.663   1.072   6.195  0.5657  0.1293  0.4496
  178SLPC   H2R20212   6.685   0.975   6.244  2.3882 -0.2621 -1.0031
  178SLPC   H2S20213   6.557   1.064   6.163  0.6833  1.0671 -0.2346
  178SLPC    C320214   6.882   1.243   6.559  0.3155  0.3359 -0.3699
  178SLPC    HX20215   6.933   1.145   6.566 -1.7871 -0.7995  0.1343
  178SLPC    HY20216   6.894   1.303   6.652  1.8298  0.3565 -0.5602
  178SLPC   O3120217   6.924   1.318   6.443 -0.3204 -0.2417  0.7404
  178SLPC   C3120218   6.884   1.442   6.432  0.2997 -0.1913  0.1314
  178SLPC   O3220219   6.815   1.497   6.518 -0.1772 -0.2557 -0.4011
  178SLPC   C3220220   6.952   1.513   6.308  0.2573  0.5316 -0.5094
  178SLPC   H2X20221   6.996   1.437   6.239  0.0751  0.2968 -0.3691
  178SLPC   H2Y20222   7.039   1.576   6.335  0.7893 -0.5068  0.2423
  178SLPC   C2320223   6.755   1.094   6.081 -0.1938  0.7028 -0.4959
  178SLPC   H3R20224   6.765   0.995   6.032 -0.5023  0.6225 -0.3953
  178SLPC   H3S20225   6.853   1.112   6.132  1.2474 -2.3458 -1.8877
  178SLPC   C2420226   6.713   1.209   5.992 -0.5625 -1.3051 -0.0333
  178SLPC   H4R20227   6.704   1.294   6.063 -0.0437 -1.0871 -0.2219
  178SLPC   H4S20228   6.608   1.199   5.957 -0.9914 -3.6639  1.7123
  178SLPC   C2520229   6.818   1.240   5.889  0.0103 -0.7671  0.5150
  178SLPC   H5R20230   6.923   1.230   5.925  0.2573 -0.1020  0.0044
  178SLPC   H5S20231   6.811   1.343   5.848 -0.8293 -0.9142  0.2724
  178SLPC   C2620232   6.810   1.146   5.768 -0.1252  0.2442  0.0240
  178SLPC   H6R20233   6.713   1.147   5.714  0.7503  0.3844 -1.6154
  178SLPC   H6S20234   6.827   1.041   5.798 -0.8551 -0.4411 -1.8570
  178SLPC   C2720235   6.920   1.173   5.660  0.6111  0.7382  0.2557
  178SLPC   H7R20236   7.015   1.154   5.712 -0.2197 -1.2881  1.1157
  178SLPC   H7S20237   6.896   1.277   5.629  0.2748  1.2643  2.1828
  178SLPC   C2820238   6.891   1.076   5.537  0.2450  0.4286  0.2462
  178SLPC   H8R20239   6.791   1.104   5.498  1.0760  4.3006  0.5163
  178SLPC   H8S20240   6.906   0.974   5.580  1.7567  0.1439 -0.8881
  178SLPC   C2920241   6.991   1.076   5.425  0.2174 -0.5069 -0.2703
  178SLPC   H9R20242   7.090   1.053   5.467  1.3085 -0.1689 -2.5169
  178SLPC  C21020243   6.969   1.085   5.293  0.0164  0.0721  0.1203
  178SLPC  H10R20244   7.048   1.076   5.216 -0.0988  1.8699 -0.2728
  178SLPC  C21120245   6.841   1.110   5.221  0.1900 -0.6522 -0.0824
  178SLPC  H11R20246   6.750   1.123   5.283 -0.3428 -1.7246 -0.6312
  178SLPC  H11S20247   6.823   1.023   5.154 -1.9462  0.4918 -1.1129
  178SLPC  C21220248   6.830   1.225   5.127 -0.6155 -0.1224 -0.3542
  178SLPC  H12R20249   6.781   1.311   5.173  1.1739  0.3829  0.6532
  178SLPC  C21320250   6.879   1.232   5.001  0.1212  0.9995 -0.1066
  178SLPC  H13R20251   6.848   1.313   4.934 -1.6890 -0.4817 -1.1409
  178SLPC  C21420252   6.958   1.128   4.922 -0.1310 -0.5020  0.4352
  178SLPC  H14R20253   6.955   1.036   4.984  0.4756 -1.8218 -1.3976
  178SLPC  H14S20254   7.064   1.159   4.913 -0.7695  1.5954 -0.5101
  178SLPC  C21520255   6.901   1.118   4.782  0.1080 -0.3282  0.3496
  178SLPC  H15R20256   6.790   1.129   4.778  0.2719  1.7214  0.7970
  178SLPC  H15S20257   6.915   1.016   4.739  0.9953 -0.7053  1.4925
  178SLPC  C21620258   6.964   1.219   4.687  0.2953  1.0492 -0.5424
  178SLPC  H16R20259   7.074   1.200   4.680  0.3522  1.3088 -0.3985
  178SLPC  H16S20260   6.957   1.325   4.720 -4.4229  1.5235 -2.3900
  178SLPC  C21720261   6.911   1.221   4.540 -0.1707  0.9980 -0.1306
  178SLPC  H17R20262   6.909   1.118   4.499 -0.5626  0.1693  1.8574
  178SLPC  H17S20263   6.989   1.264   4.473  1.5324 -0.3926  0.8839
  178SLPC  C21820264   6.776   1.292   4.514  0.3778 -0.9088 -0.1088
  178SLPC  H18R20265   6.714   1.280   4.606  0.8964  1.6782  0.6682
  178SLPC  H18S20266   6.723   1.250   4.426  0.3100  0.4574 -0.7548
  178SLPC  H18T20267   6.786   1.403   4.511  1.3920 -0.9283  1.2139
  178SLPC   C3320268   6.859   1.606   6.230  0.9406 -0.0374 -0.6857
  178SLPC   H3X20269   6.824   1.677   6.308  3.3717  0.2334  0.2553
  178SLPC   H3Y20270   6.767   1.555   6.193  0.2760 -0.4597  1.4192
  178SLPC   C3420271   6.914   1.692   6.110  0.7701  0.8269  0.5264
  178SLPC   H4X20272   7.024   1.701   6.117  0.8431  1.3569 -0.8891
  178SLPC   H4Y20273   6.867   1.792   6.095  1.8428  1.1969 -0.4927
  178SLPC   C3520274   6.880   1.618   5.979  0.6979 -0.3218  0.5692
  178SLPC   H5X20275   6.769   1.617   5.974  0.6355 -0.9303  1.6860
  178SLPC   H5Y20276   6.918   1.514   5.977 -0.0432 -0.6616  2.3207
  178SLPC   C3620277   6.931   1.708   5.860 -0.2267 -0.3171  0.5218
  178SLPC   H6X20278   7.040   1.730   5.866 -0.4667  0.8903  0.6635
  178SLPC   H6Y20279   6.885   1.809   5.855  2.9835  1.2801  0.5947
  178SLPC   C3720280   6.903   1.651   5.715  0.4285  0.2182  0.0670
  178SLPC   H7X20281   6.793   1.643   5.705  0.0735  1.6733  2.2603
  178SLPC   H7Y20282   6.960   1.556   5.705  0.9113  0.5590 -0.5396
  178SLPC   C3820283   6.941   1.745   5.601 -0.5259 -0.1479 -0.8129
  178SLPC   H8X20284   7.052   1.756   5.603 -0.5334  0.2161 -1.7945
  178SLPC   H8Y20285   6.911   1.850   5.620  0.9228  0.9217 -3.8515
  178SLPC   C3920286   6.882   1.703   5.471 -0.2681  0.0271  0.0896
  178SLPC   H9X20287   6.776   1.672   5.479 -1.2795  3.2930  0.9043
  178SLPC   H9Y20288   6.941   1.617   5.432 -0.9847 -0.1979 -0.5111
  178SLPC  C31020289   6.894   1.824   5.373  0.5168  0.0996  0.1548
  178SLPC  H10X20290   6.998   1.863   5.367 -0.6024  3.1891 -1.5230
  178SLPC  H10Y20291   6.838   1.913   5.407  0.5622  1.4512 -2.9660
  178SLPC  C31120292   6.846   1.778   5.239 -0.0812 -0.4267 -0.0129
  178SLPC  H11X20293   6.816   1.875   5.194  0.1438 -0.3616 -0.0279
  178SLPC  H11Y20294   6.758   1.711   5.245 -0.0448 -0.5881 -1.1129
  178SLPC  C31220295   6.954   1.715   5.152 -0.3864  0.0908 -0.4909
  178SLPC  H12X20296   6.984   1.624   5.209 -2.2037  0.0573  0.5114
  178SLPC  H12Y20297   7.046   1.776   5.145 -0.4276  0.2440  0.2503
  178SLPC  C31320298   6.898   1.680   5.016  0.2357 -0.0217  0.1913
  178SLPC  H13X20299   6.865   1.779   4.976  1.0086  0.3243  0.3762
  178SLPC  H13Y20300   6.808   1.615   5.022  1.4934 -2.0906 -1.6358
  178SLPC  C31420301   6.981   1.615   4.898  0.1855 -0.3120 -0.2517
  178SLPC  H14X20302   6.903   1.597   4.822  1.3550  1.1170 -1.8685
  178SLPC  H14Y20303   7.025   1.518   4.930 -1.2991 -0.8561  0.2158
  178SLPC  C31520304   7.088   1.703   4.836  0.4586 -0.2966 -0.4375
  178SLPC  H15X20305   7.171   1.718   4.909  0.3452 -0.7794 -0.2080
  178SLPC  H15Y20306   7.051   1.805   4.813 -0.8002 -0.9892 -1.6172
  178SLPC  C31620307   7.140   1.642   4.710  0.9731  0.2265  0.2151
  178SLPC  H16X20308   7.058   1.632   4.636  0.9447  2.7443 -0.1907
  178SLPC  H16Y20309   7.168   1.539   4.741  1.4898  1.5253  4.8109
  178SLPC  C31720310   7.253   1.720   4.650 -0.1831 -0.2929 -0.0693
  178SLPC  H17X20311   7.332   1.751   4.722 -0.7471  0.6715  0.1408
  178SLPC  H17Y20312   7.208   1.811   4.606  1.7514  0.2549 -1.0406
  178SLPC  C31820313   7.324   1.653   4.539  0.0429 -0.2084  0.6839
  178SLPC  H18X20314   7.258   1.578   4.490 -1.7500  1.7727 -0.1029
  178SLPC  H18Y20315   7.405   1.582   4.567 -0.7368 -1.9003 -1.0865
  178SLPC  H18Z20316   7.364   1.726   4.465 -0.9237  0.5791  0.9278
  179SLPC     N20317   1.936   4.507   2.897 -0.9680  0.6147  0.1642
  179SLPC   C1320318   1.990   4.477   3.030 -0.0866 -0.4163 -0.2331
  179SLPC  H13A20319   1.918   4.413   3.079 -0.5188 -0.9241 -1.4880
  179SLPC  H13B20320   2.077   4.414   3.033 -0.0052 -0.4237 -1.8314
  179SLPC  H13C20321   1.995   4.572   3.081 -4.5121  0.3047 -0.6705
  179SLPC   C1420322   2.053   4.558   2.819  0.3773  0.5513 -0.2655
  179SLPC  H14A20323   2.034   4.591   2.718  0.8468 -0.6619 -0.7610
  179SLPC  H14B20324   2.088   4.644   2.874 -1.0219  0.6685  0.5044
  179SLPC  H14C20325   2.135   4.489   2.823  1.7963  2.1017  4.2462
  179SLPC   C1520326   1.841   4.615   2.915  0.6467  0.1502 -0.1869
  179SLPC  H15A20327   1.798   4.636   2.819 -1.4163 -0.9474  0.4364
  179SLPC  H15B20328   1.754   4.585   2.972 -0.5113  2.2010 -0.7449
  179SLPC  H15C20329   1.900   4.699   2.948  0.1967  0.1555  0.6361
  179SLPC   C1220330   1.882   4.387   2.821  0.4261  0.0058  0.2263
  179SLPC  H12A20331   1.957   4.309   2.823  2.3518  1.7984  1.2691
  179SLPC  H12B20332   1.883   4.394   2.713  1.0009 -1.2646  0.1241
  179SLPC   C1120333   1.739   4.334   2.867  0.7175 -0.6089  0.7278
  179SLPC  H11A20334   1.752   4.319   2.976  0.5733 -0.7226  0.7293
  179SLPC  H11B20335   1.719   4.241   2.810 -0.6169  0.7087 -1.0894
  179SLPC     P20336   1.552   4.468   2.732 -0.2721  0.2267 -0.6117
  179SLPC   O1320337   1.615   4.566   2.646 -0.1399 -0.6065 -0.0936
  179SLPC   O1420338   1.503   4.347   2.667  0.1917  0.2843  0.2842
  179SLPC   O1220339   1.641   4.432   2.858 -0.2140 -0.6172  0.0391
  179SLPC   O1120340   1.423   4.525   2.801 -0.1609 -0.3818 -0.3688
  179SLPC    C120341   1.437   4.640   2.889  0.0393 -0.8620  0.8787
  179SLPC    HA20342   1.535   4.693   2.884 -0.0498 -0.8014 -2.9262
  179SLPC    HB20343   1.359   4.714   2.861  0.5935  0.6584  3.0581
  179SLPC    C220344   1.425   4.614   3.040  0.0877  0.3359  0.1822
  179SLPC    HS20345   1.499   4.535   3.065 -0.5484 -0.3660 -0.1437
  179SLPC   O2120346   1.298   4.557   3.064 -0.3816 -0.1246 -0.0400
  179SLPC   C2120347   1.270   4.486   3.176 -0.1233  0.3511 -0.0437
  179SLPC   O2220348   1.346   4.459   3.265 -0.1844 -0.5010 -0.0161
  179SLPC   C2220349   1.130   4.449   3.168  0.0569 -0.1910 -0.1819
  179SLPC   H2R20350   1.077   4.531   3.116  2.3882  2.2659  1.0693
  179SLPC   H2S20351   1.121   4.351   3.117  0.6905 -0.7254  0.6865
  179SLPC    C320352   1.449   4.751   3.117  0.6632  0.2915  0.2937
  179SLPC    HX20353   1.390   4.841   3.089  1.5167  0.8183  0.1766
  179SLPC    HY20354   1.554   4.784   3.103  0.3417  1.0034 -0.4932
  179SLPC   O3120355   1.426   4.732   3.260  0.5437 -0.5789 -0.2277
  179SLPC   C3120356   1.521   4.679   3.336 -0.2829  0.3135 -0.1556
  179SLPC   O3220357   1.627   4.632   3.299 -1.2460  0.3659 -0.5763
  179SLPC   C3220358   1.477   4.665   3.476  0.8659 -0.9818  0.3141
  179SLPC   H2X20359   1.394   4.592   3.488  0.1688 -0.3543 -0.5075
  179SLPC   H2Y20360   1.439   4.762   3.516  0.0042 -1.5593  0.9373
  179SLPC   C2320361   1.053   4.431   3.303  0.3699 -0.3190 -0.0755
  179SLPC   H3R20362   1.120   4.372   3.369 -0.3004  0.1469  1.0390
  179SLPC   H3S20363   0.957   4.377   3.285  0.4826 -0.0910 -1.4848
  179SLPC   C2420364   1.027   4.573   3.362 -0.5665  0.6108 -0.1595
  179SLPC   H4R20365   0.956   4.630   3.299 -2.1389  0.3306  1.2860
  179SLPC   H4S20366   1.120   4.631   3.381 -1.5825  1.8471  1.2873
  179SLPC   C2520367   0.966   4.559   3.510 -0.4387 -0.3679  0.4242
  179SLPC   H5R20368   1.024   4.479   3.562  0.1787 -0.9210 -1.0342
  179SLPC   H5S20369   0.858   4.534   3.510 -0.4113 -0.5129 -0.1792
  179SLPC   C2620370   0.989   4.698   3.576  0.3138 -0.0119  0.6000
  179SLPC   H6R20371   0.929   4.777   3.526 -1.0131 -1.3508  0.0034
  179SLPC   H6S20372   1.094   4.727   3.555 -0.3950  0.4170 -2.9734
  179SLPC   C2720373   0.946   4.694   3.721  0.6099 -0.6406  1.0123
  179SLPC   H7R20374   1.037   4.655   3.773  1.5359 -1.1328 -0.8936
  179SLPC   H7S20375   0.864   4.620   3.735 -0.4480  0.0560 -1.1742
  179SLPC   C2820376   0.896   4.829   3.790 -0.4720  0.6899  1.0620
  179SLPC   H8R20377   0.836   4.790   3.876  0.2311 -2.2421  0.3129
  179SLPC   H8S20378   0.832   4.888   3.720 -0.1769  0.5637  0.6845
  179SLPC   C2920379   1.025   4.910   3.833  0.7718  0.2642 -0.2981
  179SLPC   H9R20380   1.062   4.980   3.756  0.6440  0.9619  0.2668
  179SLPC  C21020381   1.098   4.893   3.946 -0.4033  0.3456  0.2921
  179SLPC  H10R20382   1.190   4.952   3.960  0.4897 -1.4056  2.4355
  179SLPC  C21120383   1.070   4.798   4.055 -0.0529  0.7858 -0.2583
  179SLPC  H11R20384   1.165   4.780   4.110 -1.4798  0.0222  2.1133
  179SLPC  H11S20385   1.060   4.693   4.020  2.0654  0.1750  0.8061
  179SLPC  C21220386   0.945   4.849   4.137 -0.2036 -0.0512  0.6119
  179SLPC  H12R20387   0.852   4.851   4.078 -0.2126  3.6593  0.4796
  179SLPC  C21320388   0.955   4.888   4.265 -0.2248  0.0887 -0.3263
  179SLPC  H13R20389   0.861   4.931   4.303 -1.2643 -1.7420 -0.7306
  179SLPC  C21420390   1.077   4.900   4.353  0.3236 -0.4193  0.2022
  179SLPC  H14R20391   1.169   4.874   4.296  1.3317  1.8324  0.6701
  179SLPC  H14S20392   1.063   4.817   4.425 -0.5625 -0.9786 -0.5889
  179SLPC  C21520393   1.088   5.030   4.421 -0.8836 -0.4920  0.1929
  179SLPC  H15R20394   1.160   5.023   4.506 -0.5241  1.5098  0.0967
  179SLPC  H15S20395   0.991   5.060   4.466 -1.1048 -0.4453 -0.3043
  179SLPC  C21620396   1.139   5.143   4.327 -0.3471  0.3180 -0.0333
  179SLPC  H16R20397   1.057   5.172   4.258 -1.7800 -1.2843  0.9102
  179SLPC  H16S20398   1.238   5.122   4.281  0.4358  3.1799  0.1816
  179SLPC  C21720399   1.162   5.278   4.400 -0.3773 -0.0463  0.0898
  179SLPC  H17R20400   1.208   5.351   4.329  0.0006  0.0766  0.4558
  179SLPC  H17S20401   1.244   5.250   4.470  0.5260 -3.9137 -2.2141
  179SLPC  C21820402   1.042   5.334   4.472  0.0124 -0.1896  0.4359
  179SLPC  H18R20403   1.072   5.418   4.538  4.5451 -1.8778  0.8323
  179SLPC  H18S20404   0.981   5.263   4.531 -1.2835 -0.3825 -1.0480
  179SLPC  H18T20405   0.971   5.374   4.396  0.4906 -0.9287 -0.4159
  179SLPC   C3320406   1.597   4.627   3.574 -0.2691  0.1106 -0.7024
  179SLPC   H3X20407   1.685   4.694   3.571  2.0464 -2.6670 -0.0022
  179SLPC   H3Y20408   1.624   4.527   3.533 -0.3464 -0.3340  0.3022
  179SLPC   C3420409   1.544   4.617   3.721  0.0253 -0.2856  0.3856
  179SLPC   H4X20410   1.617   4.559   3.781 -1.0920 -1.1536  0.9386
  179SLPC   H4Y20411   1.454   4.552   3.713 -0.0368 -0.2122  0.4905
  179SLPC   C3520412   1.515   4.750   3.785 -0.2893 -0.3224 -0.4998
  179SLPC   H5X20413   1.592   4.830   3.774 -0.3064  0.2233  2.5222
  179SLPC   H5Y20414   1.426   4.802   3.744 -1.5734 -1.0003  1.3020
  179SLPC   C3620415   1.519   4.731   3.934  0.3405  0.1780 -0.6683
  179SLPC   H6X20416   1.595   4.659   3.971 -0.3490  0.6892  1.9386
  179SLPC   H6Y20417   1.419   4.692   3.961  1.1939 -1.7405 -0.1225
  179SLPC   C3720418   1.531   4.866   4.009 -0.4542  0.3658  0.2235
  179SLPC   H7X20419   1.452   4.935   3.975  1.0209  1.9563 -0.1392
  179SLPC   H7Y20420   1.633   4.907   3.993 -0.3587 -0.6626 -2.1951
  179SLPC   C3820421   1.511   4.841   4.160  0.0017 -0.3373  0.1937
  179SLPC   H8X20422   1.577   4.762   4.204  1.0760  0.4280  0.0079
  179SLPC   H8Y20423   1.408   4.802   4.174 -0.2065  0.5365  1.1749
  179SLPC   C3920424   1.530   4.966   4.249  0.1330  0.4237  0.1262
  179SLPC   H9X20425   1.452   5.040   4.224  0.5642  0.4492 -1.2391
  179SLPC   H9Y20426   1.628   5.008   4.216 -0.6036  0.9238 -1.5512
  179SLPC  C31020427   1.537   4.932   4.399  0.2150  0.3851  0.4911
  179SLPC  H10X20428   1.628   4.872   4.425 -0.5703 -0.6807  0.8713
  179SLPC  H10Y20429   1.452   4.864   4.423  1.3466 -2.0087 -1.7351
  179SLPC  C31120430   1.535   5.053   4.491 -0.3323  0.1417 -0.1241
  179SLPC  H11X20431   1.438   5.105   4.479  0.1828  0.7806 -1.8878
  179SLPC  H11Y20432   1.614   5.120   4.451 -2.1786  2.1760 -0.5761
  179SLPC  C31220433   1.565   5.034   4.643 -0.6739  0.2779  0.1090
  179SLPC  H12X20434   1.665   4.987   4.654 -1.1369 -1.2994 -1.7201
  179SLPC  H12Y20435   1.491   4.965   4.689  0.6640 -1.0513  0.3596
  179SLPC  C31320436   1.574   5.167   4.718  0.1258  0.1012 -0.6255
  179SLPC  H13X20437   1.612   5.256   4.664 -0.9483  1.2245  0.4047
  179SLPC  H13Y20438   1.634   5.156   4.812 -0.7841 -1.0706 -0.1541
  179SLPC  C31420439   1.429   5.210   4.757  0.3195 -0.3062 -0.0863
  179SLPC  H14X20440   1.381   5.144   4.833  0.1724  0.8628  0.8692
  179SLPC  H14Y20441   1.366   5.219   4.666 -1.7813  0.8771  1.4067
  179SLPC  C31520442   1.423   5.357   4.828  0.2673 -0.5662 -0.3979
  179SLPC  H15X20443   1.483   5.434   4.776 -0.2119 -1.2859 -2.0903
  179SLPC  H15Y20444   1.483   5.349   4.921  2.5955  0.3566 -1.7428
  179SLPC  C31620445   1.282   5.414   4.859 -0.0940  0.0161 -0.4502
  179SLPC  H16X20446   1.241   5.355   4.944 -2.1626  1.4828 -0.3510
  179SLPC  H16Y20447   1.222   5.393   4.768  1.9600  1.2767 -2.1863
  179SLPC  C31720448   1.291   5.559   4.901  0.3254  0.2749  0.6053
  179SLPC  H17X20449   1.301   5.618   4.807  1.2115 -1.4304 -0.4105
  179SLPC  H17Y20450   1.369   5.566   4.979  1.6441  0.6890 -0.7120
  179SLPC  C31820451   1.164   5.593   4.991  0.2093 -0.0268 -0.0870
  179SLPC  H18X20452   1.158   5.703   5.011 -0.8971  0.0089 -0.5834
  179SLPC  H18Y20453   1.183   5.526   5.077  0.0787 -0.3642 -0.3221
  179SLPC  H18Z20454   1.070   5.569   4.939  0.4567 -1.4154  0.0842
  180SLPC     N20455   5.313   4.532   2.866 -0.3701 -0.0362 -0.4444
  180SLPC   C1320456   5.306   4.581   2.724  0.2307  0.5532 -0.4641
  180SLPC  H13A20457   5.321   4.508   2.646 -1.2491 -1.0914  0.7167
  180SLPC  H13B20458   5.214   4.630   2.695 -0.8203 -0.6334  0.7044
  180SLPC  H13C20459   5.386   4.652   2.712  0.0235  0.7903 -0.4776
  180SLPC   C1420460   5.327   4.654   2.962  0.1053  0.1316 -0.8822
  180SLPC  H14A20461   5.362   4.618   3.058 -1.2000  0.4229 -0.2698
  180SLPC  H14B20462   5.401   4.727   2.932 -2.0132  2.9052  0.1951
  180SLPC  H14C20463   5.232   4.702   2.981  0.7905  0.6232  1.8194
  180SLPC   C1520464   5.440   4.456   2.870  0.7330 -0.6121  0.2484
  180SLPC  H15A20465   5.523   4.523   2.853 -0.1445  0.1890 -1.1088
  180SLPC  H15B20466   5.446   4.416   2.970 -0.3092 -0.5566  0.3460
  180SLPC  H15C20467   5.442   4.378   2.796  0.4559 -0.1428 -0.2621
  180SLPC   C1220468   5.207   4.431   2.888  0.0378  0.1658 -0.1316
  180SLPC  H12A20469   5.200   4.356   2.810 -0.1269 -2.3171  2.1114
  180SLPC  H12B20470   5.111   4.479   2.887 -0.3550 -0.6068 -1.4147
  180SLPC   C1120471   5.204   4.353   3.029 -0.0758 -0.1508  0.6855
  180SLPC  H11A20472   5.109   4.297   3.032  0.6574 -1.4420  0.6070
  180SLPC  H11B20473   5.212   4.432   3.107 -2.0529  1.4651 -0.6400
  180SLPC     P20474   5.306   4.117   2.970 -0.5012  0.2900  0.1400
  180SLPC   O1320475   5.203   4.032   3.036 -1.4777 -0.6200 -0.0910
  180SLPC   O1420476   5.298   4.131   2.822  0.0391 -0.5764 -0.6868
  180SLPC   O1220477   5.312   4.258   3.045 -0.3358 -0.1984 -0.4781
  180SLPC   O1120478   5.443   4.048   3.000  0.0667  0.1289  0.7171
  180SLPC    C120479   5.560   4.115   3.041 -0.4021  0.3268  0.3540
  180SLPC    HA20480   5.639   4.087   2.967  0.9271 -0.1372  1.8826
  180SLPC    HB20481   5.557   4.225   3.031 -1.1908  0.3719  1.0330
  180SLPC    C220482   5.603   4.085   3.187 -0.0161  0.5408 -0.2245
  180SLPC    HS20483   5.658   4.174   3.224  0.3323 -0.5658  2.0851
  180SLPC   O2120484   5.671   3.955   3.195  0.4282 -0.0324  0.1024
  180SLPC   C2120485   5.756   3.951   3.295  0.6012  0.0280 -0.2783
  180SLPC   O2220486   5.795   4.047   3.359  0.0357  0.4142  0.2936
  180SLPC   C2220487   5.824   3.816   3.292 -0.8613  0.1484  0.4580
  180SLPC   H2R20488   5.748   3.740   3.264 -1.8327  1.6249 -1.0950
  180SLPC   H2S20489   5.899   3.823   3.210 -0.3238  4.0487  1.0874
  180SLPC    C320490   5.467   4.069   3.263  0.2976  0.7291  0.3439
  180SLPC    HX20491   5.424   3.976   3.222  3.3735 -0.0154 -1.4886
  180SLPC    HY20492   5.405   4.160   3.246  0.0730  0.7368  1.1456
  180SLPC   O3120493   5.492   4.049   3.405  0.6326  0.4837  0.0199
  180SLPC   C3120494   5.509   4.158   3.476  0.2796 -0.6372  0.1135
  180SLPC   O3220495   5.512   4.271   3.428  0.0852  0.0034  0.3470
  180SLPC   C3220496   5.533   4.123   3.618  0.0297 -0.2821 -1.2639
  180SLPC   H2X20497   5.640   4.094   3.626  0.1555  0.6229  1.3570
  180SLPC   H2Y20498   5.469   4.036   3.646 -0.2147  0.4064  0.4824
  180SLPC   C2320499   5.914   3.795   3.415  0.4147  0.0483  0.0441
  180SLPC   H3R20500   5.998   3.867   3.410  0.8355 -0.1348  2.8924
  180SLPC   H3S20501   5.960   3.695   3.404  0.8372  0.2489 -0.0256
  180SLPC   C2420502   5.831   3.806   3.545  0.1685  1.2426  0.3682
  180SLPC   H4R20503   5.738   3.745   3.542  0.6785 -0.0065  4.1463
  180SLPC   H4S20504   5.799   3.912   3.558  0.2248  1.2424  0.5080
  180SLPC   C2520505   5.907   3.772   3.674 -0.9575 -0.1424 -0.1585
  180SLPC   H5R20506   6.011   3.811   3.678 -0.8241 -0.5504  0.5038
  180SLPC   H5S20507   5.924   3.662   3.674 -2.2483 -0.3534 -0.2519
  180SLPC   C2620508   5.832   3.801   3.802  0.2567  0.2328  0.2292
  180SLPC   H6R20509   5.722   3.792   3.798  0.3667 -1.0147 -1.2358
  180SLPC   H6S20510   5.855   3.905   3.832  1.0391  0.1858 -0.1617
  180SLPC   C2720511   5.874   3.694   3.905 -0.4312  0.4119  0.1229
  180SLPC   H7R20512   5.980   3.713   3.929 -0.5163  0.4059  0.5040
  180SLPC   H7S20513   5.866   3.599   3.849 -0.4366 -0.2594  1.2418
  180SLPC   C2820514   5.793   3.693   4.031  0.2834  0.0776 -0.5001
  180SLPC   H8R20515   5.697   3.639   4.016  1.5830 -2.0247 -1.9293
  180SLPC   H8S20516   5.774   3.800   4.050  0.7519 -0.1154  1.2157
  180SLPC   C2920517   5.867   3.634   4.148  0.5504 -0.1978 -0.8423
  180SLPC   H9R20518   5.947   3.561   4.129 -0.6076 -2.0581  1.0384
  180SLPC  C21020519   5.862   3.681   4.276 -0.0366  0.4618  0.0625
  180SLPC  H10R20520   5.912   3.627   4.358 -0.8567 -1.0963 -0.4057
  180SLPC  C21120521   5.747   3.762   4.323  0.4640 -0.9186  0.0295
  180SLPC  H11R20522   5.676   3.785   4.242 -0.6815  0.0149  1.2522
  180SLPC  H11S20523   5.784   3.859   4.363 -0.6784 -0.5601  0.2663
  180SLPC  C21220524   5.682   3.686   4.442 -0.6598 -0.2170 -0.2101
  180SLPC  H12R20525   5.602   3.618   4.409 -0.6394  0.2393 -1.2454
  180SLPC  C21320526   5.690   3.728   4.573  0.2761  0.8938 -0.1380
  180SLPC  H13R20527   5.625   3.680   4.647  1.0440 -0.2934 -0.2009
  180SLPC  C21420528   5.774   3.835   4.639  0.5739  0.3879 -0.1688
  180SLPC  H14R20529   5.705   3.888   4.709  1.5546  0.1098  1.0511
  180SLPC  H14S20530   5.823   3.900   4.564 -0.8163  0.2583 -1.2460
  180SLPC  C21520531   5.873   3.759   4.726  0.2638  0.3956  0.2503
  180SLPC  H15R20532   5.815   3.693   4.794 -2.0631  3.3598  1.3625
  180SLPC  H15S20533   5.929   3.828   4.791 -0.2467  1.1029 -0.0465
  180SLPC  C21620534   5.981   3.669   4.665 -0.0798 -0.2460  0.5787
  180SLPC  H16R20535   5.931   3.597   4.597 -0.5254  0.1884  0.4410
  180SLPC  H16S20536   6.032   3.608   4.743  0.8681 -1.6503 -1.0671
  180SLPC  C21720537   6.087   3.742   4.578 -0.4343  0.5604 -0.3599
  180SLPC  H17R20538   6.044   3.777   4.482 -1.4009 -0.3617 -0.2804
  180SLPC  H17S20539   6.168   3.670   4.551  1.4878  3.0579 -1.6496
  180SLPC  C21820540   6.154   3.860   4.650  0.3617 -0.4132 -0.5488
  180SLPC  H18R20541   6.088   3.944   4.681  1.4016 -0.6512  2.7219
  180SLPC  H18S20542   6.234   3.899   4.583 -0.0412  2.1428  0.3375
  180SLPC  H18T20543   6.208   3.825   4.741 -0.3574  0.4882  0.2426
  180SLPC   C3320544   5.507   4.229   3.732 -0.0613 -0.2943  0.0998
  180SLPC   H3X20545   5.401   4.265   3.733  0.2215  0.5711 -0.1855
  180SLPC   H3Y20546   5.570   4.316   3.702  1.4718 -1.9628 -1.7527
  180SLPC   C3420547   5.555   4.180   3.869 -0.1872  0.8351  0.0358
  180SLPC   H4X20548   5.554   4.267   3.938 -2.1537  0.6312  0.3133
  180SLPC   H4Y20549   5.660   4.144   3.860  0.6153  2.9706  0.2536
  180SLPC   C3520550   5.472   4.068   3.926 -0.2281  0.5251 -0.5243
  180SLPC   H5X20551   5.484   3.980   3.859  1.5008 -0.9620  1.5416
  180SLPC   H5Y20552   5.366   4.099   3.924 -0.9137 -1.6092 -0.3192
  180SLPC   C3620553   5.500   4.018   4.069  0.1339  0.0343 -0.3566
  180SLPC   H6X20554   5.600   3.971   4.074  0.5920  1.1010  2.6947
  180SLPC   H6Y20555   5.423   3.942   4.094 -0.1538  0.5441  0.3528
  180SLPC   C3720556   5.475   4.119   4.176 -0.1143  0.3272  0.3947
  180SLPC   H7X20557   5.366   4.141   4.174  0.0042  0.8801 -0.2475
  180SLPC   H7Y20558   5.525   4.213   4.143 -0.5413 -0.1542 -1.7634
  180SLPC   C3820559   5.528   4.079   4.308 -0.1051  0.1788 -0.6415
  180SLPC   H8X20560   5.638   4.064   4.308 -0.1972 -0.5440 -0.1563
  180SLPC   H8Y20561   5.483   3.979   4.325 -0.1222 -0.1665 -2.5328
  180SLPC   C3920562   5.490   4.171   4.424  0.3035  0.3034  0.3161
  180SLPC   H9X20563   5.381   4.187   4.408 -0.1354  0.4505  3.0216
  180SLPC   H9Y20564   5.538   4.270   4.430  0.6647  0.1141  0.5990
  180SLPC  C31020565   5.507   4.097   4.559  0.5468  0.2976  0.1080
  180SLPC  H10X20566   5.617   4.084   4.571  0.2225 -1.9065  1.1850
  180SLPC  H10Y20567   5.466   3.994   4.556  1.8798 -0.2357 -1.4852
  180SLPC  C31120568   5.468   4.189   4.663  0.6146 -0.7992 -0.4896
  180SLPC  H11X20569   5.362   4.214   4.644  0.5423 -0.8939 -0.2158
  180SLPC  H11Y20570   5.537   4.276   4.656 -0.6107  0.0801 -2.5540
  180SLPC  C31220571   5.485   4.113   4.801  0.0041  0.2103 -0.9856
  180SLPC  H12X20572   5.578   4.052   4.799 -0.0351 -0.1761  2.6286
  180SLPC  H12Y20573   5.406   4.035   4.805 -0.2758  0.5042 -0.7035
  180SLPC  C31320574   5.486   4.217   4.920  1.0078 -0.3472  0.4172
  180SLPC  H13X20575   5.552   4.305   4.905 -0.3271  0.9203  1.7229
  180SLPC  H13Y20576   5.515   4.162   5.012  0.7596 -0.4476  0.4387
  180SLPC  C31420577   5.341   4.263   4.947  0.0904  0.2649 -0.7575
  180SLPC  H14X20578   5.282   4.174   4.980 -0.3198  0.3423 -1.2696
  180SLPC  H14Y20579   5.297   4.302   4.853 -1.5370  2.5857  0.8415
  180SLPC  C31520580   5.330   4.381   5.049  0.6575 -0.1941  0.1439
  180SLPC  H15X20581   5.355   4.351   5.153 -1.8627 -1.1399  0.5434
  180SLPC  H15Y20582   5.219   4.378   5.052  0.7022 -1.9555  1.4723
  180SLPC  C31620583   5.379   4.515   5.009  0.2417  0.0602  0.3515
  180SLPC  H16X20584   5.343   4.547   4.909 -1.8447  0.9253  1.3044
  180SLPC  H16Y20585   5.489   4.525   5.009  0.1144  1.9186 -0.9224
  180SLPC  C31720586   5.330   4.611   5.118  0.0980  0.7716  0.6426
  180SLPC  H17X20587   5.369   4.567   5.213  1.9995 -0.5241 -0.6747
  180SLPC  H17Y20588   5.219   4.620   5.125  0.0123  0.1876  0.1225
  180SLPC  C31820589   5.395   4.742   5.106 -0.0024 -0.0621 -0.1963
  180SLPC  H18X20590   5.386   4.791   5.006 -0.0138 -1.0324 -0.6801
  180SLPC  H18Y20591   5.505   4.736   5.116  0.0427 -0.3239 -0.7814
  180SLPC  H18Z20592   5.355   4.808   5.186  0.8720 -0.2415  0.3983
  181SLPC     N20593   3.343   2.382   2.612 -0.8957  0.4749 -0.4953
  181SLPC   C1320594   3.445   2.284   2.560 -0.3547 -0.1870 -0.6615
  181SLPC  H13A20595   3.545   2.296   2.600  0.3173  1.0094 -2.5278
  181SLPC  H13B20596   3.425   2.180   2.579  1.9515 -0.7521 -1.0504
  181SLPC  H13C20597   3.453   2.285   2.452 -1.3158 -0.6806 -0.7457
  181SLPC   C1420598   3.217   2.319   2.563 -0.8604  0.1341 -0.7035
  181SLPC  H14A20599   3.205   2.219   2.601  0.4290  0.1615 -0.1627
  181SLPC  H14B20600   3.132   2.371   2.604  0.1603  0.4188  1.1718
  181SLPC  H14C20601   3.213   2.310   2.456 -1.0356 -0.6581 -0.6344
  181SLPC   C1520602   3.383   2.518   2.557  0.0292  0.1225 -0.7031
  181SLPC  H15A20603   3.394   2.501   2.451  0.0286 -0.5935 -0.5887
  181SLPC  H15B20604   3.304   2.589   2.580 -0.9298 -1.2801  0.5451
  181SLPC  H15C20605   3.473   2.550   2.606  0.7552 -0.8739 -1.3651
  181SLPC   C1220606   3.337   2.383   2.768  0.6987 -0.1200 -0.0853
  181SLPC  H12A20607   3.309   2.285   2.804 -1.5275  0.8480  1.0007
  181SLPC  H12B20608   3.251   2.443   2.794 -0.6631 -2.6594  1.7083
  181SLPC   C1120609   3.467   2.442   2.838  0.3605  0.0736  0.0551
  181SLPC  H11A20610   3.442   2.472   2.942  0.1606 -0.0861  0.0535
  181SLPC  H11B20611   3.500   2.540   2.797 -0.0309  0.8102  1.4327
  181SLPC     P20612   3.606   2.252   2.933 -0.2261 -0.1180  0.0733
  181SLPC   O1320613   3.511   2.142   2.903  0.0192  0.4134  0.0503
  181SLPC   O1420614   3.753   2.218   2.924 -0.5215 -0.3678 -0.0660
  181SLPC   O1220615   3.585   2.370   2.830  0.0476 -0.2202  0.6189
  181SLPC   O1120616   3.577   2.317   3.066  0.3702  0.0999 -0.5139
  181SLPC    C120617   3.675   2.404   3.123 -0.6249 -0.0226  0.3585
  181SLPC    HA20618   3.765   2.346   3.152 -1.0098 -1.0118 -0.3656
  181SLPC    HB20619   3.697   2.476   3.042  0.2140 -1.8548 -1.1185
  181SLPC    C220620   3.615   2.472   3.249  0.6855  0.2860  0.0406
  181SLPC    HS20621   3.696   2.532   3.296 -0.4293  1.4421  0.5436
  181SLPC   O2120622   3.570   2.379   3.349 -0.2254 -0.4847  0.3298
  181SLPC   C2120623   3.659   2.314   3.418  0.4317 -0.2030 -0.1604
  181SLPC   O2220624   3.780   2.324   3.406 -0.3731 -0.0314  0.1506
  181SLPC   C2220625   3.583   2.251   3.536 -0.0526 -0.1447  0.1370
  181SLPC   H2R20626   3.510   2.176   3.497  1.4417 -0.9415 -1.2896
  181SLPC   H2S20627   3.659   2.192   3.591  1.0821 -0.1803 -1.4120
  181SLPC    C320628   3.491   2.565   3.218 -0.1562 -0.2564  0.1494
  181SLPC    HX20629   3.408   2.498   3.187 -1.8716  1.1579  1.4633
  181SLPC    HY20630   3.520   2.610   3.121  3.4431 -0.3442  1.0330
  181SLPC   O3120631   3.458   2.668   3.318 -0.3255  0.4399  0.2812
  181SLPC   C3120632   3.343   2.637   3.387 -0.0778 -0.4831  0.3595
  181SLPC   O3220633   3.271   2.544   3.359  0.0942  0.3815 -0.3219
  181SLPC   C3220634   3.331   2.746   3.498 -0.0309 -0.4413 -0.0965
  181SLPC   H2X20635   3.245   2.809   3.468 -0.6413 -0.4802  1.4751
  181SLPC   H2Y20636   3.421   2.811   3.505  0.1386 -0.3829 -2.1334
  181SLPC   C2320637   3.509   2.352   3.623  0.2542  0.7141  1.1560
  181SLPC   H3R20638   3.404   2.363   3.590  0.4588 -0.3147  0.0438
  181SLPC   H3S20639   3.559   2.450   3.610  0.2777  0.4925 -0.8578
  181SLPC   C2420640   3.481   2.310   3.768 -0.1884  0.1626  0.7976
  181SLPC   H4R20641   3.568   2.306   3.838  0.2477  1.9519  0.4151
  181SLPC   H4S20642   3.452   2.203   3.769  2.0866 -0.5229  0.1307
  181SLPC   C2520643   3.373   2.400   3.841 -0.6840 -0.1350  0.1206
  181SLPC   H5R20644   3.289   2.396   3.769 -0.4896 -1.5516 -0.0556
  181SLPC   H5S20645   3.414   2.503   3.853 -2.7268  0.6327  1.0073
  181SLPC   C2620646   3.355   2.331   3.977 -0.1979 -0.1906 -0.5435
  181SLPC   H6R20647   3.456   2.326   4.023 -0.2359 -2.5958 -0.6064
  181SLPC   H6S20648   3.318   2.226   3.972 -0.0221 -0.3192  0.6613
  181SLPC   C2720649   3.257   2.405   4.071 -0.6928 -0.0408  0.2126
  181SLPC   H7R20650   3.169   2.398   4.004 -0.3122 -0.2237 -0.2765
  181SLPC   H7S20651   3.284   2.512   4.078  1.5945 -0.4539 -1.3163
  181SLPC   C2820652   3.235   2.336   4.207 -0.3001  1.1218 -0.1208
  181SLPC   H8R20653   3.220   2.227   4.190  1.2320  1.0492 -1.2418
  181SLPC   H8S20654   3.135   2.357   4.251 -0.2603 -0.9425  1.1004
  181SLPC   C2920655   3.354   2.368   4.299  0.3697 -0.3575  1.0547
  181SLPC   H9R20656   3.432   2.422   4.242 -1.0860 -0.6865 -1.3552
  181SLPC  C21020657   3.365   2.339   4.426 -0.8439  0.6883 -0.5269
  181SLPC  H10R20658   3.461   2.353   4.478 -1.6685  2.4354  0.6133
  181SLPC  C21120659   3.264   2.268   4.516 -0.9597 -0.0238 -0.0557
  181SLPC  H11R20660   3.158   2.293   4.492 -1.2308 -1.0992 -0.0361
  181SLPC  H11S20661   3.271   2.283   4.626 -0.3728  1.6780 -0.2944
  181SLPC  C21220662   3.279   2.121   4.507  0.2044 -0.6099 -0.1555
  181SLPC  H12R20663   3.299   2.087   4.404  4.2476 -0.7801  0.4956
  181SLPC  C21320664   3.263   2.032   4.601 -0.0853 -0.4985 -0.4659
  181SLPC  H13R20665   3.290   1.928   4.576  0.9949 -0.2462 -0.4323
  181SLPC  C21420666   3.230   2.056   4.747  0.7547  1.1788 -0.0007
  181SLPC  H14R20667   3.119   2.058   4.756  0.5827 -3.7643  3.6737
  181SLPC  H14S20668   3.284   2.143   4.790  1.8602  1.0202 -1.0361
  181SLPC  C21520669   3.275   1.936   4.841 -0.1963  0.5683 -0.2719
  181SLPC  H15R20670   3.233   1.836   4.815  1.5713 -0.5120  0.8487
  181SLPC  H15S20671   3.222   1.960   4.936 -0.8766  1.6190 -0.8860
  181SLPC  C21620672   3.426   1.916   4.847  0.3862 -0.1986  0.4446
  181SLPC  H16R20673   3.472   1.983   4.922  1.2789 -0.1958 -0.0869
  181SLPC  H16S20674   3.481   1.944   4.754  1.2668 -0.4030  0.8927
  181SLPC  C21720675   3.474   1.775   4.865  0.7834  0.3761  0.5605
  181SLPC  H17R20676   3.584   1.774   4.883  0.6563  0.8918  1.4695
  181SLPC  H17S20677   3.449   1.718   4.774 -4.3160 -0.2437  2.0558
  181SLPC  C21820678   3.405   1.685   4.972 -0.6069  0.4667  0.5059
  181SLPC  H18R20679   3.403   1.741   5.068 -2.5712 -1.4105  1.6594
  181SLPC  H18S20680   3.465   1.593   4.985 -1.7759 -0.3329  0.4383
  181SLPC  H18T20681   3.298   1.666   4.949 -0.8666  1.2370  1.0380
  181SLPC   C3320682   3.279   2.706   3.641  0.1334 -0.6708 -0.2428
  181SLPC   H3X20683   3.363   2.642   3.675  1.0254  1.2634  1.3567
  181SLPC   H3Y20684   3.177   2.663   3.629 -1.3390  2.5050 -0.1349
  181SLPC   C3420685   3.264   2.819   3.737 -0.0715 -0.6055 -0.3891
  181SLPC   H4X20686   3.168   2.866   3.709 -0.8886 -1.4121  0.9732
  181SLPC   H4Y20687   3.347   2.892   3.726  0.3873 -1.1328 -0.4576
  181SLPC   C3520688   3.241   2.770   3.877  0.8326  0.1517  0.0457
  181SLPC   H5X20689   3.329   2.709   3.905  1.9788  0.9892 -1.6241
  181SLPC   H5Y20690   3.155   2.699   3.877  2.3126 -1.7316  0.1958
  181SLPC   C3620691   3.230   2.880   3.989  0.9860 -0.4790 -0.2411
  181SLPC   H6X20692   3.188   2.971   3.940  0.5968  0.1010  1.1188
  181SLPC   H6Y20693   3.331   2.900   4.030  0.4609 -0.8992  1.3154
  181SLPC   C3720694   3.161   2.831   4.122 -0.1337  0.4939  0.1318
  181SLPC   H7X20695   3.217   2.738   4.145 -0.5816  0.2833  0.3873
  181SLPC   H7Y20696   3.053   2.817   4.104 -0.1652 -0.0668  0.7300
  181SLPC   C3820697   3.185   2.926   4.241  0.5265 -0.8024  0.1544
  181SLPC   H8X20698   3.124   3.018   4.226 -0.1334 -1.1344  0.7249
  181SLPC   H8Y20699   3.291   2.956   4.254  1.0186 -1.3204 -2.1637
  181SLPC   C3920700   3.153   2.870   4.385 -0.0962 -0.2151  0.5425
  181SLPC   H9X20701   3.054   2.821   4.375  0.0199 -0.6865  1.6283
  181SLPC   H9Y20702   3.136   2.958   4.451  0.1837 -0.6778  1.2371
  181SLPC  C31020703   3.269   2.775   4.429  0.2164  0.6099  0.0714
  181SLPC  H10X20704   3.340   2.848   4.473  0.2762  0.7161 -0.1977
  181SLPC  H10Y20705   3.318   2.723   4.344  0.4634  0.3842  0.3511
  181SLPC  C31120706   3.230   2.679   4.545  0.4732 -0.0611 -0.6337
  181SLPC  H11X20707   3.322   2.651   4.601 -0.6120 -1.8221  0.3478
  181SLPC  H11Y20708   3.189   2.589   4.494  0.9193 -1.2475  1.0296
  181SLPC  C31220709   3.126   2.730   4.653  0.4148 -0.2297  0.7485
  181SLPC  H12X20710   3.030   2.761   4.606  1.7964  0.9125 -1.5157
  181SLPC  H12Y20711   3.184   2.811   4.703  1.5799  0.8308 -2.0539
  181SLPC  C31320712   3.075   2.622   4.746 -0.3839 -0.2156  0.5123
  181SLPC  H13X20713   3.040   2.535   4.686  0.4724 -0.0485 -0.2559
  181SLPC  H13Y20714   2.986   2.660   4.799  1.1233  2.5142  1.2605
  181SLPC  C31420715   3.183   2.565   4.837  0.3950  1.0622 -0.3631
  181SLPC  H14X20716   3.249   2.642   4.883 -1.0117  2.2281 -0.2385
  181SLPC  H14Y20717   3.241   2.501   4.768 -1.2599 -1.3388  0.3097
  181SLPC  C31520718   3.114   2.481   4.944 -0.0601  0.4891  0.9606
  181SLPC  H15X20719   3.038   2.431   4.881 -0.0816  0.8535  0.6978
  181SLPC  H15Y20720   3.074   2.542   5.028 -0.0254  1.7319  0.0822
  181SLPC  C31620721   3.209   2.373   4.997  0.2695  1.0755  0.1679
  181SLPC  H16X20722   3.291   2.418   5.057  0.8487  2.1484 -1.3648
  181SLPC  H16Y20723   3.252   2.311   4.916  1.9631  0.6495  1.3535
  181SLPC  C31720724   3.143   2.279   5.095  0.5888 -0.0974  0.1018
  181SLPC  H17X20725   3.096   2.348   5.169  1.2236 -0.2942  0.7067
  181SLPC  H17Y20726   3.220   2.215   5.144  1.1819  0.5794  0.0715
  181SLPC  C31820727   3.032   2.199   5.034  0.2748 -0.1316  0.0555
  181SLPC  H18X20728   2.986   2.135   5.112  1.4789 -1.9381 -0.6588
  181SLPC  H18Y20729   3.079   2.131   4.960 -0.4256  0.6489 -1.1638
  181SLPC  H18Z20730   2.957   2.265   4.985  0.8575  0.7341  0.3110
  182SLPC     N20731   2.356   1.028   2.773  0.7478 -0.6444 -0.2685
  182SLPC   C1320732   2.413   0.944   2.883 -0.4001  0.1879  0.2444
  182SLPC  H13A20733   2.349   0.863   2.915  0.6678 -0.5949  0.4241
  182SLPC  H13B20734   2.502   0.893   2.850 -1.1990 -0.3475 -1.1513
  182SLPC  H13C20735   2.438   1.011   2.964 -2.3506  0.0905  0.9837
  182SLPC   C1420736   2.252   1.123   2.821  0.1723  0.6721  0.0555
  182SLPC  H14A20737   2.274   1.180   2.910  1.5626 -0.5607  0.5475
  182SLPC  H14B20738   2.247   1.192   2.738  0.5226  0.2181 -0.3510
  182SLPC  H14C20739   2.156   1.072   2.827  1.0449 -0.9737  0.8902
  182SLPC   C1520740   2.294   0.930   2.678 -0.3688 -0.1536 -0.1023
  182SLPC  H15A20741   2.368   0.858   2.647  0.3438  1.2966 -2.0303
  182SLPC  H15B20742   2.216   0.875   2.728 -2.4387  0.4398 -2.4868
  182SLPC  H15C20743   2.253   0.976   2.589 -2.5660 -1.5184  0.1322
  182SLPC   C1220744   2.472   1.108   2.703 -0.3461 -0.5156  0.4089
  182SLPC  H12A20745   2.557   1.045   2.683 -1.1207 -1.1767 -0.9450
  182SLPC  H12B20746   2.493   1.185   2.776 -0.4119 -0.8537  0.7913
  182SLPC   C1120747   2.456   1.179   2.568  0.7416 -0.2783  0.0090
  182SLPC  H11A20748   2.411   1.112   2.493 -0.1191  2.0558 -1.6930
  182SLPC  H11B20749   2.554   1.212   2.528  1.2587 -1.6926  0.0542
  182SLPC     P20750   2.407   1.429   2.637  0.4268  0.2665 -0.6548
  182SLPC   O1320751   2.502   1.486   2.535 -0.4465  0.3975 -0.3875
  182SLPC   O1420752   2.291   1.508   2.668  0.0852  0.5987  0.7031
  182SLPC   O1220753   2.357   1.284   2.591 -0.6062 -0.4081 -0.0381
  182SLPC   O1120754   2.489   1.409   2.772  0.3238 -0.3592  0.6096
  182SLPC    C120755   2.582   1.512   2.820 -0.2499  0.8244  1.2484
  182SLPC    HA20756   2.654   1.543   2.741  2.0415 -0.2765  2.7822
  182SLPC    HB20757   2.530   1.601   2.862 -1.4944  1.6540 -1.8031
  182SLPC    C220758   2.664   1.453   2.928  0.2747  0.6202  0.7613
  182SLPC    HS20759   2.722   1.368   2.886 -0.0745  0.5494  0.4208
  182SLPC   O2120760   2.567   1.422   3.030 -0.3032  0.2680  0.5876
  182SLPC   C2120761   2.571   1.302   3.080 -0.2258 -0.2081  0.0042
  182SLPC   O2220762   2.614   1.203   3.026  0.0309 -0.0089 -0.1966
  182SLPC   C2220763   2.515   1.302   3.224  0.3638  0.1044 -0.7365
  182SLPC   H2R20764   2.410   1.335   3.212  0.8643  1.3722 -1.9413
  182SLPC   H2S20765   2.520   1.200   3.268 -0.1300  0.1047 -0.6731
  182SLPC    C320766   2.760   1.553   2.981 -0.1495  0.9241 -0.5385
  182SLPC    HX20767   2.689   1.631   3.014 -2.2144 -1.0597 -0.0381
  182SLPC    HY20768   2.823   1.602   2.904 -1.6963 -0.2163 -2.6384
  182SLPC   O3120769   2.835   1.498   3.093  0.1681  0.6598 -0.4541
  182SLPC   C3120770   2.884   1.584   3.181  0.0194  0.3813 -0.3230
  182SLPC   O3220771   2.871   1.705   3.177 -0.2506 -0.3157  0.2278
  182SLPC   C3220772   2.957   1.503   3.292 -0.1095 -0.5572 -0.0630
  182SLPC   H2X20773   3.055   1.467   3.254  0.9000  4.6980 -3.4300
  182SLPC   H2Y20774   2.892   1.418   3.323  0.9512 -1.3077  0.1626
  182SLPC   C2320775   2.578   1.414   3.322 -0.3752 -0.1532  0.3733
  182SLPC   H3R20776   2.603   1.506   3.264 -0.4391  0.4511  1.2686
  182SLPC   H3S20777   2.670   1.375   3.371  0.5230 -1.1118 -1.9450
  182SLPC   C2420778   2.482   1.461   3.427 -0.5041  0.3608 -0.0177
  182SLPC   H4R20779   2.473   1.373   3.495 -1.2732 -0.5625 -1.2603
  182SLPC   H4S20780   2.390   1.492   3.373 -0.1237  1.8835  0.1813
  182SLPC   C2520781   2.529   1.587   3.504 -0.4937  0.1916  0.0464
  182SLPC   H5R20782   2.445   1.634   3.559 -1.1472  0.8251 -1.4142
  182SLPC   H5S20783   2.577   1.651   3.426  1.7778 -2.5771 -1.0049
  182SLPC   C2620784   2.626   1.539   3.614  0.3960 -0.3333  0.3671
  182SLPC   H6R20785   2.715   1.492   3.567 -0.9185 -0.1169 -2.5616
  182SLPC   H6S20786   2.575   1.454   3.663  0.9534  0.5325  2.5861
  182SLPC   C2720787   2.668   1.635   3.718  0.5929 -0.3072  0.0317
  182SLPC   H7R20788   2.594   1.712   3.750 -0.0109 -0.9357  0.1619
  182SLPC   H7S20789   2.758   1.682   3.674 -0.2274  1.2085 -0.1170
  182SLPC   C2820790   2.719   1.557   3.839  0.2107 -0.0565  0.3149
  182SLPC   H8R20791   2.820   1.516   3.815  0.5715  1.5148 -1.0948
  182SLPC   H8S20792   2.655   1.468   3.856 -0.9646  0.9002  1.0533
  182SLPC   C2920793   2.740   1.653   3.952  0.0782 -0.8047 -0.1559
  182SLPC   H9R20794   2.831   1.714   3.954  1.1069 -2.1492 -2.6417
  182SLPC  C21020795   2.673   1.644   4.066  0.1028 -0.0284 -0.0097
  182SLPC  H10R20796   2.691   1.709   4.153 -2.4849 -0.3552  0.8544
  182SLPC  C21120797   2.553   1.548   4.086 -0.0052  0.6546 -0.4462
  182SLPC  H11R20798   2.530   1.485   3.997  1.0913 -1.7766  0.9150
  182SLPC  H11S20799   2.468   1.609   4.123 -1.5638 -1.4275 -0.4346
  182SLPC  C21220800   2.587   1.448   4.200  0.0386  0.7798  1.5493
  182SLPC  H12R20801   2.644   1.360   4.169  1.6740  1.1533  3.2980
  182SLPC  C21320802   2.566   1.460   4.330  0.3049 -0.4385  0.4306
  182SLPC  H13R20803   2.591   1.373   4.392 -1.1833  0.2047  2.0338
  182SLPC  C21420804   2.479   1.564   4.398 -0.8148  0.2342 -0.1816
  182SLPC  H14R20805   2.447   1.508   4.488  1.0038  2.0240  1.6590
  182SLPC  H14S20806   2.397   1.592   4.327 -0.1261 -0.0678 -1.1210
  182SLPC  C21520807   2.553   1.687   4.436  0.2167  0.4112 -0.1919
  182SLPC  H15R20808   2.485   1.759   4.488  0.6723 -0.5845  1.8797
  182SLPC  H15S20809   2.594   1.736   4.345 -1.6335 -1.7634 -2.3492
  182SLPC  C21620810   2.662   1.647   4.536  0.0795 -0.5276 -0.2064
  182SLPC  H16R20811   2.724   1.559   4.507  0.5902 -0.3215  0.2447
  182SLPC  H16S20812   2.607   1.611   4.626  2.7068 -1.6623  1.0593
  182SLPC  C21720813   2.755   1.762   4.576  0.3299  0.3715  0.0939
  182SLPC  H17R20814   2.690   1.844   4.610 -0.8886 -1.0229  1.2707
  182SLPC  H17S20815   2.827   1.795   4.498 -0.2748  0.1667 -0.5521
  182SLPC  C21820816   2.835   1.720   4.697  0.1329  0.0329 -0.6615
  182SLPC  H18R20817   2.782   1.643   4.758  0.9928  0.5833  0.8173
  182SLPC  H18S20818   2.848   1.808   4.763  2.9368 -2.1163  1.9154
  182SLPC  H18T20819   2.940   1.687   4.683 -0.2515 -1.5795 -0.0162
  182SLPC   C3320820   2.997   1.593   3.409  0.5258  0.5996 -0.0701
  182SLPC   H3X20821   2.921   1.665   3.448 -1.0544 -1.0888  0.1363
  182SLPC   H3Y20822   3.083   1.660   3.387  1.3955  0.3594  2.2784
  182SLPC   C3420823   3.042   1.498   3.526  0.1711  0.2935  0.0977
  182SLPC   H4X20824   3.112   1.414   3.503  0.9414  0.6284  1.1475
  182SLPC   H4Y20825   2.949   1.442   3.549  0.8953 -1.1178 -0.3100
  182SLPC   C3520826   3.102   1.556   3.648  0.1385  0.4624  0.4893
  182SLPC   H5X20827   3.045   1.647   3.673 -1.6311 -0.2635 -0.6755
  182SLPC   H5Y20828   3.207   1.587   3.630  0.1391 -0.1042 -0.5757
  182SLPC   C3620829   3.100   1.455   3.759  0.5285 -0.5745 -0.1443
  182SLPC   H6X20830   3.141   1.356   3.730  1.0021 -0.7694  1.1404
  182SLPC   H6Y20831   3.001   1.426   3.801 -0.0221  1.4821  0.0912
  182SLPC   C3720832   3.187   1.509   3.874  0.1789  0.2214  0.3217
  182SLPC   H7X20833   3.261   1.585   3.841 -1.0792  0.8685 -1.1582
  182SLPC   H7Y20834   3.248   1.422   3.905  0.6826  0.4579  0.0010
  182SLPC   C3820835   3.100   1.542   3.998  0.1504 -0.2224  0.1167
  182SLPC   H8X20836   3.037   1.451   4.007  1.4602 -1.2718 -0.8593
  182SLPC   H8Y20837   3.035   1.630   3.979  2.2431  1.0461 -1.6032
  182SLPC   C3920838   3.173   1.578   4.125  0.6539  0.8865  0.2553
  182SLPC   H9X20839   3.213   1.681   4.122 -0.5248  1.3864  0.9783
  182SLPC   H9Y20840   3.251   1.502   4.147 -0.3844 -0.0555  0.8014
  182SLPC  C31020841   3.080   1.598   4.249  0.0273  0.3113  0.5014
  182SLPC  H10X20842   3.031   1.502   4.275 -0.4635  0.1596 -0.9062
  182SLPC  H10Y20843   3.002   1.672   4.221  0.3329  0.8308  0.9863
  182SLPC  C31120844   3.145   1.644   4.378  0.5393  0.0100  0.1950
  182SLPC  H11X20845   3.065   1.692   4.439  0.8255 -0.1031  0.6599
  182SLPC  H11Y20846   3.216   1.727   4.359 -1.1760  1.2937 -0.8900
  182SLPC  C31220847   3.211   1.532   4.461  0.5972 -0.7957  0.3588
  182SLPC  H12X20848   3.319   1.521   4.437  1.1456 -0.9720  2.6465
  182SLPC  H12Y20849   3.168   1.431   4.447 -0.0566 -0.6070  0.9402
  182SLPC  C31320850   3.205   1.575   4.614 -0.0996 -0.0789  0.6040
  182SLPC  H13X20851   3.096   1.584   4.631 -0.8046  2.6849 -3.7499
  182SLPC  H13Y20852   3.258   1.671   4.626 -0.9361  0.4867 -0.0958
  182SLPC  C31420853   3.257   1.456   4.700  0.6569 -0.1176  0.0562
  182SLPC  H14X20854   3.198   1.366   4.675  1.8101 -0.6040 -0.9983
  182SLPC  H14Y20855   3.231   1.489   4.803  0.9602 -0.8262  0.3654
  182SLPC  C31520856   3.406   1.431   4.702 -0.5466  0.2792 -0.0037
  182SLPC  H15X20857   3.470   1.522   4.695 -0.0530  0.1744  2.3126
  182SLPC  H15Y20858   3.430   1.365   4.617  0.8060  0.5050  0.1913
  182SLPC  C31620859   3.443   1.341   4.827  0.0094 -0.3309 -0.0218
  182SLPC  H16X20860   3.384   1.248   4.827 -2.9646  1.4261  0.5731
  182SLPC  H16Y20861   3.422   1.402   4.918 -0.4294  1.1782 -1.0824
  182SLPC  C31720862   3.590   1.309   4.824  0.5419  0.0974 -0.7508
  182SLPC  H17X20863   3.636   1.409   4.808  0.1432  0.5094  0.5541
  182SLPC  H17Y20864   3.614   1.244   4.737  0.0304 -2.9453  1.2593
  182SLPC  C31820865   3.643   1.235   4.941 -0.2601 -0.2527 -0.4137
  182SLPC  H18X20866   3.584   1.148   4.976 -0.3858 -0.2433 -0.6028
  182SLPC  H18Y20867   3.636   1.313   5.020  1.4627  0.6194 -1.0682
  182SLPC  H18Z20868   3.752   1.216   4.936 -0.1014 -0.5556  2.3543
  183SLPC     N20869   6.690   5.448   2.486  0.5895  0.1140 -0.2614
  183SLPC   C1320870   6.548   5.415   2.473 -0.0531 -0.0403 -0.4796
  183SLPC  H13A20871   6.476   5.481   2.519  0.1108 -1.0223  1.2847
  183SLPC  H13B20872   6.529   5.387   2.371  1.5269  0.9786 -1.0816
  183SLPC  H13C20873   6.522   5.324   2.526 -0.4441  0.3025 -0.0648
  183SLPC   C1420874   6.710   5.573   2.405 -0.0323  0.6861 -0.0186
  183SLPC  H14A20875   6.811   5.613   2.406  0.1421  0.2424  0.6042
  183SLPC  H14B20876   6.667   5.564   2.306 -0.8460 -0.4194  0.4164
  183SLPC  H14C20877   6.662   5.655   2.456 -1.3894 -0.3652  0.4572
  183SLPC   C1520878   6.779   5.353   2.405  0.0066 -0.7142 -0.2391
  183SLPC  H15A20879   6.877   5.354   2.451  0.8608  0.7684 -1.9535
  183SLPC  H15B20880   6.741   5.255   2.429  1.9400 -1.8465 -1.5293
  183SLPC  H15C20881   6.771   5.378   2.300 -0.6128  1.8200  0.3368
  183SLPC   C1220882   6.730   5.473   2.631  0.6347 -0.1426 -0.8075
  183SLPC  H12A20883   6.712   5.379   2.683  0.8634  0.0346 -0.4046
  183SLPC  H12B20884   6.664   5.544   2.680  0.7986  0.8439 -1.9820
  183SLPC   C1120885   6.874   5.516   2.671  0.8829 -0.3577  0.7563
  183SLPC  H11A20886   6.879   5.538   2.779  2.0545  1.6098  0.3428
  183SLPC  H11B20887   6.890   5.615   2.623 -1.6067  0.3941  1.3508
  183SLPC     P20888   6.981   5.287   2.712  0.1132  0.2025 -0.0354
  183SLPC   O1320889   6.893   5.191   2.639 -0.0849 -0.5178 -0.0301
  183SLPC   O1420890   7.124   5.248   2.730 -0.0354  0.6628  0.4915
  183SLPC   O1220891   6.977   5.425   2.639  0.6658 -0.1810  0.0682
  183SLPC   O1120892   6.902   5.307   2.852 -0.2554  0.1344  0.5582
  183SLPC    C120893   6.974   5.304   2.972 -0.7846 -0.1938 -0.6617
  183SLPC    HA20894   7.075   5.351   2.976  0.3693 -2.5323 -0.7258
  183SLPC    HB20895   6.921   5.351   3.058  1.6432 -1.9120  1.9499
  183SLPC    C220896   7.002   5.154   3.025  0.3850 -0.1646 -0.0851
  183SLPC    HS20897   7.044   5.100   2.937  0.4506 -1.8087  0.9044
  183SLPC   O2120898   6.872   5.117   3.066 -0.7547  0.1813 -0.1573
  183SLPC   C2120899   6.818   5.023   2.995 -0.4119 -0.3466  0.3519
  183SLPC   O2220900   6.846   4.984   2.883  0.4927  0.2231 -0.0648
  183SLPC   C2220901   6.702   4.973   3.072 -0.3104  0.4452 -0.5006
  183SLPC   H2R20902   6.648   5.056   3.121  0.0329  1.0759 -1.1696
  183SLPC   H2S20903   6.639   4.914   3.002 -0.6151 -1.1792  1.0854
  183SLPC    C320904   7.101   5.141   3.142 -0.7022 -0.0162 -0.1422
  183SLPC    HX20905   7.206   5.141   3.105 -0.3771  0.6341  0.7402
  183SLPC    HY20906   7.093   5.037   3.181  0.4165 -1.1030 -2.5861
  183SLPC   O3120907   7.085   5.245   3.244  0.1103 -0.6658  0.0374
  183SLPC   C3120908   7.091   5.198   3.375  0.5078 -1.1239 -0.2226
  183SLPC   O3220909   7.109   5.083   3.406  0.2072 -0.7092  0.2611
  183SLPC   C3220910   7.054   5.315   3.472  0.0604  0.0311  0.4371
  183SLPC   H2X20911   6.954   5.357   3.449 -0.5781 -1.0123  1.1985
  183SLPC   H2Y20912   7.139   5.386   3.463  0.3174 -0.2734  0.4437
  183SLPC   C2320913   6.741   4.889   3.195  0.2792  0.7828 -0.0371
  183SLPC   H3R20914   6.834   4.829   3.195 -1.3427 -1.8800  1.0614
  183SLPC   H3S20915   6.659   4.814   3.200  1.9224 -1.0858  0.0242
  183SLPC   C2420916   6.730   4.969   3.324  0.2109 -0.3856 -0.9219
  183SLPC   H4R20917   6.626   4.979   3.360 -0.0523 -0.5792 -1.6040
  183SLPC   H4S20918   6.780   5.065   3.298 -1.5342  0.2716 -2.0039
  183SLPC   C2520919   6.812   4.907   3.438 -0.5175  0.0379 -0.5615
  183SLPC   H5R20920   6.920   4.922   3.415 -0.3998 -0.2070 -0.1786
  183SLPC   H5S20921   6.812   4.797   3.448  1.0115  0.0979  0.5803
  183SLPC   C2620922   6.775   4.967   3.573  0.5926 -0.3039 -0.4963
  183SLPC   H6R20923   6.680   4.920   3.604  0.1844  0.4215 -0.6142
  183SLPC   H6S20924   6.762   5.078   3.572  2.9684  0.0604  1.2651
  183SLPC   C2720925   6.894   4.949   3.673  0.6389  0.2708 -0.6601
  183SLPC   H7R20926   6.988   4.974   3.619  1.3780  0.6993  0.7635
  183SLPC   H7S20927   6.911   4.842   3.698 -0.2905  0.6313  1.7204
  183SLPC   C2820928   6.868   5.024   3.801 -0.1303 -0.1676 -0.6010
  183SLPC   H8R20929   6.794   4.970   3.864 -0.7738  1.7141  0.3152
  183SLPC   H8S20930   6.825   5.124   3.780 -0.9211 -0.6824 -1.5402
  183SLPC   C2920931   6.986   5.016   3.885 -0.2669 -0.1684  0.7027
  183SLPC   H9R20932   7.073   4.976   3.831 -0.0159  0.1542  0.8662
  183SLPC  C21020933   6.998   5.056   4.010  0.1429 -0.3092 -0.2109
  183SLPC  H10R20934   7.093   5.051   4.067  0.3422  0.5919 -0.4505
  183SLPC  C21120935   6.888   5.104   4.093 -0.2554 -0.3111  0.1011
  183SLPC  H11R20936   6.794   5.099   4.035  0.1300  2.2066 -0.8658
  183SLPC  H11S20937   6.904   5.212   4.114 -2.5225  0.1243 -0.2170
  183SLPC  C21220938   6.870   5.034   4.223  0.1632  0.6314 -0.1916
  183SLPC  H12R20939   6.780   4.971   4.225  1.7612 -1.7697  0.4355
  183SLPC  C21320940   6.947   5.054   4.333  0.0957  0.5202  0.1412
  183SLPC  H13R20941   6.915   5.006   4.427  0.3104  0.6311  0.2717
  183SLPC  C21420942   7.078   5.127   4.348  0.8445 -0.3520 -0.0153
  183SLPC  H14R20943   7.077   5.215   4.416  0.6880 -0.9067  0.7131
  183SLPC  H14S20944   7.119   5.156   4.249 -0.3306 -0.4046 -0.5347
  183SLPC  C21520945   7.191   5.034   4.417 -0.2697 -0.1739 -0.7645
  183SLPC  H15R20946   7.286   5.090   4.401 -0.8639  0.6542 -1.5192
  183SLPC  H15S20947   7.203   4.933   4.372 -0.0089  0.1967 -1.5589
  183SLPC  C21620948   7.177   5.006   4.565 -0.6075  0.8695  0.2851
  183SLPC  H16R20949   7.257   4.932   4.586 -1.0206  0.6468  1.1134
  183SLPC  H16S20950   7.080   4.952   4.568 -0.2912  0.1911 -0.8044
  183SLPC  C21720951   7.172   5.121   4.667  0.5364  0.0441  0.3915
  183SLPC  H17R20952   7.168   5.075   4.768  1.4436  0.7509  0.7646
  183SLPC  H17S20953   7.085   5.190   4.673 -0.0561 -0.5991 -0.4802
  183SLPC  C21820954   7.289   5.219   4.652  0.5087 -0.7532 -0.1814
  183SLPC  H18R20955   7.385   5.162   4.643  0.8154 -0.7774  2.6075
  183SLPC  H18S20956   7.300   5.274   4.747 -1.3774 -1.4622  0.4937
  183SLPC  H18T20957   7.263   5.283   4.564 -4.9062 -0.5142  1.2359
  183SLPC   C3320958   7.070   5.281   3.624  0.0008 -0.1067  0.0121
  183SLPC   H3X20959   7.153   5.210   3.645 -1.1780 -1.8583 -0.9092
  183SLPC   H3Y20960   6.985   5.218   3.658  0.9586 -0.6610  1.4791
  183SLPC   C3420961   7.066   5.404   3.709 -0.6688 -0.1627 -0.3322
  183SLPC   H4X20962   6.986   5.476   3.682  0.0236  0.7567 -0.0112
  183SLPC   H4Y20963   7.158   5.465   3.696  0.8393 -2.5705 -1.7066
  183SLPC   C3520964   7.057   5.366   3.861 -0.0400  0.0477  0.9625
  183SLPC   H5X20965   7.141   5.300   3.890  0.7445 -0.7048 -2.5848
  183SLPC   H5Y20966   6.959   5.317   3.881  1.4010 -2.8434  1.4936
  183SLPC   C3620967   7.073   5.483   3.957  0.1137 -0.2654  0.2873
  183SLPC   H6X20968   6.983   5.547   3.947 -1.6289 -2.8495 -1.7698
  183SLPC   H6Y20969   7.165   5.541   3.934 -0.7688  1.7935  1.5884
  183SLPC   C3720970   7.107   5.440   4.103  0.4386  0.0707  0.1038
  183SLPC   H7X20971   7.186   5.364   4.083 -1.1099 -1.7424  0.6141
  183SLPC   H7Y20972   7.022   5.378   4.138  1.3057 -2.0372 -1.3090
  183SLPC   C3820973   7.119   5.555   4.191 -0.3014  0.5421  0.9589
  183SLPC   H8X20974   7.029   5.618   4.182 -2.0796 -1.8752  0.8820
  183SLPC   H8Y20975   7.206   5.614   4.155  1.0203 -0.9335  1.5715
  183SLPC   C3920976   7.114   5.523   4.342  0.1447 -0.0073 -0.2544
  183SLPC   H9X20977   7.203   5.465   4.375  2.2734  3.1120 -0.0791
  183SLPC   H9Y20978   7.026   5.459   4.362  0.8026 -0.4014  1.6118
  183SLPC  C31020979   7.108   5.650   4.426  0.9869 -0.0886 -0.6121
  183SLPC  H10X20980   7.007   5.689   4.401  1.1756 -0.4209 -1.9954
  183SLPC  H10Y20981   7.176   5.726   4.381  0.1020  0.1936 -1.5156
  183SLPC  C31120982   7.108   5.641   4.578  0.0099 -0.5210  0.0732
  183SLPC  H11X20983   7.100   5.742   4.622 -1.9750 -0.4890 -0.3003
  183SLPC  H11Y20984   7.213   5.610   4.600  0.2265 -0.7488 -1.1753
  183SLPC  C31220985   7.011   5.542   4.645 -0.5264 -0.2337  0.0313
  183SLPC  H12X20986   7.023   5.440   4.601 -0.4700 -0.0639 -0.3540
  183SLPC  H12Y20987   6.912   5.580   4.612  0.9211  0.8168 -3.6724
  183SLPC  C31320988   7.015   5.513   4.792 -0.0953 -0.1480 -0.5763
  183SLPC  H13X20989   6.993   5.601   4.856 -0.6013 -0.2361 -0.6283
  183SLPC  H13Y20990   7.116   5.475   4.820 -0.0739  0.1093 -0.3017
  183SLPC  C31420991   6.908   5.407   4.814  0.0165  0.1786 -0.1353
  183SLPC  H14X20992   6.937   5.318   4.753  1.2739 -0.3719  1.2216
  183SLPC  H14Y20993   6.811   5.452   4.785  0.7009  2.1728  0.5572
  183SLPC  C31520994   6.915   5.361   4.953 -0.0320  0.3334 -0.1269
  183SLPC  H15X20995   6.875   5.440   5.020 -2.6040 -1.5858  0.7636
  183SLPC  H15Y20996   7.016   5.327   4.985 -0.3018 -0.6836 -0.3291
  183SLPC  C31620997   6.810   5.247   4.983 -0.5788 -0.8463  0.4361
  183SLPC  H16X20998   6.834   5.151   4.933 -0.6814 -0.1172 -1.0709
  183SLPC  H16Y20999   6.715   5.274   4.932  0.4370  2.8805  0.2414
  183SLPC  C31721000   6.792   5.232   5.139  0.3138 -0.3699 -0.3734
  183SLPC  H17X21001   6.766   5.331   5.182  0.1037 -1.4490  2.1755
  183SLPC  H17Y21002   6.893   5.199   5.169  0.4222  0.5093  0.2728
  183SLPC  C31821003   6.688   5.125   5.170 -0.3829  0.1037 -0.3712
  183SLPC  H18X21004   6.710   5.025   5.126 -0.4693  0.6982 -1.8093
  183SLPC  H18Y21005   6.588   5.153   5.131 -0.4611 -0.1235 -0.3368
  183SLPC  H18Z21006   6.667   5.111   5.278  0.2465  0.2295 -0.2299
  184SLPC     N21007   6.364   3.967   2.712 -0.0557  0.0356  0.1276
  184SLPC   C1321008   6.442   3.949   2.589 -0.2385 -0.8025 -0.2137
  184SLPC  H13A21009   6.422   4.028   2.519  0.7244  0.8177  1.2713
  184SLPC  H13B21010   6.545   3.968   2.616 -0.4642  0.1511  0.0255
  184SLPC  H13C21011   6.419   3.851   2.549 -1.0110 -1.1153  0.9385
  184SLPC   C1421012   6.374   3.851   2.800 -0.4643  0.3549  0.0697
  184SLPC  H14A21013   6.317   3.866   2.891  0.0634 -1.7615  0.8174
  184SLPC  H14B21014   6.343   3.764   2.743  1.9094  1.1782 -2.7365
  184SLPC  H14C21015   6.475   3.833   2.833  0.0257  0.9352 -1.0668
  184SLPC   C1521016   6.219   3.977   2.661 -0.5912  0.7016 -0.4241
  184SLPC  H15A21017   6.188   3.881   2.623  0.5383 -0.5088  1.5477
  184SLPC  H15B21018   6.168   4.014   2.749 -0.0348  0.2737  0.0945
  184SLPC  H15C21019   6.216   4.060   2.593 -1.0067  1.7047  0.7725
  184SLPC   C1221020   6.416   4.093   2.772 -0.5981 -0.1061 -0.1827
  184SLPC  H12A21021   6.417   4.165   2.691  2.7546 -1.4533 -1.5257
  184SLPC  H12B21022   6.522   4.081   2.791 -0.8237  0.6662  1.8095
  184SLPC   C1121023   6.347   4.162   2.890 -0.7118  0.6478 -0.0381
  184SLPC  H11A21024   6.413   4.246   2.921  1.4935 -1.1973  0.5237
  184SLPC  H11B21025   6.354   4.099   2.982  1.3603 -0.3923 -0.8529
  184SLPC     P21026   6.187   4.347   2.806  0.1382 -0.0817  0.0932
  184SLPC   O1321027   6.291   4.378   2.707  0.4358  0.0860  0.1853
  184SLPC   O1421028   6.044   4.371   2.784  0.0882  0.3446  0.0951
  184SLPC   O1221029   6.210   4.199   2.850 -0.4151 -0.0202  0.1416
  184SLPC   O1121030   6.235   4.423   2.938 -0.0550 -0.0692  0.5151
  184SLPC    C121031   6.160   4.423   3.059 -0.4223  0.0497  0.1287
  184SLPC    HA21032   6.068   4.484   3.044 -0.5406  0.3821  1.9578
  184SLPC    HB21033   6.125   4.319   3.080 -1.2288  0.4407  0.7935
  184SLPC    C221034   6.233   4.477   3.186  0.0615 -0.2443  0.2443
  184SLPC    HS21035   6.169   4.472   3.277 -2.0246 -0.0271 -1.1274
  184SLPC   O2121036   6.279   4.609   3.157  0.0174 -0.0444 -0.1192
  184SLPC   C2121037   6.221   4.712   3.210 -0.3858  0.4574  0.2072
  184SLPC   O2221038   6.122   4.711   3.283  0.2362  0.1748  0.4687
  184SLPC   C2221039   6.309   4.831   3.197  0.6505 -0.4716 -0.3942
  184SLPC   H2R21040   6.395   4.826   3.267  0.9964  0.7635 -0.6958
  184SLPC   H2S21041   6.352   4.845   3.095 -0.8351  0.3528 -0.9276
  184SLPC    C321042   6.365   4.392   3.201 -0.3780  0.1135  0.0989
  184SLPC    HX21043   6.423   4.409   3.108  5.6580 -3.0452  2.7306
  184SLPC    HY21044   6.319   4.292   3.195 -1.4726  0.6256 -0.2765
  184SLPC   O3121045   6.432   4.421   3.326  0.4070  0.2420  0.2161
  184SLPC   C3121046   6.521   4.516   3.309 -0.6632  0.1636 -0.7238
  184SLPC   O3221047   6.562   4.563   3.202  0.3776 -0.4045 -0.1824
  184SLPC   C3221048   6.587   4.551   3.447 -0.6883  0.0495  0.0815
  184SLPC   H2X21049   6.655   4.635   3.421  1.2619 -1.1002  1.1825
  184SLPC   H2Y21050   6.637   4.458   3.482 -0.5028 -0.4508 -1.4402
  184SLPC   C2321051   6.234   4.971   3.218 -0.4817  0.1401  0.4644
  184SLPC   H3R21052   6.126   4.963   3.191 -0.5871  0.2561  0.8422
  184SLPC   H3S21053   6.275   5.050   3.151  2.5437 -0.0355  1.9831
  184SLPC   C2421054   6.247   5.015   3.357  0.1623 -0.7229 -0.6215
  184SLPC   H4R21055   6.343   5.058   3.394 -1.7203  1.4124  2.2651
  184SLPC   H4S21056   6.219   4.936   3.429 -2.4649  1.4118  0.8744
  184SLPC   C2521057   6.151   5.133   3.394  0.7875  0.3387 -0.0016
  184SLPC   H5R21058   6.045   5.100   3.384  0.9782 -1.8706  3.4372
  184SLPC   H5S21059   6.166   5.215   3.321 -0.7237  0.7132  0.0838
  184SLPC   C2621060   6.146   5.171   3.538 -0.1989 -0.6366  0.1612
  184SLPC   H6R21061   6.255   5.185   3.555 -0.1012 -0.2854 -0.6740
  184SLPC   H6S21062   6.109   5.088   3.602 -4.6218 -0.0504 -1.2992
  184SLPC   C2721063   6.066   5.309   3.562  0.2644 -0.4284 -0.3276
  184SLPC   H7R21064   5.959   5.288   3.581  0.8949 -1.7840  2.1872
  184SLPC   H7S21065   6.070   5.383   3.480  2.5045 -0.4179 -0.2846
  184SLPC   C2821066   6.103   5.387   3.693 -0.0130 -0.4941 -0.9110
  184SLPC   H8R21067   6.041   5.477   3.716  0.9695 -0.1788  0.6344
  184SLPC   H8S21068   6.210   5.417   3.691 -0.3441  0.7663 -0.9534
  184SLPC   C2921069   6.082   5.299   3.814  0.2786  0.6097 -0.2734
  184SLPC   H9R21070   6.166   5.231   3.833 -2.9331 -3.3686  1.0305
  184SLPC  C21021071   5.981   5.307   3.910  0.0703  0.3864  0.3443
  184SLPC  H10R21072   5.978   5.232   3.990  0.1845  1.1029  1.0252
  184SLPC  C21121073   5.854   5.390   3.906 -0.3161  0.1267 -0.3333
  184SLPC  H11R21074   5.776   5.312   3.923 -4.0069  3.6863  0.7887
  184SLPC  H11S21075   5.838   5.428   3.802  1.0151  0.9716 -0.2395
  184SLPC  C21221076   5.864   5.498   4.005  0.0212 -0.1580 -0.0735
  184SLPC  H12R21077   5.954   5.559   3.994 -0.2638  0.7509  2.0863
  184SLPC  C21321078   5.780   5.523   4.107 -0.0679  0.0727 -0.6493
  184SLPC  H13R21079   5.799   5.610   4.171  1.8196  0.2002 -1.3162
  184SLPC  C21421080   5.659   5.438   4.142 -0.1997  0.0034  1.3128
  184SLPC  H14R21081   5.634   5.359   4.067 -0.3110  0.4805  0.8370
  184SLPC  H14S21082   5.572   5.507   4.151  0.3010  0.7840  0.4409
  184SLPC  C21521083   5.690   5.386   4.281 -0.2789  0.1599  0.2850
  184SLPC  H15R21084   5.733   5.466   4.345  1.7028  0.9139 -1.8557
  184SLPC  H15S21085   5.766   5.306   4.274  0.5645  0.9638  0.0736
  184SLPC  C21621086   5.569   5.318   4.354  0.1312  0.1388  0.2253
  184SLPC  H16R21087   5.531   5.228   4.300  0.6990 -2.6738  4.0341
  184SLPC  H16S21088   5.497   5.401   4.339  0.5623  0.7892  1.5571
  184SLPC  C21721089   5.593   5.293   4.505  0.0279 -0.4817 -0.5227
  184SLPC  H17R21090   5.682   5.229   4.524 -1.3753 -1.5382  3.4099
  184SLPC  H17S21091   5.507   5.233   4.542  1.6718 -2.0140  1.0368
  184SLPC  C21821092   5.626   5.416   4.593  0.1896 -0.9568 -0.1272
  184SLPC  H18R21093   5.611   5.396   4.701 -1.5035  3.4805  0.6873
  184SLPC  H18S21094   5.559   5.502   4.574 -0.2657 -1.2470  0.1554
  184SLPC  H18T21095   5.729   5.452   4.573 -0.6853  0.7654 -1.8067
  184SLPC   C3321096   6.483   4.606   3.545 -0.0287  0.4257 -0.0609
  184SLPC   H3X21097   6.397   4.537   3.529  0.4444  0.1375 -1.5098
  184SLPC   H3Y21098   6.460   4.711   3.518 -0.6099 -0.2962 -2.6373
  184SLPC   C3421099   6.514   4.614   3.692  0.3332 -0.0631  0.3037
  184SLPC   H4X21100   6.594   4.690   3.706  0.8796 -1.0111  3.1684
  184SLPC   H4Y21101   6.570   4.520   3.714  3.3938  0.9639 -2.3573
  184SLPC   C3521102   6.393   4.630   3.790  0.4506 -0.6949 -0.5562
  184SLPC   H5X21103   6.318   4.550   3.770 -0.4428 -0.0020 -0.0644
  184SLPC   H5Y21104   6.350   4.730   3.764  0.9376 -0.6648 -1.2814
  184SLPC   C3621105   6.430   4.625   3.936  0.4930  0.5321  0.2412
  184SLPC   H6X21106   6.513   4.694   3.959 -1.0922  2.4318  0.5101
  184SLPC   H6Y21107   6.464   4.520   3.950  0.1673  0.1386 -1.6414
  184SLPC   C3721108   6.311   4.661   4.029  0.5022  0.1223  0.3314
  184SLPC   H7X21109   6.219   4.601   4.008  1.7356 -1.3707 -1.0284
  184SLPC   H7Y21110   6.283   4.765   4.004  1.6184  0.4279  0.3290
  184SLPC   C3821111   6.327   4.677   4.178  0.0263  0.0664 -0.0820
  184SLPC   H8X21112   6.407   4.750   4.203  0.2996  0.4542 -1.9869
  184SLPC   H8Y21113   6.341   4.575   4.221 -1.6153 -0.4441 -0.6975
  184SLPC   C3921114   6.206   4.732   4.241  0.2944 -0.4446 -0.2497
  184SLPC   H9X21115   6.128   4.654   4.254 -0.2595  0.3355  1.5091
  184SLPC   H9Y21116   6.161   4.815   4.183  1.1293  1.2123  1.3834
  184SLPC  C31021117   6.237   4.785   4.384 -0.4051 -0.6944  0.4234
  184SLPC  H10X21118   6.311   4.869   4.381 -1.7236  0.8002  4.1106
  184SLPC  H10Y21119   6.278   4.704   4.448  0.4344 -1.5074 -1.0838
  184SLPC  C31121120   6.113   4.842   4.447  0.8234  0.2599  0.3767
  184SLPC  H11X21121   6.029   4.770   4.435  1.9452 -0.9827 -0.2515
  184SLPC  H11Y21122   6.086   4.936   4.395  0.1849 -1.1474 -1.9491
  184SLPC  C31221123   6.136   4.889   4.585 -0.6616  0.5374 -0.0357
  184SLPC  H12X21124   6.217   4.965   4.582 -0.0879 -0.0802 -0.3791
  184SLPC  H12Y21125   6.173   4.799   4.639 -1.2758 -0.3908 -1.1152
  184SLPC  C31321126   6.011   4.951   4.656 -0.1439 -0.2014  0.4394
  184SLPC  H13X21127   5.938   4.867   4.657  1.3539 -1.5629  0.6645
  184SLPC  H13Y21128   5.979   5.030   4.585  2.5410  0.5325 -0.0740
  184SLPC  C31421129   6.045   5.013   4.793 -0.1469 -0.4413  0.5238
  184SLPC  H14X21130   6.110   5.101   4.772 -1.9297  0.7650 -0.1630
  184SLPC  H14Y21131   6.106   4.937   4.846 -0.0017 -0.2393  0.6495
  184SLPC  C31521132   5.922   5.040   4.882 -0.5284  0.1612 -0.2596
  184SLPC  H15X21133   5.950   5.094   4.975 -1.4475 -0.0380  0.1355
  184SLPC  H15Y21134   5.882   4.944   4.918  0.9211  0.5938  2.8352
  184SLPC  C31621135   5.805   5.126   4.821  0.4725  0.4005 -0.1457
  184SLPC  H16X21136   5.771   5.065   4.735  0.5068 -0.5222  0.4739
  184SLPC  H16Y21137   5.848   5.221   4.783  1.0137  0.3465  0.3076
  184SLPC  C31721138   5.692   5.144   4.915  0.3703 -0.1055 -0.5752
  184SLPC  H17X21139   5.602   5.192   4.870 -0.2549 -1.6924 -1.1222
  184SLPC  H17Y21140   5.715   5.193   5.011  0.8566 -0.8120 -0.3220
  184SLPC  C31821141   5.637   5.007   4.957  0.9302  0.4044 -0.8189
  184SLPC  H18X21142   5.645   4.932   4.875  2.1720 -0.3646 -0.0278
  184SLPC  H18Y21143   5.529   5.021   4.976  0.9440 -1.0714  0.6405
  184SLPC  H18Z21144   5.697   4.976   5.046  1.4597  0.0722 -1.2871
  185POPC     N21145   3.396   5.536   7.561  0.0195 -0.3052 -0.1651
  185POPC   C1221146   3.412   5.504   7.415  0.1153  0.3826 -0.0230
  185POPC  H12A21147   3.447   5.402   7.407  2.2456  1.1216 -0.7201
  185POPC  H12B21148   3.494   5.560   7.372 -0.3493  1.8644  0.9447
  185POPC   C1321149   3.276   5.463   7.620  0.3881  0.4260 -0.5899
  185POPC  H13A21150   3.185   5.502   7.576  0.7734 -0.1742 -1.9706
  185POPC  H13B21151   3.283   5.356   7.617 -2.9803  0.0174  1.2625
  185POPC  H13C21152   3.275   5.493   7.724  2.2601  2.0959 -1.0031
  185POPC   C1421153   3.515   5.507   7.639 -1.1853 -0.8949 -0.6532
  185POPC  H14A21154   3.604   5.549   7.594 -0.8648 -1.2777 -0.3900
  185POPC  H14B21155   3.509   5.553   7.737  0.1382  2.8255 -2.1369
  185POPC  H14C21156   3.545   5.404   7.648  0.3598 -0.4994 -0.8494
  185POPC   C1521157   3.375   5.686   7.570  0.0207  0.2774  0.0207
  185POPC  H15A21158   3.349   5.718   7.669 -1.8078  0.1646 -0.3994
  185POPC  H15B21159   3.299   5.728   7.506  1.7574  0.4007 -2.0990
  185POPC  H15C21160   3.462   5.744   7.542 -0.1784  1.4352  1.6621
  185POPC   C1121161   3.283   5.514   7.321  0.2807 -0.1192  0.4519
  185POPC  H11A21162   3.322   5.485   7.221 -0.5597 -1.6120  0.5206
  185POPC  H11B21163   3.263   5.623   7.327 -0.4275 -0.1222 -1.3293
  185POPC     P21164   3.029   5.456   7.302 -0.2065  0.0682 -0.2424
  185POPC   O1321165   3.003   5.584   7.359  0.1349 -0.4154  0.1100
  185POPC   O1421166   2.940   5.346   7.343 -0.5785 -0.3868 -0.3568
  185POPC   O1221167   3.174   5.423   7.354  0.2833 -0.2642 -0.1407
  185POPC   O1121168   3.050   5.455   7.148 -0.2098  0.0998  0.2287
  185POPC    C121169   3.094   5.337   7.078 -0.4179 -0.3075  0.3530
  185POPC    HA21170   3.003   5.307   7.021 -1.9636  0.6324  2.1978
  185POPC    HB21171   3.127   5.255   7.145  0.4284 -0.2534  0.0100
  185POPC    C221172   3.204   5.364   6.970  0.1304 -0.6799  0.2316
  185POPC    HS21173   3.292   5.403   7.026  0.3705  0.4132 -0.8725
  185POPC   O2121174   3.147   5.471   6.888 -0.1069 -0.2083  0.3209
  185POPC   C2121175   3.235   5.540   6.816 -0.0582 -0.1578 -0.2454
  185POPC   O2221176   3.358   5.531   6.834 -0.2778 -1.0131  0.8354
  185POPC   C2221177   3.167   5.629   6.713  0.2076  1.0608  1.0531
  185POPC   H2R21178   3.164   5.734   6.749 -0.2862  1.6597 -0.6344
  185POPC   H2S21179   3.060   5.597   6.704  0.8533 -1.8999  2.5138
  185POPC    C321180   3.249   5.247   6.882 -0.3729 -0.8427 -0.5348
  185POPC    HX21181   3.291   5.176   6.956 -1.1216 -1.2823 -0.5230
  185POPC    HY21182   3.331   5.285   6.817  1.1804  0.3547  1.9836
  185POPC   O3121183   3.137   5.195   6.817  0.3024 -0.3618  0.3691
  185POPC   C3121184   3.154   5.074   6.754 -0.0523  0.5090  0.6677
  185POPC   O3221185   3.258   5.018   6.748 -0.4490 -0.3669  0.0434
  185POPC   C3221186   3.024   5.015   6.716  0.3568 -0.0637  0.2241
  185POPC   H2X21187   2.954   5.101   6.714  2.1509  1.4851  0.6305
  185POPC   H2Y21188   2.998   4.944   6.798  1.8385 -2.4728 -1.2651
  185POPC   C2321189   3.220   5.630   6.567  0.0659  0.3057 -0.0546
  185POPC   H3R21190   3.329   5.649   6.577  0.2315 -0.8726  0.6348
  185POPC   H3S21191   3.175   5.715   6.511 -2.6237 -1.2406 -0.4239
  185POPC   C2421192   3.186   5.497   6.504 -0.0068 -0.5028  0.0237
  185POPC   H4R21193   3.228   5.409   6.556 -0.5036 -0.5647  0.3338
  185POPC   H4S21194   3.221   5.503   6.399 -0.6886  0.5452 -0.1603
  185POPC   C2521195   3.035   5.462   6.491 -0.3181 -0.2962  0.4921
  185POPC   H5R21196   3.000   5.438   6.593  1.5961 -3.8101  0.4837
  185POPC   H5S21197   3.035   5.368   6.432 -1.3795 -0.2716  0.4360
  185POPC   C2621198   2.952   5.571   6.436  0.8930 -0.3130  0.6679
  185POPC   H6R21199   2.958   5.658   6.505 -0.2394  0.6801 -0.4529
  185POPC   H6S21200   2.846   5.539   6.425  0.7441  0.3277  0.1776
  185POPC   C2721201   2.989   5.632   6.294 -0.9287  0.0457  0.4544
  185POPC   H7R21202   3.084   5.689   6.307 -1.5929  1.2050  0.3290
  185POPC   H7S21203   2.919   5.711   6.260 -0.3555 -0.0661 -1.0435
  185POPC   C2821204   3.005   5.526   6.180 -0.8227 -0.5143 -0.7592
  185POPC   H8R21205   2.906   5.481   6.160 -1.8333  1.7349 -1.0848
  185POPC   H8S21206   3.068   5.445   6.223  1.0192  1.9688  1.5251
  185POPC   C2921207   3.083   5.579   6.063  0.5601  0.2268 -0.5339
  185POPC   H9121208   3.186   5.612   6.083  1.3251 -2.3498  0.1453
  185POPC  C21021209   3.029   5.625   5.949  0.6053 -0.0321  0.0699
  185POPC  H10121210   3.098   5.668   5.875 -1.2633  1.3358 -0.9822
  185POPC  C21121211   2.891   5.608   5.898 -1.1706 -0.0023 -0.0284
  185POPC  H11R21212   2.869   5.687   5.824 -1.2193 -0.4894 -0.5419
  185POPC  H11S21213   2.821   5.626   5.982  0.7976  0.2385  1.6647
  185POPC  C21221214   2.868   5.469   5.836 -0.6111  1.1307  0.0624
  185POPC  H12R21215   2.760   5.474   5.810 -0.6800  2.2199  0.4973
  185POPC  H12S21216   2.882   5.385   5.908  0.7413  0.6470 -0.7324
  185POPC  C21321217   2.948   5.450   5.707 -0.1079 -0.3150  0.4223
  185POPC  H13R21218   3.055   5.433   5.732  0.6559  2.7688 -0.3487
  185POPC  H13S21219   2.940   5.538   5.639 -0.1735 -2.0733 -1.9399
  185POPC  C21421220   2.899   5.330   5.623  0.1643 -0.3648 -0.9352
  185POPC  H14R21221   2.937   5.339   5.519 -2.3529  1.9264 -1.7437
  185POPC  H14S21222   2.790   5.349   5.619 -0.2401 -1.8945  1.2430
  185POPC  C21521223   2.935   5.196   5.679 -0.0967 -0.3430 -0.2349
  185POPC  H15R21224   2.895   5.169   5.779  0.1610  0.4020  0.0703
  185POPC  H15S21225   3.045   5.182   5.685 -0.2292 -1.2579  0.2515
  185POPC  C21621226   2.891   5.093   5.575 -0.4261  0.0723  0.6400
  185POPC  H16R21227   2.950   5.112   5.483 -0.5252 -0.0075  0.5605
  185POPC  H16S21228   2.787   5.101   5.537  0.3706  1.1708 -1.4720
  185POPC  C21721229   2.921   4.957   5.628  0.0919  0.5333  1.0728
  185POPC  H17R21230   2.870   4.947   5.726 -2.0298  0.9332  0.0652
  185POPC  H17S21231   3.032   4.951   5.637  0.0131 -1.8842  1.0897
  185POPC  C21821232   2.888   4.847   5.518  0.2938  0.1978 -0.1728
  185POPC  H18R21233   2.916   4.894   5.421 -0.3240  0.5278 -0.1994
  185POPC  H18S21234   2.784   4.808   5.516  0.5974 -0.6215 -0.4899
  185POPC  H18T21235   2.965   4.768   5.529 -1.1545 -1.6870 -2.5217
  185POPC   C3321236   3.035   4.933   6.587  0.1926  0.5137 -0.4787
  185POPC   H3X21237   3.121   4.864   6.572 -0.2877  0.2856 -2.4717
  185POPC   H3Y21238   3.040   5.010   6.507  0.8105  0.5248 -0.4351
  185POPC   C3421239   2.902   4.864   6.557 -0.6025  0.3029 -0.2553
  185POPC   H4X21240   2.897   4.837   6.450 -3.4148 -0.9934  0.1047
  185POPC   H4Y21241   2.823   4.941   6.575  2.1935  2.9586  1.6927
  185POPC   C3521242   2.876   4.742   6.637  0.1185  0.1580 -0.1226
  185POPC   H5X21243   2.851   4.765   6.743 -0.6612 -2.4610  0.3346
  185POPC   H5Y21244   2.964   4.674   6.636  0.5846  0.7446 -1.5324
  185POPC   C3621245   2.761   4.659   6.583 -0.6089  0.3902  0.0020
  185POPC   H6X21246   2.662   4.710   6.575 -2.1366 -2.2484  0.8789
  185POPC   H6Y21247   2.747   4.574   6.653  2.5123 -0.4310 -0.2493
  185POPC   C3721248   2.808   4.591   6.455 -0.4429 -0.1457 -0.2872
  185POPC   H7X21249   2.904   4.541   6.480 -0.0025  0.0126 -1.5830
  185POPC   H7Y21250   2.835   4.659   6.371 -0.6349  0.0909 -0.1579
  185POPC   C3821251   2.706   4.494   6.397 -0.3914  0.2659 -0.0359
  185POPC   H8X21252   2.625   4.557   6.355  0.9619  2.6941  0.7609
  185POPC   H8Y21253   2.666   4.447   6.489  0.3171 -1.4402 -0.5518
  185POPC   C3921254   2.767   4.391   6.298 -0.9890  0.9244  0.0006
  185POPC   H9X21255   2.832   4.325   6.359 -1.6937 -0.3658 -0.5996
  185POPC   H9Y21256   2.835   4.439   6.225 -1.1061  0.0508 -0.7076
  185POPC  C31021257   2.665   4.292   6.231  0.4870 -0.5566 -0.8492
  185POPC  H10X21258   2.595   4.255   6.309  0.6444  0.6237 -0.1323
  185POPC  H10Y21259   2.717   4.201   6.194  0.4371 -2.2893  2.9192
  185POPC  C31121260   2.587   4.342   6.110 -0.5177 -0.3068 -0.1204
  185POPC  H11X21261   2.533   4.433   6.143 -0.3350 -0.2707  0.0794
  185POPC  H11Y21262   2.511   4.267   6.079  0.5747 -1.3045 -0.4854
  185POPC  C31221263   2.672   4.371   5.989  0.0653  0.9265 -0.8292
  185POPC  H12X21264   2.734   4.282   5.966 -1.4773 -0.6079  0.6635
  185POPC  H12Y21265   2.740   4.451   6.024  1.1920 -0.4991  0.3733
  185POPC  C31321266   2.593   4.407   5.859 -0.0396 -0.5917 -0.7004
  185POPC  H13X21267   2.531   4.496   5.881  0.8013 -0.4366  1.3060
  185POPC  H13Y21268   2.534   4.321   5.820  0.8783 -1.0601 -1.0885
  185POPC  C31421269   2.691   4.458   5.744  0.7154  0.2060 -0.3652
  185POPC  H14X21270   2.760   4.372   5.729  0.2469 -0.7006  2.1002
  185POPC  H14Y21271   2.739   4.548   5.787  1.5575  0.1928 -1.2435
  185POPC  C31521272   2.614   4.497   5.622  0.2607 -0.2173  0.0280
  185POPC  H15X21273   2.690   4.527   5.547 -0.7922  1.5994 -0.3742
  185POPC  H15Y21274   2.552   4.586   5.645  0.4996 -0.4400  1.6232
  185POPC  C31621275   2.514   4.396   5.580 -0.2112  0.2772  0.0251
  185POPC  H16X21276   2.544   4.296   5.617 -2.2089 -0.4498 -0.2094
  185POPC  H16Y21277   2.501   4.386   5.470  3.1788 -1.8266 -0.3245
  185POPC  H16Z21278   2.416   4.402   5.631 -0.4831 -1.2336 -0.3029
  186POPC     N21279   3.973   5.477   7.426 -0.0597 -0.3892  0.3001
  186POPC   C1221280   3.878   5.474   7.298 -0.2523 -0.5726  0.0217
  186POPC  H12A21281   3.783   5.432   7.328 -1.3712  0.9865 -1.1062
  186POPC  H12B21282   3.918   5.394   7.238  0.7305 -2.1642  2.6756
  186POPC   C1321283   3.993   5.341   7.468  0.0963  0.5115 -0.0640
  186POPC  H13A21284   4.051   5.282   7.398 -0.3553  0.4395 -0.3836
  186POPC  H13B21285   4.045   5.339   7.563  0.2801  1.0811 -0.1465
  186POPC  H13C21286   3.901   5.287   7.481  1.3443 -1.3760  1.5193
  186POPC   C1421287   4.103   5.540   7.395 -0.2125  0.1368  0.7583
  186POPC  H14A21288   4.172   5.553   7.477  1.6595 -0.8220 -0.5801
  186POPC  H14B21289   4.164   5.478   7.330 -0.1955  0.2936  0.6224
  186POPC  H14C21290   4.095   5.633   7.340 -0.3895 -0.2982  0.0270
  186POPC   C1521291   3.912   5.549   7.539  0.1227  0.1451 -0.2905
  186POPC  H15A21292   3.870   5.643   7.505  0.1680  0.4409  0.4598
  186POPC  H15B21293   3.981   5.566   7.620 -0.0644  2.8218 -0.5958
  186POPC  H15C21294   3.830   5.488   7.575 -0.8987  2.2024  1.0581
  186POPC   C1121295   3.854   5.603   7.219 -0.7709 -0.0816  0.6728
  186POPC  H11A21296   3.804   5.576   7.124  0.1642 -0.1646  0.1896
  186POPC  H11B21297   3.948   5.653   7.187 -1.9456  1.2358 -0.9298
  186POPC     P21298   3.650   5.762   7.226 -0.1122  0.3717  0.0512
  186POPC   O1321299   3.615   5.879   7.303  0.8118  0.1773 -0.2056
  186POPC   O1421300   3.557   5.651   7.209  0.7124 -0.5746 -0.3369
  186POPC   O1221301   3.781   5.698   7.292  0.5660 -0.8337  0.2940
  186POPC   O1121302   3.687   5.811   7.083 -0.4402 -0.2240  0.1423
  186POPC    C121303   3.804   5.887   7.051 -0.1984 -0.1329 -0.7890
  186POPC    HA21304   3.891   5.840   7.101 -1.2854 -1.4682 -0.0740
  186POPC    HB21305   3.792   5.993   7.082 -1.2608 -0.2586 -0.7201
  186POPC    C221306   3.830   5.883   6.892  0.5953  0.1778 -0.4403
  186POPC    HS21307   3.937   5.906   6.876  0.3297  0.3191 -2.1874
  186POPC   O2121308   3.753   5.981   6.821  0.6420  0.3466  0.0932
  186POPC   C2121309   3.791   6.107   6.822 -0.2914 -0.5960 -0.1152
  186POPC   O2221310   3.887   6.149   6.885 -0.0302  0.0102  0.2455
  186POPC   C2221311   3.702   6.180   6.726 -0.0339 -0.8246  0.2372
  186POPC   H2R21312   3.680   6.278   6.773 -0.7074 -1.6229  1.6635
  186POPC   H2S21313   3.602   6.131   6.713 -1.1309  1.5267 -0.7892
  186POPC    C321314   3.805   5.741   6.831 -0.5222 -0.1037  0.0578
  186POPC    HX21315   3.720   5.688   6.879  0.8451 -1.3737  1.1595
  186POPC    HY21316   3.888   5.670   6.851 -0.9675 -0.6133  0.1235
  186POPC   O3121317   3.800   5.746   6.686 -0.3216 -0.0474 -0.2073
  186POPC   C3121318   3.684   5.747   6.620  0.4863 -0.0070 -0.5116
  186POPC   O3221319   3.572   5.760   6.671 -0.1106  0.7669 -0.1273
  186POPC   C3221320   3.711   5.721   6.469  0.7853 -0.1185 -0.6682
  186POPC   H2X21321   3.765   5.624   6.474  0.6036 -0.1558  2.8644
  186POPC   H2Y21322   3.782   5.799   6.434  3.3021 -0.5697  2.8760
  186POPC   C2321323   3.750   6.196   6.578  0.4671 -0.0133  0.0212
  186POPC   H3R21324   3.843   6.253   6.562  0.1707  0.0841 -1.5449
  186POPC   H3S21325   3.665   6.263   6.555 -0.5060 -0.8691  0.9932
  186POPC   C2421326   3.757   6.076   6.482 -0.3262  0.4052  0.0303
  186POPC   H4R21327   3.659   6.025   6.495  0.4905 -2.2751 -2.9576
  186POPC   H4S21328   3.836   6.004   6.513 -2.1099 -1.0716  1.3929
  186POPC   C2521329   3.795   6.118   6.343  0.4532  0.4954 -0.4378
  186POPC   H5R21330   3.828   6.027   6.287  0.0960  1.5311 -2.4411
  186POPC   H5S21331   3.881   6.187   6.356  1.3382 -0.7957  0.8058
  186POPC   C2621332   3.682   6.192   6.274  1.2096  0.4764  0.6325
  186POPC   H6R21333   3.657   6.288   6.323  2.1130  0.1083  1.8923
  186POPC   H6S21334   3.589   6.132   6.274  0.3804  1.7244 -0.1476
  186POPC   C2721335   3.718   6.232   6.132  0.3096 -0.6669  0.4768
  186POPC   H7R21336   3.827   6.253   6.136  0.4102 -1.3880  1.8488
  186POPC   H7S21337   3.660   6.322   6.102  1.2177  0.0486  0.8322
  186POPC   C2821338   3.700   6.117   6.032 -0.1779 -0.4041 -0.4313
  186POPC   H8R21339   3.591   6.098   6.015 -0.6205  2.3569 -1.2858
  186POPC   H8S21340   3.754   6.031   6.077  2.0278  0.6023 -1.0181
  186POPC   C2921341   3.759   6.176   5.899 -0.4817  0.5393 -0.3274
  186POPC   H9121342   3.864   6.206   5.908 -0.1056 -0.4606 -1.2065
  186POPC  C21021343   3.711   6.187   5.777  0.1355  0.0407 -0.1694
  186POPC  H10121344   3.762   6.250   5.703 -0.2128  2.1139  1.2893
  186POPC  C21121345   3.573   6.150   5.730 -0.8118  0.1995 -0.5021
  186POPC  H11R21346   3.499   6.137   5.811  0.2140  2.2300  0.8480
  186POPC  H11S21347   3.569   6.054   5.673  0.8396  0.5049 -1.2032
  186POPC  C21221348   3.511   6.262   5.639  0.6789  0.4942 -0.6305
  186POPC  H12R21349   3.578   6.290   5.554  0.0299 -1.0362 -1.6828
  186POPC  H12S21350   3.499   6.359   5.692 -1.3127 -0.1978  0.2686
  186POPC  C21321351   3.375   6.227   5.575 -0.3690  0.2039 -0.4295
  186POPC  H13R21352   3.340   6.315   5.517  2.4462  1.0141 -1.0198
  186POPC  H13S21353   3.300   6.222   5.657  1.3315  2.0564  1.3672
  186POPC  C21421354   3.395   6.124   5.465 -0.0979 -0.1267 -0.3638
  186POPC  H14R21355   3.423   6.024   5.504 -1.1178 -0.7739 -1.2403
  186POPC  H14S21356   3.485   6.164   5.412 -2.0690  1.8977 -2.4089
  186POPC  C21521357   3.289   6.134   5.359  0.2153  0.2253 -0.3548
  186POPC  H15R21358   3.259   6.237   5.330  3.3048  1.2972 -0.0319
  186POPC  H15S21359   3.196   6.091   5.402  1.8816 -0.5169  2.7652
  186POPC  C21621360   3.320   6.055   5.229  0.4581  0.0981  0.0611
  186POPC  H16R21361   3.302   5.947   5.245 -0.6916 -0.0398 -1.9284
  186POPC  H16S21362   3.429   6.056   5.208  0.9313  2.8110  2.1211
  186POPC  C21721363   3.243   6.109   5.105 -0.0854 -0.3265 -0.1543
  186POPC  H17R21364   3.272   6.049   5.016  1.2696  1.1899 -0.7692
  186POPC  H17S21365   3.289   6.207   5.084  2.8433 -1.8353 -1.3314
  186POPC  C21821366   3.092   6.116   5.140 -0.2349  0.2671 -0.0361
  186POPC  H18R21367   3.057   6.014   5.167  1.8981 -1.0342 -1.8638
  186POPC  H18S21368   3.035   6.148   5.051 -0.7399 -3.0232 -1.0411
  186POPC  H18T21369   3.061   6.186   5.221  0.5115  1.3215 -0.6396
  186POPC   C3321370   3.585   5.706   6.379  0.5091 -0.4944  0.1904
  186POPC   H3X21371   3.516   5.793   6.379  0.8439 -0.2279  0.3768
  186POPC   H3Y21372   3.531   5.616   6.414  0.5491 -1.6402 -2.4113
  186POPC   C3421373   3.622   5.681   6.231  0.2365 -0.0277  0.1140
  186POPC   H4X21374   3.616   5.572   6.208  2.0378  0.4554 -3.1617
  186POPC   H4Y21375   3.716   5.733   6.205 -0.0231  1.2008  1.4972
  186POPC   C3521376   3.521   5.750   6.137  0.1998  0.2089 -0.8400
  186POPC   H5X21377   3.535   5.860   6.148  0.4799  0.0089  1.1577
  186POPC   H5Y21378   3.417   5.719   6.161  0.3862 -0.2318 -0.5966
  186POPC   C3621379   3.542   5.704   5.990  0.0521 -0.2395  0.2348
  186POPC   H6X21380   3.516   5.596   5.998  0.4355 -0.4336 -0.9482
  186POPC   H6Y21381   3.649   5.717   5.962  0.2545  0.0405  1.1141
  186POPC   C3721382   3.448   5.784   5.889 -0.6508  0.0387 -0.1055
  186POPC   H7X21383   3.462   5.894   5.892  1.3685 -0.1855  0.2124
  186POPC   H7Y21384   3.345   5.769   5.929 -1.1244 -2.2154 -1.9524
  186POPC   C3821385   3.453   5.729   5.743 -0.0274 -0.0251 -0.5527
  186POPC   H8X21386   3.553   5.723   5.697  0.5810 -2.3482  0.8832
  186POPC   H8Y21387   3.378   5.787   5.685 -0.3507  1.4915  1.2603
  186POPC   C3921388   3.410   5.579   5.738 -0.1145  1.1333 -0.6390
  186POPC   H9X21389   3.305   5.577   5.773 -0.0797  0.2729 -0.5640
  186POPC   H9Y21390   3.488   5.522   5.793 -0.2247  0.3946 -1.2241
  186POPC  C31021391   3.400   5.526   5.591  0.0662  0.2806  0.6561
  186POPC  H10X21392   3.502   5.535   5.549 -0.0570  0.4597  0.3932
  186POPC  H10Y21393   3.342   5.602   5.534 -0.7350  1.3687  2.7871
  186POPC  C31121394   3.339   5.385   5.580 -0.0449 -0.7110 -0.2027
  186POPC  H11X21395   3.247   5.379   5.642 -0.1818 -0.8891 -0.4217
  186POPC  H11Y21396   3.419   5.323   5.627  2.1556  2.6738  0.8295
  186POPC  C31221397   3.311   5.349   5.440 -0.2583 -0.1068  0.8088
  186POPC  H12X21398   3.407   5.351   5.384 -0.1105  0.1035  1.0646
  186POPC  H12Y21399   3.236   5.418   5.396  0.6208 -0.0221 -0.6144
  186POPC  C31321400   3.245   5.213   5.436  0.2526  0.2919 -1.1862
  186POPC  H13X21401   3.141   5.235   5.468  0.4125 -0.4278 -0.1098
  186POPC  H13Y21402   3.302   5.160   5.516 -0.7342 -1.1635 -1.4210
  186POPC  C31421403   3.252   5.148   5.303  0.0535  0.6793 -0.4317
  186POPC  H14X21404   3.353   5.165   5.260  0.7276  2.5685  1.7202
  186POPC  H14Y21405   3.171   5.196   5.244 -1.1493  0.6316  1.1400
  186POPC  C31521406   3.222   4.996   5.310 -0.1481 -0.0071  0.1084
  186POPC  H15X21407   3.113   4.986   5.330  0.0311  1.3958  2.0866
  186POPC  H15Y21408   3.282   4.940   5.385  0.1292  1.1454  0.7756
  186POPC  C31621409   3.265   4.952   5.169  0.2058  0.2228  0.3110
  186POPC  H16X21410   3.257   4.841   5.166  2.0512 -0.0315  2.4732
  186POPC  H16Y21411   3.374   4.968   5.155  0.6731 -1.8388  1.2065
  186POPC  H16Z21412   3.199   4.996   5.091  1.9591  2.0624 -0.1965
  187POPC     N21413   1.775   1.997   2.312  0.3593  0.9224 -0.0867
  187POPC   C1221414   1.789   1.873   2.404  0.3039 -0.1548  0.0709
  187POPC  H12A21415   1.814   1.913   2.501  0.2770 -1.0424  0.4470
  187POPC  H12B21416   1.878   1.815   2.384  0.5216 -0.0785  0.7989
  187POPC   C1321417   1.904   2.039   2.255 -0.2995 -0.5527 -0.5250
  187POPC  H13A21418   1.965   1.955   2.224 -1.0565 -1.3016 -0.0411
  187POPC  H13B21419   1.900   2.101   2.167  1.8661 -1.5399 -1.4172
  187POPC  H13C21420   1.963   2.100   2.322 -0.7497 -1.2052  0.4944
  187POPC   C1421421   1.691   1.956   2.194 -0.2405  0.0331 -0.5724
  187POPC  H14A21422   1.658   2.043   2.139  0.3108  1.1659  0.8443
  187POPC  H14B21423   1.745   1.899   2.119 -1.1440  0.5370 -1.6433
  187POPC  H14C21424   1.607   1.894   2.220 -1.6318  2.3794  0.8037
  187POPC   C1521425   1.698   2.107   2.376  0.2865 -0.1776 -0.0319
  187POPC  H15A21426   1.604   2.070   2.413  0.0683  0.0603 -0.3436
  187POPC  H15B21427   1.660   2.183   2.309 -0.9388 -1.5703 -0.9825
  187POPC  H15C21428   1.760   2.149   2.454  1.2039 -2.0440  0.3119
  187POPC   C1121429   1.668   1.783   2.445 -1.5178 -0.4162 -0.2786
  187POPC  H11A21430   1.700   1.682   2.479 -1.0373 -0.5013 -0.9514
  187POPC  H11B21431   1.612   1.763   2.352 -0.1074 -2.9860 -0.6540
  187POPC     P21432   1.625   1.856   2.699  0.0196 -0.2510  0.2488
  187POPC   O1321433   1.514   1.911   2.777 -0.1398 -0.1091  0.2346
  187POPC   O1421434   1.753   1.925   2.718 -0.4683 -0.4287  0.5273
  187POPC   O1221435   1.590   1.855   2.543 -0.1065  0.0244  0.4044
  187POPC   O1121436   1.643   1.702   2.734 -0.0546 -0.0218  0.5578
  187POPC    C121437   1.525   1.626   2.777  0.2365 -0.7275 -0.0370
  187POPC    HA21438   1.531   1.522   2.738 -0.8676 -0.4707 -0.9474
  187POPC    HB21439   1.427   1.663   2.739  0.7067  2.0258  1.2028
  187POPC    C221440   1.497   1.628   2.933 -0.2812  0.7285  0.0076
  187POPC    HS21441   1.479   1.730   2.973 -1.4301  1.2491 -1.7038
  187POPC   O2121442   1.596   1.553   3.001 -0.1280  0.1443 -0.0712
  187POPC   C2121443   1.670   1.609   3.087 -0.9648  0.1562  0.1331
  187POPC   O2221444   1.669   1.727   3.121 -0.1691 -0.0450 -0.0769
  187POPC   C2221445   1.774   1.504   3.142  0.0973  0.0275  0.4786
  187POPC   H2R21446   1.875   1.536   3.108  0.2280 -1.2102 -0.3809
  187POPC   H2S21447   1.759   1.406   3.093  1.2779  0.0126  0.1082
  187POPC    C321448   1.367   1.553   2.961  0.6641 -0.2000 -0.8594
  187POPC    HX21449   1.373   1.447   2.929 -0.9576 -0.0744 -1.6536
  187POPC    HY21450   1.280   1.594   2.906 -1.1652 -3.5553 -0.7188
  187POPC   O3121451   1.327   1.546   3.105 -0.1553 -0.2233 -0.5389
  187POPC   C3121452   1.269   1.653   3.153 -0.5870 -0.0689 -0.6385
  187POPC   O3221453   1.260   1.763   3.102  0.2129 -0.3307 -0.0138
  187POPC   C3221454   1.220   1.619   3.295 -0.2239 -0.1602 -0.3850
  187POPC   H2X21455   1.288   1.536   3.327  2.0867  2.2423  1.4130
  187POPC   H2Y21456   1.115   1.584   3.292  0.1756 -1.5334  0.4247
  187POPC   C2321457   1.786   1.497   3.293 -0.6268  0.7942 -0.1014
  187POPC   H3R21458   1.696   1.468   3.350  0.7116 -0.3293  1.5374
  187POPC   H3S21459   1.815   1.600   3.325 -0.4651  1.5285 -2.3697
  187POPC   C2421460   1.893   1.395   3.335  0.7562  0.1609  0.1614
  187POPC   H4R21461   1.986   1.417   3.278 -0.4225 -1.5637 -2.6039
  187POPC   H4S21462   1.867   1.289   3.315  0.5871  0.0156  1.0910
  187POPC   C2521463   1.930   1.414   3.484 -0.0246 -0.6871  0.1016
  187POPC   H5R21464   1.962   1.320   3.534 -0.4440 -1.7135 -1.4879
  187POPC   H5S21465   1.843   1.439   3.549  2.2475  1.5849  2.4894
  187POPC   C2621466   2.021   1.532   3.512  0.2546 -0.0656  0.1636
  187POPC   H6R21467   1.982   1.629   3.474  0.2594  0.4254  1.3857
  187POPC   H6S21468   2.119   1.507   3.465  0.0434 -1.2961  0.3429
  187POPC   C2721469   2.042   1.545   3.666 -0.2490 -0.4700 -0.4564
  187POPC   H7R21470   2.072   1.448   3.711  1.9696  1.0590  1.5808
  187POPC   H7S21471   1.952   1.581   3.720 -0.2292 -0.1878 -0.6103
  187POPC   C2821472   2.150   1.651   3.715 -0.4819  0.0580 -0.3769
  187POPC   H8R21473   2.104   1.749   3.736  2.7727  2.1029 -1.9626
  187POPC   H8S21474   2.218   1.653   3.627  0.2204  0.7414  0.1698
  187POPC   C2921475   2.230   1.610   3.838 -0.0309 -0.1389 -0.2204
  187POPC   H9121476   2.338   1.589   3.836  0.1559  0.5067  1.3244
  187POPC  C21021477   2.171   1.611   3.959  0.1691  0.0317 -0.1737
  187POPC  H10121478   2.243   1.589   4.040  0.6081 -3.1170 -1.2663
  187POPC  C21121479   2.026   1.625   3.988  0.0164 -0.2704 -0.5839
  187POPC  H11R21480   1.980   1.526   4.009 -0.0140 -0.5667 -1.9664
  187POPC  H11S21481   1.973   1.662   3.897 -0.1666  0.1664 -0.3034
  187POPC  C21221482   2.001   1.731   4.095  0.4687  0.3250  0.7055
  187POPC  H12R21483   1.894   1.758   4.101 -0.0691 -0.9296 -1.8593
  187POPC  H12S21484   2.052   1.822   4.057 -0.2761 -0.2197 -1.7692
  187POPC  C21321485   2.050   1.696   4.228  0.7815  0.2847 -0.0628
  187POPC  H13R21486   2.161   1.690   4.237  0.7236 -0.7707 -0.0139
  187POPC  H13S21487   2.020   1.593   4.253  0.5163  0.4600  0.3563
  187POPC  C21421488   2.000   1.785   4.345  0.0279  0.4583 -0.1758
  187POPC  H14R21489   1.890   1.800   4.351 -0.0540  0.3678 -1.2609
  187POPC  H14S21490   2.052   1.879   4.317  3.9004 -1.9204 -1.7741
  187POPC  C21521491   2.051   1.732   4.483  0.2259 -0.3360 -0.6068
  187POPC  H15R21492   2.162   1.731   4.479  0.2465 -0.0096 -0.1858
  187POPC  H15S21493   2.003   1.632   4.485  1.2691 -0.8504  1.7407
  187POPC  C21621494   1.985   1.814   4.594  0.3234  0.0035 -0.3551
  187POPC  H16R21495   1.877   1.830   4.575  0.2601  0.7924  0.5606
  187POPC  H16S21496   2.033   1.915   4.589 -0.4637  0.3237 -2.2558
  187POPC  C21721497   1.998   1.753   4.733  0.0078  0.6985 -0.5091
  187POPC  H17R21498   2.101   1.718   4.759 -0.0389  1.5632  0.9861
  187POPC  H17S21499   1.935   1.663   4.719  0.9724  0.0284 -0.7004
  187POPC  C21821500   1.937   1.842   4.845 -0.1577  0.4350  0.3395
  187POPC  H18R21501   1.898   1.773   4.923 -1.2195 -0.7074 -1.1534
  187POPC  H18S21502   1.845   1.894   4.813 -1.1408 -0.2716  1.8657
  187POPC  H18T21503   2.018   1.910   4.878  2.2328 -0.7700 -2.5839
  187POPC   C3321504   1.254   1.744   3.389 -0.5853 -0.9338  0.2125
  187POPC   H3X21505   1.218   1.837   3.341  1.8854  0.1461  0.2786
  187POPC   H3Y21506   1.364   1.753   3.402 -0.8856  1.5876  1.8037
  187POPC   C3421507   1.187   1.738   3.525  0.6526  0.1872  0.4755
  187POPC   H4X21508   1.193   1.635   3.567 -0.6070  0.0103  0.2647
  187POPC   H4Y21509   1.083   1.768   3.501  1.1276  4.6058  2.8591
  187POPC   C3521510   1.249   1.831   3.632  0.2246 -0.2065 -0.5086
  187POPC   H5X21511   1.239   1.939   3.606 -1.3957 -0.1679  0.1688
  187POPC   H5Y21512   1.358   1.811   3.645  0.4023  1.7696  1.9701
  187POPC   C3621513   1.199   1.817   3.779  0.2146 -0.1064 -0.9747
  187POPC   H6X21514   1.225   1.713   3.809  2.3655 -0.0499 -2.4016
  187POPC   H6Y21515   1.090   1.841   3.774  0.0677 -0.3442  0.7816
  187POPC   C3721516   1.266   1.920   3.877 -0.0502 -0.5539 -0.1944
  187POPC   H7X21517   1.221   2.020   3.857 -0.8342 -0.9140 -0.2992
  187POPC   H7Y21518   1.374   1.908   3.854 -0.3582 -1.9493 -1.0429
  187POPC   C3821519   1.239   1.899   4.024  0.0742  0.6016  0.1260
  187POPC   H8X21520   1.270   1.797   4.054  1.4986  1.7298  2.8372
  187POPC   H8Y21521   1.129   1.918   4.029  0.0403  0.6930 -0.7654
  187POPC   C3921522   1.310   2.003   4.105  0.6813 -0.7852  0.0159
  187POPC   H9X21523   1.319   2.101   4.054  1.2171 -0.6429  0.3722
  187POPC   H9Y21524   1.413   1.966   4.122  0.7253 -0.6190  0.1158
  187POPC  C31021525   1.229   2.035   4.238 -0.9613  0.4325 -0.0132
  187POPC  H10X21526   1.240   1.965   4.324 -1.2261  0.8927  0.4016
  187POPC  H10Y21527   1.122   2.030   4.206 -0.6118  0.2506 -1.1809
  187POPC  C31121528   1.258   2.185   4.287 -0.0322 -0.2883 -0.0990
  187POPC  H11X21529   1.238   2.256   4.205  0.6585  1.5689  1.2696
  187POPC  H11Y21530   1.366   2.188   4.313  0.2541 -0.6093 -1.1853
  187POPC  C31221531   1.166   2.231   4.398 -1.3042  0.0167  0.1441
  187POPC  H12X21532   1.171   2.154   4.478 -2.2599  0.5867  0.7684
  187POPC  H12Y21533   1.061   2.232   4.362 -0.7043  0.0482 -1.6964
  187POPC  C31321534   1.220   2.365   4.455  0.3253 -0.2341 -0.6693
  187POPC  H13X21535   1.196   2.453   4.392 -1.2023 -0.0697  0.1084
  187POPC  H13Y21536   1.328   2.387   4.469 -0.6573  4.5016  1.4918
  187POPC  C31421537   1.158   2.382   4.592  0.2353  0.6199  0.4645
  187POPC  H14X21538   1.179   2.285   4.640 -1.5291 -0.9416 -1.7023
  187POPC  H14Y21539   1.047   2.387   4.591  0.0929 -1.5443 -0.1845
  187POPC  C31521540   1.206   2.519   4.651  0.2658  0.0266 -0.6779
  187POPC  H15X21541   1.316   2.515   4.665  0.2473  1.4197 -0.0545
  187POPC  H15Y21542   1.166   2.519   4.755  1.7949 -1.5092 -0.0450
  187POPC  C31621543   1.172   2.650   4.580  0.1742 -0.4863  0.4113
  187POPC  H16X21544   1.240   2.674   4.495  0.6059 -0.4978  0.7481
  187POPC  H16Y21545   1.168   2.727   4.659 -0.0281 -0.3685  0.2863
  187POPC  H16Z21546   1.072   2.646   4.530 -0.6309  0.2644  1.9056
  188POPC     N21547   1.707   6.161   2.665 -0.3061 -0.4014 -0.6716
  188POPC   C1221548   1.824   6.227   2.739 -0.1031  0.6538  0.6350
  188POPC  H12A21549   1.816   6.333   2.752  3.2640  0.7934  3.2233
  188POPC  H12B21550   1.910   6.212   2.675 -1.3986 -0.2677 -0.9558
  188POPC   C1321551   1.584   6.151   2.748  0.5247 -0.2263 -0.7985
  188POPC  H13A21552   1.553   6.251   2.775 -1.2351 -0.1762 -2.7544
  188POPC  H13B21553   1.499   6.108   2.697  0.7386 -0.1978 -1.1827
  188POPC  H13C21554   1.622   6.104   2.838 -0.6712  0.7943  0.2845
  188POPC   C1421555   1.666   6.234   2.546  0.1697  0.5519 -0.0830
  188POPC  H14A21556   1.725   6.217   2.457  2.3325  0.8274  1.2179
  188POPC  H14B21557   1.567   6.200   2.519  0.0668  1.0038 -0.2847
  188POPC  H14C21558   1.664   6.339   2.572  3.6060  1.3234 -2.3268
  188POPC   C1521559   1.747   6.023   2.625 -0.1227 -0.6236 -0.5679
  188POPC  H15A21560   1.763   5.955   2.707 -3.2298 -2.6856 -1.4845
  188POPC  H15B21561   1.838   6.026   2.567  0.0970  0.7924 -0.1845
  188POPC  H15C21562   1.667   5.976   2.568 -1.2634  0.1577  0.3406
  188POPC   C1121563   1.857   6.164   2.877  0.2899  0.0358  0.8925
  188POPC  H11A21564   1.842   6.054   2.878 -1.7141  0.2773  1.9531
  188POPC  H11B21565   1.782   6.208   2.946 -0.6911  0.9395 -0.7170
  188POPC     P21566   2.115   6.112   2.925  0.1046  0.2868  0.2036
  188POPC   O1321567   2.208   6.171   3.027 -0.3586  0.4263  0.3663
  188POPC   O1421568   2.174   6.084   2.788 -0.0257 -0.1217  0.5960
  188POPC   O1221569   1.989   6.203   2.915  0.0666  0.4399 -0.8718
  188POPC   O1121570   2.037   5.984   2.981 -0.1906 -0.3664 -0.2042
  188POPC    C121571   1.978   5.984   3.113  0.2986  0.8227  0.2034
  188POPC    HA21572   1.901   5.903   3.115 -0.7835  1.7532  3.6930
  188POPC    HB21573   1.914   6.073   3.132 -2.6978 -1.7433  3.3995
  188POPC    C221574   2.077   5.961   3.230  0.2306 -0.1841 -0.4274
  188POPC    HS21575   2.139   6.054   3.230  0.2593 -0.1830 -1.8506
  188POPC   O2121576   2.152   5.842   3.205 -0.6072 -0.0061  0.1958
  188POPC   C2121577   2.273   5.835   3.251 -0.2893  0.6948  0.3415
  188POPC   O2221578   2.344   5.923   3.291 -0.0071 -0.2039  0.0369
  188POPC   C2221579   2.321   5.693   3.254  0.3827 -0.5076 -0.1690
  188POPC   H2R21580   2.429   5.688   3.226  0.4234 -1.1053  0.0788
  188POPC   H2S21581   2.262   5.632   3.181 -1.2087 -0.7341  1.2529
  188POPC    C321582   2.010   5.955   3.370 -0.6089 -0.2627  0.0286
  188POPC    HX21583   1.932   5.876   3.364 -1.4453  0.6217 -2.3835
  188POPC    HY21584   1.953   6.051   3.377  2.0089  1.7066 -2.8529
  188POPC   O3121585   2.089   5.922   3.490 -0.4890 -0.3259 -0.2707
  188POPC   C3121586   2.171   6.018   3.534  0.5528  0.3811 -0.2492
  188POPC   O3221587   2.168   6.136   3.506 -0.2571  0.4583  0.0580
  188POPC   C3221588   2.282   5.958   3.620 -0.4325 -0.0536  0.6103
  188POPC   H2X21589   2.369   5.937   3.554  0.6667 -2.1368  2.5708
  188POPC   H2Y21590   2.249   5.857   3.656 -0.7904  0.0961  0.7062
  188POPC   C2321591   2.302   5.622   3.398  0.3232 -0.0497 -0.1102
  188POPC   H3R21592   2.239   5.532   3.382 -1.2680  0.9327  0.4135
  188POPC   H3S21593   2.242   5.692   3.460 -1.9165 -0.5431 -1.6218
  188POPC   C2421594   2.438   5.600   3.462  0.7622 -0.1045 -0.3084
  188POPC   H4R21595   2.479   5.701   3.483 -0.2674  0.1548  0.5210
  188POPC   H4S21596   2.495   5.552   3.380  1.0509 -0.0306 -0.1535
  188POPC   C2521597   2.438   5.513   3.586 -1.1435 -0.2352  0.0539
  188POPC   H5R21598   2.542   5.472   3.591 -0.2725  1.4562 -2.3842
  188POPC   H5S21599   2.362   5.433   3.573 -2.8779  1.4683 -0.6055
  188POPC   C2621600   2.411   5.597   3.710 -0.6115  0.2043 -0.3733
  188POPC   H6R21601   2.304   5.621   3.729 -0.4125  0.8312 -0.0260
  188POPC   H6S21602   2.468   5.692   3.708  0.7977 -0.6049 -0.3985
  188POPC   C2721603   2.453   5.509   3.835 -0.2430  0.3284  0.0971
  188POPC   H7R21604   2.563   5.490   3.838 -0.7100 -3.6691 -2.1549
  188POPC   H7S21605   2.394   5.416   3.828 -0.2534  0.4195 -1.6020
  188POPC   C2821606   2.412   5.577   3.969  0.2788  0.5908  0.5988
  188POPC   H8R21607   2.409   5.492   4.041 -0.4670  1.5738  1.7571
  188POPC   H8S21608   2.308   5.614   3.962 -0.6754 -2.1977 -2.6243
  188POPC   C2921609   2.509   5.679   4.022 -0.2632  0.0801 -0.3302
  188POPC   H9121610   2.586   5.703   3.947  0.0823 -0.2943 -0.1013
  188POPC  C21021611   2.506   5.760   4.132  0.4946  0.7959 -0.2276
  188POPC  H10121612   2.586   5.831   4.157 -0.0217  1.3499 -0.1009
  188POPC  C21121613   2.393   5.748   4.230  0.9991  0.3946 -0.0069
  188POPC  H11R21614   2.304   5.699   4.184 -0.2102  3.1700 -0.8624
  188POPC  H11S21615   2.345   5.847   4.249 -3.3377 -1.9340  2.7513
  188POPC  C21221616   2.431   5.685   4.364 -0.1370 -0.4838  1.1816
  188POPC  H12R21617   2.531   5.712   4.405 -0.5596  0.3299  1.7280
  188POPC  H12S21618   2.431   5.575   4.350 -1.2360 -0.2188 -1.3568
  188POPC  C21321619   2.324   5.731   4.466 -0.1179 -0.3308 -0.1670
  188POPC  H13R21620   2.221   5.705   4.434 -1.0391  0.1213  2.2392
  188POPC  H13S21621   2.324   5.842   4.463 -0.7425 -0.3292 -0.1231
  188POPC  C21421622   2.356   5.683   4.611 -0.4668  0.5927 -0.5126
  188POPC  H14R21623   2.454   5.730   4.633 -0.3086 -0.1671  0.5095
  188POPC  H14S21624   2.381   5.575   4.609  1.1519  0.9523 -2.0942
  188POPC  C21521625   2.256   5.731   4.717 -0.1386 -0.8487 -0.5303
  188POPC  H15R21626   2.165   5.668   4.707 -0.1083 -1.4790  2.4211
  188POPC  H15S21627   2.224   5.837   4.705  0.7901 -0.6052 -0.9271
  188POPC  C21621628   2.307   5.707   4.856 -0.7169  0.2866 -0.2657
  188POPC  H16R21629   2.397   5.766   4.882 -0.4640 -0.4894  0.7079
  188POPC  H16S21630   2.332   5.599   4.859 -1.5178  0.0720 -0.9196
  188POPC  C21721631   2.197   5.742   4.964 -0.2732  0.6772  0.7654
  188POPC  H17R21632   2.249   5.700   5.053  2.8422  0.5119 -0.9702
  188POPC  H17S21633   2.113   5.673   4.944  0.8791 -1.6652  3.2522
  188POPC  C21821634   2.167   5.890   4.989  0.3386  0.3166 -0.5034
  188POPC  H18R21635   2.263   5.936   5.021  0.3648 -0.4036  0.5042
  188POPC  H18S21636   2.089   5.903   5.067  1.5776  0.6541  0.7328
  188POPC  H18T21637   2.140   5.946   4.897  3.5817  1.7981 -0.6854
  188POPC   C3321638   2.328   6.054   3.734  0.0293  0.3081  0.3088
  188POPC   H3X21639   2.236   6.055   3.796 -1.1204 -0.3356 -1.3133
  188POPC   H3Y21640   2.358   6.151   3.690  1.4501 -1.5240 -3.2051
  188POPC   C3421641   2.431   5.993   3.828 -0.5865  0.5956 -0.1070
  188POPC   H4X21642   2.529   5.956   3.790 -0.7189 -0.2241  0.3232
  188POPC   H4Y21643   2.390   5.895   3.862 -1.2891 -0.2822 -3.1695
  188POPC   C3521644   2.454   6.085   3.942 -0.6825 -0.5477 -0.3265
  188POPC   H5X21645   2.453   6.190   3.904 -0.2569  0.7538  2.9003
  188POPC   H5Y21646   2.553   6.080   3.992 -1.1696 -0.1949  0.7048
  188POPC   C3621647   2.355   6.088   4.057  0.7312  0.5163 -0.6181
  188POPC   H6X21648   2.330   5.984   4.089  1.2618  0.0599 -1.6093
  188POPC   H6Y21649   2.259   6.136   4.026  0.1924  0.4271  0.8500
  188POPC   C3721650   2.413   6.168   4.180 -0.4566 -0.6831 -0.3693
  188POPC   H7X21651   2.438   6.270   4.146 -1.0026 -0.6142 -0.5694
  188POPC   H7Y21652   2.509   6.121   4.212  0.6446  1.3595 -0.5512
  188POPC   C3821653   2.309   6.168   4.291  0.2030 -1.3538 -0.0148
  188POPC   H8X21654   2.257   6.072   4.309  1.0723 -2.0843 -1.2551
  188POPC   H8Y21655   2.236   6.248   4.266 -0.2444 -1.5684  0.5665
  188POPC   C3921656   2.383   6.207   4.419  0.1925  0.2969 -0.2903
  188POPC   H9X21657   2.418   6.312   4.427  0.5693  0.0576  1.7479
  188POPC   H9Y21658   2.470   6.140   4.437  0.6613  0.9377 -0.1120
  188POPC  C31021659   2.289   6.198   4.541 -0.7730  0.3695 -0.3285
  188POPC  H10X21660   2.280   6.096   4.584 -1.1580 -0.3513 -2.0095
  188POPC  H10Y21661   2.185   6.229   4.517 -1.2106 -1.1651 -0.5657
  188POPC  C31121662   2.344   6.281   4.659 -0.5874  0.0629  0.3381
  188POPC  H11X21663   2.341   6.390   4.638 -1.5926  0.0552  0.3874
  188POPC  H11Y21664   2.449   6.260   4.687 -0.9943 -2.4970  0.2021
  188POPC  C31221665   2.259   6.256   4.784 -0.7337  0.4845 -0.3116
  188POPC  H12X21666   2.289   6.159   4.828 -0.4581  1.0978  0.8839
  188POPC  H12Y21667   2.152   6.249   4.753 -0.4856 -0.1993 -1.0428
  188POPC  C31321668   2.289   6.356   4.894  0.4897  1.0411 -0.3136
  188POPC  H13X21669   2.293   6.451   4.836 -2.8106  0.4805 -1.6927
  188POPC  H13Y21670   2.393   6.333   4.927  0.1123 -1.7234 -0.7871
  188POPC  C31421671   2.192   6.367   5.009  0.6291 -0.1040 -0.0729
  188POPC  H14X21672   2.208   6.460   5.068  0.4899 -0.4617  0.5341
  188POPC  H14Y21673   2.224   6.282   5.073  0.0724 -0.2189  0.0604
  188POPC  C31521674   2.043   6.347   4.966 -0.8513 -0.3033 -0.8931
  188POPC  H15X21675   2.036   6.254   4.906 -2.3102 -1.4078  0.8531
  188POPC  H15Y21676   2.011   6.434   4.905 -1.9486 -0.0998 -0.0639
  188POPC  C31621677   1.943   6.340   5.085  0.3709  0.1954  0.1298
  188POPC  H16X21678   1.842   6.303   5.055 -0.6188  2.0168  1.0754
  188POPC  H16Y21679   1.942   6.433   5.146 -0.7121 -0.9594  1.9698
  188POPC  H16Z21680   1.983   6.266   5.158 -0.7191 -0.7761 -0.2172
  189SAPI   C1221681   4.655   6.633   7.499  0.2972 -0.0049 -0.9234
  189SAPI    H221682   4.748   6.649   7.440  0.8773 -1.6831 -0.5495
  189SAPI    O221683   4.698   6.560   7.614  0.2874 -0.1639 -0.3433
  189SAPI   HO221684   4.682   6.466   7.603 -3.2535  0.3078 -0.2387
  189SAPI   C1321685   4.603   6.763   7.537  0.4738  0.4735 -0.5564
  189SAPI    H321686   4.563   6.804   7.441 -1.0325 -0.6541 -0.4381
  189SAPI    O321687   4.708   6.843   7.585  0.1520 -0.0725  0.2333
  189SAPI   HO321688   4.772   6.806   7.646  0.8445  1.3816  0.4254
  189SAPI   C1421689   4.482   6.754   7.623  0.6342 -0.0611  0.0917
  189SAPI    H421690   4.508   6.713   7.723 -0.1255 -0.4056  0.1504
  189SAPI    O421691   4.420   6.879   7.652  0.3290 -0.0157  0.4066
  189SAPI   HO421692   4.444   6.893   7.744  0.8853 -1.7254  0.5530
  189SAPI   C1521693   4.380   6.654   7.568 -0.0573  0.4782 -0.6218
  189SAPI    H521694   4.312   6.711   7.502  0.3555 -0.0147 -1.5001
  189SAPI    O521695   4.303   6.604   7.677 -0.3135  0.2457  0.1597
  189SAPI   HO521696   4.264   6.681   7.720 -1.8227 -1.1527  1.4029
  189SAPI   C1621697   4.430   6.537   7.484 -0.0195  0.8087  0.4190
  189SAPI    H621698   4.447   6.454   7.556  1.2738  0.0220 -0.7447
  189SAPI    O621699   4.329   6.483   7.397  0.2316 -0.3886 -0.2909
  189SAPI   HO621700   4.290   6.555   7.348 -0.5262  0.7264  1.8004
  189SAPI   C1121701   4.563   6.552   7.420  0.4525  1.5909 -0.9405
  189SAPI    H121702   4.546   6.609   7.326  1.1051  2.6390 -0.4332
  189SAPI     P21703   4.715   6.405   7.245  0.2781  0.1717  0.7347
  189SAPI   O1321704   4.823   6.312   7.278  0.3455 -0.2981 -0.8393
  189SAPI   O1421705   4.748   6.537   7.190 -0.5815 -0.3466 -0.3395
  189SAPI   O1221706   4.627   6.423   7.379  0.1505 -0.0426 -0.3035
  189SAPI   O1121707   4.605   6.329   7.153  0.1536 -0.5348 -0.1719
  189SAPI    C121708   4.494   6.398   7.095  0.2589  0.0196  0.3231
  189SAPI    HA21709   4.408   6.396   7.165  0.8548  0.9480  1.1098
  189SAPI    HB21710   4.513   6.507   7.086 -0.7592  0.1314 -0.6461
  189SAPI    C221711   4.443   6.345   6.959  0.1926  0.0711 -0.6569
  189SAPI    HS21712   4.363   6.414   6.924  2.0435  2.5424 -0.3494
  189SAPI   O2121713   4.404   6.211   6.973  0.1880 -0.7185 -0.2331
  189SAPI   C2121714   4.292   6.177   6.906 -0.1541 -0.4644  0.0537
  189SAPI   O2221715   4.218   6.251   6.846  0.0398 -0.2345 -0.5833
  189SAPI   C2221716   4.273   6.026   6.917 -0.1447  0.9294 -0.2629
  189SAPI   H2R21717   4.312   5.991   7.014 -2.2215 -1.6700 -0.2403
  189SAPI   H2S21718   4.164   6.001   6.914 -0.0674  0.5569 -3.0724
  189SAPI    C321719   4.548   6.351   6.850  0.2725  0.3572  0.6074
  189SAPI    HX21720   4.631   6.287   6.886 -0.1869 -0.3013  0.5138
  189SAPI    HY21721   4.567   6.460   6.835 -3.1727  1.0565  0.5595
  189SAPI   O3121722   4.498   6.300   6.725  0.5064 -0.3005  0.7913
  189SAPI   C3121723   4.430   6.383   6.654 -0.1898 -0.2333  0.4474
  189SAPI   O3221724   4.383   6.492   6.685 -0.2019  0.2058 -0.1878
  189SAPI   C3221725   4.376   6.328   6.529  0.2069  0.4250  1.3176
  189SAPI   H2X21726   4.378   6.217   6.536 -1.3197  0.2264 -0.6057
  189SAPI   H2Y21727   4.439   6.365   6.446 -2.0535  2.3603  0.3620
  189SAPI   C2321728   4.338   5.944   6.806 -0.5628  0.0762 -0.6067
  189SAPI   H3R21729   4.347   5.839   6.839  0.5466  0.3016 -0.1319
  189SAPI   H3S21730   4.447   5.965   6.815 -0.2508 -1.4716 -0.5732
  189SAPI   C2421731   4.287   5.960   6.664  0.1255 -0.2823  0.4776
  189SAPI   H4R21732   4.371   5.945   6.593  0.8887  0.7836  1.1329
  189SAPI   H4S21733   4.259   6.067   6.662 -0.3715 -0.3906  1.0512
  189SAPI   C2521734   4.172   5.884   6.606 -0.2126  0.6057 -0.0665
  189SAPI   H5R21735   4.090   5.864   6.676 -1.1489  0.1957 -1.2523
  189SAPI   C2621736   4.173   5.833   6.485  0.0248  0.7525 -0.0516
  189SAPI   H6R21737   4.074   5.790   6.464  0.7136 -2.0908  2.0355
  189SAPI   C2721738   4.283   5.839   6.383 -0.6910  0.0592 -0.0231
  189SAPI   H7R21739   4.381   5.822   6.433  0.8970  1.8529 -2.3287
  189SAPI   H7S21740   4.280   5.942   6.343 -2.2260  1.4641  3.3543
  189SAPI   C2821741   4.269   5.723   6.277 -0.0880  0.0573 -0.0860
  189SAPI   H8R21742   4.286   5.622   6.317  0.3700 -0.1055 -0.6689
  189SAPI   C2921743   4.253   5.737   6.144  0.0822  0.3833  1.2249
  189SAPI   H9R21744   4.257   5.645   6.083 -1.7284  1.6703 -0.9939
  189SAPI  C21021745   4.223   5.858   6.064  0.0686 -0.0352  0.3519
  189SAPI  H10R21746   4.271   5.853   5.964 -2.4971  1.7730 -1.0749
  189SAPI  H10S21747   4.254   5.949   6.121  1.3511 -1.3608  1.8470
  189SAPI  C21121748   4.074   5.874   6.043 -0.3852 -0.0799  0.2490
  189SAPI  H11R21749   4.018   5.907   6.132 -1.4675  0.3404 -0.5672
  189SAPI  C21221750   4.010   5.846   5.931  0.6827 -0.0051 -0.3407
  189SAPI  H12R21751   3.900   5.844   5.927  0.5914 -2.6803  0.9920
  189SAPI  C21321752   4.067   5.803   5.803 -0.0096  0.6379 -0.2445
  189SAPI  H13R21753   4.021   5.703   5.792  1.6981 -0.1424 -0.5931
  189SAPI  H13S21754   4.176   5.782   5.800  0.1583  0.8000  2.2665
  189SAPI  C21421755   4.046   5.897   5.689 -0.0409  0.0518 -0.5426
  189SAPI  H14R21756   4.115   5.982   5.695  1.0135 -0.8268  0.2704
  189SAPI  C21521757   3.988   5.870   5.571 -0.0947  0.2278 -0.1362
  189SAPI  H15R21758   3.995   5.960   5.509  1.1770  0.4012  0.2367
  189SAPI  C21621759   3.901   5.753   5.548  0.3271  0.6443 -0.0068
  189SAPI  H16R21760   3.878   5.680   5.628 -1.9970 -0.6923 -1.7802
  189SAPI  H16S21761   3.947   5.693   5.466  2.9626  0.1629  1.6987
  189SAPI  C21721762   3.754   5.793   5.503  0.6713  0.3687  0.0439
  189SAPI  H17R21763   3.706   5.860   5.578 -0.3916  1.7355 -1.7757
  189SAPI  H17S21764   3.705   5.693   5.508 -2.3078  1.6970 -0.4687
  189SAPI  C21821765   3.752   5.848   5.354  0.1323 -0.6592 -0.2065
  189SAPI  H18R21766   3.797   5.763   5.298  3.1604  0.8586 -0.3112
  189SAPI  H18S21767   3.815   5.940   5.348 -3.2935  1.9023 -0.0346
  189SAPI  C21921768   3.612   5.879   5.305  0.5208 -0.0013  0.8790
  189SAPI  H19R21769   3.613   5.927   5.205  2.6940 -1.0980  0.2931
  189SAPI  H19S21770   3.555   5.951   5.366 -2.1254 -0.9291 -0.3470
  189SAPI  C22021771   3.521   5.753   5.292  0.4029 -0.1199 -0.2634
  189SAPI  H20R21772   3.437   5.769   5.220  1.0937  1.4072 -0.7796
  189SAPI  H20S21773   3.491   5.717   5.392 -0.3119  1.3908  0.0965
  189SAPI  H20T21774   3.586   5.677   5.244  2.7241  1.7706 -0.3289
  189SAPI   C3321775   4.233   6.376   6.498  0.3428 -0.3413  0.3983
  189SAPI   H3X21776   4.242   6.476   6.450  0.2959 -0.1375  0.8072
  189SAPI   H3Y21777   4.181   6.378   6.596 -1.4138  0.6663 -0.5102
  189SAPI   C3421778   4.149   6.271   6.423  0.2984  0.1595  0.2519
  189SAPI   H4X21779   4.049   6.316   6.409  0.8002  0.9667 -1.0305
  189SAPI   H4Y21780   4.140   6.186   6.493 -0.4605  0.7818  0.9260
  189SAPI   C3521781   4.207   6.234   6.287  0.0868 -0.5581  0.0666
  189SAPI   H5X21782   4.161   6.137   6.258 -0.9483 -0.1635  0.3154
  189SAPI   H5Y21783   4.317   6.230   6.277  0.3927  1.7365  1.5903
  189SAPI   C3621784   4.166   6.333   6.168  0.2495 -0.2916 -0.5911
  189SAPI   H6X21785   4.237   6.418   6.162  0.6537 -0.5025  0.7688
  189SAPI   H6Y21786   4.064   6.370   6.190 -0.7435 -3.3461  0.4649
  189SAPI   C3721787   4.154   6.266   6.034 -0.4411 -0.0307 -0.4526
  189SAPI   H7X21788   4.095   6.172   6.048  1.6889 -1.3488  0.0996
  189SAPI   H7Y21789   4.255   6.223   6.016 -0.0418 -0.8481  2.9946
  189SAPI   C3821790   4.098   6.348   5.910 -0.4259 -0.5503 -0.6421
  189SAPI   H8X21791   4.163   6.436   5.892  1.0570 -0.8573  2.4882
  189SAPI   H8Y21792   3.993   6.373   5.937 -0.2292 -0.1873 -0.2098
  189SAPI   C3921793   4.112   6.272   5.779  0.7267  0.0400  0.1648
  189SAPI   H9X21794   4.067   6.171   5.774 -1.9523  1.1814 -2.4222
  189SAPI   H9Y21795   4.218   6.248   5.761  0.8226  0.2954  0.3754
  189SAPI  C31021796   4.043   6.354   5.666 -0.3846  0.1037 -0.2016
  189SAPI  H10X21797   4.092   6.453   5.657 -0.0679  0.4409  3.6863
  189SAPI  H10Y21798   3.937   6.371   5.691 -0.4977 -1.8822  0.8815
  189SAPI  C31121799   4.065   6.305   5.516 -0.3238  1.3578 -0.0585
  189SAPI  H11X21800   4.045   6.196   5.512 -2.3742  1.5151  2.6855
  189SAPI  H11Y21801   4.167   6.331   5.480 -0.4762 -0.1337 -1.6956
  189SAPI  C31221802   3.966   6.367   5.421  0.3890 -1.2182  0.1743
  189SAPI  H12X21803   3.987   6.475   5.411  2.3817 -1.5741  0.0690
  189SAPI  H12Y21804   3.866   6.342   5.462  1.2051 -1.7493  1.9709
  189SAPI  C31321805   3.973   6.312   5.280 -0.2489 -0.5501 -0.7831
  189SAPI  H13X21806   3.975   6.202   5.266 -1.0418 -0.4324 -1.9738
  189SAPI  H13Y21807   4.074   6.348   5.250 -1.4936  4.0546 -0.2271
  189SAPI  C31421808   3.857   6.371   5.188 -0.4151 -0.3327 -0.1232
  189SAPI  H14X21809   3.884   6.343   5.084 -2.0591  0.9394 -0.9497
  189SAPI  H14Y21810   3.861   6.482   5.200  0.6461 -0.2697 -0.8965
  189SAPI  C31521811   3.723   6.315   5.228  0.5725  0.2118 -0.4800
  189SAPI  H15X21812   3.691   6.336   5.332  2.9551 -0.6087  0.4892
  189SAPI  H15Y21813   3.719   6.204   5.221 -0.8996  0.3385 -2.8377
  189SAPI  C31621814   3.606   6.361   5.134 -0.3206 -0.0740 -0.0595
  189SAPI  H16X21815   3.578   6.468   5.143  0.0231  0.4810 -3.7152
  189SAPI  H16Y21816   3.514   6.306   5.164 -0.1799 -1.4106 -1.8557
  189SAPI  C31721817   3.630   6.344   4.990  0.0962 -0.1179  0.4172
  189SAPI  H17X21818   3.724   6.389   4.952 -0.1786  0.3836  0.3267
  189SAPI  H17Y21819   3.560   6.409   4.934  0.4876  1.2983  1.5029
  189SAPI  C31821820   3.619   6.200   4.954  0.2396  0.1605  0.1430
  189SAPI  H18X21821   3.516   6.168   4.984  0.3602  0.6321  1.0803
  189SAPI  H18Y21822   3.683   6.131   5.013  0.2833  0.9232  1.0075
  189SAPI  H18Z21823   3.630   6.186   4.844 -1.7418  0.5318 -0.1500
  190SAPI   C1221824   4.755   0.994   7.405 -0.0076 -0.3580 -0.0232
  190SAPI    H221825   4.652   1.031   7.386  0.0425  0.2133  0.8018
  190SAPI    O221826   4.806   1.087   7.501 -0.0224 -0.3078  0.3818
  190SAPI   HO221827   4.780   1.176   7.478 -2.6861 -1.1590 -0.1985
  190SAPI   C1321828   4.753   0.847   7.450 -0.2777 -0.6766  0.3113
  190SAPI    H321829   4.730   0.774   7.369  0.4180 -0.9833  0.3748
  190SAPI    O321830   4.655   0.821   7.547  0.2396 -0.5799 -0.4622
  190SAPI   HO321831   4.685   0.878   7.619  1.8846 -2.1622  0.1838
  190SAPI   C1421832   4.893   0.810   7.486 -0.6284 -0.3731 -0.2526
  190SAPI    H421833   4.923   0.884   7.563  0.6934 -1.0925 -0.0334
  190SAPI    O421834   4.904   0.679   7.542 -0.3502 -1.0287  0.0945
  190SAPI   HO421835   4.866   0.612   7.485  0.1781 -0.5362 -0.8479
  190SAPI   C1521836   4.989   0.834   7.368 -0.1717  0.0751 -0.7107
  190SAPI    H521837   4.967   0.755   7.292  0.0278 -0.6816  0.0076
  190SAPI    O521838   5.130   0.819   7.402 -0.1500 -0.5797 -0.5518
  190SAPI   HO521839   5.163   0.737   7.363 -0.2553  0.2397 -2.4478
  190SAPI   C1621840   4.962   0.953   7.270 -0.1249 -0.7443 -0.0281
  190SAPI    H621841   5.011   1.035   7.328 -0.6563 -0.6063  0.2265
  190SAPI    O621842   5.034   0.954   7.143  0.8630  0.4379 -0.0195
  190SAPI   HO621843   5.000   0.884   7.087 -1.0771  2.0194 -0.9269
  190SAPI   C1121844   4.822   1.010   7.268  0.2298 -0.2693 -0.2109
  190SAPI    H121845   4.762   0.945   7.201 -1.5041 -1.7265  2.5571
  190SAPI     P21846   4.694   1.222   7.155  0.1518  0.1396  0.1366
  190SAPI   O1321847   4.735   1.365   7.125  0.3265 -0.4553 -0.5602
  190SAPI   O1421848   4.569   1.197   7.235 -0.5681  0.1553 -0.0240
  190SAPI   O1221849   4.824   1.155   7.230 -0.0393  0.8903 -0.8187
  190SAPI   O1121850   4.697   1.140   7.018 -0.4471 -0.3026 -0.2063
  190SAPI    C121851   4.819   1.136   6.942 -0.3548  0.3642  0.0768
  190SAPI    HA21852   4.918   1.150   6.991 -0.2478  0.1914 -0.0865
  190SAPI    HB21853   4.821   1.038   6.889  1.1285  0.6149 -0.3764
  190SAPI    C221854   4.829   1.242   6.828 -0.4159  0.1899 -0.7590
  190SAPI    HS21855   4.811   1.341   6.873  1.0335  0.6101 -1.0286
  190SAPI   O2121856   4.729   1.214   6.729 -0.3004 -0.5775  0.0912
  190SAPI   C2121857   4.673   1.321   6.674 -0.9272  0.6298  0.0242
  190SAPI   O2221858   4.707   1.437   6.685  0.0875  0.8801 -0.3042
  190SAPI   C2221859   4.565   1.257   6.585 -1.0399 -0.3587  0.5396
  190SAPI   H2R21860   4.591   1.275   6.478 -1.2387  0.9154  0.6861
  190SAPI   H2S21861   4.555   1.147   6.588 -0.0727 -0.4586  0.2285
  190SAPI    C321862   4.969   1.239   6.759 -0.0061 -0.2132 -0.5969
  190SAPI    HX21863   4.987   1.142   6.709  1.1590 -0.7284  0.7493
  190SAPI    HY21864   5.056   1.255   6.827 -0.3453  0.5454 -0.3215
  190SAPI   O3121865   4.981   1.342   6.661  1.0069  0.2215  0.6059
  190SAPI   C3121866   4.997   1.462   6.712 -0.3471  0.0896  0.2982
  190SAPI   O3221867   5.025   1.493   6.826  0.2029 -0.4057  0.3412
  190SAPI   C3221868   4.986   1.567   6.598 -1.6553 -0.0733 -0.5880
  190SAPI   H2X21869   4.883   1.590   6.564 -1.1976  1.6173 -0.8943
  190SAPI   H2Y21870   5.050   1.515   6.522 -2.5629 -3.3075  0.6708
  190SAPI   C2321871   4.426   1.323   6.597  0.0291 -0.0995  0.2822
  190SAPI   H3R21872   4.431   1.431   6.569 -0.6949 -0.2028 -0.2757
  190SAPI   H3S21873   4.397   1.305   6.703  0.4848 -0.6143  0.3214
  190SAPI   C2421874   4.327   1.243   6.505  0.2951 -0.5953 -0.3523
  190SAPI   H4R21875   4.231   1.284   6.542  1.5032  0.3187  1.9501
  190SAPI   H4S21876   4.335   1.135   6.531  3.1451 -0.2452  0.5102
  190SAPI   C2521877   4.331   1.268   6.356  0.0461  0.3392 -0.6382
  190SAPI   H5R21878   4.270   1.354   6.323 -1.4673 -1.1399 -1.9045
  190SAPI   C2621879   4.403   1.201   6.268  0.6655  0.0990 -0.6684
  190SAPI   H6R21880   4.402   1.241   6.165 -0.9138  0.6667 -0.4550
  190SAPI   C2721881   4.491   1.074   6.273  0.2376  0.3295 -0.7011
  190SAPI   H7R21882   4.416   0.997   6.245 -0.1409  0.6537 -0.5991
  190SAPI   H7S21883   4.516   1.045   6.377  1.0410  1.3158 -0.6018
  190SAPI   C2821884   4.604   1.054   6.173 -0.4103  0.6345 -0.2757
  190SAPI   H8R21885   4.703   1.072   6.218 -0.0486 -0.1286 -0.7460
  190SAPI   C2921886   4.599   1.003   6.048  0.3076  0.0690  0.6575
  190SAPI   H9R21887   4.691   1.002   5.988  0.2179  0.8827  0.4938
  190SAPI  C21021888   4.468   0.968   5.979  0.1495 -0.3502  0.4173
  190SAPI  H10R21889   4.380   1.013   6.030  0.0375  0.4892 -0.4807
  190SAPI  H10S21890   4.448   0.859   5.986 -1.4531 -0.2565 -1.5311
  190SAPI  C21121891   4.457   1.007   5.836  0.3202 -0.4085 -0.0348
  190SAPI  H11R21892   4.428   1.112   5.817 -1.3020 -0.9420 -0.6922
  190SAPI  C21221893   4.443   0.919   5.732  0.5155  0.1325  0.2646
  190SAPI  H12R21894   4.422   0.960   5.632 -0.3609  0.2008  0.4665
  190SAPI  C21321895   4.468   0.768   5.738 -0.0647 -0.2618 -0.1622
  190SAPI  H13R21896   4.535   0.751   5.825  0.6353 -1.4463 -0.8969
  190SAPI  H13S21897   4.508   0.736   5.639  1.2469  0.1782  0.2053
  190SAPI  C21421898   4.338   0.693   5.765  0.6820 -0.1111  0.1932
  190SAPI  H14R21899   4.312   0.692   5.872 -0.3289 -0.4913 -0.0475
  190SAPI  C21521900   4.270   0.618   5.685 -0.4024 -0.6776  0.3654
  190SAPI  H15R21901   4.175   0.575   5.721 -1.9229  1.2420 -1.1057
  190SAPI  C21621902   4.291   0.614   5.529  0.0541  0.1891  0.5446
  190SAPI  H16R21903   4.259   0.516   5.489 -0.2034  0.9621 -1.2571
  190SAPI  H16S21904   4.396   0.623   5.494 -0.3307 -0.3400 -0.8534
  190SAPI  C21721905   4.199   0.710   5.449  0.1383  0.2033 -0.1744
  190SAPI  H17R21906   4.209   0.816   5.479  0.9728  0.8941 -2.6493
  190SAPI  H17S21907   4.098   0.677   5.481  0.2818  0.7342  0.8825
  190SAPI  C21821908   4.198   0.706   5.295 -0.5294 -0.7086  0.0913
  190SAPI  H18R21909   4.305   0.719   5.268 -0.6782  3.1789  0.7979
  190SAPI  H18S21910   4.151   0.795   5.249  0.1274  0.5055  1.6660
  190SAPI  C21921911   4.119   0.584   5.243  0.3816 -0.4853 -0.0541
  190SAPI  H19R21912   4.021   0.585   5.294  1.2646 -0.8205  1.7324
  190SAPI  H19S21913   4.176   0.492   5.270  2.9328  0.3129 -2.2049
  190SAPI  C22021914   4.096   0.585   5.096  0.0382  0.2917  0.4824
  190SAPI  H20R21915   4.042   0.675   5.062  3.1216  2.3535  0.6228
  190SAPI  H20S21916   4.032   0.502   5.059  0.0918  1.1355 -1.6130
  190SAPI  H20T21917   4.191   0.594   5.038 -0.5852 -0.8392 -0.7644
  190SAPI   C3321918   5.055   1.695   6.655 -0.3184 -0.0698  0.0167
  190SAPI   H3X21919   5.164   1.682   6.668 -0.4080 -0.4375  0.4281
  190SAPI   H3Y21920   5.011   1.723   6.753 -0.4121  1.5860 -0.4536
  190SAPI   C3421921   5.044   1.819   6.569 -0.1334 -0.1757 -0.6031
  190SAPI   H4X21922   5.081   1.910   6.621  0.2208 -0.9797  0.5834
  190SAPI   H4Y21923   4.934   1.839   6.565 -0.3350 -0.8859  0.6483
  190SAPI   C3521924   5.104   1.815   6.425 -0.5254  0.5837 -0.0977
  190SAPI   H5X21925   5.054   1.727   6.379  0.5804 -0.3359  0.4137
  190SAPI   H5Y21926   5.211   1.793   6.448 -0.5617 -0.9864 -1.2183
  190SAPI   C3621927   5.098   1.939   6.335 -0.3398 -0.3557 -0.1011
  190SAPI   H6X21928   5.148   2.022   6.390 -0.0548 -1.0474  0.7048
  190SAPI   H6Y21929   4.989   1.962   6.336 -0.4170  0.0806  4.4253
  190SAPI   C3721930   5.159   1.915   6.201 -0.3272 -0.3612  0.3059
  190SAPI   H7X21931   5.253   1.857   6.212  1.1309  1.4265 -1.7255
  190SAPI   H7Y21932   5.188   2.018   6.172 -2.4896  0.3064  0.3941
  190SAPI   C3821933   5.062   1.869   6.096 -0.5617 -0.3044  0.0640
  190SAPI   H8X21934   4.965   1.920   6.116 -0.4326 -0.8127  2.1929
  190SAPI   H8Y21935   5.025   1.767   6.123 -1.1860 -0.0465  0.2133
  190SAPI   C3921936   5.120   1.876   5.957 -0.1546 -0.5862  0.3369
  190SAPI   H9X21937   5.196   1.795   5.958  0.3836 -0.0878  0.7171
  190SAPI   H9Y21938   5.153   1.975   5.918 -4.0526  1.4070  1.5698
  190SAPI  C31021939   5.009   1.844   5.849 -0.3571  0.1891  0.1422
  190SAPI  H10X21940   4.946   1.936   5.854  2.5844  2.3109  1.2402
  190SAPI  H10Y21941   4.949   1.755   5.879  0.5313 -0.2309  0.7163
  190SAPI  C31121942   5.078   1.815   5.712 -1.0786 -0.1652 -0.4180
  190SAPI  H11X21943   5.129   1.719   5.732 -3.9626 -1.7225 -0.0130
  190SAPI  H11Y21944   5.145   1.898   5.681 -0.2321  0.9081  3.7179
  190SAPI  C31221945   4.968   1.799   5.604  0.4918 -0.1744  0.0990
  190SAPI  H12X21946   4.892   1.879   5.614  0.4659 -0.4362  2.7343
  190SAPI  H12Y21947   4.912   1.706   5.628 -1.6225  1.2206  0.8215
  190SAPI  C31321948   5.015   1.780   5.462  0.3428  0.4233 -0.1814
  190SAPI  H13X21949   5.125   1.799   5.463  0.2724  0.8978 -0.8790
  190SAPI  H13Y21950   4.973   1.854   5.391 -1.4671 -0.0884  0.3064
  190SAPI  C31421951   4.987   1.643   5.407  0.2523  0.1017  0.4627
  190SAPI  H14X21952   4.878   1.624   5.413  0.2247  0.5472  1.4995
  190SAPI  H14Y21953   5.023   1.561   5.473 -2.9654 -1.0694  0.9286
  190SAPI  C31521954   5.024   1.632   5.258 -0.6177 -0.5772  0.6966
  190SAPI  H15X21955   5.133   1.648   5.264 -0.4182 -2.0834  1.4768
  190SAPI  H15Y21956   4.975   1.716   5.204 -0.6367 -0.7950  0.3711
  190SAPI  C31621957   4.987   1.495   5.192 -0.1169 -0.2034  0.0622
  190SAPI  H16X21958   4.877   1.494   5.175 -0.0455 -1.8740 -0.5054
  190SAPI  H16Y21959   5.004   1.414   5.266 -0.5907  0.6339  1.1224
  190SAPI  C31721960   5.054   1.453   5.062  0.5527 -0.0415  0.4316
  190SAPI  H17X21961   5.038   1.532   4.987  0.4065 -1.6676 -1.3268
  190SAPI  H17Y21962   4.995   1.366   5.025 -0.3162  0.8118 -0.2063
  190SAPI  C31821963   5.193   1.396   5.067  0.0621  0.1756 -0.6213
  190SAPI  H18X21964   5.212   1.345   4.970  0.7780  0.0835 -0.4407
  190SAPI  H18Y21965   5.214   1.324   5.149  0.5566 -0.7137 -1.5148
  190SAPI  H18Z21966   5.259   1.483   5.091  1.7514 -1.5305  1.2813
  191SAPI   C1221967   3.845   5.944   2.594  0.0601 -0.3489 -0.0750
  191SAPI    H221968   3.878   6.041   2.552 -1.8754  0.9931  1.3432
  191SAPI    O221969   3.708   5.927   2.566  0.1756  0.6593 -0.5172
  191SAPI   HO221970   3.659   5.959   2.642  2.0991 -0.8396  1.4399
  191SAPI   C1321971   3.931   5.827   2.540  0.7741  0.3201 -0.0609
  191SAPI    H321972   4.030   5.837   2.589  0.2590  3.1751  0.6060
  191SAPI    O321973   3.938   5.837   2.398 -0.2457  0.8223 -0.2185
  191SAPI   HO321974   3.852   5.819   2.360 -0.2377 -0.7063  0.4090
  191SAPI   C1421975   3.869   5.693   2.579  0.5302  0.2422 -0.0127
  191SAPI    H421976   3.764   5.695   2.543 -1.2062  0.6886  4.4440
  191SAPI    O421977   3.933   5.580   2.520  0.0988  0.0214 -0.2423
  191SAPI   HO421978   4.020   5.563   2.558  0.0821  1.0100  0.2689
  191SAPI   C1521979   3.849   5.675   2.734  0.5830  0.4010  0.2625
  191SAPI    H521980   3.948   5.645   2.774  0.1417 -0.3828  0.8022
  191SAPI    O521981   3.753   5.572   2.767 -0.1213  0.5522 -0.7048
  191SAPI   HO521982   3.746   5.520   2.686 -0.0286  2.0132 -1.6872
  191SAPI   C1621983   3.809   5.809   2.809  0.3270  0.4079 -0.1743
  191SAPI    H621984   3.698   5.804   2.803  0.1216  3.3196 -0.3106
  191SAPI    O621985   3.829   5.799   2.943 -0.2616 -0.6851  0.0360
  191SAPI   HO621986   3.924   5.794   2.951 -0.0343  1.4000 -0.7496
  191SAPI   C1121987   3.855   5.948   2.742 -0.2249 -0.1185  0.2687
  191SAPI    H121988   3.961   5.968   2.767 -0.3358 -0.3453  0.9513
  191SAPI     P21989   3.819   6.192   2.854 -0.2901 -0.2644  0.0365
  191SAPI   O1321990   3.704   6.281   2.851  0.1317 -0.7055 -0.1516
  191SAPI   O1421991   3.943   6.231   2.790  1.0322  0.6541  0.7206
  191SAPI   O1221992   3.771   6.045   2.801  0.6548 -0.3495  0.2253
  191SAPI   O1121993   3.851   6.163   3.006  0.0900 -0.3279 -0.4644
  191SAPI    C121994   3.746   6.121   3.096 -0.2261  0.4084  0.4688
  191SAPI    HA21995   3.672   6.204   3.100 -0.7771 -0.0443 -0.1422
  191SAPI    HB21996   3.695   6.030   3.058 -1.8665  1.1041  0.9068
  191SAPI    C221997   3.799   6.090   3.236 -0.5754  1.1136 -0.3253
  191SAPI    HS21998   3.714   6.066   3.303 -0.6714  0.9150 -0.5190
  191SAPI   O2121999   3.872   6.210   3.277  0.2126  0.2360 -0.1538
  191SAPI   C2122000   3.805   6.306   3.335  0.4859 -0.0389  0.1629
  191SAPI   O2222001   3.684   6.300   3.355  0.4072 -0.2298  0.4589
  191SAPI   C2222002   3.888   6.425   3.361 -0.6100 -1.0722  0.0486
  191SAPI   H2R22003   3.993   6.397   3.384  0.1912 -0.8544 -2.8433
  191SAPI   H2S22004   3.890   6.495   3.274 -2.0170  1.2369  1.7569
  191SAPI    C322005   3.888   5.952   3.241  0.3864  0.5505  0.6791
  191SAPI    HX22006   3.949   5.959   3.148 -2.1295 -1.8230 -1.3385
  191SAPI    HY22007   3.824   5.862   3.229  0.1293  0.6557  1.2154
  191SAPI   O3122008   3.972   5.937   3.355 -0.1918 -0.0801 -0.7071
  191SAPI   C3122009   3.904   5.929   3.472 -0.4698 -0.1022  0.7412
  191SAPI   O3222010   3.786   5.929   3.480 -0.2414  0.9294 -1.0208
  191SAPI   C3222011   4.000   5.945   3.592  1.2984 -0.0965  0.0418
  191SAPI   H2X22012   4.030   6.052   3.595 -0.1445  0.3410 -0.6362
  191SAPI   H2Y22013   4.091   5.884   3.571 -0.5023 -2.0149 -2.8546
  191SAPI   C2322014   3.820   6.514   3.477  0.0358 -0.1461  0.8306
  191SAPI   H3R22015   3.710   6.514   3.460  0.3176 -2.3920 -1.6081
  191SAPI   H3S22016   3.856   6.617   3.461 -1.2643  0.3261  0.8006
  191SAPI   C2422017   3.854   6.478   3.630 -0.0370 -0.2538 -0.1233
  191SAPI   H4R22018   3.781   6.547   3.678 -1.2077  0.5551 -2.8691
  191SAPI   H4S22019   3.960   6.500   3.658  0.4217 -0.8068 -1.3420
  191SAPI   C2522020   3.816   6.341   3.667  0.4657 -0.2575 -0.0193
  191SAPI   H5R22021   3.768   6.288   3.584  0.6553 -0.8099  0.2167
  191SAPI   C2622022   3.842   6.288   3.786 -0.2859  0.0964 -0.2596
  191SAPI   H6R22023   3.823   6.181   3.802  1.5288 -0.0797  0.9278
  191SAPI   C2722024   3.883   6.361   3.909 -0.0876 -0.0482 -0.4971
  191SAPI   H7R22025   3.946   6.445   3.874 -1.5768  1.0111 -0.6828
  191SAPI   H7S22026   3.958   6.305   3.970  0.3761  1.0415 -0.0441
  191SAPI   C2822027   3.775   6.437   3.984  0.0204 -0.4132 -0.0661
  191SAPI   H8R22028   3.692   6.478   3.925 -0.9217 -1.4435  0.5021
  191SAPI   C2922029   3.765   6.438   4.121 -0.1617 -0.3386  0.5468
  191SAPI   H9R22030   3.675   6.480   4.170  0.6241 -1.2236  2.8727
  191SAPI  C21022031   3.856   6.378   4.217 -0.3133 -0.0199 -0.1253
  191SAPI  H10R22032   3.863   6.460   4.293 -0.8972 -0.1431  0.0684
  191SAPI  H10S22033   3.960   6.375   4.177 -0.1104  1.2991  0.2450
  191SAPI  C21122034   3.822   6.255   4.291 -0.2652  0.0007  0.2331
  191SAPI  H11R22035   3.817   6.170   4.222 -0.2553 -0.2759  0.5707
  191SAPI  C21222036   3.805   6.240   4.425 -0.7289  0.3737  0.0826
  191SAPI  H12R22037   3.762   6.148   4.468 -0.7101 -0.9164 -2.4376
  191SAPI  C21322038   3.809   6.353   4.527 -0.9082 -0.2254 -0.3899
  191SAPI  H13R22039   3.849   6.453   4.500 -0.6300  0.1605  1.3368
  191SAPI  H13S22040   3.873   6.314   4.610  1.9398  1.0225 -1.8581
  191SAPI  C21422041   3.674   6.371   4.591  0.1909 -0.6302  0.3864
  191SAPI  H14R22042   3.613   6.280   4.602 -1.1582 -0.2156 -2.6567
  191SAPI  C21522043   3.608   6.483   4.606  0.1388 -0.0395 -0.0722
  191SAPI  H15R22044   3.514   6.489   4.662  0.4079  1.7394  0.2646
  191SAPI  C21622045   3.655   6.624   4.589 -0.0101 -1.0433  0.3864
  191SAPI  H16R22046   3.614   6.667   4.495  0.4358 -0.1951  0.5673
  191SAPI  H16S22047   3.765   6.626   4.575 -0.0090 -0.0189  0.4891
  191SAPI  C21722048   3.634   6.726   4.709 -0.4804 -0.1767  0.0301
  191SAPI  H17R22049   3.524   6.724   4.724 -0.8769 -1.3687 -2.5877
  191SAPI  H17S22050   3.650   6.833   4.685 -3.2992  0.5658  1.0568
  191SAPI  C21822051   3.709   6.686   4.837 -0.8903  0.2402  0.4588
  191SAPI  H18R22052   3.815   6.700   4.809 -1.4352  1.6830 -1.1030
  191SAPI  H18S22053   3.702   6.576   4.849 -0.8305  0.1664 -0.1601
  191SAPI  C21922054   3.664   6.760   4.965  0.3068  0.2553  0.2427
  191SAPI  H19R22055   3.562   6.725   4.992  1.0967 -1.1840  1.5212
  191SAPI  H19S22056   3.667   6.863   4.922  2.6343 -0.5144 -1.6791
  191SAPI  C22022057   3.759   6.747   5.079  0.2235  0.7207  0.3288
  191SAPI  H20R22058   3.749   6.828   5.155 -1.8613  0.7900  0.0266
  191SAPI  H20S22059   3.862   6.735   5.041 -0.7797 -0.0320 -2.3520
  191SAPI  H20T22060   3.739   6.653   5.134  0.1786 -0.4413 -1.5900
  191SAPI   C3322061   3.921   5.895   3.712 -0.3201  0.0824  0.3150
  191SAPI   H3X22062   3.889   5.789   3.719 -1.2517  0.3738  0.6223
  191SAPI   H3Y22063   3.826   5.953   3.707 -0.0179  0.5980  0.4757
  191SAPI   C3422064   4.002   5.927   3.838  0.7087  0.9607 -0.4747
  191SAPI   H4X22065   4.046   6.029   3.847 -0.1817  1.3043  0.2249
  191SAPI   H4Y22066   4.086   5.856   3.847  1.8871  2.5479  2.3007
  191SAPI   C3522067   3.905   5.918   3.952  0.3969 -0.7333 -0.0396
  191SAPI   H5X22068   3.846   5.827   3.930 -0.0119 -0.8792  1.5876
  191SAPI   H5Y22069   3.843   6.010   3.942 -0.3572 -1.1973  0.3329
  191SAPI   C3622070   3.981   5.905   4.087 -0.6139 -0.1832 -0.9178
  191SAPI   H6X22071   4.048   5.990   4.111  1.2013 -2.0065  0.7937
  191SAPI   H6Y22072   4.057   5.826   4.072 -0.8683 -0.5022 -0.5535
  191SAPI   C3722073   3.889   5.866   4.199  0.1140 -0.4315 -0.1084
  191SAPI   H7X22074   3.830   5.780   4.159  0.5003 -0.6812 -0.1509
  191SAPI   H7Y22075   3.815   5.947   4.211  0.4075 -0.4779  2.7448
  191SAPI   C3822076   3.964   5.822   4.328  0.3861  0.3795 -0.3808
  191SAPI   H8X22077   4.011   5.917   4.363  2.0473 -0.4794 -0.1814
  191SAPI   H8Y22078   4.034   5.740   4.303  0.1711 -0.1929  0.8523
  191SAPI   C3922079   3.870   5.781   4.439 -0.2389 -1.0442  0.0649
  191SAPI   H9X22080   3.832   5.678   4.422  1.2256 -1.4714 -0.7384
  191SAPI   H9Y22081   3.779   5.845   4.436 -0.0930 -0.8047  0.6975
  191SAPI  C31022082   3.943   5.783   4.579  0.8846  0.0461 -0.0243
  191SAPI  H10X22083   3.874   5.742   4.656 -0.4172 -0.4293 -1.4167
  191SAPI  H10Y22084   3.973   5.889   4.594  2.3326 -0.4041  0.4724
  191SAPI  C31122085   4.067   5.698   4.592  0.3790 -1.0252 -0.2588
  191SAPI  H11X22086   4.139   5.736   4.517 -0.5903  3.0184  0.6443
  191SAPI  H11Y22087   4.031   5.593   4.598 -0.4689 -0.6499  2.4937
  191SAPI  C31222088   4.120   5.720   4.735  0.6183 -0.4063  0.4074
  191SAPI  H12X22089   4.060   5.669   4.813 -0.2666  0.1760  0.1175
  191SAPI  H12Y22090   4.126   5.829   4.756 -1.0204 -0.6380  2.3545
  191SAPI  C31322091   4.266   5.663   4.743  0.3118  0.6761  0.2707
  191SAPI  H13X22092   4.336   5.717   4.676 -1.0109 -0.3906 -2.0898
  191SAPI  H13Y22093   4.264   5.555   4.719  0.7823  0.6484  0.3450
  191SAPI  C31422094   4.313   5.673   4.885  0.9636  0.9275 -0.0271
  191SAPI  H14X22095   4.232   5.639   4.952  1.1924 -0.2340 -0.3034
  191SAPI  H14Y22096   4.322   5.779   4.916 -1.5887  0.8856  1.0891
  191SAPI  C31522097   4.443   5.599   4.924 -0.4689  0.4178  0.2045
  191SAPI  H15X22098   4.524   5.622   4.852  0.0889 -0.5132  0.5192
  191SAPI  H15Y22099   4.426   5.489   4.917  0.0355  0.3848 -0.6892
  191SAPI  C31622100   4.495   5.649   5.066  0.1296  0.0059  0.2958
  191SAPI  H16X22101   4.416   5.650   5.144  0.8195  1.3624  1.0147
  191SAPI  H16Y22102   4.517   5.756   5.046 -2.8987  0.5376 -0.6752
  191SAPI  C31722103   4.625   5.582   5.117  0.0840  0.0621  0.5929
  191SAPI  H17X22104   4.665   5.624   5.212 -0.0714  0.3505  0.5328
  191SAPI  H17Y22105   4.704   5.600   5.042  0.5240 -0.6252  0.8804
  191SAPI  C31822106   4.610   5.436   5.160 -0.5600  0.6572  0.7057
  191SAPI  H18X22107   4.561   5.376   5.080  1.4865 -0.3724  0.1414
  191SAPI  H18Y22108   4.541   5.415   5.244 -1.4947 -1.0506 -0.4345
  191SAPI  H18Z22109   4.708   5.392   5.188 -0.8302 -0.0522  0.5600
  192SAPI   C1222110   5.945   6.359   2.372 -0.1818 -0.7864 -0.4954
  192SAPI    H222111   5.921   6.457   2.417  0.3640  0.2578 -2.3356
  192SAPI    O222112   5.819   6.310   2.319 -0.4323 -0.3190  0.0538
  192SAPI   HO222113   5.748   6.360   2.361 -0.8119  0.0962 -1.0370
  192SAPI   C1322114   6.048   6.388   2.263  0.5957  0.3600 -0.2202
  192SAPI    H322115   6.145   6.425   2.303  2.4676 -2.2056 -2.0768
  192SAPI    O322116   6.014   6.484   2.171 -0.7816 -0.2480  0.2353
  192SAPI   HO322117   5.918   6.495   2.175 -1.0096 -2.0399  0.7416
  192SAPI   C1422118   6.089   6.257   2.198 -0.1035 -0.1815 -0.2587
  192SAPI    H422119   6.006   6.224   2.133 -0.3392  2.0904 -1.2180
  192SAPI    O422120   6.207   6.273   2.118  0.4169  0.4945 -0.1137
  192SAPI   HO422121   6.190   6.234   2.031  0.2706 -0.0901  0.1708
  192SAPI   C1522122   6.110   6.140   2.292  0.7945  1.0584 -0.5834
  192SAPI    H522123   6.211   6.157   2.334 -0.3717  1.4388  2.3229
  192SAPI    O522124   6.112   6.018   2.224  0.3875 -1.1401  0.6639
  192SAPI   HO522125   6.182   5.964   2.261  0.3122 -1.6951  0.0147
  192SAPI   C1622126   6.021   6.122   2.422  0.1149 -0.2930  0.8160
  192SAPI    H622127   5.930   6.067   2.390  0.4778 -0.8093  0.6481
  192SAPI    O622128   6.078   6.033   2.515 -0.0465  0.6782 -0.3023
  192SAPI   HO622129   6.002   5.993   2.558 -1.0169  1.8796 -0.8417
  192SAPI   C1122130   5.994   6.257   2.480 -0.8993 -0.2336 -0.7710
  192SAPI    H122131   6.090   6.299   2.518 -1.3904  0.8038 -0.6397
  192SAPI     P22132   5.934   6.316   2.731  0.2538  0.0392  0.2453
  192SAPI   O1322133   5.823   6.313   2.824 -0.0784 -0.1583 -0.2787
  192SAPI   O1422134   5.992   6.448   2.701  0.3489  0.2778  0.2004
  192SAPI   O1222135   5.895   6.238   2.587 -0.1550  0.0401  0.3945
  192SAPI   O1122136   6.037   6.221   2.791 -0.3010 -0.5263  0.2665
  192SAPI    C122137   6.007   6.114   2.877 -0.0973  0.6067  0.0578
  192SAPI    HA22138   5.902   6.079   2.885  0.7474 -1.9802  1.0532
  192SAPI    HB22139   6.070   6.030   2.841  0.2024  0.6380  0.4992
  192SAPI    C222140   6.061   6.150   3.018  0.4310 -0.0057  0.1361
  192SAPI    HS22141   6.110   6.250   3.012  0.1182  0.2424  1.4431
  192SAPI   O2122142   6.144   6.041   3.066 -0.4756 -0.0336  0.0703
  192SAPI   C2122143   6.241   6.077   3.149  0.0350  0.9059 -0.3196
  192SAPI   O2222144   6.281   6.188   3.169  0.0069  0.3955 -0.7359
  192SAPI   C2222145   6.288   5.950   3.218 -0.3525  0.1093 -0.1654
  192SAPI   H2R22146   6.201   5.895   3.262  0.7158 -1.1782  0.4010
  192SAPI   H2S22147   6.324   5.873   3.145 -0.1548 -0.4233  0.4862
  192SAPI    C322148   5.945   6.172   3.116  0.8747 -0.0322 -0.2031
  192SAPI    HX22149   5.894   6.074   3.127  1.9980 -0.5460  0.6013
  192SAPI    HY22150   5.871   6.237   3.065 -1.1736 -3.1883 -1.6112
  192SAPI   O3122151   5.998   6.230   3.240  0.2204  0.1311  0.0767
  192SAPI   C3122152   5.932   6.202   3.349  0.7037 -0.2248  0.8671
  192SAPI   O3222153   5.841   6.122   3.361 -0.1298  0.0660 -0.4570
  192SAPI   C3222154   6.000   6.285   3.456  0.1362  0.2631 -0.0879
  192SAPI   H2X22155   5.970   6.392   3.459  1.2385  0.5618  0.9430
  192SAPI   H2Y22156   6.109   6.278   3.436  0.6158 -0.9949  2.5133
  192SAPI   C2322157   6.401   5.968   3.324 -0.4989  0.0748  0.3227
  192SAPI   H3R22158   6.372   6.037   3.406 -1.5551 -0.4877  0.4340
  192SAPI   H3S22159   6.487   6.020   3.277  0.3647  0.0917  1.8233
  192SAPI   C2422160   6.454   5.841   3.389 -0.7381 -0.2569 -0.0415
  192SAPI   H4R22161   6.544   5.878   3.442  0.0758 -1.3410 -0.6189
  192SAPI   H4S22162   6.481   5.770   3.307 -0.4726 -0.4885  0.2445
  192SAPI   C2522163   6.346   5.777   3.474 -0.1779 -0.0024 -0.5682
  192SAPI   H5R22164   6.255   5.742   3.423 -1.3812 -1.9980  2.6168
  192SAPI   C2622165   6.336   5.773   3.608  0.1029  0.0016 -0.2592
  192SAPI   H6R22166   6.255   5.717   3.656 -0.0467 -0.4688 -1.0494
  192SAPI   C2722167   6.444   5.821   3.699  0.3814  0.2778  0.2102
  192SAPI   H7R22168   6.508   5.902   3.657 -2.0664  1.5188 -1.3556
  192SAPI   H7S22169   6.512   5.737   3.725 -0.0553 -0.1228  0.0844
  192SAPI   C2822170   6.381   5.865   3.830  0.0779  0.4947  0.2148
  192SAPI   H8R22171   6.361   5.973   3.840  0.0476  0.4046  1.2684
  192SAPI   C2922172   6.364   5.795   3.945 -0.3690 -0.1080  0.5234
  192SAPI   H9R22173   6.306   5.839   4.027 -1.9298 -1.5902  0.2829
  192SAPI  C21022174   6.390   5.642   3.956  0.7334 -0.5263 -0.2764
  192SAPI  H10R22175   6.499   5.629   3.972  0.6892  0.1729  0.6744
  192SAPI  H10S22176   6.358   5.591   3.863  0.7388 -1.9597  0.4701
  192SAPI  C21122177   6.312   5.589   4.070 -0.4002  0.3456 -0.5943
  192SAPI  H11R22178   6.212   5.548   4.051 -0.8517  1.0959  0.1130
  192SAPI  C21222179   6.363   5.572   4.195 -0.3759  0.2044  0.3506
  192SAPI  H12R22180   6.301   5.536   4.278 -0.5251 -0.3982 -0.0187
  192SAPI  C21322181   6.494   5.629   4.241  0.2742  0.1006 -0.5603
  192SAPI  H13R22182   6.471   5.672   4.341  0.2954  3.9647 -2.0163
  192SAPI  H13S22183   6.529   5.716   4.181 -0.5887  2.1304  1.7141
  192SAPI  C21422184   6.604   5.533   4.246 -0.0738  0.2453 -0.0371
  192SAPI  H14R22185   6.657   5.511   4.152  0.5395 -0.2794  0.4182
  192SAPI  C21522186   6.656   5.482   4.363  0.4761  0.4769 -0.2652
  192SAPI  H15R22187   6.748   5.426   4.343  1.5078  2.2909 -0.8015
  192SAPI  C21622188   6.613   5.483   4.508  0.2635  0.4631  0.4295
  192SAPI  H16R22189   6.552   5.571   4.536  0.3912  0.8018 -0.3541
  192SAPI  H16S22190   6.706   5.473   4.570  0.5708  1.9869  0.2462
  192SAPI  C21722191   6.527   5.362   4.534  0.5544  0.7801  0.1989
  192SAPI  H17R22192   6.590   5.276   4.504  0.3095 -0.5307  3.1175
  192SAPI  H17S22193   6.432   5.363   4.478 -0.6328  2.3394  2.1013
  192SAPI  C21822194   6.494   5.341   4.674  0.6779 -0.5340 -0.3284
  192SAPI  H18R22195   6.460   5.442   4.707  2.4606  0.7832 -2.2548
  192SAPI  H18S22196   6.591   5.324   4.726  0.8694 -0.8130 -0.7757
  192SAPI  C21922197   6.401   5.221   4.709  0.1175  0.0206 -0.4273
  192SAPI  H19R22198   6.420   5.140   4.635 -2.1661 -1.1661  0.1920
  192SAPI  H19S22199   6.298   5.251   4.682  0.9637 -0.0437 -4.3431
  192SAPI  C22022200   6.402   5.171   4.859 -0.0494 -0.5158 -0.3315
  192SAPI  H20R22201   6.378   5.261   4.920  0.9568 -1.9923  2.3712
  192SAPI  H20S22202   6.502   5.128   4.879  1.3480  3.2450  1.8676
  192SAPI  H20T22203   6.327   5.092   4.881 -0.2325 -1.4439 -3.6542
  192SAPI   C3322204   5.995   6.227   3.598 -0.2742  0.1361  0.2595
  192SAPI   H3X22205   6.043   6.127   3.585  0.5971  0.7589 -1.8596
  192SAPI   H3Y22206   5.898   6.233   3.650  0.8626  0.7473  2.4020
  192SAPI   C3422207   6.102   6.297   3.696  0.0333 -0.7170  0.1628
  192SAPI   H4X22208   6.081   6.406   3.687 -1.7769 -1.0492 -0.1559
  192SAPI   H4Y22209   6.202   6.279   3.650  0.1527  1.8996 -0.7429
  192SAPI   C3522210   6.111   6.240   3.836 -0.1840 -0.0546 -0.1754
  192SAPI   H5X22211   6.126   6.130   3.830 -0.0800 -0.1765  1.6098
  192SAPI   H5Y22212   6.011   6.256   3.882 -0.2510 -1.4827  0.2383
  192SAPI   C3622213   6.223   6.301   3.928  0.5554  0.2413 -0.1110
  192SAPI   H6X22214   6.217   6.406   3.894 -3.5182 -0.3922 -1.9164
  192SAPI   H6Y22215   6.318   6.255   3.894  0.6857  0.2845  0.1843
  192SAPI   C3722216   6.195   6.268   4.078  0.4091 -0.0099 -0.1978
  192SAPI   H7X22217   6.086   6.280   4.098  0.1415  0.0267 -1.5662
  192SAPI   H7Y22218   6.260   6.331   4.143  0.6007  0.5681 -0.9294
  192SAPI   C3822219   6.222   6.123   4.117  0.3757  0.0955  1.1085
  192SAPI   H8X22220   6.331   6.104   4.109  0.8439  2.5644  0.8710
  192SAPI   H8Y22221   6.160   6.055   4.056 -0.1040  2.5021 -1.2600
  192SAPI   C3922222   6.207   6.091   4.271  0.7602 -0.2586  0.4575
  192SAPI   H9X22223   6.107   6.113   4.314 -0.0963 -1.3815 -0.8535
  192SAPI   H9Y22224   6.280   6.156   4.323  3.1759 -2.1453 -0.3412
  192SAPI  C31022225   6.242   5.945   4.305 -0.3247  0.4385  0.0047
  192SAPI  H10X22226   6.327   5.909   4.243 -1.3862 -0.2124 -1.1107
  192SAPI  H10Y22227   6.155   5.882   4.277 -0.8699  0.7136  1.0106
  192SAPI  C31122228   6.280   5.924   4.458  0.3051  0.4600  0.1469
  192SAPI  H11X22229   6.364   5.994   4.476  0.5138  0.2907 -0.1574
  192SAPI  H11Y22230   6.312   5.818   4.462 -0.9491 -0.0233 -1.4041
  192SAPI  C31222231   6.159   5.936   4.548  0.1752 -0.3803  0.1606
  192SAPI  H12X22232   6.068   5.942   4.484  0.4151 -1.6779 -0.3346
  192SAPI  H12Y22233   6.171   6.035   4.597 -0.3231 -1.2004  2.0456
  192SAPI  C31322234   6.166   5.829   4.659  0.1334 -0.0649 -0.2752
  192SAPI  H13X22235   6.165   5.720   4.636 -2.0770 -0.6882  2.2218
  192SAPI  H13Y22236   6.081   5.851   4.727  1.3265 -1.9428  1.9573
  192SAPI  C31422237   6.294   5.852   4.745  0.8132 -0.3291 -0.2073
  192SAPI  H14X22238   6.276   5.956   4.780 -1.3948 -0.4908 -0.7227
  192SAPI  H14Y22239   6.390   5.849   4.689 -0.1139 -0.9931 -1.8371
  192SAPI  C31522240   6.306   5.757   4.870 -0.2604  0.1448 -0.5686
  192SAPI  H15X22241   6.293   5.653   4.832 -0.8869  0.0682 -0.1541
  192SAPI  H15Y22242   6.220   5.784   4.934  0.9492  2.4286  0.2103
  192SAPI  C31622243   6.432   5.760   4.953  1.0594 -0.2779 -0.1084
  192SAPI  H16X22244   6.423   5.842   5.027 -1.2138  0.4088 -1.0341
  192SAPI  H16Y22245   6.519   5.771   4.886  0.8187  0.3410 -0.3249
  192SAPI  C31722246   6.457   5.628   5.040  0.0993  0.0165  0.1672
  192SAPI  H17X22247   6.452   5.546   4.965  1.0496 -0.3130  0.4580
  192SAPI  H17Y22248   6.378   5.623   5.118 -0.1730  0.2213 -0.0891
  192SAPI  C31822249   6.604   5.614   5.092 -0.5534  0.2098 -0.9349
  192SAPI  H18X22250   6.614   5.541   5.175 -0.0006  0.8606 -0.4201
  192SAPI  H18Y22251   6.637   5.711   5.135 -0.8130 -0.3651  0.6370
  192SAPI  H18Z22252   6.682   5.586   5.018 -0.8852 -1.7852 -0.5916
  193SOD    SOD22253   5.362   4.258   8.006 -0.1065 -0.1252  0.0282
  194SOD    SOD22254   6.091   1.947   0.035 -0.1804  0.1263  0.0489
  195SOD    SOD22255   6.734   0.993   7.883 -0.0229  0.4203  0.1872
  196SOD    SOD22256   3.348   0.401   2.161 -0.0281 -0.1636 -0.4734
  197SOD    SOD22257   1.435   4.720   2.491  1.1576  0.0152  0.3069
  198SOD    SOD22258   0.614   5.187   8.510  0.2589 -0.1508 -0.2518
  199SOD    SOD22259   4.030   6.423   7.987  0.0469  0.1149 -0.4056
  200SOD    SOD22260   5.342   0.700   1.322 -0.0758 -0.2336  0.2635
  201SOD    SOD22261   0.346   1.697   0.624  0.2000 -0.1210  0.1038
  202SOD    SOD22262   2.256   5.008   7.941 -0.1461  0.3931 -0.2607
  203SOD    SOD22263   6.104   4.942   1.406  0.3515 -0.6228 -0.1583
  204SOD    SOD22264   1.762   3.650   0.761  0.3900 -0.5038  0.3350
  205SOD    SOD22265   5.185   2.952   7.267  0.6727  0.3965  0.4115
  206SOD    SOD22266   5.187   6.457   7.515  0.0190  0.2824  0.1226
  207SOD    SOD22267   0.324   4.737   2.367  0.2299  0.2122 -0.1673
  208SOD    SOD22268   6.120   6.264   7.699  0.1272  0.2488 -0.2223
  209SOD    SOD22269   4.009   5.781   7.869 -0.1125 -0.5130  0.0260
  210SOD    SOD22270   0.570   3.541   7.639 -0.5267 -0.4897 -0.0179
  211SOD    SOD22271   3.123   6.628   0.190 -0.9177 -0.5703 -0.0839
  212SOD    SOD22272   3.220   6.261   1.482  0.4421  0.2465  0.5636
  213SOD    SOD22273   1.038   4.918   1.948  0.0699  0.0755  0.2186
  214SOD    SOD22274   3.523   4.516   2.561 -0.1159 -0.1995  0.4844
  215SOD    SOD22275   2.422   6.177   2.043 -0.3101 -0.2041  0.2815
  216SOD    SOD22276   2.504   2.844   2.934 -0.0523 -0.0055 -0.0764
  217SOD    SOD22277   5.939   1.520   7.006 -0.0898  0.2579  0.2405
  218SOD    SOD22278   1.532   0.125   8.677  0.4938 -0.1226 -0.0174
  219SOD    SOD22279   6.280   5.932   2.555 -0.5205  0.3161 -0.0779
  220SOD    SOD22280   4.524   1.917   2.625 -0.2504  0.4633 -0.2743
  221SOD    SOD22281   2.614   1.188   8.277  0.1445  0.4843  0.1851
  222SOD    SOD22282   3.910   1.860   7.429 -0.1734  0.0846 -0.2951
  223SOD    SOD22283   0.662   3.938   2.856  0.1833 -0.4145 -0.5113
  224SOD    SOD22284   0.492   0.041   2.837 -0.2097  0.0325 -0.2040
  225SOD    SOD22285   5.801   0.143   7.036 -0.1665 -0.0319  0.1162
  226SOD    SOD22286   3.464   6.015   2.193  0.0313  0.3133 -0.4558
  227SOD    SOD22287   5.401   4.282   2.190 -0.3622  0.6442  0.5189
  228SOD    SOD22288   0.734   1.778   1.760  0.0621  0.2552 -0.0139
  229SOD    SOD22289   0.599   3.743   2.257 -0.1097 -0.4214 -0.1173
  230SOD    SOD22290   2.343   2.571   1.614  0.2293  0.2073  0.0663
  231SOD    SOD22291   4.879   0.588   3.050 -0.0767 -0.3960 -0.1017
  232SOD    SOD22292   1.673   3.065   0.964 -0.1154 -0.2657  0.2450
  233SOD    SOD22293   3.055   1.129   7.651  0.0790 -0.3963  0.0586
  234CLA    CLA22294   6.635   1.485   1.434  0.0208 -0.1167  0.3950
  235CLA    CLA22295   6.129   2.185   0.654  0.2784  0.0201  0.3144
  236CLA    CLA22296   0.465   5.096   2.189 -0.0756 -0.2081 -0.3982
  237CLA    CLA22297   2.955   3.674   1.149  0.2446 -0.2606 -0.0680
  238CLA    CLA22298   2.126   0.438   1.015 -0.1132  0.3014  0.0417
  239CLA    CLA22299   3.560   0.752   0.120 -0.2258  0.0573 -0.1536
  240CLA    CLA22300   6.792   5.005   0.157  0.0290  0.1535 -0.0316
  241CLA    CLA22301   1.057   1.017   1.884 -0.0431  0.1320  0.3880
  242CLA    CLA22302   0.894   0.002   1.610  0.4599 -0.3893 -0.1896
  243CLA    CLA22303   2.818   6.465   2.251 -0.1326 -0.6420 -0.1385
  244CLA    CLA22304   2.303   0.212   2.445 -0.1019 -0.0566  0.1292
  245CLA    CLA22305   2.500   0.228   8.088  0.1553  0.2845 -0.0838
  246CLA    CLA22306   4.716   4.423   0.605 -0.2777  0.1675 -0.2379
  247CLA    CLA22307   3.061   0.273   0.808  0.2616  0.0452  0.0138
  248CLA    CLA22308   0.386   5.965   8.458  0.0787  0.4023 -0.0722
  249CLA    CLA22309   4.829   0.898   1.388 -0.0716 -0.1495  0.1671
  250CLA    CLA22310   3.741   2.810   1.456  0.0912 -0.3021  0.3122
  251TIP3   OH222311   0.788   5.902   1.263 -0.1418 -0.0790 -0.1013
  251TIP3    H122312   0.803   5.988   1.223  0.3555  0.9278  2.1095
  251TIP3    H222313   0.708   5.912   1.313  0.6266 -0.4751  1.2480
  252TIP3   OH222314   0.109   0.938   1.664  0.7551  0.0731 -0.1645
  252TIP3    H122315   0.017   0.916   1.647  0.8504  0.8058 -1.8516
  252TIP3    H222316   0.135   0.881   1.736 -0.7528 -0.8014 -0.2764
  253TIP3   OH222317   2.272   2.614   7.166 -0.3120 -0.6725  0.0864
  253TIP3    H122318   2.201   2.679   7.165 -0.0151 -0.3211 -2.3691
  253TIP3    H222319   2.333   2.643   7.099 -0.2015 -3.5212 -1.1703
  254TIP3   OH222320   0.661   0.746   7.285  0.2317 -0.1230  0.5012
  254TIP3    H122321   0.663   0.685   7.211  1.6258  0.3819  0.0891
  254TIP3    H222322   0.748   0.739   7.324 -0.1575  0.3666  1.4708
  255TIP3   OH222323   1.522   0.587   0.847  0.1246  0.3437  0.2516
  255TIP3    H122324   1.506   0.669   0.800  1.7417 -0.0206 -1.0331
  255TIP3    H222325   1.616   0.572   0.837 -0.1929 -1.8472  0.1365
  256TIP3   OH222326   2.604   1.874   1.645 -0.2073 -0.3730 -0.9262
  256TIP3    H122327   2.634   1.957   1.610 -0.9862  0.1391 -0.4197
  256TIP3    H222328   2.539   1.898   1.711 -2.0575 -1.4353 -2.2741
  257TIP3   OH222329   4.524   6.371   0.651  0.0533  0.0540 -0.6451
  257TIP3    H122330   4.475   6.291   0.630 -1.0886 -0.0013  1.8814
  257TIP3    H222331   4.615   6.342   0.660 -0.2015 -0.7911 -0.7040
  258TIP3   OH222332   2.652   4.218   2.337 -0.5157  0.3399 -0.1528
  258TIP3    H122333   2.581   4.281   2.350 -1.1261 -0.2447 -0.6106
  258TIP3    H222334   2.609   4.139   2.303  0.3415 -0.0447 -0.3772
  259TIP3   OH222335   1.147   5.652   2.254 -0.9188  0.4471 -0.7760
  259TIP3    H122336   1.173   5.733   2.297 -0.7833  0.5828 -1.1023
  259TIP3    H222337   1.199   5.651   2.173 -0.8813  0.0102 -0.7499
  260TIP3   OH222338   2.941   6.311   0.059  0.8761 -0.1917  0.5896
  260TIP3    H122339   2.917   6.387   0.113  0.0039 -0.0769  0.0648
  260TIP3    H222340   2.903   6.236   0.105  0.5907 -0.1557  0.4128
  261TIP3   OH222341   5.621   3.327   1.668 -0.5969  0.7265  0.3431
  261TIP3    H122342   5.566   3.324   1.590 -1.1824 -1.6829  0.7644
  261TIP3    H222343   5.709   3.341   1.635 -0.9676  0.7536 -0.6745
  262TIP3   OH222344   4.031   1.445   0.836 -0.1240  0.6011 -0.5075
  262TIP3    H122345   3.955   1.425   0.891  0.9579 -1.2983  0.3867
  262TIP3    H222346   4.062   1.530   0.867 -1.5484  1.1679 -0.5477
  263TIP3   OH222347   1.298   5.985   7.198  0.4332 -0.1192 -0.0828
  263TIP3    H122348   1.212   5.951   7.173  0.9173 -1.8418  0.4621
  263TIP3    H222349   1.356   5.958   7.127  0.8221 -0.3944  0.3375
  264TIP3   OH222350   2.435   6.036   0.415 -0.4188  0.0724 -0.0038
  264TIP3    H122351   2.342   6.010   0.410 -0.0133 -1.1856 -2.7738
  264TIP3    H222352   2.433   6.127   0.444 -2.3173 -0.7143  2.7946
  265TIP3   OH222353   4.621   5.742   7.877  0.5319  0.3732 -0.4201
  265TIP3    H122354   4.562   5.732   7.952 -1.7675  1.8229 -1.8823
  265TIP3    H222355   4.708   5.725   7.912 -0.4683  0.6119  2.4689
  266TIP3   OH222356   1.618   4.399   8.288  0.2221 -0.4878  0.3447
  266TIP3    H122357   1.706   4.366   8.303  0.2524 -0.8939 -0.6018
  266TIP3    H222358   1.560   4.336   8.330  0.3219 -1.2547 -0.6291
  267TIP3   OH222359   1.205   6.611   8.725  0.2628  0.2632 -0.2606
  267TIP3    H122360   1.226   6.562   8.645  0.4521 -0.2153  0.0791
  267TIP3    H222361   1.269   6.581   8.789 -1.4950 -1.3557  0.8598
  268TIP3   OH222362   5.349   4.892   1.304  0.3252  0.1382 -0.1756
  268TIP3    H122363   5.285   4.850   1.361 -0.2576  0.4810 -0.5712
  268TIP3    H222364   5.407   4.940   1.364  0.1329 -0.0586  0.1703
  269TIP3   OH222365   2.611   6.781   8.151 -0.1775  0.1422  0.2321
  269TIP3    H122366   2.586   6.873   8.143 -2.2261 -0.3332  0.5161
  269TIP3    H222367   2.546   6.734   8.100  1.3368 -1.1229 -0.6169
  270TIP3   OH222368   6.715   1.286   7.191 -0.8887 -0.3851  0.0428
  270TIP3    H122369   6.798   1.268   7.146 -0.7157  1.4609 -0.4256
  270TIP3    H222370   6.650   1.285   7.121 -0.7472  1.5734 -0.1700
  271TIP3   OH222371   6.659   0.608   8.648  0.5626 -0.0019  0.2531
  271TIP3    H122372   6.570   0.597   8.681 -0.2236 -0.1031 -1.8025
  271TIP3    H222373   6.656   0.575   8.559  2.5417  0.4890 -0.0381
  272TIP3   OH222374   2.646   3.205   6.968 -0.1626  0.3792 -0.0374
  272TIP3    H122375   2.692   3.131   6.926 -1.6712  0.0658 -1.2307
  272TIP3    H222376   2.554   3.183   6.959 -0.6003  1.7833  0.8362
  273TIP3   OH222377   4.664   1.746   2.689  0.4193  0.6084 -0.2226
  273TIP3    H122378   4.636   1.655   2.697 -0.2433  0.8665  0.4064
  273TIP3    H222379   4.704   1.767   2.773  0.5465  0.9167 -0.3553
  274TIP3   OH222380   3.348   2.810   7.994 -0.3676  0.0949  0.3157
  274TIP3    H122381   3.261   2.825   7.958  0.9433  2.4242 -2.2809
  274TIP3    H222382   3.378   2.729   7.953 -0.1889  0.9263 -1.2577
  275TIP3   OH222383   2.341   2.544   0.828 -0.3138 -0.0650  0.2724
  275TIP3    H122384   2.269   2.487   0.803 -0.6785 -0.6739  2.4944
  275TIP3    H222385   2.380   2.501   0.904  1.3551  1.0997  0.1260
  276TIP3   OH222386   6.479   6.273   2.214  0.1354 -0.9223 -0.1549
  276TIP3    H122387   6.453   6.228   2.134  0.9937 -0.2376 -0.8427
  276TIP3    H222388   6.419   6.347   2.221 -0.2471 -1.2572  0.0968
  277TIP3   OH222389   6.567   1.586   7.162 -0.2862  0.5807 -0.3238
  277TIP3    H122390   6.637   1.646   7.137  0.6466 -0.7277 -1.0404
  277TIP3    H222391   6.490   1.641   7.175  0.3115  1.8241 -1.7967
  278TIP3   OH222392   0.184   1.215   0.234  0.7704  0.7710 -0.6333
  278TIP3    H122393   0.106   1.161   0.217  1.0633 -0.2319  0.9197
  278TIP3    H222394   0.254   1.171   0.188  0.9572 -0.0828  0.4172
  279TIP3   OH222395   5.689   4.602   8.611  0.5743  0.6238  0.0082
  279TIP3    H122396   5.600   4.634   8.630  0.2162 -0.0043 -0.5719
  279TIP3    H222397   5.715   4.556   8.691 -0.8325 -1.8155 -0.8217
  280TIP3   OH222398   6.705   5.046   2.383  0.6004 -0.2235  0.0108
  280TIP3    H122399   6.611   5.064   2.382  0.2775 -1.6364  1.2117
  280TIP3    H222400   6.728   5.032   2.291  0.0690  1.9924 -0.5223
  281TIP3   OH222401   6.318   6.425   0.812  0.4991  1.2018 -0.2539
  281TIP3    H122402   6.357   6.388   0.891 -1.7759 -0.4668  0.1822
  281TIP3    H222403   6.309   6.351   0.752 -0.8517  1.7499 -0.7694
  282TIP3   OH222404   2.505   5.296   8.049  0.4447 -0.8952 -0.3693
  282TIP3    H122405   2.563   5.271   8.121 -0.8716  0.6585  1.3045
  282TIP3    H222406   2.552   5.365   8.003 -0.1037  0.5728  1.1631
  283TIP3   OH222407   6.746   1.038   8.114 -0.1328 -0.5801 -0.5378
  283TIP3    H122408   6.700   0.975   8.170  0.4454  0.5887  1.3353
  283TIP3    H222409   6.814   1.075   8.170  1.6640 -0.6276 -2.5735
  284TIP3   OH222410   1.994   0.650   1.195  0.1997  0.7583  0.0697
  284TIP3    H122411   1.966   0.704   1.121  0.4939  1.1863  0.2596
  284TIP3    H222412   2.074   0.608   1.164 -1.3120 -1.5376 -0.9605
  285TIP3   OH222413   1.166   0.798   7.183  0.3831  0.2118 -0.3463
  285TIP3    H122414   1.172   0.721   7.127  1.5089  0.8480 -1.1566
  285TIP3    H222415   1.246   0.848   7.164 -1.0737  2.4074 -1.1182
  286TIP3   OH222416   6.786   5.399   1.613 -0.0687 -0.2923 -0.6605
  286TIP3    H122417   6.855   5.343   1.577 -1.5533 -1.2714 -2.1298
  286TIP3    H222418   6.705   5.362   1.578 -1.3811  0.6730  1.1950
  287TIP3   OH222419   0.713   2.285   1.279  0.3167  0.0807  0.5680
  287TIP3    H122420   0.629   2.329   1.291  1.3784  2.5609 -0.4710
  287TIP3    H222421   0.777   2.343   1.321  1.7392 -0.7729 -0.3162
  288TIP3   OH222422   4.269   6.179   8.721 -0.0456 -0.2417  0.0972
  288TIP3    H122423   4.216   6.253   8.750  1.1686  1.0916 -0.8959
  288TIP3    H222424   4.312   6.148   8.801 -0.1534  0.5015  0.4584
  289TIP3   OH222425   1.005   5.904   1.804 -0.3732  0.3778 -0.0811
  289TIP3    H122426   1.001   5.860   1.719  1.4008  0.3490 -0.1849
  289TIP3    H222427   0.957   5.986   1.791 -2.1906 -0.6760 -0.3860
  290TIP3   OH222428   0.074   6.035   1.049  0.1504  0.5670  0.1115
  290TIP3    H122429   0.085   6.094   0.974  0.5207  0.2675 -0.0790
  290TIP3    H222430   0.126   6.075   1.118 -0.5726  1.0904  0.3569
  291TIP3   OH222431   3.164   1.927   6.891  0.8980 -0.4335 -0.5698
  291TIP3    H122432   3.242   1.921   6.835  0.3192 -1.4462 -1.3038
  291TIP3    H222433   3.130   1.837   6.894 -0.5410  0.0799 -0.7102
  292TIP3   OH222434   2.725   3.886   1.845 -0.8135 -0.1915 -0.0391
  292TIP3    H122435   2.704   3.828   1.772 -1.0909  0.1965 -0.2737
  292TIP3    H222436   2.816   3.911   1.831 -0.4521 -1.1728  0.4874
  293TIP3   OH222437   2.185   1.286   8.621 -0.0914 -0.2906 -0.2476
  293TIP3    H122438   2.206   1.194   8.635 -0.8205 -0.4032  0.1484
  293TIP3    H222439   2.178   1.323   8.708 -1.2919 -0.2145 -0.3593
  294TIP3   OH222440   3.189   5.441   2.069 -0.0804 -0.4282  0.0259
  294TIP3    H122441   3.274   5.443   2.025 -0.9309 -0.2786 -1.7151
  294TIP3    H222442   3.181   5.525   2.113 -0.0367  0.2680 -1.2675
  295TIP3   OH222443   4.178   0.542   6.662 -0.1563 -0.5015 -0.3989
  295TIP3    H122444   4.220   0.459   6.679  2.5504  0.9620  0.5579
  295TIP3    H222445   4.175   0.548   6.566  2.3246 -0.4969 -0.5370
  296TIP3   OH222446   1.220   6.075   1.546  0.0156 -0.1320  0.1521
  296TIP3    H122447   1.154   6.144   1.553 -0.9200 -0.7478 -1.8217
  296TIP3    H222448   1.181   6.011   1.487  1.4617 -1.6636  0.7831
  297TIP3   OH222449   5.453   3.607   0.926 -0.0784 -0.6739 -0.4056
  297TIP3    H122450   5.542   3.638   0.939  0.3064 -1.9580  0.1973
  297TIP3    H222451   5.399   3.666   0.978  0.6402 -1.0295  0.8009
  298TIP3   OH222452   5.976   4.740   0.123 -0.5677  0.0726 -0.0596
  298TIP3    H122453   5.917   4.725   0.197 -0.4241  1.2253  0.2948
  298TIP3    H222454   5.925   4.792   0.062  0.2048  1.4438  0.4340
  299TIP3   OH222455   5.495   2.189   0.926 -0.4301  0.7589 -0.4581
  299TIP3    H122456   5.511   2.284   0.930 -0.1633  0.7039 -0.1164
  299TIP3    H222457   5.576   2.150   0.960 -0.0453  0.3665 -1.7550
  300TIP3   OH222458   3.932   4.994   0.092  0.8395  0.1266  0.5164
  300TIP3    H122459   3.850   5.041   0.111  0.5428  0.1617 -0.7463
  300TIP3    H222460   3.980   5.052   0.033 -0.4788 -1.9002 -2.8495
  301TIP3   OH222461   1.282   6.840   1.960 -0.0985 -0.1167 -0.4960
  301TIP3    H122462   1.263   6.853   2.053 -0.6637 -0.2416 -0.5956
  301TIP3    H222463   1.339   6.913   1.937  0.5151 -0.4000  0.0880
  302TIP3   OH222464   6.543   2.898   1.283  0.1437 -0.1111  0.4302
  302TIP3    H122465   6.459   2.853   1.281 -0.1259  0.3842 -2.2401
  302TIP3    H222466   6.531   2.969   1.346 -1.8985  0.7151 -0.7921
  303TIP3   OH222467   4.514   4.917   0.802  0.0441 -0.2849  0.2311
  303TIP3    H122468   4.436   4.972   0.805 -0.7905 -1.3625 -1.0576
  303TIP3    H222469   4.551   4.931   0.715 -0.1557 -1.7084 -0.1052
  304TIP3   OH222470   1.258   0.444   2.724  0.2764  0.6184  0.1320
  304TIP3    H122471   1.303   0.529   2.728  1.3499  0.0256  1.0993
  304TIP3    H222472   1.171   0.465   2.689  1.3019  1.7742 -1.8676
  305TIP3   OH222473   1.094   0.086   8.530 -0.2470 -0.2298 -0.5579
  305TIP3    H122474   1.178   0.098   8.575 -0.5620  0.2871 -0.0846
  305TIP3    H222475   1.077  -0.008   8.536  0.0630 -0.2677 -0.2116
  306TIP3   OH222476   2.939   4.556   2.470  0.0998 -0.3716 -0.3508
  306TIP3    H122477   2.925   4.461   2.466  1.1299 -0.5554  0.0618
  306TIP3    H222478   2.898   4.589   2.389 -0.6073 -1.1099 -0.3112
  307TIP3   OH222479   0.751   5.695   0.873 -0.1854 -0.7338  0.0982
  307TIP3    H122480   0.689   5.705   0.802 -0.0776 -1.1594 -0.0554
  307TIP3    H222481   0.716   5.624   0.927 -0.5724 -0.0373  0.7972
  308TIP3   OH222482   5.800   1.534   6.827  0.4604  0.1161  0.3627
  308TIP3    H122483   5.781   1.540   6.734 -0.0882 -1.5844  0.3312
  308TIP3    H222484   5.731   1.585   6.869 -0.4546 -0.7416 -0.0748
  309TIP3   OH222485   4.122   5.266   1.948  0.1221  0.2300  0.2197
  309TIP3    H122486   4.196   5.317   1.915  0.6798 -0.2295  0.7329
  309TIP3    H222487   4.162   5.186   1.982 -0.8317 -1.3256 -2.0052
  310TIP3   OH222488   6.319   2.865   0.132  0.0617  0.5777 -0.0618
  310TIP3    H122489   6.327   2.913   0.215 -0.1122  1.7353 -0.6937
  310TIP3    H222490   6.227   2.873   0.108  0.3963  1.5271 -1.0942
  311TIP3   OH222491   1.062   5.909   0.581  0.3983 -0.0080  0.0618
  311TIP3    H122492   1.046   5.841   0.647  0.6563  0.6262  0.7916
  311TIP3    H222493   1.021   5.875   0.502  0.9507 -1.2491  0.2772
  312TIP3   OH222494   2.372   6.378   2.784  0.2291 -0.3670  0.2442
  312TIP3    H122495   2.332   6.436   2.849  1.2690 -1.4394  1.9146
  312TIP3    H222496   2.372   6.429   2.703 -2.3921  0.4967  0.6906
  313TIP3   OH222497   4.929   2.210   3.020  0.3229 -0.6217 -0.0547
  313TIP3    H122498   4.888   2.132   2.982 -2.3185  1.8003 -2.6532
  313TIP3    H222499   4.980   2.247   2.948  0.3958  0.7622  0.6819
  314TIP3   OH222500   2.451   0.847   7.903  0.5260  0.6443 -0.2283
  314TIP3    H122501   2.386   0.916   7.912  0.2330  0.3916 -0.3880
  314TIP3    H222502   2.415   0.789   7.837  1.2811  0.9194 -0.8960
  315TIP3   OH222503   0.629   0.489   2.768  0.1901 -0.2849 -0.3039
  315TIP3    H122504   0.606   0.572   2.810  1.2157  1.1277 -2.3332
  315TIP3    H222505   0.675   0.439   2.835  1.3663  1.6554  0.4026
  316TIP3   OH222506   1.959   1.737   6.901 -0.4664  0.2786 -0.5558
  316TIP3    H122507   2.050   1.742   6.874  0.2285 -0.3433  1.4679
  316TIP3    H222508   1.950   1.650   6.940 -1.9099  0.3404 -0.6893
  317TIP3   OH222509   3.568   1.176   0.247 -0.4959  0.2066 -0.1869
  317TIP3    H122510   3.660   1.183   0.223 -0.3419  1.4787  0.6952
  317TIP3    H222511   3.534   1.266   0.241 -1.8717 -0.3276 -1.1734
  318TIP3   OH222512   1.593   1.940   7.777  0.2867  0.5154  0.0289
  318TIP3    H122513   1.557   1.897   7.855 -0.2551 -1.0312 -1.0058
  318TIP3    H222514   1.681   1.965   7.802  0.6562 -1.2901  0.7400
  319TIP3   OH222515   3.168   6.474   1.053 -0.7852 -0.1262 -0.2831
  319TIP3    H122516   3.161   6.458   1.147 -3.3987 -2.1551 -0.6861
  319TIP3    H222517   3.234   6.412   1.023 -1.0547 -0.5845  0.0486
  320TIP3   OH222518   4.286   6.128   8.131  0.0966  0.5102 -0.6051
  320TIP3    H122519   4.331   6.084   8.203 -3.2348 -0.9835  0.7558
  320TIP3    H222520   4.352   6.134   8.062  3.0700  0.8101  2.0195
  321TIP3   OH222521   3.654   2.312   7.913  0.2399  0.1990  0.2606
  321TIP3    H122522   3.714   2.371   7.868  0.7421 -1.4731 -1.3614
  321TIP3    H222523   3.613   2.261   7.843 -0.7247 -0.8773  1.5591
  322TIP3   OH222524   2.242   3.844   7.792  0.2351  0.1582  0.5100
  322TIP3    H122525   2.334   3.845   7.821  0.5643 -0.4851 -0.4831
  322TIP3    H222526   2.238   3.775   7.726 -1.2497 -0.6974  1.4266
  323TIP3   OH222527   6.512   6.309   7.975  0.2772  0.3746  0.7184
  323TIP3    H122528   6.571   6.294   8.049  2.1600  0.3712 -0.7024
  323TIP3    H222529   6.503   6.404   7.971  3.3070  0.7139 -1.2357
  324TIP3   OH222530   0.240   2.771   8.614 -0.2107  1.0056 -0.0293
  324TIP3    H122531   0.233   2.864   8.637 -1.7128  0.7292  0.8323
  324TIP3    H222532   0.258   2.728   8.697  2.5199  0.6664 -0.7322
  325TIP3   OH222533   6.358   2.681   7.645  0.3131 -0.5104 -0.2515
  325TIP3    H122534   6.379   2.678   7.738 -1.0287  1.0155  0.1417
  325TIP3    H222535   6.428   2.733   7.606 -1.2678  2.4792  0.6483
  326TIP3   OH222536   6.030   3.677   8.069 -0.7148  0.4532 -0.5398
  326TIP3    H122537   6.068   3.758   8.105  1.5456 -1.1436  0.9277
  326TIP3    H222538   6.100   3.640   8.016 -1.6247 -0.6842 -0.9693
  327TIP3   OH222539   6.600   5.285   0.155  0.0706 -0.0794  0.7571
  327TIP3    H122540   6.658   5.213   0.177 -1.2841 -0.5806  2.9076
  327TIP3    H222541   6.522   5.243   0.119 -0.1127  0.4116  0.5733
  328TIP3   OH222542   2.111   4.599   8.604  0.1501 -0.2142 -0.0195
  328TIP3    H122543   2.059   4.659   8.551  0.4255 -0.8932 -1.0686
  328TIP3    H222544   2.059   4.586   8.683  0.2961  1.7729  0.4684
  329TIP3   OH222545   1.416   0.063   2.861 -0.9678 -0.7713  0.6397
  329TIP3    H122546   1.455   0.007   2.928  1.3582 -0.7221 -0.5631
  329TIP3    H222547   1.443   0.152   2.884  1.9371 -0.9428 -1.4757
  330TIP3   OH222548   1.950   0.824   1.877 -0.1929 -0.1576  0.1302
  330TIP3    H122549   1.930   0.912   1.847 -0.5260 -0.3151 -0.1097
  330TIP3    H222550   1.886   0.807   1.946  0.0156 -0.1279  0.3334
  331TIP3   OH222551   2.619   6.499   1.794  0.4317 -0.1368  0.2431
  331TIP3    H122552   2.530   6.533   1.803  0.4032 -0.0066 -0.4608
  331TIP3    H222553   2.663   6.526   1.875 -0.3238 -0.7098  0.8545
  332TIP3   OH222554   0.292   5.395   0.813  0.7703 -0.2179 -0.1248
  332TIP3    H122555   0.211   5.424   0.855  0.7078  0.2004 -0.5244
  332TIP3    H222556   0.269   5.312   0.770  0.7835 -0.5442  0.4837
  333TIP3   OH222557   2.552   0.945   1.141 -0.0391 -0.0119 -0.5876
  333TIP3    H122558   2.647   0.947   1.129  0.2095  0.9038  1.2892
  333TIP3    H222559   2.521   1.027   1.102 -0.0520 -0.2165 -1.0171
  334TIP3   OH222560   2.105   4.325   7.567 -0.1862  0.2532  0.5820
  334TIP3    H122561   2.060   4.285   7.492  1.4004  0.8933 -0.7747
  334TIP3    H222562   2.165   4.258   7.598 -2.1758 -0.7200  2.6051
  335TIP3   OH222563   2.349   4.500   3.268  0.3006 -0.2467 -0.0259
  335TIP3    H122564   2.424   4.559   3.279 -0.1020  0.0799  1.1644
  335TIP3    H222565   2.354   4.470   3.177  2.8231 -1.5318  0.4560
  336TIP3   OH222566   1.185   5.812   0.950 -0.0477  0.2978  0.1254
  336TIP3    H122567   1.094   5.809   0.980  0.2408  0.3763  1.0562
  336TIP3    H222568   1.200   5.905   0.930 -0.8882 -0.0484 -2.4390
  337TIP3   OH222569   2.375   1.689   2.064 -0.2022  0.1859 -0.2314
  337TIP3    H122570   2.371   1.639   2.145  0.8485  0.7527  0.1804
  337TIP3    H222571   2.307   1.756   2.073  1.1216  1.3972  0.9760
  338TIP3   OH222572   2.173   3.645   0.189 -0.7333  0.3150  0.9614
  338TIP3    H122573   2.237   3.580   0.218  1.0823  1.6348  0.0917
  338TIP3    H222574   2.118   3.660   0.267 -0.5617 -1.4445  1.4808
  339TIP3   OH222575   4.704   5.540   0.000 -0.3417  0.3523 -0.0062
  339TIP3    H122576   4.643   5.507   0.066  0.9695 -2.4792 -0.0751
  339TIP3    H222577   4.674   5.501  -0.082  0.0792  1.0364 -0.5008
  340TIP3   OH222578   2.632   4.428   2.746 -0.0327  0.1944  0.0230
  340TIP3    H122579   2.638   4.450   2.653 -1.8635 -0.8563 -0.3967
  340TIP3    H222580   2.587   4.502   2.786  2.8065  1.7618  0.6089
  341TIP3   OH222581   5.117   1.392   8.156  0.5367  0.1395  0.3407
  341TIP3    H122582   5.045   1.366   8.213 -1.3214  0.7390 -1.5795
  341TIP3    H222583   5.184   1.426   8.216 -0.7463 -0.4505  2.2104
  342TIP3   OH222584   5.428   2.125   7.945 -0.0319 -0.1201 -0.2825
  342TIP3    H122585   5.400   2.127   7.853 -1.0138 -0.1551  0.0016
  342TIP3    H222586   5.476   2.043   7.954  2.5043  1.1445 -1.4250
  343TIP3   OH222587   2.605   0.954   8.319  0.1642 -0.0556 -1.1789
  343TIP3    H122588   2.557   0.904   8.384  1.5730  0.7949  0.6310
  343TIP3    H222589   2.616   0.894   8.245  1.6024 -2.4165  0.7889
  344TIP3   OH222590   6.827   3.305   1.199 -0.3392 -0.0196 -0.0825
  344TIP3    H122591   6.784   3.229   1.159  1.4759  0.1093 -2.5255
  344TIP3    H222592   6.816   3.375   1.135  3.6800 -0.0947 -1.1517
  345TIP3   OH222593   5.009   4.523   0.548  0.8135  0.1279  0.5968
  345TIP3    H122594   4.998   4.587   0.478 -1.0729 -2.9526 -2.2404
  345TIP3    H222595   4.920   4.507   0.580  0.9024 -2.2191 -0.0836
  346TIP3   OH222596   4.209   4.352   1.843 -0.4586 -0.2059  0.3552
  346TIP3    H122597   4.254   4.268   1.846 -2.3964 -1.3080  1.1051
  346TIP3    H222598   4.278   4.417   1.840  1.3146 -1.6318  4.0502
  347TIP3   OH222599   4.754   2.528   7.963  0.6239 -0.4707  0.0263
  347TIP3    H122600   4.835   2.489   7.995 -0.9714 -3.6422  0.6715
  347TIP3    H222601   4.778   2.572   7.881  3.0841 -0.6560  0.5906
  348TIP3   OH222602   2.415   2.444   1.079 -0.6437 -0.2589  0.2511
  348TIP3    H122603   2.388   2.409   1.164  3.1513 -2.9274  0.6369
  348TIP3    H222604   2.460   2.526   1.100 -0.3014 -0.5723  0.7582
  349TIP3   OH222605   5.135   6.413   1.709  0.3854 -0.5105  0.4252
  349TIP3    H122606   5.069   6.359   1.667 -0.0795 -0.2520  0.8009
  349TIP3    H222607   5.205   6.421   1.645 -0.2721 -0.1822 -0.2702
  350TIP3   OH222608   3.240   4.706   3.173 -0.5766 -0.5512  0.4779
  350TIP3    H122609   3.151   4.734   3.152  0.0747  0.2177 -1.4955
  350TIP3    H222610   3.251   4.624   3.124 -0.0656 -0.4398  0.4029
  351TIP3   OH222611   1.439   4.270   2.353  0.4095 -0.2641  0.0224
  351TIP3    H122612   1.366   4.228   2.307  0.3559  0.0359 -0.1706
  351TIP3    H222613   1.517   4.228   2.318  0.3386 -0.4588  0.0964
  352TIP3   OH222614   6.025   5.154   8.520 -0.0338  0.2881 -0.6618
  352TIP3    H122615   6.029   5.059   8.523  0.1035  0.2597 -1.4235
  352TIP3    H222616   5.934   5.175   8.543  0.2390  0.0476  0.6899
  353TIP3   OH222617   0.520   0.818   2.254  0.2989 -0.4554  0.3512
  353TIP3    H122618   0.568   0.817   2.172  1.1415  0.8121  0.8026
  353TIP3    H222619   0.587   0.813   2.322 -0.3725 -1.2753  0.9921
  354TIP3   OH222620   1.764   5.706   0.003  0.2707 -0.3735 -0.1132
  354TIP3    H122621   1.785   5.747   0.086  1.0790  0.5126 -0.7364
  354TIP3    H222622   1.848   5.698  -0.042 -0.0207 -1.7122 -0.4650
  355TIP3   OH222623   3.521   0.918   2.967 -0.1825  0.3428  0.3869
  355TIP3    H122624   3.475   0.933   3.050  1.5017 -0.0365  1.4324
  355TIP3    H222625   3.537   0.824   2.965 -0.1251  0.3617 -0.3436
  356TIP3   OH222626   3.908   2.293   6.918 -0.2123  0.4299  0.2269
  356TIP3    H122627   3.849   2.266   6.989 -3.3674  0.3198 -2.1999
  356TIP3    H222628   3.919   2.387   6.930 -0.1010  0.3017  1.2309
  357TIP3   OH222629   2.160   3.956   8.035 -0.3001  0.6718  0.2623
  357TIP3    H122630   2.069   3.985   8.039 -0.4169  0.1935  1.2588
  357TIP3    H222631   2.172   3.928   7.944 -1.9990 -1.9271  0.7453
  358TIP3   OH222632   4.381   2.949   2.018  0.0110 -0.4864 -0.2500
  358TIP3    H122633   4.406   2.948   2.110  0.9755  0.5053 -0.4722
  358TIP3    H222634   4.428   3.024   1.981 -0.9551 -0.3991 -1.3851
  359TIP3   OH222635   4.791   2.564   7.692  0.2934  0.5662 -1.0230
  359TIP3    H122636   4.865   2.553   7.633  0.5840 -1.9608 -0.3129
  359TIP3    H222637   4.716   2.580   7.633  0.4635 -2.4275 -2.2393
  360TIP3   OH222638   3.135   2.331   0.417 -0.3090 -0.4636 -0.7649
  360TIP3    H122639   3.106   2.421   0.430  0.6786 -0.3305  0.7600
  360TIP3    H222640   3.059   2.285   0.383 -0.6751  1.0556 -2.1362
  361TIP3   OH222641   4.478   4.049   8.447 -0.0852  0.2172  0.3005
  361TIP3    H122642   4.413   4.112   8.478 -0.5680  0.5229 -1.2535
  361TIP3    H222643   4.463   3.971   8.501  0.4367  1.3506  2.1486
  362TIP3   OH222644   2.313   6.033   0.769 -0.0148 -0.4479  0.1441
  362TIP3    H122645   2.288   6.104   0.829 -0.7028 -0.1042 -0.5181
  362TIP3    H222646   2.239   6.027   0.708  1.3161  0.2721 -1.6242
  363TIP3   OH222647   1.761   6.257   2.095 -0.3408  0.6906  0.0774
  363TIP3    H122648   1.707   6.234   2.171 -0.7442 -0.7922 -0.6111
  363TIP3    H222649   1.699   6.293   2.031 -0.5362 -0.8425 -0.6433
  364TIP3   OH222650   2.341   2.550   7.428 -0.1432 -0.1915  0.0764
  364TIP3    H122651   2.371   2.632   7.467 -0.0062 -0.1920 -0.0257
  364TIP3    H222652   2.351   2.564   7.334  2.1155 -1.1529  0.0982
  365TIP3   OH222653   0.205   4.731   8.452  0.1081 -0.1039  0.4925
  365TIP3    H122654   0.183   4.704   8.541 -0.6890 -0.5625  0.1712
  365TIP3    H222655   0.138   4.794   8.428  1.5231  1.6616  0.9533
  366TIP3   OH222656   1.544   5.084   2.998  0.3843  0.4254  0.2864
  366TIP3    H122657   1.452   5.075   2.971  0.9456  1.9438 -2.4045
  366TIP3    H222658   1.553   5.176   3.022  1.1497  0.1894  0.9587
  367TIP3   OH222659   1.312   0.368   8.433 -0.0229  0.6787 -0.0651
  367TIP3    H122660   1.331   0.358   8.340  0.3462 -2.9493  0.2733
  367TIP3    H222661   1.217   0.380   8.437  0.0847  2.0091 -0.9187
  368TIP3   OH222662   4.510   2.091   1.860  0.4504  0.6503  0.3758
  368TIP3    H122663   4.540   2.074   1.770 -0.9252 -0.6608  0.1181
  368TIP3    H222664   4.482   2.183   1.859  0.9107  0.7888 -0.4040
  369TIP3   OH222665   4.213   4.038   8.215 -0.4201  0.3740 -0.1617
  369TIP3    H122666   4.234   4.098   8.144 -0.7998 -0.5251 -1.0636
  369TIP3    H222667   4.170   4.092   8.281  0.1099  1.2639 -0.5290
  370TIP3   OH222668   3.891   5.476   0.719  0.2496 -0.0691  0.4299
  370TIP3    H122669   3.829   5.429   0.774 -0.8360  1.9121  1.0242
  370TIP3    H222670   3.894   5.426   0.637 -1.4016 -0.7531  0.7391
  371TIP3   OH222671   3.404   3.272   7.841 -0.0843 -0.0945 -0.9993
  371TIP3    H122672   3.485   3.251   7.793  1.6481 -0.0914  1.6965
  371TIP3    H222673   3.435   3.313   7.922 -2.8168 -0.3966  0.2801
  372TIP3   OH222674   0.416   2.859   2.008  0.0133  0.1627  0.5757
  372TIP3    H122675   0.334   2.830   2.047  0.9781 -1.3117  1.6496
  372TIP3    H222676   0.445   2.932   2.063 -1.0052  1.3108 -0.3710
  373TIP3   OH222677   6.157   6.808   0.264  0.5116  0.7440  0.4344
  373TIP3    H122678   6.079   6.798   0.318  1.1037  0.7851  1.3099
  373TIP3    H222679   6.209   6.874   0.309  1.6864 -0.2654  0.6117
  374TIP3   OH222680   3.852   5.387   8.453 -0.2408  0.4055  0.6986
  374TIP3    H122681   3.878   5.440   8.529  0.3423 -0.8565  1.4148
  374TIP3    H222682   3.930   5.336   8.431 -0.9789 -0.6658  0.4818
  375TIP3   OH222683   5.733   3.157   1.394 -0.1479 -0.1601 -0.2457
  375TIP3    H122684   5.816   3.150   1.441 -0.3922 -1.9984 -0.0008
  375TIP3    H222685   5.722   3.250   1.377  1.4139  0.2263  0.7057
  376TIP3   OH222686   1.193   5.045   2.575  0.0054 -0.5499 -0.2275
  376TIP3    H122687   1.203   4.993   2.655 -0.0978 -0.3832 -0.1035
  376TIP3    H222688   1.103   5.079   2.580 -0.2928 -1.2409 -0.8427
  377TIP3   OH222689   3.717   3.743   2.966 -0.3642 -0.6034  1.0795
  377TIP3    H122690   3.714   3.693   3.048 -1.6017 -1.0361  0.7834
  377TIP3    H222691   3.703   3.678   2.898 -0.3024 -0.0984  0.5775
  378TIP3   OH222692   3.647   5.201   8.205  0.1436 -0.0236  0.4266
  378TIP3    H122693   3.736   5.181   8.175  0.7382  1.1743  1.2720
  378TIP3    H222694   3.660   5.265   8.275 -1.5303  2.3058 -1.2598
  379TIP3   OH222695   0.935   2.296   8.453 -0.2036  0.0840  0.5185
  379TIP3    H122696   0.914   2.204   8.468 -2.0351  0.6011  1.4431
  379TIP3    H222697   0.860   2.331   8.405  0.4649  1.1116  0.1672
  380TIP3   OH222698   0.214   1.200   8.054 -0.1378 -0.1775 -0.4523
  380TIP3    H122699   0.288   1.255   8.081 -1.4418  1.0540  0.7901
  380TIP3    H222700   0.194   1.147   8.131 -1.0445  0.0780 -0.4994
  381TIP3   OH222701   1.585   3.783   0.159 -0.2794  0.3480 -0.5067
  381TIP3    H122702   1.561   3.774   0.067  1.8746  1.5879 -1.2760
  381TIP3    H222703   1.681   3.786   0.158 -0.1694 -0.3721  1.8718
  382TIP3   OH222704   2.845   1.436   7.312 -0.1316 -0.1252  0.3528
  382TIP3    H122705   2.908   1.429   7.240 -0.5513 -2.4971  0.1302
  382TIP3    H222706   2.808   1.524   7.304 -0.5811 -0.5165 -2.6822
  383TIP3   OH222707   4.801   6.110   7.982  0.2600  0.3363  0.6306
  383TIP3    H122708   4.752   6.105   7.900 -2.3362  0.1562  2.1090
  383TIP3    H222709   4.867   6.040   7.975 -2.4162 -2.3368  0.2186
  384TIP3   OH222710   2.298   3.642   7.256  0.0057  0.6219 -0.4984
  384TIP3    H122711   2.245   3.663   7.179 -1.6014 -0.1036  0.3628
  384TIP3    H222712   2.323   3.727   7.292 -0.2922  0.9679 -1.0966
  385TIP3   OH222713   5.557   2.330   1.241 -0.1576 -0.1442 -0.4945
  385TIP3    H122714   5.506   2.348   1.320 -1.2373 -0.1802 -1.1545
  385TIP3    H222715   5.613   2.257   1.265 -0.6186 -0.2909  0.1810
  386TIP3   OH222716   1.608   4.677   7.941 -0.4510  0.1206 -0.3985
  386TIP3    H122717   1.623   4.738   7.869  0.3981 -0.9730 -1.1992
  386TIP3    H222718   1.570   4.730   8.011 -0.3554  1.4103 -1.2914
  387TIP3   OH222719   3.195   2.267   8.384  0.2479  0.3987  0.5060
  387TIP3    H122720   3.135   2.341   8.396  1.5659  1.6212 -0.1816
  387TIP3    H222721   3.187   2.244   8.292  0.0054 -0.2059  0.6700
  388TIP3   OH222722   6.242   5.877   0.163 -0.2069 -0.6982 -0.9922
  388TIP3    H122723   6.290   5.956   0.139  0.5040 -1.2131 -1.3318
  388TIP3    H222724   6.291   5.840   0.235 -1.7712  0.2975  0.6650
  389TIP3   OH222725   3.395   1.716   7.852 -0.1872  0.1612  0.0984
  389TIP3    H122726   3.375   1.788   7.792  0.2820 -0.5134 -0.8983
  389TIP3    H222727   3.392   1.756   7.939 -0.0341  1.3612 -0.4241
  390TIP3   OH222728   0.584   0.158   1.356  0.0042  0.5173  0.1112
  390TIP3    H122729   0.668   0.111   1.352 -0.4487 -0.3303  0.3539
  390TIP3    H222730   0.557   0.167   1.265 -0.6341 -1.0555  0.1183
  391TIP3   OH222731   0.845   0.575   8.267 -0.3610  0.4147 -0.3747
  391TIP3    H122732   0.757   0.582   8.303  0.1042 -1.5065  1.2692
  391TIP3    H222733   0.863   0.481   8.263  1.0018  0.7014 -2.2785
  392TIP3   OH222734   5.896   0.060   1.501  0.6802 -0.0094  0.0356
  392TIP3    H122735   5.903   0.035   1.409  0.0833  0.0641 -0.0360
  392TIP3    H222736   5.897   0.156   1.501  0.5438 -0.0072  0.0911
  393TIP3   OH222737   2.981   5.362   8.098 -0.6779  0.2422 -0.0660
  393TIP3    H122738   2.949   5.424   8.032 -0.4275  1.4532  0.8966
  393TIP3    H222739   2.933   5.386   8.178  0.9777  0.6361  0.8580
  394TIP3   OH222740   5.781   2.753   0.122 -0.2115 -0.0223  0.3183
  394TIP3    H122741   5.777   2.688   0.193  0.6181 -0.2950  0.1193
  394TIP3    H222742   5.803   2.835   0.166  1.4740 -0.4098  0.2711
  395TIP3   OH222743   6.409   3.988   7.332  0.0061 -0.0592 -0.0179
  395TIP3    H122744   6.497   3.991   7.368 -0.1006 -1.3665  0.3769
  395TIP3    H222745   6.403   3.903   7.289 -0.9890  0.1101 -0.2402
  396TIP3   OH222746   6.108   4.244   1.842  0.1253 -0.2548  0.2168
  396TIP3    H122747   6.034   4.192   1.875  0.5513  0.4028  2.3560
  396TIP3    H222748   6.165   4.180   1.800 -0.3779 -1.1901  0.9158
  397TIP3   OH222749   0.779   1.164   7.450  0.7354 -0.1841  0.0883
  397TIP3    H122750   0.785   1.159   7.545  1.7127 -0.6595  0.0151
  397TIP3    H222751   0.825   1.245   7.427  1.3073 -0.5369 -0.0342
  398TIP3   OH222752   2.018   5.563   2.162  0.0852 -0.0523  0.2025
  398TIP3    H122753   2.106   5.572   2.128  0.1659 -0.9811  0.1353
  398TIP3    H222754   2.015   5.621   2.239  0.7445 -0.0136  0.1992
  399TIP3   OH222755   2.592   4.971   2.656  0.2049  0.3044 -0.6292
  399TIP3    H122756   2.632   4.908   2.716 -0.2069 -0.3749 -1.0542
  399TIP3    H222757   2.651   5.046   2.657  0.5558  0.0269  0.1037
  400TIP3   OH222758   5.914   5.626   7.436  0.2061 -0.2148  0.2498
  400TIP3    H122759   5.865   5.549   7.409 -0.0150 -0.1911  0.5688
  400TIP3    H222760   5.944   5.606   7.525  0.0086  0.1267  0.3983
  401TIP3   OH222761   6.833   1.897   2.385 -0.2704  0.0423 -0.2815
  401TIP3    H122762   6.741   1.883   2.404 -0.9663  0.6928 -2.7481
  401TIP3    H222763   6.874   1.811   2.398 -1.0583 -0.0916  1.4879
  402TIP3   OH222764   2.582   1.341   2.311  0.0127  0.6040 -0.2377
  402TIP3    H122765   2.665   1.341   2.359 -0.5453 -2.4454  1.0228
  402TIP3    H222766   2.517   1.370   2.376 -0.0549  2.0961 -0.9453
  403TIP3   OH222767   5.575   1.090   7.875 -0.0848 -0.6358  0.0261
  403TIP3    H122768   5.539   1.149   7.809 -0.5125 -1.3431 -0.3808
  403TIP3    H222769   5.661   1.127   7.896 -1.4926  1.8137  1.9454
  404TIP3   OH222770   4.105   0.493   8.117 -0.2597  0.1430  0.5811
  404TIP3    H122771   4.191   0.485   8.076  0.4893 -2.3578  2.3751
  404TIP3    H222772   4.110   0.573   8.170  0.0715  1.3002 -1.1305
  405TIP3   OH222773   0.452   3.399   8.677 -0.0611 -0.0730  0.3872
  405TIP3    H122774   0.437   3.325   8.618  1.8285  0.4746 -0.8653
  405TIP3    H222775   0.407   3.375   8.758  2.3751 -3.7002  0.9051
  406TIP3   OH222776   2.283   2.110   8.339  0.5282  0.4417  0.5234
  406TIP3    H122777   2.283   2.017   8.361  2.8488 -0.7840 -3.5097
  406TIP3    H222778   2.366   2.143   8.373  1.1593  0.1550 -0.6685
  407TIP3   OH222779   5.012   2.375   2.237 -0.3937 -0.7282  0.1924
  407TIP3    H122780   4.929   2.395   2.194  0.2065  0.3480 -0.5017
  407TIP3    H222781   5.049   2.460   2.258  0.9902 -1.1548 -0.3867
  408TIP3   OH222782   1.354   1.992   0.184  0.1530  0.3400 -0.7559
  408TIP3    H122783   1.344   2.066   0.124 -0.0429  1.6495  0.7943
  408TIP3    H222784   1.361   2.033   0.271 -0.3305 -1.4942  0.2018
  409TIP3   OH222785   5.512   4.184   1.178  0.1747  0.1422  0.2070
  409TIP3    H122786   5.457   4.175   1.100  0.2508 -1.4009  0.3133
  409TIP3    H222787   5.598   4.208   1.144  0.2336 -0.6239 -0.2048
  410TIP3   OH222788   3.116   4.460   1.451  0.0689  0.1455  0.7798
  410TIP3    H122789   3.121   4.374   1.494  1.9269  0.1404  0.6071
  410TIP3    H222790   3.108   4.522   1.524  0.8826 -0.0365  1.0381
  411TIP3   OH222791   3.683   5.039   7.637 -0.2425  0.2282  0.0433
  411TIP3    H122792   3.774   5.015   7.656  0.0067  0.4612 -0.8273
  411TIP3    H222793   3.654   4.974   7.573 -0.2533  0.9317 -0.6879
  412TIP3   OH222794   5.004   4.097   0.043 -0.4193 -0.8724 -0.0581
  412TIP3    H122795   5.087   4.129   0.077 -1.2936  0.6953  0.7323
  412TIP3    H222796   4.945   4.097   0.119 -1.9900  1.1732 -1.1652
  413TIP3   OH222797   0.388   5.144   6.914 -0.1848  0.1261  0.3099
  413TIP3    H122798   0.397   5.093   6.994 -3.4022 -2.0058 -0.5102
  413TIP3    H222799   0.335   5.220   6.940 -0.1822  0.0856  0.4334
  414TIP3   OH222800   6.316   2.294   2.593 -0.0484 -0.1520  0.0603
  414TIP3    H122801   6.309   2.307   2.498  0.2876  1.6534  0.2522
  414TIP3    H222802   6.229   2.267   2.620  0.2706 -2.4537 -0.9690
  415TIP3   OH222803   3.452   4.698   2.720 -0.0573 -0.2246  0.2413
  415TIP3    H122804   3.389   4.757   2.678  0.1025  0.2471  0.6551
  415TIP3    H222805   3.520   4.756   2.754  1.5613 -0.8137 -1.7425
  416TIP3   OH222806   2.108   1.553   0.059 -0.4610 -0.3744  0.1711
  416TIP3    H122807   2.080   1.476   0.109  1.7635 -1.0887  0.4307
  416TIP3    H222808   2.028   1.605   0.047 -1.8985 -2.3966  0.5441
  417TIP3   OH222809   2.551   5.365   2.367  0.0438  0.2834 -0.2505
  417TIP3    H122810   2.563   5.285   2.418  0.7138 -0.7604 -1.9769
  417TIP3    H222811   2.547   5.435   2.433  2.8324 -0.7689  1.1949
  418TIP3   OH222812   6.701   2.937   2.057  0.1188  0.1216  0.4251
  418TIP3    H122813   6.613   2.963   2.030  0.3321  0.0078 -0.3990
  418TIP3    H222814   6.695   2.930   2.153 -0.8824 -0.2901  0.3518
  419TIP3   OH222815   2.733   5.032   7.808 -0.1476 -0.5640 -0.6726
  419TIP3    H122816   2.768   5.119   7.787  0.4558 -0.6889 -0.2215
  419TIP3    H222817   2.804   4.971   7.786  0.5507 -0.7003  1.6437
  420TIP3   OH222818   2.923   5.239   1.360  0.3259  0.7555 -0.1168
  420TIP3    H122819   2.896   5.199   1.443  2.9693  1.7316  1.3407
  420TIP3    H222820   2.849   5.294   1.335 -1.0451 -0.5252  0.8749
  421TIP3   OH222821   3.329   6.762   1.781  0.5395  0.7583  0.0608
  421TIP3    H122822   3.236   6.784   1.782  0.5391  0.7396  0.8217
  421TIP3    H222823   3.372   6.840   1.816  0.6975  0.2842  0.9360
  422TIP3   OH222824   0.621   5.804   8.301 -0.6512  0.6609  0.6212
  422TIP3    H122825   0.700   5.826   8.351  0.5610  0.2219 -0.9982
  422TIP3    H222826   0.549   5.840   8.352  0.7084  2.3288  1.4601
  423TIP3   OH222827   4.524   5.746   8.390 -0.2602 -0.3064  0.1084
  423TIP3    H122828   4.516   5.651   8.397 -0.9976 -0.3322 -0.8321
  423TIP3    H222829   4.580   5.771   8.463 -0.3537 -1.4241  0.5832
  424TIP3   OH222830   1.106   1.188   8.580 -0.1545  0.0913  0.2584
  424TIP3    H122831   1.101   1.172   8.486 -0.8250 -0.7101  0.4219
  424TIP3    H222832   1.015   1.188   8.610  0.0816 -0.2308  1.0011
  425TIP3   OH222833   2.845   3.980   1.058 -0.6838 -0.2436  0.7136
  425TIP3    H122834   2.862   3.890   1.031  0.3226  0.0406  0.3672
  425TIP3    H222835   2.925   4.028   1.036 -1.8178  1.1011 -0.7428
  426TIP3   OH222836   1.223   6.654   8.341 -0.4672 -0.1632  0.5707
  426TIP3    H122837   1.289   6.717   8.372  0.4901 -0.9342  0.1513
  426TIP3    H222838   1.187   6.694   8.262 -1.1913  0.6923  1.3085
  427TIP3   OH222839   6.724   3.505   3.230  0.1410  0.2234  0.4998
  427TIP3    H122840   6.672   3.585   3.231 -0.7740 -0.3187 -1.1417
  427TIP3    H222841   6.664   3.437   3.201  1.3361 -0.7587  0.2360
  428TIP3   OH222842   5.383   4.538   0.983  0.0548  0.1638  0.2161
  428TIP3    H122843   5.345   4.542   1.070  1.9865  2.4422  1.0763
  428TIP3    H222844   5.416   4.449   0.975  2.3515  0.5859  3.0944
  429TIP3   OH222845   3.851   2.492   1.204  0.5428 -0.6647 -0.0739
  429TIP3    H122846   3.850   2.461   1.113  0.2392 -0.0967 -0.2752
  429TIP3    H222847   3.843   2.588   1.196  0.6731 -0.6003  0.5448
  430TIP3   OH222848   5.136   3.079   8.209 -0.0375  0.8602  0.0041
  430TIP3    H122849   5.143   3.097   8.115  1.4506  2.9332  0.4452
  430TIP3    H222850   5.045   3.097   8.230 -0.3874  0.3667 -1.0183
  431TIP3   OH222851   0.060   4.718   1.631  0.3326 -0.3562 -0.1290
  431TIP3    H122852   0.107   4.788   1.676 -0.3653 -1.0384  1.7961
  431TIP3    H222853   0.111   4.639   1.648 -0.2971 -0.7343  0.0614
  432TIP3   OH222854   5.213   0.998   0.311  0.2496 -0.6059  0.3096
  432TIP3    H122855   5.186   1.033   0.396 -0.1340 -2.9100  1.2275
  432TIP3    H222856   5.305   1.023   0.303 -0.1286  0.9597  0.6647
  433TIP3   OH222857   6.777   6.694   2.035  0.2990 -0.2968  0.6191
  433TIP3    H122858   6.872   6.700   2.022  0.4892 -2.8848  0.2696
  433TIP3    H222859   6.747   6.639   1.963 -1.9263  2.4329 -0.7500
  434TIP3   OH222860   5.103   4.307   0.840 -0.1513  0.1680  0.1629
  434TIP3    H122861   5.055   4.225   0.828  3.2020 -1.5801 -3.3263
  434TIP3    H222862   5.053   4.372   0.790 -0.4451 -0.9047 -0.9808
  435TIP3   OH222863   6.616   2.202   7.800 -0.4346 -0.5193 -0.3848
  435TIP3    H122864   6.694   2.244   7.764 -1.3006 -0.1815 -1.9972
  435TIP3    H222865   6.649   2.124   7.844  0.7928 -0.4916 -1.2028
  436TIP3   OH222866   4.950   1.164   1.256 -0.0247  0.2991  0.0958
  436TIP3    H122867   4.909   1.079   1.272 -1.5651  1.0508  0.2588
  436TIP3    H222868   4.909   1.223   1.319 -0.2930  1.5500 -1.2002
  437TIP3   OH222869   3.495   6.155   0.350 -0.1808  0.1653  0.5900
  437TIP3    H122870   3.484   6.103   0.270 -4.2619  0.5546  0.6702
  437TIP3    H222871   3.540   6.234   0.322  1.1341 -0.9903 -0.6712
  438TIP3   OH222872   2.039   6.449   2.765  0.5553 -0.2610  0.0309
  438TIP3    H122873   2.051   6.376   2.825 -0.0454  0.6189  1.2522
  438TIP3    H222874   1.980   6.509   2.810  0.2119  0.5144 -1.3710
  439TIP3   OH222875   2.367   6.155   8.286 -0.1267 -0.0042 -0.6249
  439TIP3    H122876   2.291   6.108   8.319  0.0228  0.9591  1.2408
  439TIP3    H222877   2.333   6.212   8.217 -0.9171 -0.2732 -0.4569
  440TIP3   OH222878   3.718   5.593   8.292 -0.0940 -0.1997  0.2102
  440TIP3    H122879   3.767   5.602   8.210 -1.4486  2.0484 -0.4315
  440TIP3    H222880   3.775   5.539   8.347  3.3651  2.4729 -0.3581
  441TIP3   OH222881   2.165   4.843   7.548  0.2763  0.1643  0.5242
  441TIP3    H122882   2.148   4.750   7.565  2.1990 -0.0601  1.4482
  441TIP3    H222883   2.168   4.849   7.452 -0.4239 -0.5978  0.4385
  442TIP3   OH222884   1.987   2.855   1.525 -0.2577 -0.3127  0.0183
  442TIP3    H122885   1.912   2.859   1.465 -1.0278  0.6999  1.0296
  442TIP3    H222886   1.964   2.913   1.597  0.6635 -1.4758  1.3080
  443TIP3   OH222887   6.114   3.225   7.218 -0.7556 -0.0707 -0.2136
  443TIP3    H122888   6.021   3.201   7.216 -0.8055  0.1665 -0.9417
  443TIP3    H222889   6.123   3.292   7.151 -0.5487  1.7150  1.5219
  444TIP3   OH222890   3.544   1.526   7.587  0.4491 -0.5681  0.3685
  444TIP3    H122891   3.531   1.561   7.499 -0.2044  2.3108  1.4751
  444TIP3    H222892   3.611   1.459   7.577  1.2276  0.4662 -2.1475
  445TIP3   OH222893   3.214   3.996   7.518  0.0153  0.3748 -0.3393
  445TIP3    H122894   3.162   3.923   7.487 -0.7934  0.6562  0.3147
  445TIP3    H222895   3.158   4.073   7.506  1.1909  1.0492 -1.8844
  446TIP3   OH222896   5.733   6.224   0.958  0.3090 -0.0817  0.5838
  446TIP3    H122897   5.759   6.195   0.871 -0.3681 -2.5088  1.1158
  446TIP3    H222898   5.648   6.267   0.945  0.2782 -0.3058  0.0408
  447TIP3   OH222899   2.283   4.369   2.021  0.1611  0.1995  0.0424
  447TIP3    H122900   2.235   4.408   2.094 -1.9461 -0.3105 -0.9778
  447TIP3    H222901   2.280   4.275   2.038 -0.9201  0.0283 -0.9902
  448TIP3   OH222902   5.863   0.242   0.606 -0.0971  0.4465  0.3269
  448TIP3    H122903   5.850   0.333   0.634 -0.0758  0.3701  0.5876
  448TIP3    H222904   5.817   0.236   0.523 -1.0455  0.4045  0.8388
  449TIP3   OH222905   0.936   2.736   2.949  0.2986 -0.4721  0.0187
  449TIP3    H122906   1.018   2.785   2.962 -0.0806  0.1617  0.0360
  449TIP3    H222907   0.900   2.769   2.867  0.7058 -1.6891 -0.6776
  450TIP3   OH222908   0.845   1.228   2.118 -0.5676  0.8876  0.6398
  450TIP3    H122909   0.928   1.273   2.104 -0.1480  0.7174  2.3696
  450TIP3    H222910   0.778   1.292   2.093  0.0658  1.4031  0.2426
  451TIP3   OH222911   3.184   3.735   1.378  0.0965  0.1385  0.1024
  451TIP3    H122912   3.226   3.651   1.394  1.0659  0.0686 -2.3902
  451TIP3    H222913   3.116   3.717   1.313 -0.0596  1.2015 -0.0557
  452TIP3   OH222914   0.689   0.818   1.118 -0.0862  0.0591  0.0910
  452TIP3    H122915   0.758   0.880   1.098  1.4054 -1.2514  0.9128
  452TIP3    H222916   0.729   0.756   1.179 -2.4316  0.0945  1.8144
  453TIP3   OH222917   5.447   5.562   7.896  0.3072 -0.1613 -0.7264
  453TIP3    H122918   5.506   5.504   7.847  1.2906  0.9584 -0.9039
  453TIP3    H222919   5.416   5.507   7.969  0.3056 -1.2565 -1.5215
  454TIP3   OH222920   1.859   5.349   8.534  0.0161  1.0170 -0.2169
  454TIP3    H122921   1.777   5.392   8.508  0.7614  1.8333 -1.3818
  454TIP3    H222922   1.901   5.326   8.450  0.7212  0.1321  0.3667
  455TIP3   OH222923   2.178   3.070   1.901 -0.2767  0.2045 -0.3473
  455TIP3    H122924   2.108   3.038   1.958  1.5493  0.6094  2.3175
  455TIP3    H222925   2.178   3.165   1.915  0.8829  0.1893 -0.1848
  456TIP3   OH222926   3.121   1.057   8.282 -0.2736 -0.2776  0.2927
  456TIP3    H122927   3.173   1.067   8.202 -0.6627 -2.0583 -0.2088
  456TIP3    H222928   3.054   0.992   8.261 -0.5917 -0.5583  1.9699
  457TIP3   OH222929   3.625   2.001   0.860  0.3078  0.3138  0.3713
  457TIP3    H122930   3.635   2.030   0.951  2.2332  0.4399  0.1603
  457TIP3    H222931   3.690   2.051   0.812 -1.6879  1.3898 -1.4050
  458TIP3   OH222932   3.226   1.899   8.024 -0.5017  0.3756 -0.0201
  458TIP3    H122933   3.159   1.922   7.960  0.2218  3.7363  0.2128
  458TIP3    H222934   3.259   1.984   8.055  1.9808 -1.1273  1.8383
  459TIP3   OH222935   5.734   3.424   0.440  0.0536 -0.0316 -0.1787
  459TIP3    H122936   5.759   3.457   0.354 -0.2984  0.3645 -0.1347
  459TIP3    H222937   5.694   3.499   0.484  1.9182  0.2992  1.0426
  460TIP3   OH222938   5.727   0.525   8.150  0.5449  0.4037  0.8492
  460TIP3    H122939   5.638   0.526   8.187  0.5775  1.5354  0.9304
  460TIP3    H222940   5.758   0.436   8.165 -0.3098  0.1961  1.4693
  461TIP3   OH222941   0.085   4.412   8.270  0.6891  0.2196 -0.6434
  461TIP3    H122942   0.177   4.436   8.257  0.7799  1.0938  1.1764
  461TIP3    H222943   0.078   4.323   8.236  2.5304 -0.3534  0.3321
  462TIP3   OH222944   1.086   5.771   7.128  0.1001 -0.2474  0.9293
  462TIP3    H122945   1.067   5.680   7.102 -0.3524  0.5009 -1.5958
  462TIP3    H222946   1.003   5.803   7.163 -0.1130 -0.4125  0.5836
  463TIP3   OH222947   6.637   4.744   0.621  0.3530  0.1964 -0.1301
  463TIP3    H122948   6.692   4.770   0.548  0.3352  0.6727  0.0240
  463TIP3    H222949   6.565   4.695   0.581  0.1944  0.6958 -0.4564
  464TIP3   OH222950   1.820   2.323   0.608  0.0300  0.1826 -0.5715
  464TIP3    H122951   1.829   2.404   0.659 -0.3619 -0.2424  0.1895
  464TIP3    H222952   1.847   2.254   0.668 -0.2443 -0.3108 -1.0091
  465TIP3   OH222953   4.549   6.269   0.348  0.2296 -0.4198  0.5166
  465TIP3    H122954   4.598   6.272   0.266 -0.8503 -2.3461 -0.2780
  465TIP3    H222955   4.614   6.286   0.416  1.4009 -0.0474 -0.6605
  466TIP3   OH222956   0.741   3.555   0.625  0.5556 -0.2578 -0.3865
  466TIP3    H122957   0.830   3.549   0.660 -0.2389  0.2632  1.9063
  466TIP3    H222958   0.731   3.476   0.571  2.3936 -0.3057 -0.7171
  467TIP3   OH222959   1.534   1.441   2.314  0.4198  0.0979 -0.1498
  467TIP3    H122960   1.491   1.356   2.318 -0.2262  0.4478  0.4973
  467TIP3    H222961   1.593   1.442   2.389  0.8457  0.0026 -0.4793
  468TIP3   OH222962   4.499   6.006   2.498 -0.2397  1.3311 -0.0179
  468TIP3    H122963   4.582   5.982   2.538  0.1572 -0.0099 -1.5367
  468TIP3    H222964   4.523   6.064   2.425 -0.5637  0.6157 -0.7121
  469TIP3   OH222965   6.542   0.466   0.314 -0.5493  0.3117 -0.0720
  469TIP3    H122966   6.479   0.510   0.371  0.3411  0.7832  0.5757
  469TIP3    H222967   6.519   0.494   0.226 -2.3138 -0.8852 -0.0477
  470TIP3   OH222968   1.764   5.752   0.635  0.0953 -0.5080 -0.1294
  470TIP3    H122969   1.769   5.775   0.542 -1.7786 -1.0374 -0.3971
  470TIP3    H222970   1.811   5.669   0.641  1.5280  0.2445 -0.2857
  471TIP3   OH222971   2.697   3.893   7.028  0.7716 -0.2773  0.5404
  471TIP3    H122972   2.765   3.869   6.965  1.2384 -0.7917  1.2298
  471TIP3    H222973   2.625   3.834   7.010  0.7823 -0.2151  0.2877
  472TIP3   OH222974   5.580   6.455   2.364  0.5116  0.4240  0.0625
  472TIP3    H122975   5.593   6.440   2.458 -0.4279 -1.1547 -0.0314
  472TIP3    H222976   5.486   6.445   2.351  0.1434  3.5073 -0.6168
  473TIP3   OH222977   5.473   3.864   1.195  0.3309  0.5642  0.3666
  473TIP3    H122978   5.442   3.788   1.244  0.2134 -0.4973 -1.2725
  473TIP3    H222979   5.402   3.885   1.134  0.0512  2.4931  1.2868
  474TIP3   OH222980   6.507   0.269   0.522  0.3894  0.0353 -0.0657
  474TIP3    H122981   6.533   0.330   0.452  0.7593  1.4828  1.2777
  474TIP3    H222982   6.587   0.257   0.574 -0.5028  1.1366  1.6476
  475TIP3   OH222983   5.136   1.369   2.731  0.0336  0.0492  0.5170
  475TIP3    H122984   5.223   1.381   2.769  0.8478 -0.5826 -1.0389
  475TIP3    H222985   5.093   1.453   2.743  1.8846  1.3182 -1.1480
  476TIP3   OH222986   3.744   1.847   2.709 -0.3280  0.2140 -0.1302
  476TIP3    H122987   3.787   1.883   2.787  0.7617 -1.0208 -0.1332
  476TIP3    H222988   3.802   1.777   2.680 -1.7276 -0.6584 -0.9028
  477TIP3   OH222989   2.774   0.371   0.727  0.2316  0.0196  0.2247
  477TIP3    H122990   2.841   0.304   0.739  0.2361  0.2019  1.3911
  477TIP3    H222991   2.773   0.419   0.810 -1.0849  0.2520  0.1061
  478TIP3   OH222992   2.608   6.040   0.728 -0.7509  0.4211 -0.3009
  478TIP3    H122993   2.658   6.122   0.729  0.0451 -0.0434 -0.4111
  478TIP3    H222994   2.518   6.066   0.710 -0.3215  1.1761 -1.4794
  479TIP3   OH222995   6.799   4.352   0.364  0.4085 -0.4671  0.7526
  479TIP3    H122996   6.828   4.329   0.452 -0.4286 -4.0966  0.2354
  479TIP3    H222997   6.866   4.315   0.306 -1.1597 -1.9683 -0.1938
  480TIP3   OH222998   3.072   1.676   1.642 -0.7891 -0.8344  0.2287
  480TIP3    H122999   2.984   1.708   1.661 -2.1422 -3.5652 -0.9957
  480TIP3    H223000   3.082   1.599   1.697  1.6511  0.4250  1.7327
  481TIP3   OH223001   5.707   3.077   2.033  0.8836 -0.4282  0.5492
  481TIP3    H123002   5.684   3.141   2.101  0.2651  0.1264 -0.1756
  481TIP3    H223003   5.744   3.004   2.082  1.8689  0.5791  1.3813
  482TIP3   OH223004   2.524   1.983   6.979  0.0826  0.2205  0.3553
  482TIP3    H123005   2.492   2.020   7.061 -0.6398 -1.5244  0.9079
  482TIP3    H223006   2.453   1.998   6.917 -0.2922 -0.3887  0.6294
  483TIP3   OH223007   4.073   0.455   1.349 -0.1744  0.2557 -0.1247
  483TIP3    H123008   4.066   0.362   1.372 -1.6356  0.5598  0.8084
  483TIP3    H223009   4.166   0.469   1.332  0.0478 -1.4109 -0.4475
  484TIP3   OH223010   0.569   6.637   0.747 -0.1300  0.5957 -0.1901
  484TIP3    H123011   0.533   6.549   0.754 -0.8006  0.9888  2.1397
  484TIP3    H223012   0.498   6.690   0.711  0.8649 -0.0662 -3.4128
  485TIP3   OH223013   3.021   6.381   2.508  0.0704  0.3773  0.0253
  485TIP3    H123014   2.970   6.426   2.576 -1.8707  0.7037 -1.5602
  485TIP3    H223015   2.975   6.400   2.427  2.2177 -0.1675 -1.3915
  486TIP3   OH223016   6.365   6.530   0.472 -0.2592 -0.1717 -0.2665
  486TIP3    H123017   6.403   6.448   0.504  2.3026  0.2630 -1.8825
  486TIP3    H223018   6.320   6.567   0.548 -1.0028 -2.7522  0.6531
  487TIP3   OH223019   1.743   3.849   0.906  0.3176 -0.4300  0.3848
  487TIP3    H123020   1.779   3.871   0.992 -1.5652  0.7271  0.9473
  487TIP3    H223021   1.683   3.921   0.886  1.6932  0.0255 -2.5594
  488TIP3   OH223022   0.933   0.972   7.043 -0.1530  0.1036 -0.2097
  488TIP3    H123023   0.976   1.056   7.024  0.1387  0.1324  0.5261
  488TIP3    H223024   0.952   0.956   7.136 -0.7032 -0.4918 -0.1920
  489TIP3   OH223025   1.518   4.902   1.159  0.6100 -0.1306  0.3609
  489TIP3    H123026   1.447   4.952   1.119  1.9781  0.3253 -1.6409
  489TIP3    H223027   1.522   4.933   1.250 -1.9482 -0.4681  0.6511
  490TIP3   OH223028   6.004   3.901   7.098  0.0133  0.2200 -0.1282
  490TIP3    H123029   6.046   3.906   7.012  0.1685  0.9805 -0.0231
  490TIP3    H223030   5.911   3.903   7.080  0.0340  1.8871 -0.2434
  491TIP3   OH223031   3.233   3.092   1.090 -0.5466 -0.1515  0.3266
  491TIP3    H123032   3.141   3.069   1.079 -1.0334  0.1807  3.0141
  491TIP3    H223033   3.278   3.007   1.095 -0.7499 -0.3178 -0.5094
  492TIP3   OH223034   0.709   2.482   2.576 -0.5946 -0.3533  0.2712
  492TIP3    H123035   0.724   2.424   2.501  0.2212 -0.5594  0.5846
  492TIP3    H223036   0.614   2.489   2.581 -0.6671  0.8010 -1.6496
  493TIP3   OH223037   6.719   6.527   1.818  0.2013 -0.3240 -0.4382
  493TIP3    H123038   6.759   6.530   1.731 -0.7178  0.2476 -0.8459
  493TIP3    H223039   6.627   6.548   1.804  0.1285  0.2373  0.7317
  494TIP3   OH223040   1.204   2.857   7.085 -0.2895  0.3603 -0.3128
  494TIP3    H123041   1.251   2.774   7.098  1.7183  0.8391 -3.4423
  494TIP3    H223042   1.161   2.847   7.000 -2.1385  1.6663  0.4100
  495TIP3   OH223043   0.828   0.274   8.303  0.0354  0.1733 -0.1299
  495TIP3    H123044   0.822   0.257   8.209  1.3369  3.2937 -0.9262
  495TIP3    H223045   0.766   0.214   8.343 -1.7944 -0.1397 -3.1373
  496TIP3   OH223046   4.096   3.055   0.372  0.6270 -0.1153  0.2511
  496TIP3    H123047   4.191   3.049   0.382  0.6720 -1.5934 -0.7765
  496TIP3    H223048   4.067   3.103   0.450  1.9762 -1.6680  1.8015
  497TIP3   OH223049   2.938   6.299   8.404 -0.2030 -0.2382  0.7735
  497TIP3    H123050   2.928   6.329   8.314  1.5617 -1.3469  0.1634
  497TIP3    H223051   2.940   6.380   8.456  1.7493  0.6172 -0.5170
  498TIP3   OH223052   1.960   1.543   0.517 -0.0627 -0.0132 -0.1661
  498TIP3    H123053   2.040   1.489   0.516  0.0340  0.0931  0.8665
  498TIP3    H223054   1.989   1.627   0.552 -0.5132  0.2359 -0.3883
  499TIP3   OH223055   3.658   0.677   2.405  0.0914  0.3045  0.1128
  499TIP3    H123056   3.613   0.674   2.489  0.8422  0.3262  0.5308
  499TIP3    H223057   3.738   0.727   2.423  1.6459 -2.0136  0.1093
  500TIP3   OH223058   4.114   1.360   8.454  0.0957  0.6568  0.3674
  500TIP3    H123059   4.064   1.385   8.377  1.2438  1.1203 -0.2474
  500TIP3    H223060   4.092   1.267   8.468 -1.1331  0.9229  0.3025
  501TIP3   OH223061   4.296   6.327   0.384 -0.1653  0.3235 -0.1882
  501TIP3    H123062   4.262   6.238   0.374 -0.1070  0.5154 -2.9924
  501TIP3    H223063   4.389   6.320   0.366 -0.1506  0.9248 -0.3904
  502TIP3   OH223064   1.609   4.206   7.774 -0.4586 -0.2858 -0.7021
  502TIP3    H123065   1.530   4.159   7.747 -0.9120 -0.2571  0.5194
  502TIP3    H223066   1.582   4.258   7.849  0.8386 -0.6712  0.0750
  503TIP3   OH223067   0.506   2.147   8.171  0.7180 -0.0847  0.5944
  503TIP3    H123068   0.465   2.064   8.197 -2.5078  1.8400  2.3414
  503TIP3    H223069   0.466   2.168   8.086  0.2577  0.4014  0.9206
  504TIP3   OH223070   0.938   0.833   7.651 -0.4168  0.4749  0.0461
  504TIP3    H123071   0.971   0.840   7.561 -0.6925  0.9789 -0.0202
  504TIP3    H223072   1.009   0.790   7.699 -0.6417 -0.6742 -0.6067
  505TIP3   OH223073   5.852   3.116   0.866 -0.4188 -0.1219  0.2040
  505TIP3    H123074   5.834   3.193   0.812 -0.0776 -0.6947 -0.7561
  505TIP3    H223075   5.936   3.135   0.908 -0.2788 -0.0166 -0.1210
  506TIP3   OH223076   4.950   0.477   1.799  0.3019  0.0516  0.6388
  506TIP3    H123077   4.931   0.401   1.854 -0.7326  0.2243  0.5299
  506TIP3    H223078   4.866   0.522   1.789  0.6411  0.4973 -0.3743
  507TIP3   OH223079   6.537   6.267   8.583 -0.1804 -0.5286 -0.0467
  507TIP3    H123080   6.546   6.351   8.627 -0.0378 -1.1655  1.1898
  507TIP3    H223081   6.595   6.208   8.631  0.5717 -1.0974 -1.5753
  508TIP3   OH223082   1.182   1.481   0.589  0.0483  0.4380 -0.2237
  508TIP3    H123083   1.186   1.436   0.505 -2.0092 -0.5044  0.1301
  508TIP3    H223084   1.152   1.415   0.651  0.9598  1.2621  1.1626
  509TIP3   OH223085   4.348   2.662   7.373  0.0226  0.7804  0.3534
  509TIP3    H123086   4.258   2.693   7.363  0.1054  0.7939 -0.4375
  509TIP3    H223087   4.363   2.608   7.295  0.4217  0.0840  0.9060
  510TIP3   OH223088   0.922   0.824   0.672  0.1702 -0.0814 -0.0457
  510TIP3    H123089   0.890   0.863   0.753  1.1506  0.0666  0.2795
  510TIP3    H223090   0.898   0.887   0.604 -0.2948 -0.0132  0.1836
  511TIP3   OH223091   0.875   6.110   1.650 -0.2339  0.2159 -0.0172
  511TIP3    H123092   0.849   6.174   1.717  0.2909 -1.4629  1.8954
  511TIP3    H223093   0.794   6.062   1.632  0.0115 -0.5766  0.8888
  512TIP3   OH223094   2.505   0.388   2.045  0.0042 -1.1204 -0.0814
  512TIP3    H123095   2.427   0.376   1.992  1.1209 -1.0216 -1.8075
  512TIP3    H223096   2.502   0.315   2.108 -0.4753 -2.3040 -1.4155
  513TIP3   OH223097   6.312   3.935   8.556  0.0254  0.4937 -0.0772
  513TIP3    H123098   6.229   3.980   8.539  0.7511  1.5686 -0.8703
  513TIP3    H223099   6.366   4.000   8.602  0.5053 -0.1313  0.2600
  514TIP3   OH223100   4.411   6.584   1.923  0.3686 -0.8935  0.0903
  514TIP3    H123101   4.445   6.498   1.950  1.4193 -0.3876  0.4272
  514TIP3    H223102   4.379   6.570   1.834 -1.6059 -2.1867  0.9415
  515TIP3   OH223103   4.901   6.779   3.013 -0.1950 -0.2824 -0.5665
  515TIP3    H123104   4.992   6.749   3.012  0.0929  0.5589 -1.7783
  515TIP3    H223105   4.862   6.733   3.087  1.1265 -0.9136 -0.2220
  516TIP3   OH223106   1.043   3.231   1.991 -0.2586 -0.1915 -1.2408
  516TIP3    H123107   1.092   3.170   1.935 -1.6096 -1.2781 -1.2929
  516TIP3    H223108   1.053   3.196   2.080 -0.6714 -0.2542 -1.2151
  517TIP3   OH223109   2.530   2.254   1.752 -0.2622 -0.1009 -0.1862
  517TIP3    H123110   2.614   2.296   1.771 -0.1279 -0.7027  0.6127
  517TIP3    H223111   2.487   2.247   1.837  0.0211 -2.1919 -0.1616
  518TIP3   OH223112   5.712   3.391   1.136  0.0093 -0.0752  0.2671
  518TIP3    H123113   5.801   3.415   1.110  1.0277 -0.9372  2.6777
  518TIP3    H223114   5.716   3.381   1.231 -2.3152 -1.5835  0.2957
  519TIP3   OH223115   4.656   0.502   0.709 -0.6430 -0.1613  0.2934
  519TIP3    H123116   4.740   0.549   0.715 -0.4119 -0.2781 -1.4922
  519TIP3    H223117   4.653   0.449   0.789  0.5692  0.5105  0.8232
  520TIP3   OH223118   2.845   3.340   2.402 -0.0944 -0.3153 -0.1854
  520TIP3    H123119   2.920   3.287   2.430  0.1430  0.3730  0.5326
  520TIP3    H223120   2.866   3.428   2.433 -0.1945  0.3327 -1.9055
  521TIP3   OH223121   5.947   0.374   2.193 -0.5043  0.1439  0.6833
  521TIP3    H123122   5.853   0.362   2.175 -0.1802 -0.5619 -0.7301
  521TIP3    H223123   5.951   0.404   2.284 -2.1741  1.3929  0.3925
  522TIP3   OH223124   4.391   6.315   1.315 -0.4684  0.1756  0.3495
  522TIP3    H123125   4.390   6.346   1.405 -0.4695  0.1438  0.3604
  522TIP3    H223126   4.447   6.376   1.269 -0.2796  0.0563  0.4208
  523TIP3   OH223127   6.617   2.565   2.042 -0.4324 -0.7521  0.7504
  523TIP3    H123128   6.712   2.568   2.030 -0.4643 -1.4142  0.2624
  523TIP3    H223129   6.594   2.474   2.027 -1.2744 -0.4112 -0.1274
  524TIP3   OH223130   2.182   0.851   1.672  0.2407 -0.1785  0.4240
  524TIP3    H123131   2.147   0.913   1.608 -0.9079  1.1273  2.2336
  524TIP3    H223132   2.118   0.852   1.743  1.1216 -2.1098  1.3004
  525TIP3   OH223133   1.057   2.088   1.862 -0.3407  0.3197  0.0887
  525TIP3    H123134   1.033   2.139   1.784 -1.8830 -1.4531 -0.6742
  525TIP3    H223135   1.120   2.024   1.830 -1.0645 -0.4867  0.2331
  526TIP3   OH223136   2.260   5.841   1.475  0.6096  0.5625  0.0681
  526TIP3    H123137   2.296   5.788   1.404 -1.9340 -0.3344 -0.6583
  526TIP3    H223138   2.230   5.921   1.431 -0.5935  0.1821  0.1579
  527TIP3   OH223139   3.701   2.048   2.502  0.0606  0.2471 -0.3026
  527TIP3    H123140   3.783   2.095   2.520 -0.6452  1.3022  0.2409
  527TIP3    H223141   3.704   1.971   2.558  0.7592  0.1753 -0.4285
  528TIP3   OH223142   4.547   5.298   7.722 -0.6754 -0.1685 -0.4015
  528TIP3    H123143   4.638   5.303   7.751 -0.8424  0.4953  0.0249
  528TIP3    H223144   4.553   5.298   7.626 -0.2323  0.0745 -0.3785
  529TIP3   OH223145   1.192   2.212   0.752  0.3036  0.2711  0.3239
  529TIP3    H123146   1.136   2.196   0.828 -1.4698  1.4979 -0.6410
  529TIP3    H223147   1.213   2.305   0.756  2.7931 -0.2303  0.9178
  530TIP3   OH223148   0.752   5.025   8.420 -0.2443 -0.1340  0.0492
  530TIP3    H123149   0.810   5.038   8.345  0.8667 -0.5914  0.7873
  530TIP3    H223150   0.754   4.930   8.435  1.0242  0.0957  1.7326
  531TIP3   OH223151   1.369   1.080   2.016 -0.3971  0.2603  0.3182
  531TIP3    H123152   1.377   1.016   2.087  1.8703 -1.9468 -1.7045
  531TIP3    H223153   1.304   1.043   1.957 -1.8586  1.8018  0.8879
  532TIP3   OH223154   6.640   3.486   2.689  0.4478  0.0686 -0.6640
  532TIP3    H123155   6.615   3.503   2.780 -0.0146 -0.5847 -0.6631
  532TIP3    H223156   6.602   3.559   2.639  2.8016  1.8508 -0.0651
  533TIP3   OH223157   5.196   0.141   1.417  0.0589  0.2598  0.2891
  533TIP3    H123158   5.121   0.169   1.365  0.4493 -1.8622 -1.5581
  533TIP3    H223159   5.159   0.086   1.486 -0.1507 -0.3533 -0.3030
  534TIP3   OH223160   4.984   3.784   0.078  0.2433 -0.1650 -0.1914
  534TIP3    H123161   4.968   3.878   0.079 -1.9975 -0.4924  0.9244
  534TIP3    H223162   5.054   3.773   0.014  1.7080  2.3877  0.8268
  535TIP3   OH223163   5.421   6.830   8.463  0.0230  0.5213 -0.0076
  535TIP3    H123164   5.358   6.790   8.523 -0.0040  1.5824  0.7171
  535TIP3    H223165   5.506   6.799   8.493 -0.0087  0.8535  0.4408
  536TIP3   OH223166   1.618   5.843   2.872 -0.4972  0.1842 -0.6152
  536TIP3    H123167   1.545   5.898   2.900 -0.7481  0.0850 -1.0615
  536TIP3    H223168   1.585   5.798   2.794  0.4752  1.0674 -1.5520
  537TIP3   OH223169   5.815   4.296   2.052  0.2778 -0.5846  0.1274
  537TIP3    H123170   5.873   4.228   2.018  0.8368  0.1086 -0.3422
  537TIP3    H223171   5.871   4.373   2.059 -0.2172 -0.3058  1.1499
  538TIP3   OH223172   4.522   0.236   1.904  0.0323 -0.3682  0.0837
  538TIP3    H123173   4.483   0.152   1.929  1.2486 -0.9795 -0.0108
  538TIP3    H223174   4.472   0.301   1.953 -0.4045 -1.2114  0.7909
  539TIP3   OH223175   6.405   3.492   0.448  0.2640 -0.5878  0.0897
  539TIP3    H123176   6.432   3.407   0.413 -2.2019 -0.6119 -2.0039
  539TIP3    H223177   6.310   3.488   0.451  0.1690  1.3470  2.0910
  540TIP3   OH223178   0.556   6.572   1.265 -0.0807  0.2810 -0.1955
  540TIP3    H123179   0.579   6.606   1.352 -2.2822 -3.1007  1.9825
  540TIP3    H223180   0.625   6.507   1.246 -0.1728  0.2580 -0.4524
  541TIP3   OH223181   2.763   1.176   8.668 -0.5657 -0.3283 -0.2506
  541TIP3    H123182   2.824   1.106   8.694  0.5424  1.2216  1.5698
  541TIP3    H223183   2.696   1.175   8.736  0.5885  1.6522  1.0131
  542TIP3   OH223184   1.279   6.151   1.835 -0.0033  0.4166  0.1024
  542TIP3    H123185   1.365   6.191   1.848 -0.9681  2.4679  0.5839
  542TIP3    H223186   1.277   6.128   1.742  0.9809  0.5334  0.0399
  543TIP3   OH223187   3.488   6.405   3.208 -0.3613 -0.4127  0.4117
  543TIP3    H123188   3.554   6.361   3.262 -0.9455 -1.9371 -0.0573
  543TIP3    H223189   3.538   6.469   3.157  0.8191 -1.7012 -0.1133
  544TIP3   OH223190   6.053   5.500   7.657  0.2034 -0.8278 -0.2895
  544TIP3    H123191   6.099   5.449   7.590  3.2613  0.1996  0.8795
  544TIP3    H223192   6.104   5.486   7.737 -1.7964  0.1192  1.2303
  545TIP3   OH223193   1.656   5.766   1.129 -0.0489 -0.2853  0.0480
  545TIP3    H123194   1.732   5.823   1.120 -0.3104 -0.2126 -2.8601
  545TIP3    H223195   1.606   5.803   1.201  0.8313  1.9380 -0.3977
  546TIP3   OH223196   3.917   1.558   2.299  0.1947  0.1928  0.3316
  546TIP3    H123197   3.885   1.608   2.374 -3.9317 -1.1070 -0.3276
  546TIP3    H223198   3.849   1.567   2.233  1.9013 -1.8009 -1.8616
  547TIP3   OH223199   2.674   6.824   0.674 -0.1854  0.0238  0.5966
  547TIP3    H123200   2.607   6.761   0.648 -0.3232  0.6348 -0.6185
  547TIP3    H223201   2.629   6.909   0.673  0.6729  0.5020 -0.6562
  548TIP3   OH223202   0.046   1.784   1.467 -0.0233 -0.0635 -0.0678
  548TIP3    H123203   0.109   1.719   1.498  0.2689  0.7036  1.0032
  548TIP3    H223204   0.032   1.762   1.375  1.5452 -0.4582 -0.2362
  549TIP3   OH223205   4.981   3.668   0.326  0.1603  0.3340  0.6886
  549TIP3    H123206   4.959   3.690   0.235 -1.6587 -1.1822  0.6851
  549TIP3    H223207   4.907   3.702   0.377  0.6962  0.3194  1.4911
  550TIP3   OH223208   4.204   6.467   3.673 -0.5507  0.4191  0.0770
  550TIP3    H123209   4.204   6.391   3.614  1.0695  0.1560  0.3621
  550TIP3    H223210   4.159   6.436   3.752 -0.1123 -0.1978  0.0989
  551TIP3   OH223211   1.457   3.074   0.902  0.5699 -0.1147  0.0955
  551TIP3    H123212   1.394   3.005   0.883  0.0348  0.6255 -0.9375
  551TIP3    H223213   1.407   3.155   0.893  1.8129  0.5215 -1.4556
  552TIP3   OH223214   0.607   1.254   8.414 -0.1025 -0.3370 -0.0373
  552TIP3    H123215   0.655   1.243   8.496 -0.9596 -1.8775  0.2935
  552TIP3    H223216   0.529   1.303   8.438 -1.2532 -2.3099  0.4759
  553TIP3   OH223217   6.510   4.109   0.776  0.1645  0.3589  0.1533
  553TIP3    H123218   6.439   4.113   0.711  0.1223  1.3165  0.2491
  553TIP3    H223219   6.507   4.020   0.809 -0.4398  0.1391 -0.4691
  554TIP3   OH223220   2.065   5.363   1.423 -0.2395  0.6148 -0.1873
  554TIP3    H123221   2.064   5.457   1.406  0.5737  0.5166 -0.8593
  554TIP3    H223222   2.051   5.322   1.338  0.6452  0.1329 -0.1230
  555TIP3   OH223223   5.170   0.931   7.686 -0.0148 -0.1174 -0.3228
  555TIP3    H123224   5.246   0.988   7.692  1.0913 -1.5493 -0.0206
  555TIP3    H223225   5.157   0.917   7.592 -0.7465  1.1657 -0.4330
  556TIP3   OH223226   6.060   4.276   8.366 -0.5759 -0.6518 -0.2034
  556TIP3    H123227   6.115   4.299   8.291  0.3846 -1.3766  0.2613
  556TIP3    H223228   5.970   4.288   8.335 -0.1665  0.3787 -1.0309
  557TIP3   OH223229   2.169   1.868   2.132 -0.5375  0.2493 -0.1196
  557TIP3    H123230   2.129   1.802   2.189  1.8421 -1.1704  0.0510
  557TIP3    H223231   2.232   1.914   2.188 -0.9171  1.4820 -0.6791
  558TIP3   OH223232   6.756   3.683   1.458  0.3319  0.7506  0.2001
  558TIP3    H123233   6.805   3.709   1.536  1.1746 -1.1251  0.3447
  558TIP3    H223234   6.668   3.718   1.473  0.5845  0.7883  1.8218
  559TIP3   OH223235   2.453   2.396   1.507 -0.4474  0.1941  0.3058
  559TIP3    H123236   2.505   2.360   1.435 -0.2696  0.5338  0.2626
  559TIP3    H223237   2.490   2.355   1.585 -0.2653  0.2552  0.2529
  560TIP3   OH223238   6.131   6.302   8.613 -0.6179 -0.5574 -0.1915
  560TIP3    H123239   6.078   6.275   8.688  1.3720 -0.1965  1.4347
  560TIP3    H223240   6.148   6.221   8.565 -0.7086 -1.0409  0.5752
  561TIP3   OH223241   1.159   5.571   0.133  0.2165  0.3910 -0.3731
  561TIP3    H123242   1.179   5.559   0.226  1.5798  1.1315 -0.5490
  561TIP3    H223243   1.140   5.482   0.102  0.0225  0.0925  0.5423
  562TIP3   OH223244   0.766   0.956   1.566  0.4255  0.5324  0.1870
  562TIP3    H123245   0.747   0.990   1.653  0.0707  1.1387 -0.1143
  562TIP3    H223246   0.848   0.999   1.541  0.4722  0.4408  0.1849
  563TIP3   OH223247   4.948   1.663   0.693  0.1795  0.3888  0.4218
  563TIP3    H123248   4.886   1.679   0.622 -0.4890 -0.6454  0.7569
  563TIP3    H223249   5.033   1.691   0.657 -0.0947 -0.3789 -0.8863
  564TIP3   OH223250   0.989   2.685   0.113  0.0541  0.2585 -0.4289
  564TIP3    H123251   0.977   2.733   0.031 -1.8781 -0.4032 -0.5758
  564TIP3    H223252   0.909   2.700   0.162  0.5811 -0.5518  0.7251
  565TIP3   OH223253   1.476   4.130   2.024 -0.4109 -0.1983 -0.2584
  565TIP3    H123254   1.537   4.116   2.096 -1.5062  1.1053  0.9817
  565TIP3    H223255   1.480   4.049   1.973 -0.5459 -1.7044  1.9854
  566TIP3   OH223256   3.827   2.202   1.238  0.1336  0.4083  0.1864
  566TIP3    H123257   3.871   2.164   1.162  0.7780  1.9870 -0.2838
  566TIP3    H223258   3.861   2.292   1.243  0.7641  0.1019  2.8625
  567TIP3   OH223259   2.282   1.632   6.985 -0.2662 -0.6803  0.6638
  567TIP3    H123260   2.240   1.547   6.999 -0.3811 -0.8068 -0.3743
  567TIP3    H223261   2.301   1.634   6.891  1.8487 -0.5423  1.0342
  568TIP3   OH223262   1.366   2.099   1.041 -0.5317  0.5356  0.2214
  568TIP3    H123263   1.312   2.020   1.034 -0.4973  0.3165  1.9500
  568TIP3    H223264   1.423   2.096   0.964 -0.2452 -1.3495  0.4646
  569TIP3   OH223265   4.014   3.997   2.139 -0.3729 -0.1874  0.2388
  569TIP3    H123266   4.092   3.960   2.180  0.1111 -0.4229 -0.8759
  569TIP3    H223267   4.031   4.091   2.135  0.0771 -0.2985 -0.4726
  570TIP3   OH223268   3.861   0.001   7.732 -0.7273 -0.0455 -0.4559
  570TIP3    H123269   3.941  -0.047   7.754  0.0250  0.7805 -1.3358
  570TIP3    H223270   3.881   0.046   7.650 -1.6468  1.2406 -0.0021
  571TIP3   OH223271   0.501   6.607   0.111  0.7378 -0.4639 -0.0837
  571TIP3    H123272   0.536   6.586   0.198  0.6611  0.8666  0.2861
  571TIP3    H223273   0.409   6.579   0.116  0.5103  0.3662  0.5572
  572TIP3   OH223274   2.487   6.248   1.528 -0.0302  0.3135  0.2447
  572TIP3    H123275   2.461   6.184   1.594 -0.1055  0.3005  0.2023
  572TIP3    H223276   2.411   6.256   1.471  0.2162 -0.0741 -0.1496
  573TIP3   OH223277   3.628   0.585   1.578 -0.0124 -0.9391  0.3177
  573TIP3    H123278   3.684   0.659   1.600 -0.9557 -0.0299 -0.2232
  573TIP3    H223279   3.675   0.508   1.610  1.4375 -0.1974  0.0270
  574TIP3   OH223280   6.157   5.346   7.462  0.1839  0.2051  0.3857
  574TIP3    H123281   6.192   5.423   7.417  0.5758 -0.3020 -0.1906
  574TIP3    H223282   6.149   5.280   7.393  3.1801 -1.4357  1.4104
  575TIP3   OH223283   1.768   0.547   7.007 -0.4050  0.0430 -0.3887
  575TIP3    H123284   1.764   0.479   7.074 -1.8142  0.6107  0.1555
  575TIP3    H223285   1.834   0.516   6.945  0.6743 -0.6677  1.0656
  576TIP3   OH223286   1.403   6.416   0.552 -0.7344 -0.2382  0.8973
  576TIP3    H123287   1.472   6.363   0.593 -0.4194  1.2394  2.3990
  576TIP3    H223288   1.399   6.495   0.606 -1.3158  1.1885 -1.1340
  577TIP3   OH223289   4.633   1.362   1.124  0.1183  0.1247 -0.5557
  577TIP3    H123290   4.686   1.414   1.063  0.5877 -0.0383 -0.2875
  577TIP3    H223291   4.564   1.325   1.069 -0.5764  1.5071 -0.6502
  578TIP3   OH223292   4.042   2.066   1.462  0.1065  0.0452 -0.0710
  578TIP3    H123293   4.098   2.061   1.385 -1.9712 -0.8842 -1.6148
  578TIP3    H223294   4.020   2.159   1.470  1.4001  0.3402  0.2450
  579TIP3   OH223295   1.446   4.709   0.560  0.2736  0.1483 -0.4132
  579TIP3    H123296   1.401   4.790   0.535  0.2351 -0.4999 -2.6268
  579TIP3    H223297   1.539   4.731   0.557  0.2576  0.1676 -0.8817
  580TIP3   OH223298   1.922   1.331   7.428 -0.3254 -0.3069  0.3941
  580TIP3    H123299   1.970   1.292   7.355  0.4753  1.5457 -0.1461
  580TIP3    H223300   1.835   1.348   7.393  0.2686  1.2586 -0.4489
  581TIP3   OH223301   0.025   6.276   0.197  0.0015  0.0139  0.3360
  581TIP3    H123302   0.028   6.318   0.111 -0.6780 -0.5608  0.0155
  581TIP3    H223303   0.040   6.347   0.259 -3.2578  1.2000 -0.0581
  582TIP3   OH223304   6.843   0.319   7.666 -0.0808  0.7860  0.1011
  582TIP3    H123305   6.845   0.380   7.593  1.0780  1.1508  0.4168
  582TIP3    H223306   6.872   0.370   7.742  0.3444  0.0043  0.4842
  583TIP3   OH223307   3.371   5.903   2.383 -0.2223 -0.1164 -0.3722
  583TIP3    H123308   3.289   5.858   2.402 -0.3855 -0.5032 -1.8193
  583TIP3    H223309   3.401   5.936   2.467 -1.0147 -1.4006  0.4503
  584TIP3   OH223310   2.187   4.997   2.470 -0.1413 -0.3244  0.0029
  584TIP3    H123311   2.185   5.044   2.387  1.0844 -1.9397 -0.9861
  584TIP3    H223312   2.236   5.055   2.529  0.0628  0.2878 -0.7517
  585TIP3   OH223313   1.182   4.641   1.563 -0.3173 -0.4869  0.1274
  585TIP3    H123314   1.220   4.579   1.625  1.0593 -0.4394 -0.6161
  585TIP3    H223315   1.088   4.642   1.582  0.0326 -0.7301  1.9551
  586TIP3   OH223316   5.221   0.146   0.690 -0.4943 -0.7405  0.6965
  586TIP3    H123317   5.158   0.217   0.681 -0.7360 -1.0168  0.1303
  586TIP3    H223318   5.306   0.190   0.697 -0.7294 -0.3754  1.3059
  587TIP3   OH223319   6.480   3.120   8.352  0.0795 -0.0118  0.9614
  587TIP3    H123320   6.467   3.056   8.422  0.9713 -1.1022  0.1591
  587TIP3    H223321   6.473   3.069   8.271  2.7969  0.4538  0.3231
  588TIP3   OH223322   5.823   2.540   8.393  0.4224  0.0800 -0.5131
  588TIP3    H123323   5.846   2.491   8.472  0.0625  2.1643  0.9423
  588TIP3    H223324   5.851   2.630   8.411  1.1488  0.4685 -3.1323
  589TIP3   OH223325   0.391   1.015   1.388  0.1407  0.4158  0.3016
  589TIP3    H123326   0.302   0.996   1.359  0.3916 -0.7533  0.2296
  589TIP3    H223327   0.408   0.951   1.457  0.7642  0.9247  0.6358
  590TIP3   OH223328   6.406   0.827   7.772 -0.0976  0.3241  0.1860
  590TIP3    H123329   6.434   0.797   7.685 -0.0919  1.1628 -0.1040
  590TIP3    H223330   6.349   0.902   7.754 -5.0428 -2.8839  0.4773
  591TIP3   OH223331   2.638   0.763   1.527  0.3012 -0.5243  0.6369
  591TIP3    H123332   2.571   0.830   1.513  0.1404 -0.6731  0.6784
  591TIP3    H223333   2.712   0.791   1.474  0.6148  0.2294  1.4685
  592TIP3   OH223334   4.633   5.953   8.166  0.1311 -0.7322 -0.0343
  592TIP3    H123335   4.598   6.005   8.238 -0.3204 -1.0103 -0.0480
  592TIP3    H223336   4.643   6.015   8.094  3.4308  0.2678  1.0806
  593TIP3   OH223337   0.079   3.040   0.565  0.9417  0.1408  0.1385
  593TIP3    H123338  -0.013   3.015   0.566  1.1410 -0.8430 -1.7998
  593TIP3    H223339   0.078   3.135   0.570 -0.1314  0.1090  0.8883
  594TIP3   OH223340   0.488   1.185   7.647  0.1382  0.1632 -1.1304
  594TIP3    H123341   0.462   1.263   7.697 -3.3394 -1.3760 -0.2517
  594TIP3    H223342   0.579   1.170   7.672  0.2329  2.6624  0.3575
  595TIP3   OH223343   3.580   2.404   1.258  0.5311 -1.0981 -0.2806
  595TIP3    H123344   3.672   2.429   1.246 -0.0772  0.7335 -1.5167
  595TIP3    H223345   3.534   2.446   1.186 -1.5349 -0.4439  1.3139
  596TIP3   OH223346   5.880   0.445   1.843  0.3451  0.3120 -0.0674
  596TIP3    H123347   5.932   0.486   1.775  1.0366  0.2898  0.4287
  596TIP3    H223348   5.899   0.351   1.835  2.1182  0.4659  1.4565
  597TIP3   OH223349   0.422   5.811   2.278 -0.0585  0.2806  0.2222
  597TIP3    H123350   0.454   5.869   2.209  2.1707 -0.0738  0.9068
  597TIP3    H223351   0.440   5.723   2.246 -0.2219  0.0726  0.6946
  598TIP3   OH223352   4.389   5.999   8.361 -0.2343 -0.0945  0.0363
  598TIP3    H123353   4.329   5.972   8.431  0.2423  0.6048  0.7288
  598TIP3    H223354   4.445   5.923   8.347  0.3189  0.0989  1.1300
  599TIP3   OH223355   4.834   4.458   1.610  0.8243  0.5878 -0.0365
  599TIP3    H123356   4.873   4.440   1.695 -0.1775  2.0105  0.7514
  599TIP3    H223357   4.749   4.415   1.612  0.6583  0.9008 -0.1901
  600TIP3   OH223358   6.025   3.980   7.353  0.2038  0.1659 -0.2828
  600TIP3    H123359   5.939   4.018   7.368  0.5114  0.1462  1.7839
  600TIP3    H223360   6.018   3.938   7.267 -2.2239 -0.8618  0.3246
  601TIP3   OH223361   5.146   6.665   1.803  0.4859 -0.4941  0.1401
  601TIP3    H123362   5.232   6.674   1.843  0.5983 -1.4567  0.1324
  601TIP3    H223363   5.145   6.576   1.767  0.7874  0.5964 -2.8825
  602TIP3   OH223364   1.199   3.345   1.237  0.3770 -0.2317  0.0815
  602TIP3    H123365   1.223   3.391   1.317 -0.1256  2.9625 -1.4619
  602TIP3    H223366   1.114   3.381   1.213  0.2015 -1.6151 -1.5601
  603TIP3   OH223367   3.037   4.550   0.067 -0.4780 -0.1994  0.0624
  603TIP3    H123368   2.955   4.600   0.066 -0.0024  0.6089 -1.1250
  603TIP3    H223369   3.090   4.589  -0.004  1.9003  0.9401  2.2963
  604TIP3   OH223370   1.470   5.739   7.435 -0.8080 -0.2992  0.2917
  604TIP3    H123371   1.555   5.724   7.394 -0.7528  1.5696 -0.3761
  604TIP3    H223372   1.472   5.831   7.462 -2.1859 -0.5342  1.3231
  605TIP3   OH223373   4.554   4.757   2.642 -0.1429 -0.2344  0.2410
  605TIP3    H123374   4.615   4.699   2.688  1.7884  0.1866 -1.6296
  605TIP3    H223375   4.468   4.721   2.661  0.9087 -3.2231 -0.1099
  606TIP3   OH223376   2.659   5.931   1.086 -0.5901  0.7906  0.8956
  606TIP3    H123377   2.679   5.850   1.132  0.9548  1.1682  0.9408
  606TIP3    H223378   2.567   5.923   1.062 -0.0902 -1.6627 -0.5196
  607TIP3   OH223379   3.359   4.233   7.305 -0.1962  0.2690  0.0337
  607TIP3    H123380   3.426   4.238   7.237  2.0898 -2.3365  1.8600
  607TIP3    H223381   3.321   4.146   7.294 -0.5839  0.2468  1.3696
  608TIP3   OH223382   4.022   4.947   0.905 -0.4429  0.1906  0.3232
  608TIP3    H123383   4.050   4.870   0.955 -0.1547 -0.7310 -1.1997
  608TIP3    H223384   3.929   4.954   0.924  0.0914  1.3872  2.9382
  609TIP3   OH223385   0.963   1.738   1.665 -0.2142 -0.1698  0.1867
  609TIP3    H123386   1.050   1.712   1.695 -0.6926 -0.7078  1.1574
  609TIP3    H223387   0.972   1.745   1.570  0.9964  0.2198  0.3123
  610TIP3   OH223388   0.574   3.272   2.033  0.4385 -0.6317  0.2327
  610TIP3    H123389   0.647   3.315   2.078 -0.6537  0.9482  0.5603
  610TIP3    H223390   0.594   3.282   1.940  0.1100  0.8142  0.2967
  611TIP3   OH223391   3.406   0.802   8.260  0.1417  0.2477  0.0850
  611TIP3    H123392   3.323   0.774   8.300 -0.1019  1.5610  0.5519
  611TIP3    H223393   3.473   0.756   8.310 -0.2867 -0.9432 -0.3858
  612TIP3   OH223394   2.286   3.721   2.186 -0.4602  0.3687 -0.5497
  612TIP3    H123395   2.368   3.687   2.221 -1.2887  0.9120  2.1672
  612TIP3    H223396   2.226   3.646   2.190 -0.2329  0.0624 -2.2069
  613TIP3   OH223397   5.998   0.869   8.667  0.2395  0.1222 -0.7184
  613TIP3    H123398   6.025   0.880   8.576  1.7947  1.0776 -0.1873
  613TIP3    H223399   6.039   0.787   8.694  0.2315  0.1139 -0.7310
  614TIP3   OH223400   6.310   5.797   8.163 -0.1506 -0.4281  0.4728
  614TIP3    H123401   6.356   5.840   8.235  0.0893 -0.3851  0.2950
  614TIP3    H223402   6.344   5.708   8.162  0.0834 -0.3371  0.2084
  615TIP3   OH223403   1.669   1.049   1.292 -0.3974 -0.5711  0.3562
  615TIP3    H123404   1.751   1.050   1.242 -0.5697 -0.4381  0.0699
  615TIP3    H223405   1.677   0.973   1.350 -0.3618 -0.9733 -0.1647
  616TIP3   OH223406   3.634   6.573   8.320  0.0646  0.4413 -0.2872
  616TIP3    H123407   3.716   6.524   8.320 -0.2611 -0.1065 -0.1810
  616TIP3    H223408   3.587   6.541   8.397  0.7166  2.4037  1.0052
  617TIP3   OH223409   4.870   4.150   1.336 -0.2471  0.0363  0.4219
  617TIP3    H123410   4.790   4.098   1.329 -0.5450  0.6045 -0.8183
  617TIP3    H223411   4.839   4.241   1.340  0.3118  0.2379  0.2748
  618TIP3   OH223412   1.100   0.901   8.582 -0.7644  0.5443  0.5819
  618TIP3    H123413   1.130   0.989   8.605 -2.6269  1.1908  0.7926
  618TIP3    H223414   1.119   0.892   8.489 -0.6602  1.2338  0.5308
  619TIP3   OH223415   1.928   5.124   0.659 -0.1637 -0.1797  0.0487
  619TIP3    H123416   1.850   5.111   0.713 -0.4507 -3.0291 -0.9291
  619TIP3    H223417   1.897   5.172   0.582  0.1332  3.3325  1.8837
  620TIP3   OH223418   0.884   5.862   7.924  0.1635  0.1721  0.3029
  620TIP3    H123419   0.824   5.902   7.987  0.2591 -0.5121  0.8375
  620TIP3    H223420   0.930   5.936   7.883 -1.2893  0.7352 -0.3787
  621TIP3   OH223421   0.820   4.685   1.314 -0.1406  0.5633 -0.7891
  621TIP3    H123422   0.867   4.697   1.397 -2.1357  1.7409  0.2428
  621TIP3    H223423   0.756   4.616   1.332  1.3120 -1.2973 -2.2870
  622TIP3   OH223424   2.465   5.278   8.379  0.2040 -0.1554  0.3116
  622TIP3    H123425   2.462   5.288   8.474 -2.0875 -2.1283  0.5530
  622TIP3    H223426   2.532   5.212   8.364  1.8638  1.4551  0.3350
  623TIP3   OH223427   0.106   4.238   8.698 -0.0867 -0.0282  0.3985
  623TIP3    H123428   0.056   4.186   8.634  0.4284 -0.2963  0.2147
  623TIP3    H223429   0.136   4.314   8.648 -1.9825  1.1752  0.9875
  624TIP3   OH223430   3.033   2.070   2.737  0.0775  0.3508 -0.1143
  624TIP3    H123431   3.020   2.125   2.814 -0.2612 -0.4344  0.4008
  624TIP3    H223432   2.952   2.078   2.687 -0.9317 -1.4265  1.1063
  625TIP3   OH223433   2.339   4.204   0.616 -0.1683 -0.1466  0.0140
  625TIP3    H123434   2.377   4.281   0.660  0.5068 -0.1444 -0.5708
  625TIP3    H223435   2.245   4.223   0.614 -0.1283  0.1953  0.7854
  626TIP3   OH223436   2.314   0.384   8.276  0.3862  0.2341 -0.0327
  626TIP3    H123437   2.282   0.459   8.226  0.2550  0.1476 -0.0791
  626TIP3    H223438   2.373   0.338   8.216  0.5459  0.3556  0.0292
  627TIP3   OH223439   2.687   1.452   7.063  0.3182  0.1435 -0.4123
  627TIP3    H123440   2.645   1.537   7.049  1.1984  0.6992  0.2023
  627TIP3    H223441   2.780   1.472   7.066  0.4376 -0.5357  1.8340
  628TIP3   OH223442   4.275   0.658   2.660 -0.5248 -0.8052  0.1501
  628TIP3    H123443   4.352   0.642   2.715  0.1363  0.3071 -0.4242
  628TIP3    H223444   4.289   0.745   2.623 -1.5332 -1.0437 -0.8513
  629TIP3   OH223445   5.630   1.961   3.167 -0.3343 -0.1003  0.2046
  629TIP3    H123446   5.620   1.924   3.254 -0.4374 -0.5336  0.0136
  629TIP3    H223447   5.581   2.043   3.169  0.3534  0.3024  0.7962
  630TIP3   OH223448   3.543   5.524   1.662 -0.3423  0.9194 -0.5446
  630TIP3    H123449   3.485   5.457   1.624  0.5462 -1.2087  1.5918
  630TIP3    H223450   3.580   5.569   1.586 -2.8000  0.6692 -2.0198
  631TIP3   OH223451   4.325   5.798   1.801  0.1025  0.2787 -0.0358
  631TIP3    H123452   4.393   5.789   1.868  0.5331  2.3993 -0.1083
  631TIP3    H223453   4.293   5.709   1.787  2.3683 -0.6927  0.5094
  632TIP3   OH223454   6.795   1.950   8.130 -0.6923  0.4476 -0.2218
  632TIP3    H123455   6.833   2.007   8.197 -2.1633  1.5869 -0.3205
  632TIP3    H223456   6.794   1.863   8.171  2.6916  0.1150 -0.5054
  633TIP3   OH223457   3.797   5.049   1.369  0.0785 -0.0415  0.2084
  633TIP3    H123458   3.722   5.076   1.316 -0.0687  0.4535  0.6524
  633TIP3    H223459   3.873   5.064   1.313 -0.1944 -1.1611 -0.4779
  634TIP3   OH223460   0.756   3.920   0.290 -0.0121 -0.1073 -0.9505
  634TIP3    H123461   0.745   4.004   0.243 -0.2661 -0.1214 -0.9182
  634TIP3    H223462   0.685   3.865   0.256 -1.4635  0.5297  0.8931
  635TIP3   OH223463   4.427   0.516   0.218 -0.0980 -0.5469  0.1707
  635TIP3    H123464   4.501   0.534   0.159  1.5697 -2.6755  1.4784
  635TIP3    H223465   4.462   0.531   0.305 -1.5894 -0.5117  0.7922
  636TIP3   OH223466   4.847   3.943   0.560  0.0168  0.0093  0.0375
  636TIP3    H123467   4.765   3.990   0.543  0.0271 -0.4568 -1.4769
  636TIP3    H223468   4.826   3.851   0.545  1.3068  0.0558 -2.8292
  637TIP3   OH223469   5.663   0.046   0.687 -0.4571  0.2533 -0.0348
  637TIP3    H123470   5.595   0.111   0.704 -0.5079  0.5101 -1.1368
  637TIP3    H223471   5.731   0.094   0.640 -0.0206 -0.2621  0.0607
  638TIP3   OH223472   6.422   1.017   1.275  0.7893 -0.4508 -0.0802
  638TIP3    H123473   6.451   1.098   1.318  3.4217 -1.3303 -0.0252
  638TIP3    H223474   6.406   0.956   1.346 -2.9356  0.3736  0.0064
  639TIP3   OH223475   2.733   6.040   8.608  0.2201 -0.7282  0.1635
  639TIP3    H123476   2.713   6.068   8.518  0.4035 -1.7074 -0.1957
  639TIP3    H223477   2.720   6.119   8.661 -1.6645 -0.5612 -0.4609
  640TIP3   OH223478   5.773   0.608   0.078  0.5133 -0.0811 -0.1893
  640TIP3    H123479   5.754   0.699   0.102 -2.5818 -0.6773  0.1126
  640TIP3    H223480   5.835   0.614   0.005  0.1932  2.2733 -0.3386
  641TIP3   OH223481   4.063   6.235   1.836 -0.4116  0.1918  0.5725
  641TIP3    H123482   4.087   6.261   1.925 -0.0783  1.3247  0.1577
  641TIP3    H223483   3.969   6.216   1.841 -0.5130  0.8022  1.0382
  642TIP3   OH223484   3.983   6.587   7.335  0.3150 -0.0189 -0.0563
  642TIP3    H123485   4.068   6.602   7.294  0.1952  0.9110  0.0264
  642TIP3    H223486   3.981   6.492   7.350  0.9909 -0.1641 -0.7947
  643TIP3   OH223487   6.150   1.798   0.893  0.6329 -0.2986  0.3127
  643TIP3    H123488   6.094   1.875   0.890  2.5142  1.1144 -0.2315
  643TIP3    H223489   6.225   1.824   0.945  1.1110 -1.9293  0.5161
  644TIP3   OH223490   6.497   0.485   1.731 -0.5143  0.2873 -0.2060
  644TIP3    H123491   6.494   0.453   1.821 -0.6672 -0.4549 -0.4630
  644TIP3    H223492   6.586   0.520   1.721  0.0826 -1.1698 -0.2650
  645TIP3   OH223493   5.747   1.183   2.192  0.5858  0.4911  0.0407
  645TIP3    H123494   5.719   1.174   2.283  0.8255 -1.8905 -0.0594
  645TIP3    H223495   5.683   1.133   2.141  1.1582  0.7298 -0.9504
  646TIP3   OH223496   2.560   1.623   8.407  0.2720 -0.0294  0.0581
  646TIP3    H123497   2.555   1.675   8.327  2.0075 -0.7043 -0.5274
  646TIP3    H223498   2.621   1.670   8.463 -0.1411 -0.1016  0.5778
  647TIP3   OH223499   5.581   5.009   2.761  0.3067 -0.1833  0.5553
  647TIP3    H123500   5.544   5.048   2.682  0.7703  0.4613  0.6466
  647TIP3    H223501   5.608   4.921   2.734 -0.2170 -0.2340  0.1938
  648TIP3   OH223502   2.397   0.482   1.637  0.1072 -0.1742  0.5973
  648TIP3    H123503   2.488   0.466   1.616 -0.4858 -0.4950 -2.0295
  648TIP3    H223504   2.359   0.519   1.557 -1.8142  1.1005  1.9857
  649TIP3   OH223505   3.630   5.972   7.926 -0.1539  0.0765  0.3738
  649TIP3    H123506   3.599   6.005   8.011 -0.0182 -1.4568  1.0642
  649TIP3    H223507   3.554   5.982   7.868 -0.5360  0.3571  0.9061
  650TIP3   OH223508   0.903   5.265   2.258 -0.2182 -0.5984 -0.1691
  650TIP3    H123509   0.920   5.336   2.320 -0.1062 -0.7198 -0.0611
  650TIP3    H223510   0.931   5.186   2.304  1.6148 -0.5125 -1.0835
  651TIP3   OH223511   3.692   6.835   2.714 -0.1871 -0.1789 -0.2448
  651TIP3    H123512   3.767   6.869   2.763 -0.2381 -1.5997  0.8955
  651TIP3    H223513   3.617   6.884   2.746 -0.3280 -1.5500  1.6919
  652TIP3   OH223514   1.866   6.178   0.514 -0.2589  0.4067 -0.1071
  652TIP3    H123515   1.890   6.110   0.577 -1.0935  0.5840  0.4218
  652TIP3    H223516   1.929   6.248   0.531 -0.3870  0.3967  0.4499
  653TIP3   OH223517   0.592   5.202   1.703  0.3457 -0.3296 -0.3473
  653TIP3    H123518   0.589   5.171   1.793 -1.0025  0.9560  0.1011
  653TIP3    H223519   0.641   5.284   1.707  2.2370 -1.3423 -1.2022
  654TIP3   OH223520   2.742   1.366   1.115 -0.4857 -0.0815 -0.0990
  654TIP3    H123521   2.786   1.334   1.193 -1.1954  1.6227  1.0548
  654TIP3    H223522   2.726   1.459   1.132 -0.2359  0.4796 -2.4703
  655TIP3   OH223523   2.806   0.358   0.237 -0.2805  0.5831 -0.6803
  655TIP3    H123524   2.819   0.263   0.241 -0.0107  0.5930 -1.1508
  655TIP3    H223525   2.842   0.390   0.319 -0.7047  0.2462 -0.3547
  656TIP3   OH223526   2.797   5.870   2.295  0.1606  0.1251 -0.3176
  656TIP3    H123527   2.853   5.943   2.266  1.8500 -1.7475 -2.0790
  656TIP3    H223528   2.847   5.791   2.272 -1.4790 -1.6134  1.7560
  657TIP3   OH223529   5.108   6.188   2.370 -0.4821  0.0976  0.5403
  657TIP3    H123530   5.182   6.137   2.334 -2.1829 -3.3086  1.4052
  657TIP3    H223531   5.145   6.232   2.446  1.2545  0.7407 -0.5976
  658TIP3   OH223532   0.787   6.717   0.460 -0.1849 -0.5080 -0.4580
  658TIP3    H123533   0.847   6.784   0.427  2.1864 -2.7253 -0.9807
  658TIP3    H223534   0.806   6.712   0.554  1.0487 -1.6405 -0.7225
  659TIP3   OH223535   3.916   2.417   7.818  0.3529  0.2214  0.2509
  659TIP3    H123536   3.909   2.452   7.906  1.4263 -1.0766  0.8851
  659TIP3    H223537   3.943   2.491   7.764  0.6725  0.8023  1.2025
  660TIP3   OH223538   3.000   3.447   1.703 -0.0084 -0.0986 -0.0866
  660TIP3    H123539   3.079   3.437   1.756  1.5301  3.5379 -1.3310
  660TIP3    H223540   2.951   3.518   1.746  0.9861  2.5383 -2.8918
  661TIP3   OH223541   0.727   2.178   7.897 -0.1502 -0.0455 -0.0103
  661TIP3    H123542   0.746   2.102   7.841  2.1038 -0.0256  0.6338
  661TIP3    H223543   0.758   2.152   7.984  0.7129  1.5938  0.2108
  662TIP3   OH223544   1.755   1.113   8.703  0.3793 -0.7319 -0.4549
  662TIP3    H123545   1.691   1.126   8.773  0.8736 -1.1065  0.0753
  662TIP3    H223546   1.701   1.092   8.626 -0.3002  1.8505 -0.7796
  663TIP3   OH223547   2.550   0.126   1.005 -0.4258 -0.1687 -0.1334
  663TIP3    H123548   2.496   0.173   0.941 -1.3954 -1.1794 -0.0833
  663TIP3    H223549   2.598   0.195   1.051  0.5782  0.5719 -2.1666
  664TIP3   OH223550   0.968   3.098   1.504  0.3688 -0.1584  0.5573
  664TIP3    H123551   1.013   3.103   1.420  0.4180  1.0204  0.6391
  664TIP3    H223552   0.907   3.025   1.494 -0.5163  0.7270 -0.9608
  665TIP3   OH223553   1.723   5.636   7.332  0.3192  0.3201 -0.5370
  665TIP3    H123554   1.785   5.706   7.310 -0.5644  1.3673  0.1502
  665TIP3    H223555   1.721   5.580   7.255  4.2266 -1.4217  0.3894
  666TIP3   OH223556   0.821   3.404   2.063  0.0245 -0.0651  0.1930
  666TIP3    H123557   0.895   3.343   2.058 -1.6461 -2.2453  0.1434
  666TIP3    H223558   0.846   3.478   2.008  2.4339 -0.3808  0.7678
  667TIP3   OH223559   6.629   3.650   0.297 -0.2677 -0.6293  0.7825
  667TIP3    H123560   6.587   3.567   0.317 -1.2909 -0.1609  0.6653
  667TIP3    H223561   6.590   3.677   0.214  0.6392 -0.4112  0.4181
  668TIP3   OH223562   5.564   1.938   8.409  0.1531  0.0294 -0.3827
  668TIP3    H123563   5.493   1.948   8.345 -0.9137 -0.3265  0.7104
  668TIP3    H223564   5.622   2.012   8.391  0.0144 -0.1925 -1.9073
  669TIP3   OH223565   6.327   0.770   1.432 -0.6711  0.2523 -0.3783
  669TIP3    H123566   6.268   0.699   1.406 -0.6206 -0.9569  2.4168
  669TIP3    H223567   6.349   0.750   1.523  2.9695  1.4020 -0.8582
  670TIP3   OH223568   2.960   1.444   8.652  0.1943 -0.7991 -0.3627
  670TIP3    H123569   3.025   1.380   8.681 -0.5154 -2.3977 -2.0521
  670TIP3    H223570   2.880   1.393   8.639 -0.3291  0.3535 -2.0688
  671TIP3   OH223571   1.263   3.431   1.501 -0.1013 -0.3342  0.5154
  671TIP3    H123572   1.327   3.499   1.480 -1.7196  0.9460 -0.4647
  671TIP3    H223573   1.309   3.374   1.564  2.0000  0.4733 -0.1953
  672TIP3   OH223574   5.563   5.596   2.079  0.1358 -0.4970 -0.1136
  672TIP3    H123575   5.511   5.677   2.082 -0.2045 -0.7299  0.3300
  672TIP3    H223576   5.641   5.621   2.030  0.4184  0.3253  0.7259
  673TIP3   OH223577   6.094   2.769   7.734  0.1480 -0.1655  0.1263
  673TIP3    H123578   6.186   2.745   7.724 -0.1505 -1.1303 -0.6153
  673TIP3    H223579   6.095   2.858   7.767  1.3552  0.1161 -0.5938
  674TIP3   OH223580   5.105   1.378   8.584 -0.0076 -0.7501  0.0317
  674TIP3    H123581   5.098   1.384   8.679 -1.4569  0.5240 -0.1184
  674TIP3    H223582   5.121   1.469   8.556 -0.8369 -0.9079 -1.0100
  675TIP3   OH223583   3.967   4.918   8.493  0.3812  0.8452 -0.6530
  675TIP3    H123584   3.890   4.861   8.498  1.2673 -0.4264 -1.1002
  675TIP3    H223585   4.035   4.872   8.541  0.5182  2.6516  1.0406
  676TIP3   OH223586   5.526   1.207   1.662 -0.2981 -0.2971  0.4727
  676TIP3    H123587   5.582   1.183   1.736 -0.9228  1.1686  1.4535
  676TIP3    H223588   5.547   1.298   1.645 -0.2502 -0.5784 -1.1193
  677TIP3   OH223589   3.014   4.170   7.474  0.2613  0.1321  1.0409
  677TIP3    H123590   3.021   4.184   7.380  0.2339  0.0596  1.0286
  677TIP3    H223591   2.946   4.231   7.503  1.7684  1.7423  1.3499
  678TIP3   OH223592   3.903   1.806   7.200 -0.0268  0.2387 -0.4565
  678TIP3    H123593   3.929   1.856   7.123 -0.5874  0.6858 -0.3667
  678TIP3    H223594   3.845   1.738   7.167 -0.0152  0.2356 -0.4706
  679TIP3   OH223595   3.957   4.585   7.898 -0.0566  0.0275 -0.0579
  679TIP3    H123596   3.958   4.530   7.977 -1.1805 -1.2266 -0.8831
  679TIP3    H223597   3.865   4.602   7.882  0.1288 -0.2025 -1.4198
  680TIP3   OH223598   0.833   1.197   8.622  0.2755  0.0999  0.0077
  680TIP3    H123599   0.852   1.128   8.686  0.0469 -0.1375 -0.1777
  680TIP3    H223600   0.826   1.277   8.674  1.2913  0.1124  0.1414
  681TIP3   OH223601   6.711   0.325   1.869 -0.1822 -0.4917  0.7872
  681TIP3    H123602   6.641   0.343   1.933  0.4306 -0.3101  1.4257
  681TIP3    H223603   6.788   0.307   1.923  0.4017 -0.1292  0.0922
  682TIP3   OH223604   0.349   3.826   1.472 -0.1603 -0.1362 -0.3937
  682TIP3    H123605   0.391   3.771   1.406  0.3198 -0.7885  0.4386
  682TIP3    H223606   0.387   3.797   1.555 -0.0979  1.2601  0.0935
  683TIP3   OH223607   1.456   1.381   8.703 -0.1261 -0.1812 -0.2838
  683TIP3    H123608   1.494   1.321   8.767  2.8613  0.3207 -1.4226
  683TIP3    H223609   1.470   1.338   8.619  0.5033  1.3182 -0.9735
  684TIP3   OH223610   4.620   4.153   0.491  0.1418  0.6852  0.3566
  684TIP3    H123611   4.647   4.238   0.525 -0.8426  1.0715  0.2190
  684TIP3    H223612   4.542   4.131   0.542  0.0253  0.1711 -0.0446
  685TIP3   OH223613   2.037   2.645   0.895  0.0768  0.1827  0.3675
  685TIP3    H123614   1.973   2.639   0.966 -1.0163  1.2603 -0.4847
  685TIP3    H223615   2.077   2.732   0.906  0.6779 -0.0760  0.2904
  686TIP3   OH223616   3.336   2.620   0.279  0.3200 -0.0187  0.1032
  686TIP3    H123617   3.337   2.709   0.244 -0.1811 -0.3569 -0.7896
  686TIP3    H223618   3.298   2.567   0.209 -0.6840 -0.7209  1.1507
  687TIP3   OH223619   1.884   1.195   2.188 -0.3715 -0.2397  0.2714
  687TIP3    H123620   1.830   1.253   2.134  1.7346  0.4089 -1.2423
  687TIP3    H223621   1.946   1.156   2.127  2.6991  1.1366  2.2540
  688TIP3   OH223622   5.539   4.681   2.549 -0.0705 -0.4966 -0.2462
  688TIP3    H123623   5.628   4.715   2.556 -0.6504  1.0198  0.1824
  688TIP3    H223624   5.518   4.688   2.456 -0.0025 -0.1357 -0.2374
  689TIP3   OH223625   3.425   1.572   2.008 -0.7917  0.5981  0.1890
  689TIP3    H123626   3.354   1.597   2.068 -2.1760 -2.6267  0.1330
  689TIP3    H223627   3.505   1.603   2.051 -2.0944  3.6652  0.6500
  690TIP3   OH223628   5.224   5.993   8.720  0.2006 -0.1244  0.1576
  690TIP3    H123629   5.292   6.014   8.784  0.4075 -0.7844  0.1569
  690TIP3    H223630   5.194   5.906   8.744 -0.4231  0.0301 -0.0411
  691TIP3   OH223631   5.846   3.770   6.795  0.5320  0.5325  0.1379
  691TIP3    H123632   5.752   3.751   6.792  0.7142 -0.2725 -0.8502
  691TIP3    H223633   5.889   3.685   6.785  1.4291  0.4429  3.4703
  692TIP3   OH223634   6.273   1.753   0.361 -0.4993  0.3586 -0.0194
  692TIP3    H123635   6.229   1.671   0.384 -1.8289  1.0953  0.1234
  692TIP3    H223636   6.266   1.807   0.439  4.5911 -0.9834  1.7487
  693TIP3   OH223637   3.443   5.838   6.954 -0.6667 -0.8813 -0.1624
  693TIP3    H123638   3.455   5.811   6.863  1.4915 -0.4829 -0.0644
  693TIP3    H223639   3.520   5.805   6.999 -0.0179  1.7007  0.8198
  694TIP3   OH223640   6.272   4.795   0.844 -0.3431 -0.3661 -0.1254
  694TIP3    H123641   6.286   4.703   0.867  0.6219 -0.0779  0.5372
  694TIP3    H223642   6.194   4.795   0.789 -1.1900 -1.4083  1.0275
  695TIP3   OH223643   0.691   3.482   1.719 -0.2723 -0.2739 -0.1897
  695TIP3    H123644   0.755   3.425   1.761 -0.0189  0.2814  0.1932
  695TIP3    H223645   0.631   3.507   1.789 -0.1751  0.2080 -0.2717
  696TIP3   OH223646   4.275   5.065   0.762 -0.1988  0.3123  0.2554
  696TIP3    H123647   4.237   5.152   0.747  0.5889  0.4826 -0.9716
  696TIP3    H223648   4.200   5.007   0.770 -0.7586  0.8047 -1.0123
  697TIP3   OH223649   1.524   6.359   8.299 -0.5562 -0.2681 -0.2966
  697TIP3    H123650   1.603   6.330   8.253  0.1150  1.5625 -0.3896
  697TIP3    H223651   1.457   6.295   8.274  0.7811 -1.6199 -0.5516
  698TIP3   OH223652   0.185   4.302   0.218 -0.0452  0.0622  0.1703
  698TIP3    H123653   0.157   4.278   0.130  0.8550 -1.3250  0.2328
  698TIP3    H223654   0.226   4.387   0.208  0.4504 -0.2792 -0.8490
  699TIP3   OH223655   5.537   0.246   8.346 -0.1887 -0.6806  0.2099
  699TIP3    H123656   5.503   0.307   8.281  1.1162 -0.6411 -0.4842
  699TIP3    H223657   5.460   0.198   8.377 -0.8856 -0.5651 -1.2322
  700TIP3   OH223658   6.406   1.646   2.556  0.9890  0.1615  0.0803
  700TIP3    H123659   6.469   1.684   2.618  0.3237 -0.5405  1.2181
  700TIP3    H223660   6.458   1.627   2.478  2.2991 -0.7938  1.1411
  701TIP3   OH223661   1.269   1.490   1.744  0.0532  0.1153 -0.5111
  701TIP3    H123662   1.269   1.412   1.800  1.2946  0.5127  0.0663
  701TIP3    H223663   1.208   1.468   1.673 -3.4436  0.4437  2.1182
  702TIP3   OH223664   1.049   3.892   0.291 -0.3569  0.1886 -0.7726
  702TIP3    H123665   0.954   3.901   0.298 -0.2623  1.1406 -0.6081
  702TIP3    H223666   1.066   3.893   0.197 -0.4388  0.8938 -0.7851
  703TIP3   OH223667   1.710   1.370   0.317  0.5427  0.3559 -0.0197
  703TIP3    H123668   1.696   1.465   0.326  0.4010  0.5047 -1.4847
  703TIP3    H223669   1.712   1.337   0.407  0.2747  1.7021  0.5071
  704TIP3   OH223670   3.056   3.931   7.734 -0.1982 -0.4772  0.1072
  704TIP3    H123671   3.093   3.984   7.663 -0.7902 -0.1125  0.0658
  704TIP3    H223672   2.973   3.974   7.756  1.6262  1.7004  3.6122
  705TIP3   OH223673   4.854   4.119   8.540  0.3439 -0.4518  0.8939
  705TIP3    H123674   4.899   4.119   8.625  2.2432  1.9436 -0.0096
  705TIP3    H223675   4.783   4.182   8.551  0.9979  0.3652  0.5568
  706TIP3   OH223676   3.755   2.548   0.939  0.2167 -0.2699  0.0102
  706TIP3    H123677   3.719   2.514   0.857  1.6036 -1.3821 -0.1952
  706TIP3    H223678   3.680   2.555   0.998 -0.5541 -1.0593 -0.8431
  707TIP3   OH223679   0.612   0.769   1.423 -0.1227 -0.3588 -0.2220
  707TIP3    H123680   0.642   0.846   1.472  0.2217 -0.8441  0.3418
  707TIP3    H223681   0.550   0.804   1.360 -1.2875  0.1848  1.1587
  708TIP3   OH223682   2.722   0.028   2.014 -0.5998 -0.2219 -0.0982
  708TIP3    H123683   2.703   0.095   1.948  0.4915  0.1886 -0.0215
  708TIP3    H223684   2.638   0.012   2.057 -1.4965 -0.9744 -1.9941
  709TIP3   OH223685   1.386   1.933   8.334 -0.1611 -0.2187  0.4134
  709TIP3    H123686   1.417   1.902   8.420  3.2028  0.0133 -0.5780
  709TIP3    H223687   1.317   1.996   8.355 -2.1149 -2.8477  2.7346
  710TIP3   OH223688   2.103   2.256   2.404  0.2327  0.6925  0.0542
  710TIP3    H123689   2.139   2.343   2.419 -2.4592  1.7865  0.7396
  710TIP3    H223690   2.036   2.246   2.472 -0.1630 -1.5491 -0.5881
  711TIP3   OH223691   5.331   5.858   3.157  0.2018 -0.2267 -0.2112
  711TIP3    H123692   5.282   5.899   3.229  0.1561 -0.3539 -0.1698
  711TIP3    H223693   5.417   5.899   3.161  0.3890 -0.6527  0.2824
  712TIP3   OH223694   0.779   2.040   8.675 -0.3681  0.6245 -0.1547
  712TIP3    H123695   0.817   1.952   8.672 -2.7478 -0.4786 -0.4221
  712TIP3    H223696   0.784   2.064   8.768  1.0981  0.6266 -0.2083
  713TIP3   OH223697   6.095   1.578   2.023  0.3649 -0.2231 -0.0050
  713TIP3    H123698   6.123   1.582   2.114 -0.4251 -2.4592  0.3930
  713TIP3    H223699   6.171   1.608   1.973  1.6427 -1.1552  1.3009
  714TIP3   OH223700   1.177   6.770   1.705  0.0697 -0.9523  0.3099
  714TIP3    H123701   1.201   6.819   1.784 -0.1057  2.1695 -1.3780
  714TIP3    H223702   1.086   6.794   1.688 -0.1879 -2.3168 -0.3487
  715TIP3   OH223703   1.575   2.588   2.356 -0.0246  0.1433  0.2897
  715TIP3    H123704   1.555   2.677   2.386  0.4283  0.6214 -0.7738
  715TIP3    H223705   1.639   2.556   2.419 -0.1778  0.5805  0.6759
  716TIP3   OH223706   2.865   2.588   1.120  0.5831 -0.3843  0.0395
  716TIP3    H123707   2.792   2.560   1.064  0.8284 -1.3981  0.2126
  716TIP3    H223708   2.926   2.514   1.118  0.7342 -0.3189  1.4010
  717TIP3   OH223709   0.036   0.132   3.056 -0.7481  0.2248  0.1109
  717TIP3    H123710   0.070   0.073   3.124  1.1506  1.4453  0.2732
  717TIP3    H223711  -0.036   0.179   3.098 -0.0333  0.4752  1.0726
  718TIP3   OH223712   6.238   5.007   0.308  0.2562  0.0973  0.3305
  718TIP3    H123713   6.288   5.089   0.316  0.5961  0.0201 -0.8530
  718TIP3    H223714   6.300   4.939   0.332  0.0924  0.1573  0.9253
  719TIP3   OH223715   2.042   2.850   8.377  0.4193 -0.0425 -0.8046
  719TIP3    H123716   2.071   2.906   8.448 -0.1972  0.4536 -0.9397
  719TIP3    H223717   2.039   2.908   8.300  0.2018 -0.3629 -1.0408
  720TIP3   OH223718   5.412   2.423   1.460  0.0471  0.3668  0.1926
  720TIP3    H123719   5.403   2.480   1.536 -1.5676 -0.8004  0.9375
  720TIP3    H223720   5.330   2.435   1.411  0.1676 -0.4468 -0.2333
  721TIP3   OH223721   2.268   0.986   8.613  0.1822  0.4756  0.5696
  721TIP3    H123722   2.219   0.954   8.689 -2.1142  1.1345 -0.5210
  721TIP3    H223723   2.279   0.909   8.558  2.6736 -0.2044  1.8954
  722TIP3   OH223724   6.155   6.523   0.303  0.6991  0.2753 -0.6693
  722TIP3    H123725   6.230   6.506   0.361 -0.0988  0.4003  0.4425
  722TIP3    H223726   6.161   6.616   0.283  1.2126  0.1446 -1.1297
  723TIP3   OH223727   4.030   6.423   0.432  0.0255  1.1450 -0.5376
  723TIP3    H123728   4.122   6.396   0.439 -0.4527 -1.2365 -2.1200
  723TIP3    H223729   4.022   6.457   0.343 -0.6785  1.1029 -0.4992
  724TIP3   OH223730   6.100   5.958   1.793  0.3714  0.0694 -0.5611
  724TIP3    H123731   6.077   5.873   1.756  1.5072  0.0619 -1.3006
  724TIP3    H223732   6.193   5.969   1.773  0.2695  1.4594 -0.4211
  725TIP3   OH223733   4.608   3.498   1.189 -0.1479  1.0484  0.0498
  725TIP3    H123734   4.595   3.514   1.096  0.5166 -0.8612 -0.4282
  725TIP3    H223735   4.529   3.530   1.231 -1.9090 -0.8932 -1.5617
  726TIP3   OH223736   5.659   1.486   2.197  0.5825 -0.0677 -0.1239
  726TIP3    H123737   5.600   1.507   2.124 -1.9559 -0.4732  1.6610
  726TIP3    H223738   5.713   1.414   2.163 -1.6455 -1.3857 -1.1736
  727TIP3   OH223739   2.114   5.716   0.410  0.2778 -0.0823  0.2005
  727TIP3    H123740   2.027   5.690   0.382  0.4529  0.1934 -0.6228
  727TIP3    H223741   2.149   5.638   0.454 -0.0964 -0.4417 -0.1281
  728TIP3   OH223742   4.759   3.562   2.639 -0.5295  0.3625 -0.1718
  728TIP3    H123743   4.668   3.534   2.637  0.0756 -1.7015 -1.6268
  728TIP3    H223744   4.796   3.521   2.717 -0.7252  0.8844  0.2036
  729TIP3   OH223745   5.406   3.895   8.506  0.4341  0.0865  0.3259
  729TIP3    H123746   5.477   3.902   8.570  0.2501 -0.9484  0.6580
  729TIP3    H223747   5.415   3.807   8.470 -1.4245 -0.5085  1.2473
  730TIP3   OH223748   1.500   3.980   0.399 -0.7178 -0.0906 -0.5717
  730TIP3    H123749   1.499   3.891   0.364 -2.6154 -0.1117 -0.5443
  730TIP3    H223750   1.446   4.031   0.339  1.6391  1.4850 -1.5132
  731TIP3   OH223751   3.199   0.600   0.516 -0.5164  0.1761 -0.1589
  731TIP3    H123752   3.252   0.554   0.581 -1.3316  1.1493  1.2430
  731TIP3    H223753   3.259   0.617   0.444  0.1592 -1.8041 -0.1261
  732TIP3   OH223754   3.778   3.513   2.842  0.2641  0.3084  0.3209
  732TIP3    H123755   3.845   3.452   2.874  0.0353 -0.3646 -0.4515
  732TIP3    H223756   3.817   3.553   2.765 -0.9010 -1.5077 -1.2988
  733TIP3   OH223757   0.886   4.609   1.564 -0.0940  0.0658 -0.1614
  733TIP3    H123758   0.809   4.616   1.620 -1.3523 -0.3278 -1.7542
  733TIP3    H223759   0.916   4.518   1.575  0.4174  0.3433  0.7851
  734TIP3   OH223760   1.033   3.067   0.475  0.4355  0.4024  0.4046
  734TIP3    H123761   1.126   3.088   0.465  0.7028  1.3400  3.6947
  734TIP3    H223762   1.031   2.975   0.498  0.4140  0.1087 -0.7083
  735TIP3   OH223763   4.122   6.060   2.361 -0.8149 -0.0919  0.7578
  735TIP3    H123764   4.037   6.095   2.333  0.3219  0.9169 -1.6755
  735TIP3    H223765   4.128   6.086   2.454 -3.6866 -1.3934  1.4226
  736TIP3   OH223766   2.304   3.448   8.561  0.3599 -0.4027  0.0402
  736TIP3    H123767   2.382   3.464   8.613  1.0123 -0.3880 -0.9166
  736TIP3    H223768   2.335   3.449   8.470 -0.6975 -0.6944 -0.3386
  737TIP3   OH223769   2.301   2.063   0.399 -0.2763 -0.3873 -0.6585
  737TIP3    H123770   2.255   2.022   0.326 -2.3863 -0.7976  0.8373
  737TIP3    H223771   2.326   2.149   0.366 -0.0652 -1.0124 -2.2393
  738TIP3   OH223772   1.722   0.030   2.491 -0.7504 -0.5456 -0.3107
  738TIP3    H123773   1.669  -0.030   2.544 -0.1021 -0.5769  0.3246
  738TIP3    H223774   1.810   0.023   2.528 -0.4000 -0.1427 -1.0430
  739TIP3   OH223775   3.082   1.778   1.103 -0.0943 -0.2863 -0.1263
  739TIP3    H123776   3.050   1.710   1.162  0.8619 -0.8462 -0.2153
  739TIP3    H223777   3.172   1.795   1.133 -0.2426  0.7714 -0.2610
  740TIP3   OH223778   5.359   1.763   1.110  0.0728 -0.4200 -1.0532
  740TIP3    H123779   5.388   1.776   1.200  0.0195 -1.3055 -0.8966
  740TIP3    H223780   5.266   1.741   1.117  0.0839 -0.5642 -1.3119
  741TIP3   OH223781   2.714   4.135   0.453  0.0342 -0.3338 -0.8671
  741TIP3    H123782   2.710   4.042   0.474  1.4160  0.0295  1.3906
  741TIP3    H223783   2.758   4.139   0.368 -1.4871 -1.7612 -1.7790
  742TIP3   OH223784   3.413   1.455   8.643  0.2399  0.3712 -0.2537
  742TIP3    H123785   3.351   1.384   8.662 -0.2307  0.7113 -0.5264
  742TIP3    H223786   3.499   1.416   8.661 -0.1139  0.4980  2.1629
  743TIP3   OH223787   5.840   0.867   7.771 -0.2147  0.3085 -0.4529
  743TIP3    H123788   5.760   0.821   7.799 -0.1115  1.0472  1.1822
  743TIP3    H223789   5.900   0.858   7.845  1.4877 -0.7409 -1.8817
  744TIP3   OH223790   4.183   5.486   1.113  0.4533  0.0543  0.0440
  744TIP3    H123791   4.172   5.407   1.061 -4.1090  1.1813 -1.0948
  744TIP3    H223792   4.153   5.462   1.201  2.7005 -0.3410  0.7690
  745TIP3   OH223793   0.280   5.829   8.206  0.1785  0.4599  0.7596
  745TIP3    H123794   0.194   5.793   8.229  0.1777 -0.1476 -0.1288
  745TIP3    H223795   0.328   5.832   8.289 -0.3742 -0.0897  1.1085
  746TIP3   OH223796   5.352   2.351   2.340 -0.1257  0.5571  0.1318
  746TIP3    H123797   5.300   2.370   2.418  0.8062 -0.2757  0.9808
  746TIP3    H223798   5.441   2.376   2.363  0.2897 -0.3794 -0.3986
  747TIP3   OH223799   1.789   4.665   1.794 -0.1997 -0.3287  0.4882
  747TIP3    H123800   1.754   4.579   1.770 -1.1682  0.3625 -0.6766
  747TIP3    H223801   1.872   4.645   1.838 -0.7551 -1.8820  0.9018
  748TIP3   OH223802   5.139   2.878   1.594 -1.1267 -0.4453  0.3145
  748TIP3    H123803   5.189   2.844   1.668 -0.1271 -1.5853 -0.8457
  748TIP3    H223804   5.182   2.961   1.573 -0.9820 -0.4535  0.5691
  749TIP3   OH223805   1.706   3.420   1.310  0.6995 -0.0742 -0.1121
  749TIP3    H123806   1.662   3.453   1.388 -0.0015 -1.7514  0.2386
  749TIP3    H223807   1.789   3.467   1.308  0.6108  0.2114  1.4856
  750TIP3   OH223808   2.611   2.817   1.913  0.4316 -0.8229  0.4321
  750TIP3    H123809   2.668   2.793   1.840 -0.7486 -4.0733  0.4034
  750TIP3    H223810   2.660   2.790   1.991  0.2190 -0.6888  0.6109
  751TIP3   OH223811   1.498   6.701   1.822 -0.4014 -0.5443 -0.0823
  751TIP3    H123812   1.424   6.679   1.766  0.3391 -1.5759 -0.6948
  751TIP3    H223813   1.458   6.737   1.901 -1.4766  0.9654 -1.2393
  752TIP3   OH223814   6.431   5.953   8.355 -0.1388  0.4624  0.0981
  752TIP3    H123815   6.521   5.922   8.346 -0.5802 -0.8357  0.0019
  752TIP3    H223816   6.436   6.047   8.336  1.1917  0.4089  0.1144
  753TIP3   OH223817   1.045   3.243   0.694 -0.2312 -0.0769  0.0666
  753TIP3    H123818   0.978   3.288   0.644  0.5456  0.8747 -0.1384
  753TIP3    H223819   1.015   3.152   0.698 -2.3379  0.6284  1.3803
  754TIP3   OH223820   3.029   1.688   7.656  0.0735 -0.5447  0.1476
  754TIP3    H123821   3.082   1.683   7.576  0.6658 -1.3183  0.5762
  754TIP3    H223822   3.086   1.653   7.724 -1.2214 -2.0066  0.5156
  755TIP3   OH223823   2.665   5.151   8.277  0.0209 -0.3049  0.0749
  755TIP3    H123824   2.649   5.065   8.238 -0.6244  0.2270 -0.9028
  755TIP3    H223825   2.755   5.147   8.308  0.3583 -0.9847 -0.9194
  756TIP3   OH223826   0.223   5.897   8.715  0.2596 -0.1294 -0.0866
  756TIP3    H123827   0.281   5.866   8.784  0.4982  2.3763  0.9436
  756TIP3    H223828   0.280   5.903   8.638  0.7113 -0.2642  0.2306
  757TIP3   OH223829   3.278   4.603   1.705  0.5231 -0.1102 -0.1785
  757TIP3    H123830   3.322   4.665   1.763  2.0476 -1.9975  0.8149
  757TIP3    H223831   3.206   4.568   1.757 -0.4215  0.8817 -0.7860
  758TIP3   OH223832   6.137   2.384   8.551 -0.2841  0.0087  0.5286
  758TIP3    H123833   6.204   2.380   8.619 -1.0396 -0.6434  1.2506
  758TIP3    H223834   6.060   2.420   8.595 -0.1790  1.6408 -0.5065
  759TIP3   OH223835   0.770   1.675   1.983  0.3846  0.2209  0.1674
  759TIP3    H123836   0.745   1.750   2.038  0.6676  0.8827 -0.5736
  759TIP3    H223837   0.843   1.634   2.030 -0.8220 -0.5863  1.3903
  760TIP3   OH223838   1.794   4.344   0.960  0.3010 -0.0314 -0.1329
  760TIP3    H123839   1.817   4.417   1.017  0.4454  0.6515 -1.0439
  760TIP3    H223840   1.829   4.267   1.004  0.5178  0.4941  0.6316
  761TIP3   OH223841   0.114   3.835   8.545 -0.4461 -0.2016  0.6745
  761TIP3    H123842   0.060   3.764   8.511  0.2528 -0.2024 -0.5242
  761TIP3    H223843   0.065   3.915   8.523  0.1863 -0.1765 -0.8151
  762TIP3   OH223844   4.767   0.045   8.567  0.7059  0.2098 -0.1652
  762TIP3    H123845   4.774   0.073   8.476  0.5534  0.8117 -0.0004
  762TIP3    H223846   4.735   0.123   8.613 -0.3115 -0.4192  0.2191
  763TIP3   OH223847   6.033   6.077   1.357  0.1248  0.0755 -0.1546
  763TIP3    H123848   5.969   6.132   1.401  0.4411  0.8778 -0.6748
  763TIP3    H223849   6.025   6.100   1.264 -0.2717 -1.3168 -0.4934
  764TIP3   OH223850   5.784   3.239   7.961  0.5562  0.1000  0.1372
  764TIP3    H123851   5.809   3.147   7.974  0.8089  0.4128  2.2303
  764TIP3    H223852   5.777   3.274   8.050  1.4853  2.3765 -0.6246
  765TIP3   OH223853   6.184   0.310   2.078 -0.3801  0.2194 -0.3578
  765TIP3    H123854   6.104   0.326   2.128 -0.2430  0.0009 -0.0650
  765TIP3    H223855   6.231   0.244   2.129  0.1272  0.5611 -0.3694
  766TIP3   OH223856   6.644   5.477   1.014  0.2171 -0.5965  0.4897
  766TIP3    H123857   6.667   5.403   0.958 -0.6402 -0.8689  0.4798
  766TIP3    H223858   6.715   5.483   1.077  0.1775 -1.5953  0.6374
  767TIP3   OH223859   4.924   0.631   1.501 -0.4095 -0.4182  0.1080
  767TIP3    H123860   4.890   0.706   1.452  0.5346 -0.8532 -1.2994
  767TIP3    H223861   4.894   0.644   1.590 -0.9551  1.2033 -0.2815
  768TIP3   OH223862   0.883   1.764   7.971 -0.0267 -0.6400 -0.0366
  768TIP3    H123863   0.907   1.829   7.906 -2.0069 -0.6265 -0.8285
  768TIP3    H223864   0.796   1.791   8.001 -0.3063 -2.1571  0.6290
  769TIP3   OH223865   3.128   2.689   7.730 -0.3255  0.1942  0.4701
  769TIP3    H123866   3.089   2.775   7.714 -0.1520  0.6538  2.2291
  769TIP3    H223867   3.062   2.626   7.700 -0.9244  0.9420  0.1944
  770TIP3   OH223868   2.231   2.674   8.128 -0.0430 -0.3338  0.1031
  770TIP3    H123869   2.190   2.652   8.212 -0.4015 -1.5882 -0.3879
  770TIP3    H223870   2.158   2.689   8.068  0.1349 -2.8366 -0.8427
  771TIP3   OH223871   3.477   6.467   0.452  0.0153  0.1411  0.3451
  771TIP3    H123872   3.533   6.426   0.386 -1.0814 -1.7061  0.4838
  771TIP3    H223873   3.536   6.481   0.527  0.8292  0.5165 -0.3420
  772TIP3   OH223874   4.969   2.880   2.779  0.1629 -0.0076  0.4351
  772TIP3    H123875   4.880   2.859   2.751  0.0797  2.0271 -1.0297
  772TIP3    H223876   4.994   2.806   2.835 -1.5580 -1.8211 -0.9979
  773TIP3   OH223877   3.750   3.334   2.542 -0.0569  0.1363  0.4143
  773TIP3    H123878   3.768   3.254   2.493  0.6549  0.8587 -0.5711
  773TIP3    H223879   3.750   3.403   2.475  0.7059  1.1293  1.3986
  774TIP3   OH223880   5.740   2.233   0.716  0.3480 -0.1365  0.2414
  774TIP3    H123881   5.691   2.161   0.757  0.6137 -0.1156  0.6059
  774TIP3    H223882   5.676   2.302   0.704  0.3705  0.0398  1.0904
  775TIP3   OH223883   5.987   3.570   1.299 -0.3352  0.6955 -0.5313
  775TIP3    H123884   6.002   3.643   1.240  0.5115  0.4833 -0.5920
  775TIP3    H223885   6.075   3.538   1.321 -0.6050  0.8680  0.9602
  776TIP3   OH223886   5.305   1.632   8.630 -0.1993  0.8208  0.3362
  776TIP3    H123887   5.362   1.608   8.703 -1.7529  0.2162  1.3752
  776TIP3    H223888   5.321   1.726   8.617 -0.9520  1.2761  2.4156
  777TIP3   OH223889   5.054   4.496   8.068 -0.4222 -1.1212  0.3352
  777TIP3    H123890   5.022   4.461   7.984  1.7563 -0.7641 -0.7303
  777TIP3    H223891   5.106   4.572   8.043  1.8067 -2.0465  1.7837
  778TIP3   OH223892   6.554   1.276   0.067  0.2668  0.2450 -0.5657
  778TIP3    H123893   6.525   1.319   0.148 -1.0853 -1.0194 -0.3436
  778TIP3    H223894   6.496   1.311  -0.000 -0.6340 -0.9654 -0.4377
  779TIP3   OH223895   2.126   0.382   1.345  0.3755  0.8873 -0.0209
  779TIP3    H123896   2.098   0.411   1.258  0.4209 -0.0225 -0.3414
  779TIP3    H223897   2.186   0.451   1.375  2.5337 -0.0978 -1.8499
  780TIP3   OH223898   3.683   2.882   3.029 -0.3863  0.7785  0.2078
  780TIP3    H123899   3.626   2.959   3.032 -2.3945 -0.6417  1.4919
  780TIP3    H223900   3.638   2.821   2.970  2.2367  1.2490 -2.5391
  781TIP3   OH223901   5.911   4.732   1.029 -0.2571 -0.1318  0.8355
  781TIP3    H123902   5.865   4.816   1.033  0.7557  0.5736 -0.9634
  781TIP3    H223903   5.984   4.742   1.090 -0.3219  0.1636  0.8682
  782TIP3   OH223904   2.447   2.741   1.488 -0.1653 -0.1917 -0.2428
  782TIP3    H123905   2.489   2.825   1.507  0.6324 -0.8960  1.2947
  782TIP3    H223906   2.359   2.764   1.457  0.0016  1.1931  0.2586
  783TIP3   OH223907   5.462   2.901   8.453  0.1903  0.6027 -0.5961
  783TIP3    H123908   5.408   2.926   8.529 -0.0613  0.2794 -0.6647
  783TIP3    H223909   5.444   2.969   8.388 -0.3819  0.3353 -0.7305
  784TIP3   OH223910   4.135   2.417   1.143  0.6819  0.2469  0.2446
  784TIP3    H123911   4.098   2.437   1.057  1.8901 -0.6940 -0.5274
  784TIP3    H223912   4.225   2.449   1.139  0.9788 -0.4699  0.8925
  785TIP3   OH223913   5.460   1.657   2.366 -0.2984  0.1499 -0.4692
  785TIP3    H123914   5.540   1.607   2.349  0.3456  0.6895  0.8772
  785TIP3    H223915   5.444   1.645   2.460 -0.7189  1.6176 -0.3408
  786TIP3   OH223916   3.484   4.981   2.722 -0.4008  0.4520  0.4841
  786TIP3    H123917   3.447   5.025   2.799  0.6543  0.5826  0.9311
  786TIP3    H223918   3.568   5.023   2.708  0.6735 -1.4099  0.9554
  787TIP3   OH223919   0.688   0.601   0.694  0.3081 -0.7323  0.1455
  787TIP3    H123920   0.734   0.680   0.666 -0.6740 -0.4056 -0.5980
  787TIP3    H223921   0.731   0.529   0.648  0.6305 -0.5336  0.1379
  788TIP3   OH223922   6.118   2.673   8.035  0.2113  0.0694  0.0494
  788TIP3    H123923   6.091   2.677   8.126  3.3608 -0.3836  1.1174
  788TIP3    H223924   6.153   2.585   8.024 -2.4643 -0.8268 -2.4284
  789TIP3   OH223925   1.065   4.825   1.077  0.0566 -0.0427 -0.3815
  789TIP3    H123926   1.082   4.871   1.159  1.3302  1.4050 -1.3886
  789TIP3    H223927   1.051   4.895   1.013 -1.2351 -1.1286 -1.3576
  790TIP3   OH223928   6.145   3.660   7.195  0.4873  0.4652 -0.0286
  790TIP3    H123929   6.236   3.689   7.206  0.4505  0.3837  0.4986
  790TIP3    H223930   6.104   3.730   7.145  1.2091 -0.1812 -1.6023
  791TIP3   OH223931   5.791   2.653   0.918 -0.2892 -0.2198  0.2931
  791TIP3    H123932   5.844   2.574   0.921 -2.1779 -1.5432  1.4397
  791TIP3    H223933   5.709   2.626   0.876 -0.3450  1.5834 -0.8641
  792TIP3   OH223934   4.210   4.398   7.384  0.2522  0.5740 -0.2991
  792TIP3    H123935   4.149   4.370   7.317 -0.0839  0.4864  0.0379
  792TIP3    H223936   4.194   4.492   7.393  2.0105  1.0962 -2.0729
  793TIP3   OH223937   4.478   0.293   1.105 -0.0196  0.0606 -0.1689
  793TIP3    H123938   4.384   0.302   1.123 -0.4399 -0.5986 -1.8572
  793TIP3    H223939   4.521   0.347   1.171 -1.6935  2.3990 -0.8767
  794TIP3   OH223940   6.497   2.983   8.693 -0.1713  0.2636 -0.5390
  794TIP3    H123941   6.429   3.007   8.630  0.1389 -1.5157 -1.6298
  794TIP3    H223942   6.449   2.938   8.763 -0.2255 -0.2149 -0.8787
  795TIP3   OH223943   1.253   3.994   2.721 -0.3837 -0.2076  0.8790
  795TIP3    H123944   1.206   3.943   2.787 -1.0544  0.3124  0.8218
  795TIP3    H223945   1.203   3.981   2.640 -0.1510 -0.0406  0.7067
  796TIP3   OH223946   2.326   3.515   2.526 -0.1399 -0.2178  0.2454
  796TIP3    H123947   2.421   3.515   2.537  0.1487 -0.1361 -1.8841
  796TIP3    H223948   2.298   3.602   2.554  0.8476  0.8924 -1.9985
  797TIP3   OH223949   3.405   2.690   8.270  0.3491  0.4636 -0.3244
  797TIP3    H123950   3.436   2.601   8.251  1.3564  0.1356  2.3636
  797TIP3    H223951   3.392   2.730   8.184 -1.8978 -2.8085 -1.7267
  798TIP3   OH223952   5.818   1.299   0.148  0.0218 -0.2688  0.6696
  798TIP3    H123953   5.818   1.214   0.104 -0.8471  0.6839 -1.2365
  798TIP3    H223954   5.800   1.278   0.240  2.3446 -2.3493  0.7747
  799TIP3   OH223955   6.564   4.172   7.901 -0.5036  0.2530  0.2263
  799TIP3    H123956   6.649   4.129   7.890  0.2176  1.1181  2.0392
  799TIP3    H223957   6.563   4.241   7.834  0.6292  0.8284  0.7856
  800TIP3   OH223958   5.906   3.538   8.270 -0.5261  0.1698 -0.2037
  800TIP3    H123959   5.811   3.556   8.269 -0.0470  3.4167 -0.7156
  800TIP3    H223960   5.940   3.592   8.198  2.0439  1.7991  2.0540
  801TIP3   OH223961   4.482   0.710   1.072 -0.1232 -0.5205  0.3775
  801TIP3    H123962   4.514   0.727   0.984  0.0761  0.2414  0.5939
  801TIP3    H223963   4.417   0.640   1.061 -1.1418  0.5306 -0.5605
  802TIP3   OH223964   4.933   2.356   0.008  0.3362 -0.1092 -0.1420
  802TIP3    H123965   4.928   2.421  -0.062  3.2256 -2.0384 -2.4367
  802TIP3    H223966   4.904   2.275  -0.033 -2.6150 -0.5436  2.4695
  803TIP3   OH223967   0.240   4.108   0.414 -0.1215 -0.1549 -0.1799
  803TIP3    H123968   0.292   4.057   0.352  2.2399  0.5026  1.1320
  803TIP3    H223969   0.213   4.185   0.365  2.3910  0.7557 -0.2538
  804TIP3   OH223970   3.417   5.994   2.655  0.0973 -0.4116  0.1014
  804TIP3    H123971   3.369   5.944   2.721 -1.2351 -1.7332 -1.7177
  804TIP3    H223972   3.381   6.082   2.659 -0.3332 -0.6182  0.7854
  805TIP3   OH223973   1.749   2.172   2.840  0.7692 -0.5897  0.1378
  805TIP3    H123974   1.706   2.158   2.924  1.2942  0.0813  0.5356
  805TIP3    H223975   1.747   2.087   2.797 -1.3547 -0.4893 -0.0688
  806TIP3   OH223976   5.244   2.937   2.671 -0.4262  0.2567 -0.1454
  806TIP3    H123977   5.248   2.952   2.576 -1.9027 -1.3446 -0.5236
  806TIP3    H223978   5.161   2.978   2.698 -0.1043  0.5412  0.4372
  807TIP3   OH223979   3.733   1.953   1.375  0.1715  0.0840 -0.7651
  807TIP3    H123980   3.823   1.973   1.397  0.6890  0.6813 -3.0822
  807TIP3    H223981   3.694   2.038   1.354 -0.7370 -0.2401 -0.4584
  808TIP3   OH223982   1.013   2.041   0.926 -0.3202 -0.3223 -0.4429
  808TIP3    H123983   0.969   2.031   1.011  0.7833  0.3096  0.2228
  808TIP3    H223984   1.053   1.956   0.910  0.8424  0.0196  0.4867
  809TIP3   OH223985   1.299   2.382   0.980 -0.1149 -0.4688 -0.1852
  809TIP3    H123986   1.335   2.298   1.010  1.0648 -0.2758 -0.9987
  809TIP3    H223987   1.255   2.418   1.057  0.4544 -1.2581  0.5234
  810TIP3   OH223988   5.350   2.567   0.896 -0.2394 -0.1870 -0.3095
  810TIP3    H123989   5.320   2.493   0.949 -0.4268  1.2126  1.6446
  810TIP3    H223990   5.362   2.530   0.808  0.7004 -2.7677  0.8006
  811TIP3   OH223991   3.578   6.255   7.410 -0.0043  0.6784  0.6372
  811TIP3    H123992   3.637   6.243   7.335 -0.6373 -0.6631  0.3201
  811TIP3    H223993   3.491   6.262   7.371 -0.3486 -0.1032  1.2458
  812TIP3   OH223994   1.942   3.699   8.061 -0.0284 -0.3635  0.4173
  812TIP3    H123995   1.862   3.669   8.017 -0.0094  1.8100 -1.2731
  812TIP3    H223996   1.994   3.620   8.073 -2.8272 -2.0585  2.5792
  813TIP3   OH223997   5.437   6.050   2.779  0.6391  0.0874 -0.8394
  813TIP3    H123998   5.481   6.105   2.844  0.6366 -0.4987 -0.3328
  813TIP3    H223999   5.504   5.987   2.753  0.4891  0.0140 -1.0473
  814TIP3   OH224000   1.987   2.019   6.803 -0.4720 -0.5939  0.5397
  814TIP3    H124001   2.011   2.036   6.894 -0.6661 -0.9709  0.6640
  814TIP3    H224002   1.985   1.923   6.796  1.8669 -0.6284 -0.4895
  815TIP3   OH224003   5.226   5.861   2.213 -0.8795 -0.1347 -0.4741
  815TIP3    H124004   5.309   5.883   2.171 -1.5326 -0.1335 -1.8236
  815TIP3    H224005   5.243   5.778   2.258 -0.0783  0.0139 -0.4790
  816TIP3   OH224006   0.223   3.036   1.907  0.0698 -0.2544  0.0086
  816TIP3    H124007   0.283   2.964   1.925  0.6935 -0.0444 -1.1259
  816TIP3    H224008   0.280   3.110   1.885 -0.5712 -0.1547 -1.4606
  817TIP3   OH224009   2.388   5.837   1.708 -0.0182 -0.6274 -0.0720
  817TIP3    H124010   2.330   5.813   1.636  0.1718  1.8146 -1.1192
  817TIP3    H224011   2.472   5.858   1.666  1.0309 -1.9874  1.2047
  818TIP3   OH224012   5.833   1.380   7.508  0.4146 -0.1723  0.0878
  818TIP3    H124013   5.761   1.404   7.565  0.5747  0.2734  0.1036
  818TIP3    H224014   5.859   1.462   7.465  1.6768 -0.0843  0.9615
  819TIP3   OH224015   5.532   4.528   1.551 -0.4222 -0.4772  0.9523
  819TIP3    H124016   5.524   4.493   1.462 -1.3606 -2.0183  1.6076
  819TIP3    H224017   5.468   4.599   1.554  1.0339  0.9704 -0.1851
  820TIP3   OH224018   0.576   1.287   0.022  0.1596 -0.2141  0.0335
  820TIP3    H124019   0.659   1.312   0.063  1.7441 -1.0093 -2.4918
  820TIP3    H224020   0.533   1.370   0.001 -0.0274  0.2044  1.9003
  821TIP3   OH224021   2.502   1.881   7.277 -0.4028 -0.0293 -0.3285
  821TIP3    H124022   2.425   1.872   7.221 -0.6236  1.4651 -0.2912
  821TIP3    H224023   2.475   1.939   7.348  0.5916  0.0908 -0.0219
  822TIP3   OH224024   3.160   0.557   2.169  0.1510 -0.1319 -0.2859
  822TIP3    H124025   3.068   0.551   2.145 -0.2526  0.1580  1.0918
  822TIP3    H224026   3.164   0.526   2.260  1.4609 -0.4476 -0.4227
  823TIP3   OH224027   5.934   3.067   7.624  0.5934 -0.2275  0.2533
  823TIP3    H124028   5.908   3.030   7.708 -0.5262  0.9903  0.4830
  823TIP3    H224029   6.027   3.089   7.635  1.2253 -2.6073  0.1871
  824TIP3   OH224030   4.737   3.696   0.477 -0.0019 -0.1470  0.0094
  824TIP3    H124031   4.679   3.667   0.406 -0.6532 -0.9658  0.8415
  824TIP3    H224032   4.777   3.615   0.509  2.8515  0.5139 -1.5135
  825TIP3   OH224033   3.043   1.915   0.331 -0.2873  0.2028 -0.1062
  825TIP3    H124034   3.135   1.891   0.343  0.0427  0.2861 -2.1299
  825TIP3    H224035   3.014   1.941   0.418  1.2277 -1.0912  0.8488
  826TIP3   OH224036   3.516   4.031   7.113 -0.0069  0.8198 -0.1784
  826TIP3    H124037   3.600   3.986   7.114 -0.1679  0.3664  3.0521
  826TIP3    H224038   3.509   4.067   7.024  2.7522 -0.5883 -1.0807
  827TIP3   OH224039   1.183   2.388   7.856  0.6878  0.1688  0.3805
  827TIP3    H124040   1.216   2.305   7.890  0.5303  0.1537  0.4987
  827TIP3    H224041   1.238   2.455   7.897  1.7753  0.0512 -0.8437
  828TIP3   OH224042   6.565   2.310   1.958  0.1103  0.1174  0.3942
  828TIP3    H124043   6.570   2.341   1.868  0.6419  0.8879  0.6826
  828TIP3    H224044   6.483   2.260   1.962  1.4305 -2.3985 -1.2584
  829TIP3   OH224045   3.975   2.148   7.870  0.5700 -0.0894  1.0171
  829TIP3    H124046   3.959   2.242   7.863 -0.9295 -0.2073  2.2321
  829TIP3    H224047   3.943   2.125   7.957 -0.0687 -1.9008  0.3533
  830TIP3   OH224048   3.659   3.129   1.793 -0.3683  0.1273 -0.6342
  830TIP3    H124049   3.571   3.127   1.754  0.1664  0.3442 -1.9109
  830TIP3    H224050   3.696   3.212   1.764  0.6690 -0.4630 -1.0888
  831TIP3   OH224051   2.839   4.744   0.108 -0.1736 -0.3351 -0.1269
  831TIP3    H124052   2.794   4.675   0.156 -1.8553  0.7873 -0.0091
  831TIP3    H224053   2.912   4.768   0.164 -0.2091 -1.2626  0.3374
  832TIP3   OH224054   1.466   0.184   7.124  0.5279 -0.3005 -0.0517
  832TIP3    H124055   1.488   0.119   7.057  2.9243  0.3656  0.0092
  832TIP3    H224056   1.530   0.254   7.113  0.1477  0.4793  2.0738
  833TIP3   OH224057   0.317   5.794   0.846  0.0892  0.3159  0.4540
  833TIP3    H124058   0.284   5.752   0.767 -1.8962 -1.1075  1.9202
  833TIP3    H224059   0.409   5.812   0.827  0.4756 -2.6762 -1.1417
  834TIP3   OH224060   6.344   5.261   0.348 -0.7836  0.0046  0.2404
  834TIP3    H124061   6.431   5.281   0.311 -2.0261  0.7586 -2.5793
  834TIP3    H224062   6.323   5.337   0.402  0.0001  0.1773  0.3208
  835TIP3   OH224063   6.582   1.993   8.306  0.9165 -0.2112 -0.0038
  835TIP3    H124064   6.635   2.055   8.257 -0.5646  1.5986  0.5940
  835TIP3    H224065   6.540   1.939   8.239 -1.5546  2.5997 -0.9143
  836TIP3   OH224066   2.231   5.040   0.184  0.1093  0.2304  0.2451
  836TIP3    H124067   2.175   5.080   0.251 -1.1435 -0.4378 -0.3701
  836TIP3    H224068   2.222   5.096   0.107 -1.0098 -0.7324 -0.3606
  837TIP3   OH224069   0.232   2.101   0.380  0.3668  0.1812  0.7219
  837TIP3    H124070   0.173   2.101   0.305  2.3091 -0.9365 -0.8963
  837TIP3    H224071   0.305   2.157   0.353  1.1771 -0.3727  1.7015
  838TIP3   OH224072   2.108   2.885   7.486 -0.2834 -0.3110 -0.1780
  838TIP3    H124073   2.191   2.932   7.494  1.0052 -2.2318 -1.4149
  838TIP3    H224074   2.059   2.935   7.421 -1.2300  2.2414  2.3142
  839TIP3   OH224075   3.871   3.421   8.567  0.1956  0.0570  0.2408
  839TIP3    H124076   3.804   3.455   8.509  3.2833  3.6746 -1.6589
  839TIP3    H224077   3.866   3.476   8.645  1.1395  0.6443 -0.0941
  840TIP3   OH224078   4.096   0.805   8.001 -0.0013 -0.3163 -0.8756
  840TIP3    H124079   4.127   0.750   7.929 -0.4694 -1.3685 -0.3068
  840TIP3    H224080   4.001   0.793   8.001  0.1587 -2.2984  1.3924
  841TIP3   OH224081   0.757   1.628   8.580  0.0703  0.0567 -0.5868
  841TIP3    H124082   0.831   1.603   8.526  1.2342 -0.0105  0.9756
  841TIP3    H224083   0.796   1.668   8.658 -1.5292  0.0357  0.2672
  842TIP3   OH224084   0.966   6.543   2.899 -0.0819  0.0687  0.3015
  842TIP3    H124085   1.000   6.614   2.955 -0.2328 -0.5279  1.1656
  842TIP3    H224086   0.898   6.585   2.846 -2.0932  0.0517  2.6937
  843TIP3   OH224087   5.575   6.616   0.489  0.1505 -0.2809 -0.4028
  843TIP3    H124088   5.496   6.643   0.535  0.2716  0.5077 -0.6422
  843TIP3    H224089   5.645   6.628   0.552  0.3590  1.0981 -0.8610
  844TIP3   OH224090   3.350   0.818   7.876 -0.3695  0.3334  0.2635
  844TIP3    H124091   3.329   0.728   7.850  0.3281  0.0137  0.8061
  844TIP3    H224092   3.304   0.872   7.811  0.2519 -0.4255 -0.8418
  845TIP3   OH224093   3.233   4.957   1.813  0.2887  0.8548 -0.0363
  845TIP3    H124094   3.320   4.919   1.802 -0.4069 -0.4722 -1.2500
  845TIP3    H224095   3.239   5.009   1.893  2.6542  2.1379 -0.9375
  846TIP3   OH224096   5.414   3.562   1.903 -0.4005 -0.4854 -0.0463
  846TIP3    H124097   5.471   3.583   1.830 -1.8113  1.9049 -0.6041
  846TIP3    H224098   5.471   3.524   1.970  0.8146 -3.3978 -2.5435
  847TIP3   OH224099   5.071   3.242   1.297 -0.1121 -0.4089 -0.2269
  847TIP3    H124100   5.054   3.328   1.258  0.7251 -0.7874 -1.4784
  847TIP3    H224101   5.105   3.189   1.225  2.1846 -0.9431  1.1626
  848TIP3   OH224102   2.031   2.069   0.313  0.3470  0.7556 -0.4468
  848TIP3    H124103   1.951   2.100   0.356  0.0584  0.0386 -0.4528
  848TIP3    H224104   2.000   2.007   0.247  0.9497 -0.0170 -0.0086
  849TIP3   OH224105   4.365   0.548   0.881  0.7364  0.2911  0.1379
  849TIP3    H124106   4.328   0.597   0.808  2.0969  0.2066 -0.6475
  849TIP3    H224107   4.410   0.474   0.840  0.1071 -0.6980  1.1964
  850TIP3   OH224108   3.237   5.952   8.540 -0.0217 -0.0100  0.0395
  850TIP3    H124109   3.243   6.042   8.573  0.8505  0.7027 -1.9545
  850TIP3    H224110   3.309   5.943   8.478 -0.0493 -2.1269  0.2281
  851TIP3   OH224111   1.306   1.643   7.391  0.2393  0.1500  0.0912
  851TIP3    H124112   1.311   1.664   7.484  2.8967  1.2835 -0.2267
  851TIP3    H224113   1.386   1.594   7.372 -0.9917 -1.4793 -1.3421
  852TIP3   OH224114   5.235   5.214   2.675 -0.6261 -0.6351 -0.0919
  852TIP3    H124115   5.211   5.215   2.767  1.2548 -0.4457  0.4349
  852TIP3    H224116   5.301   5.283   2.666 -0.5551 -0.8444 -1.5145
  853TIP3   OH224117   4.032   4.858   7.861 -0.1246  0.0259  0.2529
  853TIP3    H124118   3.940   4.879   7.877 -0.2645  2.3990 -2.7485
  853TIP3    H224119   4.039   4.764   7.876 -2.3311  0.1860  3.1684
  854TIP3   OH224120   4.665   4.036   0.021  0.5947 -0.1690 -0.1226
  854TIP3    H124121   4.660   4.084  -0.061  1.1476  0.3633  0.1473
  854TIP3    H224122   4.625   4.093   0.086  0.6879 -0.3399  0.0879
  855TIP3   OH224123   4.629   4.472   8.664 -0.3637  0.3612  0.0998
  855TIP3    H124124   4.661   4.436   8.581  0.0227  1.5787 -0.3044
  855TIP3    H224125   4.534   4.480   8.652 -0.4552 -0.5211  0.2063
  856TIP3   OH224126   0.205   1.720   0.432  0.8766 -0.5278  0.3433
  856TIP3    H124127   0.142   1.782   0.394  1.6835  0.6009  0.8082
  856TIP3    H224128   0.251   1.683   0.357 -0.2668 -1.3068  0.0009
  857TIP3   OH224129   2.465   0.985   1.527 -0.1582  0.1427  0.3665
  857TIP3    H124130   2.454   1.069   1.572 -1.4640 -0.6057  1.5429
  857TIP3    H224131   2.381   0.940   1.540 -0.2108 -0.5613 -1.9525
  858TIP3   OH224132   4.249   4.378   2.616 -0.6917  0.6521 -0.0292
  858TIP3    H124133   4.288   4.297   2.581 -0.4994  0.6852  0.1042
  858TIP3    H224134   4.264   4.373   2.710 -0.3954  0.9932 -0.0566
  859TIP3   OH224135   3.607   3.861   7.911 -0.1948 -0.0687 -0.2899
  859TIP3    H124136   3.547   3.827   7.976 -1.3733  0.2733 -1.1658
  859TIP3    H224137   3.552   3.880   7.835  1.3204 -1.8243 -1.9432
  860TIP3   OH224138   5.983   0.466   7.406 -0.1901  0.6676  0.3285
  860TIP3    H124139   5.893   0.486   7.380  0.0199  1.7639  0.4160
  860TIP3    H224140   6.032   0.462   7.324 -0.3474 -0.1585  0.2624
  861TIP3   OH224141   0.618   3.016   1.217  0.5499 -0.2365  0.0147
  861TIP3    H124142   0.555   2.984   1.282  0.4531 -0.7462 -0.3272
  861TIP3    H224143   0.571   3.010   1.134  1.0106 -0.5246 -0.2279
  862TIP3   OH224144   6.027   3.023   1.951  0.6143  0.3983 -0.1057
  862TIP3    H124145   6.061   3.037   2.039  2.9919 -2.5919 -0.3480
  862TIP3    H224146   5.932   3.017   1.962  0.8434  0.1554  2.2652
  863TIP3   OH224147   6.195   1.261   8.320  0.2973 -0.8483 -0.0492
  863TIP3    H124148   6.173   1.350   8.294 -1.8134 -0.9905  1.1069
  863TIP3    H224149   6.113   1.213   8.315  0.9275 -2.1881  1.5191
  864TIP3   OH224150   5.773   1.637   0.930 -0.5112  0.4156 -0.3919
  864TIP3    H124151   5.861   1.606   0.910 -1.3100 -1.1439 -1.6839
  864TIP3    H224152   5.768   1.724   0.890  1.1524  1.5523  1.6859
  865TIP3   OH224153   0.602   5.753   8.635  0.0929 -0.0277  0.1335
  865TIP3    H124154   0.666   5.811   8.594 -0.5292  1.7152  1.5321
  865TIP3    H224155   0.528   5.752   8.575 -0.0077  0.8902  0.2278
  866TIP3   OH224156   1.723   2.882   1.980 -0.0686  0.1982 -0.1906
  866TIP3    H124157   1.703   2.796   2.016  1.5852  0.1864  0.8151
  866TIP3    H224158   1.778   2.864   1.904  1.9736  0.3668  1.1863
  867TIP3   OH224159   4.952   3.002   8.594 -0.4856 -0.7175 -0.5187
  867TIP3    H124160   5.004   3.069   8.551  0.7772 -0.7719  0.8584
  867TIP3    H224161   4.910   2.954   8.522  0.1175  0.3251 -1.5853
  868TIP3   OH224162   5.463   6.213   1.689  0.0280  0.6286  0.0752
  868TIP3    H124163   5.463   6.292   1.634 -2.7252  0.3925 -0.3936
  868TIP3    H224164   5.532   6.229   1.753  0.2927  2.9355 -0.6911
  869TIP3   OH224165   5.406   0.784   7.814 -0.2399  0.0803  0.0131
  869TIP3    H124166   5.449   0.834   7.744 -0.7438 -2.3152 -2.1651
  869TIP3    H224167   5.330   0.837   7.839 -0.1853  0.8938 -1.4596
  870TIP3   OH224168   2.653   6.099   1.372  0.2901 -0.0764  0.3067
  870TIP3    H124169   2.638   6.139   1.287  0.1240 -1.0562 -0.1428
  870TIP3    H224170   2.579   6.127   1.426  0.3855  0.5279  0.1257
  871TIP3   OH224171   4.084   6.240   8.467 -0.7182 -0.4041 -0.6617
  871TIP3    H124172   4.176   6.213   8.477 -0.2398  1.2881 -0.0788
  871TIP3    H224173   4.055   6.261   8.556 -1.3669 -0.0249 -0.9558
  872TIP3   OH224174   1.278   6.454   7.497 -0.1503  0.8389  0.1775
  872TIP3    H124175   1.186   6.438   7.479  0.2038 -1.1377 -0.1303
  872TIP3    H224176   1.305   6.517   7.430 -0.8757  0.0846 -0.8579
  873TIP3   OH224177   6.501   1.948   0.116 -0.5732  0.5834  0.2897
  873TIP3    H124178   6.519   1.858   0.142 -2.6509  0.5774  2.0029
  873TIP3    H224179   6.432   1.941   0.050  0.1470  0.8745 -0.5019
  874TIP3   OH224180   4.931   2.972   1.740 -0.0327  0.1533  0.1364
  874TIP3    H124181   4.999   2.968   1.673 -0.6672 -0.1480 -0.4985
  874TIP3    H224182   4.850   2.951   1.693 -0.5103  0.1389  0.9585
  875TIP3   OH224183   2.035   3.214   7.451  0.9323  0.4979  0.1232
  875TIP3    H124184   2.023   3.286   7.388 -1.3324 -1.0771 -1.3915
  875TIP3    H224185   2.116   3.237   7.497  0.4024  3.9450 -0.3357
  876TIP3   OH224186   3.791   5.006   7.985 -0.8477 -0.2027 -0.2725
  876TIP3    H124187   3.813   4.987   8.076  1.4602  0.7488 -0.5455
  876TIP3    H224188   3.704   5.046   7.989 -0.5206  0.4237  1.6080
  877TIP3   OH224189   3.289   4.438   8.377  0.1166  0.3614 -0.2639
  877TIP3    H124190   3.331   4.352   8.371 -0.2959  0.2453 -1.6827
  877TIP3    H224191   3.353   4.499   8.342  0.0998  0.5379  0.0076
  878TIP3   OH224192   2.462   5.006   0.339 -0.0064  0.5896 -0.0404
  878TIP3    H124193   2.383   5.019   0.286  0.5313  1.1687 -0.7020
  878TIP3    H224194   2.478   5.091   0.380  0.5215  0.5976 -0.2562
  879TIP3   OH224195   2.308   6.024   6.958 -0.3883 -0.1645 -0.4095
  879TIP3    H124196   2.235   5.994   6.904 -1.5327 -0.4438  1.1896
  879TIP3    H224197   2.320   5.954   7.023 -0.9097  1.2832  1.3562
  880TIP3   OH224198   4.222   3.114   7.198 -0.0416  0.1666  0.2541
  880TIP3    H124199   4.243   3.095   7.107  0.8719 -0.2468  0.5297
  880TIP3    H224200   4.148   3.058   7.219  1.0381 -1.3037  0.3321
  881TIP3   OH224201   0.827   2.102   0.244 -0.3541  0.0375 -0.2270
  881TIP3    H124202   0.901   2.041   0.244 -0.8333 -0.7590 -3.7314
  881TIP3    H224203   0.765   2.064   0.307  0.0832 -2.2058 -1.0320
  882TIP3   OH224204   4.093   1.419   2.633 -0.7508  0.6672  0.5672
  882TIP3    H124205   4.130   1.348   2.685 -0.2887  1.0439  0.7642
  882TIP3    H224206   4.030   1.377   2.575  0.1889 -0.0438  0.0290
  883TIP3   OH224207   2.088   1.433   2.408  0.5056 -0.0310  0.0745
  883TIP3    H124208   2.141   1.358   2.383  1.2114  0.5051 -0.0690
  883TIP3    H224209   2.088   1.431   2.504  0.5250 -0.2054  0.0715
  884TIP3   OH224210   3.883   2.323   7.515 -0.1152 -0.5166 -0.2786
  884TIP3    H124211   3.965   2.361   7.483  0.2541 -1.3846 -0.3787
  884TIP3    H224212   3.842   2.394   7.566  0.7918 -0.1480 -0.0472
  885TIP3   OH224213   6.807   1.454   2.709 -0.1933  0.1126 -0.0296
  885TIP3    H124214   6.769   1.401   2.779 -0.6612  1.6917  0.9766
  885TIP3    H224215   6.781   1.544   2.730  0.4690  0.7547 -1.7168
  886TIP3   OH224216   3.157   5.096   8.155 -0.0371  0.5541 -0.1567
  886TIP3    H124217   3.225   5.151   8.116  0.1480  0.8438  0.5677
  886TIP3    H224218   3.079   5.114   8.103  0.5080 -0.0385 -1.2183
  887TIP3   OH224219   0.073   1.449   0.103  0.0437  0.2498 -0.2778
  887TIP3    H124220   0.107   1.383   0.164 -1.5751 -0.3821 -0.0051
  887TIP3    H224221  -0.015   1.468   0.135 -0.4127  0.7567 -1.7547
  888TIP3   OH224222   3.144   0.831   1.064  0.0514  0.0311  0.0840
  888TIP3    H124223   3.150   0.916   1.106  0.5513  1.1771 -2.1784
  888TIP3    H224224   3.080   0.842   0.995 -0.9539 -1.8738  0.6288
  889TIP3   OH224225   4.753   5.032   7.780  0.1877  0.0388  0.8210
  889TIP3    H124226   4.676   4.988   7.741 -0.1733  0.1847  1.3528
  889TIP3    H224227   4.816   5.038   7.708 -1.5157  2.9193 -0.6000
  890TIP3   OH224228   2.640   4.014   1.452  0.1018 -0.1880 -0.0921
  890TIP3    H124229   2.611   4.043   1.366 -0.8958 -1.1196 -0.0894
  890TIP3    H224230   2.727   3.979   1.438 -0.5503 -1.5213 -0.9928
  891TIP3   OH224231   4.264   2.615   7.847  0.3815  0.3612 -0.1953
  891TIP3    H124232   4.209   2.591   7.774  0.3280  0.7407 -0.2833
  891TIP3    H224233   4.326   2.679   7.811  0.4745  0.4098  0.0439
  892TIP3   OH224234   4.018   6.012   7.888  0.4828 -0.7041 -0.0089
  892TIP3    H124235   4.012   6.083   7.824  3.1426  0.0905  0.4757
  892TIP3    H224236   3.946   6.028   7.949 -0.2677  0.2839 -1.1135
  893TIP3   OH224237   2.719   1.360   7.544 -0.0135 -0.0642 -0.7691
  893TIP3    H124238   2.781   1.383   7.475  1.5492  0.8840  0.8584
  893TIP3    H224239   2.750   1.275   7.577  1.2543  0.9684  0.8585
  894TIP3   OH224240   4.481   6.294   2.066  0.1678  0.1312 -0.3442
  894TIP3    H124241   4.423   6.244   2.008  0.1655  3.0043 -3.0501
  894TIP3    H224242   4.455   6.267   2.154  0.4112 -4.7724 -1.4395
  895TIP3   OH224243   2.318   3.008   7.752  0.2009 -0.1491  0.4010
  895TIP3    H124244   2.315   2.996   7.657  1.3111 -0.4408  0.3904
  895TIP3    H224245   2.377   2.939   7.783  1.3440  1.0833  1.0864
  896TIP3   OH224246   2.475   6.106   3.084  0.3024 -0.1559  0.2669
  896TIP3    H124247   2.421   6.047   3.137  1.4356 -0.8657  0.6772
  896TIP3    H224248   2.413   6.167   3.045 -0.8120 -1.0590  0.5670
  897TIP3   OH224249   3.888   3.167   1.121  0.2316 -0.1803  0.7357
  897TIP3    H124250   3.904   3.233   1.187  0.5544 -1.4603  1.9945
  897TIP3    H224251   3.793   3.153   1.122  0.2729 -0.4531  1.2116
  898TIP3   OH224252   3.200   5.506   1.347 -0.0189 -0.5556  0.0831
  898TIP3    H124253   3.116   5.549   1.360 -0.6172 -1.5813 -0.2550
  898TIP3    H224254   3.237   5.498   1.435  0.3306  1.0400  0.1129
  899TIP3   OH224255   1.738   2.346   2.124 -0.2546  0.8823 -0.0163
  899TIP3    H124256   1.810   2.285   2.108 -0.7482 -0.0083  1.0344
  899TIP3    H224257   1.780   2.431   2.139  0.4817  0.6604 -0.8001
  900TIP3   OH224258   3.000   0.278   1.836 -0.3991 -0.1085 -0.7513
  900TIP3    H124259   2.948   0.347   1.795 -1.5958 -0.0470  0.7953
  900TIP3    H224260   3.045   0.236   1.763 -1.2969  0.9409 -1.9530
  901TIP3   OH224261   1.941   3.060   1.711 -0.1852 -0.8465 -0.0058
  901TIP3    H124262   2.019   3.084   1.762 -0.0304  1.2603 -1.1515
  901TIP3    H224263   1.883   3.135   1.719 -0.3835 -0.6638 -2.4405
  902TIP3   OH224264   4.316   2.022   1.540 -0.4292  0.4049 -0.6061
  902TIP3    H124265   4.373   2.075   1.484  0.1477  1.2378  0.7262
  902TIP3    H224266   4.325   1.933   1.505  0.8691  0.7015 -1.0936
  903TIP3   OH224267   1.359   2.488   1.798  0.1981  0.3532 -0.0640
  903TIP3    H124268   1.327   2.409   1.841 -1.7672  1.7421  1.2142
  903TIP3    H224269   1.299   2.503   1.725  0.7771  0.4829 -0.5250
  904TIP3   OH224270   4.182   4.939   2.089 -0.8138 -0.0169  0.2889
  904TIP3    H124271   4.213   4.871   2.030 -1.6969  0.1811 -0.4284
  904TIP3    H224272   4.147   4.891   2.164 -0.9175 -0.3390  0.0388
  905TIP3   OH224273   4.275   5.963   2.648  0.3580 -0.1224  0.2122
  905TIP3    H124274   4.355   5.969   2.595  1.2683 -2.3105  1.1719
  905TIP3    H224275   4.223   6.039   2.624  2.3031  0.8347 -1.1900
  906TIP3   OH224276   0.453   5.255   7.973 -0.9620 -0.3938 -0.4451
  906TIP3    H124277   0.498   5.231   7.892  0.6591 -1.0430  0.6206
  906TIP3    H224278   0.430   5.347   7.960 -3.0475 -1.1005 -2.6524
  907TIP3   OH224279   3.831   2.886   7.668 -0.2337  0.5353 -0.3434
  907TIP3    H124280   3.864   2.825   7.734 -0.7700 -0.1086 -0.6591
  907TIP3    H224281   3.767   2.835   7.618 -0.9878  1.4727 -0.3668
  908TIP3   OH224282   2.784   0.531   7.517 -0.0420  0.4918  0.5792
  908TIP3    H124283   2.752   0.446   7.488  3.2499 -0.6943 -0.0390
  908TIP3    H224284   2.709   0.590   7.508 -2.2662 -2.1829  0.4656
  909TIP3   OH224285   5.670   3.422   2.020  0.1478  0.2489 -0.4565
  909TIP3    H124286   5.650   3.402   2.111  0.5134  1.5470 -0.0754
  909TIP3    H224287   5.690   3.337   1.981 -0.5157 -0.3908  0.5322
  910TIP3   OH224288   4.663   0.961   8.180 -0.0438 -0.3308 -0.5316
  910TIP3    H124289   4.751   0.982   8.150  0.2548 -0.3214  0.3274
  910TIP3    H224290   4.606   0.989   8.109  0.4623  1.8290 -0.1599
  911TIP3   OH224291   6.431   5.126   0.989  0.1619 -0.5722 -0.0452
  911TIP3    H124292   6.444   5.075   0.909  0.8774  0.3245 -0.5172
  911TIP3    H224293   6.489   5.202   0.979 -2.2401  1.3773 -0.2679
  912TIP3   OH224294   5.429   6.219   0.463  0.2475 -0.3734 -0.4565
  912TIP3    H124295   5.423   6.189   0.554 -0.7023  0.0017 -0.3871
  912TIP3    H224296   5.440   6.139   0.413  0.0922 -0.6456 -0.0664
  913TIP3   OH224297   1.962   3.529   1.290 -0.4297 -0.6830  0.4161
  913TIP3    H124298   2.032   3.594   1.285 -1.0986 -0.0249 -0.7514
  913TIP3    H224299   1.990   3.469   1.360  0.2561  0.7693  1.4413
  914TIP3   OH224300   6.176   2.672   8.666 -0.3764 -0.7403  0.0413
  914TIP3    H124301   6.107   2.607   8.676 -0.9413 -0.1261  0.2007
  914TIP3    H224302   6.134   2.756   8.686 -0.5540  0.1303 -3.4159
  915TIP3   OH224303   2.706   5.821   7.948 -0.3388  0.5280  0.3537
  915TIP3    H124304   2.715   5.797   7.856  0.9408 -2.3644  1.1449
  915TIP3    H224305   2.621   5.787   7.973  0.4501 -1.1521  0.8655
  916TIP3   OH224306   5.054   0.536   8.485 -0.2718 -0.6136  0.2744
  916TIP3    H124307   5.127   0.499   8.534 -1.9577 -2.3956  1.6049
  916TIP3    H224308   4.990   0.465   8.478 -1.6375  0.6617 -1.4030
  917TIP3   OH224309   4.235   6.262   7.563  0.0712  0.4396  0.1717
  917TIP3    H124310   4.320   6.219   7.556 -1.0217 -1.7872 -0.2750
  917TIP3    H224311   4.242   6.338   7.506  2.8103  2.2681  2.6853
  918TIP3   OH224312   4.081   4.038   7.377  0.0888  0.3956 -0.0659
  918TIP3    H124313   3.999   4.015   7.333 -0.2644  1.1523  0.1694
  918TIP3    H224314   4.149   4.018   7.313 -0.2035 -1.0730  0.0604
  919TIP3   OH224315   1.552   0.432   8.222  0.2144 -0.0516  0.2820
  919TIP3    H124316   1.648   0.437   8.220  0.2105 -0.1911 -1.4014
  919TIP3    H224317   1.524   0.521   8.201 -0.1296  1.0783  4.5899
  920TIP3   OH224318   2.125   4.257   8.118 -0.2023  0.6655 -0.3212
  920TIP3    H124319   2.088   4.336   8.158  0.7538  0.3798  1.2294
  920TIP3    H224320   2.141   4.282   8.027  0.0738  2.2794  0.1315
  921TIP3   OH224321   4.184   2.467   1.776  0.5196  0.0472  0.0968
  921TIP3    H124322   4.130   2.524   1.722  1.1102 -1.0976 -1.8235
  921TIP3    H224323   4.149   2.379   1.761  1.4404 -0.4377  0.6625
  922TIP3   OH224324   3.976   4.080   7.994 -0.3533 -0.3856 -0.4858
  922TIP3    H124325   3.970   3.987   7.971  0.3314 -0.6569  0.3768
  922TIP3    H224326   3.886   4.112   7.990 -0.9588 -1.6878  1.6305
  923TIP3   OH224327   3.700   3.548   0.050 -0.1177  0.1696  0.2936
  923TIP3    H124328   3.645   3.523   0.124 -0.5237 -0.0473 -0.0738
  923TIP3    H224329   3.639   3.553  -0.024  0.3384  0.0374 -0.0944
  924TIP3   OH224330   5.320   4.081   2.291  0.1140  0.2231  0.2827
  924TIP3    H124331   5.278   4.018   2.232  0.6460 -0.6565  0.8110
  924TIP3    H224332   5.414   4.067   2.279  0.2592  1.3877 -0.0668
  925TIP3   OH224333   6.461   6.600   2.137  0.0083 -0.1406  0.2919
  925TIP3    H124334   6.541   6.639   2.100  0.2114 -0.7044  0.1285
  925TIP3    H224335   6.394   6.617   2.072  0.5095 -1.7336 -0.6923
  926TIP3   OH224336   5.199   3.919   0.321  0.5734  0.0928 -0.1224
  926TIP3    H124337   5.153   3.836   0.317 -0.7340  0.8370 -1.3988
  926TIP3    H224338   5.276   3.902   0.376  0.7351 -2.1276 -0.9769
  927TIP3   OH224339   6.707   0.573   7.064  0.0756 -0.1529 -0.2699
  927TIP3    H124340   6.701   0.572   6.968 -0.0993 -2.3193 -0.2946
  927TIP3    H224341   6.644   0.507   7.093  0.4969  0.0925  1.3176
  928TIP3   OH224342   6.541   0.018   7.938  0.0065 -0.1528  0.1086
  928TIP3    H124343   6.579  -0.029   8.012  1.2741 -1.0095 -1.0402
  928TIP3    H224344   6.488  -0.047   7.893 -3.3165  1.0949  1.8686
  929TIP3   OH224345   6.204   5.693   0.863 -0.1150  0.3218  0.5676
  929TIP3    H124346   6.110   5.690   0.880 -0.1968 -3.3387  0.2346
  929TIP3    H224347   6.244   5.700   0.950 -0.7057 -1.2112  0.9901
  930TIP3   OH224348   3.146   4.017   0.784 -0.6451 -0.1890 -0.1503
  930TIP3    H124349   3.159   4.085   0.719 -0.6172 -1.0635 -1.0793
  930TIP3    H224350   3.100   4.061   0.856 -0.0903  0.9356 -0.4710
  931TIP3   OH224351   2.453   1.209   0.266 -0.0760  0.5085 -0.3144
  931TIP3    H124352   2.521   1.259   0.312 -0.0356  2.2028 -2.0792
  931TIP3    H224353   2.502   1.146   0.214 -0.0393 -0.2039  0.5508
  932TIP3   OH224354   3.749   4.354   0.617  0.2763  0.0585 -0.2612
  932TIP3    H124355   3.741   4.378   0.710 -0.0311  0.8697 -0.4903
  932TIP3    H224356   3.843   4.353   0.601  0.3187  0.4162 -0.0592
  933TIP3   OH224357   2.804   5.961   1.940  0.2668  0.5304  0.0770
  933TIP3    H124358   2.818   6.043   1.989 -0.4680  1.1774 -0.7786
  933TIP3    H224359   2.718   5.930   1.969  0.2582  0.3988 -0.0911
  934TIP3   OH224360   1.121   4.041   7.659 -0.0599  0.1257  0.2732
  934TIP3    H124361   1.176   4.063   7.585  0.4564  0.4348  0.7421
  934TIP3    H224362   1.038   4.085   7.641  0.9236  2.5326  1.1641
  935TIP3   OH224363   4.010   1.943   8.372 -0.6395  0.4003  0.1835
  935TIP3    H124364   3.941   1.984   8.424  0.2212  1.3047  0.6276
  935TIP3    H224365   4.031   1.863   8.419 -1.4648  0.0437 -0.0272
  936TIP3   OH224366   4.058   6.833   1.567 -0.0746  0.0618 -0.1143
  936TIP3    H124367   3.980   6.778   1.574  0.7343 -0.9915  1.1914
  936TIP3    H224368   4.114   6.788   1.504 -0.4391  0.7535 -0.9590
  937TIP3   OH224369   6.588   2.413   8.534 -0.1165 -0.1371  0.1737
  937TIP3    H124370   6.609   2.445   8.622  0.4638 -0.5430  0.1914
  937TIP3    H224371   6.515   2.467   8.505 -0.6972 -0.3963  1.1396
  938TIP3   OH224372   2.415   2.540   7.747 -0.6334 -0.3695 -0.2420
  938TIP3    H124373   2.399   2.515   7.656 -0.7298  0.6454 -0.5187
  938TIP3    H224374   2.330   2.567   7.780 -0.1209  2.3702 -0.8770
  939TIP3   OH224375   4.019   6.449   6.815  0.1251  0.0527  0.4607
  939TIP3    H124376   4.069   6.369   6.829 -0.3953 -0.7292 -1.6988
  939TIP3    H224377   4.082   6.512   6.781  0.6772  0.8476  2.7939
  940TIP3   OH224378   6.452   6.264   7.635 -0.2034 -0.0462 -0.0393
  940TIP3    H124379   6.437   6.186   7.689 -1.5474  0.1931 -0.0435
  940TIP3    H224380   6.447   6.231   7.545  1.3723 -0.3233 -0.0514
  941TIP3   OH224381   3.204   2.451   7.434 -0.2571 -0.0543 -0.1652
  941TIP3    H124382   3.160   2.390   7.375 -1.8414 -0.4698  1.3370
  941TIP3    H224383   3.262   2.502   7.378  0.1498 -2.0532 -1.6798
  942TIP3   OH224384   6.836   6.054   8.615  0.1078  0.1197  0.0951
  942TIP3    H124385   6.884   6.018   8.690 -1.7262 -2.9761 -0.0422
  942TIP3    H224386   6.886   6.025   8.539  0.8988  1.6164 -0.0093
  943TIP3   OH224387   5.893   4.324   3.210 -0.6155 -0.0111 -0.5964
  943TIP3    H124388   5.858   4.299   3.295  2.2612 -1.0588  0.4089
  943TIP3    H224389   5.889   4.420   3.210  0.5429  0.0849  1.3285
  944TIP3   OH224390   0.797   1.823   0.668  0.8088  0.0283 -0.3449
  944TIP3    H124391   0.879   1.794   0.709  0.6030  0.0653  0.0974
  944TIP3    H224392   0.771   1.900   0.719 -1.0783 -1.6951  1.4946
  945TIP3   OH224393   6.142   1.603   7.594 -0.0544 -0.3256 -0.4978
  945TIP3    H124394   6.199   1.570   7.525 -0.2860 -2.9322  0.4628
  945TIP3    H224395   6.198   1.663   7.644  0.9135 -0.4946 -1.3464
  946TIP3   OH224396   3.525   4.349   2.135  0.0050  0.2350 -0.0058
  946TIP3    H124397   3.551   4.354   2.043  1.1672 -0.3437  0.2668
  946TIP3    H224398   3.501   4.257   2.148 -0.8956  0.4771  0.0901
  947TIP3   OH224399   3.953   5.029   7.631  0.8105  0.4655 -0.0747
  947TIP3    H124400   4.015   4.992   7.694  0.5816 -0.7675 -0.5282
  947TIP3    H224401   4.003   5.036   7.549  0.3049 -0.8333 -0.5244
  948TIP3   OH224402   2.608   5.240   0.888  0.6298 -0.5658  0.0715
  948TIP3    H124403   2.529   5.194   0.858 -0.0759  1.8744 -2.1588
  948TIP3    H224404   2.583   5.281   0.971 -0.5158  0.2691 -0.6693
  949TIP3   OH224405   6.629   4.763   1.610  0.4676  0.1696  0.0590
  949TIP3    H124406   6.610   4.772   1.517 -0.5789  0.3311  0.2792
  949TIP3    H224407   6.722   4.786   1.618  0.2473  1.4138 -0.7557
  950TIP3   OH224408   6.830   6.378   0.457  0.6693  0.5808 -0.0408
  950TIP3    H124409   6.895   6.345   0.519  1.1333 -0.1489 -0.8848
  950TIP3    H224410   6.786   6.448   0.504 -0.4277 -1.2762  1.9099
  951TIP3   OH224411   2.648   0.737   6.869  0.1407  0.0850 -0.6521
  951TIP3    H124412   2.723   0.678   6.864  1.9359  2.2591 -0.9908
  951TIP3    H224413   2.669   0.809   6.809 -1.2460  1.8060  0.7848
  952TIP3   OH224414   1.224   1.870   1.726 -0.2189  0.5918  0.0028
  952TIP3    H124415   1.304   1.833   1.688 -0.1970  1.7650 -1.1773
  952TIP3    H224416   1.227   1.844   1.818  1.0317 -0.2046 -0.2388
  953TIP3   OH224417   3.499   1.450   7.906 -0.4427 -0.2068  0.4165
  953TIP3    H124418   3.594   1.463   7.899 -0.2087 -1.3618  1.1342
  953TIP3    H224419   3.461   1.521   7.854  0.8252 -0.0982 -0.4122
  954TIP3   OH224420   4.580   6.134   1.763  0.2986  0.2713 -0.3058
  954TIP3    H124421   4.522   6.109   1.834  0.6829  0.4588  0.0738
  954TIP3    H224422   4.553   6.223   1.739 -0.3589 -0.0847 -0.9391
  955TIP3   OH224423   4.183   0.721   7.757 -0.5052 -0.1454 -0.0568
  955TIP3    H124424   4.151   0.711   7.667 -0.6636  0.7672 -0.1102
  955TIP3    H224425   4.253   0.786   7.750 -1.4228  0.9661  0.6645
  956TIP3   OH224426   1.264   4.162   8.391  0.1925 -0.5922  0.8561
  956TIP3    H124427   1.223   4.078   8.408 -0.6992  0.1805  2.7922
  956TIP3    H224428   1.214   4.225   8.443  0.7433  1.1747 -0.6329
  957TIP3   OH224429   1.279   1.753   0.524  0.4732 -0.5009  0.4772
  957TIP3    H124430   1.239   1.703   0.594  0.0111 -0.0948  0.5099
  957TIP3    H224431   1.309   1.687   0.461  1.7172 -0.9228  1.4691
  958TIP3   OH224432   2.816   5.389   0.348 -0.3724 -0.3205 -0.0108
  958TIP3    H124433   2.815   5.307   0.298  1.3202  0.4719 -1.4842
  958TIP3    H224434   2.906   5.395   0.380 -0.5488  0.8437  0.2834
  959TIP3   OH224435   5.443   0.084   2.569 -0.5759  0.2766  0.4168
  959TIP3    H124436   5.489   0.123   2.495 -0.5101 -0.9227 -0.2099
  959TIP3    H224437   5.493   0.005   2.589 -0.7114  0.4813  1.6259
  960TIP3   OH224438   1.999   3.998   0.777 -0.1520  0.0816 -0.2171
  960TIP3    H124439   2.027   3.946   0.852 -0.0567 -0.0610 -0.3520
  960TIP3    H224440   1.987   4.086   0.813 -0.9349 -0.1629  0.1454
  961TIP3   OH224441   6.312   2.201   2.000 -0.1035  1.0933 -0.2212
  961TIP3    H124442   6.250   2.131   2.022  0.4423  0.5743 -0.2887
  961TIP3    H224443   6.258   2.270   1.961 -0.8054  1.1806  0.8641
  962TIP3   OH224444   1.038   3.909   0.896  0.4385 -0.2317 -0.2737
  962TIP3    H124445   1.052   3.884   0.987  0.4082  0.0863 -0.1829
  962TIP3    H224446   1.114   3.874   0.849  1.3613  1.1570  0.1486
  963TIP3   OH224447   1.877   2.115   7.381  0.1325  0.1520 -0.1199
  963TIP3    H124448   1.784   2.099   7.364  0.3050 -1.0722 -0.0388
  963TIP3    H224449   1.907   2.163   7.304 -0.2615 -0.7100 -0.8336
  964TIP3   OH224450   1.191   4.952   0.168  0.3316 -0.1208 -0.0029
  964TIP3    H124451   1.243   4.892   0.116  0.7703 -0.5973  0.9705
  964TIP3    H224452   1.164   5.020   0.106  2.3720  0.3227 -0.4701
  965TIP3   OH224453   2.722   1.563   7.798 -0.4403  0.2580 -0.0263
  965TIP3    H124454   2.723   1.508   7.719 -3.1473 -2.1674  1.4274
  965TIP3    H224455   2.777   1.515   7.860  0.3564  1.3096  0.1057
  966TIP3   OH224456   3.312   1.662   0.733  0.0531  0.3941  0.0050
  966TIP3    H124457   3.232   1.632   0.689  0.8212 -0.5011 -0.8289
  966TIP3    H224458   3.292   1.751   0.761 -1.1969  0.2240 -0.2899
  967TIP3   OH224459   5.618   0.570   0.860 -0.1690 -0.1879  0.2755
  967TIP3    H124460   5.574   0.488   0.882 -0.8433 -0.1244 -0.7453
  967TIP3    H224461   5.546   0.630   0.841  0.3398 -0.0763 -1.4351
  968TIP3   OH224462   1.571   6.687   1.492 -0.5001 -0.5003  0.7862
  968TIP3    H124463   1.519   6.624   1.542 -3.4607  1.7674  0.9114
  968TIP3    H224464   1.540   6.677   1.401  1.0512 -1.0606  0.2860
  969TIP3   OH224465   3.269   2.843   1.553  0.6953  0.7546  0.4410
  969TIP3    H124466   3.337   2.808   1.611  1.5458  1.5761 -0.0292
  969TIP3    H224467   3.243   2.769   1.499  1.9213  0.6383 -0.0286
  970TIP3   OH224468   2.709   5.149   0.260  0.4546  0.2199  0.3387
  970TIP3    H124469   2.724   5.165   0.167 -0.2523  0.9138  0.3361
  970TIP3    H224470   2.653   5.071   0.263 -0.8313  1.0998  0.0970
  971TIP3   OH224471   4.295   0.174   2.588  0.2374  0.5049 -0.1975
  971TIP3    H124472   4.278   0.231   2.663 -0.4113 -0.3639  0.3215
  971TIP3    H224473   4.357   0.109   2.621 -0.0741  0.1009 -0.4106
  972TIP3   OH224474   1.591   5.221   8.300 -0.1547 -0.9437 -0.1788
  972TIP3    H124475   1.601   5.233   8.206 -1.2689 -0.7737 -0.2938
  972TIP3    H224476   1.595   5.310   8.336 -0.2498 -0.9567 -0.1336
  973TIP3   OH224477   0.443   4.409   1.667 -0.2707  0.4921 -0.6885
  973TIP3    H124478   0.469   4.492   1.707 -2.7823  1.2145 -0.3807
  973TIP3    H224479   0.406   4.433   1.582  0.9323 -0.5738 -1.5497
  974TIP3   OH224480   2.366   3.464   8.311 -0.1562 -0.3661  0.2145
  974TIP3    H124481   2.452   3.505   8.304  0.3292 -1.1671  1.2662
  974TIP3    H224482   2.317   3.500   8.236  0.6397  1.1338  0.3610
  975TIP3   OH224483   5.597   6.408   2.631  0.2744  0.7899 -0.3708
  975TIP3    H124484   5.658   6.382   2.700 -0.5215  0.6282  0.2863
  975TIP3    H224485   5.554   6.487   2.664 -0.2488  0.6047 -0.5879
  976TIP3   OH224486   1.565   1.209   0.155 -0.3625 -0.4051 -0.3490
  976TIP3    H124487   1.506   1.177   0.223  0.4402  0.0337  0.5654
  976TIP3    H224488   1.620   1.274   0.199  0.4111 -0.3732 -1.3286
  977TIP3   OH224489   2.793   2.745   2.083 -0.1914 -0.5391  0.1841
  977TIP3    H124490   2.853   2.673   2.101 -0.9056 -1.7265 -1.9086
  977TIP3    H224491   2.825   2.816   2.138  1.5616 -1.9162  1.0595
  978TIP3   OH224492   4.651   1.097   1.194  0.3026  0.0993 -0.0381
  978TIP3    H124493   4.718   1.044   1.236 -0.8460  0.1060  1.8849
  978TIP3    H224494   4.665   1.185   1.228 -0.3559  0.2023 -0.0219
  979TIP3   OH224495   4.966   4.075   0.832 -0.1324 -0.1512 -0.4292
  979TIP3    H124496   4.934   4.023   0.906  0.1340 -0.8103 -0.7701
  979TIP3    H224497   4.995   4.010   0.768  2.7096  0.3588  0.1958
  980TIP3   OH224498   5.347   3.989   0.826 -0.8607 -0.3277 -0.1255
  980TIP3    H124499   5.293   4.015   0.751  0.9780  0.0094 -1.4133
  980TIP3    H224500   5.291   3.933   0.878 -2.8136  0.9123 -0.7741
  981TIP3   OH224501   6.065   2.924   0.063  0.8360  0.6935  0.0364
  981TIP3    H124502   6.030   2.991   0.004 -0.8429 -0.6153 -0.5220
  981TIP3    H224503   6.013   2.933   0.143 -0.9724 -1.3021 -0.8179
  982TIP3   OH224504   0.670   3.813   2.463  0.2976  0.6894 -0.6526
  982TIP3    H124505   0.761   3.800   2.488  0.4577 -2.6010 -2.3847
  982TIP3    H224506   0.626   3.837   2.545  2.0190 -1.9339  1.1975
  983TIP3   OH224507   5.159   1.542   0.904 -0.2187 -0.0259 -0.3107
  983TIP3    H124508   5.100   1.533   0.830 -0.1565 -0.5954 -0.2962
  983TIP3    H224509   5.110   1.505   0.978  0.8381 -2.2547 -0.6544
  984TIP3   OH224510   0.741   2.996   0.942 -0.2133  0.2818  0.2598
  984TIP3    H124511   0.810   3.002   0.875  0.1187 -0.2403  0.5513
  984TIP3    H224512   0.661   3.022   0.895  0.4272  2.6787  0.3689
  985TIP3   OH224513   4.192   3.724   1.640  0.6842 -0.3149 -0.1192
  985TIP3    H124514   4.231   3.650   1.686 -0.6580  0.4654  2.4309
  985TIP3    H224515   4.158   3.781   1.709 -1.3342  1.0240 -2.0714
  986TIP3   OH224516   4.283   3.309   0.112 -0.5666 -0.2817  0.0661
  986TIP3    H124517   4.341   3.233   0.122 -0.4611 -0.1770  0.2486
  986TIP3    H224518   4.233   3.290   0.033 -0.6224 -0.5977  0.1773
  987TIP3   OH224519   5.517   0.569   2.058 -0.0621  1.2517  0.8805
  987TIP3    H124520   5.559   0.495   2.102 -3.1803 -0.2379  1.6758
  987TIP3    H224521   5.427   0.540   2.044 -0.2816  3.1881 -3.0349
  988TIP3   OH224522   1.713   4.773   2.069 -0.8316  0.1582 -0.1989
  988TIP3    H124523   1.785   4.757   2.008  0.9333 -0.0713  1.7820
  988TIP3    H224524   1.703   4.868   2.070 -1.5322  0.1088 -1.5083
  989TIP3   OH224525   0.461   0.878   1.642  0.1657  0.3347  0.0027
  989TIP3    H124526   0.526   0.809   1.636 -0.9825 -0.6741 -1.9172
  989TIP3    H224527   0.383   0.835   1.679 -0.8347  0.3066 -2.0025
  990TIP3   OH224528   1.706   1.804   6.793 -0.1327  0.2094  0.3511
  990TIP3    H124529   1.791   1.779   6.829 -0.8587  0.9783  2.7883
  990TIP3    H224530   1.675   1.726   6.747  1.0388 -0.7201  1.1001
  991TIP3   OH224531   5.346   4.787   0.841 -0.4083  0.4271 -0.0527
  991TIP3    H124532   5.363   4.697   0.867 -1.7633  0.4297  0.9410
  991TIP3    H224533   5.427   4.834   0.864 -0.1094 -0.3232  0.4720
  992TIP3   OH224534   4.249   2.859   2.904 -0.4218 -0.0339  0.0102
  992TIP3    H124535   4.217   2.782   2.858 -3.9713  0.4576  1.3567
  992TIP3    H224536   4.308   2.824   2.971 -1.9084 -1.6115  0.5528
  993TIP3   OH224537   0.530   3.797   3.000 -0.2999  0.3158 -0.0330
  993TIP3    H124538   0.439   3.794   3.029  0.0242  1.4638  1.2317
  993TIP3    H224539   0.580   3.764   3.075  0.3414 -0.4460 -0.7660
  994TIP3   OH224540   6.401   0.621   0.795  0.4905 -0.6862  0.1439
  994TIP3    H124541   6.394   0.638   0.889  0.2640 -2.5795  0.5082
  994TIP3    H224542   6.311   0.609   0.766  0.6181 -1.0535 -0.1112
  995TIP3   OH224543   4.689   5.797   0.605  0.6924 -0.0881  0.1181
  995TIP3    H124544   4.648   5.769   0.687  0.7980 -1.5623 -0.3095
  995TIP3    H224545   4.668   5.890   0.599 -1.8311 -0.5618  0.3711
  996TIP3   OH224546   0.050   5.004   8.508  0.0888  0.3704  0.0128
  996TIP3    H124547  -0.044   5.003   8.523 -0.1956  3.0435 -1.0795
  996TIP3    H224548   0.085   5.063   8.574  1.1916 -1.2343  0.9472
  997TIP3   OH224549   1.457   1.673   1.870 -0.7448  0.0579 -0.4527
  997TIP3    H124550   1.383   1.618   1.844  0.0277 -2.2726  1.8752
  997TIP3    H224551   1.533   1.616   1.864  0.1781  0.9627  1.6536
  998TIP3   OH224552   3.417   4.581   0.914  0.7249  0.1101 -0.5629
  998TIP3    H124553   3.375   4.665   0.936  2.0320  0.6441 -0.0085
  998TIP3    H224554   3.445   4.545   0.998  1.2897 -0.2697 -0.9041
  999TIP3   OH224555   0.513   2.433   8.436  0.1339 -0.3745  0.8698
  999TIP3    H124556   0.557   2.405   8.355  1.5525  1.0343  1.0934
  999TIP3    H224557   0.423   2.450   8.410  0.3229 -0.8949 -0.1956
 1000TIP3   OH224558   3.719   3.806   2.346  0.2358 -0.5935 -0.5069
 1000TIP3    H124559   3.719   3.830   2.254 -3.8608  1.3991 -0.2344
 1000TIP3    H224560   3.785   3.863   2.386  1.2141 -0.6461 -1.9977
 1001TIP3   OH224561   0.655   1.560   1.664 -0.2728  0.1645  0.4532
 1001TIP3    H124562   0.578   1.537   1.715 -1.0952 -0.1652 -0.8848
 1001TIP3    H224563   0.668   1.485   1.606  1.2818  0.0651  0.8988
 1002TIP3   OH224564   6.753   1.499   0.310 -0.7059  0.7923 -0.1077
 1002TIP3    H124565   6.667   1.467   0.338 -0.4879  0.9966  0.8185
 1002TIP3    H224566   6.781   1.556   0.380  0.6754 -0.1406  0.1335
 1003TIP3   OH224567   0.590   6.300   8.264 -0.0653 -0.5609 -0.5456
 1003TIP3    H124568   0.529   6.241   8.309 -1.0997  0.2339 -0.8735
 1003TIP3    H224569   0.554   6.310   8.176  0.4114  0.1051 -0.6714
 1004TIP3   OH224570   2.583   2.092   8.149 -0.0606 -0.0630  0.4933
 1004TIP3    H124571   2.596   2.062   8.059 -0.8841 -0.3217  0.4461
 1004TIP3    H224572   2.641   2.037   8.201  0.5818  0.2322  0.1073
 1005TIP3   OH224573   4.355   5.630   1.541  0.0086  0.8547 -0.1597
 1005TIP3    H124574   4.320   5.571   1.607  0.8850  2.1587  1.5483
 1005TIP3    H224575   4.378   5.573   1.468 -0.1174 -0.7829  1.0183
 1006TIP3   OH224576   0.538   5.668   2.492 -0.3501  0.1098 -0.1540
 1006TIP3    H124577   0.591   5.729   2.542 -0.7329  0.8066 -0.5813
 1006TIP3    H224578   0.483   5.723   2.436 -1.6313 -0.5749  0.3630
 1007TIP3   OH224579   3.338   0.076   7.886 -0.9619 -0.2273 -0.7504
 1007TIP3    H124580   3.402   0.119   7.829 -0.8098 -0.6373 -0.8932
 1007TIP3    H224581   3.253   0.099   7.848 -0.9405  1.0421 -0.0481
 1008TIP3   OH224582   3.994   2.624   0.124  0.2266  0.4192  0.2693
 1008TIP3    H124583   4.065   2.682   0.152  0.5604  0.2886 -0.2958
 1008TIP3    H224584   4.033   2.570   0.054  0.0678 -0.7965  1.0779
 1009TIP3   OH224585   1.622   1.355   8.216 -0.4661  0.6669 -0.4993
 1009TIP3    H124586   1.571   1.396   8.146 -1.7451 -0.0809 -0.0374
 1009TIP3    H224587   1.678   1.291   8.171 -1.8225 -0.3508 -0.7951
 1010TIP3   OH224588   2.099   6.182   2.550  0.5245 -0.8665  0.7383
 1010TIP3    H124589   2.102   6.106   2.492 -1.3080 -1.2750  1.0891
 1010TIP3    H224590   2.121   6.147   2.636  1.6995 -0.5711  0.5716
 1011TIP3   OH224591   2.192   0.010   2.245 -0.2811 -0.1399 -0.1154
 1011TIP3    H124592   2.106  -0.016   2.277 -0.9885  1.7218 -0.3617
 1011TIP3    H224593   2.216   0.086   2.299  1.2147 -0.6221 -0.0557
 1012TIP3   OH224594   1.404   1.002   1.197  0.0604 -0.1168  0.1333
 1012TIP3    H124595   1.412   0.912   1.166 -0.6542 -0.1854  0.1432
 1012TIP3    H224596   1.494   1.026   1.221  0.9545  0.4530 -3.3017
 1013TIP3   OH224597   3.594   5.010   8.667 -0.3454  0.0850 -0.0211
 1013TIP3    H124598   3.594   5.007   8.763  0.7125  1.7806  0.0711
 1013TIP3    H224599   3.634   4.927   8.640 -1.4063 -0.7807  0.9495
 1014TIP3   OH224600   1.125   4.746   8.248  0.3885 -0.0789  0.1357
 1014TIP3    H124601   1.161   4.819   8.298  0.9963  0.4116 -0.9775
 1014TIP3    H224602   1.165   4.754   8.161  1.4995 -2.5172  0.3402
 1015TIP3   OH224603   5.773   3.587   8.585 -0.2532  0.1736  0.6206
 1015TIP3    H124604   5.778   3.679   8.557  0.0158 -0.1523 -0.4788
 1015TIP3    H224605   5.682   3.563   8.572 -0.5911  0.6160  2.0662
 1016TIP3   OH224606   3.865   2.559   1.978  0.4382  0.1199 -0.4823
 1016TIP3    H124607   3.934   2.584   1.917 -0.0434  2.2192 -0.2620
 1016TIP3    H224608   3.909   2.556   2.063  0.3539  1.2283 -0.3770
 1017TIP3   OH224609   3.230   5.633   8.150 -0.2815  0.3784  0.0541
 1017TIP3    H124610   3.302   5.592   8.197  1.1854  1.0408 -1.5207
 1017TIP3    H224611   3.152   5.587   8.181  0.8813 -0.9119  1.2090
 1018TIP3   OH224612   0.984   0.553   0.824  0.0119  0.2983 -0.0584
 1018TIP3    H124613   0.986   0.637   0.778 -2.5608  0.3169 -0.2863
 1018TIP3    H224614   1.022   0.571   0.910  2.1583  0.9605 -1.0708
 1019TIP3   OH224615   0.635   1.493   8.019 -0.0353 -0.1546 -0.6161
 1019TIP3    H124616   0.690   1.516   7.945  1.0882  0.5522  0.3922
 1019TIP3    H224617   0.695   1.493   8.094 -1.1585 -0.7046  0.3177
 1020TIP3   OH224618   3.782   2.421   2.677  0.3793 -0.3248  0.2346
 1020TIP3    H124619   3.712   2.389   2.735  0.3029 -1.4956 -0.4803
 1020TIP3    H224620   3.848   2.456   2.736 -0.5302  0.2327  0.9510
 1021TIP3   OH224621   1.549   2.933   0.548  0.1023 -0.1684  0.4010
 1021TIP3    H124622   1.471   2.911   0.598  0.5167 -1.2089  0.6083
 1021TIP3    H224623   1.516   2.976   0.469 -0.6210  0.2855  0.9333
 1022TIP3   OH224624   4.785   4.460   1.047 -0.1541 -0.6515  0.0507
 1022TIP3    H124625   4.804   4.380   0.998 -0.1167 -0.4986 -0.1868
 1022TIP3    H224626   4.725   4.510   0.990  1.3791  0.3983 -0.7084
 1023TIP3   OH224627   2.088   0.906   1.285  0.1047  0.2152 -0.6396
 1023TIP3    H124628   2.112   0.922   1.376  0.7941 -0.5496 -0.6649
 1023TIP3    H224629   2.044   0.821   1.286 -0.0055  0.2632 -0.9998
 1024TIP3   OH224630   2.811   0.367   2.791  0.1072  0.1670 -0.2281
 1024TIP3    H124631   2.853   0.424   2.726  0.8587  1.1329  1.0436
 1024TIP3    H224632   2.787   0.427   2.862 -0.9090 -0.8263  0.2906
 1025TIP3   OH224633   4.055   3.156   3.059  0.1565  0.0981 -0.1214
 1025TIP3    H124634   4.003   3.093   3.108 -0.6748 -0.1186 -1.2392
 1025TIP3    H224635   4.005   3.237   3.063 -0.3069 -0.1177 -1.2251
 1026TIP3   OH224636   0.685   0.075   3.174  0.2888  0.4377  0.2211
 1026TIP3    H124637   0.681   0.169   3.189 -2.5132  0.4779 -0.3041
 1026TIP3    H224638   0.721   0.066   3.085 -0.6188  1.0908 -0.2265
 1027TIP3   OH224639   0.483   4.041   7.064 -0.2710 -0.0747 -0.3596
 1027TIP3    H124640   0.420   4.091   7.115 -0.0891 -1.5239  1.3887
 1027TIP3    H224641   0.435   4.012   6.987 -1.6463 -0.7876  0.7226
 1028TIP3   OH224642   5.766   0.374   1.276  0.3558  0.2716  0.0617
 1028TIP3    H124643   5.807   0.401   1.194 -0.9181 -1.0764 -1.0729
 1028TIP3    H224644   5.692   0.319   1.249  0.0122 -0.3615  2.1248
 1029TIP3   OH224645   6.664   3.165   1.039 -0.0395 -0.2786 -0.0841
 1029TIP3    H124646   6.631   3.089   0.992 -0.6896 -0.5544  0.7981
 1029TIP3    H224647   6.605   3.236   1.015  1.2012  0.2504 -1.7694
 1030TIP3   OH224648   5.110   0.479   2.728 -0.1204  0.0629 -0.0374
 1030TIP3    H124649   5.184   0.519   2.774  0.9777 -0.5548 -1.2064
 1030TIP3    H224650   5.041   0.545   2.733 -0.2261 -0.1296  2.8369
 1031TIP3   OH224651   2.313   0.714   7.661 -0.0237  0.2045 -0.6981
 1031TIP3    H124652   2.240   0.775   7.666 -0.5064 -0.4413  1.0657
 1031TIP3    H224653   2.291   0.654   7.589 -1.0185  0.2884 -0.4685
 1032TIP3   OH224654   3.513   4.604   0.474 -0.0772  0.5355 -0.0763
 1032TIP3    H124655   3.452   4.530   0.467  2.1989 -1.5525  0.4888
 1032TIP3    H224656   3.573   4.592   0.400  1.9832  0.0849  1.5529
 1033TIP3   OH224657   0.744   5.419   0.243 -0.3240 -0.2677 -0.3495
 1033TIP3    H124658   0.746   5.464   0.159 -2.3525  0.3839 -0.0927
 1033TIP3    H224659   0.764   5.488   0.307  1.1404 -0.7448 -0.2520
 1034TIP3   OH224660   1.164   3.316   2.593 -0.3138  0.1021  0.6664
 1034TIP3    H124661   1.245   3.278   2.558 -0.0830  0.4585  0.8005
 1034TIP3    H224662   1.127   3.248   2.649  1.0605  0.6998  2.4025
 1035TIP3   OH224663   0.831   6.198   0.841  0.2405 -0.2857 -0.4560
 1035TIP3    H124664   0.864   6.231   0.758  2.5186 -1.4909 -0.1138
 1035TIP3    H224665   0.798   6.110   0.821 -1.2767  0.2470 -0.4531
 1036TIP3   OH224666   6.442   3.279   2.195 -1.0296  0.3599 -0.4049
 1036TIP3    H124667   6.417   3.287   2.287 -1.0954  0.1743 -0.4070
 1036TIP3    H224668   6.537   3.267   2.197 -0.9891  0.6713 -0.3782
 1037TIP3   OH224669   6.759   2.433   7.923  0.6788 -0.4662  0.0261
 1037TIP3    H124670   6.837   2.430   7.869  1.2556 -2.5150  0.8556
 1037TIP3    H224671   6.689   2.458   7.864  1.8191  0.5795 -0.9171
 1038TIP3   OH224672   4.152   0.589   1.051  0.2530  0.0406 -0.0417
 1038TIP3    H124673   4.141   0.498   1.079 -1.5233  0.3867  0.5181
 1038TIP3    H224674   4.232   0.589   1.000  0.0315 -1.9541 -0.4652
 1039TIP3   OH224675   1.802   2.066   1.404  0.4269  0.3061 -0.3110
 1039TIP3    H124676   1.805   2.160   1.384  1.4886  0.1188 -1.1131
 1039TIP3    H224677   1.723   2.035   1.359  1.4368  0.3691 -2.2510
 1040TIP3   OH224678   1.003   1.475   8.451  0.7152 -0.4111  0.2388
 1040TIP3    H124679   1.044   1.389   8.465  0.3741 -0.4486  1.0657
 1040TIP3    H224680   1.075   1.532   8.425  1.2565 -0.5411  1.4005
 1041TIP3   OH224681   1.381   3.709   1.010 -0.1034 -0.5853 -0.1424
 1041TIP3    H124682   1.448   3.667   1.063  0.7168 -0.4566 -1.0542
 1041TIP3    H224683   1.331   3.762   1.072  0.0701 -1.3700  0.6890
 1042TIP3   OH224684   0.025   3.411   7.708 -0.0974  0.6360  0.3963
 1042TIP3    H124685  -0.061   3.403   7.665 -0.4927  0.4165  1.2091
 1042TIP3    H224686   0.068   3.327   7.690  0.8518  1.5288 -1.8689
 1043TIP3   OH224687   1.208   0.315   8.178  0.4584  0.1205 -0.1825
 1043TIP3    H124688   1.197   0.332   8.085  1.1060 -0.5703 -0.3938
 1043TIP3    H224689   1.169   0.228   8.191 -1.0564  0.8764  0.5025
 1044TIP3   OH224690   1.899   6.097   1.409 -0.5620  0.2091 -0.1790
 1044TIP3    H124691   1.849   6.177   1.392 -2.3852 -1.0447 -1.0280
 1044TIP3    H224692   1.851   6.053   1.479 -0.2619 -0.7029 -0.5350
 1045TIP3   OH224693   2.427   4.707   7.739  0.0948  0.2126 -0.5629
 1045TIP3    H124694   2.384   4.735   7.658  0.4179 -0.3253 -0.9271
 1045TIP3    H224695   2.498   4.650   7.710  0.4016  0.2566  0.0884
 1046TIP3   OH224696   3.749   5.141   2.705 -0.2722  0.1412  0.2607
 1046TIP3    H124697   3.716   5.229   2.686  0.1117  0.0905 -0.6925
 1046TIP3    H224698   3.829   5.157   2.756 -0.6471  0.3110  0.8119
 1047TIP3   OH224699   4.785   0.144   1.964 -0.1562 -0.1442 -0.3481
 1047TIP3    H124700   4.700   0.150   1.919 -0.0494 -0.8370 -0.6493
 1047TIP3    H224701   4.833   0.077   1.916  0.2047 -0.4364  0.4083
 1048TIP3   OH224702   4.346   2.781   2.358 -0.2062  0.1733  0.5916
 1048TIP3    H124703   4.373   2.696   2.393  0.6088 -1.2167 -2.9581
 1048TIP3    H224704   4.428   2.826   2.336 -0.6436  0.4980 -0.4492
 1049TIP3   OH224705   2.302   3.891   7.389 -0.1960  0.1248 -0.4670
 1049TIP3    H124706   2.358   3.960   7.425 -0.9929  1.2318 -1.2607
 1049TIP3    H224707   2.234   3.938   7.342 -1.1829 -1.2173 -0.4354
 1050TIP3   OH224708   0.930   3.130   8.112 -0.1304 -1.0000  0.1324
 1050TIP3    H124709   0.917   3.077   8.034  2.2954  0.1341 -1.1578
 1050TIP3    H224710   0.891   3.215   8.090 -1.2170 -1.2620  0.9663
 1051TIP3   OH224711   0.485   4.124   1.702  0.0599  0.1334 -0.0467
 1051TIP3    H124712   0.535   4.099   1.624 -0.1600 -0.2912 -0.0510
 1051TIP3    H224713   0.467   4.218   1.689  1.3568  0.4461  0.2347
 1052TIP3   OH224714   6.037   6.449   0.855  0.3555 -0.4419 -0.0478
 1052TIP3    H124715   6.032   6.374   0.915 -0.7786 -0.5434 -0.2474
 1052TIP3    H224716   6.126   6.446   0.820  0.5204 -1.3266  0.4208
 1053TIP3   OH224717   2.252   0.720   0.926 -0.9024  0.4327 -0.1441
 1053TIP3    H124718   2.279   0.629   0.940  0.0929  0.6895 -0.3180
 1053TIP3    H224719   2.210   0.719   0.840  1.9621  0.6605 -1.6999
 1054TIP3   OH224720   0.677   6.198   2.178 -0.8396  0.4904  0.0642
 1054TIP3    H124721   0.765   6.160   2.182  0.3313  2.9150 -0.4929
 1054TIP3    H224722   0.639   6.163   2.098  0.6768  1.3794 -1.0934
 1055TIP3   OH224723   3.802   4.676   1.028  0.5078 -0.0632 -0.2312
 1055TIP3    H124724   3.876   4.657   1.085  0.7624 -1.9111 -1.1045
 1055TIP3    H224725   3.820   4.764   0.993  2.2847 -0.4721 -0.4120
 1056TIP3   OH224726   3.683   5.136   1.712 -0.4741  0.2046 -0.2787
 1056TIP3    H124727   3.724   5.181   1.638 -1.7269 -0.2600 -1.3028
 1056TIP3    H224728   3.721   5.177   1.790  0.8308  0.7527 -1.1760
 1057TIP3   OH224729   5.148   4.752   1.443  0.4710 -0.4786 -0.2050
 1057TIP3    H124730   5.146   4.690   1.370  1.3897 -2.4486  1.3239
 1057TIP3    H224731   5.056   4.766   1.465  0.2294 -0.9809 -0.8474
 1058TIP3   OH224732   2.160   4.512   2.227 -0.2451  0.0156  0.1083
 1058TIP3    H124733   2.197   4.595   2.255 -0.3877  0.3867 -0.7530
 1058TIP3    H224734   2.151   4.460   2.307  0.1216  0.7178  0.6078
 1059TIP3   OH224735   2.356   0.021   1.262 -0.1425 -0.3538 -0.0989
 1059TIP3    H124736   2.263   0.040   1.254 -0.5049 -1.9171  0.2123
 1059TIP3    H224737   2.382  -0.007   1.174 -0.3013 -1.2987  0.1490
 1060TIP3   OH224738   3.112   4.692   8.209 -0.2103 -0.4353 -0.6894
 1060TIP3    H124739   3.041   4.746   8.245 -0.1645  0.1092 -1.3929
 1060TIP3    H224740   3.178   4.691   8.278 -0.4051  0.0467 -0.4884
 1061TIP3   OH224741   2.229   1.929   0.639  0.2095  0.0418 -0.5531
 1061TIP3    H124742   2.246   1.983   0.562 -0.1352 -0.7369 -1.2020
 1061TIP3    H224743   2.148   1.882   0.618 -0.9019  1.1359  1.0457
 1062TIP3   OH224744   1.916   6.685   2.615 -0.3276 -0.3875 -0.2241
 1062TIP3    H124745   1.826   6.652   2.611 -0.5766  0.1735  0.5479
 1062TIP3    H224746   1.934   6.693   2.709 -0.0803  1.1329 -0.3840
 1063TIP3   OH224747   3.996   0.262   0.828 -0.5303  0.3074 -0.6528
 1063TIP3    H124748   4.025   0.353   0.820 -3.7824  1.3848 -1.8220
 1063TIP3    H224749   4.004   0.226   0.740 -2.2516  0.5394 -0.9371
 1064TIP3   OH224750   5.884   5.196   0.847  0.1053 -0.1808 -0.2531
 1064TIP3    H124751   5.880   5.278   0.798 -0.8718  1.2096  1.9870
 1064TIP3    H224752   5.978   5.181   0.862  0.3119  0.2417 -1.1277
 1065TIP3   OH224753   1.932   5.977   0.708 -0.1384  0.6050  0.5062
 1065TIP3    H124754   1.883   5.896   0.692 -0.3180  0.6249  0.9569
 1065TIP3    H224755   1.948   5.978   0.802 -1.1516  1.6525  0.6986
 1066TIP3   OH224756   4.239   5.764   7.233  0.1279 -0.3963  0.0904
 1066TIP3    H124757   4.316   5.778   7.178  0.6607 -1.4502  0.5471
 1066TIP3    H224758   4.201   5.852   7.242  1.6052  0.2607  0.3546
 1067TIP3   OH224759   5.299   4.744   8.150  0.2833  0.3466 -0.1016
 1067TIP3    H124760   5.385   4.743   8.109  0.4960  0.6881  0.3407
 1067TIP3    H224761   5.238   4.750   8.076  0.6169 -0.2089 -0.4329
 1068TIP3   OH224762   1.174   4.450   8.231  0.2166  0.6243  0.1908
 1068TIP3    H124763   1.102   4.395   8.201 -0.4907 -0.0629  2.8598
 1068TIP3    H224764   1.131   4.529   8.265  0.6747  0.2887  1.6358
 1069TIP3   OH224765   5.316   1.051   7.351  0.0517 -0.1378 -0.4173
 1069TIP3    H124766   5.374   1.066   7.277  0.6550  1.8268  0.3864
 1069TIP3    H224767   5.263   0.975   7.325  1.5069 -0.6675 -2.0431
 1070TIP3   OH224768   2.875   2.456   0.432  0.4201  0.0132  0.2475
 1070TIP3    H124769   2.841   2.395   0.497  1.4202 -1.3693 -0.4835
 1070TIP3    H224770   2.833   2.430   0.350  0.7320  0.4177 -0.0456
 1071TIP3   OH224771   1.262   5.578   8.286  0.0612 -0.0655 -0.2808
 1071TIP3    H124772   1.297   5.554   8.372 -0.9306  0.4638  0.2938
 1071TIP3    H224773   1.229   5.496   8.250  1.7659 -0.5642 -0.8099
 1072TIP3   OH224774   4.915   2.518   8.507 -0.0155  0.4835  0.1119
 1072TIP3    H124775   4.841   2.570   8.477 -0.9203 -2.1692 -2.6346
 1072TIP3    H224776   4.991   2.557   8.464 -0.4661  0.4884 -0.6920
 1073TIP3   OH224777   3.475   4.539   0.108 -0.1363 -0.1644  0.4757
 1073TIP3    H124778   3.557   4.499   0.138 -1.2959 -2.2345  1.0875
 1073TIP3    H224779   3.488   4.555   0.015 -0.0350 -3.4197 -0.1923
 1074TIP3   OH224780   4.104   2.701   0.962 -0.0322  0.1865  0.0345
 1074TIP3    H124781   4.029   2.722   1.018  0.8749  1.8464  0.6884
 1074TIP3    H224782   4.072   2.629   0.907 -1.7345  0.0994  1.0319
 1075TIP3   OH224783   2.432   4.543   1.287  0.2557  0.3176 -0.1872
 1075TIP3    H124784   2.353   4.585   1.322  0.8193  0.0750  1.4470
 1075TIP3    H224785   2.407   4.516   1.199 -0.5397  2.9119 -0.8479
 1076TIP3   OH224786   6.611   2.007   1.242 -0.1247 -0.1042 -0.3684
 1076TIP3    H124787   6.572   1.933   1.289  2.2724 -0.9360  0.4398
 1076TIP3    H224788   6.593   2.083   1.298  0.2818 -0.6388  0.5122
 1077TIP3   OH224789   3.942   2.022   1.026 -0.7487  0.1227  0.0836
 1077TIP3    H124790   3.939   1.927   1.029  0.8370  0.0671  0.3914
 1077TIP3    H224791   4.022   2.046   1.071 -1.7525  1.6828  1.1650
 1078TIP3   OH224792   6.189   2.913   2.873 -0.2568  0.0163 -0.1599
 1078TIP3    H124793   6.166   2.999   2.837  0.9860  0.8736  0.9804
 1078TIP3    H224794   6.129   2.901   2.946  0.1467  0.3417  0.2324
 1079TIP3   OH224795   6.336   1.694   1.937 -0.3656 -0.3868  0.1894
 1079TIP3    H124796   6.354   1.627   1.871  2.8637  0.0795  0.3917
 1079TIP3    H224797   6.405   1.682   2.002 -1.0795  1.6614  1.4381
 1080TIP3   OH224798   6.568   3.295   8.013  0.1317 -0.2665  0.5871
 1080TIP3    H124799   6.528   3.281   7.927  0.7781 -1.1596  0.4233
 1080TIP3    H224800   6.503   3.261   8.075  0.8836 -2.4140  0.2848
 1081TIP3   OH224801   0.386   4.660   1.389  0.4967 -0.0020 -0.1863
 1081TIP3    H124802   0.460   4.601   1.379  1.5820  1.3297 -0.2214
 1081TIP3    H224803   0.337   4.652   1.307 -0.2786 -1.9931  0.4032
 1082TIP3   OH224804   6.476   4.649   7.590 -1.1992 -0.1506  0.1693
 1082TIP3    H124805   6.536   4.722   7.580 -0.8643 -0.3650  0.5711
 1082TIP3    H224806   6.528   4.572   7.567 -0.8962 -0.4859  1.8583
 1083TIP3   OH224807   3.011   5.121   0.525  0.3691  0.1752  0.3590
 1083TIP3    H124808   2.935   5.117   0.582  0.5080  3.0046  0.8813
 1083TIP3    H224809   3.057   5.201   0.551  1.6329  0.4052 -2.2499
 1084TIP3   OH224810   0.354   4.999   7.209  0.0678  0.5826 -0.3856
 1084TIP3    H124811   0.311   4.914   7.214  1.5381 -0.1247  1.2019
 1084TIP3    H224812   0.440   4.985   7.250  0.7771  2.5685 -1.0591
 1085TIP3   OH224813   0.295   6.644   1.232 -0.7062  0.3346  0.3479
 1085TIP3    H124814   0.276   6.598   1.150  0.2169  1.8997 -0.7974
 1085TIP3    H224815   0.385   6.620   1.253 -0.3308  1.3425 -0.0813
 1086TIP3   OH224816   6.676   4.463   8.366 -0.2337 -0.0608 -0.3888
 1086TIP3    H124817   6.769   4.453   8.343 -0.2355 -0.2231 -0.3222
 1086TIP3    H224818   6.630   4.411   8.301 -0.1887 -1.3179  0.5536
 1087TIP3   OH224819   1.539   0.823   1.448  0.0329  0.4579  0.7498
 1087TIP3    H124820   1.482   0.861   1.516  0.7400  0.9027  1.1063
 1087TIP3    H224821   1.558   0.735   1.479 -1.4501 -0.1454  0.0229
 1088TIP3   OH224822   4.443   5.569   7.348  0.9826 -0.4271 -0.0058
 1088TIP3    H124823   4.386   5.618   7.288  0.3637  0.0693  0.9692
 1088TIP3    H224824   4.475   5.635   7.410  3.0749 -0.5824 -0.8352
 1089TIP3   OH224825   5.650   3.615   8.232  0.2690 -0.3214  0.0207
 1089TIP3    H124826   5.564   3.656   8.223  0.1904 -0.1625  1.2636
 1089TIP3    H224827   5.711   3.675   8.189 -0.2642 -0.5683 -1.1015
 1090TIP3   OH224828   4.068   3.440   2.534  0.0677 -0.4116 -0.1809
 1090TIP3    H124829   4.079   3.514   2.475 -0.0551 -1.1688 -1.1934
 1090TIP3    H224830   4.157   3.407   2.548  0.2745  0.6659  1.3073
 1091TIP3   OH224831   0.240   4.891   2.737  0.0755 -0.8892  0.3447
 1091TIP3    H124832   0.222   4.810   2.690 -0.7780  0.3468 -1.6377
 1091TIP3    H224833   0.165   4.947   2.717  0.1184  0.0529  2.5231
 1092TIP3   OH224834   0.723   3.513   8.330  0.4347  0.4083  0.0270
 1092TIP3    H124835   0.631   3.533   8.312  0.7991  2.4769  0.2386
 1092TIP3    H224836   0.720   3.445   8.397 -0.9309  0.1961 -0.2236
 1093TIP3   OH224837   1.104   5.305   1.906  0.3013 -0.2910 -0.0143
 1093TIP3    H124838   1.176   5.340   1.854 -0.1261  1.3229  0.4149
 1093TIP3    H224839   1.140   5.226   1.946  2.0983  0.8348  0.7441
 1094TIP3   OH224840   0.833   1.307   1.319 -0.6086  0.1976  0.8572
 1094TIP3    H124841   0.761   1.245   1.335 -0.8203 -0.0298 -0.7641
 1094TIP3    H224842   0.794   1.393   1.336 -0.6618 -0.0225  1.9401
 1095TIP3   OH224843   2.993   5.912   0.069 -0.0154 -0.4480  0.4707
 1095TIP3    H124844   3.024   5.989   0.022  0.0985 -0.6803  0.1626
 1095TIP3    H224845   2.993   5.939   0.161 -0.6127  0.1345  0.3113
 1096TIP3   OH224846   5.221   2.369   0.105 -0.7479  0.0687 -0.1830
 1096TIP3    H124847   5.219   2.385   0.011 -0.3792 -1.0754 -0.4089
 1096TIP3    H224848   5.134   2.397   0.136 -0.6668  0.9799 -0.7544
 1097TIP3   OH224849   3.375   6.713   0.394 -0.3829 -0.0968  0.0286
 1097TIP3    H124850   3.418   6.629   0.414 -0.2888 -0.6976 -2.3960
 1097TIP3    H224851   3.405   6.772   0.463  2.0717 -1.2691  0.0921
 1098TIP3   OH224852   0.222   1.007   1.088  0.0095  0.2109 -0.3528
 1098TIP3    H124853   0.288   0.945   1.056  0.2736  0.1362  0.3185
 1098TIP3    H224854   0.203   0.977   1.177 -0.0222  0.9618 -0.1047
 1099TIP3   OH224855   5.261   5.741   1.797  0.4114  0.0378  0.3410
 1099TIP3    H124856   5.309   5.774   1.872 -1.0778  0.1810  1.2742
 1099TIP3    H224857   5.169   5.755   1.819 -0.1265 -1.4119 -0.8073
 1100TIP3   OH224858   5.577   4.877   0.018 -0.0916 -0.3735 -0.3927
 1100TIP3    H124859   5.531   4.933   0.080 -1.0835  0.3009 -1.6806
 1100TIP3    H224860   5.650   4.931  -0.013  1.1609 -1.1557  1.0533
 1101TIP3   OH224861   3.051   2.379   1.103  0.1095  0.1054  0.3723
 1101TIP3    H124862   3.136   2.406   1.137 -0.2020 -0.0319  1.2950
 1101TIP3    H224863   3.068   2.296   1.059  0.8681  1.2026 -1.4908
 1102TIP3   OH224864   1.749   5.570   1.312  0.1883  0.3657  0.1728
 1102TIP3    H124865   1.839   5.569   1.280  1.0650  1.9095  2.3937
 1102TIP3    H224866   1.700   5.615   1.244  1.2321  0.2669 -0.6759
 1103TIP3   OH224867   3.269   5.624   2.657  0.0271 -0.6286 -0.1994
 1103TIP3    H124868   3.214   5.574   2.718 -0.7121  0.2014 -0.1611
 1103TIP3    H224869   3.340   5.658   2.711  0.6527 -1.8032 -0.2685
 1104TIP3   OH224870   5.866   4.905   1.929  0.2417 -0.5382 -0.2210
 1104TIP3    H124871   5.879   4.927   2.022  1.9641  0.6365 -0.6861
 1104TIP3    H224872   5.938   4.846   1.908  0.1936 -0.3421 -0.9459
 1105TIP3   OH224873   2.163   5.387   0.422  0.0258 -0.3781  0.2424
 1105TIP3    H124874   2.172   5.434   0.505  1.5047  1.7269 -1.0190
 1105TIP3    H224875   2.252   5.382   0.388 -0.7696  0.7439 -2.2037
 1106TIP3   OH224876   5.793   2.465   1.193 -0.2076  0.1716 -0.1254
 1106TIP3    H124877   5.797   2.560   1.192 -2.0241  0.3090  1.1488
 1106TIP3    H224878   5.701   2.444   1.178 -0.1193 -1.2981  1.0981
 1107TIP3   OH224879   5.659   2.374   6.808  0.6071  0.4710  0.4978
 1107TIP3    H124880   5.631   2.444   6.748  1.1728  0.6157  0.3979
 1107TIP3    H224881   5.590   2.371   6.874 -0.2532  0.0156 -0.3930
 1108TIP3   OH224882   4.882   0.317   2.845 -0.1583 -0.4213  0.1334
 1108TIP3    H124883   4.799   0.362   2.830 -0.4176 -0.8327  0.3054
 1108TIP3    H224884   4.863   0.256   2.916  0.9607  1.2954  1.9910
 1109TIP3   OH224885   2.426   2.504   8.220  0.5691 -0.4826  0.3307
 1109TIP3    H124886   2.417   2.423   8.170 -1.2680  0.1010 -0.3588
 1109TIP3    H224887   2.370   2.567   8.175 -0.0902  0.4549  2.3178
 1110TIP3   OH224888   6.078   4.462   7.890 -0.5235 -0.0416 -0.1548
 1110TIP3    H124889   6.158   4.490   7.844  0.7242 -0.9449  1.3737
 1110TIP3    H224890   6.020   4.431   7.820  0.6740  0.1134 -1.2536
 1111TIP3   OH224891   2.490   5.058   7.951  0.3297  0.1492 -0.1084
 1111TIP3    H124892   2.505   5.140   7.999  1.4918  0.8893 -1.6330
 1111TIP3    H224893   2.577   5.033   7.920 -0.2143 -0.9717 -0.7706
 1112TIP3   OH224894   4.516   3.541   7.326 -0.0644  0.5719  0.1996
 1112TIP3    H124895   4.526   3.518   7.233 -0.7795 -0.1641  0.2959
 1112TIP3    H224896   4.577   3.482   7.371 -1.7063 -1.0294  0.4231
 1113TIP3   OH224897   5.714   3.615   1.835 -0.2421  0.5390 -0.3494
 1113TIP3    H124898   5.784   3.572   1.787 -0.4204 -0.0712 -0.0687
 1113TIP3    H224899   5.703   3.563   1.915  0.0504  1.5365  0.3621
 1114TIP3   OH224900   1.206   5.154   1.290  0.2348  0.4705 -0.0636
 1114TIP3    H124901   1.236   5.118   1.206  1.3538 -0.5359  0.7427
 1114TIP3    H224902   1.173   5.241   1.267 -2.2098 -0.8352 -2.0172
 1115TIP3   OH224903   6.845   3.858   7.117  0.3328  0.3874 -0.1661
 1115TIP3    H124904   6.755   3.844   7.086  0.4119  1.6931 -1.1049
 1115TIP3    H224905   6.879   3.771   7.136 -1.5234 -0.0648  1.3917
 1116TIP3   OH224906   3.984   4.605   0.377  0.0688  0.3529  0.3882
 1116TIP3    H124907   3.932   4.618   0.457 -0.2413 -3.2515  0.9650
 1116TIP3    H224908   4.012   4.513   0.382  2.7987  0.8998 -2.1029
 1117TIP3   OH224909   0.695   4.709   7.354 -0.1507  0.2794  0.7306
 1117TIP3    H124910   0.687   4.652   7.430  0.3345 -0.1559  0.4617
 1117TIP3    H224911   0.684   4.651   7.279  0.5310  0.4996  0.4540
 1118TIP3   OH224912   5.306   5.033   0.641 -0.1392 -0.1406  0.5494
 1118TIP3    H124913   5.292   4.974   0.567 -2.4971 -0.1844  0.9719
 1118TIP3    H224914   5.297   4.978   0.718 -1.1714  0.5174  0.9193
 1119TIP3   OH224915   6.817   5.396   2.122  0.0568  0.0473  0.0733
 1119TIP3    H124916   6.885   5.462   2.112  0.3550 -0.4381 -1.4560
 1119TIP3    H224917   6.865   5.314   2.133 -0.3071  0.0122  1.6027
 1120TIP3   OH224918   0.831   6.248   1.870  0.0827  0.1229 -0.4142
 1120TIP3    H124919   0.841   6.343   1.866 -0.9710  0.2551 -0.2798
 1120TIP3    H224920   0.772   6.234   1.945  0.8222 -0.6853  0.0286
 1121TIP3   OH224921   5.081   4.207   2.675 -0.4912  0.4626  0.0853
 1121TIP3    H124922   5.151   4.152   2.711 -0.7614 -0.1911 -0.3766
 1121TIP3    H224923   5.069   4.176   2.586  0.9809  2.8366 -1.0505
 1122TIP3   OH224924   4.879   5.152   0.208 -0.2271  0.1659 -0.0601
 1122TIP3    H124925   4.813   5.090   0.241 -0.7817  0.5197 -0.4818
 1122TIP3    H224926   4.855   5.235   0.248 -0.1573  0.3371 -0.3716
 1123TIP3   OH224927   5.591   5.445   0.790  0.2279  0.1642  0.0178
 1123TIP3    H124928   5.618   5.389   0.717 -0.9495 -1.0477  0.4541
 1123TIP3    H224929   5.506   5.481   0.763  1.5484  2.8831 -0.8112
 1124TIP3   OH224930   2.042   1.721   8.498  0.3218  0.2074  0.3294
 1124TIP3    H124931   2.122   1.712   8.549  0.4963 -1.6330 -0.1961
 1124TIP3    H224932   2.071   1.760   8.415  0.3208  1.5050  0.9252
 1125TIP3   OH224933   1.241   5.079   1.556 -0.6825  0.3188  0.1562
 1125TIP3    H124934   1.243   5.107   1.465  1.5917  0.9694  0.3404
 1125TIP3    H224935   1.322   5.113   1.594 -1.1714 -0.6175  2.2227
 1126TIP3   OH224936   5.372   6.616   2.591 -0.2220 -0.1378  0.2808
 1126TIP3    H124937   5.351   6.634   2.682 -0.7614  0.0049  0.1362
 1126TIP3    H224938   5.314   6.675   2.541  1.5555  1.3580 -0.1288
 1127TIP3   OH224939   1.737   4.394   1.776  1.0496  0.2529 -0.9414
 1127TIP3    H124940   1.751   4.300   1.785  0.5766  0.3017  0.6666
 1127TIP3    H224941   1.737   4.410   1.682  4.8745 -0.7723 -1.3082
 1128TIP3   OH224942   0.248   6.601   1.485 -0.4613 -0.4706 -0.1307
 1128TIP3    H124943   0.280   6.627   1.398  1.6801  1.3767  1.0761
 1128TIP3    H224944   0.324   6.561   1.527 -1.9840 -3.1104  0.3220
 1129TIP3   OH224945   3.582   2.972   7.955  0.5376  0.6196 -0.1476
 1129TIP3    H124946   3.541   2.938   7.876  0.3620 -0.0003  0.2032
 1129TIP3    H224947   3.522   2.948   8.026  2.3287 -2.0207  0.6486
 1130TIP3   OH224948   0.581   2.568   8.177  0.1824 -0.6595  1.1611
 1130TIP3    H124949   0.660   2.536   8.134 -0.4669 -0.7056 -0.0488
 1130TIP3    H224950   0.613   2.616   8.253  1.3378 -1.2114  1.0454
 1131TIP3   OH224951   3.790   0.997   6.779 -0.0381 -0.1840  0.4402
 1131TIP3    H124952   3.861   1.004   6.715 -0.5462  0.6011 -0.0448
 1131TIP3    H224953   3.795   1.077   6.830 -0.7207 -0.0015  0.2384
 1132TIP3   OH224954   4.301   0.037   1.795 -0.0012 -0.0397  0.0934
 1132TIP3    H124955   4.302   0.001   1.884  1.0807 -0.2617  0.0095
 1132TIP3    H224956   4.208   0.046   1.774 -0.2802 -0.6493  0.9803
 1133TIP3   OH224957   2.701   3.785   3.086  0.1815 -0.0492  0.0245
 1133TIP3    H124958   2.659   3.719   3.141  2.5436  0.7235  2.9920
 1133TIP3    H224959   2.792   3.787   3.117  0.8531  2.7131 -1.8190
 1134TIP3   OH224960   2.776   5.028   1.866  0.5208 -0.2094  0.1533
 1134TIP3    H124961   2.872   5.034   1.862  0.4247  1.0667 -1.0746
 1134TIP3    H224962   2.751   5.090   1.934  0.6094 -1.5652  1.4741
 1135TIP3   OH224963   2.347   5.519   1.522  0.0129  0.2294  0.7783
 1135TIP3    H124964   2.341   5.560   1.435 -0.5087 -0.6864  0.3729
 1135TIP3    H224965   2.409   5.447   1.511  0.3244  0.4141  1.2934
 1136TIP3   OH224966   1.836   2.082   8.531 -0.4556  0.0378 -0.2803
 1136TIP3    H124967   1.760   2.129   8.498  0.0110  0.5324 -0.6591
 1136TIP3    H224968   1.902   2.091   8.462  0.4098  0.7705  0.6099
 1137TIP3   OH224969   5.526   3.435   8.049  0.0387 -0.0834 -0.0004
 1137TIP3    H124970   5.545   3.364   8.110 -1.0266 -0.2065  0.1946
 1137TIP3    H224971   5.593   3.501   8.068 -1.5356  0.8565  2.8516
 1138TIP3   OH224972   5.760   1.832   1.223  0.1082 -0.0241  0.2254
 1138TIP3    H124973   5.795   1.746   1.248 -0.9733 -1.0332 -1.5133
 1138TIP3    H224974   5.815   1.860   1.150 -2.1125 -1.3075 -2.0748
 1139TIP3   OH224975   3.756   6.578   0.603  0.1717  0.4499 -0.1079
 1139TIP3    H124976   3.847   6.575   0.633  0.0944  2.8765  0.5456
 1139TIP3    H224977   3.743   6.669   0.577 -1.5944 -0.2285 -1.8216
 1140TIP3   OH224978   4.439   0.285   8.326 -0.0122 -0.7828 -0.0204
 1140TIP3    H124979   4.437   0.336   8.407 -1.1575  0.9273 -1.0555
 1140TIP3    H224980   4.388   0.206   8.345 -0.1146 -0.4893  0.9695
 1141TIP3   OH224981   0.974   2.946   8.350 -0.2546  0.6864  0.4532
 1141TIP3    H124982   0.911   3.003   8.305 -0.3800  0.6530  0.5881
 1141TIP3    H224983   1.016   2.897   8.279 -0.9544  0.1196  0.4259
 1142TIP3   OH224984   1.744   3.592   2.050 -0.0945 -0.0465 -0.6912
 1142TIP3    H124985   1.793   3.658   2.001 -1.1383  1.2239 -0.0801
 1142TIP3    H224986   1.772   3.605   2.141 -0.9097  0.1150 -0.4584
 1143TIP3   OH224987   2.920   4.349   0.760  0.4042 -0.2245 -0.2475
 1143TIP3    H124988   2.853   4.355   0.829  0.3864  0.6901 -0.3345
 1143TIP3    H224989   2.950   4.439   0.748  1.7904 -0.6448 -0.0954
 1144TIP3   OH224990   6.759   2.363   2.326  0.0722  0.2486  0.2383
 1144TIP3    H124991   6.799   2.403   2.249  1.6460  0.7867  1.2882
 1144TIP3    H224992   6.775   2.425   2.397 -1.6919 -0.0440  0.9419
 1145TIP3   OH224993   3.971   3.811   8.407  0.0111  0.1977 -0.2885
 1145TIP3    H124994   4.023   3.739   8.371 -0.3801 -0.1498 -0.1673
 1145TIP3    H224995   3.972   3.796   8.502 -0.2816  0.2099 -0.2835
 1146TIP3   OH224996   6.613   6.240   0.989  0.3883  0.2349  0.2045
 1146TIP3    H124997   6.608   6.305   1.059 -0.2399  0.1446  0.2544
 1146TIP3    H224998   6.699   6.253   0.949  0.2113  1.2013  0.1121
 1147TIP3   OH224999   2.126   2.142   1.576 -0.0128 -0.2162  0.4010
 1147TIP3    H125000   2.060   2.192   1.625  0.8291  1.6894 -0.3067
 1147TIP3    H225001   2.084   2.058   1.558 -2.5262  1.1290 -0.5500
 1148TIP3   OH225002   0.975   5.155   7.882 -0.5304 -0.1604  0.3807
 1148TIP3    H125003   0.883   5.145   7.904 -0.5501 -1.8742 -0.3850
 1148TIP3    H225004   0.984   5.117   7.795  0.7768  0.6079  0.1496
 1149TIP3   OH225005   4.534   4.344   2.899  0.2014 -0.4228 -0.3682
 1149TIP3    H125006   4.612   4.300   2.932 -0.2407 -0.2904  0.9111
 1149TIP3    H225007   4.565   4.431   2.875  0.4072 -0.2460  0.4807
 1150TIP3   OH225008   4.402   1.771   2.495 -0.0236 -0.5442  0.1584
 1150TIP3    H125009   4.448   1.750   2.414  1.3953  0.6782  0.6092
 1150TIP3    H225010   4.309   1.771   2.471  0.3807 -0.2124 -1.4470
 1151TIP3   OH225011   0.347   6.762   0.364  0.4075  0.3310  0.6427
 1151TIP3    H125012   0.265   6.806   0.385 -0.6194  0.4242 -2.9289
 1151TIP3    H225013   0.321   6.676   0.332  1.7079  0.2617 -0.3139
 1152TIP3   OH225014   1.261   2.500   0.590  0.1933 -0.3060  0.2129
 1152TIP3    H125015   1.171   2.472   0.570 -0.2310  0.3942  1.0678
 1152TIP3    H225016   1.251   2.560   0.663  1.2809  0.5126 -0.2915
 1153TIP3   OH225017   4.118   4.276   2.113  0.3731  0.7102  0.0834
 1153TIP3    H125018   4.178   4.282   2.188  0.2012  0.6092  0.2292
 1153TIP3    H225019   4.167   4.315   2.041  0.1592  1.7105  0.4744
 1154TIP3   OH225020   5.397   3.691   0.662 -0.8847 -0.8564  0.4352
 1154TIP3    H125021   5.307   3.662   0.646 -1.9966  1.8312  1.3801
 1154TIP3    H225022   5.412   3.671   0.755 -1.9330  2.0203  1.3041
 1155TIP3   OH225023   5.848   3.159   7.176 -0.2126 -0.0647 -0.1454
 1155TIP3    H125024   5.805   3.143   7.092 -1.2966 -0.6423  0.4931
 1155TIP3    H225025   5.797   3.228   7.217 -0.7668 -0.9782  0.7623
 1156TIP3   OH225026   1.971   2.328   7.837 -0.1344 -0.1542  0.3727
 1156TIP3    H125027   1.895   2.286   7.797 -0.9566  1.1653  0.4627
 1156TIP3    H225028   1.952   2.327   7.931  0.9636 -1.6855  0.5980
 1157TIP3   OH225029   3.988   3.997   0.124  0.2398 -0.2058 -0.3682
 1157TIP3    H125030   3.934   3.953   0.191 -0.7080  0.9301 -0.3496
 1157TIP3    H225031   3.924   4.041   0.068  1.1375  2.2370  0.3826
 1158TIP3   OH225032   4.820   1.272   7.872  0.5566 -0.2607  0.5372
 1158TIP3    H125033   4.749   1.215   7.902  0.1522 -0.7833 -1.2818
 1158TIP3    H225034   4.779   1.357   7.859  0.6703 -0.1053  1.1746
 1159TIP3   OH225035   1.517   0.172   0.765 -0.6289  0.3822  0.2441
 1159TIP3    H125036   1.574   0.203   0.836  1.1958 -1.0983 -0.4783
 1159TIP3    H225037   1.444   0.129   0.810 -0.1587  0.5820  1.2221
 1160TIP3   OH225038   0.045   5.649   1.749  0.2013  0.6342 -0.4919
 1160TIP3    H125039   0.014   5.566   1.712 -0.5477  1.3034 -1.4142
 1160TIP3    H225040  -0.021   5.713   1.724 -0.0428  1.2448  1.5740
 1161TIP3   OH225041   4.364   3.082   0.420 -0.4816 -0.2107  0.2177
 1161TIP3    H125042   4.329   3.170   0.408  2.1799  1.0080  0.6125
 1161TIP3    H225043   4.414   3.064   0.340 -0.4429 -1.0790  0.4225
 1162TIP3   OH225044   6.469   1.976   0.692  0.1432 -0.6297  0.5177
 1162TIP3    H125045   6.485   2.033   0.767 -0.5081  0.0354  0.1649
 1162TIP3    H225046   6.415   2.028   0.633  2.2750 -0.3793 -1.3661
 1163TIP3   OH225047   3.640   1.725   1.643  0.2075  0.4109 -0.1168
 1163TIP3    H125048   3.555   1.744   1.603 -0.7782  0.0489  1.7047
 1163TIP3    H225049   3.686   1.809   1.641 -0.3340  0.7029 -0.8052
 1164TIP3   OH225050   0.971   4.353   8.085  0.3853 -0.0169 -0.1994
 1164TIP3    H125051   0.963   4.267   8.044 -2.1564 -1.4329  2.8295
 1164TIP3    H225052   0.926   4.413   8.026  0.9187 -1.0156 -1.6523
 1165TIP3   OH225053   0.553   4.376   2.732 -0.7067  0.8094  0.3202
 1165TIP3    H125054   0.503   4.384   2.813 -2.0585  2.4467 -0.6219
 1165TIP3    H225055   0.580   4.465   2.712  0.6141  0.2644 -0.4488
 1166TIP3   OH225056   0.097   2.574   7.324  0.0750 -0.3453 -0.1432
 1166TIP3    H125057   0.104   2.647   7.386 -0.9772  0.9072 -1.4272
 1166TIP3    H225058   0.187   2.563   7.291  0.3258  0.0930  0.3733
 1167TIP3   OH225059   4.980   4.954   0.467  0.3755  0.0942  0.0986
 1167TIP3    H125060   4.957   5.022   0.403 -0.1938 -1.2418 -1.1772
 1167TIP3    H225061   4.993   4.876   0.414  0.0940 -1.0170  1.6165
 1168TIP3   OH225062   6.052   2.205   8.017 -0.1484  0.8835  0.4323
 1168TIP3    H125063   6.035   2.269   7.948 -0.8276  1.4435  1.1045
 1168TIP3    H225064   5.973   2.151   8.020  0.1979  0.3589  0.2440
 1169TIP3   OH225065   2.130   2.199   8.621 -0.3918  0.0668 -0.0138
 1169TIP3    H125066   2.086   2.117   8.599 -0.3130 -0.1282  0.5525
 1169TIP3    H225067   2.222   2.183   8.601 -0.3715  0.0049  0.1284
 1170TIP3   OH225068   1.095   0.793   8.306 -0.2319  0.2732  0.5690
 1170TIP3    H125069   1.058   0.733   8.370 -1.2725 -0.4549 -0.6695
 1170TIP3    H225070   1.106   0.740   8.227 -1.0930  1.6853 -0.5325
 1171TIP3   OH225071   1.694   6.717   0.732  0.0044 -0.0739  0.0539
 1171TIP3    H125072   1.681   6.641   0.674  0.8122 -0.8274  0.8226
 1171TIP3    H225073   1.607   6.756   0.740 -0.2633 -0.3977 -1.0549
 1172TIP3   OH225074   2.106   0.297   7.033  0.3259 -0.2987 -0.0198
 1172TIP3    H125075   2.166   0.271   6.964  0.7807  0.3753  0.1085
 1172TIP3    H225076   2.092   0.391   7.018 -1.5854 -0.6636 -0.7176
 1173TIP3   OH225077   5.296   0.597   7.987 -0.0241 -0.2896  0.4824
 1173TIP3    H125078   5.342   0.656   7.928 -0.8466 -1.0944 -1.0476
 1173TIP3    H225079   5.216   0.644   8.011 -0.0209 -0.2278  0.3722
 1174TIP3   OH225080   6.284   0.895   2.023  0.5861  0.0821 -0.1234
 1174TIP3    H125081   6.329   0.811   2.022 -1.6084 -1.1860 -0.6246
 1174TIP3    H225082   6.293   0.926   2.113 -0.8892 -2.1342  0.8962
 1175TIP3   OH225083   3.485   0.731   8.539 -0.0410 -0.6825 -0.2297
 1175TIP3    H125084   3.527   0.730   8.626 -0.4800 -3.6301  0.0717
 1175TIP3    H225085   3.498   0.642   8.506  1.8650  0.8255 -4.1618
 1176TIP3   OH225086   5.044   3.584   1.003 -0.0342 -0.3688 -0.4005
 1176TIP3    H125087   5.127   3.541   1.023  0.6589  1.3299  0.6172
 1176TIP3    H225088   4.981   3.540   1.060  0.5092 -0.5329  0.0876
 1177TIP3   OH225089   3.789   3.782   1.376 -0.2776  0.1726 -0.0209
 1177TIP3    H125090   3.823   3.794   1.287  0.1513  0.5890  0.1957
 1177TIP3    H225091   3.820   3.859   1.424 -1.5402  0.5689  0.1848
 1178TIP3   OH225092   1.969   2.259   1.776 -0.0408 -0.9198 -0.3050
 1178TIP3    H125093   1.978   2.253   1.871 -0.3280 -3.4924 -0.3620
 1178TIP3    H225094   1.907   2.190   1.754  0.4606 -0.7575 -2.4360
 1179TIP3   OH225095   1.617   5.785   1.781 -0.6195  0.5488  0.2272
 1179TIP3    H125096   1.544   5.774   1.720 -0.6640 -0.9494  0.5161
 1179TIP3    H225097   1.575   5.816   1.862 -0.8814  0.1035  0.2632
 1180TIP3   OH225098   1.153   5.398   1.138 -0.2359 -0.2310 -0.1751
 1180TIP3    H125099   1.184   5.420   1.050  0.2605  0.6714  0.2181
 1180TIP3    H225100   1.062   5.427   1.139  0.0545  0.7120 -0.0690
 1181TIP3   OH225101   5.423   3.807   1.492 -0.5859  0.1977  0.5188
 1181TIP3    H125102   5.435   3.895   1.457  1.2185 -0.3899 -0.5195
 1181TIP3    H225103   5.334   3.805   1.524  0.0510  3.1732  2.8703
 1182TIP3   OH225104   6.075   1.419   7.816 -0.2593 -0.2872  0.2296
 1182TIP3    H125105   6.042   1.453   7.733 -0.5307 -0.4554  0.2681
 1182TIP3    H225106   6.084   1.496   7.872  1.1515  0.0184 -0.3592
 1183TIP3   OH225107   3.645   1.650   8.259  0.2274  0.4557 -0.3436
 1183TIP3    H125108   3.650   1.685   8.348 -0.5804 -2.1849  0.8529
 1183TIP3    H225109   3.560   1.678   8.226 -0.3424 -0.1899  0.5298
 1184TIP3   OH225110   4.296   0.293   0.009  0.4608 -0.2053  0.3769
 1184TIP3    H125111   4.286   0.201   0.034  0.8320 -0.4320 -0.2941
 1184TIP3    H225112   4.293   0.341   0.092 -1.2948 -0.6665  0.6190
 1185TIP3   OH225113   4.962   6.698   1.190  0.5030  0.6182  0.8182
 1185TIP3    H125114   5.030   6.707   1.257  0.4651  2.3377  0.6756
 1185TIP3    H225115   4.931   6.787   1.176 -2.5588 -0.1862  1.6661
 1186TIP3   OH225116   3.418   1.118   1.406  0.3124  0.0418  0.0723
 1186TIP3    H125117   3.486   1.069   1.451  0.2890 -0.2979 -0.2549
 1186TIP3    H225118   3.449   1.209   1.407  2.2546 -0.4789 -2.6460
 1187TIP3   OH225119   4.595   2.990   8.545  0.3890  0.0170 -0.1692
 1187TIP3    H125120   4.611   2.927   8.616  1.6156  0.9145  0.3787
 1187TIP3    H225121   4.660   3.059   8.559 -0.5618  1.1359 -1.0950
 1188TIP3   OH225122   1.224   0.303   7.239 -0.0825 -0.1766  0.3461
 1188TIP3    H125123   1.307   0.260   7.218 -0.9684 -1.7967 -0.0000
 1188TIP3    H225124   1.184   0.321   7.154 -0.4851 -0.2403  0.5161
 1189TIP3   OH225125   0.029   6.642   8.507  0.2536  0.2974 -0.4831
 1189TIP3    H125126  -0.062   6.616   8.489  0.2030  1.1800 -1.5989
 1189TIP3    H225127   0.080   6.601   8.437  0.5851  0.6255 -0.4324
 1190TIP3   OH225128   0.954   0.431   1.350 -0.1674 -0.3084  0.2517
 1190TIP3    H125129   0.971   0.497   1.418 -0.5367  1.8285 -1.6271
 1190TIP3    H225130   0.859   0.428   1.344 -0.1633 -1.4085  0.6618
 1191TIP3   OH225131   5.365   6.165   1.430 -0.1284  0.2448  0.3094
 1191TIP3    H125132   5.323   6.251   1.428 -0.1893  0.2013 -0.7285
 1191TIP3    H225133   5.420   6.167   1.509  2.5473  2.5169 -1.4382
 1192TIP3   OH225134   6.775   2.920   2.316  0.1619  0.1833 -0.1556
 1192TIP3    H125135   6.802   2.842   2.363  1.4879  0.5754 -0.2356
 1192TIP3    H225136   6.759   2.986   2.384 -2.4407 -0.5186  0.0381
 1193TIP3   OH225137   4.267   0.977   0.781  0.1485 -0.0932 -0.4461
 1193TIP3    H125138   4.203   1.011   0.844  0.4860 -0.5203  0.1383
 1193TIP3    H225139   4.288   1.052   0.726  0.2858  0.4423  0.3250
 1194TIP3   OH225140   5.035   5.691   1.942 -0.2668  0.0927 -1.1885
 1194TIP3    H125141   5.063   5.607   1.978 -0.0586 -0.7382 -3.1621
 1194TIP3    H225142   4.944   5.701   1.970 -0.1032 -0.4871 -0.4288
 1195TIP3   OH225143   0.761   0.363   1.704 -0.9676  0.4896 -0.6382
 1195TIP3    H125144   0.736   0.455   1.710 -0.0957  0.6872  0.3281
 1195TIP3    H225145   0.857   0.364   1.702 -0.9530 -0.3467 -1.8588
 1196TIP3   OH225146   4.820   4.034   2.144 -0.2708 -0.4758  0.6284
 1196TIP3    H125147   4.876   4.107   2.167  1.4244 -1.6783  0.5223
 1196TIP3    H225148   4.845   3.964   2.205 -0.5551 -1.5266 -0.4175
 1197TIP3   OH225149   1.087   6.734   0.425 -0.6885 -0.2929  0.0579
 1197TIP3    H125150   1.159   6.781   0.383 -0.6834  0.3299  0.7627
 1197TIP3    H225151   1.014   6.796   0.424 -0.3489  0.1823  2.0473
 1198TIP3   OH225152   2.116   3.144   0.988 -0.3002  0.1131  0.2121
 1198TIP3    H125153   2.139   3.123   1.079 -0.1568  0.8016  0.3459
 1198TIP3    H225154   2.034   3.098   0.973  0.0390 -0.5991  0.4515
 1199TIP3   OH225155   0.827   6.136   8.466 -0.0097  0.0888  0.2903
 1199TIP3    H125156   0.911   6.178   8.486  0.8989 -2.5909  2.6803
 1199TIP3    H225157   0.778   6.203   8.419  3.5467  1.6895 -1.5824
 1200TIP3   OH225158   2.145   4.730   1.076 -0.0002  0.0230  0.1737
 1200TIP3    H125159   2.166   4.692   0.991 -0.4748  0.5943 -0.2087
 1200TIP3    H225160   2.123   4.821   1.057  0.3599  0.2827  0.9741
 1201TIP3   OH225161   3.620   3.090   0.796  0.2645 -0.4930  0.0849
 1201TIP3    H125162   3.648   3.117   0.883  0.6352 -1.3442  0.2447
 1201TIP3    H225163   3.649   2.999   0.789 -2.1979 -1.3549  0.1402
 1202TIP3   OH225164   2.384   4.935   8.676  0.0149  0.4486 -0.2991
 1202TIP3    H125165   2.479   4.931   8.690 -0.0103 -2.0734 -0.3810
 1202TIP3    H225166   2.347   4.933   8.764  0.0258 -0.6891 -0.3141
 1203TIP3   OH225167   6.221   1.569   2.276  0.1537 -0.4437 -0.3222
 1203TIP3    H125168   6.220   1.633   2.348 -0.8934 -0.0689 -0.6611
 1203TIP3    H225169   6.257   1.490   2.316 -1.8489 -0.7393  1.0840
 1204TIP3   OH225170   5.129   0.584   3.081  0.1114  0.5325 -0.0721
 1204TIP3    H125171   5.184   0.562   3.006 -1.3431 -0.3153 -0.9153
 1204TIP3    H225172   5.157   0.673   3.106  1.7752  0.1653 -0.5232
 1205TIP3   OH225173   4.977   4.252   2.238  0.2463 -0.5891  0.4651
 1205TIP3    H125174   5.047   4.275   2.177  0.5779  0.0605  1.0692
 1205TIP3    H225175   4.953   4.336   2.280 -0.8316 -0.8100  0.3285
 1206TIP3   OH225176   6.776   0.654   0.281 -0.2969 -0.0469  0.0823
 1206TIP3    H125177   6.710   0.587   0.266 -0.6814 -0.0416  1.6563
 1206TIP3    H225178   6.859   0.610   0.262 -0.3462 -1.7290  3.1800
 1207TIP3   OH225179   2.803   2.216   2.367 -0.8684 -0.2801  0.1648
 1207TIP3    H125180   2.709   2.206   2.386 -0.4907 -1.3013  1.6981
 1207TIP3    H225181   2.845   2.149   2.420  0.6809 -0.5126 -1.2809
 1208TIP3   OH225182   4.287   3.610   0.178  0.5932  0.5614 -0.1790
 1208TIP3    H125183   4.325   3.572   0.098 -0.8238  0.1784 -0.6935
 1208TIP3    H225184   4.205   3.562   0.191  0.4323  1.1451  1.0906
 1209TIP3   OH225185   4.743   6.258   2.046 -0.4097  0.3067  0.1205
 1209TIP3    H125186   4.764   6.257   2.139 -0.0674  1.9169  0.0878
 1209TIP3    H225187   4.649   6.241   2.043 -0.0192 -2.3618  0.5544
 1210TIP3   OH225188   1.775   3.529   7.146  0.8557  0.1690 -0.5203
 1210TIP3    H125189   1.847   3.583   7.179  0.7478 -0.0932  0.1621
 1210TIP3    H225190   1.697   3.566   7.187  0.4725  1.0270 -1.9652
 1211TIP3   OH225191   3.422   3.305   1.109  0.1322  0.3824 -0.2202
 1211TIP3    H125192   3.351   3.242   1.096  0.5225 -0.1768  0.2738
 1211TIP3    H225193   3.384   3.373   1.163  0.0616 -0.0952  0.3424
 1212TIP3   OH225194   4.152   5.095   0.465  0.0502 -0.1170  0.6934
 1212TIP3    H125195   4.088   5.047   0.518 -1.0366  1.3899  0.8470
 1212TIP3    H225196   4.213   5.132   0.529  0.0529 -0.1520  0.7107
 1213TIP3   OH225197   5.913   0.907   0.692  0.1770 -0.2867 -0.8965
 1213TIP3    H125198   5.869   0.846   0.751  0.9745 -0.9445 -0.9595
 1213TIP3    H225199   5.886   0.879   0.605  2.1851 -1.9595 -1.0638
 1214TIP3   OH225200   0.371   5.489   7.552  0.4057 -0.0789  0.8047
 1214TIP3    H125201   0.445   5.430   7.539 -0.4672 -0.7681 -1.5539
 1214TIP3    H225202   0.374   5.549   7.477 -0.5031  0.9084  1.5287
 1215TIP3   OH225203   6.728   1.024   1.263  0.8747  0.1771 -0.1678
 1215TIP3    H125204   6.665   1.058   1.199  1.6844  0.1501 -1.0070
 1215TIP3    H225205   6.698   1.059   1.347 -0.2774  0.1216 -0.5360
 1216TIP3   OH225206   3.870   5.987   1.514 -0.2004 -0.1079  0.5194
 1216TIP3    H125207   3.923   5.911   1.492  0.4497  0.6903 -0.8285
 1216TIP3    H225208   3.905   6.057   1.459 -1.5695  0.8647  0.8380
 1217TIP3   OH225209   6.666   0.689   1.086 -0.2302 -0.2867 -0.0503
 1217TIP3    H125210   6.727   0.662   1.017  0.0570  0.3510 -0.0613
 1217TIP3    H225211   6.676   0.785   1.090 -0.9070 -0.2217  0.2559
 1218TIP3   OH225212   1.733   3.640   7.653  0.3507  0.0949 -0.3358
 1218TIP3    H125213   1.669   3.579   7.689 -0.1439  0.2646 -0.9100
 1218TIP3    H225214   1.807   3.584   7.627  0.0911 -0.2021 -0.4431
 1219TIP3   OH225215   3.132   3.823   8.562  0.9951 -0.1252 -0.3052
 1219TIP3    H125216   3.077   3.762   8.512 -0.0082  2.0748 -2.0973
 1219TIP3    H225217   3.095   3.822   8.650  0.7268 -1.7332 -0.4085
 1220TIP3   OH225218   2.736   0.543   1.176 -0.2733 -0.5484 -0.2353
 1220TIP3    H125219   2.817   0.505   1.142  0.3678 -0.1703  0.8181
 1220TIP3    H225220   2.722   0.499   1.260 -0.3749  0.3817  0.2515
 1221TIP3   OH225221   1.818   3.646   0.269  0.0306  0.5628 -0.1109
 1221TIP3    H125222   1.911   3.646   0.292 -0.3375 -0.6361  1.6391
 1221TIP3    H225223   1.805   3.562   0.224 -0.1621  0.8066 -0.5088
 1222TIP3   OH225224   2.025   1.102   1.812  0.1811  0.4759 -0.1681
 1222TIP3    H125225   2.083   1.147   1.750  2.4875 -1.8196  0.1891
 1222TIP3    H225226   2.043   1.144   1.896  0.5767  0.4429 -0.2345
 1223TIP3   OH225227   4.300   3.991   7.237 -0.1675  0.1994  0.1973
 1223TIP3    H125228   4.355   3.937   7.294 -0.4937 -1.8773 -1.3398
 1223TIP3    H225229   4.349   3.998   7.156 -1.1631  0.1842 -0.4324
 1224TIP3   OH225230   4.604   1.734   8.726  0.2641 -0.5731  0.2501
 1224TIP3    H125231   4.509   1.737   8.741  0.2702 -2.2507  0.8087
 1224TIP3    H225232   4.621   1.806   8.665 -1.3971 -0.3814 -0.0258
 1225TIP3   OH225233   4.163   2.735   1.257  0.1423  0.1698 -0.4611
 1225TIP3    H125234   4.126   2.822   1.239  1.2453  0.8385  0.3594
 1225TIP3    H225235   4.164   2.691   1.172 -0.8824  0.7765 -0.8035
 1226TIP3   OH225236   6.424   4.557   0.179  0.7343 -0.3544 -0.2113
 1226TIP3    H125237   6.500   4.604   0.213  1.0313 -0.8225 -0.2235
 1226TIP3    H225238   6.461   4.481   0.134  0.4122  0.7164 -2.4143
 1227TIP3   OH225239   5.350   1.093   1.825 -0.1118  0.6349  0.3532
 1227TIP3    H125240   5.425   1.123   1.775  0.4731  0.5940  1.1904
 1227TIP3    H225241   5.378   1.009   1.863 -0.5395  0.6661  0.7498
 1228TIP3   OH225242   1.072   0.473   1.101 -0.0828  0.5600 -0.1110
 1228TIP3    H125243   1.011   0.478   1.175 -0.3195 -0.8895 -0.1740
 1228TIP3    H225244   1.148   0.524   1.129 -0.7762  1.2812  0.5130
 1229TIP3   OH225245   2.293   0.735   8.543 -0.2644 -0.7120 -0.2466
 1229TIP3    H125246   2.376   0.730   8.497 -0.9720 -1.5348 -1.5222
 1229TIP3    H225247   2.306   0.683   8.622  0.3430 -1.1260 -0.6090
 1230TIP3   OH225248   2.853   2.479   2.394 -0.1497  0.0659  0.2620
 1230TIP3    H125249   2.831   2.386   2.392  1.2528 -0.2776 -0.0152
 1230TIP3    H225250   2.910   2.489   2.471  1.1212  0.3397 -0.6851
 1231TIP3   OH225251   4.311   0.930   2.615  0.2070  0.0364 -0.2886
 1231TIP3    H125252   4.264   0.951   2.696  0.6879 -0.3990  0.1177
 1231TIP3    H225253   4.355   1.012   2.592  0.3814  0.0664  0.1214
 1232TIP3   OH225254   6.259   0.176   0.407  0.2231  0.2198 -0.4049
 1232TIP3    H125255   6.340   0.221   0.428  1.4917 -2.2150  0.2706
 1232TIP3    H225256   6.208   0.179   0.488  1.6202 -2.0530  0.6723
 1233TIP3   OH225257   3.399   1.976   7.774  0.0904 -0.3004  0.6509
 1233TIP3    H125258   3.340   2.045   7.804  0.4572  0.3841 -0.1670
 1233TIP3    H225259   3.484   2.020   7.764  0.3899 -0.9327  0.3848
 1234TIP3   OH225260   2.948   1.299   2.944 -0.0397  0.5975  0.5380
 1234TIP3    H125261   3.028   1.321   2.897  1.1360 -0.7642  1.8089
 1234TIP3    H225262   2.928   1.377   2.995  0.3611  1.0084  0.0773
 1235TIP3   OH225263   2.232   5.332   8.229  0.0564  0.3926 -0.3119
 1235TIP3    H125264   2.305   5.321   8.290  1.1353 -1.7326 -1.8707
 1235TIP3    H225265   2.273   5.336   8.142 -1.4849  2.4929 -1.0277
 1236TIP3   OH225266   0.849   1.406   0.124  0.4794 -0.3638 -0.1678
 1236TIP3    H125267   0.878   1.337   0.183  1.6835  1.7993  1.9471
 1236TIP3    H225268   0.929   1.455   0.104 -0.4871  1.0587 -0.7142
 1237TIP3   OH225269   0.493   5.274   0.555 -0.2196 -0.7784  0.5630
 1237TIP3    H125270   0.431   5.204   0.577 -1.0313 -0.1447  0.3418
 1237TIP3    H225271   0.544   5.288   0.635 -1.4083 -0.2466  1.2450
 1238TIP3   OH225272   3.240   5.708   2.132  0.3287 -0.4532  0.0289
 1238TIP3    H125273   3.304   5.702   2.203  1.3797  0.0851 -0.8397
 1238TIP3    H225274   3.283   5.763   2.066 -1.3544  0.5878 -0.2441
 1239TIP3   OH225275   0.095   4.850   7.506  0.1516 -0.4292  0.2906
 1239TIP3    H125276   0.083   4.937   7.542  0.0356  0.6992 -2.2305
 1239TIP3    H225277   0.010   4.807   7.518 -0.6974  0.8383 -0.8946
 1240TIP3   OH225278   5.388   1.303   8.560  0.1211 -0.2418  0.4709
 1240TIP3    H125279   5.418   1.383   8.515  1.4670 -1.1284 -0.2834
 1240TIP3    H225280   5.293   1.306   8.553  0.2054  0.6845 -0.6654
 1241TIP3   OH225281   4.063   3.285   1.464 -0.0921  0.5391  0.5737
 1241TIP3    H125282   4.150   3.279   1.425 -1.1200 -0.7768 -1.7013
 1241TIP3    H225283   4.038   3.377   1.453  1.1756  1.0725  1.7831
 1242TIP3   OH225284   1.950   6.642   2.067 -0.6390 -0.0090 -0.1986
 1242TIP3    H125285   1.966   6.642   2.161 -1.0676 -0.0836 -0.1235
 1242TIP3    H225286   1.904   6.560   2.049  0.7572 -0.7027 -0.7149
 1243TIP3   OH225287   2.026   4.509   8.221  0.5070 -0.2867 -0.3016
 1243TIP3    H125288   1.943   4.465   8.237  1.3474 -1.6172  0.5853
 1243TIP3    H225289   2.010   4.564   8.144 -1.2575 -0.2794  0.0299
 1244TIP3   OH225290   3.784   3.143   2.882  0.5399  0.2365  0.4122
 1244TIP3    H125291   3.768   3.142   2.976  2.4060  1.5737  0.8048
 1244TIP3    H225292   3.852   3.211   2.870 -0.8876  1.3590 -2.0928
 1245TIP3   OH225293   5.304   0.907   7.015  0.7567  0.3503 -0.2480
 1245TIP3    H125294   5.355   0.984   7.039 -0.1684  0.8956  0.0250
 1245TIP3    H225295   5.230   0.907   7.076  0.1952 -0.1729 -0.9160
 1246TIP3   OH225296   5.911   6.253   7.836 -0.4853  0.0040  0.3199
 1246TIP3    H125297   5.852   6.329   7.836 -1.2294 -0.5133  2.6298
 1246TIP3    H225298   5.868   6.189   7.893  1.1938 -1.3139  0.1709
 1247TIP3   OH225299   1.720   4.426   1.511 -0.4935  0.3876  0.2377
 1247TIP3    H125300   1.638   4.442   1.465 -0.7149  0.2667  0.5847
 1247TIP3    H225301   1.788   4.436   1.444 -0.7023  1.5784  0.1798
 1248TIP3   OH225302   0.069   5.429   8.513 -0.3828  0.0898 -0.0334
 1248TIP3    H125303   0.015   5.499   8.549 -0.4239  0.6332 -1.1210
 1248TIP3    H225304   0.094   5.377   8.589 -1.4681  0.4971  0.6294
 1249TIP3   OH225305   1.509   4.050   0.910  0.1679  0.0969 -0.3913
 1249TIP3    H125306   1.517   4.120   0.845 -0.1910 -1.2935 -1.9925
 1249TIP3    H225307   1.427   4.069   0.956 -0.5656  0.0742 -1.6459
 1250TIP3   OH225308   2.248   1.872   7.190  0.2407  0.6154  0.1746
 1250TIP3    H125309   2.247   1.797   7.131 -2.0981 -1.6780  2.8456
 1250TIP3    H225310   2.180   1.930   7.157 -0.0033  0.1097 -0.2145
 1251TIP3   OH225311   3.292   0.260   0.549  0.0178 -0.7892  0.4016
 1251TIP3    H125312   3.230   0.268   0.476  0.3020  1.3899  0.3464
 1251TIP3    H225313   3.264   0.327   0.612  0.7678 -1.5357  1.5707
 1252TIP3   OH225314   6.724   5.187   0.535  0.2403  0.7591 -0.1180
 1252TIP3    H125315   6.728   5.129   0.611  0.0203 -0.6758 -1.1437
 1252TIP3    H225316   6.809   5.176   0.492 -0.6837 -0.9137 -1.7277
 1253TIP3   OH225317   5.236   6.191   3.151  0.1768 -0.0752 -0.2964
 1253TIP3    H125318   5.206   6.203   3.241  0.9684  1.4253 -0.2041
 1253TIP3    H225319   5.173   6.129   3.113  0.3562 -1.4621  1.5241
 1254TIP3   OH225320   3.059   2.762   8.034 -0.0465 -0.6771 -0.4467
 1254TIP3    H125321   2.974   2.719   8.044 -0.3163  0.0083  0.2862
 1254TIP3    H225322   3.111   2.700   7.982 -0.1235 -2.3623  1.3323
 1255TIP3   OH225323   2.064   0.054   7.799 -0.0809  0.3208 -0.7015
 1255TIP3    H125324   2.119   0.110   7.853  0.2818 -0.0000 -0.7318
 1255TIP3    H225325   2.056  -0.027   7.849 -1.5895  0.8092 -0.0960
 1256TIP3   OH225326   4.303   4.164   7.493 -0.1139  0.0243  0.2810
 1256TIP3    H125327   4.221   4.127   7.460  0.7239 -0.1906 -1.7115
 1256TIP3    H225328   4.307   4.252   7.455  0.3897  0.1798  0.6829
 1257TIP3   OH225329   3.960   3.309   2.758  0.3668 -0.2391 -0.1337
 1257TIP3    H125330   4.022   3.348   2.696  0.9096 -2.0991 -0.8351
 1257TIP3    H225331   3.881   3.293   2.706 -1.1601  2.9877  0.9737
 1258TIP3   OH225332   3.855   4.484   1.835 -0.3035  0.7246  0.0774
 1258TIP3    H125333   3.787   4.421   1.861  0.6722 -0.1089  0.7197
 1258TIP3    H225334   3.913   4.434   1.778  0.7146  0.8985  0.9264
 1259TIP3   OH225335   6.488   4.176   0.348  0.6167  0.1577 -0.6911
 1259TIP3    H125336   6.466   4.220   0.266  1.8427 -0.4698 -1.3828
 1259TIP3    H225337   6.567   4.222   0.378  0.8124 -0.3394 -0.4433
 1260TIP3   OH225338   0.727   6.784   1.049  0.1501  0.0663  0.3625
 1260TIP3    H125339   0.709   6.691   1.066  1.2407  0.0964  1.9609
 1260TIP3    H225340   0.753   6.819   1.135 -0.7852  1.9941 -0.0846
 1261TIP3   OH225341   4.354   1.070   2.238 -0.7066 -0.7434 -0.1457
 1261TIP3    H125342   4.274   1.123   2.235 -0.1759  0.0250 -1.6437
 1261TIP3    H225343   4.413   1.120   2.295  0.7052  1.7581 -3.4927
 1262TIP3   OH225344   3.872   3.335   0.843 -0.0651 -0.6613 -0.5353
 1262TIP3    H125345   3.798   3.327   0.904  0.2551 -0.0370 -0.0511
 1262TIP3    H225346   3.950   3.329   0.898  0.2360 -0.4499 -0.9310
 1263TIP3   OH225347   0.309   5.588   0.604 -0.2297 -0.4876 -0.2442
 1263TIP3    H125348   0.374   5.546   0.548  0.2987 -0.4165  0.3053
 1263TIP3    H225349   0.294   5.525   0.674  0.8267  0.3429  0.7765
 1264TIP3   OH225350   5.150   4.445   8.532  0.3297 -0.1037  0.0104
 1264TIP3    H125351   5.205   4.451   8.454 -0.8512 -3.6610 -1.2997
 1264TIP3    H225352   5.196   4.382   8.588 -0.2862  0.1928  0.8692
 1265TIP3   OH225353   6.113   3.563   0.467 -0.0139  0.5474 -0.0248
 1265TIP3    H125354   6.050   3.586   0.536  0.4269  1.1448  0.1832
 1265TIP3    H225355   6.072   3.595   0.386  0.3154  1.5433  0.1902
 1266TIP3   OH225356   2.589   2.682   8.406  0.2757  0.3372  0.0809
 1266TIP3    H125357   2.610   2.775   8.399 -0.8177  0.7914  2.0464
 1266TIP3    H225358   2.590   2.650   8.316 -0.2938  2.4686 -0.7330
 1267TIP3   OH225359   6.218   2.201   7.540 -0.6230 -0.4561  0.2698
 1267TIP3    H125360   6.210   2.211   7.445 -2.1518 -0.7242  0.3346
 1267TIP3    H225361   6.143   2.146   7.564  0.1673 -1.0086  1.5430
 1268TIP3   OH225362   1.528   4.422   2.016 -0.1625 -0.2167 -0.4587
 1268TIP3    H125363   1.567   4.471   1.944  0.0581 -1.3300 -1.1307
 1268TIP3    H225364   1.507   4.337   1.978 -2.1428 -0.0657  0.2019
 1269TIP3   OH225365   5.770   4.571   7.414  0.3003  0.0692  0.0063
 1269TIP3    H125366   5.704   4.601   7.352 -0.3192 -1.3565 -0.0708
 1269TIP3    H225367   5.768   4.475   7.406 -0.3379 -0.2207  2.7460
 1270TIP3   OH225368   3.982   1.647   0.058 -0.2814  0.2315 -0.2934
 1270TIP3    H125369   3.928   1.668   0.134 -1.4802  0.0050 -1.0563
 1270TIP3    H225370   3.925   1.597   0.000  0.6450  0.2697 -1.2890
 1271TIP3   OH225371   4.739   3.988   7.800 -0.0689 -0.3380  0.1549
 1271TIP3    H125372   4.809   4.053   7.800 -1.0527  0.8577  2.8455
 1271TIP3    H225373   4.669   4.027   7.747  0.1892 -0.2323 -0.1102
 1272TIP3   OH225374   2.473   1.825   7.695 -0.3834 -0.6791 -0.1583
 1272TIP3    H125375   2.511   1.889   7.755 -0.1984 -0.3690 -0.6038
 1272TIP3    H225376   2.429   1.878   7.629  0.3503 -0.9925 -0.9108
 1273TIP3   OH225377   3.889   2.718   7.996  0.8816  0.8539  0.0615
 1273TIP3    H125378   3.869   2.780   8.066 -0.4675  0.7529 -0.1973
 1273TIP3    H225379   3.961   2.759   7.948  0.6562  1.7698  0.4697
 1274TIP3   OH225380   6.085   2.011   1.086 -0.0465  0.5028 -0.2996
 1274TIP3    H125381   6.028   1.993   1.010  1.0041 -1.0386 -0.7796
 1274TIP3    H225382   6.039   2.078   1.135 -2.0356 -0.3124 -0.9473
 1275TIP3   OH225383   4.606   4.754   2.011 -0.4534  0.7789 -0.1429
 1275TIP3    H125384   4.575   4.703   2.085  0.7290  1.8809  1.1842
 1275TIP3    H225385   4.647   4.690   1.952 -0.0177  0.0524  0.9261
 1276TIP3   OH225386   1.440   1.531   0.927  0.8913 -0.2180 -0.2586
 1276TIP3    H125387   1.364   1.522   0.985  0.6180  2.2640 -0.1634
 1276TIP3    H225388   1.448   1.625   0.911  3.5764 -0.4677 -0.8060
 1277TIP3   OH225389   6.844   1.946   6.850 -0.4750  0.1225 -0.4323
 1277TIP3    H125390   6.845   1.876   6.784 -0.9186  0.5558 -0.9110
 1277TIP3    H225391   6.754   1.978   6.849 -0.2980  0.6354 -0.1417
 1278TIP3   OH225392   3.477   0.900   1.742  1.0445 -0.0795  0.2868
 1278TIP3    H125393   3.413   0.971   1.737  0.5176 -0.5297  0.5019
 1278TIP3    H225394   3.524   0.904   1.659  1.4465  0.9124  0.5505
 1279TIP3   OH225395   4.710   0.891   0.450  0.3403  0.0364 -0.3829
 1279TIP3    H125396   4.781   0.827   0.452 -0.2038 -0.6306 -1.2580
 1279TIP3    H225397   4.740   0.958   0.388 -0.7002 -1.4447 -2.6517
 1280TIP3   OH225398   2.597   6.292   0.776 -0.2287 -0.0512  0.2152
 1280TIP3    H125399   2.678   6.277   0.825  0.6285  0.1592 -1.0982
 1280TIP3    H225400   2.553   6.361   0.825  0.6594  0.2346  0.6397
 1281TIP3   OH225401   6.153   3.292   1.395  0.1168  0.3072 -0.2109
 1281TIP3    H125402   6.169   3.344   1.474 -0.4674 -1.4074  1.0891
 1281TIP3    H225403   6.059   3.274   1.396  0.2032 -0.2292 -0.9831
 1282TIP3   OH225404   0.030   0.132   0.109 -0.3923 -0.2200  0.1369
 1282TIP3    H125405   0.029   0.077   0.187 -0.4871  0.6885  0.7983
 1282TIP3    H225406   0.071   0.214   0.138 -1.5095  0.5719 -0.4604
 1283TIP3   OH225407   0.948   4.821   2.941  0.4276  0.1129  0.1992
 1283TIP3    H125408   0.924   4.757   2.874 -0.0255  0.7778 -0.2825
 1283TIP3    H225409   0.889   4.803   3.014 -0.2557  0.4918 -0.2460
 1284TIP3   OH225410   2.240   2.490   2.350 -0.0554  0.1921 -0.0240
 1284TIP3    H125411   2.257   2.434   2.274 -0.1996 -1.5662  1.1861
 1284TIP3    H225412   2.314   2.473   2.409 -0.2066  1.1442  0.4537
 1285TIP3   OH225413   3.891   2.238   1.945 -0.0037  0.1142 -0.6270
 1285TIP3    H125414   3.801   2.263   1.963 -0.4326 -1.4226 -0.5410
 1285TIP3    H225415   3.892   2.217   1.852  0.4909  0.9775 -0.8284
 1286TIP3   OH225416   2.286   3.929   1.372  0.3851 -0.0645  0.3720
 1286TIP3    H125417   2.280   3.998   1.437 -1.0405  0.4539 -0.2623
 1286TIP3    H225418   2.332   3.969   1.298 -0.5466  0.2861 -0.0431
 1287TIP3   OH225419   1.822   0.421   8.493  0.2830 -0.2998  0.0618
 1287TIP3    H125420   1.914   0.444   8.506  0.0811  1.3751 -1.1431
 1287TIP3    H225421   1.773   0.488   8.540 -0.3373 -0.4017 -0.4201
 1288TIP3   OH225422   4.075   2.163   2.152  0.0367  0.5192  0.1616
 1288TIP3    H125423   4.014   2.163   2.078  1.3904  0.0404 -0.9989
 1288TIP3    H225424   4.150   2.215   2.121  0.2156  1.1249  1.5600
 1289TIP3   OH225425   0.674   0.511   1.342 -0.9737  0.1710  0.0249
 1289TIP3    H125426   0.609   0.446   1.367 -1.7432  0.7135 -0.5051
 1289TIP3    H225427   0.653   0.587   1.396 -0.7938  0.3502 -0.1566
 1290TIP3   OH225428   0.828   5.182   1.068 -0.9514  1.0760  0.4765
 1290TIP3    H125429   0.733   5.185   1.053 -1.2489  0.9768  2.1968
 1290TIP3    H225430   0.838   5.140   1.153  0.7981 -2.0282 -1.0723
 1291TIP3   OH225431   6.303   6.520   8.597  0.1253 -0.0266  0.0363
 1291TIP3    H125432   6.238   6.455   8.622 -0.3477  0.8674  1.2670
 1291TIP3    H225433   6.277   6.599   8.645  1.0249  0.8938 -0.9355
 1292TIP3   OH225434   5.443   4.831   3.212  0.2999  0.3421  0.4609
 1292TIP3    H125435   5.352   4.802   3.222 -0.1925  2.0334  1.1300
 1292TIP3    H225436   5.439   4.905   3.152  1.1017  1.0456  1.2483
 1293TIP3   OH225437   1.410   6.246   8.571 -0.0674  0.5914  0.1975
 1293TIP3    H125438   1.498   6.259   8.536 -1.3323  1.3515 -3.1000
 1293TIP3    H225439   1.408   6.299   8.650  2.2035  1.1897 -0.0624
 1294TIP3   OH225440   2.827   5.389   2.487  0.3646  0.2002  0.1497
 1294TIP3    H125441   2.903   5.425   2.441 -0.5791  1.2746 -0.6257
 1294TIP3    H225442   2.784   5.465   2.526 -1.3536 -0.1081 -1.0272
 1295TIP3   OH225443   6.467   2.443   0.856 -0.1099 -0.7895 -0.2634
 1295TIP3    H125444   6.562   2.450   0.860 -0.2014  0.1188  0.7808
 1295TIP3    H225445   6.443   2.386   0.929 -0.6223  2.5409  2.4190
 1296TIP3   OH225446   0.449   5.053   2.760 -0.3795 -0.3081  0.1457
 1296TIP3    H125447   0.397   4.979   2.730 -2.2964  0.9675  0.0832
 1296TIP3    H225448   0.386   5.126   2.763  1.3298  1.2175  0.5638
 1297TIP3   OH225449   3.166   5.391   7.894  0.2495  0.2736  1.0919
 1297TIP3    H125450   3.141   5.372   7.985 -0.4842 -1.0288  0.6555
 1297TIP3    H225451   3.177   5.304   7.854  1.3716  0.8287  0.1413
 1298TIP3   OH225452   1.847   4.708   7.206  0.0697  0.5511  0.3125
 1298TIP3    H125453   1.762   4.667   7.222 -0.4592  1.3266 -0.4486
 1298TIP3    H225454   1.835   4.757   7.125  1.4558  0.1009 -0.1887
 1299TIP3   OH225455   4.736   4.363   7.985 -0.2257  0.4306  0.1179
 1299TIP3    H125456   4.796   4.301   8.026 -0.9982 -0.9956 -0.8214
 1299TIP3    H225457   4.780   4.387   7.903  0.1920  1.3519  0.6013
 1300TIP3   OH225458   2.615   2.456   7.560 -0.1814 -0.6691 -0.0246
 1300TIP3    H125459   2.588   2.538   7.600 -1.0488 -0.2582 -1.3771
 1300TIP3    H225460   2.694   2.479   7.510 -0.4053 -0.6451 -0.3759
 1301TIP3   OH225461   0.328   0.495   0.845  0.0472  0.1116  0.1733
 1301TIP3    H125462   0.355   0.570   0.898  0.3624  0.4336 -0.4333
 1301TIP3    H225463   0.410   0.452   0.820 -0.1161 -0.2584  0.2545
 1302TIP3   OH225464   1.681   3.293   7.910  0.6566  0.0759  0.1120
 1302TIP3    H125465   1.759   3.285   7.966  1.5519  1.2989 -0.8908
 1302TIP3    H225466   1.665   3.204   7.879  0.9156 -0.3996  1.2673
 1303TIP3   OH225467   1.479   1.540   1.277  0.0259  0.6634  0.1868
 1303TIP3    H125468   1.505   1.627   1.305  1.7026  0.6210 -1.0657
 1303TIP3    H225469   1.561   1.492   1.268 -0.5575 -0.0180 -2.3444
 1304TIP3   OH225470   4.954   1.601   8.440 -0.1454 -0.0618 -0.7976
 1304TIP3    H125471   4.925   1.549   8.365  1.6147  0.9296 -2.2461
 1304TIP3    H225472   5.009   1.669   8.402  4.2716 -1.8844  1.6229
 1305TIP3   OH225473   2.256   3.763   2.679 -0.0934  0.0939  0.1432
 1305TIP3    H125474   2.223   3.775   2.768  1.1993 -2.2030  1.0095
 1305TIP3    H225475   2.266   3.852   2.645  0.6870  1.1189  2.7948
 1306TIP3   OH225476   6.449   2.946   8.133 -0.1293 -0.6551 -0.5021
 1306TIP3    H125477   6.487   2.866   8.170 -0.0652 -0.4126 -0.0379
 1306TIP3    H225478   6.457   2.935   8.038  1.9491 -0.2095 -0.4185
 1307TIP3   OH225479   2.912   5.111   8.394  0.4661 -0.0284 -0.1606
 1307TIP3    H125480   2.915   5.053   8.470 -1.2329 -1.6496 -1.2359
 1307TIP3    H225481   2.951   5.059   8.323 -1.6019 -0.1607 -1.2774
 1308TIP3   OH225482   6.682   1.310   1.125 -0.2023 -0.5461  0.4894
 1308TIP3    H125483   6.650   1.377   1.185  0.1096 -0.2614  0.3420
 1308TIP3    H225484   6.606   1.287   1.071  0.0699  0.8561 -0.5384
 1309TIP3   OH225485   2.699   2.457   1.875 -0.8426 -0.1716  0.7476
 1309TIP3    H125486   2.695   2.508   1.794 -1.8708  0.1126  0.9644
 1309TIP3    H225487   2.789   2.470   1.907  0.2685 -1.9017 -1.3553
 1310TIP3   OH225488   0.239   0.106   8.645 -0.8279 -0.0655  0.0032
 1310TIP3    H125489   0.183   0.107   8.722 -0.3173 -0.8754  0.4050
 1310TIP3    H225490   0.218   0.186   8.598 -0.6253  0.8080  1.3599
 1311TIP3   OH225491   0.348   3.063   1.602 -0.5215 -0.0719 -0.1544
 1311TIP3    H125492   0.352   3.144   1.551 -0.6731  0.5795  0.8398
 1311TIP3    H225493   0.258   3.060   1.634 -0.1631  0.0463  0.8876
 1312TIP3   OH225494   2.642   6.427   2.539 -0.2095  0.2433  0.1835
 1312TIP3    H125495   2.698   6.409   2.464  1.3936  0.4755  1.2870
 1312TIP3    H225496   2.700   6.464   2.605 -1.5738  0.0585  1.5553
 1313TIP3   OH225497   5.881   0.852   0.370  0.3512  0.1512  0.2885
 1313TIP3    H125498   5.868   0.759   0.385  1.1271  0.2007  1.4279
 1313TIP3    H225499   5.962   0.857   0.318 -0.0026  0.1674 -0.2638
 1314TIP3   OH225500   1.906   4.440   0.053 -0.0726 -0.2941 -0.1535
 1314TIP3    H125501   1.889   4.385   0.130  2.0540 -2.4359 -1.0914
 1314TIP3    H225502   1.844   4.408  -0.013 -1.1010  0.7596  0.2647
 1315TIP3   OH225503   1.352   0.654   8.469 -0.2838  0.2103 -0.6087
 1315TIP3    H125504   1.258   0.657   8.487  0.0541  1.6969  1.1864
 1315TIP3    H225505   1.366   0.568   8.430 -2.4438  0.1483 -1.3714
 1316TIP3   OH225506   2.346   4.530   2.986 -0.2080 -0.1833 -0.4276
 1316TIP3    H125507   2.329   4.480   2.906 -0.1724 -0.1254 -0.4717
 1316TIP3    H225508   2.423   4.583   2.965 -1.1161  1.0055 -0.9042
 1317TIP3   OH225509   1.940   3.287   7.140  0.2130  0.3484 -0.2688
 1317TIP3    H125510   1.856   3.248   7.162 -0.4733  1.8189 -0.1862
 1317TIP3    H225511   1.922   3.381   7.133  1.8018  0.6667 -0.4424
 1318TIP3   OH225512   2.233   3.425   7.806  0.2955  0.2993  0.0471
 1318TIP3    H125513   2.270   3.360   7.746  0.3327 -0.1414  0.5437
 1318TIP3    H225514   2.143   3.436   7.775  0.4358  0.3856 -0.3429
 1319TIP3   OH225515   2.499   2.640   7.989 -0.0699  0.2074 -0.2307
 1319TIP3    H125516   2.405   2.656   7.995  0.0790  0.9260  0.3340
 1319TIP3    H225517   2.507   2.569   7.926 -0.9483  0.5659 -0.7698
 1320TIP3   OH225518   5.354   1.131   7.698 -0.4187 -0.3934 -0.5886
 1320TIP3    H125519   5.356   1.174   7.784  0.4874  0.6996 -1.1372
 1320TIP3    H225520   5.372   1.201   7.636 -2.8733 -0.7783 -1.8532
 1321TIP3   OH225521   6.312   2.969   0.837 -0.1472  0.0128 -0.2605
 1321TIP3    H125522   6.396   3.001   0.804  0.3695 -2.0259 -1.0727
 1321TIP3    H225523   6.332   2.883   0.874 -1.7064 -0.0461  0.5270
 1322TIP3   OH225524   1.609   2.296   0.208  0.2328 -0.3824  0.4135
 1322TIP3    H125525   1.644   2.302   0.119 -0.2839  1.8310  0.3004
 1322TIP3    H225526   1.596   2.387   0.234 -1.5908 -1.0412  1.9744
 1323TIP3   OH225527   4.024   5.410   1.332  0.4094 -0.2536  0.3353
 1323TIP3    H125528   3.998   5.324   1.298 -1.9184  1.2395 -2.0739
 1323TIP3    H225529   3.945   5.464   1.323  1.5262  1.9610  2.5860
 1324TIP3   OH225530   6.652   2.096   2.136  0.0604  0.7415  0.2681
 1324TIP3    H125531   6.744   2.110   2.158 -0.3599  0.5095  2.3159
 1324TIP3    H225532   6.627   2.175   2.087  1.6927  0.1487 -1.6687
 1325TIP3   OH225533   3.033   5.484   0.923 -0.3897  0.2243 -0.1742
 1325TIP3    H125534   3.004   5.556   0.980  0.2454  0.5893 -0.3089
 1325TIP3    H225535   2.951   5.447   0.889 -0.8972 -0.9047  2.0339
 1326TIP3   OH225536   1.020   2.225   7.382 -0.5940  0.2457  0.0828
 1326TIP3    H125537   1.028   2.206   7.288 -1.6254  2.5460 -0.5373
 1326TIP3    H225538   0.955   2.163   7.414 -0.0113 -0.7652 -0.6288
 1327TIP3   OH225539   3.327   4.497   0.657  0.0924 -0.1003  1.4652
 1327TIP3    H125540   3.348   4.523   0.747  3.4158  3.2876 -0.0012
 1327TIP3    H225541   3.250   4.550   0.634 -0.4762 -0.6286  2.1181
 1328TIP3   OH225542   0.271   2.380   2.323  0.1424  0.7816 -0.8404
 1328TIP3    H125543   0.279   2.285   2.327  0.8899  0.8795  1.6668
 1328TIP3    H225544   0.327   2.412   2.394 -3.9270  2.8326  1.8349
 1329TIP3   OH225545   2.966   2.993   2.130  0.4630 -0.0112 -0.2688
 1329TIP3    H125546   3.040   2.942   2.096 -0.1480 -1.1124  0.0023
 1329TIP3    H225547   3.006   3.054   2.193  1.5716  1.8048 -2.5559
 1330TIP3   OH225548   4.109   4.656   7.429  0.3888  0.1259 -0.5626
 1330TIP3    H125549   4.065   4.635   7.346 -0.3265  0.8476 -0.3806
 1330TIP3    H225550   4.113   4.752   7.430  1.6178  0.0885 -0.3754
 1331TIP3   OH225551   6.015   2.380   7.807 -0.2405 -0.1829 -0.0039
 1331TIP3    H125552   6.001   2.349   7.717  0.3338 -0.4337 -0.0113
 1331TIP3    H225553   5.959   2.458   7.815 -0.9561 -0.6613 -0.2971
 1332TIP3   OH225554   2.603   5.822   2.053 -0.8014 -0.0477 -0.3448
 1332TIP3    H125555   2.531   5.783   2.102  0.3671 -1.9279 -0.0402
 1332TIP3    H225556   2.672   5.756   2.054  0.2986  0.9852 -2.1398
 1333TIP3   OH225557   2.282   1.208   2.296  0.1314  0.0784  0.1109
 1333TIP3    H125558   2.257   1.116   2.284  1.4357 -0.2493 -0.1648
 1333TIP3    H225559   2.320   1.211   2.384  0.0979  0.3661  0.1158
 1334TIP3   OH225560   3.752   4.096   0.329 -0.3494  0.6139  0.3980
 1334TIP3    H125561   3.826   4.077   0.386 -0.1766  0.3591  0.0904
 1334TIP3    H225562   3.677   4.102   0.388 -0.1882  0.2562  0.6403
 1335TIP3   OH225563   0.354   1.531   2.780 -0.7300  0.4098  0.4829
 1335TIP3    H125564   0.319   1.613   2.813  0.0580  0.2565  1.7837
 1335TIP3    H225565   0.449   1.543   2.781 -0.5238 -0.8803  1.8394
 1336TIP3   OH225566   4.583   1.289   2.289  0.1610 -0.1428  0.2179
 1336TIP3    H125567   4.602   1.260   2.200 -1.4194 -1.7493  0.3460
 1336TIP3    H225568   4.665   1.275   2.337  1.1300  1.0621 -1.0113
 1337TIP3   OH225569   1.402   5.229   2.571 -0.3962  0.5923 -0.5038
 1337TIP3    H125570   1.360   5.144   2.582  0.7782 -0.3099 -2.3875
 1337TIP3    H225571   1.341   5.292   2.609 -1.5524 -1.0261  0.4182
 1338TIP3   OH225572   5.781   1.523   1.346  0.1460 -0.3533  0.3833
 1338TIP3    H125573   5.859   1.578   1.345  0.4881 -0.8086  1.1615
 1338TIP3    H225574   5.815   1.433   1.343 -0.3102 -0.5710  1.4299
 1339TIP3   OH225575   3.835   0.325   2.733  0.4964  0.3115 -0.1450
 1339TIP3    H125576   3.874   0.283   2.809  1.4304  0.2308 -0.6569
 1339TIP3    H225577   3.740   0.316   2.746  0.6597 -1.3864  0.0658
 1340TIP3   OH225578   5.498   2.061   1.514  0.4954  0.0278 -0.6902
 1340TIP3    H125579   5.465   2.019   1.593 -0.8987  0.9283 -0.7639
 1340TIP3    H225580   5.499   2.154   1.534  2.1285  0.1251 -1.0446
 1341TIP3   OH225581   4.815   5.158   2.441 -0.0576 -0.1829  0.2295
 1341TIP3    H125582   4.898   5.157   2.393  0.1442  1.2850  0.4804
 1341TIP3    H225583   4.822   5.236   2.496 -1.5860 -0.0777  0.2935
 1342TIP3   OH225584   0.525   4.078   1.429 -0.4618  0.1992  0.0739
 1342TIP3    H125585   0.518   4.070   1.334 -2.7864  1.4346  0.0681
 1342TIP3    H225586   0.460   4.017   1.464  0.4891 -0.3699  0.9051
 1343TIP3   OH225587   3.583   6.252   7.916  0.0028  0.8355  0.5494
 1343TIP3    H125588   3.617   6.245   7.827  1.3169  1.6701  0.9567
 1343TIP3    H225589   3.511   6.314   7.909 -0.6320  0.0452 -0.1067
 1344TIP3   OH225590   5.196   1.060   8.007  0.0683 -0.0011  0.0425
 1344TIP3    H125591   5.235   1.035   8.091  0.6083 -1.3927 -0.5706
 1344TIP3    H225592   5.217   1.152   7.996 -0.2075  0.2481  1.5333
 1345TIP3   OH225593   0.437   0.639   0.627  0.0706 -0.2983 -0.0418
 1345TIP3    H125594   0.515   0.635   0.682  0.2432 -0.8305 -0.3262
 1345TIP3    H225595   0.421   0.549   0.599 -0.1066 -0.0599 -0.7436
 1346TIP3   OH225596   1.264   5.238   7.969 -0.3154 -0.0373  0.2737
 1346TIP3    H125597   1.343   5.193   7.938  0.5139  0.9617  0.8732
 1346TIP3    H225598   1.196   5.211   7.907  0.6019 -0.5330 -0.5582
 1347TIP3   OH225599   4.227   4.395   2.911 -0.0472 -0.4505 -0.0219
 1347TIP3    H125600   4.264   4.319   2.957  0.8605 -0.5244 -0.8506
 1347TIP3    H225601   4.291   4.465   2.926 -0.2409 -0.2026 -0.3527
 1348TIP3   OH225602   4.065   4.219   1.430  0.2510  0.3730 -0.1142
 1348TIP3    H125603   4.075   4.126   1.448 -0.1499  0.2244 -0.6251
 1348TIP3    H225604   4.136   4.240   1.370 -0.1224  0.2081 -0.6274
 1349TIP3   OH225605   5.581   2.523   7.836  0.1609 -0.2980 -0.4657
 1349TIP3    H125606   5.625   2.591   7.886 -1.2949 -1.1539  2.1469
 1349TIP3    H225607   5.584   2.446   7.892 -3.8718 -0.6230 -0.4344
 1350TIP3   OH225608   2.217   0.562   3.084 -0.2281  0.0238 -0.0606
 1350TIP3    H125609   2.236   0.564   2.990 -1.4817 -0.4286 -0.3402
 1350TIP3    H225610   2.164   0.484   3.096  0.9271 -0.5980  1.2415
 1351TIP3   OH225611   4.876   0.156   1.554 -0.4156 -0.0825  0.4658
 1351TIP3    H125612   4.817   0.225   1.585 -0.7315 -0.8192  1.5885
 1351TIP3    H225613   4.908   0.114   1.635  2.4990  0.9518 -0.0213
 1352TIP3   OH225614   2.231   2.668   8.704  0.2825 -0.1657  0.1955
 1352TIP3    H125615   2.257   2.589   8.657  1.8605  0.2846  0.2434
 1352TIP3    H225616   2.207   2.730   8.636  0.0475 -0.3453  0.1133
 1353TIP3   OH225617   3.256   4.284   2.389 -0.5501 -0.2955 -0.2290
 1353TIP3    H125618   3.188   4.217   2.381 -0.6845  0.0517 -2.8416
 1353TIP3    H225619   3.337   4.234   2.400 -0.7238 -0.9227 -1.5357
 1354TIP3   OH225620   4.779   5.699   1.743  0.0631  0.2611  0.0219
 1354TIP3    H125621   4.715   5.720   1.676 -0.2725 -0.0308  0.2504
 1354TIP3    H225622   4.807   5.785   1.777  0.0215  0.3981 -0.2887
 1355TIP3   OH225623   5.924   1.922   0.397  0.1307  0.2085  0.3619
 1355TIP3    H125624   5.867   1.968   0.459 -0.1755  0.6827 -0.2667
 1355TIP3    H225625   6.013   1.944   0.425 -0.0107  1.0658  0.1654
 1356TIP3   OH225626   3.347   0.525   0.065  0.4060 -0.6359  0.2629
 1356TIP3    H125627   3.428   0.565   0.034  0.3536 -0.7941 -0.0810
 1356TIP3    H225628   3.321   0.579   0.140 -0.4484  0.8925 -1.0713
 1357TIP3   OH225629   5.689   3.177   7.573  0.2728  0.4455  0.2918
 1357TIP3    H125630   5.686   3.129   7.490 -0.5874 -0.5362  0.8764
 1357TIP3    H225631   5.780   3.169   7.602 -0.0492 -1.7124  0.8557
 1358TIP3   OH225632   5.906   3.617   2.300  0.3097  0.0344  0.0044
 1358TIP3    H125633   5.955   3.691   2.263 -1.6357  1.1663 -0.4739
 1358TIP3    H225634   5.966   3.543   2.296  1.2148  0.8103 -2.6636
 1359TIP3   OH225635   6.272   1.919   3.135  0.2110  0.2951  0.0028
 1359TIP3    H125636   6.216   1.897   3.060 -0.9524 -2.4594  1.5013
 1359TIP3    H225637   6.233   1.999   3.170 -1.7192 -0.5263 -0.0958
 1360TIP3   OH225638   4.961   4.798   1.740  0.1299 -0.2613  0.1734
 1360TIP3    H125639   4.926   4.885   1.760  0.7025  0.1513 -0.5407
 1360TIP3    H225640   4.909   4.768   1.665 -1.1116 -1.2217  1.3884
 1361TIP3   OH225641   1.199   0.611   6.946 -0.4359 -0.0040  0.2043
 1361TIP3    H125642   1.276   0.598   6.890 -0.6076  0.2911 -0.1026
 1361TIP3    H225643   1.140   0.665   6.894 -0.3080  0.8587  0.9292
 1362TIP3   OH225644   6.683   6.234   1.860 -0.0518 -0.1323 -0.2240
 1362TIP3    H125645   6.701   6.325   1.884 -0.7376  0.3036 -1.2846
 1362TIP3    H225646   6.646   6.239   1.772  1.8022 -1.6037 -1.1706
 1363TIP3   OH225647   3.406   0.464   2.370  0.9603  0.0219 -0.0969
 1363TIP3    H125648   3.401   0.435   2.461 -1.5512 -0.7210 -0.3792
 1363TIP3    H225649   3.404   0.559   2.375  1.0044 -0.0106  0.6397
 1364TIP3   OH225650   1.056   6.107   8.111 -0.2009  0.0505 -0.3319
 1364TIP3    H125651   1.087   6.034   8.165 -1.1286 -0.5719 -0.6314
 1364TIP3    H225652   1.134   6.134   8.062 -0.1739 -1.7890 -1.4072
 1365TIP3   OH225653   2.161   2.422   0.625 -0.5932  0.0346  0.2556
 1365TIP3    H125654   2.066   2.420   0.610 -0.3514 -0.6816 -1.3642
 1365TIP3    H225655   2.195   2.477   0.555  0.1809  0.4646  0.9539
 1366TIP3   OH225656   6.065   0.968   1.101 -0.3979 -0.5623 -0.0077
 1366TIP3    H125657   6.141   0.910   1.098  0.4812  0.6010 -1.3355
 1366TIP3    H225658   6.044   0.975   1.194  1.8587 -0.0102  0.5245
 1367TIP3   OH225659   2.067   5.233   1.098 -0.1723  0.3679 -0.4668
 1367TIP3    H125660   2.084   5.149   1.054 -2.0107 -0.4631  0.2867
 1367TIP3    H225661   1.972   5.234   1.112  0.1587  1.0320  2.5468
 1368TIP3   OH225662   4.661   6.004   7.774  0.9210 -0.0445 -0.1143
 1368TIP3    H125663   4.678   5.916   7.809  1.9205  0.8277  1.7402
 1368TIP3    H225664   4.661   5.992   7.679  0.8104 -2.0837  0.0964
 1369TIP3   OH225665   2.589   4.841   0.814 -0.5686 -0.3377 -0.1133
 1369TIP3    H125666   2.569   4.844   0.908  2.5999  1.1902  0.6347
 1369TIP3    H225667   2.580   4.748   0.791  0.0321 -1.0086  2.0865
 1370TIP3   OH225668   4.262   5.492   1.765 -0.2997 -0.2310 -0.1780
 1370TIP3    H125669   4.210   5.419   1.731  0.7145 -0.3772 -1.4950
 1370TIP3    H225670   4.337   5.450   1.807  0.3820  0.0188 -1.0994
 1371TIP3   OH225671   1.483   5.885   8.321  0.8784 -0.2553 -0.1900
 1371TIP3    H125672   1.428   5.957   8.289 -0.8760 -1.8218 -0.9099
 1371TIP3    H225673   1.499   5.906   8.413  1.2421  1.4990 -0.5997
 1372TIP3   OH225674   2.191   6.584   0.788 -0.4603  0.5055 -0.1249
 1372TIP3    H125675   2.106   6.600   0.747  0.1317 -0.4215 -1.7953
 1372TIP3    H225676   2.254   6.632   0.733 -0.0525  3.3866  2.5304
 1373TIP3   OH225677   4.386   1.070   7.382 -0.6137 -0.3836 -0.4085
 1373TIP3    H125678   4.455   1.112   7.331  1.3461 -0.9726  1.5806
 1373TIP3    H225679   4.394   0.976   7.362 -0.8171 -0.4616 -0.1432
 1374TIP3   OH225680   1.640   5.437   8.061  0.2377 -0.1455  0.0576
 1374TIP3    H125681   1.620   5.413   7.970  1.7227  0.1503 -0.3687
 1374TIP3    H225682   1.723   5.484   8.056 -0.2620  0.9550  1.4356
 1375TIP3   OH225683   6.496   3.393   8.401 -0.8119 -0.6393 -0.5467
 1375TIP3    H125684   6.527   3.302   8.396  0.1211 -0.2904 -1.1135
 1375TIP3    H225685   6.520   3.421   8.489 -0.9548 -0.8764 -0.4274
 1376TIP3   OH225686   6.298   5.190   8.484 -0.2151  0.1225 -0.5013
 1376TIP3    H125687   6.341   5.276   8.482 -0.0383  0.0424 -0.2266
 1376TIP3    H225688   6.204   5.210   8.480 -0.1565  0.3017 -1.0541
 1377TIP3   OH225689   1.270   1.550   8.598  0.1376 -0.1686 -0.1889
 1377TIP3    H125690   1.330   1.624   8.585 -1.0833  0.9727  0.4311
 1377TIP3    H225691   1.325   1.483   8.640  0.5510  1.6708  2.5045
 1378TIP3   OH225692   5.179   0.572   7.295  0.3625 -0.2373  0.0853
 1378TIP3    H125693   5.199   0.481   7.273 -1.0702 -0.2710 -1.2181
 1378TIP3    H225694   5.241   0.624   7.244  1.3229 -0.4658  0.9929
 1379TIP3   OH225695   6.364   0.765   8.483  0.4459  0.1730  0.1803
 1379TIP3    H125696   6.332   0.810   8.405 -1.4446 -0.7591  0.3436
 1379TIP3    H225697   6.328   0.677   8.476  2.3973 -0.7262  0.8519
 1380TIP3   OH225698   1.552   1.820   8.037  0.4277  0.3958 -0.6404
 1380TIP3    H125699   1.627   1.771   8.004  0.5763 -0.7456  1.2125
 1380TIP3    H225700   1.535   1.782   8.124 -2.2192  0.6857 -0.9385
 1381TIP3   OH225701   4.917   0.780   8.478 -0.1594 -0.4112 -0.3775
 1381TIP3    H125702   4.907   0.808   8.570  1.2807  1.8514 -0.8257
 1381TIP3    H225703   4.963   0.697   8.484  0.5349  0.0249  0.9743
 1382TIP3   OH225704   5.222   5.124   8.462  0.3214 -0.0054 -0.4063
 1382TIP3    H125705   5.180   5.123   8.376  0.1184  0.1574 -0.3096
 1382TIP3    H225706   5.244   5.216   8.476  0.7700 -0.0973 -0.4832
 1383TIP3   OH225707   6.165   4.196   0.154  0.3620  0.1280 -0.3235
 1383TIP3    H125708   6.250   4.213   0.114  0.3837  1.2402  0.1475
 1383TIP3    H225709   6.183   4.133   0.224  0.9525  0.9906  0.3207
 1384TIP3   OH225710   5.032   3.297   0.733  0.4718 -0.3842  0.8027
 1384TIP3    H125711   4.952   3.279   0.783  0.9467 -1.0019  1.3448
 1384TIP3    H225712   5.102   3.259   0.785  1.1711  0.4798  0.5098
 1385TIP3   OH225713   6.629   1.216   7.585  0.1543  0.0407 -0.2525
 1385TIP3    H125714   6.584   1.287   7.538 -1.0895 -0.0534  0.7630
 1385TIP3    H225715   6.708   1.258   7.621 -0.5766  0.9269  0.3540
 1386TIP3   OH225716   1.834   0.842   6.926  0.3382  0.0403 -0.6348
 1386TIP3    H125717   1.775   0.790   6.979  2.0794  0.1733  1.5832
 1386TIP3    H225718   1.921   0.810   6.949  1.2676  1.5195 -1.8883
 1387TIP3   OH225719   6.631   4.497   2.080 -0.6071 -0.2476 -0.0259
 1387TIP3    H125720   6.565   4.496   2.011 -1.4205 -0.4498  0.7433
 1387TIP3    H225721   6.663   4.588   2.081 -0.6058 -0.2360 -0.6416
 1388TIP3   OH225722   3.644   3.921   2.704  0.1758 -0.0993 -0.3500
 1388TIP3    H125723   3.644   3.907   2.609 -2.2565 -1.3130 -0.2369
 1388TIP3    H225724   3.695   3.848   2.739 -0.9819 -1.0650 -0.6158
 1389TIP3   OH225725   0.986   0.833   0.372 -0.4241  0.6836  0.2357
 1389TIP3    H125726   1.080   0.849   0.364 -0.4663  0.4896 -0.8444
 1389TIP3    H225727   0.974   0.743   0.340 -0.9049  0.4762  0.9590
 1390TIP3   OH225728   3.855   4.451   0.106 -0.4167 -0.1182 -0.2359
 1390TIP3    H125729   3.946   4.444   0.135 -0.4313  0.1342 -0.1236
 1390TIP3    H225730   3.833   4.544   0.119 -1.0509 -0.4050  0.8173
 1391TIP3   OH225731   2.506   3.390   1.609 -0.3601  0.0678 -0.1391
 1391TIP3    H125732   2.585   3.352   1.649 -2.1179 -2.2769  1.3452
 1391TIP3    H225733   2.534   3.414   1.520  2.6497  1.7326  1.0817
 1392TIP3   OH225734   6.018   2.609   1.861 -0.3784  0.0206 -0.4754
 1392TIP3    H125735   6.033   2.674   1.792 -1.2000  0.7277  0.0015
 1392TIP3    H225736   6.101   2.605   1.908  0.3736 -0.8499 -1.8007
 1393TIP3   OH225737   1.394   4.040   7.748  0.5313  0.2958 -0.0734
 1393TIP3    H125738   1.396   3.947   7.769 -0.6616  0.2589 -0.0085
 1393TIP3    H225739   1.300   4.061   7.744  0.7796  1.5965  0.3891
 1394TIP3   OH225740   1.033   3.529   1.651 -0.4070  0.1944 -0.1461
 1394TIP3    H125741   1.008   3.448   1.695 -1.4922  0.5154 -0.1577
 1394TIP3    H225742   1.110   3.504   1.599 -1.0654 -0.9755 -0.6111
 1395TIP3   OH225743   1.598   3.467   0.089 -0.1993  0.5834 -0.4470
 1395TIP3    H125744   1.619   3.525   0.162 -0.9375  0.2006  0.0824
 1395TIP3    H225745   1.508   3.489   0.065 -0.0351  0.5595 -1.1062
 1396TIP3   OH225746   5.164   0.754   1.458 -0.2991  0.0526 -0.3235
 1396TIP3    H125747   5.129   0.836   1.491 -1.1784  0.3866 -1.9900
 1396TIP3    H225748   5.098   0.689   1.480 -1.7685  0.5623 -2.8102
 1397TIP3   OH225749   0.443   0.824   7.484  0.0134 -0.2658 -0.4090
 1397TIP3    H125750   0.390   0.752   7.452 -0.0192 -0.8390  0.8755
 1397TIP3    H225751   0.380   0.887   7.518  0.0861 -0.1021 -0.5747
 1398TIP3   OH225752   4.298   5.559   0.764  0.2628 -0.6008 -0.6274
 1398TIP3    H125753   4.349   5.487   0.802  0.7332  0.5091  0.9469
 1398TIP3    H225754   4.352   5.590   0.691 -0.2808 -2.2491 -1.8044
 1399TIP3   OH225755   0.737   5.891   0.128  0.0185 -0.8017  0.9245
 1399TIP3    H125756   0.673   5.845   0.073 -1.4797 -1.3882  3.0656
 1399TIP3    H225757   0.757   5.971   0.079 -1.3235 -1.2502 -0.4405
 1400TIP3   OH225758   0.096   4.989   2.484  0.4018  0.6514 -0.0934
 1400TIP3    H125759   0.088   5.064   2.543 -1.4556  1.5327 -1.3946
 1400TIP3    H225760   0.011   4.982   2.441  1.4963 -0.3322 -2.2526
 1401TIP3   OH225761   3.317   6.042   0.727  0.0024  0.2799  0.2498
 1401TIP3    H125762   3.364   6.103   0.670 -1.5710  2.6600  1.3258
 1401TIP3    H225763   3.382   6.018   0.793  1.3540 -1.2077 -1.5253
 1402TIP3   OH225764   5.290   4.735   8.601 -0.2228 -0.2577  0.0454
 1402TIP3    H125765   5.347   4.689   8.663 -0.1107 -0.6965 -0.3711
 1402TIP3    H225766   5.307   4.692   8.517  2.3364  2.6264 -1.1073
 1403TIP3   OH225767   1.146   4.206   1.217  0.1774  0.4097 -0.0049
 1403TIP3    H125768   1.052   4.205   1.200  0.3491  0.4785 -1.0144
 1403TIP3    H225769   1.174   4.294   1.192  0.1924  1.0943  2.2302
 1404TIP3   OH225770   2.166   6.085   1.340  0.1677 -0.5391 -0.3519
 1404TIP3    H125771   2.179   6.110   1.248  0.0853 -0.1092 -0.2509
 1404TIP3    H225772   2.072   6.100   1.355 -0.0709 -1.7520 -0.5328
 1405TIP3   OH225773   1.993   0.420   6.781  0.2890 -0.2369  0.5989
 1405TIP3    H125774   1.992   0.515   6.773  0.3285 -0.2926 -0.2270
 1405TIP3    H225775   2.080   0.400   6.817  1.0839 -0.0542 -1.0887
 1406TIP3   OH225776   5.509   0.102   2.317  0.7240 -0.9257 -0.2581
 1406TIP3    H125777   5.497   0.007   2.309  2.0902 -1.1583  0.2823
 1406TIP3    H225778   5.495   0.136   2.229 -3.1939 -1.1789  0.0843
 1407TIP3   OH225779   5.938   1.060   1.941  0.3109 -0.1541 -0.7371
 1407TIP3    H125780   5.957   1.132   1.881  1.4918  0.6613  0.5675
 1407TIP3    H225781   5.950   1.097   2.028 -0.5174 -1.5472  0.0061
 1408TIP3   OH225782   0.574   2.116   8.521  0.1463  0.1844 -0.1123
 1408TIP3    H125783   0.600   2.185   8.460  0.5419  0.9815  0.9489
 1408TIP3    H225784   0.652   2.099   8.573  0.1837 -1.3528 -0.5914
 1409TIP3   OH225785   5.534   5.850   1.258 -0.3392  0.3629 -0.4678
 1409TIP3    H125786   5.554   5.831   1.167  0.7882 -1.0268  0.0400
 1409TIP3    H225787   5.469   5.920   1.254 -0.8217 -0.1494 -2.3330
 1410TIP3   OH225788   0.168   1.189   8.610 -0.1960 -0.1187 -0.2407
 1410TIP3    H125789   0.121   1.235   8.679  2.0190 -0.1906  1.4359
 1410TIP3    H225790   0.136   1.099   8.615  0.1691 -0.2037  0.9743
 1411TIP3   OH225791   3.807   2.842   8.291 -0.0965  0.0615 -0.1484
 1411TIP3    H125792   3.754   2.922   8.294 -0.4895 -0.1664 -0.7771
 1411TIP3    H225793   3.896   2.871   8.312 -0.3321  0.5733  0.1571
 1412TIP3   OH225794   1.287   4.638   1.211 -0.4370  0.2975 -0.1632
 1412TIP3    H125795   1.198   4.626   1.245 -0.9712  0.1440 -1.5777
 1412TIP3    H225796   1.305   4.731   1.223 -1.1004  0.4835 -0.6217
 1413TIP3   OH225797   1.423   5.688   0.546  0.8167  0.4104 -0.0648
 1413TIP3    H125798   1.383   5.691   0.634  3.0166  1.9167  0.9817
 1413TIP3    H225799   1.496   5.627   0.554  0.5311 -0.0855 -1.1097
 1414TIP3   OH225800   0.920   2.955   0.247 -0.1595  0.1923  0.8473
 1414TIP3    H125801   0.983   2.905   0.195  0.1973 -2.9196  3.8611
 1414TIP3    H225802   0.973   3.014   0.300  0.0065 -0.3928  1.3481
 1415TIP3   OH225803   0.750   1.216   0.602 -0.0388  0.4512  0.2464
 1415TIP3    H125804   0.699   1.273   0.545  0.8154  1.0104  0.0289
 1415TIP3    H225805   0.754   1.132   0.555 -1.4068  0.1465  0.6280
 1416TIP3   OH225806   6.122   0.522   1.321 -0.7440 -0.4286 -0.4088
 1416TIP3    H125807   6.175   0.467   1.378 -0.4439 -1.3766 -1.5553
 1416TIP3    H225808   6.054   0.558   1.378 -0.5937 -1.5182  0.4979
 1417TIP3   OH225809   3.086   0.924   7.744  0.3062 -0.1569 -0.2869
 1417TIP3    H125810   3.085   0.885   7.831 -0.5194  0.6440  0.0775
 1417TIP3    H225811   3.079   0.850   7.684 -0.3205 -0.6312  0.3594
 1418TIP3   OH225812   5.899   6.690   2.796  0.0141 -0.2578 -0.3753
 1418TIP3    H125813   5.944   6.618   2.752 -0.1332 -0.0333 -0.8951
 1418TIP3    H225814   5.943   6.697   2.881  2.1125  1.0206 -1.4716
 1419TIP3   OH225815   0.603   0.439   8.083 -0.3529 -0.1924 -0.2843
 1419TIP3    H125816   0.586   0.480   8.168  0.8362  0.2277 -0.2352
 1419TIP3    H225817   0.614   0.512   8.022  0.0975 -0.4732 -0.5419
 1420TIP3   OH225818   5.561   2.081   0.104 -0.2868 -0.5599  0.1792
 1420TIP3    H125819   5.628   2.149   0.114 -0.2833 -0.6486  0.8117
 1420TIP3    H225820   5.610   2.002   0.084 -0.0610 -0.9103  1.9055
 1421TIP3   OH225821   5.723   4.025   1.617  0.0765 -0.0264  0.3947
 1421TIP3    H125822   5.779   3.949   1.607  2.0019  0.8912  3.2026
 1421TIP3    H225823   5.650   3.995   1.671  0.3962 -0.0906  0.7931
 1422TIP3   OH225824   6.005   1.536   0.901 -0.1724  0.3496  0.3605
 1422TIP3    H125825   6.066   1.601   0.937 -0.8450  1.6257 -0.7491
 1422TIP3    H225826   6.031   1.527   0.810 -1.0822  0.2389  0.1078
 1423TIP3   OH225827   5.973   5.769   7.965 -0.0699  0.3583 -0.6102
 1423TIP3    H125828   5.941   5.812   7.885 -0.4232 -0.0262 -0.6782
 1423TIP3    H225829   5.986   5.841   8.027  1.9038  0.9001 -1.5516
 1424TIP3   OH225830   1.650   4.644   7.503 -0.4242  0.3264  0.3108
 1424TIP3    H125831   1.604   4.631   7.421  0.1917 -0.1131  0.0299
 1424TIP3    H225832   1.669   4.556   7.534  0.3412  0.5007  0.3538
 1425TIP3   OH225833   2.830   3.441   0.970 -0.0483  0.3051  0.4726
 1425TIP3    H125834   2.805   3.478   0.885  0.9012 -1.2306 -0.5275
 1425TIP3    H225835   2.874   3.513   1.016 -0.1764  1.0376 -0.5245
 1426TIP3   OH225836   2.083   4.761   2.583 -0.1865 -0.1351 -0.4327
 1426TIP3    H125837   1.989   4.776   2.573 -0.4114 -0.8947  0.4516
 1426TIP3    H225838   2.124   4.822   2.521 -1.2768 -0.2135 -1.2509
 1427TIP3   OH225839   1.565   3.887   8.542  0.4738 -0.0457  0.0643
 1427TIP3    H125840   1.573   3.971   8.587  0.6007 -0.3374  0.5864
 1427TIP3    H225841   1.487   3.847   8.581 -0.1158  0.2067 -0.8105
 1428TIP3   OH225842   3.911   2.887   8.626 -0.0405  0.1457  0.0456
 1428TIP3    H125843   4.001   2.869   8.598 -0.0598 -1.1939  0.7740
 1428TIP3    H225844   3.866   2.804   8.614 -1.4258  1.0181 -1.1374
 1429TIP3   OH225845   2.738   5.186   8.701  0.8113 -0.1495  0.5233
 1429TIP3    H125846   2.786   5.246   8.643 -0.4106  0.6246  0.2820
 1429TIP3    H225847   2.648   5.190   8.670  0.0423  0.5535  2.6697
 1430TIP3   OH225848   2.893   1.672   2.477 -0.3666  0.1295  0.5165
 1430TIP3    H125849   2.966   1.727   2.448 -0.6089  0.2704  0.1723
 1430TIP3    H225850   2.924   1.632   2.558  0.6894 -1.0190 -0.4091
 1431TIP3   OH225851   0.240   0.064   1.247 -0.0152  0.5800 -0.4103
 1431TIP3    H125852   0.268  -0.028   1.245  1.2374  0.9465 -0.3237
 1431TIP3    H225853   0.247   0.089   1.339 -0.7212  0.6596 -0.3735
 1432TIP3   OH225854   5.693   3.145   0.046 -0.0142  0.0243  0.0459
 1432TIP3    H125855   5.680   3.077   0.112  0.3119  1.0522  1.1898
 1432TIP3    H225856   5.785   3.137   0.021 -0.8035 -2.5698 -2.8546
 1433TIP3   OH225857   6.614   4.454   1.253 -0.1558 -0.2954 -0.2594
 1433TIP3    H125858   6.634   4.423   1.165  0.5098 -1.7756  0.3640
 1433TIP3    H225859   6.687   4.511   1.275  0.2521 -0.8048 -0.2686
 1434TIP3   OH225860   1.493   0.558   7.650 -0.7268  0.6838  0.4484
 1434TIP3    H125861   1.527   0.491   7.590 -0.5978  1.2612 -0.1289
 1434TIP3    H225862   1.502   0.518   7.737 -1.0831 -0.2362  0.0823
 1435TIP3   OH225863   2.478   3.363   7.905 -0.0565 -0.1368  0.2306
 1435TIP3    H125864   2.451   3.278   7.939  0.2549 -0.5829 -0.6038
 1435TIP3    H225865   2.397   3.414   7.901  0.1927  0.7494  3.7390
 1436TIP3   OH225866   1.310   2.841   0.679  0.0406 -0.7170  0.4686
 1436TIP3    H125867   1.334   2.751   0.699 -1.3928 -1.3766 -0.5794
 1436TIP3    H225868   1.272   2.836   0.591 -2.5333  0.4300  1.4140
 1437TIP3   OH225869   0.459   3.338   1.376  0.1426 -0.0489 -0.0980
 1437TIP3    H125870   0.552   3.317   1.364  0.0066 -0.1891 -1.0000
 1437TIP3    H225871   0.413   3.271   1.326 -0.3394  1.6143 -2.0196
 1438TIP3   OH225872   5.989   1.216   0.613 -0.2544  0.4095 -0.0039
 1438TIP3    H125873   6.068   1.271   0.615 -1.0974  1.8234 -2.1583
 1438TIP3    H225874   6.022   1.126   0.622  1.2865  1.1215  2.1729
 1439TIP3   OH225875   6.291   0.132   3.063  0.5428  0.1310  0.0360
 1439TIP3    H125876   6.323   0.073   2.996  0.0296 -0.7207  0.5228
 1439TIP3    H225877   6.349   0.118   3.138 -0.6648 -1.1371  0.7880
 1440TIP3   OH225878   4.716   1.650   2.191  0.2267  0.9469  0.3921
 1440TIP3    H125879   4.760   1.587   2.135 -2.0460  0.9185 -1.5101
 1440TIP3    H225880   4.756   1.734   2.169  2.5081  0.4035  2.1469
 1441TIP3   OH225881   4.223   0.474   0.418  0.0549 -0.0518 -0.1934
 1441TIP3    H125882   4.146   0.486   0.363  0.2263 -1.7028 -0.8493
 1441TIP3    H225883   4.294   0.454   0.356  0.5358 -0.6343  0.5224
 1442TIP3   OH225884   0.469   6.290   1.433  0.0935  0.2260 -0.5923
 1442TIP3    H125885   0.482   6.298   1.339  0.7287 -1.3698 -0.6739
 1442TIP3    H225886   0.457   6.196   1.448 -0.1513  0.4659  0.8971
 1443TIP3   OH225887   5.544   3.747   0.040 -0.1292 -0.4072  0.5823
 1443TIP3    H125888   5.550   3.653   0.058  0.8240 -0.0506  2.2703
 1443TIP3    H225889   5.517   3.786   0.123  1.5373  1.0196  0.5144
 1444TIP3   OH225890   0.973   5.858   2.072 -0.1881  0.3054 -0.4622
 1444TIP3    H125891   0.924   5.777   2.064 -0.5265  0.5241 -0.6235
 1444TIP3    H225892   1.005   5.876   1.984  1.4888 -0.6385 -0.0810
 1445TIP3   OH225893   5.531   3.498   2.881 -0.2771  0.3982 -0.5625
 1445TIP3    H125894   5.456   3.512   2.824 -0.6347  0.6973 -0.0286
 1445TIP3    H225895   5.510   3.417   2.928 -0.9875  1.2741  0.6893
 1446TIP3   OH225896   1.385   4.840   8.204 -0.2523  0.0649 -0.0703
 1446TIP3    H125897   1.429   4.891   8.136  1.4682  1.9686  2.2788
 1446TIP3    H225898   1.446   4.768   8.222 -1.7728 -1.8383 -2.0064
 1447TIP3   OH225899   1.281   6.255   2.215  0.2983  0.1831 -0.0712
 1447TIP3    H125900   1.189   6.243   2.192  0.4468  0.4777 -0.8519
 1447TIP3    H225901   1.279   6.296   2.302 -0.2911 -0.3478  0.1731
 1448TIP3   OH225902   4.444   0.768   2.356 -0.0355  0.1724 -0.5193
 1448TIP3    H125903   4.364   0.738   2.399  0.6139  0.6982  1.1092
 1448TIP3    H225904   4.462   0.854   2.395  1.4235 -0.0062 -0.7393
 1449TIP3   OH225905   2.097   4.396   0.322  0.0935 -0.2529  0.1022
 1449TIP3    H125906   2.177   4.354   0.355  0.2944  1.3556  1.8567
 1449TIP3    H225907   2.127   4.451   0.250  0.9341  1.5970  1.7762
 1450TIP3   OH225908   5.670   4.317   1.713 -0.1394  0.4341 -0.1434
 1450TIP3    H125909   5.621   4.364   1.645 -0.7795  1.0139  0.7085
 1450TIP3    H225910   5.688   4.231   1.674 -1.5386  0.3308 -0.5998
 1451TIP3   OH225911   2.112   5.439   7.097 -0.6862 -0.3460 -0.2197
 1451TIP3    H125912   2.198   5.451   7.138 -0.6942  0.3532 -0.4004
 1451TIP3    H225913   2.068   5.377   7.155 -0.8302  0.9021  1.0720
 1452TIP3   OH225914   0.411   6.274   0.056 -0.2141 -0.0576 -0.3414
 1452TIP3    H125915   0.503   6.265   0.080  0.6012  2.1375 -2.2560
 1452TIP3    H225916   0.363   6.233   0.128  2.2294 -1.1310  0.7818
 1453TIP3   OH225917   6.142   3.078   2.208  0.4862  0.5435 -0.0735
 1453TIP3    H125918   6.098   3.149   2.254 -1.4392  0.5096 -1.7258
 1453TIP3    H225919   6.099   2.998   2.240  1.6908  0.2088  0.7593
 1454TIP3   OH225920   6.646   0.060   2.130 -0.8209 -0.6127  0.9563
 1454TIP3    H125921   6.673  -0.024   2.093  0.7586 -0.8833  2.5754
 1454TIP3    H225922   6.588   0.037   2.203  1.5627 -0.5567  3.0286
 1455TIP3   OH225923   6.462   1.746   0.858  0.2088 -0.1158 -0.1361
 1455TIP3    H125924   6.452   1.779   0.947  1.6473  0.0053  0.0030
 1455TIP3    H225925   6.453   1.823   0.802  1.0529  0.1139  0.0296
 1456TIP3   OH225926   1.918   4.133   1.101 -0.3834 -0.1473 -0.2038
 1456TIP3    H125927   2.004   4.133   1.143  0.2027 -1.2914 -1.3502
 1456TIP3    H225928   1.868   4.068   1.150 -0.3632 -0.0333 -0.0271
 1457TIP3   OH225929   0.206   1.403   7.429  0.3892  0.4495  0.0516
 1457TIP3    H125930   0.167   1.370   7.510  0.4896 -0.7836 -0.3758
 1457TIP3    H225931   0.172   1.492   7.420  0.0739  0.4627  1.2416
 1458TIP3   OH225932   6.634   4.277   2.249  0.5125  0.1217 -0.1295
 1458TIP3    H125933   6.648   4.355   2.195  2.8679  0.8284  1.3669
 1458TIP3    H225934   6.657   4.305   2.337 -1.7012 -1.4378  1.0375
 1459TIP3   OH225935   1.059   1.950   0.210 -0.1831  0.5039 -0.5552
 1459TIP3    H125936   1.056   1.934   0.305  0.9583  2.1676 -0.2028
 1459TIP3    H225937   1.152   1.953   0.189 -0.3696  2.0881 -1.3330
 1460TIP3   OH225938   6.024   0.577   1.617  0.6203  0.1323 -0.1871
 1460TIP3    H125939   6.119   0.581   1.603  0.4510  0.6571 -1.3499
 1460TIP3    H225940   6.003   0.656   1.665  0.8088 -0.1264  0.3218
 1461TIP3   OH225941   2.148   5.193   1.642  0.3080 -0.6975  0.1629
 1461TIP3    H125942   2.095   5.236   1.575  0.9746  0.2258  0.2006
 1461TIP3    H225943   2.177   5.265   1.700 -0.1819 -1.4538  1.3924
 1462TIP3   OH225944   4.015   0.285   7.949 -0.0692  0.2686 -0.9631
 1462TIP3    H125945   4.015   0.355   8.015  1.9246 -0.8568  0.3217
 1462TIP3    H225946   4.020   0.204   8.000  1.9612 -0.6225 -2.4741
 1463TIP3   OH225947   2.375   0.543   8.710  0.1115 -0.5647 -0.3143
 1463TIP3    H125948   2.328   0.472   8.666 -1.1838 -1.1322  1.8568
 1463TIP3    H225949   2.441   0.499   8.763 -0.7934 -0.2238  1.1621
 1464TIP3   OH225950   3.094   2.187   0.010 -0.3661 -0.3484 -0.1336
 1464TIP3    H125951   3.033   2.189   0.085  0.5182  0.2580  0.5951
 1464TIP3    H225952   3.129   2.276   0.006  1.2175 -0.9288  0.1143
 1465TIP3   OH225953   0.341   0.203   0.232  0.2421 -0.3056 -0.8156
 1465TIP3    H125954   0.356   0.126   0.286 -0.3264  0.6576  0.7693
 1465TIP3    H225955   0.404   0.268   0.264  1.5437 -0.4286 -2.9095
 1466TIP3   OH225956   2.218   1.308   8.011  0.0736 -0.1056  0.4268
 1466TIP3    H125957   2.187   1.374   8.074 -0.3910  0.0720  0.0213
 1466TIP3    H225958   2.313   1.320   8.008 -0.0241  0.6598  0.2336
 1467TIP3   OH225959   0.854   2.604   6.948  0.5541 -0.0084  0.0472
 1467TIP3    H125960   0.892   2.614   7.035 -1.0794 -0.0892  0.7895
 1467TIP3    H225961   0.809   2.520   6.950 -1.4337  0.9961 -0.1004
 1468TIP3   OH225962   1.334   2.312   8.089 -0.4705  0.3066 -0.9759
 1468TIP3    H125963   1.272   2.320   8.161  1.2279 -0.0230  0.5894
 1468TIP3    H225964   1.342   2.218   8.074  1.8140  0.0953  0.9146
 1469TIP3   OH225965   0.628   4.887   7.792  0.3281 -0.3782 -0.8564
 1469TIP3    H125966   0.698   4.852   7.737  0.3903  0.4229 -1.3071
 1469TIP3    H225967   0.548   4.875   7.739  0.6864  2.7301 -2.3463
 1470TIP3   OH225968   2.281   2.083   2.283 -0.4641  0.4330  0.1915
 1470TIP3    H125969   2.211   2.145   2.302  0.0638  0.8486  0.8498
 1470TIP3    H225970   2.358   2.118   2.329  0.5735  0.7688 -1.6865
 1471TIP3   OH225971   0.243   6.430   1.050 -0.0002  0.3615 -0.3004
 1471TIP3    H125972   0.149   6.443   1.037 -0.1349  0.2989  0.5450
 1471TIP3    H225973   0.249   6.378   1.130  0.7289 -0.2600 -0.7527
 1472TIP3   OH225974   5.866   4.354   0.396 -0.5020  0.5505  0.2774
 1472TIP3    H125975   5.843   4.366   0.304 -1.8379  0.0353  0.5195
 1472TIP3    H225976   5.839   4.436   0.437 -1.9466 -0.0184  0.5450
 1473TIP3   OH225977   2.387   4.633   1.919  0.5771 -0.2495  0.6181
 1473TIP3    H125978   2.482   4.643   1.916  0.4932  1.1855  1.6822
 1473TIP3    H225979   2.372   4.539   1.921  2.0624 -0.4960  2.1526
 1474TIP3   OH225980   6.785   6.382   1.342  0.3101  0.2105  0.2329
 1474TIP3    H125981   6.863   6.349   1.297 -0.0844 -0.0624 -0.2684
 1474TIP3    H225982   6.755   6.309   1.395  0.1914  0.1930  0.1432
 1475TIP3   OH225983   1.279   3.068   1.999  0.2334  0.6618  0.3425
 1475TIP3    H125984   1.256   3.006   1.930  1.0417  0.1024  0.5691
 1475TIP3    H225985   1.317   3.015   2.069 -1.1077  1.1405  1.4881
 1476TIP3   OH225986   4.063   0.160   8.271  0.0786  0.5927  0.0093
 1476TIP3    H125987   4.127   0.117   8.328  0.0811  0.5557 -0.0208
 1476TIP3    H225988   4.055   0.101   8.196  0.5143  0.9352 -0.3080
 1477TIP3   OH225989   6.595   1.737   0.441  0.1271  0.1514  0.0123
 1477TIP3    H125990   6.545   1.727   0.360 -0.9022  0.9231  0.5350
 1477TIP3    H225991   6.558   1.671   0.500  2.4400 -2.0590 -0.8261
 1478TIP3   OH225992   0.386   1.811   2.436  0.8226 -0.4574 -0.1872
 1478TIP3    H125993   0.393   1.739   2.372  0.7649 -1.3744  0.8075
 1478TIP3    H225994   0.356   1.768   2.516 -0.5600  0.9014  0.0666
 1479TIP3   OH225995   3.954   1.685   7.596  0.4840  0.0804 -0.7998
 1479TIP3    H125996   3.930   1.716   7.684  1.0880  1.5076 -1.1059
 1479TIP3    H225997   4.007   1.606   7.612  0.4765  0.2449  0.1121
 1480TIP3   OH225998   2.429   1.216   0.770  0.5635 -0.2418  0.0906
 1480TIP3    H125999   2.433   1.120   0.764 -0.6035 -0.3800  1.0569
 1480TIP3    H226000   2.339   1.234   0.799  0.5991  1.1857 -0.5863
 1481TIP3   OH226001   5.942   6.720   0.854 -0.1338 -0.0088  0.3465
 1481TIP3    H126002   5.847   6.708   0.865 -0.4922  0.6815 -1.7206
 1481TIP3    H226003   5.977   6.631   0.849 -0.7704 -0.2615  0.3384
 1482TIP3   OH226004   2.150   4.583   0.808 -0.3188 -0.1583  0.0467
 1482TIP3    H126005   2.231   4.546   0.774 -0.2817  0.0461 -0.0865
 1482TIP3    H226006   2.128   4.654   0.747 -1.6017 -1.4242 -1.0410
 1483TIP3   OH226007   2.642   2.846   0.984  0.5557  0.0338 -0.6066
 1483TIP3    H126008   2.598   2.891   1.056  0.1646 -2.8353  1.0988
 1483TIP3    H226009   2.595   2.874   0.906  0.7663  2.9966  0.2116
 1484TIP3   OH226010   4.270   6.664   8.634  0.4447 -0.0210 -0.6021
 1484TIP3    H126011   4.361   6.662   8.604  0.2890 -1.1511 -1.0358
 1484TIP3    H226012   4.220   6.628   8.561 -0.5320  1.8342 -0.9056
 1485TIP3   OH226013   2.803   2.501   0.162 -0.4196 -0.0636  0.0496
 1485TIP3    H126014   2.862   2.566   0.200 -0.5023  0.6962 -1.0469
 1485TIP3    H226015   2.715   2.539   0.173 -0.5655 -0.4836  0.3415
 1486TIP3   OH226016   2.694   0.155   7.553 -0.3419  0.0825  0.0407
 1486TIP3    H126017   2.661   0.239   7.522 -2.1470  0.5844  3.0101
 1486TIP3    H226018   2.632   0.127   7.621 -0.0447 -3.8867 -1.0610
 1487TIP3   OH226019   6.686   3.923   7.549  0.1145 -0.2819  0.3181
 1487TIP3    H126020   6.642   3.839   7.534  1.0318 -0.3056 -3.2872
 1487TIP3    H226021   6.740   3.909   7.626  0.5661 -3.1873 -0.4176
 1488TIP3   OH226022   3.402   0.691   2.555 -0.0523  0.6926  0.6107
 1488TIP3    H126023   3.409   0.773   2.603  2.0034  0.4977  0.7610
 1488TIP3    H226024   3.443   0.626   2.612 -0.4097 -0.1680 -0.0822
 1489TIP3   OH226025   1.868   6.797   8.012  0.5536 -0.6306 -1.1074
 1489TIP3    H126026   1.817   6.739   7.955 -0.4022 -2.1090  1.0792
 1489TIP3    H226027   1.953   6.755   8.018  0.5941 -0.5768 -1.3141
 1490TIP3   OH226028   5.116   5.618   8.034 -0.3122  0.0795  0.1375
 1490TIP3    H126029   5.144   5.670   8.110  2.3620  1.6331 -1.7391
 1490TIP3    H226030   5.148   5.530   8.052  0.1266  0.3849  0.9010
 1491TIP3   OH226031   6.508   6.631   8.257  0.0390 -0.4481 -0.4483
 1491TIP3    H126032   6.423   6.597   8.285  0.7635 -1.0328  1.1433
 1491TIP3    H226033   6.499   6.726   8.264  0.1960 -0.5504  1.9676
 1492TIP3   OH226034   6.378   3.789   0.437 -0.4021  0.2946 -0.5482
 1492TIP3    H126035   6.464   3.754   0.415 -0.4748 -0.2512  0.0054
 1492TIP3    H226036   6.329   3.714   0.470 -1.0036  0.6533 -0.5965
 1493TIP3   OH226037   4.861   1.020   2.555 -0.1446  0.3461 -0.4769
 1493TIP3    H126038   4.925   1.051   2.491 -0.8496  2.7258 -0.1344
 1493TIP3    H226039   4.913   0.973   2.620  1.1383  1.3575 -0.7345
 1494TIP3   OH226040   0.608   4.369   0.325  0.3342 -0.4993 -0.0940
 1494TIP3    H126041   0.613   4.465   0.330  0.9683 -0.5177 -0.2667
 1494TIP3    H226042   0.549   4.344   0.396 -0.1801  0.0491 -0.3230
 1495TIP3   OH226043   0.527   2.630   0.051  0.3191 -0.0073 -0.2915
 1495TIP3    H126044   0.513   2.724   0.042 -1.2306 -0.3106 -1.2573
 1495TIP3    H226045   0.569   2.620   0.137  2.3269  1.7068 -0.9782
 1496TIP3   OH226046   4.056   0.293   1.861  0.2632  0.2047  0.1542
 1496TIP3    H126047   4.075   0.220   1.921  1.0314  1.0570  0.9781
 1496TIP3    H226048   4.123   0.359   1.882 -0.9358  1.4963  0.0221
 1497TIP3   OH226049   2.976   1.153   0.705 -0.9526 -0.2206  0.0629
 1497TIP3    H126050   2.913   1.081   0.706  0.1968 -1.2589 -0.0972
 1497TIP3    H226051   2.956   1.202   0.785 -1.6292 -0.8146  0.2776
 1498TIP3   OH226052   6.427   4.909   2.331  0.3250  0.4900 -0.6127
 1498TIP3    H126053   6.392   4.879   2.415  1.1028 -2.4922 -1.2472
 1498TIP3    H226054   6.351   4.914   2.274  0.1591 -0.3693 -0.4815
 1499TIP3   OH226055   6.133   1.429   8.689 -0.4711 -0.2001  0.0618
 1499TIP3    H126056   6.081   1.357   8.724 -0.1113 -0.6577 -0.3358
 1499TIP3    H226057   6.206   1.387   8.644  0.0980  0.4316  0.3863
 1500TIP3   OH226058   5.984   4.928   7.829 -0.5399  0.3090 -0.1288
 1500TIP3    H126059   6.005   4.864   7.761 -2.0441  0.2918 -0.5995
 1500TIP3    H226060   6.058   4.989   7.828  0.3014 -0.6899 -0.5431
 1501TIP3   OH226061   4.308   3.461   2.332 -0.0316  0.0045  0.2892
 1501TIP3    H126062   4.381   3.459   2.271 -0.9108  1.8047 -0.9050
 1501TIP3    H226063   4.337   3.408   2.406  2.9252  1.5220  0.3504
 1502TIP3   OH226064   5.148   5.999   2.559 -0.5268 -0.1532 -0.4591
 1502TIP3    H126065   5.224   6.004   2.501  1.1068 -1.2989  1.4616
 1502TIP3    H226066   5.073   6.000   2.500  0.9636  0.4736 -2.4687
 1503TIP3   OH226067   4.897   5.824   8.208  0.3748  0.5437  0.2418
 1503TIP3    H126068   4.806   5.849   8.224  0.7603  1.4804  1.1137
 1503TIP3    H226069   4.948   5.901   8.236  1.5351 -0.6607  1.5889
 1504TIP3   OH226070   4.356   3.211   1.078  0.4552 -0.9389 -0.5103
 1504TIP3    H126071   4.306   3.285   1.112 -0.3856 -0.9974 -1.5691
 1504TIP3    H226072   4.394   3.170   1.156 -1.3099 -1.0158  0.3616
 1505TIP3   OH226073   4.508   6.178   7.910  0.3150  0.8772 -0.0337
 1505TIP3    H126074   4.435   6.126   7.876  0.3751  0.8463 -0.1167
 1505TIP3    H226075   4.583   6.150   7.858  1.0012 -1.1314  1.8524
 1506TIP3   OH226076   5.969   6.377   8.243 -0.3708  0.0857  0.1874
 1506TIP3    H126077   6.001   6.324   8.316  1.1207  2.4989  1.3803
 1506TIP3    H226078   5.907   6.438   8.282  0.3340  1.3211 -0.5646
 1507TIP3   OH226079   1.594   0.481   1.973  0.0509  0.7824 -0.4407
 1507TIP3    H126080   1.508   0.457   2.006 -0.3167  1.9271 -0.5323
 1507TIP3    H226081   1.638   0.523   2.047  1.2644 -1.4498  0.1926
 1508TIP3   OH226082   6.379   4.113   1.647 -0.3176  0.7570 -0.0889
 1508TIP3    H126083   6.393   4.199   1.606  1.1523  0.4384 -0.3052
 1508TIP3    H226084   6.371   4.053   1.574  0.2024  0.4911  0.0695
 1509TIP3   OH226085   1.058   1.219   7.126  0.2964 -0.3186  0.5187
 1509TIP3    H126086   1.132   1.236   7.183  1.1160  2.1521 -1.0932
 1509TIP3    H226087   0.984   1.263   7.169  0.9181  1.5729 -0.2496
 1510TIP3   OH226088   1.874   5.785   2.776  0.5964 -0.7368 -0.2995
 1510TIP3    H126089   1.793   5.789   2.826  0.7384 -0.6186 -0.0818
 1510TIP3    H226090   1.867   5.703   2.727  0.0158 -0.3703 -0.8497
 1511TIP3   OH226091   4.725   6.558   1.313 -0.2289  0.5223 -0.2688
 1511TIP3    H126092   4.738   6.578   1.406  1.9776  0.0422 -0.4192
 1511TIP3    H226093   4.813   6.565   1.275 -1.0837  0.6890 -2.3264
 1512TIP3   OH226094   5.996   5.948   0.804  0.1527 -0.1759  0.0662
 1512TIP3    H126095   5.984   5.853   0.804  0.4727 -0.2185  0.1219
 1512TIP3    H226096   6.091   5.960   0.793  0.3577  0.1007  1.8929
 1513TIP3   OH226097   2.874   0.937   0.029 -0.5869 -0.0138 -0.3604
 1513TIP3    H126098   2.879   0.900  -0.059 -1.0846  3.1099 -1.8410
 1513TIP3    H226099   2.960   0.920   0.067 -1.0972 -3.5226 -0.3849
 1514TIP3   OH226100   3.209   0.865   1.542 -0.5626 -0.5272  0.0618
 1514TIP3    H126101   3.263   0.790   1.518  0.2858  0.5940 -1.7177
 1514TIP3    H226102   3.138   0.865   1.477  0.0004  0.7655 -0.5725
 1515TIP3   OH226103   0.691   0.997   2.105  0.6965 -0.4583  0.0810
 1515TIP3    H126104   0.746   1.074   2.121 -1.4029  0.7888  1.9104
 1515TIP3    H226105   0.642   1.019   2.026 -1.7542  1.4152  1.9258
 1516TIP3   OH226106   5.227   0.809   0.078 -0.2301  0.4346  0.1968
 1516TIP3    H126107   5.226   0.852  -0.008 -0.4230 -0.3067 -0.1870
 1516TIP3    H226108   5.198   0.876   0.139 -0.7249  0.7913 -0.4148
 1517TIP3   OH226109   2.050   5.559   8.275  0.6488 -0.2477  0.0974
 1517TIP3    H126110   2.012   5.562   8.362 -0.2702 -0.0011 -0.3003
 1517TIP3    H226111   2.096   5.475   8.271  1.3126  0.0620  1.0585
 1518TIP3   OH226112   3.454   4.828   0.603 -0.2589  0.3322 -0.1902
 1518TIP3    H126113   3.371   4.796   0.638 -0.6141  0.9894 -0.4103
 1518TIP3    H226114   3.501   4.749   0.576 -0.9913 -0.0206 -0.4636
 1519TIP3   OH226115   4.324   2.288   2.130  0.6111 -0.2910  0.6116
 1519TIP3    H126116   4.279   2.372   2.137 -0.3922 -0.6828 -0.6328
 1519TIP3    H226117   4.385   2.299   2.057  1.0549 -0.3976  0.9656
 1520TIP3   OH226118   6.194   6.221   8.129 -0.3701 -0.4385  0.7223
 1520TIP3    H126119   6.274   6.219   8.181  0.4858  0.2646 -0.5168
 1520TIP3    H226120   6.147   6.299   8.159  0.5531  0.4789 -0.1487
 1521TIP3   OH226121   6.165   6.567   1.187  0.6334  0.2645  0.4830
 1521TIP3    H126122   6.156   6.473   1.171  2.0866  0.4263 -1.9756
 1521TIP3    H226123   6.076   6.599   1.198  0.1561 -1.4529  1.9945
 1522TIP3   OH226124   3.986   0.305   8.530 -0.8737  1.0190  0.0917
 1522TIP3    H126125   4.066   0.342   8.494  1.6686 -2.3940  1.6064
 1522TIP3    H226126   3.959   0.239   8.466 -1.0473  0.5195  0.6672
 1523TIP3   OH226127   3.191   2.788   8.465 -0.8534  0.3766 -0.2750
 1523TIP3    H126128   3.261   2.768   8.404 -0.7689 -2.4129  0.5801
 1523TIP3    H226129   3.110   2.765   8.418 -0.9111 -0.0514  0.0254
 1524TIP3   OH226130   6.111   1.117   0.067 -0.3278  0.3065  0.5478
 1524TIP3    H126131   6.199   1.108   0.104 -0.7854 -0.6845  1.4862
 1524TIP3    H226132   6.107   1.048   0.000 -0.6313 -0.1671  1.0431
 1525TIP3   OH226133   5.240   2.790   7.460 -0.0986  0.0663  0.0086
 1525TIP3    H126134   5.233   2.847   7.536 -1.6277 -0.6806  0.4641
 1525TIP3    H226135   5.161   2.736   7.463 -1.3595  1.4528 -3.2619
 1526TIP3   OH226136   2.533   2.080   2.563 -0.5157 -0.7451 -0.4321
 1526TIP3    H126137   2.453   2.062   2.613 -1.4146 -1.4365 -2.0622
 1526TIP3    H226138   2.504   2.131   2.488  0.9935  1.2845  0.2618
 1527TIP3   OH226139   4.367   5.791   0.022 -0.3371  0.3741 -0.4267
 1527TIP3    H126140   4.361   5.791   0.117  0.0850  0.3019 -0.3968
 1527TIP3    H226141   4.302   5.855  -0.007  0.7676  1.7350 -0.0112
 1528TIP3   OH226142   1.671   1.314   2.049  0.1984  0.1607  0.3336
 1528TIP3    H126143   1.589   1.359   2.029 -1.0273 -0.7864  2.7684
 1528TIP3    H226144   1.719   1.313   1.966 -1.4398  2.3357 -0.7354
 1529TIP3   OH226145   2.262   0.573   7.430  0.3929 -0.7623  0.1462
 1529TIP3    H126146   2.187   0.566   7.371  0.1120  1.5453  0.1728
 1529TIP3    H226147   2.337   0.551   7.374 -0.0765 -0.7294 -0.5157
 1530TIP3   OH226148   1.796   5.224   0.416 -0.2883  0.3368 -0.2472
 1530TIP3    H126149   1.819   5.248   0.326 -1.6322 -0.1715 -0.7479
 1530TIP3    H226150   1.700   5.229   0.418 -0.4829 -2.4489  0.3220
 1531TIP3   OH226151   1.032   5.736   8.641  0.3306 -0.3507  0.0197
 1531TIP3    H126152   1.045   5.706   8.731  0.2469  0.7735  0.4149
 1531TIP3    H226153   1.119   5.764   8.613  0.5480 -1.5546 -0.5914
 1532TIP3   OH226154   6.269   5.110   1.389  0.4996  0.4116 -0.3905
 1532TIP3    H126155   6.273   5.160   1.470  2.1561 -0.8748  0.3846
 1532TIP3    H226156   6.300   5.170   1.322 -0.4773  1.3584 -0.0261
 1533TIP3   OH226157   3.412   0.528   7.824  0.2563 -0.1529  0.3084
 1533TIP3    H126158   3.352   0.458   7.800  0.2143  0.5238 -1.8314
 1533TIP3    H226159   3.499   0.490   7.814  0.2240 -0.0900 -0.2460
 1534TIP3   OH226160   6.276   6.162   2.694  0.7535 -0.4197 -0.0596
 1534TIP3    H126161   6.329   6.160   2.773  0.3392  0.5023  0.2558
 1534TIP3    H226162   6.185   6.159   2.725  0.5548 -3.4216 -0.6386
 1535TIP3   OH226163   1.418   2.134   7.701 -0.3375  0.1202 -0.1577
 1535TIP3    H126164   1.470   2.061   7.736  0.5000  0.5169 -0.5504
 1535TIP3    H226165   1.426   2.125   7.606  2.6312  2.6403 -0.2975
 1536TIP3   OH226166   6.376   1.282   1.034  0.5781 -0.4661 -0.1712
 1536TIP3    H126167   6.351   1.207   0.980  0.5866  0.1568 -1.0635
 1536TIP3    H226168   6.349   1.258   1.122 -1.5973 -0.5517 -0.8036
 1537TIP3   OH226169   1.267   0.782   1.842  0.3763 -0.6422  0.4066
 1537TIP3    H126170   1.218   0.737   1.911 -1.8178  0.5150 -0.2716
 1537TIP3    H226171   1.228   0.869   1.839  1.7214 -0.0491 -1.0244
 1538TIP3   OH226172   5.853   0.344   1.540  0.2550  0.1689 -0.4809
 1538TIP3    H126173   5.825   0.374   1.454  1.3102 -1.2467 -1.3451
 1538TIP3    H226174   5.922   0.406   1.566  0.3596  0.2369 -0.9219
 1539TIP3   OH226175   0.972   6.247   2.940 -0.0339 -0.4583 -0.2429
 1539TIP3    H126176   0.895   6.219   2.891  0.5348 -1.2661 -0.6945
 1539TIP3    H226177   0.972   6.342   2.931 -0.8895 -0.4568 -0.3633
 1540TIP3   OH226178   0.285   6.080   0.777  0.5561  0.1121  0.1134
 1540TIP3    H126179   0.265   6.002   0.829  0.2049  2.1835  3.4093
 1540TIP3    H226180   0.374   6.065   0.744 -0.2850 -2.5040 -1.2567
 1541TIP3   OH226181   0.328   5.012   0.552 -0.8177  0.1550 -0.3462
 1541TIP3    H126182   0.249   5.018   0.499 -1.2804  0.1798  0.3260
 1541TIP3    H226183   0.342   4.918   0.563 -1.3878  0.1477  0.4318
 1542TIP3   OH226184   1.082   2.772   7.856 -0.2028  0.6058  0.5494
 1542TIP3    H126185   1.063   2.738   7.769 -0.3544  0.9204  0.4601
 1542TIP3    H226186   1.034   2.854   7.861  0.6047  1.0848  0.5606
 1543TIP3   OH226187   2.405   5.751   2.253  0.8296  0.6054  0.3125
 1543TIP3    H126188   2.364   5.830   2.289 -1.3451 -1.4189  2.7290
 1543TIP3    H226189   2.340   5.716   2.193  0.8872 -0.3749  0.8081
 1544TIP3   OH226190   4.777   1.576   6.989  0.0699  0.4778 -0.0815
 1544TIP3    H126191   4.756   1.497   7.038 -2.9050 -0.1307 -2.0750
 1544TIP3    H226192   4.863   1.559   6.950  0.6039 -0.6821  1.5385
 1545TIP3   OH226193   1.965   4.839   1.527 -0.4743 -0.0476 -0.1354
 1545TIP3    H126194   1.879   4.816   1.492 -1.3199 -0.5494  2.1316
 1545TIP3    H226195   1.946   4.893   1.603  1.2730  0.6615 -0.1593
 1546TIP3   OH226196   4.764   1.329   0.110  1.0359 -0.5288 -0.0076
 1546TIP3    H126197   4.779   1.409   0.059 -1.1564 -0.4224 -0.5922
 1546TIP3    H226198   4.738   1.264   0.044 -3.5136  0.0333  0.9289
 1547TIP3   OH226199   4.632   2.425   1.033 -0.2094  0.2463 -0.4969
 1547TIP3    H126200   4.723   2.430   1.061 -0.6306  0.2055  0.9499
 1547TIP3    H226201   4.635   2.377   0.950  0.9334 -1.1395  0.3055
 1548TIP3   OH226202   6.023   4.459   2.061 -0.2703 -0.5535 -0.4972
 1548TIP3    H126203   6.087   4.390   2.040 -1.6707 -2.0261 -0.1619
 1548TIP3    H226204   6.072   4.523   2.112  0.9751 -1.5794 -0.3527
 1549TIP3   OH226205   2.031   1.006   8.141  0.5815  0.7875 -0.4348
 1549TIP3    H126206   2.095   0.950   8.184 -0.3137  0.4952  0.5753
 1549TIP3    H226207   2.029   1.085   8.194  1.1379  1.3822 -1.2939
 1550TIP3   OH226208   5.418   4.833   7.049  0.6567 -0.3885 -0.5662
 1550TIP3    H126209   5.418   4.929   7.041 -0.2345 -0.2190  0.9978
 1550TIP3    H226210   5.336   4.805   7.009 -1.4539  0.0267  2.9680
 1551TIP3   OH226211   5.631   1.474   7.707  0.1628  1.1353  0.1478
 1551TIP3    H126212   5.539   1.476   7.679  0.5148 -0.6296 -1.3023
 1551TIP3    H226213   5.634   1.533   7.782 -2.2858  0.7647  0.6239
 1552TIP3   OH226214   0.460   2.515   0.694 -0.5210 -0.1722  0.5603
 1552TIP3    H126215   0.392   2.552   0.638  0.9676  0.8399 -0.6804
 1552TIP3    H226216   0.506   2.453   0.638  0.5949  0.3848  0.8204
 1553TIP3   OH226217   6.512   5.535   0.208  0.0503  0.1501  0.8457
 1553TIP3    H126218   6.557   5.600   0.154 -0.9252  0.2698  0.1459
 1553TIP3    H226219   6.548   5.451   0.180 -0.1680  0.2437  0.2750
 1554TIP3   OH226220   1.345   0.451   2.055 -1.0447 -0.2354  0.5167
 1554TIP3    H126221   1.290   0.420   1.983  1.9007 -0.6095 -1.7348
 1554TIP3    H226222   1.341   0.381   2.120 -0.9751 -1.5851 -0.8815
 1555TIP3   OH226223   6.647   1.614   8.640  0.1860  0.3189  0.0131
 1555TIP3    H126224   6.578   1.621   8.574 -0.1624  0.8110  0.4207
 1555TIP3    H226225   6.703   1.691   8.625  0.9165 -0.3122 -0.6042
 1556TIP3   OH226226   4.052   0.962   1.502 -0.3287  0.2624  0.3928
 1556TIP3    H126227   4.146   0.957   1.517 -0.5909 -3.4937  1.8904
 1556TIP3    H226228   4.016   0.887   1.548 -4.2272  1.9768  0.5637
 1557TIP3   OH226229   1.819   1.710   1.545  0.0432  0.9315  0.3192
 1557TIP3    H126230   1.784   1.689   1.632 -1.2581  0.5247 -0.2717
 1557TIP3    H226231   1.857   1.627   1.515 -1.3555  0.4860 -0.3119
 1558TIP3   OH226232   1.042   5.047   0.957  0.3115 -0.5838  0.0233
 1558TIP3    H126233   1.024   5.047   0.863 -1.8091 -0.6655  0.3810
 1558TIP3    H226234   0.975   5.104   0.995  2.3904  1.1317  1.3150
 1559TIP3   OH226235   2.532   0.296   0.630 -0.0281  0.2591 -0.2328
 1559TIP3    H126236   2.575   0.264   0.551 -0.7247 -2.3277  0.3322
 1559TIP3    H226237   2.603   0.335   0.682  0.7653  0.2620 -1.2809
 1560TIP3   OH226238   3.931   3.896   7.719  0.1199 -0.1473 -0.4346
 1560TIP3    H126239   4.015   3.864   7.685 -0.4843 -2.0620 -0.2714
 1560TIP3    H226240   3.885   3.930   7.642  0.7927  0.3463 -0.6248
 1561TIP3   OH226241   1.525   0.677   8.082 -0.0234  0.0143  0.0758
 1561TIP3    H126242   1.434   0.700   8.065  0.8286  1.9320 -2.4717
 1561TIP3    H226243   1.575   0.723   8.014  2.7357 -2.1409  0.4590
 1562TIP3   OH226244   1.114   1.685   8.321 -0.1468  0.3718  0.3269
 1562TIP3    H126245   1.205   1.696   8.296 -0.2017  0.1196  0.0074
 1562TIP3    H226246   1.069   1.664   8.239 -0.2071 -1.2336  0.7395
 1563TIP3   OH226247   5.483   4.760   7.955  0.2908 -0.2264  0.3445
 1563TIP3    H126248   5.475   4.852   7.929  0.4064 -0.2455  0.2441
 1563TIP3    H226249   5.440   4.711   7.885  1.9575 -0.3841 -0.6121
 1564TIP3   OH226250   4.352   1.539   0.770  0.2739  0.4077 -0.1137
 1564TIP3    H126251   4.356   1.445   0.754  1.4606  0.5790 -0.9631
 1564TIP3    H226252   4.357   1.578   0.683  2.1521  1.2796  0.3280
 1565TIP3   OH226253   5.169   3.770   8.575 -0.2902  0.3894  0.2085
 1565TIP3    H126254   5.222   3.696   8.548 -0.6704 -0.7066  2.2177
 1565TIP3    H226255   5.223   3.847   8.556  0.6358 -0.4737 -0.7722
 1566TIP3   OH226256   6.687   6.274   8.225  0.3277 -0.1049  0.5442
 1566TIP3    H126257   6.753   6.297   8.160  0.9552  1.3820  1.6505
 1566TIP3    H226258   6.726   6.298   8.309 -1.4767  0.5537  1.2639
 1567TIP3   OH226259   3.507   3.660   2.224  0.1358  0.7335 -0.1956
 1567TIP3    H126260   3.555   3.715   2.286  0.2900  1.7565 -1.1729
 1567TIP3    H226261   3.437   3.717   2.192  0.5286  0.5199 -1.5147
 1568TIP3   OH226262   1.592   2.650   2.071 -0.2622  0.4892  0.4099
 1568TIP3    H126263   1.676   2.605   2.064 -0.2890  0.4772  0.1602
 1568TIP3    H226264   1.554   2.617   2.152 -1.0140 -1.1987 -0.5729
 1569TIP3   OH226265   3.023   6.678   2.210  0.2246 -0.1143  0.4513
 1569TIP3    H126266   2.951   6.616   2.217  0.0789  0.2439  3.1283
 1569TIP3    H226267   3.080   6.658   2.284  0.4344  2.5419  1.1259
 1570TIP3   OH226268   4.743   4.702   1.219 -0.1457 -0.0434 -0.3044
 1570TIP3    H126269   4.701   4.776   1.175 -0.0484  0.1346 -0.1014
 1570TIP3    H226270   4.818   4.680   1.163  0.4126  0.6568  0.1378
 1571TIP3   OH226271   6.363   1.475   0.152  0.0373 -0.4868  0.3763
 1571TIP3    H126272   6.295   1.456   0.087  0.9310  0.9544 -1.0493
 1571TIP3    H226273   6.329   1.437   0.233 -0.9710 -2.6379 -0.9608
 1572TIP3   OH226274   2.279   1.423   8.411 -0.4227  0.7044 -0.1718
 1572TIP3    H126275   2.235   1.406   8.494  0.5099  2.0237  0.6344
 1572TIP3    H226276   2.351   1.360   8.408 -0.2900  0.8431  0.1497
 1573TIP3   OH226277   0.476   1.523   1.884  0.0251 -0.6543  0.1036
 1573TIP3    H126278   0.489   1.618   1.884  0.8145 -0.7005 -2.5802
 1573TIP3    H226279   0.382   1.512   1.875  0.0872 -0.0541 -1.6251
 1574TIP3   OH226280   5.797   4.187   1.203 -0.4730  0.3597  0.1833
 1574TIP3    H126281   5.888   4.199   1.177 -1.4543  0.7744 -3.6449
 1574TIP3    H226282   5.779   4.259   1.262  1.0460  1.7868 -0.9938
 1575TIP3   OH226283   5.088   1.380   0.428 -0.8062  0.0318 -0.1794
 1575TIP3    H126284   5.001   1.340   0.421 -1.0574  0.7299 -1.3947
 1575TIP3    H226285   5.071   1.474   0.420  0.0754  0.1650 -0.5448
 1576TIP3   OH226286   2.019   1.921   1.464 -0.3483  0.3420  0.2776
 1576TIP3    H126287   1.962   1.844   1.465  1.2858 -0.9628 -1.0045
 1576TIP3    H226288   1.964   1.992   1.431 -1.1347 -0.9734 -1.3947
 1577TIP3   OH226289   1.763   0.220   1.692 -0.4558  0.5078 -0.1103
 1577TIP3    H126290   1.728   0.306   1.669  0.6906  1.1125  0.3242
 1577TIP3    H226291   1.858   0.229   1.683 -0.4199 -1.4888 -2.6212
 1578TIP3   OH226292   0.980   1.293   0.748  0.3022  0.3773  0.3082
 1578TIP3    H126293   0.908   1.326   0.802 -0.3486  2.4468 -1.6336
 1578TIP3    H226294   0.936   1.250   0.675  0.9454  1.9028 -1.0472
 1579TIP3   OH226295   3.931   0.140   2.243  0.5096  0.1647 -0.3076
 1579TIP3    H126296   3.835   0.138   2.236  0.5419 -0.1411 -0.6221
 1579TIP3    H226297   3.947   0.200   2.316  0.0881  0.4684 -0.4583
 1580TIP3   OH226298   3.527   6.722   7.864  0.1340 -0.2516 -0.6867
 1580TIP3    H126299   3.555   6.774   7.789 -0.6028  0.2317 -0.6303
 1580TIP3    H226300   3.442   6.757   7.888 -0.0525 -1.0107 -0.1921
 1581TIP3   OH226301   6.364   4.017   1.061  0.4379  0.2340 -0.0988
 1581TIP3    H126302   6.436   4.080   1.055 -0.8497  1.6352 -2.1496
 1581TIP3    H226303   6.375   3.960   0.985 -0.1445 -0.0637  0.0284
 1582TIP3   OH226304   0.017   6.779   7.665  0.7315 -0.3248  0.1610
 1582TIP3    H126305   0.080   6.728   7.614  2.1246  2.5575 -1.2967
 1582TIP3    H226306   0.057   6.785   7.752  1.0368 -0.9067  0.0656
 1583TIP3   OH226307   6.698   3.484   8.613 -0.2702 -0.6976  0.0242
 1583TIP3    H126308   6.753   3.529   8.549 -0.4161 -1.7806 -0.9044
 1583TIP3    H226309   6.753   3.413   8.646  0.0060  0.2042  1.5734
 1584TIP3   OH226310   1.466   6.189   0.299  0.3525  0.6609  0.4905
 1584TIP3    H126311   1.386   6.157   0.340  0.3925 -2.1773 -1.3456
 1584TIP3    H226312   1.536   6.164   0.359  0.2794 -2.0828 -0.4098
 1585TIP3   OH226313   5.015   6.691   2.178  0.6074 -0.4999 -0.1533
 1585TIP3    H126314   4.999   6.610   2.130 -2.4965 -0.1454  0.0882
 1585TIP3    H226315   4.992   6.761   2.116 -1.1860  0.0069  0.9975
 1586TIP3   OH226316   6.165   4.551   0.781  0.0116 -0.2767 -0.1591
 1586TIP3    H126317   6.083   4.577   0.740  1.0390  1.2545 -1.3875
 1586TIP3    H226318   6.164   4.455   0.780 -1.9255 -0.2977  0.2853
 1587TIP3   OH226319   0.950   1.747   1.128 -0.8318  0.2439  0.2086
 1587TIP3    H126320   1.032   1.726   1.083 -0.3222 -0.1263  1.2721
 1587TIP3    H226321   0.884   1.748   1.059 -0.1765 -0.8654 -0.4650
 1588TIP3   OH226322   0.389   6.279   8.044 -0.3368  0.1668  0.2464
 1588TIP3    H126323   0.429   6.333   7.976  0.4393 -1.4512 -0.6391
 1588TIP3    H226324   0.333   6.219   7.996  1.7850 -2.3909  0.7548
 1589TIP3   OH226325   4.315   0.173   0.867 -0.2658 -0.3318  0.0872
 1589TIP3    H126326   4.401   0.131   0.866 -0.5576 -0.9268 -0.0278
 1589TIP3    H226327   4.298   0.195   0.776 -0.2473 -0.2268  0.1083
 1590TIP3   OH226328   3.440   3.513   1.567  0.2580  0.2926 -0.1002
 1590TIP3    H126329   3.529   3.544   1.551  0.6498 -1.4432 -1.5364
 1590TIP3    H226330   3.419   3.458   1.492 -0.8536 -1.8707  1.6497
 1591TIP3   OH226331   0.145   1.797   8.715  0.2413 -0.0760  0.0648
 1591TIP3    H126332   0.137   1.813   8.809  0.2500  0.5541 -0.0362
 1591TIP3    H226333   0.201   1.868   8.684 -0.0611 -0.0678 -0.4718
 1592TIP3   OH226334   1.517   4.274   3.075  0.3080 -0.0573 -0.4281
 1592TIP3    H126335   1.569   4.318   3.007 -0.7617  0.7892 -0.7149
 1592TIP3    H226336   1.564   4.292   3.156  2.0176 -1.6949 -0.9765
 1593TIP3   OH226337   1.314   5.411   1.729  0.1000 -0.1268 -0.2649
 1593TIP3    H126338   1.402   5.399   1.765  0.5802 -0.7592 -1.5620
 1593TIP3    H226339   1.284   5.495   1.765  0.7475 -0.4617  1.1237
 1594TIP3   OH226340   3.065   6.812   1.842  0.3914  0.6508  0.3992
 1594TIP3    H126341   3.039   6.726   1.808  0.1074  1.5371 -1.8371
 1594TIP3    H226342   3.000   6.873   1.805  2.3515  2.2118 -0.6791
 1595TIP3   OH226343   1.592   2.014   3.016 -0.4795  0.3877  0.0598
 1595TIP3    H126344   1.630   1.932   3.047 -1.7322 -1.2537 -2.4376
 1595TIP3    H226345   1.548   1.991   2.934 -2.0804  3.2937 -0.0283
 1596TIP3   OH226346   0.749   0.919   7.873  0.2274  0.3147 -0.1716
 1596TIP3    H126347   0.752   0.857   7.946  0.8815  1.5077  0.8558
 1596TIP3    H226348   0.792   0.872   7.800  0.4507 -0.5391  0.4925
 1597TIP3   OH226349   0.314   1.792   1.124  0.7606 -0.7975 -0.3284
 1597TIP3    H126350   0.236   1.830   1.084  0.3453 -1.7431 -0.4330
 1597TIP3    H226351   0.283   1.712   1.166  1.2136  0.0263  1.7119
 1598TIP3   OH226352   6.369   6.158   0.911 -0.5406 -0.3067 -0.1521
 1598TIP3    H126353   6.462   6.180   0.905 -0.8378  1.4897  1.0586
 1598TIP3    H226354   6.359   6.079   0.858  1.7925 -0.9176  0.2306
 1599TIP3   OH226355   4.331   4.163   0.580  0.4843 -1.1098 -0.2906
 1599TIP3    H126356   4.298   4.083   0.620  0.7169 -0.6335  0.9209
 1599TIP3    H226357   4.328   4.228   0.651 -2.5135  0.7916 -1.9693
 1600TIP3   OH226358   2.767   0.727   7.705 -0.2747  0.0831  0.1245
 1600TIP3    H126359   2.736   0.660   7.644  0.2224 -0.5462  0.5543
 1600TIP3    H226360   2.781   0.680   7.787  1.7109  0.3311 -0.0139
 1601TIP3   OH226361   6.085   4.759   1.876  0.0664  0.0518  0.2014
 1601TIP3    H126362   6.107   4.666   1.868  1.1323  0.2878  0.2265
 1601TIP3    H226363   6.169   4.804   1.866  0.2480  0.8507  4.0184
 1602TIP3   OH226364   2.399   6.318   0.483 -0.0796 -0.1435  0.5971
 1602TIP3    H126365   2.406   6.342   0.576 -0.8307  0.6014  0.4696
 1602TIP3    H226366   2.469   6.368   0.440 -0.2805  0.1755  0.6405
 1603TIP3   OH226367   1.213   6.065   0.747  0.7083 -0.5623  0.0269
 1603TIP3    H126368   1.158   6.010   0.691  0.5830 -1.8802  1.3703
 1603TIP3    H226369   1.292   6.081   0.696  0.6355 -1.7993 -0.4999
 1604TIP3   OH226370   1.447   5.138   0.820  0.5894 -0.1709  0.7303
 1604TIP3    H126371   1.523   5.104   0.773  1.0035  0.9009  0.5795
 1604TIP3    H226372   1.475   5.224   0.851 -1.0112  0.8726 -0.5456
 1605TIP3   OH226373   0.784   0.404   0.541  0.1526 -0.0676 -0.1253
 1605TIP3    H126374   0.698   0.369   0.520  1.1005 -1.4434 -2.0272
 1605TIP3    H226375   0.835   0.328   0.570  0.6297  0.8065  1.4774
 1606TIP3   OH226376   1.744   4.426   7.622  0.0583 -0.4193 -0.7672
 1606TIP3    H126377   1.812   4.471   7.672  0.8736 -1.9097 -0.4648
 1606TIP3    H226378   1.709   4.362   7.683  0.5620 -1.7743 -1.8490
 1607TIP3   OH226379   4.603   2.519   8.416  0.3782 -0.4259 -0.2408
 1607TIP3    H126380   4.601   2.526   8.321  0.7816 -0.9855 -0.2996
 1607TIP3    H226381   4.521   2.476   8.439 -0.4131  1.0639 -0.1929
 1608TIP3   OH226382   6.346   2.840   2.223  0.1572  0.1610  0.1727
 1608TIP3    H126383   6.265   2.832   2.275 -0.8730  1.0326 -1.2417
 1608TIP3    H226384   6.410   2.787   2.271 -0.8749  0.5369  2.0624
 1609TIP3   OH226385   6.293   3.839   1.857 -0.2647  0.8007  0.2929
 1609TIP3    H126386   6.222   3.844   1.793 -0.0554  2.2263  0.1406
 1609TIP3    H226387   6.271   3.905   1.923 -0.2193 -0.2950  1.4452
 1610TIP3   OH226388   2.721   2.886   0.395 -0.6037 -0.8150  0.4169
 1610TIP3    H126389   2.650   2.945   0.370 -2.7136 -1.5432  4.0449
 1610TIP3    H226390   2.795   2.945   0.411 -0.9550  0.1872 -1.2983
 1611TIP3   OH226391   3.060   4.056   1.597  0.0927  0.0405  0.4401
 1611TIP3    H126392   3.023   4.027   1.514 -0.0194  0.5119  0.3207
 1611TIP3    H226393   3.000   4.124   1.628  1.0529  1.1173  0.0419
 1612TIP3   OH226394   1.581   4.929   0.070  0.2940 -0.7666  0.1887
 1612TIP3    H126395   1.657   4.960   0.020  0.5343 -1.6738 -0.0134
 1612TIP3    H226396   1.520   5.003   0.067  0.8574 -0.3036 -0.2856
 1613TIP3   OH226397   3.496   0.648   2.985  0.0686 -0.2576  0.2947
 1613TIP3    H126398   3.463   0.581   2.924 -0.1162 -0.0624  0.1793
 1613TIP3    H226399   3.499   0.603   3.069  0.3179 -0.5271  0.1440
 1614TIP3   OH226400   1.361   3.831   1.339  0.4126  0.0024  0.0315
 1614TIP3    H126401   1.284   3.871   1.381 -0.4212  0.3809 -1.7712
 1614TIP3    H226402   1.370   3.746   1.383 -1.4379 -0.3174 -0.1205
 1615TIP3   OH226403   5.880   5.365   2.062  0.7696  0.0531  0.2570
 1615TIP3    H126404   5.805   5.332   2.011  2.5977 -2.2645 -1.1149
 1615TIP3    H226405   5.865   5.460   2.067 -2.0450 -0.2601 -0.2408
 1616TIP3   OH226406   4.461   1.886   2.845 -0.0502 -0.4959  0.1876
 1616TIP3    H126407   4.384   1.899   2.900 -1.6812 -0.4137 -1.9611
 1616TIP3    H226408   4.532   1.866   2.906 -1.3962  0.9864  2.3687
 1617TIP3   OH226409   5.648   1.792   7.522  0.6649 -0.0749  0.2760
 1617TIP3    H126410   5.621   1.705   7.493  1.2228 -0.5622  1.1814
 1617TIP3    H226411   5.605   1.852   7.461 -0.9665 -0.9048  0.5612
 1618TIP3   OH226412   1.146   0.680   2.101  0.0531  0.0468  0.1528
 1618TIP3    H126413   1.204   0.604   2.104  1.2277  0.8036 -1.8512
 1618TIP3    H226414   1.062   0.647   2.133  0.2938 -2.3094 -1.4461
 1619TIP3   OH226415   2.393   2.160   8.612 -0.0226  0.1977 -0.3874
 1619TIP3    H126416   2.433   2.123   8.691 -0.4057 -0.7338 -0.6147
 1619TIP3    H226417   2.450   2.232   8.588  0.6494 -0.1332  0.1823
 1620TIP3   OH226418   5.318   4.445   0.576 -0.3069 -0.0801 -0.1391
 1620TIP3    H126419   5.251   4.472   0.640 -0.4600 -0.8426  0.0263
 1620TIP3    H226420   5.360   4.527   0.550 -1.0625  0.3692  0.0270
 1621TIP3   OH226421   4.419   6.052   0.234  0.4731  0.0022  0.3065
 1621TIP3    H126422   4.461   6.088   0.312 -0.0054 -0.3373  0.7240
 1621TIP3    H226423   4.466   5.970   0.217 -0.1027 -0.4370  0.8435
 1622TIP3   OH226424   3.183   0.241   2.244 -0.0604 -0.5560  0.1224
 1622TIP3    H126425   3.109   0.275   2.194  0.2727 -1.4590 -0.9981
 1622TIP3    H226426   3.214   0.166   2.194  2.1780  0.3208  0.0868
 1623TIP3   OH226427   6.467   0.617   2.449  0.5404 -0.5008  0.2806
 1623TIP3    H126428   6.426   0.661   2.524 -1.6368 -3.1959  0.8235
 1623TIP3    H226429   6.561   0.625   2.466  0.1626  1.1719  1.9482
 1624TIP3   OH226430   6.331   5.408   1.364  0.4068 -0.5135 -0.2588
 1624TIP3    H126431   6.422   5.419   1.389 -0.0310 -0.0641  1.2390
 1624TIP3    H226432   6.334   5.380   1.272  2.0133  0.0027 -0.3891
 1625TIP3   OH226433   0.006   5.771   0.883 -0.9498 -0.2179 -0.1679
 1625TIP3    H126434  -0.027   5.854   0.849 -0.1920  0.0453 -0.2963
 1625TIP3    H226435  -0.022   5.768   0.974 -1.6968 -0.2169 -0.3922
 1626TIP3   OH226436   2.219   4.154   1.138 -0.1847 -0.2345  0.1648
 1626TIP3    H126437   2.200   4.219   1.070 -1.4197  0.1345  0.8364
 1626TIP3    H226438   2.292   4.192   1.187  1.0108 -0.6943 -1.1621
 1627TIP3   OH226439   2.688   3.185   2.579  0.2349 -0.3216  0.9161
 1627TIP3    H126440   2.616   3.144   2.532  1.2323 -1.1656  0.0900
 1627TIP3    H226441   2.732   3.239   2.514  1.5794 -1.4361  0.8702
 1628TIP3   OH226442   2.513   3.116   1.924 -0.3953 -0.1306  0.2624
 1628TIP3    H126443   2.475   3.042   1.877 -0.6883  0.0694  0.1840
 1628TIP3    H226444   2.533   3.180   1.857 -0.0627 -0.1705  0.3213
 1629TIP3   OH226445   4.831   1.322   2.430 -0.0429  0.5382 -0.0884
 1629TIP3    H126446   4.815   1.416   2.437  0.6612  0.8398 -1.9234
 1629TIP3    H226447   4.887   1.301   2.505 -1.4529  1.2533  1.2008
 1630TIP3   OH226448   4.759   2.743   2.687 -0.4202 -0.3881 -0.4210
 1630TIP3    H126449   4.764   2.649   2.674 -3.9909 -0.3584 -4.0638
 1630TIP3    H226450   4.671   2.758   2.722 -0.0636  1.5985 -0.2390
 1631TIP3   OH226451   6.288   4.515   7.757 -0.1757 -0.2628 -0.2749
 1631TIP3    H126452   6.334   4.592   7.724  0.6684 -0.9926 -0.8530
 1631TIP3    H226453   6.230   4.490   7.685 -0.2130 -0.3561 -0.2120
 1632TIP3   OH226454   6.330   4.502   1.240 -0.0727  0.2972 -0.0593
 1632TIP3    H126455   6.330   4.444   1.164  2.7526  0.7887 -0.5445
 1632TIP3    H226456   6.417   4.542   1.239 -0.9737  2.4791  1.8206
 1633TIP3   OH226457   6.541   6.490   7.740 -0.6104 -0.1006 -0.4916
 1633TIP3    H126458   6.620   6.472   7.790 -0.9771  2.2400  1.1331
 1633TIP3    H226459   6.521   6.409   7.694  2.3789 -0.9294 -0.4956
 1634TIP3   OH226460   4.365   0.985   7.966 -0.4698  0.3224  0.2788
 1634TIP3    H126461   4.272   1.007   7.977 -0.8173 -0.8438 -0.1539
 1634TIP3    H226462   4.369   0.941   7.881  0.0530 -1.7118  1.2860
 1635TIP3   OH226463   0.937   0.517   7.622  0.3290 -0.5053 -0.1267
 1635TIP3    H126464   1.012   0.460   7.603 -0.7787 -1.4511 -1.9923
 1635TIP3    H226465   0.926   0.569   7.543 -0.3232  0.4211  0.5519
 1636TIP3   OH226466   5.620   5.203   0.954  0.2147 -0.2830 -0.8312
 1636TIP3    H126467   5.711   5.219   0.927 -0.0760  0.9126 -1.1676
 1636TIP3    H226468   5.568   5.254   0.893 -0.7294 -1.3534 -0.9450
 1637TIP3   OH226469   1.587   2.860   2.392  0.4973  0.6380 -0.5700
 1637TIP3    H126470   1.589   2.879   2.486  0.0223 -0.8790 -0.2353
 1637TIP3    H226471   1.604   2.945   2.350  1.5924  1.1688  0.8848
 1638TIP3   OH226472   2.454   6.675   0.597  0.1715 -0.3725 -0.2539
 1638TIP3    H126473   2.390   6.745   0.608  1.0907  0.5172 -0.4741
 1638TIP3    H226474   2.454   6.657   0.503 -0.5502 -1.1501 -0.1161
 1639TIP3   OH226475   0.683   4.872   2.172 -0.2521 -0.3383 -0.0305
 1639TIP3    H126476   0.636   4.789   2.167  0.8249 -1.1463  2.1397
 1639TIP3    H226477   0.621   4.932   2.214 -1.2052  0.1695 -2.0253
 1640TIP3   OH226478   6.244   1.335   0.657 -0.5550  0.2484  0.0305
 1640TIP3    H126479   6.243   1.397   0.730  0.2088 -0.4473  0.6437
 1640TIP3    H226480   6.288   1.258   0.691 -2.5397 -1.1187 -0.3542
 1641TIP3   OH226481   1.126   1.133   0.416  0.3906 -0.1589 -0.0953
 1641TIP3    H126482   1.219   1.142   0.395  0.1625  0.2377 -0.9826
 1641TIP3    H226483   1.091   1.222   0.407 -0.0450 -0.2778  0.3984
 1642TIP3   OH226484   4.704   3.079   6.852 -0.6194  0.2629 -0.2082
 1642TIP3    H126485   4.775   3.061   6.912  0.0957  0.7040 -0.8982
 1642TIP3    H226486   4.657   2.996   6.844  1.5682 -0.9100 -1.9948
 1643TIP3   OH226487   0.333   0.002   0.793 -0.1051  0.0528  0.1268
 1643TIP3    H126488   0.265   0.010   0.861 -2.1982 -3.1240 -1.3521
 1643TIP3    H226489   0.305   0.062   0.724  0.0879  0.7063  0.6076
 1644TIP3   OH226490   2.924   0.310   2.102  0.1912  0.7937 -0.4710
 1644TIP3    H126491   2.885   0.396   2.087 -0.9596 -0.1401 -3.6000
 1644TIP3    H226492   2.941   0.276   2.014 -0.4531 -2.6477  0.5965
 1645TIP3   OH226493   4.461   2.232   3.343 -0.0299  0.0536  0.1177
 1645TIP3    H126494   4.372   2.228   3.308  0.2078  0.4337 -0.5409
 1645TIP3    H226495   4.494   2.143   3.335  0.2106  0.2353 -1.1485
 1646TIP3   OH226496   5.166   1.980   7.380  0.0445 -0.1247  0.0096
 1646TIP3    H126497   5.105   2.050   7.358  0.5415 -0.0215 -1.1233
 1646TIP3    H226498   5.229   2.020   7.439  0.7152  0.6010 -1.1551
 1647TIP3   OH226499   6.591   1.174   1.472  0.4128 -1.0139 -0.0953
 1647TIP3    H126500   6.626   1.259   1.448  1.5257 -1.7224 -1.0597
 1647TIP3    H226501   6.527   1.193   1.541 -0.3019  0.7234 -1.1760
 1648TIP3   OH226502   4.844   1.925   8.255 -0.2547  0.3239 -0.3537
 1648TIP3    H126503   4.769   1.936   8.196  0.1707 -1.4717 -1.2817
 1648TIP3    H226504   4.920   1.931   8.199  0.3106  1.5645  0.5019
 1649TIP3   OH226505   5.456   6.324   3.065  0.7551  0.6432  0.2403
 1649TIP3    H126506   5.496   6.344   3.150 -0.7109  0.6300  0.9720
 1649TIP3    H226507   5.376   6.278   3.087  0.5905  0.2028 -1.1916
 1650TIP3   OH226508   4.805   6.665   1.891  0.7129 -0.0161 -0.1212
 1650TIP3    H126509   4.873   6.611   1.932  1.0164  1.3399  1.2681
 1650TIP3    H226510   4.725   6.645   1.941  0.6670  0.2865 -0.0704
 1651TIP3   OH226511   4.729   5.970   0.900  0.1134  0.3662 -0.0882
 1651TIP3    H126512   4.748   6.059   0.871 -0.2285  0.7906  0.9585
 1651TIP3    H226513   4.722   5.976   0.995  0.9953 -0.9485  0.0923
 1652TIP3   OH226514   3.115   5.793   2.485 -0.4174  0.8744 -0.6826
 1652TIP3    H126515   3.164   5.776   2.566 -1.3189 -2.5701 -0.7193
 1652TIP3    H226516   3.039   5.842   2.513 -0.6995 -0.2434  0.6182
 1653TIP3   OH226517   1.591   1.001   0.963  0.0331 -0.4781 -0.4116
 1653TIP3    H126518   1.613   1.094   0.972  0.2378 -0.4032 -1.6189
 1653TIP3    H226519   1.589   0.969   1.054  2.6766  0.0833 -0.0750
 1654TIP3   OH226520   2.018   0.220   1.619  0.3302 -0.1522 -0.5336
 1654TIP3    H126521   2.032   0.192   1.529 -0.3167 -0.1715 -0.6330
 1654TIP3    H226522   2.086   0.174   1.669 -0.3213 -1.4459 -0.7769
 1655TIP3   OH226523   1.477   6.366   2.060 -0.5941 -0.4601 -0.7880
 1655TIP3    H126524   1.409   6.433   2.054 -0.0305  0.0194 -2.2336
 1655TIP3    H226525   1.441   6.300   2.120 -0.4585  1.9184  2.1644
 1656TIP3   OH226526   3.169   0.402   7.739 -0.5214  0.4013 -0.1236
 1656TIP3    H126527   3.172   0.462   7.665  0.7215  0.6431  0.1105
 1656TIP3    H226528   3.146   0.318   7.701 -1.4105  0.8318 -0.5701
 1657TIP3   OH226529   5.757   5.302   8.292 -0.1881  0.0496 -0.3121
 1657TIP3    H126530   5.678   5.258   8.324  0.2818  0.4410  1.4516
 1657TIP3    H226531   5.821   5.291   8.362  0.8448  1.0762 -1.0682
 1658TIP3   OH226532   3.591   4.864   7.811  0.2269 -0.0069  0.3794
 1658TIP3    H126533   3.525   4.899   7.871 -1.0482  0.2507 -1.0921
 1658TIP3    H226534   3.610   4.936   7.751  0.2850 -0.7146 -0.4732
 1659TIP3   OH226535   2.222   5.567   0.621  0.3190 -0.0260 -0.3067
 1659TIP3    H126536   2.197   5.586   0.711  1.2574  0.6804 -0.1863
 1659TIP3    H226537   2.305   5.613   0.608 -0.3623  0.8429 -1.8872
 1660TIP3   OH226538   0.122   2.425   0.171  0.0711  0.6318 -0.8966
 1660TIP3    H126539   0.033   2.441   0.203 -0.4467 -3.2925  0.1459
 1660TIP3    H226540   0.110   2.375   0.090  1.2995  0.4864 -1.0143
 1661TIP3   OH226541   3.334   3.597   8.396  0.1665  0.6643  0.0639
 1661TIP3    H126542   3.289   3.570   8.476  0.5193  2.1578  0.8079
 1661TIP3    H226543   3.314   3.528   8.333 -0.7360 -0.1778  1.2152
 1662TIP3   OH226544   1.787   6.765   7.295  0.5772  0.4179  0.1212
 1662TIP3    H126545   1.837   6.686   7.317 -0.4764 -0.2342  0.2285
 1662TIP3    H226546   1.843   6.811   7.232  2.4158  0.9454  2.0190
 1663TIP3   OH226547   2.265   0.953   1.073 -0.4466  0.3662  0.2220
 1663TIP3    H126548   2.231   0.922   1.156  0.1542 -1.0484 -0.0317
 1663TIP3    H226549   2.288   0.873   1.025  0.9373  1.1978 -0.5630
 1664TIP3   OH226550   0.324   3.988   0.646  0.5649 -0.3392 -0.0140
 1664TIP3    H126551   0.287   3.903   0.667 -0.1575 -0.3856 -1.3393
 1664TIP3    H226552   0.286   4.010   0.560 -0.2378  1.8637  0.8349
 1665TIP3   OH226553   5.296   0.623   2.846  0.2099  0.3694 -0.0603
 1665TIP3    H126554   5.313   0.717   2.850  1.3368  0.1538  0.6865
 1665TIP3    H226555   5.359   0.590   2.783  1.2712 -0.1615  1.2251
 1666TIP3   OH226556   1.690   0.781   7.857  0.3945  0.0038 -0.1674
 1666TIP3    H126557   1.699   0.685   7.860 -0.0380 -0.0949 -1.3662
 1666TIP3    H226558   1.637   0.797   7.779  0.1027  1.2066  0.2590
 1667TIP3   OH226559   5.417   6.704   2.241 -0.0295 -0.0888 -0.1678
 1667TIP3    H126560   5.419   6.623   2.292 -1.3073  0.1532  0.3017
 1667TIP3    H226561   5.324   6.720   2.225  0.3162 -0.1868 -2.6478
 1668TIP3   OH226562   3.419   4.375   1.648  0.0064  0.9484  0.5664
 1668TIP3    H126563   3.360   4.309   1.685 -0.0300  0.5823 -0.1255
 1668TIP3    H226564   3.375   4.458   1.664 -1.1208  0.6302 -0.6577
 1669TIP3   OH226565   3.078   2.655   1.488  0.1475 -0.1847  0.1787
 1669TIP3    H126566   3.039   2.568   1.478 -0.0542 -0.2358  1.2999
 1669TIP3    H226567   3.040   2.706   1.416 -0.3077 -0.8145 -0.0414
 1670TIP3   OH226568   3.206   2.718   0.030  0.2941  0.2014  0.2690
 1670TIP3    H126569   3.191   2.810   0.008 -0.6060 -0.0744 -0.3267
 1670TIP3    H226570   3.272   2.689  -0.033 -1.0321 -0.1311 -1.0232
 1671TIP3   OH226571   5.236   5.317   1.436 -0.2767  0.5411 -0.3401
 1671TIP3    H126572   5.178   5.284   1.504 -0.0019  2.3369  0.8167
 1671TIP3    H226573   5.181   5.323   1.358 -1.4602  1.4258  0.5277
 1672TIP3   OH226574   4.276   3.892   0.622 -0.2549 -0.0273  0.5598
 1672TIP3    H126575   4.249   3.860   0.536 -0.0341  0.3179  0.3623
 1672TIP3    H226576   4.310   3.814   0.667 -1.0735 -0.3576  0.6138
 1673TIP3   OH226577   0.829   3.800   1.681 -0.5880  0.2854 -0.4873
 1673TIP3    H126578   0.834   3.827   1.590 -1.0471  2.1972  0.0077
 1673TIP3    H226579   0.852   3.878   1.731  1.7199 -1.2594  1.0519
 1674TIP3   OH226580   2.838   4.744   0.437  0.0295  0.4318  0.1206
 1674TIP3    H126581   2.864   4.651   0.438 -0.1126  0.3119  3.2709
 1674TIP3    H226582   2.742   4.742   0.439  0.0322  0.5722  1.2026
 1675TIP3   OH226583   3.949   1.180   0.601 -0.0343  0.2315 -0.1237
 1675TIP3    H126584   3.856   1.169   0.583  0.0150  0.3344 -0.4386
 1675TIP3    H226585   3.953   1.197   0.695 -0.3920  0.9336 -0.2288
 1676TIP3   OH226586   1.034   3.010   8.634  0.5509  0.3729  0.1869
 1676TIP3    H126587   0.993   2.986   8.550  2.6303  1.9407 -1.3769
 1676TIP3    H226588   1.106   2.949   8.643  1.0778  0.9914  0.1988
 1677TIP3   OH226589   1.577   2.929   1.147 -0.5244  0.1158 -0.1592
 1677TIP3    H126590   1.592   2.921   1.241  0.2817  0.9239 -0.2043
 1677TIP3    H226591   1.484   2.908   1.136 -0.8345  0.7874  0.9244
 1678TIP3   OH226592   3.138   0.859   0.145  0.0459  0.6026 -0.2932
 1678TIP3    H126593   3.222   0.902   0.164  1.1874 -2.0711  1.1934
 1678TIP3    H226594   3.152   0.814   0.062  0.5377 -0.8207  0.5364
 1679TIP3   OH226595   4.996   3.137   2.729 -0.1854 -0.0879 -0.0400
 1679TIP3    H126596   4.975   3.198   2.800  2.2880 -0.6227  1.2735
 1679TIP3    H226597   4.984   3.050   2.768 -0.7177 -0.4362 -0.9353
 1680TIP3   OH226598   3.021   1.749   8.540 -0.1243 -0.1156 -0.5073
 1680TIP3    H126599   3.053   1.836   8.517  2.6983 -0.0535  2.8004
 1680TIP3    H226600   2.968   1.762   8.618  1.3299 -1.3538  0.7687
 1681TIP3   OH226601   3.916   4.961   1.987 -0.3561  0.4266 -0.4091
 1681TIP3    H126602   4.007   4.966   2.015 -0.6800 -0.2722  0.7978
 1681TIP3    H226603   3.913   4.888   1.926  0.2843  1.7582 -2.1300
 1682TIP3   OH226604   4.565   6.766   8.265  0.4527  0.0167  0.1656
 1682TIP3    H126605   4.562   6.691   8.205  0.1693  0.4877 -0.4112
 1682TIP3    H226606   4.618   6.735   8.339  1.2355 -0.3991 -0.5532
 1683TIP3   OH226607   6.808   1.904   7.235  0.1528 -0.2691  0.3439
 1683TIP3    H126608   6.849   1.884   7.319  0.1932 -0.2821  0.3210
 1683TIP3    H226609   6.874   1.956   7.189  0.9055 -1.8531 -0.4375
 1684TIP3   OH226610   3.065   1.788   1.931 -0.4569 -0.0450 -0.5840
 1684TIP3    H126611   2.993   1.795   1.868 -1.8664 -0.3150  0.9354
 1684TIP3    H226612   3.022   1.783   2.016  1.4439  1.9999  0.5793
 1685TIP3   OH226613   5.151   1.540   2.027  0.0803 -0.3079 -0.1842
 1685TIP3    H126614   5.063   1.559   2.059 -0.1314 -1.8709  0.2916
 1685TIP3    H226615   5.138   1.509   1.937  0.1531 -0.4613 -0.1418
 1686TIP3   OH226616   1.088   3.379   8.266  0.4030 -0.0924  0.0272
 1686TIP3    H126617   1.025   3.319   8.307 -0.5089 -0.3179 -1.6001
 1686TIP3    H226618   1.060   3.466   8.294  1.5369 -0.3468  2.1435
 1687TIP3   OH226619   1.544   3.705   8.123 -0.5463  0.4116 -0.6402
 1687TIP3    H126620   1.626   3.753   8.109 -0.7240  0.8146 -0.3124
 1687TIP3    H226621   1.486   3.768   8.164 -0.2681 -0.5139  1.3354
 1688TIP3   OH226622   0.747   3.211   0.662  0.0012 -0.2312  0.1355
 1688TIP3    H126623   0.747   3.235   0.569  1.0240 -2.4863 -0.5140
 1688TIP3    H226624   0.751   3.116   0.662  1.6041 -0.2423  2.5116
 1689TIP3   OH226625   2.149   3.731   1.196  0.0657  0.0073 -0.1551
 1689TIP3    H126626   2.203   3.766   1.266  0.5170 -2.5520  0.8896
 1689TIP3    H226627   2.205   3.669   1.151 -0.6544  0.6061 -1.9766
 1690TIP3   OH226628   1.843   0.864   1.561 -0.0060 -0.6330 -0.6650
 1690TIP3    H126629   1.808   0.788   1.607 -1.3899  0.2921 -0.1312
 1690TIP3    H226630   1.923   0.885   1.609 -0.3515 -0.9178  0.0687
 1691TIP3   OH226631   6.209   1.546   7.317 -0.4787  0.3599 -0.0554
 1691TIP3    H126632   6.264   1.604   7.265 -1.4652  0.2378 -1.3022
 1691TIP3    H226633   6.175   1.482   7.254 -2.2528  0.6032  0.5906
 1692TIP3   OH226634   0.127   2.108   7.124  0.1032 -0.3115 -0.4004
 1692TIP3    H126635   0.179   2.182   7.156 -1.3869  0.9134 -0.6869
 1692TIP3    H226636   0.144   2.107   7.029  0.6502 -0.7814 -0.3016
 1693TIP3   OH226637   3.389   1.332   0.664 -0.1550 -0.0517 -0.3423
 1693TIP3    H126638   3.344   1.343   0.748  0.3835  2.3428 -0.3196
 1693TIP3    H226639   3.481   1.352   0.683  0.1273 -0.2973 -1.3573
 1694TIP3   OH226640   5.719   0.174   0.403 -0.0580 -0.1714  0.3705
 1694TIP3    H126641   5.737   0.095   0.352 -0.0087 -0.3893  0.7147
 1694TIP3    H226642   5.623   0.182   0.402 -0.1059 -0.5779  0.8226
 1695TIP3   OH226643   1.185   3.867   2.078  0.1979 -0.1400 -0.2335
 1695TIP3    H126644   1.247   3.863   2.005  0.8077  0.0618  0.2594
 1695TIP3    H226645   1.230   3.822   2.150 -0.7569 -1.1267 -0.2308
 1696TIP3   OH226646   1.348   5.509   8.558  0.2592 -0.4788 -0.0375
 1696TIP3    H126647   1.301   5.472   8.633 -0.1075 -2.0575 -0.9942
 1696TIP3    H226648   1.346   5.603   8.572 -2.8328 -0.4706  0.1887
 1697TIP3   OH226649   5.853   2.889   2.884 -0.3574 -0.4502  0.2458
 1697TIP3    H126650   5.820   2.801   2.901 -0.7846 -1.1216 -3.3067
 1697TIP3    H226651   5.825   2.909   2.795  1.7861  2.3440  0.0411
 1698TIP3   OH226652   6.281   2.327   2.336  0.0437 -0.0893  0.2506
 1698TIP3    H126653   6.323   2.275   2.268 -1.9604 -1.0661 -0.3107
 1698TIP3    H226654   6.236   2.397   2.289  1.1796  1.1284  0.8681
 1699TIP3   OH226655   3.298   6.620   2.676  0.5537 -0.3382 -0.6281
 1699TIP3    H126656   3.203   6.626   2.685  0.3908 -1.4024 -1.3916
 1699TIP3    H226657   3.322   6.539   2.721  1.2987  0.5722  0.7058
 1700TIP3   OH226658   4.000   1.049   2.525  0.0867  0.2497 -0.3844
 1700TIP3    H126659   4.055   1.086   2.456  0.0701  1.7554  0.3796
 1700TIP3    H226660   3.986   1.121   2.586 -0.4675 -0.8628  0.8501
 1701TIP3   OH226661   5.080   4.770   7.426 -0.1514  0.3195  0.0803
 1701TIP3    H126662   5.155   4.727   7.386 -0.1308  1.0753 -0.7436
 1701TIP3    H226663   5.111   4.799   7.512  0.1981 -0.2229  0.1346
 1702TIP3   OH226664   1.002   4.195   2.683  0.8801  0.0444  0.0468
 1702TIP3    H126665   1.093   4.205   2.654  1.0047  0.0741  0.4428
 1702TIP3    H226666   0.991   4.261   2.751  0.3492  0.5105 -0.4892
 1703TIP3   OH226667   0.026   4.074   6.897  0.1860 -0.6301 -0.1243
 1703TIP3    H126668   0.025   4.169   6.900  0.8848 -0.6265  0.0605
 1703TIP3    H226669   0.021   4.046   6.988  1.6548 -0.7363 -0.0453
 1704TIP3   OH226670   6.747   2.312   0.568  0.1445 -0.1083  0.6023
 1704TIP3    H126671   6.657   2.313   0.535  0.8251 -0.8720 -1.4462
 1704TIP3    H226672   6.779   2.224   0.548  1.7205  0.5180  0.2171
 1705TIP3   OH226673   1.075   1.117   8.295  0.4332  0.7830  0.0616
 1705TIP3    H126674   1.158   1.107   8.248  0.2039  0.6672 -0.3251
 1705TIP3    H226675   1.009   1.087   8.233  0.4174 -3.7199  1.8791
 1706TIP3   OH226676   4.415   5.653   0.536 -0.0673 -0.3627 -0.0806
 1706TIP3    H126677   4.501   5.693   0.524 -1.0305  1.6864 -0.5140
 1706TIP3    H226678   4.421   5.570   0.488  1.8112 -0.5248  0.3423
 1707TIP3   OH226679   5.350   0.041   1.965  0.2891  0.0324  0.7358
 1707TIP3    H126680   5.375   0.038   1.873  1.6935  0.8550  1.0481
 1707TIP3    H226681   5.268   0.090   1.967  0.0156 -0.3772 -0.1111
 1708TIP3   OH226682   4.215   1.452   1.292  0.2031 -0.2988  0.1150
 1708TIP3    H126683   4.187   1.526   1.346 -0.1266  0.1229 -0.6151
 1708TIP3    H226684   4.193   1.375   1.343 -1.3495  0.0505  0.0307
 1709TIP3   OH226685   5.417   3.075   0.320  0.1093  0.1534  0.6749
 1709TIP3    H126686   5.394   3.029   0.239  1.9928  1.7657 -0.8596
 1709TIP3    H226687   5.334   3.112   0.350 -0.5023  0.2060 -0.9788
 1710TIP3   OH226688   4.175   0.798   7.164 -0.1268 -0.3155 -0.3372
 1710TIP3    H126689   4.245   0.759   7.217 -1.0454 -1.0204  0.3926
 1710TIP3    H226690   4.097   0.747   7.186 -0.6567 -0.3004 -2.0025
 1711TIP3   OH226691   2.662   3.111   8.113  0.1601  0.0542 -0.0594
 1711TIP3    H126692   2.713   3.063   8.048 -0.2229 -0.7852  0.2435
 1711TIP3    H226693   2.574   3.117   8.074  0.5228  1.7317 -0.7033
 1712TIP3   OH226694   2.768   1.915   8.286  0.1696 -0.0700 -0.4486
 1712TIP3    H126695   2.845   1.868   8.254  0.8847  0.2305  0.7927
 1712TIP3    H226696   2.755   1.882   8.375 -0.8217  0.2777 -0.4537
 1713TIP3   OH226697   0.192   6.148   2.088 -0.2618  0.5769  0.5120
 1713TIP3    H126698   0.175   6.054   2.088  1.4817  0.2131 -0.0011
 1713TIP3    H226699   0.169   6.177   2.176  0.5172 -0.6128  1.1342
 1714TIP3   OH226700   0.919   0.927   7.370 -0.4560 -0.3901  0.5119
 1714TIP3    H126701   0.857   0.993   7.400 -0.6665 -0.7362  0.8573
 1714TIP3    H226702   1.005   0.968   7.380 -0.5335 -0.4303  1.4362
 1715TIP3   OH226703   2.409   1.572   2.294  0.1904 -0.4825  0.1938
 1715TIP3    H126704   2.416   1.563   2.389  0.0279 -3.4658  0.0181
 1715TIP3    H226705   2.495   1.547   2.261 -0.2629 -1.1840 -0.4870
 1716TIP3   OH226706   6.149   4.507   1.796 -0.4962 -0.4086 -0.0355
 1716TIP3    H126707   6.138   4.421   1.836 -2.4480 -0.3471 -0.3539
 1716TIP3    H226708   6.170   4.489   1.705  2.1544 -0.5211  0.5011
 1717TIP3   OH226709   1.726   5.476   0.283  0.3408 -0.4739 -0.0302
 1717TIP3    H126710   1.815   5.446   0.267  1.2686  0.8876  2.0821
 1717TIP3    H226711   1.681   5.467   0.199  1.8807 -2.9956 -0.6862
 1718TIP3   OH226712   1.203   3.929   2.407  0.4053  0.1371 -0.2573
 1718TIP3    H126713   1.169   3.999   2.351 -0.1569  0.0491 -0.0305
 1718TIP3    H226714   1.294   3.917   2.378  0.7143  1.4129  0.1562
 1719TIP3   OH226715   5.010   1.356   1.069 -0.0975  0.4937  0.0381
 1719TIP3    H126716   4.970   1.285   1.118  1.6564 -0.1998  0.5223
 1719TIP3    H226717   4.988   1.338   0.978 -0.8677  0.1405  0.2903
 1720TIP3   OH226718   4.069   1.810   1.195 -0.8905 -0.3521 -0.2388
 1720TIP3    H126719   4.101   1.789   1.283  1.5442 -1.0119 -1.2090
 1720TIP3    H226720   4.021   1.731   1.168  0.8161 -1.3407 -0.5455
 1721TIP3   OH226721   0.942   4.451   7.081 -0.2787  0.2299 -0.2928
 1721TIP3    H126722   1.004   4.498   7.137  1.1776 -0.6694 -1.0658
 1721TIP3    H226723   0.917   4.374   7.132  0.0296  0.0808 -0.3630
 1722TIP3   OH226724   2.765   3.590   7.109 -0.4649  0.6558 -0.0832
 1722TIP3    H126725   2.857   3.606   7.128 -0.2796 -0.3983 -0.0434
 1722TIP3    H226726   2.718   3.646   7.171  0.1414 -1.0489  2.0350
 1723TIP3   OH226727   6.128   5.704   0.480  0.2561 -0.6392  0.0420
 1723TIP3    H126728   6.206   5.706   0.425  0.6519 -1.3887  0.5480
 1723TIP3    H226729   6.087   5.789   0.468  0.0795 -0.9515 -1.7488
 1724TIP3   OH226730   2.543   4.763   0.443 -0.0436  0.0678  0.0392
 1724TIP3    H126731   2.464   4.714   0.419 -0.1475 -0.2935  1.0647
 1724TIP3    H226732   2.531   4.849   0.404 -1.3554  0.2892  0.8758
 1725TIP3   OH226733   1.177   5.531   0.871  0.2835  0.0128  0.1130
 1725TIP3    H126734   1.189   5.619   0.906 -0.1609 -0.0869  0.5269
 1725TIP3    H226735   1.261   5.509   0.832  1.0269 -0.1473  1.7372
 1726TIP3   OH226736   0.530   3.028   8.177  0.2010  0.1087 -0.2671
 1726TIP3    H126737   0.520   3.095   8.110 -1.2194 -0.0323 -0.2346
 1726TIP3    H226738   0.589   2.963   8.138 -1.0379 -0.2576 -1.6330
 1727TIP3   OH226739   6.513   6.562   1.602 -0.4590  0.3535  0.1798
 1727TIP3    H126740   6.426   6.602   1.602 -1.2166 -1.1109  2.3634
 1727TIP3    H226741   6.574   6.636   1.601 -1.7842  1.5215  1.5164
 1728TIP3   OH226742   5.029   2.305   1.021 -0.2419  0.1376 -0.8682
 1728TIP3    H126743   5.104   2.274   0.971  0.6258  0.6145  0.1170
 1728TIP3    H226744   4.953   2.278   0.969  0.5316 -1.9409 -0.9923
 1729TIP3   OH226745   4.886   3.384   1.129  0.1390  0.0067  0.0060
 1729TIP3    H126746   4.870   3.344   1.043  0.3391  0.1133 -0.0795
 1729TIP3    H226747   4.798   3.408   1.160  0.0879  0.1958 -0.2792
 1730TIP3   OH226748   3.857   0.868   7.225  0.1488  0.3956  0.0633
 1730TIP3    H126749   3.873   0.783   7.183 -2.0372 -0.2106  0.3084
 1730TIP3    H226750   3.800   0.847   7.299 -0.3145  2.0650  0.2135
 1731TIP3   OH226751   2.217   2.292   1.293 -0.2814 -0.3289  0.9684
 1731TIP3    H126752   2.213   2.197   1.303 -0.9547 -0.3189  0.8194
 1731TIP3    H226753   2.247   2.323   1.379  0.2943 -0.6954  0.9046
 1732TIP3   OH226754   5.896   3.772   8.411 -0.2024 -0.5729  0.0656
 1732TIP3    H126755   5.939   3.690   8.386  0.1438 -0.2410 -0.4328
 1732TIP3    H226756   5.912   3.831   8.338  1.3423  0.6246  1.3218
 1733TIP3   OH226757   3.125   5.918   0.871 -0.7824  0.5482 -0.2978
 1733TIP3    H126758   3.128   5.829   0.837 -2.7354  0.1075  0.5612
 1733TIP3    H226759   3.204   5.959   0.836  0.9926 -1.9341  0.4845
 1734TIP3   OH226760   0.041   0.645   8.053 -0.1444  0.2964  0.7325
 1734TIP3    H126761   0.136   0.649   8.042  0.0312 -0.4397  1.8601
 1734TIP3    H226762   0.014   0.737   8.065  0.2412  0.6380 -0.8029
 1735TIP3   OH226763   3.969   0.096   1.033  0.1325 -0.0796  0.2962
 1735TIP3    H126764   3.993   0.157   0.963  0.4773  1.2024  1.4727
 1735TIP3    H226765   3.963   0.011   0.991  1.9460  0.3768 -0.9670
 1736TIP3   OH226766   6.084   1.786   1.241 -0.3254 -0.5211 -0.1898
 1736TIP3    H126767   6.096   1.868   1.192  0.9541 -1.5743 -1.7375
 1736TIP3    H226768   6.146   1.792   1.313  2.8587 -1.7309 -2.5817
 1737TIP3   OH226769   5.743   3.295   2.557  0.0881  0.0376 -0.6692
 1737TIP3    H126770   5.707   3.381   2.535  2.1933  0.6320 -2.1585
 1737TIP3    H226771   5.757   3.299   2.652 -1.3697  0.6860 -0.4539
 1738TIP3   OH226772   5.124   3.101   7.435 -0.5279 -0.6967  0.5482
 1738TIP3    H126773   5.055   3.163   7.460 -1.3035 -1.6981  0.9194
 1738TIP3    H226774   5.165   3.077   7.518 -0.4051 -0.8995  0.4284
 1739TIP3   OH226775   1.194   4.747   1.990  0.3314  0.6122 -0.8664
 1739TIP3    H126776   1.193   4.659   2.027  0.3633  0.7655 -0.4969
 1739TIP3    H226777   1.287   4.767   1.978  0.3224  0.5747 -1.0051
 1740TIP3   OH226778   5.504   2.115   2.704 -0.8878  0.1740  0.2205
 1740TIP3    H126779   5.429   2.159   2.744 -1.2175  2.7840 -2.8323
 1740TIP3    H226780   5.581   2.162   2.735 -0.9660  0.7366 -0.4082
 1741TIP3   OH226781   4.904   0.896   1.818 -0.2757 -0.0580  0.3942
 1741TIP3    H126782   4.835   0.951   1.779 -1.0953 -1.5486 -0.3394
 1741TIP3    H226783   4.981   0.914   1.765 -0.7996 -0.3565 -0.4945
 1742TIP3   OH226784   5.048   4.104   8.324  0.8573  0.3014 -0.1770
 1742TIP3    H126785   5.118   4.102   8.389  0.0935 -0.7175  0.6487
 1742TIP3    H226786   4.971   4.135   8.373  0.1584 -0.9118 -0.4607
 1743TIP3   OH226787   3.181   0.780   2.415 -0.0644  0.2222  0.1336
 1743TIP3    H126788   3.275   0.773   2.432  0.3092  0.2204 -1.6524
 1743TIP3    H226789   3.162   0.707   2.356 -1.2982 -0.0495  0.8395
 1744TIP3   OH226790   3.941   1.044   7.427 -0.2714  0.3314 -0.4105
 1744TIP3    H126791   4.029   1.069   7.399 -0.1671  1.8520  1.0895
 1744TIP3    H226792   3.907   0.991   7.355  1.3901  0.7700 -1.5819
 1745TIP3   OH226793   1.742   0.222   0.902  0.4028  0.4154  0.4278
 1745TIP3    H126794   1.767   0.295   0.846  1.7484 -0.1000  0.3267
 1745TIP3    H226795   1.784   0.240   0.986 -1.3176  1.0088  1.1963
 1746TIP3   OH226796   0.745   2.881   7.407 -0.2985  0.3578  0.0040
 1746TIP3    H126797   0.664   2.832   7.421  0.1961 -1.0090 -1.5573
 1746TIP3    H226798   0.777   2.901   7.495 -2.1274  0.5991  0.6442
 1747TIP3   OH226799   4.103   0.915   2.103  0.3618 -0.6380 -0.1130
 1747TIP3    H126800   4.057   0.832   2.117  1.3638 -1.2996 -0.5810
 1747TIP3    H226801   4.184   0.906   2.153  2.7387 -1.9480 -3.7697
 1748TIP3   OH226802   3.697   2.801   0.746  0.1050  0.1558 -0.3595
 1748TIP3    H126803   3.658   2.782   0.831  1.0468  2.2382  0.6087
 1748TIP3    H226804   3.664   2.732   0.688 -1.2910 -0.7797  1.4600
 1749TIP3   OH226805   2.745   1.926   2.851 -0.2334 -0.0105 -0.2616
 1749TIP3    H126806   2.660   1.882   2.846 -0.1660 -0.0874 -4.0958
 1749TIP3    H226807   2.739   1.996   2.786  1.2118  2.9316  2.5365
 1750TIP3   OH226808   4.159   6.784   0.807 -0.4444  0.3474  0.2185
 1750TIP3    H126809   4.073   6.814   0.775 -1.1093 -2.5751 -1.0887
 1750TIP3    H226810   4.198   6.862   0.846 -3.7719  1.7769  1.0937
 1751TIP3   OH226811   6.252   0.758   7.422 -0.1007 -0.3128  0.2102
 1751TIP3    H126812   6.235   0.813   7.345  1.0177 -1.8249 -1.1816
 1751TIP3    H226813   6.189   0.789   7.488  0.3868  2.5272 -0.5106
 1752TIP3   OH226814   6.544   0.935   0.889  0.0825 -0.2397 -0.0618
 1752TIP3    H126815   6.566   0.923   0.796  0.1632 -0.3440 -0.0295
 1752TIP3    H226816   6.620   0.980   0.925  0.5368 -1.1704  0.1900
 1753TIP3   OH226817   5.684   0.869   0.138 -0.0180  0.2082  0.0658
 1753TIP3    H126818   5.747   0.875   0.210 -0.5285  0.3408  0.5041
 1753TIP3    H226819   5.705   0.944   0.082 -0.3356  0.7575  0.6643
 1754TIP3   OH226820   5.998   6.000   7.397 -0.3064  0.2763 -0.2076
 1754TIP3    H126821   6.034   5.997   7.309 -2.8289  1.5180 -1.3777
 1754TIP3    H226822   5.915   5.953   7.391 -0.5484  0.4068  1.5143
 1755TIP3   OH226823   1.883   2.955   1.008 -0.5243 -0.3834  0.4412
 1755TIP3    H126824   1.844   2.873   1.039 -0.1916 -0.4001  0.8246
 1755TIP3    H226825   1.940   2.928   0.936  0.7150 -0.6959  1.4983
 1756TIP3   OH226826   1.338   4.538   1.763 -0.5367  0.2153 -0.0130
 1756TIP3    H126827   1.377   4.611   1.812  2.9946 -0.1218 -2.0061
 1756TIP3    H226828   1.316   4.474   1.831  1.0879  1.0847  1.4405
 1757TIP3   OH226829   0.169   5.104   1.195 -0.5771  0.2691  0.0487
 1757TIP3    H126830   0.226   5.028   1.179 -0.3237  0.4501  0.0879
 1757TIP3    H226831   0.219   5.179   1.164 -0.8257  0.4229  0.0172
 1758TIP3   OH226832   5.439   2.249   1.821  0.3515  0.2218 -0.1897
 1758TIP3    H126833   5.421   2.339   1.796  2.7790  1.1291  1.0097
 1758TIP3    H226834   5.467   2.254   1.912  0.4207 -1.7712 -0.0540
 1759TIP3   OH226835   5.539   3.380   0.074 -0.1325 -0.4680 -0.7709
 1759TIP3    H126836   5.576   3.295   0.096  2.0604  0.2247 -1.4981
 1759TIP3    H226837   5.530   3.425   0.158 -0.1423 -0.9921 -0.4913
 1760TIP3   OH226838   6.289   3.538   0.903  0.0112  0.4572 -0.4377
 1760TIP3    H126839   6.245   3.624   0.903  1.6646  1.3410  0.4074
 1760TIP3    H226840   6.268   3.500   0.988  0.1515  0.4774 -0.3947
 1761TIP3   OH226841   0.279   5.424   0.047  0.7135  0.1098  0.4492
 1761TIP3    H126842   0.257   5.474   0.125 -0.4308  1.3930 -0.6667
 1761TIP3    H226843   0.373   5.404   0.057  0.3621 -0.7395  2.6492
 1762TIP3   OH226844   6.233   3.147   0.245  0.2009 -0.5903  0.1020
 1762TIP3    H126845   6.149   3.193   0.253  0.2670 -0.1487 -1.4204
 1762TIP3    H226846   6.286   3.204   0.189  0.3543 -2.4130 -1.7137
 1763TIP3   OH226847   0.994   0.544   0.460  0.5357 -0.6870  0.0484
 1763TIP3    H126848   0.918   0.512   0.508  1.2513 -2.8444 -0.1425
 1763TIP3    H226849   1.023   0.621   0.508  1.1225 -2.6257  3.0439
 1764TIP3   OH226850   5.404   5.529   8.312  0.3189 -0.6749 -0.1747
 1764TIP3    H126851   5.365   5.446   8.339  0.6975 -0.7310  0.2213
 1764TIP3    H226852   5.331   5.591   8.313 -0.8096 -1.6731 -3.9505
 1765TIP3   OH226853   2.629   6.717   2.325  0.6086  0.3596 -0.3718
 1765TIP3    H126854   2.575   6.651   2.368 -0.7401  1.8235  0.2955
 1765TIP3    H226855   2.698   6.667   2.283 -0.9413 -1.5797 -0.7970
 1766TIP3   OH226856   5.135   5.719   8.710  0.5620 -0.5679  0.6571
 1766TIP3    H126857   5.091   5.657   8.768 -0.6929  0.3715  0.7420
 1766TIP3    H226858   5.214   5.672   8.681 -0.9788 -2.7302 -0.3533
 1767TIP3   OH226859   2.004   6.328   8.057  0.0325 -0.0459  0.1738
 1767TIP3    H126860   2.052   6.245   8.051 -0.2446 -0.1136 -1.8323
 1767TIP3    H226861   1.998   6.359   7.967 -2.2700  0.7812  0.5361
 1768TIP3   OH226862   3.054   2.935   7.693  0.0029 -0.0778 -0.3530
 1768TIP3    H126863   3.136   2.979   7.714 -0.2610  0.1193  0.2942
 1768TIP3    H226864   2.987   3.001   7.709 -0.3789 -0.6325  0.4180
 1769TIP3   OH226865   6.839   5.009   0.713  0.1518  0.5457  0.3538
 1769TIP3    H126866   6.865   4.968   0.630 -2.4235  1.8982 -1.2629
 1769TIP3    H226867   6.910   4.987   0.773  1.5559 -1.5568 -1.8406
 1770TIP3   OH226868   4.480   2.770   8.065 -0.4871  0.2276 -0.2532
 1770TIP3    H126869   4.551   2.782   8.002 -0.1802 -0.0168  0.0465
 1770TIP3    H226870   4.503   2.690   8.112 -1.4959 -0.4443 -0.8661
 1771TIP3   OH226871   3.466   5.870   2.019  0.4496 -0.4350  0.3794
 1771TIP3    H126872   3.522   5.922   1.962  1.9910 -1.1125  1.1752
 1771TIP3    H226873   3.487   5.779   1.995 -2.0004 -0.7480 -0.8233
 1772TIP3   OH226874   5.386   3.730   3.012 -0.6654  0.2258 -0.6223
 1772TIP3    H126875   5.415   3.818   3.036 -0.5993  0.4203 -1.4134
 1772TIP3    H226876   5.404   3.677   3.090 -0.8354  0.9347 -0.0868
 1773TIP3   OH226877   5.211   4.365   2.089  0.3679 -0.0619  0.2546
 1773TIP3    H126878   5.176   4.436   2.142 -0.9576  0.6121 -1.4014
 1773TIP3    H226879   5.225   4.404   2.002 -1.1543 -1.9330 -0.9311
 1774TIP3   OH226880   4.672   6.015   1.369 -0.0162 -0.4057 -0.2690
 1774TIP3    H126881   4.665   5.946   1.435 -3.0526 -1.2695 -1.3353
 1774TIP3    H226882   4.650   6.096   1.417 -0.1384 -0.7197  0.2167
 1775TIP3   OH226883   1.245   1.351   0.249  0.5651 -0.1069  0.0997
 1775TIP3    H126884   1.181   1.400   0.196  0.4889  2.2816  2.1823
 1775TIP3    H226885   1.329   1.366   0.204  0.1543 -0.3822 -0.7870
 1776TIP3   OH226886   4.201   4.703   1.953 -0.5329  0.1456 -0.3009
 1776TIP3    H126887   4.254   4.624   1.966  0.2853  0.6564 -0.4991
 1776TIP3    H226888   4.118   4.682   1.995  0.3225 -0.1261  1.3397
 1777TIP3   OH226889   0.313   2.899   2.323  0.2384 -0.3711  0.1929
 1777TIP3    H126890   0.327   2.974   2.266  0.7532 -0.6882 -0.1073
 1777TIP3    H226891   0.234   2.857   2.288  0.8213 -0.8423 -0.6073
 1778TIP3   OH226892   4.806   1.552   8.681 -0.1822  0.3906  0.2677
 1778TIP3    H126893   4.758   1.634   8.672 -2.0041 -0.8451 -2.9500
 1778TIP3    H226894   4.872   1.555   8.611 -0.1345 -0.7698  0.2363
 1779TIP3   OH226895   4.255   5.892   0.574 -0.4628 -0.6902 -0.1438
 1779TIP3    H126896   4.211   5.877   0.657 -1.6887 -1.6350 -0.9159
 1779TIP3    H226897   4.301   5.810   0.557 -2.9871 -1.8959 -1.9422
 1780TIP3   OH226898   2.384   2.383   0.295  0.1674 -0.4686 -0.1741
 1780TIP3    H126899   2.321   2.425   0.354 -1.0326  0.2382 -1.8492
 1780TIP3    H226900   2.330   2.351   0.223  1.6817 -0.2587 -1.4496
 1781TIP3   OH226901   4.725   1.003   7.741 -0.2007 -0.2970  0.3650
 1781TIP3    H126902   4.777   1.054   7.678 -0.5127 -2.1370 -1.5159
 1781TIP3    H226903   4.670   1.067   7.784  0.7208  1.1841 -0.5606
 1782TIP3   OH226904   1.535   5.958   0.561  0.3201  0.0527 -0.2215
 1782TIP3    H126905   1.477   5.895   0.517  1.5340 -0.3677 -1.2724
 1782TIP3    H226906   1.609   5.906   0.590  1.6539  1.0443 -1.6690
 1783TIP3   OH226907   6.715   3.222   2.185  0.1086  0.0927 -0.5448
 1783TIP3    H126908   6.797   3.224   2.233  0.0972 -3.1443 -0.1453
 1783TIP3    H226909   6.741   3.212   2.093  0.1145  1.7615 -0.7508
 1784TIP3   OH226910   0.991   4.668   7.289 -0.2280 -0.5358  0.3509
 1784TIP3    H126911   1.015   4.614   7.364 -0.7079 -1.2288  0.0167
 1784TIP3    H226912   0.908   4.709   7.314  0.1906  0.1354  0.6471
 1785TIP3   OH226913   2.486   5.674   8.089  0.0378  0.0082 -0.2219
 1785TIP3    H126914   2.547   5.619   8.137  0.9448  0.7536 -0.4864
 1785TIP3    H226915   2.439   5.614   8.031  1.0275 -0.4834 -0.5301
 1786TIP3   OH226916   1.508   4.091   2.703 -0.1837  0.0277 -0.2178
 1786TIP3    H126917   1.416   4.080   2.680 -0.1349  0.6111 -0.7187
 1786TIP3    H226918   1.521   4.186   2.703  0.1710 -0.0025  0.8343
 1787TIP3   OH226919   0.982   3.742   7.388 -0.1095 -0.0924 -0.0355
 1787TIP3    H126920   1.056   3.705   7.436 -0.4038 -1.2977 -0.4731
 1787TIP3    H226921   1.021   3.810   7.333  0.4701  0.1593  0.6578
 1788TIP3   OH226922   1.589   4.954   8.026  0.1520 -0.1315  0.1451
 1788TIP3    H126923   1.671   4.938   7.979  1.1949  3.0004  0.6536
 1788TIP3    H226924   1.541   5.015   7.969 -0.6429  0.0710  1.0210
 1789TIP3   OH226925   4.880   0.444   0.046  0.3639 -0.0532  0.6232
 1789TIP3    H126926   4.912   0.356   0.068 -0.4092 -0.5936 -0.3505
 1789TIP3    H226927   4.955   0.501   0.061  0.9213 -0.8969  1.1312
 1790TIP3   OH226928   3.833   3.533   0.350  0.2193 -0.4917  0.5887
 1790TIP3    H126929   3.744   3.525   0.315  0.0251  0.0958  0.9305
 1790TIP3    H226930   3.842   3.459   0.409 -1.1219  0.9994  2.8240
 1791TIP3   OH226931   4.916   2.811   8.381 -0.8992 -0.0048 -0.4104
 1791TIP3    H126932   4.921   2.856   8.297  1.9799  0.4608 -0.0821
 1791TIP3    H226933   5.005   2.780   8.397 -1.8278 -1.9230  1.5127
 1792TIP3   OH226934   4.102   5.053   1.300 -0.1421  0.0616 -0.0119
 1792TIP3    H126935   4.184   5.042   1.252 -0.6525  1.7682 -1.3735
 1792TIP3    H226936   4.127   5.041   1.392  1.3489 -0.7668 -0.4783
 1793TIP3   OH226937   1.723   5.672   2.451 -0.1429  0.3180 -0.0391
 1793TIP3    H126938   1.776   5.643   2.525 -0.1630  0.5617  0.0723
 1793TIP3    H226939   1.635   5.638   2.470 -0.0871  0.1487 -0.0864
 1794TIP3   OH226940   0.022   5.098   7.693 -0.1069 -0.1536  0.4294
 1794TIP3    H126941  -0.026   5.094   7.776  1.1740  0.7496  1.2510
 1794TIP3    H226942   0.106   5.137   7.716  1.3505 -2.3386 -0.8125
 1795TIP3   OH226943   0.871   5.441   1.140  0.6027  0.1437  0.0759
 1795TIP3    H126944   0.786   5.462   1.100 -0.5531 -0.0384  2.2756
 1795TIP3    H226945   0.887   5.350   1.115 -0.7950 -0.4257  1.1033
 1796TIP3   OH226946   0.752   5.944   0.742 -0.6333 -0.0070 -0.1533
 1796TIP3    H126947   0.675   5.910   0.697 -1.0255 -0.6771  0.9768
 1796TIP3    H226948   0.797   5.866   0.776  0.3192  0.4015 -0.4315
 1797TIP3   OH226949   3.378   2.173   0.986 -0.5625  0.0105 -0.2755
 1797TIP3    H126950   3.290   2.161   1.021 -0.4060  1.0958  0.5199
 1797TIP3    H226951   3.364   2.206   0.898 -0.9473 -0.1010 -0.2608
 1798TIP3   OH226952   2.837   4.852   7.559  0.1988  0.4802 -0.3717
 1798TIP3    H126953   2.893   4.870   7.484 -0.2679  0.3064 -0.7662
 1798TIP3    H226954   2.898   4.839   7.632  0.6715  0.2972 -0.7922
 1799TIP3   OH226955   4.879   3.750   7.782  0.4752  0.0544  0.1621
 1799TIP3    H126956   4.799   3.700   7.797  0.0154  0.2829 -1.3756
 1799TIP3    H226957   4.853   3.841   7.794  0.0664  0.2575 -1.8621
 1800TIP3   OH226958   5.114   3.270   8.495 -0.4028  0.0032 -0.2567
 1800TIP3    H126959   5.171   3.281   8.419  0.5512 -0.9046  0.2985
 1800TIP3    H226960   5.169   3.291   8.570 -0.2310 -2.5104  0.4101
 1801TIP3   OH226961   0.940   4.406   2.839 -0.4740 -0.5687  0.0836
 1801TIP3    H126962   1.034   4.419   2.852 -0.7612 -0.9359  3.3964
 1801TIP3    H226963   0.906   4.492   2.815  0.5470 -0.1843 -0.0156
 1802TIP3   OH226964   5.107   2.186   2.390 -0.3049 -0.5426  0.8182
 1802TIP3    H126965   5.071   2.250   2.329  1.9098  0.4802  0.4740
 1802TIP3    H226966   5.179   2.145   2.342  0.4594 -0.8800  2.1812
 1803TIP3   OH226967   1.796   6.316   0.021  0.1283  0.1533 -0.6003
 1803TIP3    H126968   1.803   6.224  -0.003 -3.0741 -0.5488  0.7137
 1803TIP3    H226969   1.800   6.363  -0.063  0.3892 -1.2597 -1.4118
 1804TIP3   OH226970   4.447   4.778   8.596  0.8899  0.3085 -0.2531
 1804TIP3    H126971   4.431   4.802   8.505  0.4009  0.5502 -0.1036
 1804TIP3    H226972   4.405   4.693   8.606  2.7012 -0.7065 -0.8099
 1805TIP3   OH226973   1.357   2.390   6.713  0.2152 -0.1321  0.6575
 1805TIP3    H126974   1.279   2.420   6.759  0.9872 -0.6099  2.3283
 1805TIP3    H226975   1.406   2.470   6.695 -0.6063  0.1674 -0.3703
 1806TIP3   OH226976   4.765   4.263   0.848  0.2900  0.1687 -0.4713
 1806TIP3    H126977   4.817   4.200   0.798  0.4320 -0.6165  0.6311
 1806TIP3    H226978   4.730   4.324   0.782  0.9573 -0.4813 -1.4402
 1807TIP3   OH226979   5.880   1.741   0.174 -0.1951 -0.0868  0.3259
 1807TIP3    H126980   5.790   1.711   0.184 -0.6005  0.5863 -1.0727
 1807TIP3    H226981   5.896   1.797   0.250 -0.9300 -0.2857  0.6261
 1808TIP3   OH226982   2.869   3.735   8.423  0.1871  0.8470 -0.2099
 1808TIP3    H126983   2.906   3.677   8.357 -0.7854 -0.9707  0.7766
 1808TIP3    H226984   2.816   3.797   8.373 -0.5825 -0.5356 -1.1656
 1809TIP3   OH226985   0.929   4.163   3.043  0.4448  0.3887  0.3685
 1809TIP3    H126986   0.908   4.235   2.984  3.0910 -0.1028 -1.3440
 1809TIP3    H226987   0.895   4.085   2.998  1.0178  0.1890  0.2665
 1810TIP3   OH226988   3.985   1.190   8.237 -0.0265 -0.2880  0.2173
 1810TIP3    H126989   3.931   1.268   8.242 -0.3454 -0.4978  0.0629
 1810TIP3    H226990   3.924   1.117   8.251  0.1407 -0.5504 -0.3992
 1811TIP3   OH226991   3.949   6.541   8.186  0.8994  0.3513  0.1540
 1811TIP3    H126992   3.960   6.532   8.281  0.0678  0.7542  0.3053
 1811TIP3    H226993   3.870   6.491   8.167  1.1159  0.1951 -0.3425
 1812TIP3   OH226994   1.258   1.832   7.888 -0.2397 -0.1674  0.0937
 1812TIP3    H126995   1.175   1.880   7.889 -1.2768 -1.8592 -0.5356
 1812TIP3    H226996   1.238   1.748   7.929  1.3016 -0.4346  0.3664
 1813TIP3   OH226997   4.265   5.933   1.559 -0.1789 -0.1337  0.2124
 1813TIP3    H126998   4.278   5.867   1.627 -0.8872  0.7189  1.2063
 1813TIP3    H226999   4.201   5.894   1.500 -1.9779  0.3427  1.7779
 1814TIP3   OH227000   2.770   1.810   7.604  0.0755 -0.3323  0.1803
 1814TIP3    H127001   2.861   1.783   7.620  0.1359 -0.0518  0.3136
 1814TIP3    H227002   2.721   1.774   7.677  0.3722  1.0674  1.1105
 1815TIP3   OH227003   4.183   0.842   2.382  0.0107 -0.1238 -0.2736
 1815TIP3    H127004   4.198   0.888   2.465  0.4169  1.6059 -1.2638
 1815TIP3    H227005   4.088   0.845   2.371  0.1169  1.8659 -1.0325
 1816TIP3   OH227006   6.303   0.128   2.264  0.2835 -0.1296 -0.3403
 1816TIP3    H127007   6.290   0.198   2.328  0.8694 -0.4960  0.1862
 1816TIP3    H227008   6.384   0.085   2.290  0.4240 -0.4250 -1.2060
 1817TIP3   OH227009   1.927   0.031   2.286 -0.0317  0.0823 -0.0188
 1817TIP3    H127010   1.839   0.063   2.303  0.3718  0.2246  2.0685
 1817TIP3    H227011   1.939  -0.042   2.347  0.9703 -0.5649 -0.9349
 1818TIP3   OH227012   1.201   0.364   0.725 -0.2011  0.4448 -0.0789
 1818TIP3    H127013   1.153   0.414   0.790 -2.1512  0.6098 -1.5549
 1818TIP3    H227014   1.240   0.292   0.775 -2.0306  0.2796  1.2261
 1819TIP3   OH227015   6.754   0.684   0.554 -1.1978 -0.2974 -0.4218
 1819TIP3    H127016   6.830   0.713   0.604 -0.9583  0.5897 -1.2941
 1819TIP3    H227017   6.787   0.665   0.467 -1.7874 -0.9406 -0.5190
 1820TIP3   OH227018   0.204   2.427   8.355 -0.3439 -0.2244 -0.3525
 1820TIP3    H127019   0.112   2.451   8.362 -0.3881 -0.6243  0.5253
 1820TIP3    H227020   0.217   2.411   8.261 -1.3026 -0.7048 -0.4178
 1821TIP3   OH227021   2.425   6.703   8.601 -0.0516 -0.2282 -0.2417
 1821TIP3    H127022   2.412   6.790   8.637 -0.1010  0.9465 -2.8337
 1821TIP3    H227023   2.485   6.716   8.527  2.1323 -2.8449  0.8852
 1822TIP3   OH227024   0.346   6.445   0.470  0.2467  0.1103  0.5125
 1822TIP3    H127025   0.441   6.457   0.465  0.2836 -0.6498 -1.6970
 1822TIP3    H227026   0.314   6.467   0.382 -1.5542 -0.3300  1.0054
 1823TIP3   OH227027   2.061   0.193   3.013 -0.0640 -0.0656  0.1041
 1823TIP3    H127028   1.985   0.250   3.009 -1.3353 -1.4295  2.4392
 1823TIP3    H227029   2.031   0.110   2.976  0.1149 -0.7328  1.3990
 1824TIP3   OH227030   6.758   3.158   2.997  0.1281 -0.8202 -0.3411
 1824TIP3    H127031   6.786   3.196   2.913 -1.6625  0.5141 -0.3991
 1824TIP3    H227032   6.680   3.208   3.021  1.5045  0.0060  2.9792
 1825TIP3   OH227033   6.045   1.908   2.226  0.4898  0.0440 -0.2081
 1825TIP3    H127034   6.036   1.996   2.262  0.8969  0.0985 -0.2427
 1825TIP3    H227035   6.089   1.858   2.295  0.2455 -0.1396 -0.1815
 1826TIP3   OH227036   2.081   4.304   8.545  0.5724 -0.3227  0.3685
 1826TIP3    H127037   1.995   4.278   8.578 -1.1505  2.4794 -1.5182
 1826TIP3    H227038   2.086   4.398   8.561  3.0239 -0.2795 -0.2310
 1827TIP3   OH227039   5.391   3.041   7.300  0.0794 -0.1528 -0.0820
 1827TIP3    H127040   5.394   3.136   7.288  1.2492 -0.3040 -1.2097
 1827TIP3    H227041   5.468   3.021   7.353  0.2649 -0.5619 -0.5043
 1828TIP3   OH227042   0.053   4.156   8.136 -0.3242 -0.1617 -0.1175
 1828TIP3    H127043  -0.029   4.119   8.167 -1.1270  0.7105 -1.1055
 1828TIP3    H227044   0.062   4.122   8.047  0.2874 -0.0938 -0.0872
 1829TIP3   OH227045   1.448   6.642   2.442  0.3640 -0.2141 -0.0289
 1829TIP3    H127046   1.530   6.636   2.393 -0.7044  0.7349 -2.0520
 1829TIP3    H227047   1.455   6.724   2.490 -0.2507  1.0621 -1.9986
 1830TIP3   OH227048   5.277   0.534   0.549  0.0605 -0.2797 -0.5991
 1830TIP3    H127049   5.347   0.590   0.582  0.8338 -0.6629 -1.5422
 1830TIP3    H227050   5.269   0.556   0.456 -1.1257 -0.1920 -0.4936
 1831TIP3   OH227051   1.471   5.576   0.140 -0.0573 -0.5069  0.3086
 1831TIP3    H127052   1.379   5.549   0.141  0.1167 -1.1750 -0.5937
 1831TIP3    H227053   1.516   5.507   0.091  0.9408 -0.2192  0.8018
 1832TIP3   OH227054   5.053   4.485   1.751  0.2555 -0.2490  0.3859
 1832TIP3    H127055   5.020   4.562   1.707  2.6507 -0.0166 -1.2230
 1832TIP3    H227056   5.145   4.505   1.770  1.0742 -2.7781 -0.4237
 1833TIP3   OH227057   4.863   5.985   1.177  0.0149 -0.1642  0.5113
 1833TIP3    H127058   4.944   6.024   1.209 -0.3340  1.2202 -0.1834
 1833TIP3    H227059   4.810   5.970   1.255  0.9922 -1.2599  0.9851
 1834TIP3   OH227060   6.296   0.646   1.672 -0.2609  0.4508  0.1598
 1834TIP3    H127061   6.337   0.704   1.735  2.7437  0.2785 -1.4640
 1834TIP3    H227062   6.342   0.563   1.681 -1.7812 -0.4987 -0.2910
 1835TIP3   OH227063   3.784   5.403   6.928  0.6930  0.5425 -0.7558
 1835TIP3    H127064   3.746   5.350   6.858  0.2932 -1.3268  0.8125
 1835TIP3    H227065   3.711   5.418   6.989  1.3313  1.0797 -0.1052
 1836TIP3   OH227066   3.754   3.859   8.240 -0.3380  0.7877 -0.1730
 1836TIP3    H127067   3.784   3.865   8.150  0.3568 -3.1594 -0.3847
 1836TIP3    H227068   3.834   3.862   8.292 -0.1668 -1.8598 -0.1574
 1837TIP3   OH227069   4.197   5.100   7.939 -0.1979  0.2681 -0.1591
 1837TIP3    H127070   4.145   5.034   7.893 -0.7520  0.5124  0.1101
 1837TIP3    H227071   4.287   5.067   7.935 -0.3876 -0.2135 -0.5295
 1838TIP3   OH227072   1.420   5.692   0.881  0.0357  0.0025 -0.4251
 1838TIP3    H127073   1.341   5.725   0.923  0.7568  0.8496  0.3180
 1838TIP3    H227074   1.491   5.741   0.922  0.8912 -0.2182 -1.5835
 1839TIP3   OH227075   3.867   0.594   0.538  0.0173 -0.1605  0.2226
 1839TIP3    H127076   3.903   0.624   0.454  1.1375 -0.5240  0.5479
 1839TIP3    H227077   3.938   0.609   0.601 -1.1240  0.9453  1.3027
 1840TIP3   OH227078   0.076   2.801   7.739  0.4378 -0.3605  0.2060
 1840TIP3    H127079   0.009   2.777   7.675 -0.6621  0.3120  1.0623
 1840TIP3    H227080   0.056   2.748   7.816 -0.5046  1.4069  1.2441
 1841TIP3   OH227081   5.992   1.639   8.460  0.3008 -0.3121  0.3448
 1841TIP3    H127082   6.045   1.635   8.539  0.8618 -1.6880 -0.0717
 1841TIP3    H227083   5.909   1.600   8.485  0.2829 -0.2396  0.3984
 1842TIP3   OH227084   0.335   5.033   8.097  0.6191  0.7306 -0.1265
 1842TIP3    H127085   0.376   5.099   8.041  1.0966  0.1160 -0.5188
 1842TIP3    H227086   0.401   4.964   8.105  0.2783  0.4817  0.6042
 1843TIP3   OH227087   2.617   5.923   0.242 -0.9409 -0.0870 -0.2728
 1843TIP3    H127088   2.654   5.999   0.199 -0.1812 -0.9632 -1.2172
 1843TIP3    H227089   2.552   5.959   0.303  0.4742  1.3899  0.4257
 1844TIP3   OH227090   3.853   1.167   7.686 -0.8928  0.0193 -0.4757
 1844TIP3    H127091   3.860   1.122   7.602 -1.5510 -0.4544 -0.2826
 1844TIP3    H227092   3.777   1.128   7.728  0.4198 -0.9710  1.0741
 1845TIP3   OH227093   1.531   2.198   1.611 -0.4088 -0.1393  0.3678
 1845TIP3    H127094   1.560   2.109   1.592  2.9285  0.7098  0.8130
 1845TIP3    H227095   1.515   2.198   1.705  0.4875 -0.0998  0.5342
 1846TIP3   OH227096   1.787   4.268   8.595  0.1106  0.4365 -1.0736
 1846TIP3    H127097   1.691   4.264   8.592 -0.0257 -0.5293  1.8581
 1846TIP3    H227098   1.816   4.178   8.582  0.5600  0.5358 -0.7858
 1847TIP3   OH227099   0.273   0.741   1.842 -0.5985  0.4472  0.0340
 1847TIP3    H127100   0.227   0.676   1.896  0.1008  0.2132  0.3600
 1847TIP3    H227101   0.300   0.692   1.764 -0.4812  0.4698  0.0618
 1848TIP3   OH227102   3.243   1.060   0.629  0.1963  0.1626  0.0859
 1848TIP3    H127103   3.302   1.131   0.654  1.0872 -0.2162 -0.8517
 1848TIP3    H227104   3.156   1.098   0.635  0.6589  1.3476 -0.4366
 1849TIP3   OH227105   6.370   1.501   7.748  0.1182 -0.5096 -0.3447
 1849TIP3    H127106   6.395   1.489   7.839 -0.2544  0.7745 -0.0478
 1849TIP3    H227107   6.337   1.591   7.744 -0.5245 -0.7764 -1.5979
 1850TIP3   OH227108   3.303   4.022   0.486  0.2109  0.5021 -0.2512
 1850TIP3    H127109   3.307   3.959   0.558  0.7497  0.9969  0.1660
 1850TIP3    H227110   3.354   4.097   0.517 -0.4285  1.1503 -0.7342
 1851TIP3   OH227111   6.085   6.524   3.091 -0.2139  0.0121  0.4130
 1851TIP3    H127112   5.992   6.514   3.073 -0.1295 -0.8967  0.4271
 1851TIP3    H227113   6.101   6.618   3.086 -1.3378  0.2736  1.4074
 1852TIP3   OH227114   0.928   4.144   7.904  0.8461 -0.0914 -0.8626
 1852TIP3    H127115   0.897   4.182   7.822  0.5154 -0.3999 -0.8818
 1852TIP3    H227116   0.868   4.072   7.922 -0.0082  0.8855  0.4158
 1853TIP3   OH227117   0.714   5.338   8.338  0.3712  0.1503  0.1943
 1853TIP3    H127118   0.619   5.349   8.328  0.4532  0.5824 -0.1388
 1853TIP3    H227119   0.752   5.414   8.294  0.8852 -0.2471 -0.0668
 1854TIP3   OH227120   0.011   1.849   1.801 -0.3305 -0.0870 -0.1059
 1854TIP3    H127121  -0.068   1.829   1.752  0.2294 -1.8130 -0.3731
 1854TIP3    H227122   0.006   1.793   1.879  0.3781  0.1718  0.1344
 1855TIP3   OH227123   5.757   2.119   8.349 -0.4235  0.1966 -0.4033
 1855TIP3    H127124   5.705   2.191   8.313 -0.6502 -0.2887 -1.0773
 1855TIP3    H227125   5.840   2.159   8.374 -0.3078  0.5955 -1.3571
 1856TIP3   OH227126   0.996   1.747   2.467 -0.3391  0.4101  0.3108
 1856TIP3    H127127   1.015   1.816   2.532  1.0897  0.4204 -0.0891
 1856TIP3    H227128   0.906   1.722   2.485 -0.5570  1.6831  1.1304
 1857TIP3   OH227129   6.064   2.130   7.158  0.2767 -0.1047  0.6410
 1857TIP3    H127130   6.137   2.189   7.178  0.5255 -0.4585  0.7858
 1857TIP3    H227131   6.093   2.044   7.188 -0.1236 -0.2869  0.5213
 1858TIP3   OH227132   0.187   3.249   2.212  0.4662 -0.4217  0.7781
 1858TIP3    H127133   0.233   3.167   2.197  0.9226  0.0013 -0.1943
 1858TIP3    H227134   0.235   3.314   2.160 -0.7307  0.1883  0.4011
 1859TIP3   OH227135   1.912   4.966   1.761 -0.7853  0.1751 -0.0475
 1859TIP3    H127136   1.942   4.932   1.845 -0.2010  0.4590 -0.1343
 1859TIP3    H227137   1.918   5.061   1.771  2.0999  0.2513 -1.3460
 1860TIP3   OH227138   0.670   0.976   0.110  0.1020 -0.3010 -0.5010
 1860TIP3    H127139   0.652   0.919   0.185 -1.5407  0.3493 -0.3704
 1860TIP3    H227140   0.737   0.929   0.060  0.7808 -1.0340  1.0280
 1861TIP3   OH227141   6.041   1.586   0.626  0.2563  0.5847  0.1149
 1861TIP3    H127142   6.046   1.557   0.535  1.4839  0.4889  0.1948
 1861TIP3    H227143   6.082   1.673   0.626 -0.8927  1.1563  0.3677
 1862TIP3   OH227144   4.446   2.196   8.111 -0.1954 -0.1476  0.1608
 1862TIP3    H127145   4.361   2.190   8.155  0.4781 -1.4754  1.3553
 1862TIP3    H227146   4.429   2.252   8.035 -1.8034  0.8037  1.1467
 1863TIP3   OH227147   4.179   0.234   1.449  0.1164  0.1900 -0.0056
 1863TIP3    H127148   4.161   0.193   1.534 -0.0667  1.3936  0.5453
 1863TIP3    H227149   4.166   0.163   1.386  0.4949 -0.7932  0.9760
 1864TIP3   OH227150   4.802   2.198   8.316  0.0269  0.0483  0.2178
 1864TIP3    H127151   4.753   2.228   8.392 -0.6385 -0.4210 -0.0162
 1864TIP3    H227152   4.779   2.105   8.308 -1.7965  0.5948 -1.9271
 1865TIP3   OH227153   1.925   5.959   8.182 -0.2182 -0.1502  0.2358
 1865TIP3    H127154   1.887   5.874   8.164 -0.1920 -0.1228  0.0522
 1865TIP3    H227155   1.882   5.988   8.263  1.0964 -1.1472  1.3264
 1866TIP3   OH227156   4.555   1.459   1.359  0.5341  0.3171 -0.0321
 1866TIP3    H127157   4.549   1.554   1.360 -1.4434  0.2271  0.4843
 1866TIP3    H227158   4.561   1.436   1.266  0.6642  0.9205 -0.1759
 1867TIP3   OH227159   1.276   2.215   7.077  0.4089 -0.1262 -0.0652
 1867TIP3    H127160   1.303   2.180   6.993 -0.0910 -1.4772  0.3177
 1867TIP3    H227161   1.290   2.144   7.139  0.8551  0.8679  1.0237
 1868TIP3   OH227162   6.393   5.116   0.041  0.0255  0.4675  0.0557
 1868TIP3    H127163   6.358   5.153  -0.041  0.7134  0.2413 -0.3511
 1868TIP3    H227164   6.321   5.063   0.075 -0.4496  0.9801 -0.1333
 1869TIP3   OH227165   1.937   0.134   2.029 -0.3996  0.3924  0.1008
 1869TIP3    H127166   1.926   0.130   2.124  1.3571 -1.5422  0.2960
 1869TIP3    H227167   1.857   0.097   1.993 -1.0872  1.1605  0.8169
 1870TIP3   OH227168   5.887   6.502   0.305  0.0976  0.1181  0.2976
 1870TIP3    H127169   5.980   6.525   0.297 -0.0455  0.7130  0.3204
 1870TIP3    H227170   5.884   6.440   0.378  0.2479  1.5286  1.5593
 1871TIP3   OH227171   1.999   1.817   2.666 -0.1402 -0.3206  0.1367
 1871TIP3    H127172   1.912   1.849   2.688 -0.5159 -0.8584 -0.5441
 1871TIP3    H227173   2.017   1.750   2.733 -0.1427 -0.0445  0.4180
 1872TIP3   OH227174   4.573   3.461   2.268 -0.3055 -0.3321 -0.2177
 1872TIP3    H127175   4.633   3.415   2.327 -0.1482  0.2410  0.0714
 1872TIP3    H227176   4.618   3.460   2.183  0.5334  0.8693  0.1884
 1873TIP3   OH227177   1.185   3.631   2.442  0.7653 -0.6267 -0.0060
 1873TIP3    H127178   1.217   3.571   2.510  1.4879  0.7946  0.9612
 1873TIP3    H227179   1.223   3.716   2.465  0.7110 -0.0141 -1.9922
 1874TIP3   OH227180   1.868   4.847   8.205 -0.3063 -0.2045 -0.0523
 1874TIP3    H127181   1.841   4.899   8.281 -1.0776 -1.2306  0.4150
 1874TIP3    H227182   1.924   4.905   8.154 -0.0160  0.6139  1.1521
 1875TIP3   OH227183   3.418   1.102   8.229 -0.1401 -0.5200 -0.3378
 1875TIP3    H127184   3.377   1.023   8.265 -0.6855 -0.5940 -1.1068
 1875TIP3    H227185   3.381   1.173   8.281 -0.7062 -0.6535 -0.5491
 1876TIP3   OH227186   2.401   2.002   7.485  0.1193 -0.7431 -0.2291
 1876TIP3    H127187   2.312   2.030   7.466  0.2419  1.3210  1.7893
 1876TIP3    H227188   2.450   2.083   7.498  1.7228 -1.8461  1.0679
 1877TIP3   OH227189   1.456   0.841   0.743 -0.4981 -0.5824  0.5124
 1877TIP3    H127190   1.374   0.880   0.714  0.1106 -1.1802 -2.3369
 1877TIP3    H227191   1.490   0.902   0.809 -1.7471  1.2750 -0.4750
 1878TIP3   OH227192   6.005   5.673   7.199  0.5205  0.2871 -0.2981
 1878TIP3    H127193   6.008   5.768   7.188 -1.0596  0.2496 -1.3846
 1878TIP3    H227194   5.976   5.660   7.289  2.3505  0.7664  0.4168
 1879TIP3   OH227195   1.361   0.765   7.886  0.5837 -0.1547 -0.3854
 1879TIP3    H127196   1.271   0.733   7.885  0.4422  0.1390  0.7193
 1879TIP3    H227197   1.383   0.781   7.795 -0.5289 -0.1180 -0.6535
 1880TIP3   OH227198   1.628   0.075   3.140  0.3576 -0.4607 -0.0601
 1880TIP3    H127199   1.683   0.072   3.062 -0.9721  0.9378 -1.1153
 1880TIP3    H227200   1.576   0.155   3.129  0.5000  0.0622  2.5161
 1881TIP3   OH227201   2.115   5.492   7.995  0.3480 -0.6995  0.5398
 1881TIP3    H127202   2.104   5.531   8.082 -1.4164 -1.4899  0.7155
 1881TIP3    H227203   2.061   5.546   7.937  2.8608  0.8943 -0.4853
 1882TIP3   OH227204   2.618   1.606   1.189 -0.3221 -0.0127  0.6219
 1882TIP3    H127205   2.543   1.589   1.132 -1.1603 -0.5309  1.8243
 1882TIP3    H227206   2.580   1.642   1.269  0.7129 -0.2992  1.2668
 1883TIP3   OH227207   5.204   5.970   8.109  0.2272 -0.8766  0.2527
 1883TIP3    H127208   5.137   6.030   8.141  1.6723 -0.6473  3.1606
 1883TIP3    H227209   5.215   5.994   8.016 -1.5908  1.0454  0.4598
 1884TIP3   OH227210   1.051   2.744   7.576 -0.2796 -0.0924 -0.1598
 1884TIP3    H127211   1.135   2.703   7.557  0.0213  0.0604  0.7806
 1884TIP3    H227212   1.072   2.836   7.593 -0.6996  0.0523 -0.4105
 1885TIP3   OH227213   5.449   1.794   7.765  0.3498 -0.0125 -0.2486
 1885TIP3    H127214   5.416   1.882   7.747  0.0974 -0.1189 -0.3017
 1885TIP3    H227215   5.515   1.779   7.697 -1.6279 -0.9959 -2.0741
 1886TIP3   OH227216   3.268   0.340   1.937  0.3177 -0.3320  0.3375
 1886TIP3    H127217   3.317   0.321   1.857  1.1771  0.7697  0.5603
 1886TIP3    H227218   3.179   0.311   1.920  0.0738  1.4117 -1.6701
 1887TIP3   OH227219   4.926   0.602   0.668  0.3972  0.0385 -0.5839
 1887TIP3    H127220   4.936   0.667   0.738 -2.6235 -0.9129  0.9155
 1887TIP3    H227221   4.982   0.529   0.696  0.2467  0.2010  0.1771
 1888TIP3   OH227222   5.721   2.199   3.396 -0.1368  0.1859 -0.1924
 1888TIP3    H127223   5.633   2.214   3.360 -0.7673  1.9086  1.8291
 1888TIP3    H227224   5.779   2.246   3.337 -0.8637  1.0106 -0.2762
 1889TIP3   OH227225   1.725   1.934   0.318 -0.0197 -0.8476  0.2361
 1889TIP3    H127226   1.737   1.938   0.223  0.4667  1.8708  0.3345
 1889TIP3    H227227   1.754   2.020   0.349  2.1751 -2.4585  3.1286
 1890TIP3   OH227228   0.095   2.126   2.168  0.3593  0.1278  0.2079
 1890TIP3    H127229   0.105   2.060   2.237  0.3992 -0.0443  0.0391
 1890TIP3    H227230   0.170   2.112   2.111 -0.0820 -0.2347 -0.2874
 1891TIP3   OH227231   1.264   0.845   0.338 -0.1512  0.1215  0.8459
 1891TIP3    H127232   1.349   0.868   0.374  0.9377 -2.3549  0.0787
 1891TIP3    H227233   1.283   0.781   0.269 -2.5888 -0.0624  0.2355
 1892TIP3   OH227234   6.173   2.922   0.395  0.0640 -0.2294  0.8157
 1892TIP3    H127235   6.158   2.919   0.489  1.6558  1.7721  1.1950
 1892TIP3    H227236   6.197   3.012   0.377  2.6109 -1.1605 -1.0605
 1893TIP3   OH227237   3.756   6.349   0.465  0.2996  0.5902  0.4366
 1893TIP3    H127238   3.848   6.337   0.441 -0.1106 -0.5342 -0.6838
 1893TIP3    H227239   3.756   6.426   0.522  1.7213  1.5790 -0.8220
 1894TIP3   OH227240   1.175   0.930   0.638 -0.9991  0.1467  0.1006
 1894TIP3    H127241   1.140   0.978   0.563 -2.2857 -1.5395 -0.4284
 1894TIP3    H227242   1.100   0.881   0.672  0.3484 -1.8775  0.2914
 1895TIP3   OH227243   6.721   6.600   0.575 -0.4204  0.1061 -0.8876
 1895TIP3    H127244   6.672   6.680   0.556 -0.6996  0.8537  2.3644
 1895TIP3    H227245   6.696   6.578   0.665  1.3354 -2.4030 -0.9285
 1896TIP3   OH227246   4.527   3.496   7.062  0.4027  0.0389  0.4323
 1896TIP3    H127247   4.524   3.418   7.007 -0.0162  1.3106 -1.4099
 1896TIP3    H227248   4.577   3.560   7.012  0.9887  0.9063  2.0269
 1897TIP3   OH227249   4.836   3.259   8.517  0.2095 -0.6466 -0.1438
 1897TIP3    H127250   4.781   3.318   8.465 -0.1813 -1.5855 -0.8275
 1897TIP3    H227251   4.926   3.278   8.488  0.2443  0.7124  0.7924
 1898TIP3   OH227252   4.219   0.002   2.926  0.2764  0.3647  0.3372
 1898TIP3    H127253   4.289  -0.062   2.939 -1.5970 -2.9763 -3.6364
 1898TIP3    H227254   4.251   0.057   2.854 -0.0102  0.7368  0.4962
 1899TIP3   OH227255   1.694   6.812   8.700 -0.2583 -0.1132  0.5150
 1899TIP3    H127256   1.679   6.733   8.752 -0.2064 -0.0425  0.6373
 1899TIP3    H227257   1.786   6.833   8.713  0.5712 -1.8009 -1.9767
 1900TIP3   OH227258   5.946   0.642   2.962  0.0031  0.3551 -0.4463
 1900TIP3    H127259   6.005   0.615   2.891  0.3475  2.5990 -1.0688
 1900TIP3    H227260   5.933   0.562   3.013  2.0186 -0.6579 -1.4059
 1901TIP3   OH227261   0.420   4.164   8.517  0.0223 -0.0728 -0.0548
 1901TIP3    H127262   0.437   4.087   8.572  0.1907  0.4985  0.7025
 1901TIP3    H227263   0.415   4.237   8.578 -1.5797  0.3278 -0.6082
 1902TIP3   OH227264   5.179   2.158   0.844  0.0601 -0.1547  0.2819
 1902TIP3    H127265   5.265   2.151   0.887 -0.3300 -1.2293  0.9329
 1902TIP3    H227266   5.152   2.067   0.831 -1.6531  0.1594  1.4451
 1903TIP3   OH227267   5.563   5.299   0.046  0.0605  0.1463 -0.3381
 1903TIP3    H127268   5.505   5.229   0.078 -0.8489  0.1479 -1.8698
 1903TIP3    H227269   5.639   5.295   0.104 -1.1509 -0.3161  1.3183
 1904TIP3   OH227270   3.732   4.943   0.919  0.0156 -0.5171 -0.1699
 1904TIP3    H127271   3.692   4.996   0.987  0.3767  1.6978 -1.5719
 1904TIP3    H227272   3.678   4.958   0.842  0.0966 -2.3019 -0.6058
 1905TIP3   OH227273   2.449   0.072   1.785  0.3432  0.1963 -0.2512
 1905TIP3    H127274   2.505   0.149   1.799  0.4974  0.0765 -0.2129
 1905TIP3    H227275   2.510  -0.000   1.773  0.2336 -0.4017  2.2346
 1906TIP3   OH227276   6.114   3.388   2.354  0.1001  0.5296 -0.0997
 1906TIP3    H127277   6.146   3.369   2.265  0.1793  1.3064 -0.2436
 1906TIP3    H227278   6.043   3.326   2.367 -0.3428  0.8338 -0.9671
 1907TIP3   OH227279   6.247   6.762   1.608  0.4373  0.2060  0.1758
 1907TIP3    H127280   6.158   6.727   1.604 -0.2425  1.3217  3.0526
 1907TIP3    H227281   6.237   6.848   1.648  2.8872 -0.0720  1.6065
 1908TIP3   OH227282   3.473   0.167   1.456 -0.8076  0.2902  0.2514
 1908TIP3    H127283   3.467   0.151   1.362  0.5134  2.8323 -0.3722
 1908TIP3    H227284   3.383   0.164   1.488 -1.0591 -3.5254 -0.4354
 1909TIP3   OH227285   0.930   3.230   8.452 -0.5194  0.5322  0.1304
 1909TIP3    H127286   1.016   3.219   8.494 -0.0395  1.5856 -0.5297
 1909TIP3    H227287   0.881   3.287   8.511 -0.6226  0.2426  0.3225
 1910TIP3   OH227288   4.223   5.324   8.608 -0.5684 -0.2613 -0.5118
 1910TIP3    H127289   4.180   5.260   8.550  0.4337 -2.6147  1.1668
 1910TIP3    H227290   4.168   5.327   8.685  1.6637 -2.7844  1.3800
 1911TIP3   OH227291   5.727   2.081   0.969  0.4453 -0.0358 -0.1691
 1911TIP3    H127292   5.814   2.068   0.931  0.0079  0.3336 -1.3383
 1911TIP3    H227293   5.677   2.005   0.939  0.0448  0.3510 -0.4838
 1912TIP3   OH227294   3.943   3.167   8.350  0.2390 -0.4866  0.1569
 1912TIP3    H127295   3.970   3.152   8.441  0.6709  1.4353  0.4053
 1912TIP3    H227296   4.009   3.121   8.297  1.7312  0.7739  0.8165
 1913TIP3   OH227297   2.518   3.522   0.706  0.1609  0.1032 -0.1892
 1913TIP3    H127298   2.609   3.545   0.687  0.4440  0.9587  1.8769
 1913TIP3    H227299   2.505   3.437   0.664  2.0824 -0.2913 -0.0896
 1914TIP3   OH227300   3.987   2.546   7.042 -0.8263 -0.1012 -0.3872
 1914TIP3    H127301   3.971   2.640   7.045 -0.2501  0.0479 -1.3865
 1914TIP3    H227302   4.041   2.528   7.119  0.0337  0.5984 -0.8163
 1915TIP3   OH227303   6.232   4.684   2.888  0.0996 -0.0574 -0.0089
 1915TIP3    H127304   6.245   4.589   2.891  2.7714  0.2396  0.6040
 1915TIP3    H227305   6.186   4.699   2.805 -0.5107 -1.8791 -0.0469
 1916TIP3   OH227306   4.294   1.263   7.565 -0.6130 -0.3319  0.2159
 1916TIP3    H127307   4.259   1.207   7.635 -0.2878 -1.3713 -0.4352
 1916TIP3    H227308   4.335   1.203   7.504 -0.6440  0.5905 -0.7435
 1917TIP3   OH227309   6.430   3.155   7.627 -0.3039  0.0494  0.2757
 1917TIP3    H127310   6.513   3.110   7.642  0.0640  0.2782 -0.9974
 1917TIP3    H227311   6.455   3.245   7.606 -0.8762  0.1237 -0.0887
 1918TIP3   OH227312   0.084   5.667   8.661  0.0699 -1.0162 -0.0039
 1918TIP3    H127313   0.081   5.627   8.747  0.0700  0.4770  0.7241
 1918TIP3    H227314   0.104   5.759   8.678  1.1472 -0.8987 -1.6624
 1919TIP3   OH227315   4.674   6.069   0.557 -0.6969 -0.2377 -0.2302
 1919TIP3    H127316   4.583   6.098   0.562  0.0694  2.2299  3.2231
 1919TIP3    H227317   4.720   6.143   0.516 -0.1987 -1.6002 -2.2713
 1920TIP3   OH227318   6.357   6.107   1.724  0.4058  0.2325 -0.2060
 1920TIP3    H127319   6.415   6.160   1.670 -1.8271  0.4919 -2.5498
 1920TIP3    H227320   6.277   6.159   1.730  0.1800 -0.3047  2.5137
 1921TIP3   OH227321   4.097   2.914   2.312  0.4989 -0.3371 -0.6284
 1921TIP3    H127322   4.135   2.991   2.354  0.6160 -1.5901  1.7094
 1921TIP3    H227323   4.167   2.849   2.314 -0.2893 -1.2022 -0.5410
 1922TIP3   OH227324   1.286   5.189   2.961 -0.0403  0.5519 -0.3635
 1922TIP3    H127325   1.207   5.232   2.929  0.0124  0.6386 -0.3780
 1922TIP3    H227326   1.351   5.259   2.966 -0.1601  0.6219  0.3203
 1923TIP3   OH227327   4.525   1.474   0.506 -0.3983 -0.4486  0.8763
 1923TIP3    H127328   4.464   1.546   0.522  0.7497  0.9157 -0.6037
 1923TIP3    H227329   4.480   1.418   0.443 -0.1241  0.6272 -0.3220
 1924TIP3   OH227330   2.236   0.296   2.839  0.2110 -0.6873  0.3189
 1924TIP3    H127331   2.188   0.276   2.919 -0.0977 -1.5362 -0.0782
 1924TIP3    H227332   2.325   0.316   2.869 -0.0731 -0.3188  0.9321
 1925TIP3   OH227333   0.510   4.780   8.387  0.7843  0.4992 -0.0205
 1925TIP3    H127334   0.417   4.790   8.407  0.9709 -0.2127  1.3242
 1925TIP3    H227335   0.512   4.723   8.310  0.1134 -0.2125  0.4657
 1926TIP3   OH227336   3.719   4.662   7.522  0.0686 -0.1918 -0.5415
 1926TIP3    H127337   3.673   4.613   7.591 -1.2449 -0.1330 -1.3280
 1926TIP3    H227338   3.759   4.595   7.468 -0.6895 -0.3616 -0.9108
 1927TIP3   OH227339   4.617   1.896   0.604 -0.7822  0.0063 -0.4939
 1927TIP3    H127340   4.654   1.970   0.556  0.7961 -1.1628 -1.1982
 1927TIP3    H227341   4.672   1.822   0.579 -2.9093 -1.6358 -0.6227
 1928TIP3   OH227342   4.766   5.468   0.774 -0.1578  0.3345 -0.1971
 1928TIP3    H127343   4.836   5.505   0.721  0.5681 -0.6017  0.0828
 1928TIP3    H227344   4.697   5.534   0.773  1.0266  1.6213  0.1633
 1929TIP3   OH227345   3.531   4.873   7.492  0.2755 -0.2097 -0.2902
 1929TIP3    H127346   3.601   4.812   7.470  0.4722  0.4095 -1.4398
 1929TIP3    H227347   3.478   4.880   7.413  0.5826  1.5044 -0.3972
 1930TIP3   OH227348   2.607   5.774   8.436  0.1016  0.0002  0.7400
 1930TIP3    H127349   2.681   5.719   8.459  0.0434 -0.2644  0.3143
 1930TIP3    H227350   2.625   5.858   8.478  0.8228  0.0481  0.3554
 1931TIP3   OH227351   1.180   3.474   2.002  0.0210 -0.1185 -0.2757
 1931TIP3    H127352   1.152   3.384   1.988 -3.5373  0.6469  0.8989
 1931TIP3    H227353   1.138   3.500   2.084  1.8943  2.2876  0.0489
 1932TIP3   OH227354   0.584   1.213   1.339 -0.7608 -0.0053 -0.1856
 1932TIP3    H127355   0.552   1.246   1.255 -0.6033 -1.3749 -0.8226
 1932TIP3    H227356   0.519   1.146   1.363  0.0503 -0.7518 -0.0330
 1933TIP3   OH227357   1.588   4.748   0.939 -0.4299  0.0666 -0.3065
 1933TIP3    H127358   1.532   4.670   0.938 -2.0786  1.2045 -0.3705
 1933TIP3    H227359   1.554   4.800   1.012  1.8626 -0.0912  0.9539
 1934TIP3   OH227360   2.241   4.101   1.962 -0.2099 -0.2617  0.4636
 1934TIP3    H127361   2.166   4.041   1.955  0.1555 -0.7352  0.5010
 1934TIP3    H227362   2.307   4.062   1.905  0.2853 -0.2867  1.0509
 1935TIP3   OH227363   2.278   6.484   8.308  0.0593  0.2852 -0.1043
 1935TIP3    H127364   2.237   6.466   8.393 -0.3412 -0.0487 -0.3624
 1935TIP3    H227365   2.263   6.578   8.295  0.3719  0.3972  0.3233
 1936TIP3   OH227366   6.339   4.011   7.675  0.2163  0.0027 -0.1389
 1936TIP3    H127367   6.434   4.008   7.675  0.2512  0.7047 -0.7457
 1936TIP3    H227368   6.313   3.975   7.760  1.0279  0.0355  0.1259
 1937TIP3   OH227369   2.491   3.531   7.642 -0.3392 -0.5875 -0.3840
 1937TIP3    H127370   2.586   3.518   7.654 -0.3582 -0.1037  0.3296
 1937TIP3    H227371   2.452   3.486   7.717 -0.6012  0.2972  0.0258
 1938TIP3   OH227372   3.698   3.527   3.255  0.3128 -0.6219 -0.3588
 1938TIP3    H127373   3.615   3.482   3.271 -0.4197 -0.4600 -3.1889
 1938TIP3    H227374   3.676   3.620   3.253  1.0180 -0.3937  1.0952
 1939TIP3   OH227375   1.583   6.234   0.653 -0.1969 -0.0324 -0.2774
 1939TIP3    H127376   1.534   6.158   0.623 -0.6891 -0.4308  1.4234
 1939TIP3    H227377   1.613   6.210   0.741  0.0478  1.5481  0.1078
 1940TIP3   OH227378   6.010   0.200   7.232 -0.5688 -0.0649  0.0217
 1940TIP3    H127379   6.033   0.291   7.210 -1.3900  0.3268  0.7047
 1940TIP3    H227380   6.094   0.156   7.245 -0.1501  1.1787  1.9185
 1941TIP3   OH227381   2.505   0.223   8.468  0.2781 -0.1606 -0.1706
 1941TIP3    H127382   2.522   0.205   8.376  1.0304  0.7954 -0.2391
 1941TIP3    H227383   2.588   0.260   8.501  0.0167 -0.4651  0.8799
 1942TIP3   OH227384   3.304   6.429   8.233  0.6837  0.7929 -0.5629
 1942TIP3    H127385   3.262   6.509   8.201 -1.1698 -0.0822 -0.4427
 1942TIP3    H227386   3.290   6.366   8.162 -1.6957 -0.6030  0.9994
 1943TIP3   OH227387   1.511   1.529   7.197  0.1716  0.3236 -0.6054
 1943TIP3    H127388   1.559   1.467   7.141  1.3885  0.0941  0.6276
 1943TIP3    H227389   1.579   1.568   7.252 -1.1808 -1.0547  2.2414
 1944TIP3   OH227390   0.216   6.234   1.673 -0.1460 -0.3253  0.8558
 1944TIP3    H127391   0.159   6.299   1.631 -0.0990 -1.0313 -0.3363
 1944TIP3    H227392   0.156   6.177   1.721 -0.1011  1.3758  3.1421
 1945TIP3   OH227393   2.671   4.484   8.071  0.6138  0.2679 -0.8943
 1945TIP3    H127394   2.590   4.447   8.107 -1.3515  1.6721 -3.5440
 1945TIP3    H227395   2.728   4.493   8.147 -1.2758 -1.8217  0.9259
 1946TIP3   OH227396   5.414   0.882   6.773  0.1961 -0.7879  0.0734
 1946TIP3    H127397   5.360   0.888   6.851 -0.6279 -4.4857 -0.0600
 1946TIP3    H227398   5.500   0.855   6.805  0.3966 -0.4576 -0.1764
 1947TIP3   OH227399   5.592   4.551   8.337 -0.2587  0.0640  0.0494
 1947TIP3    H127400   5.623   4.636   8.305 -0.8253  0.5448  0.7302
 1947TIP3    H227401   5.588   4.562   8.432  1.2723 -1.2864  0.3058
 1948TIP3   OH227402   6.111   2.921   1.674  0.1338  0.1722  0.3575
 1948TIP3    H127403   6.158   2.988   1.624  0.9411 -0.5418  0.1374
 1948TIP3    H227404   6.096   2.962   1.759  0.5874  0.6511  0.2186
 1949TIP3   OH227405   6.373   1.896   1.077 -0.4245  0.2018  0.2011
 1949TIP3    H127406   6.344   1.985   1.100  0.6230  0.1591  1.8032
 1949TIP3    H227407   6.434   1.872   1.146  1.2621 -0.8056 -1.5489
 1950TIP3   OH227408   3.822   0.970   8.599 -0.0709  0.1755 -0.5328
 1950TIP3    H127409   3.738   1.011   8.581 -1.3542 -0.1727  3.6790
 1950TIP3    H227410   3.802   0.876   8.606  0.9538 -0.0832 -0.8630
 1951TIP3   OH227411   3.690   6.263   1.379  0.1641 -0.1637  0.3528
 1951TIP3    H127412   3.658   6.336   1.326  0.7458  1.1316  1.7199
 1951TIP3    H227413   3.776   6.291   1.409  0.6414 -1.6708  0.4587
 1952TIP3   OH227414   2.165   3.761   7.011 -0.3676 -0.2683 -0.6373
 1952TIP3    H127415   2.213   3.844   7.010 -0.2187 -0.3547 -0.6535
 1952TIP3    H227416   2.073   3.787   7.007 -0.3206 -0.1043 -0.6707
 1953TIP3   OH227417   4.577   2.860   0.359 -0.0645  0.6034  0.1111
 1953TIP3    H127418   4.605   2.774   0.330 -0.5240  0.3838  0.3082
 1953TIP3    H227419   4.621   2.872   0.444  0.6317  0.9064 -0.2776
 1954TIP3   OH227420   4.406   2.681   2.679 -0.0930 -0.0481 -0.3373
 1954TIP3    H127421   4.317   2.676   2.713 -0.4913  1.5557 -1.0277
 1954TIP3    H227422   4.457   2.717   2.752 -0.2445  0.1123 -0.3097
 1955TIP3   OH227423   4.704   2.037   8.067  0.1433  0.8655 -0.2523
 1955TIP3    H127424   4.635   2.102   8.083 -0.1127  0.9056 -1.4189
 1955TIP3    H227425   4.698   2.018   7.974  1.2071  0.2701 -0.2174
 1956TIP3   OH227426   1.259   1.861   2.119 -0.3886  0.0566  0.3627
 1956TIP3    H127427   1.165   1.863   2.134 -0.2362  0.4460  1.2844
 1956TIP3    H227428   1.290   1.783   2.165 -0.2916 -0.2548 -0.2071
 1957TIP3   OH227429   3.899   4.770   1.788 -0.0311 -0.4426  0.4001
 1957TIP3    H127430   3.864   4.799   1.704  1.0627 -0.4356 -0.0683
 1957TIP3    H227431   3.917   4.677   1.776 -1.3159 -0.8178  1.1447
 1958TIP3   OH227432   2.834   1.763   1.751  0.1319 -0.1869  0.1697
 1958TIP3    H127433   2.759   1.707   1.732  1.2323 -1.8663  0.5499
 1958TIP3    H227434   2.796   1.851   1.761 -1.5749 -0.7192 -1.0343
 1959TIP3   OH227435   1.241   1.528   1.478  0.1596 -0.3834 -0.1503
 1959TIP3    H127436   1.223   1.599   1.417  0.5374  0.8754  1.1379
 1959TIP3    H227437   1.155   1.502   1.511  0.0599 -0.0477 -0.1361
 1960TIP3   OH227438   1.601   4.406   7.963 -0.0827  0.0132 -0.6159
 1960TIP3    H127439   1.615   4.399   8.057 -1.4014 -0.7356 -0.4535
 1960TIP3    H227440   1.625   4.496   7.941  2.1772 -0.3529  0.0632
 1961TIP3   OH227441   1.131   5.895   1.328 -0.7700 -0.2306  0.3998
 1961TIP3    H127442   1.069   5.938   1.270  1.8770  1.4397 -1.3815
 1961TIP3    H227443   1.156   5.815   1.281  0.1396  0.2997 -0.0583
 1962TIP3   OH227444   3.707   6.252   7.671 -0.2011  0.0687 -0.5031
 1962TIP3    H127445   3.686   6.253   7.578 -1.4511 -3.1558 -0.4086
 1962TIP3    H227446   3.791   6.207   7.676 -0.2899 -0.0596 -0.0950
 1963TIP3   OH227447   5.691   2.105   1.311  0.0059 -0.2842  0.0275
 1963TIP3    H127448   5.715   2.033   1.252 -0.4544  1.1074 -1.9462
 1963TIP3    H227449   5.650   2.062   1.386  1.4414 -2.1810 -0.1997
 1964TIP3   OH227450   2.318   4.346   1.746 -0.0700 -0.2302 -0.4582
 1964TIP3    H127451   2.386   4.404   1.714  0.8522 -0.8765  0.2443
 1964TIP3    H227452   2.323   4.354   1.841 -0.4001 -0.9104 -0.3758
 1965TIP3   OH227453   2.980   3.448   1.350  0.6479 -0.4843  0.5223
 1965TIP3    H127454   2.962   3.520   1.290 -1.7533 -1.5481 -0.1194
 1965TIP3    H227455   2.937   3.473   1.432 -1.7308 -1.8824 -0.2233
 1966TIP3   OH227456   3.020   0.275   8.462  0.4385  0.3789 -0.0242
 1966TIP3    H127457   3.060   0.326   8.391  0.4043  1.2253  0.5537
 1966TIP3    H227458   3.076   0.290   8.538 -0.9203  1.5984  0.8027
 1967TIP3   OH227459   5.832   5.563   7.828  0.2485  0.0004 -0.1030
 1967TIP3    H127460   5.896   5.514   7.778  0.8961 -0.1796  0.8655
 1967TIP3    H227461   5.881   5.637   7.864  0.0535 -0.3922  1.0303
 1968TIP3   OH227462   4.524   0.036   0.569  0.0161 -0.0173 -0.1028
 1968TIP3    H127463   4.431   0.015   0.565  0.2005 -0.6686 -1.5105
 1968TIP3    H227464   4.532   0.121   0.526  0.1547 -0.3322 -0.7194
 1969TIP3   OH227465   5.751   1.649   8.187 -0.1751 -0.3527  0.8071
 1969TIP3    H127466   5.810   1.708   8.139 -0.9587  0.5528  0.9262
 1969TIP3    H227467   5.730   1.697   8.267 -1.1143 -0.6484  0.7422
 1970TIP3   OH227468   5.941   1.883   7.402  0.3726  0.1561 -0.0138
 1970TIP3    H127469   6.027   1.882   7.360  0.5525  1.8412  0.2406
 1970TIP3    H227470   5.880   1.906   7.332  0.0472 -1.4714 -0.2893
 1971TIP3   OH227471   4.004   6.129   7.626 -0.5238 -0.3123 -0.5000
 1971TIP3    H127472   3.995   6.047   7.577 -0.0827 -0.9169  0.3996
 1971TIP3    H227473   4.094   6.158   7.608  0.4567 -1.7374  1.6884
 1972TIP3   OH227474   4.361   2.372   7.898  0.4029  0.1624 -0.0874
 1972TIP3    H127475   4.451   2.396   7.879  0.2671 -0.3166 -1.5088
 1972TIP3    H227476   4.309   2.445   7.865  0.2978  1.1866  2.1689
 1973TIP3   OH227477   4.878   6.325   2.345 -0.1935 -0.4628  0.3358
 1973TIP3    H127478   4.905   6.417   2.346 -1.4762 -0.0509 -0.1075
 1973TIP3    H227479   4.958   6.276   2.358  0.5648  0.7160  0.2710
 1974TIP3   OH227480   2.185   5.055   8.412 -0.5044 -0.1351 -0.0587
 1974TIP3    H127481   2.152   5.057   8.502  0.5314 -1.6294  0.4046
 1974TIP3    H227482   2.279   5.074   8.421 -0.1573 -1.4766 -0.6773
 1975TIP3   OH227483   1.301   3.873   0.762  0.0539 -0.5852  0.2745
 1975TIP3    H127484   1.337   3.823   0.689  1.2241  0.8403 -0.1729
 1975TIP3    H227485   1.356   3.850   0.837 -0.3940 -1.1341  0.4428
 1976TIP3   OH227486   0.825   2.122   2.223 -0.1442  0.0691  0.3541
 1976TIP3    H127487   0.917   2.142   2.205  0.1580 -0.2121  1.5222
 1976TIP3    H227488   0.813   2.033   2.190 -0.0982  0.2380 -0.1243
 1977TIP3   OH227489   3.377   6.311   0.885 -0.1683 -0.2321 -0.4116
 1977TIP3    H127490   3.439   6.380   0.863  0.2462 -0.0245  1.2986
 1977TIP3    H227491   3.343   6.281   0.800  0.6056  1.1654 -1.2406
 1978TIP3   OH227492   2.767   5.719   7.696 -0.2193 -0.1252 -0.2548
 1978TIP3    H127493   2.783   5.674   7.613  0.4598  0.1373 -0.2745
 1978TIP3    H227494   2.674   5.741   7.694 -0.1660  0.0613 -1.0399
 1979TIP3   OH227495   1.051   3.502   0.340 -0.2454  0.3463  0.5263
 1979TIP3    H127496   0.986   3.572   0.346 -0.0703  0.6144 -0.4132
 1979TIP3    H227497   1.133   3.543   0.366  0.1929  1.0260 -1.6995
 1980TIP3   OH227498   3.170   1.657   0.387  0.2377  0.2650 -0.4908
 1980TIP3    H127499   3.155   1.582   0.444  0.4948  1.4574  1.2003
 1980TIP3    H227500   3.118   1.638   0.309  0.0183 -1.4883  0.0421
 1981TIP3   OH227501   0.600   5.961   0.989  0.0652  0.0150 -0.1084
 1981TIP3    H127502   0.659   6.023   1.033  0.3833  1.0252 -1.8642
 1981TIP3    H227503   0.646   5.938   0.908 -0.9797 -0.9412 -0.4472
 1982TIP3   OH227504   5.323   0.049   7.921 -0.1725  0.5018  0.4293
 1982TIP3    H127505   5.232   0.019   7.924  0.5996 -2.1536  0.0118
 1982TIP3    H227506   5.349   0.055   8.013 -0.1502 -1.0218  0.5561
 1983TIP3   OH227507   6.747   4.586   7.978  0.1652 -0.0294 -0.1312
 1983TIP3    H127508   6.833   4.584   7.935 -0.1747  2.0781 -1.0555
 1983TIP3    H227509   6.751   4.662   8.035 -1.4041  0.6869 -0.9388
 1984TIP3   OH227510   6.205   3.449   2.096 -0.5501  0.3821 -0.2120
 1984TIP3    H127511   6.289   3.464   2.138  0.2574 -2.3829 -0.6366
 1984TIP3    H227512   6.202   3.513   2.025  1.4673  0.2207 -0.5033
 1985TIP3   OH227513   4.680   5.512   8.159  1.0031  0.4389 -0.0595
 1985TIP3    H127514   4.743   5.564   8.109  1.3411 -1.0413 -1.2794
 1985TIP3    H227515   4.597   5.524   8.113  0.6467  1.3626  0.7833
 1986TIP3   OH227516   1.881   0.251   1.135  0.4948 -0.2413 -0.1931
 1986TIP3    H127517   1.893   0.320   1.200  0.4849 -0.7796  0.3983
 1986TIP3    H227518   1.969   0.235   1.101  0.1375  2.0839 -2.5237
 1987TIP3   OH227519   3.095   3.165   2.301  0.1638  0.5772  0.0832
 1987TIP3    H127520   3.141   3.196   2.379  1.2214 -1.0138  0.1431
 1987TIP3    H227521   3.131   3.217   2.229 -0.8856  2.1208  0.6120
 1988TIP3   OH227522   4.079   1.760   0.918 -0.4536  0.1880  0.9925
 1988TIP3    H127523   3.984   1.748   0.920 -0.5980  1.0988  3.2529
 1988TIP3    H227524   4.109   1.720   1.000  1.0845  0.1165  0.4152
 1989TIP3   OH227525   6.679   6.807   1.618  0.0071  0.1462  0.2658
 1989TIP3    H127526   6.615   6.874   1.642  0.7662  0.6744  0.8735
 1989TIP3    H227527   6.762   6.854   1.614  0.0814 -0.0717 -2.6561
 1990TIP3   OH227528   6.369   1.074   0.161 -0.3120  0.0152 -0.6474
 1990TIP3    H127529   6.361   1.094   0.254 -0.5451  1.4127 -0.9444
 1990TIP3    H227530   6.453   1.112   0.135  0.2794 -1.3378 -0.7879
 1991TIP3   OH227531   1.905   4.373   2.087 -0.0335  0.5751  0.3669
 1991TIP3    H127532   1.973   4.437   2.066  1.5964 -1.1112  0.2639
 1991TIP3    H227533   1.864   4.352   2.003  0.8848 -0.0820  0.0765
 1992TIP3   OH227534   3.299   4.162   1.740  0.1305 -0.4521 -0.3944
 1992TIP3    H127535   3.207   4.162   1.769  0.2715 -0.7661  0.0810
 1992TIP3    H227536   3.306   4.085   1.684  1.4925 -4.3782  4.4096
 1993TIP3   OH227537   6.208   5.073   1.901 -0.1748  0.0262  0.4886
 1993TIP3    H127538   6.275   5.100   1.963  0.1309 -0.8597  0.5604
 1993TIP3    H227539   6.129   5.062   1.955 -0.1735  0.2944  0.5423
 1994TIP3   OH227540   5.296   1.156   1.485  0.5976 -0.1339 -0.2011
 1994TIP3    H127541   5.370   1.197   1.531  1.3885  0.0228 -1.5420
 1994TIP3    H227542   5.262   1.226   1.429 -0.2953 -0.3414  0.0633
 1995TIP3   OH227543   0.114   1.567   8.576 -0.1755  0.3883  0.4822
 1995TIP3    H127544   0.131   1.659   8.598 -2.4632  1.1518 -0.6982
 1995TIP3    H227545   0.103   1.525   8.661  2.4250  0.7973  1.1175
 1996TIP3   OH227546   5.773   3.592   7.962  0.0113  0.1492 -0.2827
 1996TIP3    H127547   5.780   3.518   7.902  0.5377 -0.0993  0.0830
 1996TIP3    H227548   5.861   3.605   7.996 -0.2546  0.3544  0.3596
 1997TIP3   OH227549   0.112   6.770   7.924 -0.3180  0.4269 -0.0522
 1997TIP3    H127550   0.178   6.765   7.993  0.2520  1.6889 -0.4632
 1997TIP3    H227551   0.028   6.760   7.970 -0.0800  3.0401  1.1790
 1998TIP3   OH227552   4.967   1.899   6.996 -0.2834  0.0180  0.4497
 1998TIP3    H127553   5.040   1.939   6.947  0.7202  0.5531  2.3043
 1998TIP3    H227554   4.994   1.808   7.006 -0.9917 -0.3667 -0.8385
 1999TIP3   OH227555   0.148   4.183   0.975 -0.6781 -0.3103  0.4916
 1999TIP3    H127556   0.070   4.183   0.920 -0.0112 -1.6934 -0.5268
 1999TIP3    H227557   0.156   4.092   1.005  1.9161 -0.8887 -1.5673
 2000TIP3   OH227558   1.874   4.044   0.159 -0.2595 -0.2561 -0.4781
 2000TIP3    H127559   1.951   4.097   0.138 -0.4894  0.7798  1.0658
 2000TIP3    H227560   1.909   3.959   0.185  0.2886 -0.1177 -0.7451
 2001TIP3   OH227561   1.432   3.869   1.912  0.7950  0.1469 -0.1207
 2001TIP3    H127562   1.431   3.802   1.980 -0.2695 -0.8635 -1.0731
 2001TIP3    H227563   1.388   3.828   1.838 -0.5699  2.1825 -0.5062
 2002TIP3   OH227564   3.757   6.243   1.882 -0.0787 -0.6078  0.5191
 2002TIP3    H127565   3.738   6.289   1.800  0.9567 -0.2683  0.4540
 2002TIP3    H227566   3.812   6.304   1.931 -0.0350 -1.1329  1.1253
 2003TIP3   OH227567   2.346   5.334   0.820  0.2505  0.0388  0.3623
 2003TIP3    H127568   2.252   5.340   0.836 -0.1503  1.6405 -2.0102
 2003TIP3    H227569   2.355   5.263   0.757  0.3091  1.1019 -0.8973
 2004TIP3   OH227570   5.891   3.993   8.222  0.2732  0.7212  0.3061
 2004TIP3    H127571   5.945   4.043   8.161  0.7953 -0.3267 -0.1158
 2004TIP3    H227572   5.803   3.996   8.183  0.8156 -0.9245 -1.1800
 2005TIP3   OH227573   4.683   2.992   0.914  0.2284  0.1172  0.6293
 2005TIP3    H127574   4.692   2.898   0.932  0.3635 -0.6503 -2.7644
 2005TIP3    H227575   4.638   3.026   0.991 -0.7787 -2.9187  1.5612
 2006TIP3   OH227576   2.368   4.107   2.564 -0.0677  0.1086 -0.2146
 2006TIP3    H127577   2.405   4.029   2.524 -0.2134 -0.3156  0.4784
 2006TIP3    H227578   2.274   4.099   2.549 -0.1472 -0.1660  0.4046
 2007TIP3   OH227579   4.025   1.164   0.208 -0.3906 -0.4676 -0.0224
 2007TIP3    H127580   4.114   1.174   0.176 -0.9326  2.2836 -0.9557
 2007TIP3    H227581   4.034   1.118   0.291  1.9374  0.1075  0.1097
 2008TIP3   OH227582   6.171   1.194   7.972 -0.2676 -0.4820 -0.0778
 2008TIP3    H127583   6.137   1.256   7.907  1.5530 -0.9429 -1.5817
 2008TIP3    H227584   6.207   1.250   8.041  0.1439  0.1382 -0.7698
 2009TIP3   OH227585   2.455   1.212   2.085  0.1591  0.0970  0.0687
 2009TIP3    H127586   2.464   1.293   2.036 -1.9923  0.9421  0.9451
 2009TIP3    H227587   2.417   1.239   2.169 -2.5693 -1.9641 -0.3737
 2010TIP3   OH227588   0.060   5.958   0.289  0.3733 -0.1922 -0.2713
 2010TIP3    H127589   0.035   5.926   0.202  0.7443 -1.4219  0.0507
 2010TIP3    H227590   0.118   5.890   0.323  0.9057  0.6798  0.6081
 2011TIP3   OH227591   1.810   1.520   2.267  1.0321  0.3366  0.2355
 2011TIP3    H127592   1.716   1.502   2.264  1.2411 -1.1077  1.3228
 2011TIP3    H227593   1.838   1.488   2.353  2.4309  1.2461  0.1519
 2012TIP3   OH227594   0.527   3.677   0.799  0.3256  0.0611 -0.1759
 2012TIP3    H127595   0.621   3.660   0.787  1.1126  1.8432  2.4997
 2012TIP3    H227596   0.518   3.772   0.787 -0.8589  0.1276  1.0233
 2013TIP3   OH227597   5.369   5.345   7.176 -0.0022  0.3628 -0.1361
 2013TIP3    H127598   5.436   5.307   7.233  0.2815  2.3663  0.9273
 2013TIP3    H227599   5.415   5.412   7.126 -0.7694  0.2313 -1.0471
 2014TIP3   OH227600   3.525   1.010   8.510  0.0713  0.3135 -0.4404
 2014TIP3    H127601   3.576   1.011   8.429 -0.7612  0.1831 -0.9856
 2014TIP3    H227602   3.518   0.917   8.533  1.9451  0.4292  0.8864
 2015TIP3   OH227603   3.358   1.599   1.040 -0.1009  0.1793  0.3080
 2015TIP3    H127604   3.436   1.628   1.088  1.5520 -2.9761 -0.1402
 2015TIP3    H227605   3.354   1.657   0.964  1.3641  0.9329  0.7645
 2016TIP3   OH227606   6.356   3.647   8.067  0.0278  0.2293  0.1913
 2016TIP3    H127607   6.437   3.599   8.079 -1.1743 -1.3841  2.6849
 2016TIP3    H227608   6.377   3.737   8.094  1.5080  0.4266 -1.4650
 2017TIP3   OH227609   2.902   4.857   8.547 -0.0712  0.1813 -0.2522
 2017TIP3    H127610   2.929   4.866   8.638  0.0667  0.6002 -0.3350
 2017TIP3    H227611   2.848   4.778   8.546  1.4949 -0.9441 -0.1549
 2018TIP3   OH227612   4.235   3.477   1.134  0.4442 -0.1548  0.3184
 2018TIP3    H127613   4.148   3.439   1.146 -0.3631  1.4975  0.0100
 2018TIP3    H227614   4.225   3.536   1.059  1.7516  0.3232  0.4922
 2019TIP3   OH227615   0.602   4.143   0.564  0.1594  0.0348  0.5224
 2019TIP3    H127616   0.518   4.099   0.578  0.5676 -0.2977  2.1512
 2019TIP3    H227617   0.656   4.077   0.520 -0.0021 -0.2302  0.7192
 2020TIP3   OH227618   0.872   6.521   2.630  0.7282  0.3842  0.3537
 2020TIP3    H127619   0.789   6.480   2.655  0.5090  0.7843  0.2903
 2020TIP3    H227620   0.911   6.460   2.567  1.1068 -0.4467  1.3641
 2021TIP3   OH227621   3.255   1.666   8.472  0.1117  0.1319 -0.3126
 2021TIP3    H127622   3.299   1.619   8.543  2.2085  2.1144 -0.1949
 2021TIP3    H227623   3.173   1.695   8.510  1.8517  2.5075  1.9682
 2022TIP3   OH227624   2.572   1.389   1.774  0.0918  0.2951 -1.1036
 2022TIP3    H127625   2.487   1.430   1.788  0.2751  0.1433  0.7678
 2022TIP3    H227626   2.604   1.427   1.692 -1.3737  1.0228 -1.3699
 2023TIP3   OH227627   5.192   4.288   8.167  0.2450  0.5281 -0.1366
 2023TIP3    H127628   5.134   4.358   8.135 -0.1086 -0.5432 -2.0044
 2023TIP3    H227629   5.138   4.237   8.227  0.3966  1.6122  0.9549
 2024TIP3   OH227630   3.463   3.992   7.392 -0.0947 -0.0201  0.3316
 2024TIP3    H127631   3.370   3.983   7.410 -0.1697 -1.9383 -0.7416
 2024TIP3    H227632   3.468   4.007   7.298  0.6747  0.2837  0.4143
 2025TIP3   OH227633   4.526   3.275   6.897 -0.0484  0.4078  0.6322
 2025TIP3    H127634   4.522   3.324   6.816 -0.9726 -0.3089  0.2270
 2025TIP3    H227635   4.599   3.215   6.886 -1.3442 -1.0416 -0.4901
 2026TIP3   OH227636   6.089   1.508   8.232  0.1875  0.4789 -0.9751
 2026TIP3    H127637   6.101   1.564   8.155 -0.6814 -0.0028 -1.4808
 2026TIP3    H227638   6.062   1.568   8.301  2.7814  1.1915 -0.5033
 2027TIP3   OH227639   5.688   4.562   0.948  0.5918  0.0130 -0.0583
 2027TIP3    H127640   5.749   4.624   0.987  0.9226 -0.2854 -0.0890
 2027TIP3    H227641   5.602   4.589   0.979  0.5003  1.6169 -1.5305
 2028TIP3   OH227642   1.774   6.359   0.299 -0.0277  0.2909  0.0404
 2028TIP3    H127643   1.786   6.264   0.305  0.7295  0.2414 -1.5753
 2028TIP3    H227644   1.812   6.382   0.214 -0.6663  1.9731  0.1748
 2029TIP3   OH227645   5.894   4.462   1.226  0.2651  0.4062 -0.2475
 2029TIP3    H127646   5.872   4.468   1.319  1.3342  0.5890  0.0125
 2029TIP3    H227647   5.953   4.536   1.211  1.0072 -0.2776 -0.7940
 2030TIP3   OH227648   6.212   3.382   1.136  0.1715 -0.0742  0.4517
 2030TIP3    H127649   6.257   3.304   1.104 -0.4202 -0.5585  0.7853
 2030TIP3    H227650   6.151   3.349   1.202  0.3731  0.7484  1.0567
 2031TIP3   OH227651   1.712   6.083   8.010  0.6106  0.0217  0.0302
 2031TIP3    H127652   1.761   6.109   7.933  0.2136  1.3884  0.2211
 2031TIP3    H227653   1.779   6.062   8.075  0.9470  1.2076  0.0743
 2032TIP3   OH227654   4.155   0.325   1.083  0.5731  0.1573 -0.2731
 2032TIP3    H127655   4.166   0.274   1.003  1.3965  0.6026 -0.4503
 2032TIP3    H227656   4.128   0.261   1.149 -1.3351 -0.0404 -1.1645
 2033TIP3   OH227657   6.552   6.266   0.627  0.0988  0.1798  0.2452
 2033TIP3    H127658   6.634   6.221   0.607  0.3754  0.3155  1.0337
 2033TIP3    H227659   6.486   6.218   0.578  0.8321  1.0355 -1.7097
 2034TIP3   OH227660   5.862   4.585   2.731  0.2584 -0.0658 -0.4314
 2034TIP3    H127661   5.787   4.529   2.715  0.7002 -0.2122 -2.2167
 2034TIP3    H227662   5.937   4.526   2.733  0.5010  0.2426 -0.2244
 2035TIP3   OH227663   4.743   4.138   1.875  0.1532 -0.0163  0.8387
 2035TIP3    H127664   4.731   4.136   1.970  1.5501 -2.6228  1.0644
 2035TIP3    H227665   4.828   4.180   1.862 -1.3664  3.2155  0.4175
 2036TIP3   OH227666   1.062   2.380   7.058  0.3552  0.0259  0.1564
 2036TIP3    H127667   0.978   2.350   7.094 -1.4172  0.6540 -3.0663
 2036TIP3    H227668   1.119   2.303   7.062 -1.2948 -1.2591 -0.0940
 2037TIP3   OH227669   5.608   1.482   1.619  0.3296  0.2570 -0.1673
 2037TIP3    H127670   5.558   1.547   1.570  1.7735  0.7704 -1.0341
 2037TIP3    H227671   5.693   1.524   1.634  0.4284 -0.4788  1.4811
 2038TIP3   OH227672   6.615   3.320   0.616 -0.3374  0.3425  0.8758
 2038TIP3    H127673   6.702   3.332   0.656  0.1701 -3.8955  1.4552
 2038TIP3    H227674   6.631   3.330   0.522  1.2167 -1.7721  0.8390
 2039TIP3   OH227675   1.971   6.774   0.647  0.0042 -0.4837 -0.8362
 2039TIP3    H127676   1.948   6.777   0.554  0.8071  0.9392 -1.0275
 2039TIP3    H227677   1.888   6.758   0.692 -0.7055  0.5593 -1.7072
 2040TIP3   OH227678   2.522   1.363   6.856  0.0760 -0.6008 -0.7896
 2040TIP3    H127679   2.513   1.268   6.858  0.1299 -0.6090  1.5581
 2040TIP3    H227680   2.587   1.382   6.923 -0.9993  1.1927 -0.1961
 2041TIP3   OH227681   1.576   1.832   7.131 -0.4373  0.1486 -0.1036
 2041TIP3    H127682   1.554   1.795   7.045 -0.2777  1.7498 -0.8798
 2041TIP3    H227683   1.671   1.844   7.128 -0.7095  2.7997 -0.8815
 2042TIP3   OH227684   4.987   5.025   7.940 -0.5695  0.1400  0.3350
 2042TIP3    H127685   4.917   5.016   7.874  0.0017  0.1415 -0.2870
 2042TIP3    H227686   4.955   4.977   8.016  0.1565 -2.8183 -1.0613
 2043TIP3   OH227687   6.725   5.747   7.918 -0.2572 -0.0334  0.0385
 2043TIP3    H127688   6.637   5.780   7.899  0.4414  1.4733 -0.7322
 2043TIP3    H227689   6.710   5.662   7.960 -2.1255  0.8596  1.3336
 2044TIP3   OH227690   1.913   4.594   1.149  0.0107  0.1008  0.5003
 2044TIP3    H127691   2.002   4.604   1.116  0.8125 -0.7305  2.2634
 2044TIP3    H227692   1.867   4.673   1.119  1.1012  0.1822 -1.0735
 2045TIP3   OH227693   4.802   3.251   0.866  0.3716 -0.1679  0.1217
 2045TIP3    H127694   4.707   3.263   0.870  0.2321 -0.8599 -0.8714
 2045TIP3    H227695   4.815   3.157   0.879  1.0124  0.0878  1.4514
 2046TIP3   OH227696   5.108   2.068   0.298 -0.4251 -0.0997  0.1765
 2046TIP3    H127697   5.064   2.152   0.305 -1.6637 -0.6175 -0.8938
 2046TIP3    H227698   5.165   2.077   0.222 -1.0109 -0.3890 -0.3125
 2047TIP3   OH227699   6.590   5.600   0.767 -0.5161 -0.1476 -0.1778
 2047TIP3    H127700   6.559   5.517   0.729 -1.6512  0.2432 -0.1439
 2047TIP3    H227701   6.605   5.580   0.859 -1.2552 -0.2057 -0.0643
 2048TIP3   OH227702   2.533   1.031   0.081 -0.5826 -0.1657 -0.4538
 2048TIP3    H127703   2.570   0.943   0.092 -2.5014 -0.9544  0.2722
 2048TIP3    H227704   2.464   1.020   0.016  0.4813  1.2847 -1.8991
 2049TIP3   OH227705   2.262   1.045   7.919  0.1489  0.6696 -0.2207
 2049TIP3    H127706   2.236   1.134   7.941 -0.2638  0.8540 -1.4222
 2049TIP3    H227707   2.191   0.990   7.952  1.6232  0.4410  3.0408
 2050TIP3   OH227708   2.043   1.775   1.913  0.0483 -0.1471  0.1729
 2050TIP3    H127709   2.077   1.809   1.996  0.8692  0.0258 -0.2201
 2050TIP3    H227710   2.119   1.775   1.855 -0.5592 -0.0939 -0.6359
 2051TIP3   OH227711   0.060   3.785   1.660 -0.2112  0.4872 -0.3292
 2051TIP3    H127712   0.072   3.880   1.665 -0.8357  0.5311  0.4818
 2051TIP3    H227713   0.128   3.749   1.716 -0.4585  0.4964 -0.0194
 2052TIP3   OH227714   5.334   4.206   1.615 -0.5314 -0.0380 -0.3544
 2052TIP3    H127715   5.384   4.179   1.538 -0.6392  0.0310 -0.4502
 2052TIP3    H227716   5.244   4.178   1.596 -0.4941 -0.3314 -0.1006
 2053TIP3   OH227717   2.102   0.103   1.275 -0.6834  0.4518 -0.8126
 2053TIP3    H127718   2.024   0.075   1.324  0.8537 -0.7244  1.0807
 2053TIP3    H227719   2.110   0.196   1.294 -1.1476  0.3925 -0.3014
 2054TIP3   OH227720   0.996   1.109   1.535  0.4874  0.0440  0.2150
 2054TIP3    H127721   1.083   1.077   1.513  1.0269  1.2346  0.5749
 2054TIP3    H227722   0.987   1.090   1.629  0.5946  0.4453  0.3080
 2055TIP3   OH227723   2.147   5.758   7.844  0.3267 -0.3163  0.5564
 2055TIP3    H127724   2.218   5.810   7.880  0.8685 -0.6398 -0.0189
 2055TIP3    H227725   2.175   5.738   7.754 -0.9449  0.3883 -0.0127
 2056TIP3   OH227726   6.382   3.776   8.338  0.0692  0.0775  0.1674
 2056TIP3    H127727   6.301   3.777   8.286  0.2280  0.0675 -0.0851
 2056TIP3    H227728   6.358   3.820   8.420 -0.2004  0.0444  0.1086
 2057TIP3   OH227729   0.174   0.466   7.872 -0.3269  0.1290  0.8473
 2057TIP3    H127730   0.205   0.532   7.810  2.2085 -0.5707  1.2309
 2057TIP3    H227731   0.097   0.505   7.913 -0.4877  1.7023 -0.8185
 2058TIP3   OH227732   4.599   3.833   2.090  0.0381 -0.0933 -0.0926
 2058TIP3    H127733   4.670   3.895   2.072 -0.2809  0.2487 -0.1911
 2058TIP3    H227734   4.643   3.749   2.101  0.3866 -0.0300 -0.9223
 2059TIP3   OH227735   6.711   1.596   0.688 -0.5640  0.6091 -0.2542
 2059TIP3    H127736   6.693   1.502   0.689 -2.5861  0.9533  1.0996
 2059TIP3    H227737   6.625   1.637   0.680 -0.0297  2.3778  1.9422
 2060TIP3   OH227738   2.280   1.903   1.429 -0.1866 -0.2774  0.1396
 2060TIP3    H127739   2.299   1.965   1.358  1.0013  0.7336  1.2905
 2060TIP3    H227740   2.186   1.914   1.444 -0.8460 -1.7703 -2.3712
 2061TIP3   OH227741   4.180   6.433   2.490 -0.2897 -0.3156 -0.1590
 2061TIP3    H127742   4.129   6.488   2.430 -0.8709  0.8232  1.3099
 2061TIP3    H227743   4.255   6.488   2.514  1.6016 -1.8775 -2.0962
 2062TIP3   OH227744   6.639   4.737   0.287 -0.1177  0.1832 -0.0481
 2062TIP3    H127745   6.713   4.695   0.330  0.3337  1.0461  0.0327
 2062TIP3    H227746   6.676   4.812   0.241 -0.4890 -0.9639 -2.4087
 2063TIP3   OH227747   2.193   4.082   6.944  0.7510 -0.5650  0.1560
 2063TIP3    H127748   2.155   4.090   6.857  1.3615 -2.5260 -0.3271
 2063TIP3    H227749   2.120   4.096   7.004  0.1219 -0.2150 -0.6839
 2064TIP3   OH227750   1.993   6.695   1.792  0.3864 -0.4967 -0.2819
 2064TIP3    H127751   1.971   6.737   1.875  1.4517  0.2974 -0.3892
 2064TIP3    H227752   1.922   6.722   1.733 -0.3175 -0.9799  0.3132
 2065TIP3   OH227753   5.579   2.431   8.666  0.2900  0.0425 -1.1168
 2065TIP3    H127754   5.602   2.506   8.610  0.5628  1.3213  0.6396
 2065TIP3    H227755   5.516   2.466   8.729 -1.3904 -1.8050 -1.6600
 2066TIP3   OH227756   1.616   5.370   7.791 -0.3615  0.0440 -0.4908
 2066TIP3    H127757   1.702   5.358   7.751 -1.3242 -2.0412 -2.1494
 2066TIP3    H227758   1.584   5.452   7.754  0.0902 -0.2086 -1.4825
 2067TIP3   OH227759   5.747   3.762   0.719 -0.4808 -0.3676 -0.1933
 2067TIP3    H127760   5.710   3.810   0.793  0.5305  1.2115 -0.6627
 2067TIP3    H227761   5.710   3.804   0.641  1.1669  0.3470 -0.6412
 2068TIP3   OH227762   2.859   4.273   1.634  0.8094 -0.3806 -0.2475
 2068TIP3    H127763   2.831   4.275   1.543 -2.3554 -0.7998  0.5853
 2068TIP3    H227764   2.778   4.255   1.683  2.1029  1.2746  2.7464
 2069TIP3   OH227765   1.556   3.561   0.834 -0.1699 -0.2746  0.2116
 2069TIP3    H127766   1.462   3.550   0.820 -0.6696  2.5423  0.5995
 2069TIP3    H227767   1.565   3.582   0.927  1.0823 -2.1316  0.5554
 2070TIP3   OH227768   1.028   0.518   2.604  0.2917 -0.0724 -0.2766
 2070TIP3    H127769   0.943   0.556   2.627 -0.2504 -0.4974 -1.4969
 2070TIP3    H227770   1.069   0.582   2.547  0.3666 -0.2996 -0.4816
 2071TIP3   OH227771   6.098   5.686   8.393  0.3835  0.2776 -0.7554
 2071TIP3    H127772   6.064   5.613   8.445  0.0617 -0.0549 -1.4115
 2071TIP3    H227773   6.020   5.724   8.353  0.6325  0.4981 -1.0301
 2072TIP3   OH227774   2.592   4.198   1.666  0.4875 -0.1068 -0.0005
 2072TIP3    H127775   2.613   4.145   1.589  0.7753  0.8731 -0.6149
 2072TIP3    H227776   2.562   4.282   1.630  2.1026  0.9421  0.9286
 2073TIP3   OH227777   1.275   1.678   7.117  0.0029  0.3013 -0.1602
 2073TIP3    H127778   1.260   1.705   7.208 -1.3406 -0.6227 -0.0830
 2073TIP3    H227779   1.351   1.620   7.122 -0.1542  0.1390  0.4046
 2074TIP3   OH227780   0.214   2.437   0.972 -0.4146 -0.0585  0.4804
 2074TIP3    H127781   0.150   2.507   0.985  0.6005  0.6107  2.1435
 2074TIP3    H227782   0.190   2.399   0.887 -1.0136  2.2987 -0.5101
 2075TIP3   OH227783   2.103   3.252   8.512  0.0071  0.4289  0.2162
 2075TIP3    H127784   2.176   3.314   8.518 -0.1105  0.4287  2.0421
 2075TIP3    H227785   2.062   3.272   8.428 -0.2350  3.0529  0.8839
 2076TIP3   OH227786   3.183   1.086   1.259 -0.0706 -0.4169 -0.6176
 2076TIP3    H127787   3.159   1.178   1.256  1.2333 -0.0838 -1.6126
 2076TIP3    H227788   3.261   1.083   1.314  0.3923 -0.7882 -1.2754
 2077TIP3   OH227789   2.609   4.607   0.696  0.6013  0.6550 -0.0958
 2077TIP3    H127790   2.704   4.619   0.702  0.9500 -1.6706 -0.3514
 2077TIP3    H227791   2.588   4.634   0.606  0.9651  1.3482  0.0163
 2078TIP3   OH227792   2.770   3.340   0.516  0.2222  0.1724  0.4646
 2078TIP3    H127793   2.680   3.356   0.488  0.1116  0.4864  0.9838
 2078TIP3    H227794   2.814   3.306   0.438 -1.0182 -2.6200  0.8835
 2079TIP3   OH227795   4.901   3.637   1.459 -0.5094 -0.3183  0.0850
 2079TIP3    H127796   4.937   3.550   1.476  2.0350  0.2551 -1.8409
 2079TIP3    H227797   4.811   3.633   1.494 -0.9940 -4.1264 -1.1704
 2080TIP3   OH227798   6.248   0.102   7.305  0.1639 -0.2836 -0.2732
 2080TIP3    H127799   6.311   0.143   7.245 -0.3073 -0.2749 -0.7744
 2080TIP3    H227800   6.301   0.067   7.376  0.4814  2.6602  1.0967
 2081TIP3   OH227801   5.145   2.744   1.953 -0.2948 -0.1737 -0.0172
 2081TIP3    H127802   5.226   2.694   1.958 -0.9295 -1.1450  3.9752
 2081TIP3    H227803   5.174   2.836   1.947  0.9644 -0.6249 -1.6040
 2082TIP3   OH227804   3.805   6.066   7.336  0.3500 -0.5157  0.1428
 2082TIP3    H127805   3.727   6.013   7.348  0.0582  0.3981  3.2033
 2082TIP3    H227806   3.773   6.149   7.300  0.0994 -0.6482  0.0645
 2083TIP3   OH227807   2.218   3.619   1.469 -0.7141 -0.3456 -0.4376
 2083TIP3    H127808   2.230   3.536   1.515 -0.5761 -0.9065 -1.4443
 2083TIP3    H227809   2.302   3.664   1.479 -0.2828 -0.9709 -1.0970
 2084TIP3   OH227810   3.205   3.881   7.936 -0.2714 -0.2041  0.3951
 2084TIP3    H127811   3.152   3.852   8.010 -1.1905  2.7150  1.0245
 2084TIP3    H227812   3.142   3.918   7.874  0.8097  1.8316  0.4066
 2085TIP3   OH227813   6.207   0.135   8.161 -0.0039  0.4944  0.4730
 2085TIP3    H127814   6.200   0.231   8.162 -1.0589  0.4448 -0.0317
 2085TIP3    H227815   6.123   0.106   8.125  0.7111 -0.5797 -0.4025
 2086TIP3   OH227816   4.238   3.747   8.268 -0.1302 -0.0673  0.3959
 2086TIP3    H127817   4.244   3.841   8.253 -1.6469 -0.1819 -1.2286
 2086TIP3    H227818   4.326   3.714   8.248 -0.2924  0.6790 -1.7971
 2087TIP3   OH227819   2.035   6.698   1.130  0.7217 -0.3723  0.0083
 2087TIP3    H127820   2.058   6.766   1.192  1.2644 -0.6318  0.0933
 2087TIP3    H227821   1.978   6.742   1.066  0.5942  0.0155  0.3859
 2088TIP3   OH227822   5.726   6.440   7.829 -0.2241 -0.2525 -0.1140
 2088TIP3    H127823   5.755   6.502   7.762  0.0971  2.1988  2.0909
 2088TIP3    H227824   5.633   6.425   7.809 -0.2754  0.8844 -0.8269
 2089TIP3   OH227825   6.732   3.715   0.759 -0.4448 -0.0271  0.0355
 2089TIP3    H127826   6.640   3.687   0.754 -0.8331  1.0843  0.5773
 2089TIP3    H227827   6.734   3.778   0.832  0.3424  1.4145 -1.1621
 2090TIP3   OH227828   4.672   4.615   0.857  0.8293  0.0808  0.5543
 2090TIP3    H127829   4.702   4.590   0.769 -0.7074 -0.1081  0.0543
 2090TIP3    H227830   4.620   4.695   0.842 -1.7814 -1.4541  0.8265
 2091TIP3   OH227831   1.475   1.604   0.368  0.0839  0.1866  0.6984
 2091TIP3    H127832   1.502   1.558   0.448 -0.7644  1.0734  1.5330
 2091TIP3    H227833   1.524   1.686   0.369 -3.2001  2.3812  2.8721
 2092TIP3   OH227834   4.307   2.696   8.718 -0.1508  0.0741 -0.2908
 2092TIP3    H127835   4.281   2.654   8.801  1.1544  0.9233  0.5770
 2092TIP3    H227836   4.233   2.680   8.660 -0.7968 -1.1790  0.8109
 2093TIP3   OH227837   3.109   1.662   7.954  0.7905 -0.0136 -0.1919
 2093TIP3    H127838   3.138   1.753   7.960  1.8259 -0.3204 -0.3279
 2093TIP3    H227839   3.172   1.614   8.007 -1.0794 -0.3943  1.8578
 2094TIP3   OH227840   2.914   1.969   1.235 -0.6225 -0.4432  0.0322
 2094TIP3    H127841   2.827   1.938   1.210 -1.0463  0.2624  0.5979
 2094TIP3    H227842   2.972   1.935   1.167 -1.3719 -0.7225 -0.4775
 2095TIP3   OH227843   0.258   2.161   1.757 -0.4794 -0.2410 -0.6126
 2095TIP3    H127844   0.192   2.106   1.714 -1.2183 -1.5188  1.9714
 2095TIP3    H227845   0.340   2.113   1.745 -0.6235 -0.4433 -0.8129
 2096TIP3   OH227846   1.685   6.095   0.865 -0.4972  0.3946 -0.2482
 2096TIP3    H127847   1.649   6.126   0.948  2.0187  1.2716  0.6026
 2096TIP3    H227848   1.687   5.999   0.874 -0.2368  0.4834  0.7410
 2097TIP3   OH227849   6.268   3.163   1.668  0.0600  0.8120 -0.1846
 2097TIP3    H127850   6.337   3.116   1.715 -0.8672  0.1849  0.5963
 2097TIP3    H227851   6.240   3.231   1.730 -0.0714  1.0166 -0.4685
 2098TIP3   OH227852   2.546   6.156   1.833  0.3702  0.0280  0.0744
 2098TIP3    H127853   2.601   6.097   1.782  0.1859  0.4647 -0.6479
 2098TIP3    H227854   2.574   6.244   1.805 -0.2876  0.2605  0.1347
 2099TIP3   OH227855   4.545   4.197   0.199 -0.5455  0.4076  0.3241
 2099TIP3    H127856   4.571   4.289   0.209  3.0189 -0.1954 -1.6616
 2099TIP3    H227857   4.573   4.155   0.280  1.1527  0.5262 -0.1613
 2100TIP3   OH227858   1.895   2.239   0.860 -0.0611  0.5555 -0.4552
 2100TIP3    H127859   1.852   2.155   0.842 -2.2300  1.6802 -0.9578
 2100TIP3    H227860   1.966   2.218   0.920 -0.8607 -1.5555 -0.1681
 2101TIP3   OH227861   4.211   5.568   2.579 -0.2266  0.6337  0.5722
 2101TIP3    H127862   4.248   5.615   2.654 -1.1173  0.1490  1.3296
 2101TIP3    H227863   4.233   5.623   2.504  1.2355  0.8195  1.0947
 2102TIP3   OH227864   2.054   0.598   8.438 -0.6103  0.6139  0.1781
 2102TIP3    H127865   2.126   0.648   8.477 -0.4942  0.2177  0.4693
 2102TIP3    H227866   1.989   0.665   8.414 -0.9294  0.8249  1.5584
 2103TIP3   OH227867   3.887   3.763   2.099 -0.0733 -0.4229  0.2332
 2103TIP3    H127868   3.809   3.708   2.094 -1.5315  1.4746  0.8818
 2103TIP3    H227869   3.955   3.706   2.135 -1.1512 -2.1064 -0.3054
 2104TIP3   OH227870   1.281   2.264   0.165 -0.1104 -0.0396  0.0416
 2104TIP3    H127871   1.323   2.251   0.250  0.0587  0.8510  0.0985
 2104TIP3    H227872   1.191   2.289   0.185 -0.4591 -1.1328 -0.0727
 2105TIP3   OH227873   0.996   2.716   7.221  0.6062 -0.5252 -0.1912
 2105TIP3    H127874   1.078   2.710   7.172  1.8317  0.3224  1.6232
 2105TIP3    H227875   0.963   2.804   7.203 -0.3027 -1.1036 -1.4605
 2106TIP3   OH227876   5.078   6.599   0.421 -0.0159  0.8158  0.8030
 2106TIP3    H127877   5.103   6.533   0.485 -0.4910  1.5719  1.7958
 2106TIP3    H227878   5.015   6.655   0.467 -1.1889  0.7560 -0.6582
 2107TIP3   OH227879   0.126   0.999   1.367  0.3969 -0.6727  0.2519
 2107TIP3    H127880   0.114   0.983   1.461 -0.3017 -2.9176 -0.1607
 2107TIP3    H227881   0.041   1.033   1.338  0.5104 -0.2861  0.3672
 2108TIP3   OH227882   5.138   2.116   7.985 -0.1186 -0.3045 -0.0464
 2108TIP3    H127883   5.219   2.154   8.020 -0.1254  1.3349 -1.6397
 2108TIP3    H227884   5.069   2.177   8.011 -0.9713 -1.8589  1.5945
 2109TIP3   OH227885   0.875   4.316   1.125  0.2832 -0.2541 -0.0230
 2109TIP3    H127886   0.862   4.375   1.051  0.7437  1.1477  0.9785
 2109TIP3    H227887   0.857   4.229   1.089 -2.9264  0.6583 -0.9329
 2110TIP3   OH227888   3.490   1.950   2.729 -0.6422  0.2187  0.2352
 2110TIP3    H127889   3.486   2.021   2.793 -2.6679 -0.3966  0.8406
 2110TIP3    H227890   3.577   1.912   2.741 -0.7256  0.5443  2.1593
 2111TIP3   OH227891   4.846   1.056   0.253  0.2783  0.1600 -0.6955
 2111TIP3    H127892   4.934   1.044   0.217  0.5149 -0.4838  0.0782
 2111TIP3    H227893   4.812   1.134   0.208  1.8228  1.3596  0.1361
 2112TIP3   OH227894   1.570   3.386   7.394  0.2582  0.0611 -0.1041
 2112TIP3    H127895   1.534   3.309   7.438 -0.1055  0.5403  0.4698
 2112TIP3    H227896   1.576   3.361   7.302 -0.3825 -0.4623 -0.0128
 2113TIP3   OH227897   3.039   1.417   8.229 -0.4283 -0.9764  0.3070
 2113TIP3    H127898   2.984   1.466   8.289  0.4501 -3.8971  3.8285
 2113TIP3    H227899   3.127   1.424   8.265  0.4322 -1.7031 -1.4834
 2114TIP3   OH227900   6.133   1.217   7.318 -0.0842  0.2371  0.0206
 2114TIP3    H127901   6.162   1.250   7.403  0.3534 -0.9774  0.3562
 2114TIP3    H227902   6.186   1.139   7.302  1.0151  1.3316 -2.1392
 2115TIP3   OH227903   6.437   1.990   1.664  0.6130 -0.0341  0.3243
 2115TIP3    H127904   6.499   1.928   1.625  0.5563 -0.3206  0.6884
 2115TIP3    H227905   6.382   1.937   1.721  0.5824  0.3525  0.6626
 2116TIP3   OH227906   0.194   6.781   1.961  0.6838 -0.0322 -0.0534
 2116TIP3    H127907   0.288   6.794   1.972  0.9508 -1.2947 -0.6936
 2116TIP3    H227908   0.184   6.755   1.870 -0.2111 -0.6139  0.2010
 2117TIP3   OH227909   5.794   5.367   0.177 -0.2083  0.2274  0.6953
 2117TIP3    H127910   5.853   5.307   0.131 -1.2548 -0.0119 -0.3752
 2117TIP3    H227911   5.849   5.442   0.199  0.2770  0.4824 -1.2333
 2118TIP3   OH227912   1.041   2.512   1.918 -0.4728 -0.1711 -0.3431
 2118TIP3    H127913   0.962   2.539   1.965 -1.0024  0.1322 -1.3712
 2118TIP3    H227914   1.104   2.490   1.987 -1.4683 -0.4695  0.5019
 2119TIP3   OH227915   3.950   4.985   0.636 -0.5309 -0.1255  0.0191
 2119TIP3    H127916   3.858   5.011   0.623 -0.8752 -0.5871  1.4208
 2119TIP3    H227917   3.961   4.981   0.731  0.4149 -1.8904 -0.1295
 2120TIP3   OH227918   6.021   0.006   0.518  0.0552  0.1466 -0.2674
 2120TIP3    H127919   5.975   0.082   0.554  2.4133  1.8029 -0.5335
 2120TIP3    H227920   6.024  -0.056   0.591 -0.1220  1.1692  0.6369
 2121TIP3   OH227921   0.677   2.739   0.988 -0.5702  0.0921  0.4371
 2121TIP3    H127922   0.702   2.828   0.963  0.3331 -0.5256 -0.9382
 2121TIP3    H227923   0.584   2.733   0.966 -0.6921  0.7660  0.7593
 2122TIP3   OH227924   1.040   6.624   2.387  0.5759 -0.3472  1.1049
 2122TIP3    H127925   0.967   6.685   2.378 -0.3196 -1.4606  0.4734
 2122TIP3    H227926   1.007   6.542   2.351  1.3701 -1.5220  2.9121
 2123TIP3   OH227927   4.201   3.894   8.710 -0.1366 -0.1768  0.6265
 2123TIP3    H127928   4.195   3.799   8.694  0.3731 -0.2644  0.9384
 2123TIP3    H227929   4.117   3.916   8.751  0.4471 -0.8519  2.2827
 2124TIP3   OH227930   4.057   1.841   6.623 -0.1897 -0.0605  0.0985
 2124TIP3    H127931   4.097   1.920   6.588 -0.0435 -0.2893 -0.2582
 2124TIP3    H227932   3.963   1.854   6.612 -0.1885  0.2533  0.4530
 2125TIP3   OH227933   6.364   1.444   1.849 -0.7640 -0.4342  0.1076
 2125TIP3    H127934   6.459   1.451   1.844 -0.9287  0.9664 -2.0810
 2125TIP3    H227935   6.349   1.381   1.920  1.7922 -1.2218  0.0579
 2126TIP3   OH227936   3.242   6.109   2.156 -0.1337 -0.2160  0.1975
 2126TIP3    H127937   3.224   6.200   2.178  0.6522 -0.6271  3.0282
 2126TIP3    H227938   3.180   6.059   2.209 -0.6647 -1.3567 -1.4398
 2127TIP3   OH227939   6.565   1.687   0.170 -0.6305  0.3281  0.3343
 2127TIP3    H127940   6.618   1.666   0.093 -1.4004  1.0789 -0.4234
 2127TIP3    H227941   6.488   1.630   0.162  0.4217 -1.4297  1.9148
 2128TIP3   OH227942   3.302   0.448   0.754  0.2603 -0.3298 -0.2884
 2128TIP3    H127943   3.224   0.401   0.784 -0.7573  0.8137 -1.0600
 2128TIP3    H227944   3.328   0.502   0.829 -1.4426  1.4639 -0.9066
 2129TIP3   OH227945   4.273   0.033   0.089  0.4811  0.3593 -0.5730
 2129TIP3    H127946   4.256  -0.034   0.023 -1.3889  0.0382  0.1419
 2129TIP3    H227947   4.315  -0.014   0.161 -1.9782 -0.4187  0.4591
 2130TIP3   OH227948   4.791   0.735   7.863  0.8213  0.1356  0.5654
 2130TIP3    H127949   4.781   0.820   7.819 -2.3615 -0.5734 -0.3567
 2130TIP3    H227950   4.883   0.712   7.850  1.1148  2.1288 -1.6488
 2131TIP3   OH227951   2.938   4.508   7.907 -0.2289 -0.5874 -0.1653
 2131TIP3    H127952   2.863   4.555   7.943 -0.2049 -0.9679  0.3990
 2131TIP3    H227953   2.966   4.450   7.978  0.8532 -0.1604 -0.2255
 2132TIP3   OH227954   3.505   6.682   2.887  0.4066 -0.1652 -0.3033
 2132TIP3    H127955   3.552   6.601   2.905 -0.8795 -0.9925 -0.6010
 2132TIP3    H227956   3.478   6.675   2.795  0.0577  0.4755 -0.2574
 2133TIP3   OH227957   3.852   2.401   2.426  0.0938  0.1434  0.0693
 2133TIP3    H127958   3.861   2.306   2.421  1.4549  0.2068  0.7971
 2133TIP3    H227959   3.822   2.417   2.516 -0.1369  0.4051 -0.0522
 2134TIP3   OH227960   4.397   3.677   2.478  0.1288  0.4503 -0.2761
 2134TIP3    H127961   4.350   3.603   2.440 -1.6947  0.9309  0.9492
 2134TIP3    H227962   4.432   3.644   2.561 -0.1309  0.7822 -0.0337
 2135TIP3   OH227963   2.874   0.760   1.378 -0.0299  0.2935  0.0889
 2135TIP3    H127964   2.927   0.682   1.359  1.0326  0.6073  1.5738
 2135TIP3    H227965   2.850   0.794   1.292  0.6609 -0.9043 -0.6035
 2136TIP3   OH227966   1.807   4.393   0.687 -0.2916 -0.0472  0.5716
 2136TIP3    H127967   1.747   4.319   0.679 -3.4637  2.1313  2.2223
 2136TIP3    H227968   1.819   4.404   0.781  1.1685  0.7830  0.3165
 2137TIP3   OH227969   3.432   0.033   0.606 -0.1396 -0.3481 -0.2181
 2137TIP3    H127970   3.404   0.125   0.598 -1.1409 -0.6572 -0.4121
 2137TIP3    H227971   3.447   0.021   0.699 -3.0742 -0.8056  0.3105
 2138TIP3   OH227972   5.037   6.574   2.418 -0.0496  0.1634  1.0692
 2138TIP3    H127973   5.107   6.635   2.442 -1.8708  1.9060  2.3685
 2138TIP3    H227974   4.981   6.624   2.359 -0.4141 -1.0543  0.3558
 2139TIP3   OH227975   4.278   2.999   7.718  0.2701  0.3142 -0.4424
 2139TIP3    H127976   4.335   2.925   7.695  0.6689  0.6509 -0.5619
 2139TIP3    H227977   4.334   3.055   7.772 -0.1201  0.3892 -0.1180
 2140TIP3   OH227978   0.782   0.445   0.986  0.2725 -0.3697 -0.5289
 2140TIP3    H127979   0.854   0.432   1.048 -0.4908 -1.6447  0.1303
 2140TIP3    H227980   0.822   0.493   0.913  1.5558 -0.2044  0.2495
 2141TIP3   OH227981   5.840   5.618   1.985  0.5795  0.0804  0.6068
 2141TIP3    H127982   5.795   5.625   1.901  1.4162 -1.3259  0.0074
 2141TIP3    H227983   5.890   5.700   1.993 -0.7309  0.9102  0.5026
 2142TIP3   OH227984   3.157   5.168   1.496  0.6518 -0.5464 -0.6790
 2142TIP3    H127985   3.106   5.088   1.482 -0.2649 -0.1108  0.0146
 2142TIP3    H227986   3.140   5.221   1.418 -2.9120  1.0901  1.0054
 2143TIP3   OH227987   6.796   1.141   0.090  0.6117  0.4740 -0.0170
 2143TIP3    H127988   6.713   1.189   0.084  0.6096  0.3612 -0.9388
 2143TIP3    H227989   6.772   1.056   0.127  0.1888  0.1420 -1.0300
 2144TIP3   OH227990   6.109   3.162   0.970 -0.2026  0.0470 -0.1717
 2144TIP3    H127991   6.089   3.225   0.901 -0.0603 -0.1529 -0.3958
 2144TIP3    H227992   6.191   3.120   0.943 -1.2794 -1.6325 -1.0380
 2145TIP3   OH227993   5.719   4.788   7.783 -0.5292  0.0165 -0.1508
 2145TIP3    H127994   5.807   4.818   7.805 -0.0723 -1.7945  0.6682
 2145TIP3    H227995   5.671   4.788   7.866  0.0820 -3.2305  0.3447
 2146TIP3   OH227996   5.513   2.992   7.643 -0.0457  0.2463 -0.2681
 2146TIP3    H127997   5.558   3.070   7.610 -0.0460 -0.6782 -2.6283
 2146TIP3    H227998   5.574   2.920   7.625 -1.1752 -0.6278 -0.6941
 2147TIP3   OH227999   3.084   0.963   2.599  0.5530 -0.2064  0.0682
 2147TIP3    H128000   3.122   0.947   2.685 -0.1276 -1.1749  0.1991
 2147TIP3    H228001   3.111   0.888   2.546 -2.3781 -1.7577  0.5828
 2148TIP3   OH228002   3.043   6.049   2.696  0.2291  0.4560  0.0065
 2148TIP3    H128003   3.001   6.135   2.686 -0.4966  0.4954  2.6615
 2148TIP3    H228004   2.980   5.987   2.659 -0.1702  0.8921 -0.0552
 2149TIP3   OH228005   5.975   0.261   0.890  0.1843  0.6621  0.0990
 2149TIP3    H128006   5.990   0.225   0.803 -0.0333  0.4778  0.1374
 2149TIP3    H228007   5.912   0.201   0.931  2.5406 -1.0176  1.5024
 2150TIP3   OH228008   1.435   3.447   8.184 -0.6207 -0.0784  0.0474
 2150TIP3    H128009   1.475   3.532   8.165  0.4467 -0.4838  0.4032
 2150TIP3    H228010   1.497   3.405   8.244 -0.6670 -1.4835 -0.8552
 2151TIP3   OH228011   1.239   5.965   7.471  0.4587  0.4945  0.5884
 2151TIP3    H128012   1.145   5.980   7.464 -0.1949 -2.9005  0.4411
 2151TIP3    H228013   1.272   5.976   7.382  0.1603  1.3052  0.5705
 2152TIP3   OH228014   3.559   2.387   2.261  0.4216  0.0615 -0.0225
 2152TIP3    H128015   3.542   2.459   2.200  0.5593 -0.2276 -0.4056
 2152TIP3    H228016   3.638   2.415   2.308  1.3646 -0.4874 -1.2092
 2153TIP3   OH228017   3.390   5.314   2.766  0.3245 -0.0938 -0.3864
 2153TIP3    H128018   3.415   5.401   2.798 -1.5779 -0.3305  2.0503
 2153TIP3    H228019   3.400   5.256   2.842 -2.7740 -1.0620 -0.5588
 2154TIP3   OH228020   2.636   3.079   2.146 -0.0371  0.0457 -0.0028
 2154TIP3    H128021   2.577   3.074   2.071 -0.2849 -1.4252  0.2489
 2154TIP3    H228022   2.679   3.164   2.138 -3.7653  2.2248  1.0590
 2155TIP3   OH228023   2.922   5.512   1.802 -0.0363  0.0046 -0.2052
 2155TIP3    H128024   2.972   5.589   1.774 -0.4673  0.3010 -0.1777
 2155TIP3    H228025   2.987   5.453   1.840  0.8206 -0.9955 -2.9764
 2156TIP3   OH228026   2.744   6.359   7.736 -0.3609 -0.0533  0.2502
 2156TIP3    H128027   2.795   6.279   7.733 -1.4346 -0.7612  0.2440
 2156TIP3    H228028   2.716   6.374   7.645  1.8089  1.6837 -0.2143
 2157TIP3   OH228029   1.120   3.004   7.288 -0.0779 -0.0427 -0.7457
 2157TIP3    H128030   1.155   2.943   7.222  0.8006  2.0540 -2.3574
 2157TIP3    H228031   1.027   3.012   7.266 -0.5191 -1.7947  0.3512
 2158TIP3   OH228032   3.388   4.507   1.189 -0.4176  0.1901  0.4496
 2158TIP3    H128033   3.297   4.515   1.216 -0.1510 -0.1842  1.4936
 2158TIP3    H228034   3.438   4.506   1.271  0.6090  1.3185 -0.1263
 2159TIP3   OH228035   1.417   6.831   0.112 -0.0764  0.0456  0.0496
 2159TIP3    H128036   1.426   6.746   0.156  1.7606  0.9769  1.6228
 2159TIP3    H228037   1.367   6.885   0.174 -0.2388  0.4491 -0.4296
 2160TIP3   OH228038   0.386   2.523   1.574 -0.1945 -0.4956  0.2815
 2160TIP3    H128039   0.303   2.507   1.529 -0.9180  1.1921  0.9230
 2160TIP3    H228040   0.360   2.543   1.664  1.1280 -2.5540  1.1884
 2161TIP3   OH228041   3.749   5.707   1.119 -0.0581 -0.2395 -0.4442
 2161TIP3    H128042   3.785   5.722   1.031 -0.0899  1.8880 -0.1318
 2161TIP3    H228043   3.707   5.789   1.142 -0.4826 -0.9333  1.3880
 2162TIP3   OH228044   2.422   4.359   2.416  0.0235 -0.1917 -0.1001
 2162TIP3    H128045   2.386   4.300   2.482  0.6094 -0.2941  0.1316
 2162TIP3    H228046   2.427   4.444   2.460  1.3298 -0.4673  0.3175
 2163TIP3   OH228047   5.472   6.214   8.454 -0.0536  0.9722  0.7116
 2163TIP3    H128048   5.557   6.197   8.415 -0.0201  0.4337  1.0127
 2163TIP3    H228049   5.477   6.176   8.541 -0.2434  1.8550  1.1254
 2164TIP3   OH228050   2.890   5.145   0.868 -0.0426  0.4437 -0.1061
 2164TIP3    H128051   2.867   5.079   0.803  0.6797  1.2683 -1.2564
 2164TIP3    H228052   2.810   5.196   0.880 -0.5033 -0.4158  0.5256
 2165TIP3   OH228053   4.626   0.638   1.444  0.1769 -0.3167  0.5923
 2165TIP3    H128054   4.663   0.725   1.430 -2.1539  0.8028  0.8395
 2165TIP3    H228055   4.695   0.589   1.489  1.5817  1.3763  0.3631
 2166TIP3   OH228056   4.210   5.986   8.556 -0.2233 -0.2704  0.4925
 2166TIP3    H128057   4.158   5.927   8.612 -1.1042 -0.2275 -0.2511
 2166TIP3    H228058   4.227   6.062   8.612 -0.4233 -0.5599  0.9599
 2167TIP3   OH228059   5.224   2.944   2.402 -0.2213 -0.7209 -0.0942
 2167TIP3    H128060   5.132   2.950   2.377 -0.5322  1.0748  1.2065
 2167TIP3    H228061   5.272   2.936   2.319 -1.5157 -1.5855 -0.7880
 2168TIP3   OH228062   5.981   5.826   0.111 -0.4065  0.2549 -0.8296
 2168TIP3    H128063   6.074   5.847   0.100 -0.0453 -0.1996  0.9512
 2168TIP3    H228064   5.942   5.842   0.025  1.2653  0.7067 -1.5460
 2169TIP3   OH228065   3.217   2.229   7.844 -0.1952 -0.3427 -0.4422
 2169TIP3    H128066   3.259   2.281   7.913  0.6228 -1.3735 -0.1416
 2169TIP3    H228067   3.130   2.268   7.834 -0.1876  0.0709  0.9082
 2170TIP3   OH228068   5.868   2.108   3.072  0.3811 -0.4308 -0.4483
 2170TIP3    H128069   5.881   2.188   3.123  2.7225 -1.4009  0.6032
 2170TIP3    H228070   5.797   2.062   3.117  1.7105 -0.7749  1.4179
 2171TIP3   OH228071   2.096   3.920   0.335  0.3167  0.3150 -0.0962
 2171TIP3    H128072   2.150   3.971   0.275 -1.3471 -0.1865 -2.1281
 2171TIP3    H228073   2.148   3.915   0.415  1.4041  3.4332 -0.4699
 2172TIP3   OH228074   0.539   0.645   7.842 -0.1400 -0.0754  0.2587
 2172TIP3    H128075   0.603   0.645   7.771  1.1501 -1.5924  1.3577
 2172TIP3    H228076   0.489   0.725   7.829  1.8178  1.0526 -0.8017
 2173TIP3   OH228077   4.963   1.554   1.736 -0.5838 -0.3750 -0.1327
 2173TIP3    H128078   5.042   1.596   1.702  1.0002 -0.9296  2.4989
 2173TIP3    H228079   4.987   1.462   1.743 -1.7252 -0.6640  0.0718
 2174TIP3   OH228080   1.645   2.609   2.897  0.2663 -0.1957 -0.4542
 2174TIP3    H128081   1.686   2.623   2.812 -0.6339  0.4581 -0.7901
 2174TIP3    H228082   1.643   2.696   2.938 -1.4649 -0.0692 -0.7657
 2175TIP3   OH228083   4.196   6.018   1.298  0.4412 -0.0623 -0.1479
 2175TIP3    H128084   4.254   6.073   1.350  2.3506 -0.8328 -1.3527
 2175TIP3    H228085   4.117   6.071   1.286  1.0832  1.2403  1.0907
 2176TIP3   OH228086   0.743   4.874   0.433  0.0556 -0.3077 -0.0265
 2176TIP3    H128087   0.835   4.882   0.458  0.1227 -1.4552  0.1837
 2176TIP3    H228088   0.715   4.963   0.413  0.9353  0.1924  0.8779
 2177TIP3   OH228089   6.201   3.686   2.489 -0.0466  0.5817 -0.2150
 2177TIP3    H128090   6.193   3.613   2.427  2.4361 -0.4334  0.5083
 2177TIP3    H228091   6.173   3.649   2.572  2.0644  0.0872  0.3326
 2178TIP3   OH228092   4.421   3.201   7.861 -0.2263  0.6786 -0.6833
 2178TIP3    H128093   4.379   3.251   7.930  2.5864  0.7098  1.1351
 2178TIP3    H228094   4.435   3.264   7.790 -0.3020  1.4625 -0.0103
 2179TIP3   OH228095   3.645   2.247   1.000  0.0688 -0.7773 -0.0735
 2179TIP3    H128096   3.550   2.241   0.995 -0.0446  0.8730 -0.3549
 2179TIP3    H228097   3.667   2.212   1.087 -0.8600 -0.5302  0.2725
 2180TIP3   OH228098   2.274   5.326   7.695 -0.5219  0.3400  0.4553
 2180TIP3    H128099   2.231   5.244   7.720  0.3435 -0.8043 -1.6313
 2180TIP3    H228100   2.240   5.346   7.608  0.9520  0.9795 -0.0085
 2181TIP3   OH228101   1.117   0.912   0.994 -0.0324 -0.3162 -0.4008
 2181TIP3    H128102   1.169   0.990   0.974 -0.8817  0.0976 -1.0226
 2181TIP3    H228103   1.166   0.840   0.954  0.7640 -0.1192  0.1883
 2182TIP3   OH228104   1.592   4.056   8.126  0.0789  0.4408  0.0866
 2182TIP3    H128105   1.532   3.987   8.099  0.5211  0.5067 -1.1273
 2182TIP3    H228106   1.535   4.127   8.154 -0.4012  0.1497 -0.1286
 2183TIP3   OH228107   2.278   4.546   7.963 -0.1729 -0.6403 -0.2045
 2183TIP3    H128108   2.298   4.615   7.899  0.3977  0.3347  0.9932
 2183TIP3    H228109   2.209   4.495   7.921  0.2050 -0.0418 -1.6136
 2184TIP3   OH228110   3.985   4.434   2.563  0.3925 -0.4585  0.1287
 2184TIP3    H128111   4.081   4.426   2.564  0.5090  0.6831  0.2230
 2184TIP3    H228112   3.958   4.397   2.479  0.8082 -1.7050  0.5194
 2185TIP3   OH228113   2.259   4.570   8.366  0.0643 -0.1766 -0.6865
 2185TIP3    H128114   2.222   4.569   8.455  0.6824 -0.6095 -0.4298
 2185TIP3    H228115   2.193   4.525   8.313  0.1355 -0.7960 -0.2627
 2186TIP3   OH228116   5.426   1.493   0.914 -0.2386  0.6654  0.0377
 2186TIP3    H128117   5.332   1.513   0.915 -0.6077 -0.9228  0.2232
 2186TIP3    H228118   5.460   1.533   0.994 -1.0956 -0.1191  0.8179
 2187TIP3   OH228119   2.935   0.116   8.164  0.5596 -0.3301  0.4025
 2187TIP3    H128120   2.922   0.027   8.197  0.5361 -1.2199 -1.8694
 2187TIP3    H228121   3.030   0.127   8.162  0.5766 -0.5107  0.1788
 2188TIP3   OH228122   6.542   5.334   0.675 -0.1440  0.3066 -0.0090
 2188TIP3    H128123   6.453   5.306   0.655 -0.2123  0.4347  0.1123
 2188TIP3    H228124   6.595   5.301   0.603 -0.2554  0.0401  0.0321
 2189TIP3   OH228125   4.660   3.709   6.956 -0.4966  0.1560  0.6099
 2189TIP3    H128126   4.733   3.651   6.978 -1.8988 -0.9491  2.6647
 2189TIP3    H228127   4.698   3.797   6.960  1.1341 -0.4676 -0.2496
 2190TIP3   OH228128   1.145   5.844   8.275 -0.3476  0.5515 -0.1867
 2190TIP3    H128129   1.227   5.796   8.264  0.1582  1.5607 -1.0027
 2190TIP3    H228130   1.077   5.779   8.259  0.3187  0.1156 -1.3640
 2191TIP3   OH228131   3.987   1.558   1.126  0.4718 -0.1078  0.1238
 2191TIP3    H128132   3.900   1.520   1.139  0.2471  0.6276  0.7996
 2191TIP3    H228133   4.047   1.484   1.135  0.0690 -0.2682  1.8247
 2192TIP3   OH228134   4.072   0.061   2.012 -0.4288  0.7655 -0.8583
 2192TIP3    H128135   4.017   0.070   2.089 -2.4401 -0.5122 -2.0488
 2192TIP3    H228136   4.162   0.062   2.045 -1.2131  0.9615  1.3863
 2193TIP3   OH228137   2.933   1.748   8.154  0.2008 -0.4752 -0.8232
 2193TIP3    H128138   3.000   1.707   8.100 -1.0906 -0.5492 -2.4169
 2193TIP3    H228139   2.907   1.680   8.216  0.6561 -0.8621 -1.0533
 2194TIP3   OH228140   6.520   0.802   6.525  0.3879  0.3097  0.0889
 2194TIP3    H128141   6.517   0.725   6.582 -1.0663  0.5022  0.3180
 2194TIP3    H228142   6.608   0.837   6.536  0.7177 -0.7073  0.8076
 2195TIP3   OH228143   3.106   0.429   1.510 -0.1830  0.1100 -0.4325
 2195TIP3    H128144   3.126   0.500   1.570 -2.1369  0.1951  0.1763
 2195TIP3    H228145   3.144   0.457   1.427 -0.2039  1.4807 -0.0097
 2196TIP3   OH228146   5.490   1.031   0.318  0.1467 -0.2133  0.1770
 2196TIP3    H128147   5.530   0.946   0.297 -0.5227 -0.8017  1.1582
 2196TIP3    H228148   5.515   1.088   0.246  0.8813 -1.1636 -0.3487
 2197TIP3   OH228149   1.114   4.983   8.038 -0.5916  0.0894  0.0717
 2197TIP3    H128150   1.070   5.041   7.976 -0.0144 -1.0385 -1.4779
 2197TIP3    H228151   1.065   4.992   8.119 -0.7227  2.4557 -0.2075
 2198TIP3   OH228152   0.597   2.291   0.554  0.1200 -0.3064 -0.5259
 2198TIP3    H128153   0.624   2.246   0.474 -1.1468 -0.6236 -0.8131
 2198TIP3    H228154   0.541   2.227   0.599 -0.5479  0.4627 -0.2355
 2199TIP3   OH228155   4.573   0.586   7.915 -0.3506  0.1206 -0.2063
 2199TIP3    H128156   4.647   0.645   7.910 -0.4861  0.2281 -1.1688
 2199TIP3    H228157   4.546   0.589   8.007  1.8189 -1.1677  0.5430
 2200TIP3   OH228158   0.897   3.591   1.887  0.2736  0.0656  0.3445
 2200TIP3    H128159   0.966   3.574   1.823  0.8088 -0.6275  1.0803
 2200TIP3    H228160   0.828   3.636   1.837 -0.1855 -2.1714 -1.1972
 2201TIP3   OH228161   4.957   3.796   2.264 -0.4872 -0.2000 -0.2238
 2201TIP3    H128162   4.919   3.732   2.203 -1.7122  0.8932 -0.6742
 2201TIP3    H228163   4.886   3.813   2.327 -0.2841  0.8956 -0.2737
 2202TIP3   OH228164   1.186   4.895   7.121  0.5152  0.5286 -0.4185
 2202TIP3    H128165   1.188   4.988   7.144 -3.5307  0.8016 -0.4675
 2202TIP3    H228166   1.205   4.893   7.028 -0.7659  1.5371 -0.7330
 2203TIP3   OH228167   6.609   5.087   1.417 -0.5254 -0.0959  0.8953
 2203TIP3    H128168   6.678   5.022   1.425 -2.2926 -1.9708  2.0822
 2203TIP3    H228169   6.606   5.108   1.323 -0.2034 -2.1596  0.3621
 2204TIP3   OH228170   3.019   5.687   0.307  0.2544  0.3151 -0.1548
 2204TIP3    H128171   2.929   5.694   0.275  0.1774 -1.2576 -0.3799
 2204TIP3    H228172   3.023   5.746   0.382 -0.9569  0.4304 -0.1616
 2205TIP3   OH228173   6.104   5.407   1.861 -0.1310  0.8252 -0.0224
 2205TIP3    H128174   6.009   5.422   1.852 -0.0288  1.1236 -0.6592
 2205TIP3    H228175   6.114   5.312   1.854 -0.4166  0.7567  0.4232
 2206TIP3   OH228176   1.413   3.376   2.338 -0.3021 -1.2161 -0.4319
 2206TIP3    H128177   1.462   3.398   2.259  0.4574  0.1447  0.3758
 2206TIP3    H228178   1.341   3.439   2.340  0.9612  0.2929  1.0621
 2207TIP3   OH228179   3.423   5.628   1.888  0.2412  0.1179 -0.0031
 2207TIP3    H128180   3.457   5.543   1.914 -0.3570 -0.2110 -0.2771
 2207TIP3    H228181   3.435   5.630   1.793  0.3931  0.4058  0.0207
 2208TIP3   OH228182   0.900   2.437   3.057 -0.1466 -0.0967  0.0321
 2208TIP3    H128183   0.979   2.429   3.111  0.1422 -0.5740 -0.4339
 2208TIP3    H228184   0.928   2.405   2.971 -0.7654  0.0417 -0.2251
 2209TIP3   OH228185   0.419   2.264   0.241 -0.0292 -0.4195 -0.2174
 2209TIP3    H128186   0.497   2.321   0.241 -0.7341  0.5963  0.6679
 2209TIP3    H228187   0.351   2.317   0.201 -0.9530 -0.2294  1.5022
 2210TIP3   OH228188   2.158   3.004   8.607  0.2985 -0.3158  0.1132
 2210TIP3    H128189   2.125   3.086   8.569  1.1764  0.1517  0.3265
 2210TIP3    H228190   2.251   3.021   8.622  0.6909 -1.6737 -0.6746
 2211TIP3   OH228191   6.557   5.304   8.433  0.6685  0.3223  0.2770
 2211TIP3    H128192   6.583   5.388   8.472  0.5909  0.2350  0.5179
 2211TIP3    H228193   6.588   5.238   8.494  1.9293  0.0924 -0.5686
 2212TIP3   OH228194   2.547   2.423   7.166  0.1059  0.5887  0.0634
 2212TIP3    H128195   2.639   2.412   7.190  1.0192  2.7669 -1.9865
 2212TIP3    H228196   2.531   2.517   7.175 -1.9560  0.2561  0.3980
 2213TIP3   OH228197   4.127   1.929   7.339 -0.3100 -0.5134  0.3549
 2213TIP3    H128198   4.164   1.991   7.401 -2.2750  0.7872  0.3182
 2213TIP3    H228199   4.100   1.983   7.264 -0.7757 -1.6114 -0.2995
 2214TIP3   OH228200   0.803   6.375   0.234  0.4740 -0.0654 -0.0270
 2214TIP3    H128201   0.792   6.394   0.141  0.3495  0.3660  0.0709
 2214TIP3    H228202   0.859   6.446   0.267 -0.4247  0.4427  0.4571
 2215TIP3   OH228203   5.494   0.980   0.919 -0.4800  0.2016 -0.0230
 2215TIP3    H128204   5.561   0.999   0.985 -0.8057  0.0564  0.3503
 2215TIP3    H228205   5.465   1.067   0.890  1.8963  0.3535 -2.3000
 2216TIP3   OH228206   5.973   1.701   1.578  0.6956 -0.2470 -0.3162
 2216TIP3    H128207   5.976   1.794   1.555 -2.1747 -0.6831 -2.9524
 2216TIP3    H228208   5.934   1.699   1.666  0.9694  1.0031 -0.1484
 2217TIP3   OH228209   2.302   4.720   2.298 -0.8957 -0.3012 -0.2578
 2217TIP3    H128210   2.333   4.746   2.211 -2.5254  0.9897 -0.4936
 2217TIP3    H228211   2.338   4.787   2.357 -1.0164 -0.3309 -0.1506
 2218TIP3   OH228212   4.655   1.171   2.034  0.3056 -0.1514 -0.3207
 2218TIP3    H128213   4.668   1.099   1.972 -1.2051 -2.3362  1.7165
 2218TIP3    H228214   4.734   1.171   2.087  0.0163 -0.8299  0.1261
 2219TIP3   OH228215   6.749   1.702   8.246 -0.3291 -0.1059 -0.0699
 2219TIP3    H128216   6.695   1.666   8.316  0.7646 -1.7646 -0.0098
 2219TIP3    H228217   6.819   1.637   8.235  1.8835  2.0998  0.1375
 2220TIP3   OH228218   6.716   2.395   1.064  0.5442  0.3486  0.3126
 2220TIP3    H128219   6.663   2.375   1.142 -1.1203  0.5395 -0.7271
 2220TIP3    H228220   6.759   2.312   1.043 -2.5883 -1.0558 -1.1699
 2221TIP3   OH228221   1.535   6.365   0.108 -0.5285  0.7033 -0.0928
 2221TIP3    H128222   1.524   6.313   0.187 -0.5564  3.3231  1.7902
 2221TIP3    H228223   1.618   6.335   0.071 -1.0745 -1.3666  0.2356
 2222TIP3   OH228224   5.309   5.856   1.019 -0.4469  0.4023 -0.0011
 2222TIP3    H128225   5.220   5.885   1.000 -0.8493 -0.5118  0.4010
 2222TIP3    H228226   5.297   5.770   1.061  0.6696 -0.2130 -0.8977
 2223TIP3   OH228227   1.107   2.788   1.886  0.6290  0.0929 -0.1604
 2223TIP3    H128228   1.200   2.794   1.904  0.1994  0.6172  2.0880
 2223TIP3    H228229   1.097   2.703   1.842  2.1046 -0.0674 -0.2329
 2224TIP3   OH228230   2.755   4.956   7.129 -0.0595  0.2191  0.4208
 2224TIP3    H128231   2.754   5.049   7.151  0.0830  0.2098  0.4709
 2224TIP3    H228232   2.666   4.936   7.102  0.1462  0.6292 -0.6271
 2225TIP3   OH228233   6.255   0.379   1.517 -0.5657  0.2641 -0.3883
 2225TIP3    H128234   6.332   0.409   1.565 -1.0988 -0.3722  0.8893
 2225TIP3    H228235   6.270   0.286   1.504 -1.1831  0.1140 -0.0199
 2226TIP3   OH228236   0.499   4.263   7.663 -0.5843 -0.3732 -0.4443
 2226TIP3    H128237   0.529   4.173   7.658  1.4221  0.2760 -0.8820
 2226TIP3    H228238   0.512   4.289   7.754  0.0250 -0.1561 -0.5884
 2227TIP3   OH228239   0.256   1.032   7.578 -0.0073 -0.1985 -0.4497
 2227TIP3    H128240   0.325   1.098   7.589 -0.4579  0.2703 -0.3547
 2227TIP3    H228241   0.178   1.083   7.560 -1.2109 -0.3825  3.2884
 2228TIP3   OH228242   2.655   4.922   8.720 -0.1158 -0.0789  0.2608
 2228TIP3    H128243   2.708   4.847   8.747 -0.9943 -0.1464  1.9460
 2228TIP3    H228244   2.715   4.996   8.724  0.1887 -0.3479  0.9315
 2229TIP3   OH228245   2.945   3.628   8.164  0.0176 -0.2693 -0.7428
 2229TIP3    H128246   2.880   3.573   8.120  1.5408 -0.0913 -3.4144
 2229TIP3    H228247   3.028   3.605   8.123  1.2725  1.3835  0.7184
 2230TIP3   OH228248   0.975   4.190   8.682 -0.0788 -0.1430 -0.0648
 2230TIP3    H128249   0.985   4.227   8.769 -1.2372  0.1086 -0.0260
 2230TIP3    H228250   0.955   4.265   8.626 -0.8881 -0.4853 -0.2557
 2231TIP3   OH228251   0.458   1.070   1.955 -0.1688 -0.3836  0.0336
 2231TIP3    H128252   0.432   1.117   1.876  0.6377  0.5755  0.3283
 2231TIP3    H228253   0.376   1.057   2.003 -0.8050 -1.7601 -1.3430
 2232TIP3   OH228254   1.599   5.366   1.767 -0.0469  0.1577 -0.1612
 2232TIP3    H128255   1.631   5.377   1.857 -1.3509  1.6574  0.1546
 2232TIP3    H228256   1.664   5.413   1.714  1.4285 -1.7908 -0.2079
 2233TIP3   OH228257   2.485   2.754   2.731 -0.3870 -0.3579 -0.1836
 2233TIP3    H128258   2.422   2.797   2.673  1.7645  1.0447 -1.6447
 2233TIP3    H228259   2.513   2.677   2.683 -0.7251 -0.7951  0.3134
 2234TIP3   OH228260   5.211   1.077   1.115 -0.4485 -0.1410  0.4002
 2234TIP3    H128261   5.265   1.026   1.175 -0.6822  0.0856  0.8109
 2234TIP3    H228262   5.135   1.103   1.168 -0.4257  0.4619  0.1369
 2235TIP3   OH228263   2.564   0.153   0.187 -0.9084 -0.3992  0.0853
 2235TIP3    H128264   2.623   0.208   0.135 -2.1367  1.7122  0.8199
 2235TIP3    H228265   2.484   0.147   0.134 -1.7226  0.7454  1.1207
 2236TIP3   OH228266   1.768   6.589   7.507 -0.0121 -0.7969  0.5245
 2236TIP3    H128267   1.711   6.513   7.502  0.5000 -1.1405 -0.3720
 2236TIP3    H228268   1.852   6.554   7.537  0.4611 -0.7385 -0.6759
 2237TIP3   OH228269   3.311   6.696   1.327 -0.1244 -0.3919  0.2488
 2237TIP3    H128270   3.233   6.716   1.276  0.5689  1.5210 -0.1275
 2237TIP3    H228271   3.375   6.762   1.301  0.4874  0.2675  3.0930
 2238TIP3   OH228272   4.758   2.486   2.595 -0.0553 -0.0547 -0.3189
 2238TIP3    H128273   4.676   2.447   2.563 -0.8331  1.3003 -0.0533
 2238TIP3    H228274   4.816   2.411   2.610 -0.7544 -0.9483 -1.8401
 2239TIP3   OH228275   0.967   2.405   2.339 -0.6468  0.5433  0.4485
 2239TIP3    H128276   0.966   2.490   2.294  1.8976  1.1667  1.3646
 2239TIP3    H228277   0.958   2.341   2.268  0.2015  1.5578 -0.6397
 2240TIP3   OH228278   0.993   6.089   7.770 -0.5549 -0.3253 -0.2801
 2240TIP3    H128279   0.980   6.052   7.682  2.1404  0.0745 -0.9360
 2240TIP3    H228280   1.038   6.172   7.753  0.3288 -0.4108  1.4816
 2241TIP3   OH228281   6.640   0.778   7.932  0.5610 -0.2136  0.0342
 2241TIP3    H128282   6.549   0.785   7.906  1.0734 -0.7112 -2.1063
 2241TIP3    H228283   6.655   0.683   7.942  0.1554 -0.0283  3.2852
 2242TIP3   OH228284   6.318   5.223   2.420 -0.3011  0.7255 -0.0358
 2242TIP3    H128285   6.268   5.217   2.339 -0.0291 -0.7612 -0.1226
 2242TIP3    H228286   6.283   5.300   2.465 -2.1089  0.1809 -0.4494
 2243TIP3   OH228287   0.739   2.946   0.599  0.4531 -0.2025  0.3969
 2243TIP3    H128288   0.680   2.875   0.624 -2.2096  2.0062  0.9840
 2243TIP3    H228289   0.754   2.933   0.505 -0.9686 -0.8788  0.2354
 2244TIP3   OH228290   3.678   4.610   7.835  0.1596  0.3595  0.1694
 2244TIP3    H128291   3.656   4.703   7.831  1.0147  0.6578  1.6896
 2244TIP3    H228292   3.594   4.566   7.843 -0.1477  1.2461  2.5340
 2245TIP3   OH228293   4.759   0.660   1.736 -0.0699 -0.4553  0.3312
 2245TIP3    H128294   4.664   0.658   1.738 -0.1572  1.2575 -0.0171
 2245TIP3    H228295   4.782   0.745   1.775  1.2211 -0.1386 -1.0040
 2246TIP3   OH228296   5.248   6.768   0.219  0.4420 -0.5271 -0.1296
 2246TIP3    H128297   5.305   6.780   0.295  0.3274 -0.7688 -0.0014
 2246TIP3    H228298   5.201   6.687   0.238 -0.5605  0.1085  0.1537
 2247TIP3   OH228299   5.633   6.161   2.955  0.2103 -0.0380 -0.6322
 2247TIP3    H128300   5.706   6.208   2.914  1.3388 -1.6233 -0.5660
 2247TIP3    H228301   5.573   6.229   2.984  1.0571  1.2703 -1.8271
 2248TIP3   OH228302   4.917   2.895   7.689  0.1345  0.3902  0.1605
 2248TIP3    H128303   4.986   2.859   7.746 -0.1759  1.0003  0.9470
 2248TIP3    H228304   4.945   2.985   7.672  0.9928 -0.2198 -1.9337
 2249TIP3   OH228305   4.368   1.152   0.436 -0.0998 -0.8064 -0.0059
 2249TIP3    H128306   4.434   1.150   0.506 -1.5311 -2.8308  1.4065
 2249TIP3    H228307   4.342   1.244   0.430  1.2953 -0.3210  0.8961
 2250TIP3   OH228308   2.627   4.875   8.222 -0.4661 -0.3246 -0.2467
 2250TIP3    H128309   2.546   4.866   8.272 -0.3997 -1.0528 -0.2614
 2250TIP3    H228310   2.606   4.843   8.135  0.0595 -1.3752 -0.0099
 2251TIP3   OH228311   1.883   5.700   8.126 -0.5254  0.3477 -0.4711
 2251TIP3    H128312   1.842   5.672   8.044 -1.9291 -0.3087  0.4132
 2251TIP3    H228313   1.928   5.622   8.158 -1.3098  0.1358  0.1480
 2252TIP3   OH228314   5.719   5.002   2.303  0.4744  0.6705 -0.5164
 2252TIP3    H128315   5.646   5.034   2.250 -0.6900 -0.7252  0.1691
 2252TIP3    H228316   5.688   5.011   2.394  0.7302 -0.8236 -0.2512
 2253TIP3   OH228317   5.057   6.280   8.021 -0.1927 -0.4541 -1.0570
 2253TIP3    H128318   5.099   6.225   7.955  1.5376 -0.2718 -0.1831
 2253TIP3    H228319   5.113   6.272   8.098 -0.8345  1.1693 -0.3637
 2254TIP3   OH228320   5.851   5.937   8.606  0.2166  0.6297  0.2165
 2254TIP3    H128321   5.775   5.984   8.573 -0.1290 -0.6117 -0.8407
 2254TIP3    H228322   5.870   5.871   8.539  1.0415 -0.3412  1.3565
 2255TIP3   OH228323   0.608   6.757   2.669 -0.1065 -0.0581  0.8723
 2255TIP3    H128324   0.692   6.716   2.647  0.2843  1.9849 -1.9893
 2255TIP3    H228325   0.542   6.698   2.632  0.2740 -0.0296  0.1205
 2256TIP3   OH228326   0.911   4.668   0.273 -0.4017  0.2392 -0.3513
 2256TIP3    H128327   0.847   4.717   0.325  0.6747 -0.0470  1.2899
 2256TIP3    H228328   0.971   4.630   0.337 -0.1442 -1.7460 -1.6853
 2257TIP3   OH228329   1.214   4.393   2.845 -0.2187 -0.0082 -0.4272
 2257TIP3    H128330   1.285   4.447   2.880 -0.3206  0.0734 -0.3462
 2257TIP3    H228331   1.243   4.370   2.756 -0.2231  0.2698 -0.5024
 2258TIP3   OH228332   2.777   5.221   7.187  0.1898  0.1841 -0.2974
 2258TIP3    H128333   2.763   5.275   7.110 -0.2597 -0.1084 -0.4228
 2258TIP3    H228334   2.816   5.281   7.251  0.4805  0.4481 -0.7180
 2259TIP3   OH228335   3.371   0.817   0.721 -0.0788 -0.2809 -0.6866
 2259TIP3    H128336   3.293   0.807   0.775  0.2330  2.6114  0.4477
 2259TIP3    H228337   3.358   0.900   0.674  1.4648 -0.7043 -1.9828
 2260TIP3   OH228338   2.796   3.670   8.702 -0.5512 -0.0747 -0.1758
 2260TIP3    H128339   2.832   3.707   8.622  0.4486 -0.4112  0.1031
 2260TIP3    H228340   2.738   3.600   8.672 -0.5399  0.1039 -0.6174
 2261TIP3   OH228341   0.678   3.356   0.904  0.1202 -0.4870 -0.4572
 2261TIP3    H128342   0.584   3.336   0.905  0.4533 -2.3925 -1.4834
 2261TIP3    H228343   0.706   3.334   0.815  1.4693  0.5440 -0.3229
 2262TIP3   OH228344   1.883   1.463   8.070  0.6712  0.0613 -0.0353
 2262TIP3    H128345   1.966   1.447   8.115  0.5226 -0.4586  0.0619
 2262TIP3    H228346   1.840   1.377   8.067  0.4090  0.2079 -0.6287
 2263TIP3   OH228347   0.664   0.273   7.894 -0.2190 -0.1305 -0.1874
 2263TIP3    H128348   0.647   0.331   7.968  1.3338 -0.8534  0.7991
 2263TIP3    H228349   0.760   0.269   7.889 -0.2803 -2.1180 -0.5854
 2264TIP3   OH228350   1.272   2.543   2.139 -0.2111  0.1226  0.4824
 2264TIP3    H128351   1.326   2.544   2.060  0.4129  1.2098  0.8985
 2264TIP3    H228352   1.260   2.450   2.159  0.0587 -0.1588 -0.5837
 2265TIP3   OH228353   4.295   4.784   0.945 -0.2103 -0.4938 -0.3031
 2265TIP3    H128354   4.342   4.802   0.864  1.0447 -0.9209  0.3089
 2265TIP3    H228355   4.308   4.690   0.961  1.6536  0.0228  1.6365
 2266TIP3   OH228356   2.413   6.627   0.339 -0.2603  0.0714  0.3668
 2266TIP3    H128357   2.432   6.558   0.275  0.4181  2.0988 -1.7700
 2266TIP3    H228358   2.319   6.619   0.357 -0.4584 -0.5871 -0.8711
 2267TIP3   OH228359   6.136   5.168   7.933  0.5811  0.4732 -0.2800
 2267TIP3    H128360   6.055   5.216   7.949 -0.5865 -1.2700 -0.7641
 2267TIP3    H228361   6.160   5.132   8.019 -0.8405 -1.5085 -0.6677
 2268TIP3   OH228362   5.702   1.721   8.485 -0.0529  0.6000  0.1695
 2268TIP3    H128363   5.647   1.792   8.453 -1.2507 -0.9771 -1.5021
 2268TIP3    H228364   5.742   1.756   8.565  1.3538  3.9793 -1.7942
 2269TIP3   OH228365   4.230   5.769   2.371 -0.3425  0.2446  0.1655
 2269TIP3    H128366   4.254   5.808   2.287 -0.3671  1.2805  0.6130
 2269TIP3    H228367   4.146   5.810   2.393  0.0016  0.5132  1.0149
 2270TIP3   OH228368   3.641   4.424   2.373 -0.5969  0.0051 -0.3545
 2270TIP3    H128369   3.693   4.345   2.380 -2.6802 -1.3216  1.7841
 2270TIP3    H228370   3.580   4.406   2.301 -0.2951  0.1472 -0.6438
 2271TIP3   OH228371   2.559   4.770   7.993 -0.0327  0.0858  0.7200
 2271TIP3    H128372   2.531   4.780   7.902 -0.4387 -0.2834  0.7985
 2271TIP3    H228373   2.602   4.685   7.996  2.4454  1.2482  0.2864
 2272TIP3   OH228374   5.607   4.204   2.285  0.2099 -0.7691 -0.1689
 2272TIP3    H128375   5.632   4.278   2.340 -0.4406 -1.4754  1.1186
 2272TIP3    H228376   5.686   4.186   2.233  0.9229 -0.2355  0.6928
 2273TIP3   OH228377   0.798   4.025   2.643 -0.5012 -0.2766 -0.9312
 2273TIP3    H128378   0.824   3.974   2.567 -0.1508  0.0649 -1.0414
 2273TIP3    H228379   0.871   4.084   2.659 -0.2524 -0.8564  0.1254
 2274TIP3   OH228380   2.906   3.946   1.340 -0.2323  0.2281 -0.1102
 2274TIP3    H128381   2.925   3.853   1.324 -1.9806 -0.2530  0.3578
 2274TIP3    H228382   2.877   3.979   1.256 -0.5869  0.0894 -0.0417
 2275TIP3   OH228383   1.970   0.910   7.898  0.6633 -0.3870  0.0293
 2275TIP3    H128384   1.874   0.908   7.896  0.5845  1.2156 -2.7214
 2275TIP3    H228385   1.991   0.945   7.984 -1.3956  2.3739 -0.4592
 2276TIP3   OH228386   2.128   6.226   0.716  0.1794  0.3589 -0.1560
 2276TIP3    H128387   2.140   6.308   0.763  0.2738  1.4943 -2.1093
 2276TIP3    H228388   2.038   6.201   0.736 -0.8413  2.4621 -1.8059
 2277TIP3   OH228389   5.695   6.223   0.208  0.9089  0.1998 -0.2848
 2277TIP3    H128390   5.669   6.313   0.227 -0.0506  0.2386 -1.6573
 2277TIP3    H228391   5.635   6.169   0.259  0.1507  0.3313 -1.0192
 2278TIP3   OH228392   2.820   2.751   1.374 -0.3831  0.3023  0.1727
 2278TIP3    H128393   2.845   2.842   1.364 -1.5494  0.6906  0.6960
 2278TIP3    H228394   2.821   2.716   1.285 -0.4638  0.9713 -0.0970
 2279TIP3   OH228395   1.456   4.877   2.650 -0.4562  0.2306 -0.7576
 2279TIP3    H128396   1.540   4.900   2.690 -1.0525  0.7865  0.2089
 2279TIP3    H228397   1.393   4.887   2.721 -1.1835 -1.3689 -1.1403
 2280TIP3   OH228398   3.155   1.445   0.576 -0.3186 -0.1082 -0.4398
 2280TIP3    H128399   3.102   1.421   0.652 -0.4989 -0.0424 -0.5442
 2280TIP3    H228400   3.238   1.399   0.589  0.3736  1.4191  0.7690
 2281TIP3   OH228401   5.459   0.319   1.226 -0.7531 -0.0884  0.3967
 2281TIP3    H128402   5.421   0.395   1.269 -1.9652 -0.5100  0.1191
 2281TIP3    H228403   5.486   0.261   1.297 -0.2425  0.3978  0.5999
 2282TIP3   OH228404   0.674   4.142   7.257 -0.7541  0.2334 -0.3987
 2282TIP3    H128405   0.650   4.105   7.172 -0.2812 -0.5294 -0.2138
 2282TIP3    H228406   0.601   4.201   7.279 -2.4409 -1.8863  0.0816
 2283TIP3   OH228407   5.014   4.677   0.319 -0.2672  0.4345  0.3263
 2283TIP3    H128408   5.049   4.667   0.231 -1.1218  1.2522 -0.1270
 2283TIP3    H228409   4.920   4.659   0.310 -0.4313  0.8890  0.9873
 2284TIP3   OH228410   3.529   1.698   7.109  0.3161  0.0032  0.2744
 2284TIP3    H128411   3.522   1.701   7.204 -0.5285  1.4267  0.1987
 2284TIP3    H228412   3.622   1.682   7.092  0.4499 -0.3903  1.3324
 2285TIP3   OH228413   3.060   2.103   7.469  0.2867  0.5476 -0.0350
 2285TIP3    H128414   2.974   2.091   7.509  0.1162 -1.6501 -0.9537
 2285TIP3    H228415   3.047   2.172   7.404 -0.3613  1.3785  0.9484
 2286TIP3   OH228416   6.358   2.077   7.746  0.1960 -0.4319 -0.5453
 2286TIP3    H128417   6.335   2.114   7.660  3.2244 -0.8447 -1.6561
 2286TIP3    H228418   6.404   2.149   7.791 -2.8651  0.3724  1.5706
 2287TIP3   OH228419   1.465   3.007   0.293 -0.2106  0.3014 -0.1193
 2287TIP3    H128420   1.472   3.086   0.239  1.2017  0.8923  0.8661
 2287TIP3    H228421   1.511   2.940   0.242  0.4504  0.6637 -0.0139
 2288TIP3   OH228422   5.731   4.183   0.060 -0.2424 -0.0543  0.2133
 2288TIP3    H128423   5.703   4.273   0.072 -1.5048 -0.3190 -0.5447
 2288TIP3    H228424   5.826   4.188   0.047 -0.4665  1.3066 -1.1769
 2289TIP3   OH228425   5.943   1.132   8.399 -0.1628 -0.1719  0.5316
 2289TIP3    H128426   5.897   1.203   8.444  0.8685 -1.1824  3.4006
 2289TIP3    H228427   5.896   1.122   8.316 -1.7384  2.3122  1.0084
 2290TIP3   OH228428   5.005   6.840   0.801 -0.0535  0.0465  0.3887
 2290TIP3    H128429   4.992   6.902   0.873 -0.7268  1.3540 -0.8051
 2290TIP3    H228430   5.082   6.872   0.755 -0.7282  0.3353 -0.5607
 2291TIP3   OH228431   3.307   1.512   1.359  0.2855 -0.0989  1.0333
 2291TIP3    H128432   3.269   1.451   1.422  0.7128  2.0452  3.5455
 2291TIP3    H228433   3.394   1.477   1.340 -1.2680 -2.9805 -1.7996
 2292TIP3   OH228434   6.326   4.368   1.006 -0.5990 -0.1970 -0.1518
 2292TIP3    H128435   6.350   4.339   0.918 -0.8324  0.3020 -0.3826
 2292TIP3    H228436   6.230   4.361   1.008 -0.6232  0.1701 -0.0703
 2293TIP3   OH228437   1.472   1.490   0.641  0.1902  0.0886  0.4232
 2293TIP3    H128438   1.380   1.485   0.613  0.4014  1.4770 -0.6000
 2293TIP3    H228439   1.469   1.471   0.734 -0.8033 -2.5224 -0.0301
 2294TIP3   OH228440   2.958   5.616   1.408 -0.1107 -0.0188 -0.1293
 2294TIP3    H128441   2.883   5.557   1.403 -0.9528  1.0491 -0.6198
 2294TIP3    H228442   2.950   5.660   1.492  0.2259 -0.2161  0.0106
 2295TIP3   OH228443   5.984   3.399   7.841  0.6888  0.1065  0.0503
 2295TIP3    H128444   6.070   3.372   7.875  0.3838 -1.3441 -0.2615
 2295TIP3    H228445   5.923   3.336   7.878 -0.2662  1.1451  0.2887
 2296TIP3   OH228446   0.602   2.763   1.575 -0.7580  0.0209  0.1995
 2296TIP3    H128447   0.581   2.807   1.657 -0.7089 -0.6598  0.5848
 2296TIP3    H228448   0.535   2.695   1.565  0.3838 -1.2217  0.7120
 2297TIP3   OH228449   0.183   0.987   2.833 -0.0569  0.3897 -0.0558
 2297TIP3    H128450   0.160   0.967   2.924  1.2746 -0.0290  0.2130
 2297TIP3    H228451   0.131   0.925   2.781 -1.4361  1.1650  0.3479
 2298TIP3   OH228452   4.955   0.771   0.433  0.0529 -0.0026  0.2649
 2298TIP3    H128453   4.987   0.861   0.444  1.8830 -0.4435 -0.8913
 2298TIP3    H228454   4.980   0.727   0.514  0.6799  0.1470  0.1631
 2299TIP3   OH228455   3.193   5.933   8.167  0.0876 -0.1250  0.0601
 2299TIP3    H128456   3.209   5.839   8.158  0.8792  0.1194 -1.2854
 2299TIP3    H228457   3.107   5.939   8.209  0.2304 -1.4437  0.5692
 2300TIP3   OH228458   3.628   4.962   0.206  0.1626 -0.1421  0.5863
 2300TIP3    H128459   3.693   4.949   0.274  1.1889  0.9007 -0.1477
 2300TIP3    H228460   3.550   4.995   0.252  0.9029  0.7298  1.2436
 2301TIP3   OH228461   0.531   3.386   7.471 -0.0507 -0.0224  0.6661
 2301TIP3    H128462   0.518   3.422   7.383 -1.6834  1.8479  1.5859
 2301TIP3    H228463   0.445   3.350   7.495  0.9243 -2.4918  0.7280
 2302TIP3   OH228464   3.271   5.206   7.432 -0.5338  0.2831 -0.6632
 2302TIP3    H128465   3.240   5.292   7.405 -0.3413  0.5247 -0.1357
 2302TIP3    H228466   3.287   5.159   7.350 -1.3917  0.4726 -0.9481
 2303TIP3   OH228467   3.810   3.582   1.784  0.3459  0.3464 -0.1434
 2303TIP3    H128468   3.899   3.553   1.764 -0.1457 -0.6327 -0.9584
 2303TIP3    H228469   3.788   3.538   1.866 -0.3465 -1.5976 -1.2994
 2304TIP3   OH228470   2.532   0.040   2.532  0.1227  0.6079  0.5724
 2304TIP3    H128471   2.539  -0.015   2.455 -2.0514  1.1022 -0.0532
 2304TIP3    H228472   2.472   0.110   2.506  0.4259  1.5643  2.2871
 2305TIP3   OH228473   1.130   4.224   0.293 -0.0491 -0.1182  0.0456
 2305TIP3    H128474   1.035   4.218   0.277 -0.2036 -2.9920  1.4637
 2305TIP3    H228475   1.137   4.271   0.376 -0.0695  1.7131 -0.9425
 2306TIP3   OH228476   4.159   2.155   1.717  0.3071  0.3499 -0.1900
 2306TIP3    H128477   4.136   2.082   1.775  0.1992  0.7771  0.3205
 2306TIP3    H228478   4.221   2.118   1.655  3.2645  0.6396  2.3515
 2307TIP3   OH228479   4.500   0.583   1.791 -0.4670 -0.4953  0.2557
 2307TIP3    H128480   4.464   0.519   1.730 -0.7468  0.4282 -0.5704
 2307TIP3    H228481   4.433   0.651   1.797  0.4474  0.4633 -0.0616
 2308TIP3   OH228482   2.602   2.525   2.217 -0.2311  0.0944  0.0880
 2308TIP3    H128483   2.690   2.560   2.206 -0.7296  1.7137  0.9461
 2308TIP3    H228484   2.571   2.509   2.128 -0.1409  2.3414 -0.4038
 2309TIP3   OH228485   3.927   5.267   7.785  0.2848 -0.2041 -0.1446
 2309TIP3    H128486   3.861   5.257   7.853 -0.1966 -0.2930 -0.6224
 2309TIP3    H228487   3.927   5.183   7.738 -1.7027  0.9020 -2.3125
 2310TIP3   OH228488   0.895   1.781   0.054 -0.8512 -0.3055  0.3482
 2310TIP3    H128489   0.949   1.832   0.114 -1.0153  1.5985 -1.0388
 2310TIP3    H228490   0.948   1.771  -0.025 -0.9239 -2.1349  0.4790
 2311TIP3   OH228491   5.537   2.152   0.441 -0.5332 -0.2225 -0.2715
 2311TIP3    H128492   5.542   2.101   0.522 -0.5333 -1.3556 -0.9621
 2311TIP3    H228493   5.559   2.090   0.372 -1.1395  0.5754 -1.2124
 2312TIP3   OH228494   2.573   4.752   7.429  0.3983 -0.2364 -0.2705
 2312TIP3    H128495   2.573   4.656   7.430  0.6451 -0.2358  0.4563
 2312TIP3    H228496   2.659   4.776   7.462  0.8461  0.2496 -1.7096
 2313TIP3   OH228497   4.937   0.817   0.857  0.1988 -0.2345  0.0371
 2313TIP3    H128498   4.887   0.896   0.875  0.0184 -0.1648 -0.7348
 2313TIP3    H228499   4.966   0.787   0.943 -0.6905  0.0390  0.4452
 2314TIP3   OH228500   3.881   3.366   3.084  0.5687 -0.1539  0.5337
 2314TIP3    H128501   3.921   3.448   3.112  1.6123 -0.3202 -0.4088
 2314TIP3    H228502   3.787   3.379   3.097  0.5791  1.7202 -0.9151
 2315TIP3   OH228503   2.643   6.149   2.479 -0.1237 -0.2375  0.2980
 2315TIP3    H128504   2.722   6.174   2.528 -0.7683  1.2993  0.6073
 2315TIP3    H228505   2.584   6.114   2.546 -0.8759  1.5487  0.6111
 2316TIP3   OH228506   3.934   0.759   7.554 -0.1811 -0.0112  0.4183
 2316TIP3    H128507   3.917   0.849   7.524  0.8680 -0.5211 -1.9541
 2316TIP3    H228508   3.855   0.735   7.602 -1.6458  1.2940 -1.1791
 2317TIP3   OH228509   5.069   0.618   7.759  0.0156 -0.2948  0.1946
 2317TIP3    H128510   5.030   0.648   7.677  0.8523  0.1222 -0.0692
 2317TIP3    H228511   5.114   0.695   7.794 -0.1589 -0.5267  0.9372
 2318TIP3   OH228512   0.453   6.074   0.515  0.0127 -0.4207  0.6491
 2318TIP3    H128513   0.536   6.109   0.483  0.5930 -0.0656  2.4477
 2318TIP3    H228514   0.393   6.082   0.440  1.6083 -0.8277 -0.7373
 2319TIP3   OH228515   3.151   5.883   0.523  0.1488 -0.0251 -0.0874
 2319TIP3    H128516   3.095   5.828   0.577  3.0946 -3.1472  0.0694
 2319TIP3    H228517   3.201   5.936   0.585  0.2409 -0.1865 -0.0253
 2320TIP3   OH228518   4.418   4.552   0.541  0.0287 -0.0728 -0.5954
 2320TIP3    H128519   4.509   4.532   0.565  0.0721  2.2485  1.6422
 2320TIP3    H228520   4.402   4.500   0.462  3.1943 -0.7976 -0.9064
 2321TIP3   OH228521   4.087   3.621   8.029  0.0566  0.5443 -0.3787
 2321TIP3    H128522   4.115   3.595   8.117  0.2310  0.4502 -0.4597
 2321TIP3    H228523   4.132   3.703   8.013  0.1850  0.4586 -0.4589
 2322TIP3   OH228524   5.987   4.379   2.497  0.2426  0.1481  0.1094
 2322TIP3    H128525   5.899   4.394   2.463  0.3354 -1.1782 -0.8003
 2322TIP3    H228526   5.973   4.363   2.591 -0.6393 -1.1089 -0.2025
 2323TIP3   OH228527   3.182   1.765   7.166  0.5955 -0.3035  0.1356
 2323TIP3    H128528   3.238   1.811   7.104 -0.3833  0.5135 -0.1691
 2323TIP3    H228529   3.118   1.718   7.112 -1.3530  1.7899  0.4734
 2324TIP3   OH228530   5.296   1.469   7.715 -0.2186 -0.1182 -0.5122
 2324TIP3    H128531   5.219   1.413   7.724 -0.0683 -0.3591 -0.7019
 2324TIP3    H228532   5.261   1.558   7.713 -0.4572 -0.2036 -0.1786
 2325TIP3   OH228533   0.080   3.505   7.418  0.0834 -1.0680  0.0456
 2325TIP3    H128534   0.134   3.435   7.454 -0.2505 -2.0652 -1.3067
 2325TIP3    H228535  -0.004   3.497   7.464  0.8080  0.0834  1.6883
 2326TIP3   OH228536   2.079   3.428   0.979  0.3908 -0.2908 -0.1882
 2326TIP3    H128537   2.094   3.334   0.980  0.8549 -0.2278  1.7511
 2326TIP3    H228538   2.166   3.467   0.989  0.3283  0.4167 -1.8827
 2327TIP3   OH228539   0.209   0.720   7.727  0.2836  0.3510  0.4481
 2327TIP3    H128540   0.246   0.690   7.644  0.7512 -0.0417  0.7954
 2327TIP3    H228541   0.251   0.805   7.741  0.3116  0.3532  0.3564
 2328TIP3   OH228542   6.791   5.606   0.483 -0.1526 -0.2559 -0.3617
 2328TIP3    H128543   6.844   5.683   0.466 -0.8942  0.5351  0.7373
 2328TIP3    H228544   6.711   5.641   0.523 -1.0878 -1.4839 -1.0764
 2329TIP3   OH228545   5.557   0.736   1.251  0.4260 -0.5433  0.7749
 2329TIP3    H128546   5.562   0.831   1.239 -0.6422 -0.7780 -2.2781
 2329TIP3    H228547   5.615   0.700   1.184 -2.5800 -2.0493 -1.2303
 2330TIP3   OH228548   4.396   1.126   8.206 -0.3979  0.0897  0.4360
 2330TIP3    H128549   4.373   1.216   8.182 -1.7810 -0.1979  0.5800
 2330TIP3    H228550   4.403   1.079   8.123 -0.0970  0.2257  0.3825
 2331TIP3   OH228551   1.124   4.777   7.668  0.1260  0.0168  0.0137
 2331TIP3    H128552   1.141   4.836   7.596 -0.2052 -1.5943 -1.4623
 2331TIP3    H228553   1.029   4.760   7.664  0.0996 -0.1092  0.8187
 2332TIP3   OH228554   0.283   1.415   2.515  0.1229 -0.3495  0.3055
 2332TIP3    H128555   0.359   1.466   2.485  0.3664 -1.1165 -0.4083
 2332TIP3    H228556   0.285   1.424   2.610  1.5407 -0.9465  0.3565
 2333TIP3   OH228557   1.695   1.441   2.550  0.1012 -0.3277  0.6369
 2333TIP3    H128558   1.634   1.378   2.587  1.2587 -1.6613  0.3667
 2333TIP3    H228559   1.741   1.477   2.626  0.1816 -0.6037  0.7183
 2334TIP3   OH228560   4.094   4.306   0.127 -0.5596 -0.2790  0.3165
 2334TIP3    H128561   4.039   4.247   0.075 -0.7028 -1.0673  1.3195
 2334TIP3    H228562   4.129   4.250   0.196  2.8603 -0.2008 -1.1896
 2335TIP3   OH228563   4.367   1.266   0.787 -0.2520  0.8051 -0.1868
 2335TIP3    H128564   4.360   1.262   0.882 -0.1592  0.0099 -0.2017
 2335TIP3    H228565   4.459   1.283   0.770  0.2753 -1.6061 -0.1406
 2336TIP3   OH228566   0.254   4.718   1.131 -0.2168  0.1371  0.2827
 2336TIP3    H128567   0.167   4.739   1.098 -0.2951  0.1841  0.5156
 2336TIP3    H228568   0.307   4.795   1.111 -0.2209  0.0973  0.1156
 2337TIP3   OH228569   2.844   5.780   6.833  0.1655 -0.4644 -0.5207
 2337TIP3    H128570   2.894   5.860   6.817  0.2222 -0.3030  0.4017
 2337TIP3    H228571   2.905   5.722   6.878 -0.5119 -0.1939  0.7901
 2338TIP3   OH228572   1.908   6.330   2.385  0.0322 -0.1069 -0.2107
 2338TIP3    H128573   1.921   6.270   2.311  0.1928  0.2892 -0.5049
 2338TIP3    H228574   1.963   6.295   2.454  0.9646  0.3075 -0.7317
 2339TIP3   OH228575   0.394   6.368   0.742  0.0190 -0.1453 -0.1882
 2339TIP3    H128576   0.345   6.419   0.677  0.9669  0.9948 -0.0450
 2339TIP3    H228577   0.329   6.307   0.778 -0.8640  0.1518 -1.2100
 2340TIP3   OH228578   4.077   1.583   8.071 -0.1713  0.6854 -0.3231
 2340TIP3    H128579   4.147   1.611   8.130 -0.5455  0.6147  0.1617
 2340TIP3    H228580   4.078   1.488   8.075  0.1374  0.6649 -0.8321
 2341TIP3   OH228581   3.608   0.539   1.254 -0.0518 -0.3191  0.5609
 2341TIP3    H128582   3.663   0.503   1.184 -0.2968 -1.5208  0.9615
 2341TIP3    H228583   3.659   0.526   1.334 -0.1601  0.2006  0.7149
 2342TIP3   OH228584   0.572   0.309   8.724  0.3420  0.1000 -0.1893
 2342TIP3    H128585   0.535   0.222   8.737 -0.3937  0.2911 -0.9044
 2342TIP3    H228586   0.640   0.317   8.790  2.5361 -2.1684 -1.9931
 2343TIP3   OH228587   5.804   1.762   0.668 -0.0733  0.0426  0.1881
 2343TIP3    H128588   5.884   1.736   0.622 -0.0551  0.6734 -0.1520
 2343TIP3    H228589   5.739   1.697   0.642  0.6334 -1.2360  1.4725
 2344TIP3   OH228590   5.308   0.424   6.981 -0.5495 -0.3647 -0.1319
 2344TIP3    H128591   5.261   0.381   7.053  0.2608  0.1670  0.7328
 2344TIP3    H228592   5.384   0.465   7.022  1.2218 -1.9678 -1.6271
 2345TIP3   OH228593   5.181   2.721   8.469  0.0849 -0.7580 -0.7252
 2345TIP3    H128594   5.164   2.731   8.563 -0.1120  0.0812 -0.8434
 2345TIP3    H228595   5.277   2.725   8.461  0.0599  0.6554 -0.6961
 2346TIP3   OH228596   0.676   1.292   1.595  0.7902  0.4399  0.1006
 2346TIP3    H128597   0.664   1.264   1.504 -0.6264 -0.4428  0.5217
 2346TIP3    H228598   0.703   1.212   1.640  2.1568  1.0231  0.3569
 2347TIP3   OH228599   4.315   6.038   7.806 -0.1708 -0.1289 -0.2752
 2347TIP3    H128600   4.247   5.975   7.828  0.3727 -0.4412  0.5602
 2347TIP3    H228601   4.351   6.006   7.723  0.1356 -0.9507  0.1639
 2348TIP3   OH228602   0.067   2.707   2.645 -0.1925  0.5429  0.0209
 2348TIP3    H128603  -0.028   2.717   2.637 -0.4622  0.6121  2.5571
 2348TIP3    H228604   0.079   2.614   2.666  0.3488  0.4631 -0.6114
 2349TIP3   OH228605   6.572   6.467   6.904 -0.4009  0.1353  0.3170
 2349TIP3    H128606   6.555   6.376   6.882  2.8876 -0.2501 -1.3424
 2349TIP3    H228607   6.640   6.462   6.972  0.8682  1.2620 -0.8040
 2350TIP3   OH228608   5.957   5.569   0.177 -0.6076 -0.4861 -0.6342
 2350TIP3    H128609   5.948   5.663   0.163 -2.8265 -0.2581  1.6172
 2350TIP3    H228610   6.037   5.545   0.131  0.7663  2.7571 -0.1593
 2351TIP3   OH228611   2.224   4.101   7.629 -0.4172 -0.1433  0.8599
 2351TIP3    H128612   2.311   4.101   7.589 -0.3351  0.9518  0.9936
 2351TIP3    H228613   2.228   4.032   7.695 -0.5607 -2.0058 -0.9774
 2352TIP3   OH228614   2.588   3.347   0.103 -0.5389  0.0571  0.3667
 2352TIP3    H128615   2.592   3.254   0.079 -0.5007  0.1716 -0.0884
 2352TIP3    H228616   2.592   3.393   0.019  0.5984  0.5087  0.6496
 2353TIP3   OH228617   4.094   1.214   2.344  0.1347  0.0472 -0.3943
 2353TIP3    H128618   4.069   1.249   2.258  2.8205 -1.3628 -1.9054
 2353TIP3    H228619   4.145   1.285   2.384 -0.3900  0.3967 -0.3399
 2354TIP3   OH228620   0.423   5.480   0.381 -0.1757 -0.1775 -0.1216
 2354TIP3    H128621   0.494   5.501   0.320 -0.7120  0.3076 -0.5881
 2354TIP3    H228622   0.453   5.401   0.425  0.8684  0.2808  0.0317
 2355TIP3   OH228623   1.739   1.535   8.392 -0.6397  0.2126 -0.1776
 2355TIP3    H128624   1.690   1.465   8.349  0.2249  0.2344 -1.2204
 2355TIP3    H228625   1.799   1.490   8.451  0.7273 -0.0330 -1.6831
 2356TIP3   OH228626   3.240   5.126   2.046 -0.3242  0.5728  0.2856
 2356TIP3    H128627   3.236   5.107   2.139 -0.0164  0.9977  0.3890
 2356TIP3    H228628   3.219   5.219   2.040 -0.7516  0.4552 -0.1065
 2357TIP3   OH228629   1.526   3.824   2.655  0.3469  0.3719  0.5736
 2357TIP3    H128630   1.487   3.828   2.568  2.0903 -1.5955 -0.3801
 2357TIP3    H228631   1.526   3.915   2.685  1.5901  1.4772 -2.3993
 2358TIP3   OH228632   0.002   6.667   7.299 -0.5312  0.1913  0.3697
 2358TIP3    H128633   0.061   6.672   7.373  2.3962  0.9502 -1.8231
 2358TIP3    H228634   0.017   6.749   7.251 -2.5005 -0.1374 -0.9370
 2359TIP3   OH228635   2.202   4.415   1.473 -0.6673  0.2414  0.3266
 2359TIP3    H128636   2.183   4.504   1.503 -1.9469 -0.4106  1.5814
 2359TIP3    H228637   2.169   4.359   1.543  2.2120 -1.1893  0.6757
 2360TIP3   OH228638   2.151   0.901   2.046  0.3489  0.2014  0.3291
 2360TIP3    H128639   2.223   0.927   1.990  0.1876  2.2944  1.0256
 2360TIP3    H228640   2.081   0.877   1.985  0.2232  2.3000 -0.4351
 2361TIP3   OH228641   3.926   0.004   0.670 -0.4439  0.1858 -0.1693
 2361TIP3    H128642   3.858  -0.010   0.604  1.1376  0.9950 -2.0661
 2361TIP3    H228643   3.985  -0.070   0.658 -0.9749 -0.5461  1.5106
 2362TIP3   OH228644   2.423   5.526   1.016  0.1933 -0.1041  0.1713
 2362TIP3    H128645   2.394   5.472   0.943 -0.3149  0.9763 -0.4659
 2362TIP3    H228646   2.469   5.599   0.975  3.8123 -1.6559  1.1382
 2363TIP3   OH228647   5.375   5.390   2.034  0.1656 -0.0941 -0.1748
 2363TIP3    H128648   5.436   5.454   2.072 -1.0358  0.3218  1.1531
 2363TIP3    H228649   5.371   5.413   1.941  0.2892  1.3284  0.1458
 2364TIP3   OH228650   6.359   5.660   1.889  0.3099  0.1266 -0.4429
 2364TIP3    H128651   6.380   5.601   1.817 -1.1651 -0.0663 -0.7275
 2364TIP3    H228652   6.397   5.744   1.863  0.2860 -0.0828 -1.1593
 2365TIP3   OH228653   6.579   3.236   0.032  0.0385 -0.2097  0.0417
 2365TIP3    H128654   6.673   3.243   0.017  0.0429  0.3867  0.3196
 2365TIP3    H228655   6.556   3.148   0.001  0.6254 -0.2328 -0.3416
 2366TIP3   OH228656   1.889   3.003   7.358  0.0775 -0.3516  0.1960
 2366TIP3    H128657   1.945   3.070   7.398  1.5451 -1.6148  0.3405
 2366TIP3    H228658   1.850   3.047   7.283  4.5377 -0.3883 -2.5515
 2367TIP3   OH228659   3.966   4.905   7.169  0.3059  0.3875  0.0504
 2367TIP3    H128660   3.918   4.901   7.251 -0.0553 -1.4021 -0.2113
 2367TIP3    H228661   3.985   4.814   7.147  0.8417  0.8505 -1.5921
 2368TIP3   OH228662   5.135   6.574   8.498  0.0664  0.5760  0.0284
 2368TIP3    H128663   5.156   6.492   8.543 -1.1887  0.3330  0.1929
 2368TIP3    H228664   5.183   6.641   8.548 -0.7042  0.2150  1.2912
 2369TIP3   OH228665   5.229   2.988   7.652 -0.1834 -0.5009 -0.4785
 2369TIP3    H128666   5.317   3.022   7.638  0.4754 -2.4315 -1.3820
 2369TIP3    H228667   5.194   3.041   7.724  2.0315 -0.2584  0.4964
 2370TIP3   OH228668   6.686   5.992   0.723 -0.1754  0.2043  0.0270
 2370TIP3    H128669   6.713   6.034   0.641  2.7896 -0.2488  0.6529
 2370TIP3    H228670   6.686   6.063   0.787  1.2450 -0.0319  0.3364
 2371TIP3   OH228671   1.644   3.052   8.235 -0.4406 -0.0850 -0.0375
 2371TIP3    H128672   1.705   2.980   8.215 -0.1155 -0.2107  1.3117
 2371TIP3    H228673   1.572   3.039   8.174  0.1279 -0.9102 -0.5609
 2372TIP3   OH228674   1.110   1.128   7.487 -0.2968  0.1635 -0.6657
 2372TIP3    H128675   1.197   1.129   7.447 -0.7382 -0.5725 -1.6785
 2372TIP3    H228676   1.080   1.219   7.481  1.0497  0.8204  1.2538
 2373TIP3   OH228677   4.428   1.787   7.121  0.2798 -0.1604  0.0866
 2373TIP3    H128678   4.457   1.703   7.085  1.0981  0.5033 -0.8354
 2373TIP3    H228679   4.367   1.822   7.056 -0.3838 -0.2208  0.6659
 2374TIP3   OH228680   5.512   3.896   0.278  0.3588 -0.3258  0.2638
 2374TIP3    H128681   5.499   3.813   0.325 -0.8304  0.2553  1.0180
 2374TIP3    H228682   5.499   3.963   0.345 -0.7843  0.5120 -0.7545
 2375TIP3   OH228683   0.515   3.845   2.687 -0.0367 -0.1840  0.3430
 2375TIP3    H128684   0.451   3.777   2.669 -0.5812  0.9703 -2.6159
 2375TIP3    H228685   0.465   3.927   2.687  0.5433  0.3761  4.0405
 2376TIP3   OH228686   3.834   0.322   7.729  0.0557 -0.1104 -0.5047
 2376TIP3    H128687   3.897   0.310   7.800  1.0632  1.4256 -1.0934
 2376TIP3    H228688   3.886   0.312   7.649  0.1455  3.4167 -1.0317
 2377TIP3   OH228689   1.119   0.695   7.823 -0.5025 -0.0559 -0.2576
 2377TIP3    H128690   1.138   0.616   7.772 -2.3273 -0.7307  0.0356
 2377TIP3    H228691   1.073   0.663   7.901  0.5491  1.1336  0.9099
 2378TIP3   OH228692   4.120   4.807   8.194  0.9138 -0.2674  0.2090
 2378TIP3    H128693   4.067   4.763   8.260 -0.4846  0.3721 -0.4380
 2378TIP3    H228694   4.210   4.798   8.225  0.2982  0.0987  2.2503
 2379TIP3   OH228695   2.076   2.926   0.770  0.0495  0.1389  0.2542
 2379TIP3    H128696   2.152   2.890   0.724 -0.2630  1.0696 -1.0560
 2379TIP3    H228697   2.030   2.977   0.703 -1.8198 -0.5234  0.9854
 2380TIP3   OH228698   5.634   5.889   2.724  0.4158 -0.2623  0.0939
 2380TIP3    H128699   5.718   5.913   2.684  0.6670 -0.3291  0.5795
 2380TIP3    H228700   5.610   5.807   2.681  0.0779  0.2881 -0.8042
 2381TIP3   OH228701   2.828   6.209   2.669 -0.2995 -0.0708  0.1294
 2381TIP3    H128702   2.749   6.201   2.723  0.6953  0.3754  1.6976
 2381TIP3    H228703   2.832   6.301   2.645 -1.1223 -0.3950 -1.3558
 2382TIP3   OH228704   4.564   5.221   1.097  0.1331 -0.9181  0.0171
 2382TIP3    H128705   4.621   5.179   1.161 -0.8635 -2.4494 -0.0465
 2382TIP3    H228706   4.487   5.163   1.092 -1.1273  0.7285 -0.3826
 2383TIP3   OH228707   6.664   0.579   0.796  0.3339  0.0520  0.2761
 2383TIP3    H128708   6.714   0.628   0.731  0.6700  2.0956  1.9721
 2383TIP3    H228709   6.576   0.614   0.790 -0.4004 -1.8434 -1.0328
 2384TIP3   OH228710   6.530   3.830   1.680 -0.1239 -0.0130 -0.5235
 2384TIP3    H128711   6.469   3.868   1.743 -0.0647 -0.0107 -0.4675
 2384TIP3    H228712   6.534   3.737   1.703 -1.6063 -0.4351 -1.7303
 2385TIP3   OH228713   6.057   3.836   1.731  0.4142 -0.1466  0.0987
 2385TIP3    H128714   6.081   3.914   1.681  0.4213  0.2092  0.6478
 2385TIP3    H228715   5.985   3.797   1.681  0.5486  0.0933 -0.2892
 2386TIP3   OH228716   1.307   5.385   7.102  0.1772 -0.3181  0.6062
 2386TIP3    H128717   1.337   5.468   7.140  3.3225 -0.7114 -0.6952
 2386TIP3    H228718   1.236   5.410   7.042  1.1636  1.4939  0.1214
 2387TIP3   OH228719   0.215   1.163   2.320  0.1343  0.2943 -0.4154
 2387TIP3    H128720   0.243   1.159   2.411  0.2656  0.7105 -0.4377
 2387TIP3    H228721   0.281   1.112   2.272  0.9664  1.4054 -0.4903
 2388TIP3   OH228722   2.551   2.277   8.355 -0.3896 -0.3237  0.2762
 2388TIP3    H128723   2.511   2.359   8.327  0.3689  0.0263  0.1798
 2388TIP3    H228724   2.605   2.251   8.280  0.6918 -0.0223  0.9314
 2389TIP3   OH228725   4.500   0.211   7.332 -0.9533  0.5658 -0.0744
 2389TIP3    H128726   4.569   0.248   7.277 -1.3640 -0.1281 -1.0646
 2389TIP3    H228727   4.484   0.124   7.296 -0.7686 -0.1768  1.5518
 2390TIP3   OH228728   2.390   2.758   0.402  0.0494  0.2474 -0.0027
 2390TIP3    H128729   2.328   2.779   0.472 -0.0764 -0.2097  0.0293
 2390TIP3    H228730   2.380   2.829   0.338 -0.3533  0.2891  0.1057
 2391TIP3   OH228731   5.083   1.274   7.767 -0.1204 -0.1155  0.7562
 2391TIP3    H128732   5.007   1.250   7.820 -0.7306  1.3321  0.5717
 2391TIP3    H228733   5.147   1.204   7.784 -2.0590 -2.3216 -0.3669
 2392TIP3   OH228734   3.231   4.774   0.949 -0.3665 -0.3129 -0.0226
 2392TIP3    H128735   3.257   4.836   1.018 -0.3720 -0.0878 -0.2220
 2392TIP3    H228736   3.144   4.804   0.923 -0.7940 -1.0088  0.5780
 2393TIP3   OH228737   4.503   1.689   0.297 -0.2955  0.6310 -0.4184
 2393TIP3    H128738   4.409   1.688   0.283 -0.1109  0.5127 -1.7675
 2393TIP3    H228739   4.539   1.639   0.224  0.7938  0.3708  0.2725
 2394TIP3   OH228740   2.681   4.659   8.499 -0.4471  0.0220 -0.3240
 2394TIP3    H128741   2.635   4.587   8.541 -1.7061  0.8864 -0.1674
 2394TIP3    H228742   2.612   4.720   8.472  0.5621  1.0644 -0.6572
 2395TIP3   OH228743   6.246   0.021   6.995  0.7599 -0.5431  0.3096
 2395TIP3    H128744   6.272  -0.067   6.968 -0.3558 -1.0533  0.8069
 2395TIP3    H228745   6.323   0.057   7.039  1.1500 -1.3666  0.3155
 2396TIP3   OH228746   0.564   4.654   2.060  0.5112 -0.3942 -0.9546
 2396TIP3    H128747   0.501   4.586   2.038 -2.8151  1.0365  2.7707
 2396TIP3    H228748   0.630   4.610   2.113  0.2034 -1.2475 -1.2664
 2397TIP3   OH228749   2.913   3.303   8.713 -0.2294 -0.2062 -0.5357
 2397TIP3    H128750   2.908   3.398   8.702 -0.4533 -0.2101 -0.4737
 2397TIP3    H228751   2.985   3.290   8.775  0.1868 -0.1124 -0.9982
 2398TIP3   OH228752   1.412   5.156   0.089  1.1093 -0.4786 -0.5917
 2398TIP3    H128753   1.334   5.206   0.066 -0.2006 -2.0978  0.1351
 2398TIP3    H228754   1.480   5.222   0.104 -0.0200  0.9477 -1.5508
 2399TIP3   OH228755   6.319   2.442   8.251 -0.4953 -0.7372  0.1861
 2399TIP3    H128756   6.345   2.355   8.280 -1.3712 -0.1715  2.9637
 2399TIP3    H228757   6.223   2.441   8.252 -0.5218  0.2243  0.1699
 2400TIP3   OH228758   0.701   4.347   7.479 -0.1008 -0.3700 -0.1812
 2400TIP3    H128759   0.647   4.356   7.400 -0.6470  0.9889  0.3232
 2400TIP3    H228760   0.639   4.318   7.546  0.3691 -1.5610 -0.2321
 2401TIP3   OH228761   0.878   4.590   7.639 -0.0236 -0.0876  0.3981
 2401TIP3    H128762   0.794   4.605   7.597  0.7818  2.0938 -0.6179
 2401TIP3    H228763   0.927   4.536   7.577 -0.0147  0.3069  0.0524
 2402TIP3   OH228764   5.186   5.976   3.355 -0.6485 -0.1875 -0.6545
 2402TIP3    H128765   5.127   6.050   3.370 -0.5769 -0.4277  0.9733
 2402TIP3    H228766   5.246   5.978   3.430  0.5097 -0.8158 -1.5321
 2403TIP3   OH228767   5.343   0.946   2.339 -0.4156 -0.4120  0.1796
 2403TIP3    H128768   5.365   1.038   2.351  1.4454 -0.8364  0.3372
 2403TIP3    H228769   5.294   0.943   2.257 -1.0648  0.7838  0.5045
 2404TIP3   OH228770   1.889   3.193   6.785  0.2083 -0.0250 -0.5117
 2404TIP3    H128771   1.980   3.202   6.759  0.6303 -1.1261  0.4740
 2404TIP3    H228772   1.875   3.261   6.850  1.2920 -1.7253  1.6567
 2405TIP3   OH228773   5.419   1.219   0.863  1.2707  1.2059  0.3536
 2405TIP3    H128774   5.445   1.309   0.847 -1.4911  1.6845 -2.4447
 2405TIP3    H228775   5.334   1.226   0.907  1.8353 -0.1154  1.7710
 2406TIP3   OH228776   3.382   0.196   1.747 -0.1575  0.2377 -0.6672
 2406TIP3    H128777   3.398   0.144   1.667  0.1137 -1.0485  0.1945
 2406TIP3    H228778   3.468   0.204   1.787 -0.5723 -0.8870  0.5234
 2407TIP3   OH228779   3.671   0.195   0.225  0.3571 -0.3378 -0.2046
 2407TIP3    H128780   3.667   0.208   0.131 -0.7333  1.2037  0.0190
 2407TIP3    H228781   3.602   0.251   0.260  0.4216 -1.2460  1.4776
 2408TIP3   OH228782   2.808   0.829   1.096 -0.7051  0.7611 -0.2491
 2408TIP3    H128783   2.803   0.733   1.103  0.1513  0.7283 -0.0256
 2408TIP3    H228784   2.832   0.845   1.005  0.1689  0.7189 -0.0312
 2409TIP3   OH228785   0.122   6.748   1.691 -0.5542 -0.2513 -0.2532
 2409TIP3    H128786   0.044   6.704   1.657  0.2373 -0.4541 -1.9064
 2409TIP3    H228787   0.185   6.744   1.619  0.4243  1.3348  0.4666
 2410TIP3   OH228788   2.530   3.665   2.285  0.8155 -0.2864  0.1067
 2410TIP3    H128789   2.577   3.694   2.206 -1.0020 -2.1009 -1.7648
 2410TIP3    H228790   2.543   3.570   2.286 -3.1193 -1.0088 -0.8916
 2411TIP3   OH228791   0.720   4.915   0.931  0.1986  0.0940  0.2239
 2411TIP3    H128792   0.724   4.955   1.018  0.9106 -0.3522  0.4012
 2411TIP3    H228793   0.769   4.976   0.875  0.4600 -0.0370  0.3063
 2412TIP3   OH228794   3.345   3.860   0.701 -0.1900  0.0053 -0.1855
 2412TIP3    H128795   3.374   3.794   0.764 -1.3928 -1.5787 -1.1775
 2412TIP3    H228796   3.274   3.906   0.745 -1.1228 -1.1908 -0.3624
 2413TIP3   OH228797   3.483   2.238   1.438  0.2864  0.0195  0.4748
 2413TIP3    H128798   3.475   2.276   1.526 -1.7888  0.8449 -0.0216
 2413TIP3    H228799   3.536   2.300   1.389  0.1327  0.3401  0.7162
 2414TIP3   OH228800   3.834   6.694   7.132 -0.0529 -0.1901 -0.4198
 2414TIP3    H128801   3.889   6.669   7.206  2.1986  0.8595 -1.6484
 2414TIP3    H228802   3.752   6.723   7.172  1.4474  1.3533  1.7756
 2415TIP3   OH228803   0.662   0.155   1.851  0.0720  0.2059  0.1982
 2415TIP3    H128804   0.730   0.091   1.831  0.4471  0.3115  1.0985
 2415TIP3    H228805   0.679   0.228   1.791  0.9336  0.3519  0.6059
 2416TIP3   OH228806   1.941   0.056   7.103  0.2664 -0.4875 -0.0381
 2416TIP3    H128807   1.991   0.133   7.076  2.5077 -2.1469 -0.9418
 2416TIP3    H228808   1.984  -0.017   7.059 -2.5948 -2.1648 -0.3341
 2417TIP3   OH228809   2.064   3.903   2.277 -0.4561 -0.2816  0.3063
 2417TIP3    H128810   2.131   3.850   2.234 -0.4870  0.0221 -0.1289
 2417TIP3    H228811   2.112   3.953   2.343  0.2494  1.8598 -1.6877
 2418TIP3   OH228812   6.370   0.572   0.510 -0.2097  0.2732  0.2062
 2418TIP3    H128813   6.340   0.487   0.541  3.7706 -1.5659 -0.3246
 2418TIP3    H228814   6.401   0.617   0.588 -1.8511  1.1372  0.4141
 2419TIP3   OH228815   3.129   6.367   2.182 -0.2868 -0.0293 -0.9248
 2419TIP3    H128816   3.170   6.436   2.234  0.3916 -1.2982  0.3100
 2419TIP3    H228817   3.035   6.382   2.191 -0.1474  0.6059 -0.5043
 2420TIP3   OH228818   1.266   2.226   8.588 -0.2529 -0.5362 -0.3017
 2420TIP3    H128819   1.252   2.238   8.682 -1.2450 -0.0302 -0.4980
 2420TIP3    H228820   1.284   2.315   8.556 -0.2265 -0.6628 -0.6387
 2421TIP3   OH228821   1.126   3.967   8.002 -0.2283 -0.3644 -0.3463
 2421TIP3    H128822   1.072   4.040   7.971 -0.8151 -0.7152 -0.1732
 2421TIP3    H228823   1.105   3.895   7.942  1.0613 -0.1341 -1.1036
 2422TIP3   OH228824   2.699   5.680   1.189 -0.2133 -0.0670  0.1185
 2422TIP3    H128825   2.671   5.713   1.274 -0.7961  0.2439 -0.1913
 2422TIP3    H228826   2.676   5.587   1.191  1.3189 -0.4697  0.9422
 2423TIP3   OH228827   3.441   1.459   7.342 -0.3293 -0.1951 -0.4761
 2423TIP3    H128828   3.347   1.461   7.325 -0.3638  0.8972 -0.2764
 2423TIP3    H228829   3.480   1.430   7.260 -0.8389 -0.6538 -0.5604
 2424TIP3   OH228830   5.128   3.913   8.102  0.2615  0.3098 -0.2198
 2424TIP3    H128831   5.134   3.923   8.197  2.1915  0.3103 -0.2998
 2424TIP3    H228832   5.042   3.876   8.087  0.3183 -0.6949  1.6260
 2425TIP3   OH228833   6.805   6.099   7.544 -0.1543  0.7319  0.3739
 2425TIP3    H128834   6.797   6.023   7.487  0.4693  2.0848 -1.6243
 2425TIP3    H228835   6.775   6.068   7.629 -0.9840 -1.4355 -0.6240
 2426TIP3   OH228836   0.087   1.747   0.741  0.1365 -0.1350 -0.1773
 2426TIP3    H128837   0.056   1.813   0.680  0.7544  0.1881 -0.1531
 2426TIP3    H228838   0.021   1.678   0.739  1.0911 -1.0716 -2.6979
 2427TIP3   OH228839   0.450   6.830   1.937 -0.1531 -0.8060 -0.0501
 2427TIP3    H128840   0.513   6.890   1.895  0.1248  0.0782  1.5622
 2427TIP3    H228841   0.473   6.744   1.902  1.7751 -0.4653  0.2357
 2428TIP3   OH228842   4.083   0.910   1.814 -0.2036 -0.0326  0.4631
 2428TIP3    H128843   4.050   0.990   1.774  0.1816  0.0994  0.4080
 2428TIP3    H228844   4.073   0.924   1.908 -1.4553 -0.4910  0.4223
 2429TIP3   OH228845   6.740   2.286   1.575  0.7336  0.0117 -0.0164
 2429TIP3    H128846   6.653   2.247   1.587 -0.3776  1.8780 -1.4220
 2429TIP3    H228847   6.800   2.211   1.574 -1.0314 -1.4802 -0.4850
 2430TIP3   OH228848   3.039   6.695   0.415  0.0534  0.2611 -0.1546
 2430TIP3    H128849   3.078   6.761   0.473  1.4796 -0.2599 -0.4782
 2430TIP3    H228850   2.976   6.649   0.471 -0.8787  1.7769  0.1060
 2431TIP3   OH228851   1.930   0.132   8.284 -0.9466  0.0633 -0.1385
 2431TIP3    H128852   1.901   0.200   8.345 -1.0984 -0.4100  0.3209
 2431TIP3    H228853   1.928   0.175   8.199  1.6016  1.5011  0.4325
 2432TIP3   OH228854   2.868   6.337   1.153 -0.1261  0.3844  0.4890
 2432TIP3    H128855   2.936   6.375   1.209  0.7901  1.0811 -1.0151
 2432TIP3    H228856   2.871   6.390   1.073 -1.3744 -0.5704 -0.2243
 2433TIP3   OH228857   1.670   4.355   7.346  0.5052 -0.2961  0.4547
 2433TIP3    H128858   1.614   4.279   7.360  1.9243 -1.6798 -0.9150
 2433TIP3    H228859   1.698   4.381   7.434 -1.1526 -0.4178  1.0489
 2434TIP3   OH228860   6.610   4.286   8.133  0.2684  0.0006  0.7307
 2434TIP3    H128861   6.606   4.239   8.050 -0.9164 -0.1198  0.8328
 2434TIP3    H228862   6.594   4.377   8.110 -0.4585 -0.0879  0.8557
 2435TIP3   OH228863   0.501   0.347   0.563  0.6470  0.0208  0.0710
 2435TIP3    H128864   0.458   0.264   0.543 -1.1755  1.0647 -0.5780
 2435TIP3    H228865   0.521   0.340   0.657 -1.2263 -0.4441  0.4979
 2436TIP3   OH228866   2.859   0.502   1.795  0.7345 -0.1916 -0.3527
 2436TIP3    H128867   2.935   0.552   1.765  1.5194 -0.9636  0.2957
 2436TIP3    H228868   2.856   0.518   1.889  1.7259 -2.2703  0.0838
 2437TIP3   OH228869   5.043   6.747   1.553  0.1656  0.0251 -0.1536
 2437TIP3    H128870   5.063   6.730   1.645  0.1354 -0.3843 -0.2209
 2437TIP3    H228871   4.956   6.787   1.553  0.0289 -0.2781 -0.0329
 2438TIP3   OH228872   3.912   0.607   7.214 -0.4526  0.6259  0.3455
 2438TIP3    H128873   3.859   0.543   7.167  1.2767 -1.4314  1.0107
 2438TIP3    H228874   3.878   0.604   7.304 -0.3642  0.5943  0.3787
 2439TIP3   OH228875   0.461   4.473   8.578  0.1842 -0.1040  0.0266
 2439TIP3    H128876   0.487   4.432   8.661  1.1709 -1.9284 -1.1160
 2439TIP3    H228877   0.541   4.514   8.545 -0.7086  2.6122  0.9806
 2440TIP3   OH228878   2.045   0.273   2.651 -0.1536 -0.2777 -0.3903
 2440TIP3    H128879   2.123   0.293   2.704 -1.9729  1.8214  1.6938
 2440TIP3    H228880   2.080   0.256   2.564  2.7404 -0.7030  0.7195
 2441TIP3   OH228881   6.680   4.057   1.631 -0.2141 -0.1651 -0.0927
 2441TIP3    H128882   6.632   3.976   1.642  0.9531 -0.7868  0.6292
 2441TIP3    H228883   6.634   4.104   1.562 -1.0573 -1.3175 -0.3278
 2442TIP3   OH228884   0.172   3.426   8.447  0.3693 -0.5073  0.0225
 2442TIP3    H128885   0.220   3.347   8.468  1.3204 -0.2110 -0.9000
 2442TIP3    H228886   0.191   3.487   8.519 -0.6755 -1.2186  0.9259
 2443TIP3   OH228887   3.365   1.461   2.670  0.5447  0.5051  1.0073
 2443TIP3    H128888   3.280   1.471   2.626  0.5520  1.2240  1.1453
 2443TIP3    H228889   3.342   1.446   2.762  0.5577  0.1433  0.9534
 2444TIP3   OH228890   2.307   3.930   8.443 -0.9902  0.0503  0.2096
 2444TIP3    H128891   2.239   3.876   8.482 -0.2305 -0.9241  0.2134
 2444TIP3    H228892   2.267   3.964   8.362 -1.4126 -0.6611  0.1131
 2445TIP3   OH228893   6.032   1.148   7.668 -0.8490  0.3077 -0.1884
 2445TIP3    H128894   6.121   1.177   7.651  0.1042 -0.4691  2.8610
 2445TIP3    H228895   6.006   1.194   7.747 -2.0590 -1.5909  0.5855
 2446TIP3   OH228896   2.975   4.747   1.171  0.4187  0.2175 -0.2734
 2446TIP3    H128897   2.891   4.793   1.172  0.6382  0.6628 -1.2466
 2446TIP3    H228898   3.014   4.768   1.256 -1.1938 -1.4505  0.9769
 2447TIP3   OH228899   0.253   1.255   2.764 -0.2202  0.0693 -0.8752
 2447TIP3    H128900   0.202   1.326   2.803  0.1090  0.2706 -0.8022
 2447TIP3    H228901   0.237   1.179   2.820  1.9998  0.8912  1.0454
 2448TIP3   OH228902   0.085   0.042   7.137  0.1639  0.0238 -0.1178
 2448TIP3    H128903   0.139   0.117   7.114 -0.2433  0.5669  0.6661
 2448TIP3    H228904   0.082  -0.011   7.057 -2.2057  2.4411 -1.8191
 2449TIP3   OH228905   2.406   1.161   8.193  0.3317  0.9132  0.2111
 2449TIP3    H128906   2.318   1.183   8.222 -0.5905 -2.0581 -0.0679
 2449TIP3    H228907   2.398   1.148   8.099  1.1303  0.7682  0.1522
 2450TIP3   OH228908   3.315   1.420   8.319  0.3739 -0.7035 -0.2889
 2450TIP3    H128909   3.407   1.398   8.337  0.7805  0.0605 -1.3255
 2450TIP3    H228910   3.280   1.450   8.403  0.7930 -1.9010  0.3398
 2451TIP3   OH228911   2.119   4.135   8.347 -0.2256 -0.0721  0.0502
 2451TIP3    H128912   2.115   4.155   8.254 -0.6388 -1.2393 -0.2021
 2451TIP3    H228913   2.092   4.216   8.390  0.7129  0.7235 -0.7983
 2452TIP3   OH228914   4.612   5.708   0.864  0.4338 -0.1167  0.1525
 2452TIP3    H128915   4.631   5.793   0.903 -1.7321  0.1018  0.9016
 2452TIP3    H228916   4.540   5.674   0.917 -0.5062 -1.2238 -1.7515
 2453TIP3   OH228917   2.627   5.480   8.248  0.3611 -0.5571  0.5312
 2453TIP3    H128918   2.577   5.413   8.295  0.8180 -1.2839  0.0138
 2453TIP3    H228919   2.714   5.479   8.289  0.4823 -0.5549  0.2806
 2454TIP3   OH228920   2.855   5.899   2.565 -0.2725 -0.2542 -0.1368
 2454TIP3    H128921   2.778   5.908   2.621 -0.3040  2.4157 -0.4933
 2454TIP3    H228922   2.820   5.900   2.476  0.1051  0.2126 -0.2823
 2455TIP3   OH228923   3.110   3.659   0.862  0.1591 -0.0463  0.1845
 2455TIP3    H128924   3.187   3.640   0.916 -0.9596 -3.7891  0.8127
 2455TIP3    H228925   3.049   3.701   0.922  1.0260  1.3297  0.1480
 2456TIP3   OH228926   5.107   0.130   8.208 -0.6262 -0.2689  0.1466
 2456TIP3    H128927   5.172   0.065   8.180 -0.5040 -0.6411  1.2662
 2456TIP3    H228928   5.028   0.079   8.223 -0.7722 -0.0318  0.1820
 2457TIP3   OH228929   4.912   4.792   8.513 -0.5997 -0.1846  0.0732
 2457TIP3    H128930   4.985   4.843   8.549  0.5233 -1.3236 -0.5218
 2457TIP3    H228931   4.835   4.824   8.560  0.2368  1.1963  0.5711
 2458TIP3   OH228932   6.098   4.159   2.319 -0.3855  0.2131 -0.1820
 2458TIP3    H128933   6.032   4.183   2.385  0.9726  1.4081  0.8185
 2458TIP3    H228934   6.165   4.227   2.327  1.4758 -1.4990 -0.4135
 2459TIP3   OH228935   4.602   6.565   8.059  0.5774 -0.5563 -0.0760
 2459TIP3    H128936   4.534   6.526   8.004  0.5484 -0.3238 -0.2074
 2459TIP3    H228937   4.659   6.492   8.081  0.3918 -0.7191 -0.1228
 2460TIP3   OH228938   1.972   6.586   0.008 -0.0615  0.0377 -0.0687
 2460TIP3    H128939   1.985   6.550   0.095  0.0671 -0.1394 -0.1617
 2460TIP3    H228940   1.886   6.552  -0.019 -0.9778  1.5797  0.7320
 2461TIP3   OH228941   0.036   0.437   8.693 -0.1158  0.3568 -0.0079
 2461TIP3    H128942  -0.042   0.491   8.679 -0.7614 -0.8342 -1.2610
 2461TIP3    H228943   0.067   0.417   8.605  1.7713  1.0085  0.4771
 2462TIP3   OH228944   4.771   5.140   0.700  0.3725 -0.0111 -0.4767
 2462TIP3    H128945   4.680   5.163   0.687  0.2137  0.6855  1.4631
 2462TIP3    H228946   4.775   5.046   0.683 -0.6082  0.0306 -0.9728
 2463TIP3   OH228947   4.981   0.913   8.206  0.3687  0.2007  0.1545
 2463TIP3    H128948   4.977   0.847   8.276  0.1967 -0.1830 -0.2096
 2463TIP3    H228949   5.054   0.969   8.231 -0.1482  0.5096  1.0201
 2464TIP3   OH228950   4.275   0.647   0.636 -0.2908 -0.1735  0.4935
 2464TIP3    H128951   4.355   0.699   0.624 -0.3819  0.1531  1.3055
 2464TIP3    H228952   4.271   0.592   0.557  0.2441  0.4560  0.0154
 2465TIP3   OH228953   3.436   5.979   0.097 -0.3700 -0.5534 -0.3124
 2465TIP3    H128954   3.394   5.940   0.174 -1.2181 -1.5384 -1.2340
 2465TIP3    H228955   3.364   6.022   0.049  0.3790  1.2900  0.1350
 2466TIP3   OH228956   1.102   6.465   0.535 -0.0112  0.0048 -0.0585
 2466TIP3    H128957   1.193   6.441   0.552 -0.3819  0.0191  2.2736
 2466TIP3    H228958   1.107   6.552   0.494  1.0377  1.2632  2.4969
 2467TIP3   OH228959   0.937   3.804   2.520  0.2545 -0.2068  0.1283
 2467TIP3    H128960   0.955   3.784   2.612  0.1802 -1.2370 -0.0747
 2467TIP3    H228961   1.024   3.803   2.478  0.2848  0.2293  0.1747
 2468TIP3   OH228962   5.393   4.252   0.912  0.1251  0.0631 -0.1058
 2468TIP3    H128963   5.318   4.294   0.870 -1.6418  0.1465  2.7949
 2468TIP3    H228964   5.376   4.158   0.903 -1.0891  0.0613  1.5239
 2469TIP3   OH228965   1.101   1.512   2.342  0.2234  0.5188 -0.0472
 2469TIP3    H128966   1.173   1.549   2.292 -0.4133  0.0750 -1.3279
 2469TIP3    H228967   1.068   1.586   2.394  1.4322  0.7767  0.3941
 2470TIP3   OH228968   1.043   1.630   0.320  0.7470  0.2155  0.3950
 2470TIP3    H128969   1.013   1.686   0.392  0.7963  1.1036 -0.2602
 2470TIP3    H228970   1.131   1.662   0.299  1.1030 -0.6462  0.5479
 2471TIP3   OH228971   0.918   6.190   0.563 -0.3204  0.3700 -0.2407
 2471TIP3    H128972   0.977   6.261   0.534 -1.4293  0.2008 -3.2454
 2471TIP3    H228973   0.973   6.112   0.562  0.4811  0.8387  1.4845
 2472TIP3   OH228974   2.467   4.609   2.533 -0.5126  0.1368 -0.0284
 2472TIP3    H128975   2.421   4.639   2.612 -0.0170  2.7588 -0.6478
 2472TIP3    H228976   2.492   4.689   2.488  1.8166 -1.2439 -1.3889
 2473TIP3   OH228977   5.134   3.466   1.873  0.3963 -0.0540 -0.3039
 2473TIP3    H128978   5.220   3.506   1.876  0.8842 -1.1227  0.6000
 2473TIP3    H228979   5.121   3.428   1.960 -0.8436 -0.1981 -0.5202
 2474TIP3   OH228980   3.900   5.448   1.644  0.5690  0.4478 -0.2974
 2474TIP3    H128981   3.979   5.412   1.603  0.0868 -1.2615  0.1985
 2474TIP3    H228982   3.828   5.419   1.588  0.0454 -0.6302  0.8871
 2475TIP3   OH228983   4.030   5.540   7.852  0.7693  0.0322 -0.5032
 2475TIP3    H128984   4.100   5.499   7.801  0.1511 -0.4786 -0.9695
 2475TIP3    H228985   3.954   5.483   7.838  0.7289 -0.4562  1.4991
 2476TIP3   OH228986   4.997   6.256   7.062  0.6970 -0.7047  0.2896
 2476TIP3    H128987   4.938   6.247   7.137 -0.0826 -0.0433 -0.2300
 2476TIP3    H228988   5.054   6.329   7.085 -1.0515  1.0758 -0.6848
 2477TIP3   OH228989   5.254   5.906   1.420 -0.1088  0.1363  0.6217
 2477TIP3    H128990   5.308   5.985   1.416  2.2881 -1.4227 -0.2042
 2477TIP3    H228991   5.304   5.846   1.475 -0.7508 -1.5605 -0.5589
 2478TIP3   OH228992   0.613   6.538   0.352  0.4613 -0.0014  0.7515
 2478TIP3    H128993   0.659   6.606   0.402  0.4781 -0.3554  1.2248
 2478TIP3    H228994   0.679   6.471   0.337  0.4614  0.1170  0.2269
 2479TIP3   OH228995   4.692   1.831   8.478  0.3154  0.3665  0.2802
 2479TIP3    H128996   4.760   1.809   8.415 -1.7402 -3.2659 -1.0361
 2479TIP3    H228997   4.636   1.894   8.433  0.7032  0.3711 -0.1961
 2480TIP3   OH228998   1.610   1.325   7.035  0.3952 -0.0523 -0.1424
 2480TIP3    H128999   1.543   1.314   6.968 -0.0648  0.0730  0.2894
 2480TIP3    H229000   1.686   1.277   7.002  0.1231 -0.1174 -0.6777
 2481TIP3   OH229001   1.736   3.165   0.050 -0.7324 -0.1350  0.4583
 2481TIP3    H129002   1.746   3.226  -0.023  0.7929 -1.7154 -0.7468
 2481TIP3    H229003   1.642   3.164   0.067 -0.8662  2.0472  0.1190
 2482TIP3   OH229004   3.626   1.034   7.781 -0.3517  0.6268  0.1564
 2482TIP3    H129005   3.567   1.065   7.849 -0.1298  2.5987 -0.4907
 2482TIP3    H229006   3.571   0.982   7.723 -0.8961  0.3530  0.9026
 2483TIP3   OH229007   5.543   1.905   8.066 -0.3431  0.3199  0.1257
 2483TIP3    H129008   5.551   1.814   8.037  0.6892 -0.2418  2.0258
 2483TIP3    H229009   5.463   1.906   8.119 -1.4806  1.0424 -1.4863
 2484TIP3   OH229010   3.243   2.263   7.193 -0.2231  0.4668 -0.7297
 2484TIP3    H129011   3.231   2.302   7.106 -3.2627  0.4091 -0.4381
 2484TIP3    H229012   3.154   2.257   7.229  0.8944 -0.0510  2.1660
 2485TIP3   OH229013   2.296   6.321   1.932 -0.6235 -0.0670 -0.3849
 2485TIP3    H129014   2.251   6.405   1.931  0.2051  0.3848 -1.1715
 2485TIP3    H229015   2.297   6.292   1.841 -0.7277 -0.8348 -0.1499
 2486TIP3   OH229016   6.213   6.573   2.554 -0.2466 -0.1104 -0.3612
 2486TIP3    H129017   6.137   6.556   2.610  1.8052  1.0616  3.0991
 2486TIP3    H229018   6.211   6.667   2.539  1.2011  0.1754  1.0006
 2487TIP3   OH229019   2.308   3.721   8.156  0.0089 -0.1682  0.1241
 2487TIP3    H129020   2.284   3.808   8.124 -0.2163  0.1725  1.1655
 2487TIP3    H229021   2.376   3.738   8.221 -0.3168 -0.7365  0.6210
 2488TIP3   OH229022   0.725   3.534   2.278 -0.0906  0.3843 -0.5007
 2488TIP3    H129023   0.678   3.452   2.293  0.5205  0.3525  1.5028
 2488TIP3    H229024   0.798   3.509   2.220  1.5555 -1.1193  1.9774
 2489TIP3   OH229025   5.082   6.218   0.284  0.9377 -0.5726  0.0305
 2489TIP3    H129026   5.006   6.204   0.228  0.9074 -0.7343  0.1087
 2489TIP3    H229027   5.111   6.307   0.265 -0.0253 -0.0565  0.9012
 2490TIP3   OH229028   0.393   6.047   1.592  0.0009  0.3737  0.0356
 2490TIP3    H129029   0.327   5.987   1.627 -2.3036  2.3788 -0.5806
 2490TIP3    H229030   0.359   6.134   1.611  1.2324  1.5338 -2.5182
 2491TIP3   OH229031   4.254   0.148   2.287 -0.0609 -0.5018 -0.0498
 2491TIP3    H129032   4.165   0.163   2.255 -0.7544 -2.2207  0.9387
 2491TIP3    H229033   4.245   0.145   2.382  0.9546 -1.2223  0.0386
 2492TIP3   OH229034   3.931   6.637   0.954 -0.2391  0.0880  0.1019
 2492TIP3    H129035   3.955   6.567   1.016  1.7007  1.2506  0.7754
 2492TIP3    H229036   4.007   6.643   0.896  0.6647  2.9941  1.3805
 2493TIP3   OH229037   2.356   6.752   1.017 -0.0372 -0.2654 -0.1163
 2493TIP3    H129038   2.402   6.828   0.982 -1.8558  1.9944  2.0476
 2493TIP3    H229039   2.267   6.758   0.981 -1.2025  0.7090  2.6693
 2494TIP3   OH229040   4.327   3.990   1.181  0.0110  0.2708 -0.0491
 2494TIP3    H129041   4.371   3.947   1.108  0.2311 -0.9819  0.8068
 2494TIP3    H229042   4.348   3.937   1.257 -2.0244  0.2629  0.5806
 2495TIP3   OH229043   3.666   1.150   0.526  0.0014  0.1750  0.7073
 2495TIP3    H129044   3.626   1.166   0.440 -1.0016  1.8185  1.4202
 2495TIP3    H229045   3.658   1.056   0.539  1.8229 -0.4257 -1.7560
 2496TIP3   OH229046   2.291   5.338   2.009 -0.4227 -0.3842 -0.3043
 2496TIP3    H129047   2.387   5.344   2.010 -0.4209 -0.4644  0.7692
 2496TIP3    H229048   2.266   5.368   1.922  0.4602  1.5160  0.0576
 2497TIP3   OH229049   2.575   3.711   0.917 -0.6781 -0.0716 -0.2799
 2497TIP3    H129050   2.570   3.629   0.869 -3.1062  0.5421 -1.2441
 2497TIP3    H229051   2.566   3.779   0.850  0.3067  0.9668  0.5908
 2498TIP3   OH229052   4.303   0.522   6.928  0.0133  0.1706 -0.4331
 2498TIP3    H129053   4.240   0.532   6.857 -0.3720 -0.9832 -0.2658
 2498TIP3    H229054   4.387   0.510   6.884 -0.4653 -2.3480 -0.7832
 2499TIP3   OH229055   6.590   2.533   7.726  0.7902  0.3084  0.9074
 2499TIP3    H129056   6.650   2.487   7.667  0.7923  1.9611 -0.4246
 2499TIP3    H229057   6.520   2.469   7.743  1.7609 -0.8572  0.7013
 2500TIP3   OH229058   3.412   3.057   1.694  0.1280 -0.0712 -0.3781
 2500TIP3    H129059   3.355   3.093   1.762  0.4443  0.8973 -0.6029
 2500TIP3    H229060   3.352   3.031   1.624 -0.0487  0.9752 -0.6281
 2501TIP3   OH229061   6.825   4.383   1.936  0.0089 -0.0192  0.3999
 2501TIP3    H129062   6.762   4.375   2.007  1.2184 -1.1690  1.4160
 2501TIP3    H229063   6.773   4.380   1.856 -1.2899  0.1611  1.2230
 2502TIP3   OH229064   1.499   1.183   0.600  0.0318  0.2647  0.0500
 2502TIP3    H129065   1.540   1.269   0.603 -0.1023  0.3161  0.4939
 2502TIP3    H229066   1.421   1.192   0.654  0.0428 -0.1492  0.1368
 2503TIP3   OH229067   2.550   0.692   8.416 -0.7783 -0.0186 -0.0471
 2503TIP3    H129068   2.545   0.632   8.342 -1.2087 -2.1169  1.5918
 2503TIP3    H229069   2.590   0.641   8.486 -1.4736  1.4892  1.5293
 2504TIP3   OH229070   6.420   4.489   2.330  0.2552 -0.0452  0.1049
 2504TIP3    H129071   6.509   4.478   2.363 -0.2869  1.6152  2.3137
 2504TIP3    H229072   6.430   4.544   2.252  1.2780 -1.5145 -0.8674
 2505TIP3   OH229073   6.537   3.345   3.114 -0.0391  0.2628  0.3622
 2505TIP3    H129074   6.468   3.321   3.176 -0.0585 -0.5323  0.0464
 2505TIP3    H229075   6.499   3.327   3.028  0.5091 -0.0461  0.1789
 2506TIP3   OH229076   1.834   5.142   8.044  0.3947  0.4501  0.4911
 2506TIP3    H129077   1.846   5.084   7.969  0.5771  2.4265 -1.0816
 2506TIP3    H229078   1.772   5.096   8.101  0.7052 -1.3502 -0.5641
 2507TIP3   OH229079   3.292   2.390   0.017 -0.5150 -0.1224  0.2010
 2507TIP3    H129080   3.358   2.459   0.015 -0.6748  0.1455  2.0243
 2507TIP3    H229081   3.324   2.330   0.085 -0.9294 -1.2781 -0.6007
 2508TIP3   OH229082   0.143   6.755   0.598  0.8019  0.0559 -0.3196
 2508TIP3    H129083   0.104   6.683   0.649  1.0995  0.6632  0.8051
 2508TIP3    H229084   0.236   6.752   0.621  1.2681 -0.7087 -2.1513
 2509TIP3   OH229085   3.870   2.631   8.485  0.1798 -0.3890 -0.0903
 2509TIP3    H129086   3.817   2.553   8.467 -0.9746 -0.1975  2.0522
 2509TIP3    H229087   3.848   2.692   8.415 -1.6603 -0.7309  0.1396
 2510TIP3   OH229088   2.927   3.256   0.309  0.6892  0.3003 -0.3150
 2510TIP3    H129089   2.988   3.195   0.268 -2.0195 -0.7637 -3.1043
 2510TIP3    H229090   2.908   3.320   0.240 -3.5121 -1.1333 -0.7701
 2511TIP3   OH229091   6.085   3.747   0.888  0.2685 -0.4735  0.2867
 2511TIP3    H129092   6.092   3.826   0.834  0.8888 -0.6297  0.1340
 2511TIP3    H229093   6.050   3.779   0.972  0.9509  0.0390  0.3870
 2512TIP3   OH229094   1.915   3.129   1.366 -0.5881  0.4400 -0.2202
 2512TIP3    H129095   1.916   3.220   1.397 -0.8351  0.1712  0.5945
 2512TIP3    H229096   2.007   3.106   1.355 -0.4245  0.2169  1.3275
 2513TIP3   OH229097   6.367   4.216   8.477  0.4076 -0.3507 -0.1083
 2513TIP3    H129098   6.411   4.301   8.484  2.8414 -1.1318 -3.3491
 2513TIP3    H229099   6.281   4.237   8.438  0.4343  0.6998  0.3559
 2514TIP3   OH229100   5.913   3.388   1.729 -0.2721 -0.2127  0.0540
 2514TIP3    H129101   5.958   3.337   1.797 -1.1283 -0.0675  0.7583
 2514TIP3    H229102   5.983   3.419   1.672  0.4824 -0.3184  0.8839
 2515TIP3   OH229103   0.685   4.573   0.013 -0.0054 -0.3531 -0.4045
 2515TIP3    H129104   0.777   4.589  -0.008  0.8418 -0.2823  2.9220
 2515TIP3    H229105   0.679   4.479   0.027 -0.1952 -0.2261  0.3910
 2516TIP3   OH229106   2.249   1.065   7.634 -0.5549 -0.1112  0.0136
 2516TIP3    H129107   2.171   1.120   7.626  0.3500  1.0546 -1.3777
 2516TIP3    H229108   2.303   1.108   7.700 -0.2970  0.0995 -0.3330
 2517TIP3   OH229109   2.798   3.537   0.692 -0.0444 -0.0644  0.0694
 2517TIP3    H129110   2.874   3.595   0.678  0.0678 -0.5452 -1.5551
 2517TIP3    H229111   2.805   3.472   0.623 -0.8228 -1.3537  1.1557
 2518TIP3   OH229112   0.125   5.965   7.088 -0.5189 -0.3823 -0.2565
 2518TIP3    H129113   0.134   5.895   7.023  0.6780 -0.0334 -0.5088
 2518TIP3    H229114   0.125   5.921   7.172  0.2254 -0.7089 -0.4149
 2519TIP3   OH229115   3.177   6.222   2.845 -0.3483  0.3646 -0.1584
 2519TIP3    H129116   3.142   6.246   2.931 -0.9734 -0.3021 -0.2166
 2519TIP3    H229117   3.132   6.141   2.823 -0.4455  0.6967 -1.2613
 2520TIP3   OH229118   5.979   2.989   3.126 -0.6369  0.0818  0.1308
 2520TIP3    H129119   6.035   2.910   3.126 -0.4720  0.0827 -3.0372
 2520TIP3    H229120   5.928   2.982   3.045 -3.0954  1.6124  1.4520
 2521TIP3   OH229121   4.886   5.488   1.650 -0.0058  0.8618  0.1972
 2521TIP3    H129122   4.874   5.574   1.690 -0.0520  0.4370  1.1206
 2521TIP3    H229123   4.796   5.456   1.635  0.0118  1.0396 -0.2876
 2522TIP3   OH229124   5.410   2.557   0.143 -0.0444 -0.0980  0.4963
 2522TIP3    H129125   5.343   2.489   0.142 -1.0988  0.9029 -0.9145
 2522TIP3    H229126   5.368   2.631   0.186  0.7856 -0.0190  1.2000
 2523TIP3   OH229127   4.038   2.357   1.418 -0.5432 -0.0057  0.8030
 2523TIP3    H129128   4.077   2.310   1.344  0.5574 -0.0965  1.4203
 2523TIP3    H229129   3.992   2.430   1.378 -0.8288 -0.6345 -0.0434
 2524TIP3   OH229130   4.085   5.663   3.452 -0.2418 -0.2768  0.0266
 2524TIP3    H129131   4.107   5.570   3.459  0.3130 -0.1646 -0.1972
 2524TIP3    H229132   4.070   5.678   3.359 -0.0590 -0.0869  0.0250
 2525TIP3   OH229133   0.844   5.496   0.599 -0.4623  0.4778  0.4523
 2525TIP3    H129134   0.803   5.445   0.669 -0.7220  1.1852  0.8294
 2525TIP3    H229135   0.923   5.448   0.578 -1.4639 -0.9114 -0.2776
 2526TIP3   OH229136   2.689   6.373   7.188  0.1699  0.5984  0.9583
 2526TIP3    H129137   2.598   6.384   7.160 -0.6071  1.1608  3.4704
 2526TIP3    H229138   2.739   6.431   7.130 -0.7023 -1.3101 -1.8749
 2527TIP3   OH229139   3.580   3.912   0.463  0.8893 -0.0651 -0.6967
 2527TIP3    H129140   3.545   3.994   0.499  1.1905 -0.3542  0.2781
 2527TIP3    H229141   3.566   3.920   0.369  0.9298  1.1235 -0.6243
 2528TIP3   OH229142   0.636   2.868   1.823  0.2960  0.2218 -0.2601
 2528TIP3    H129143   0.588   2.827   1.894  1.0956 -1.5382 -0.6973
 2528TIP3    H229144   0.692   2.933   1.866  0.8501 -0.8893  0.7446
 2529TIP3   OH229145   3.643   5.616   1.375 -0.3674  0.6773  0.1937
 2529TIP3    H129146   3.693   5.634   1.295 -0.5090  1.0527  0.1862
 2529TIP3    H229147   3.570   5.678   1.371  0.1628  1.3749  1.1088
 2530TIP3   OH229148   4.681   3.468   0.120 -0.1527 -0.3838 -0.0291
 2530TIP3    H129149   4.604   3.429   0.076 -1.1745  1.0190  0.4590
 2530TIP3    H229150   4.645   3.536   0.176  1.3598 -0.5741  1.2351
 2531TIP3   OH229151   5.298   3.578   7.063 -0.0549  0.3427  0.8895
 2531TIP3    H129152   5.287   3.673   7.073  0.2398  0.3375  1.2835
 2531TIP3    H229153   5.393   3.566   7.056 -0.1699  0.2259 -0.7165
 2532TIP3   OH229154   1.919   2.464   1.591  0.1180 -0.1359  0.1606
 2532TIP3    H129155   1.943   2.382   1.634  1.4746 -0.4161 -1.0479
 2532TIP3    H229156   1.839   2.492   1.635  0.4915 -1.2983  1.6431
 2533TIP3   OH229157   0.856   3.023   7.185 -0.0328 -0.1889 -0.7451
 2533TIP3    H129158   0.808   2.963   7.243 -0.2809 -0.9371 -1.6999
 2533TIP3    H229159   0.793   3.092   7.165  0.4367  0.7483  0.8315
 2534TIP3   OH229160   1.837   5.499   0.719  0.5703 -0.3865 -0.3769
 2534TIP3    H129161   1.922   5.458   0.730  0.4902 -0.5804 -0.4802
 2534TIP3    H229162   1.810   5.523   0.808 -0.8846 -3.5538  0.1877
 2535TIP3   OH229163   3.433   0.624   0.379 -0.1056  0.1288  0.1330
 2535TIP3    H129164   3.480   0.637   0.461 -0.2120 -1.4191  0.4653
 2535TIP3    H229165   3.468   0.691   0.320 -0.2595  1.4679  1.5140
 2536TIP3   OH229166   1.784   5.167   1.048  0.8112  0.3353  0.0866
 2536TIP3    H129167   1.794   5.074   1.030 -2.0802  0.0254 -0.2725
 2536TIP3    H229168   1.768   5.173   1.142 -2.7555 -0.0296 -0.3747
 2537TIP3   OH229169   2.381   0.969   1.938 -0.0583  0.2644 -0.3416
 2537TIP3    H129170   2.408   1.041   1.995  0.2996  0.2545 -0.4909
 2537TIP3    H229171   2.441   0.897   1.961 -1.0063 -0.2887  0.4535
 2538TIP3   OH229172   0.462   1.479   0.461  0.1988 -0.1393  0.2457
 2538TIP3    H129173   0.402   1.406   0.444  0.5168 -0.4547  0.4520
 2538TIP3    H229174   0.480   1.517   0.375  1.1851 -1.2252 -0.0494
 2539TIP3   OH229175   5.178   0.263   1.910 -0.8909 -0.3609  0.4438
 2539TIP3    H129176   5.231   0.334   1.948  0.8534  0.0729 -2.4543
 2539TIP3    H229177   5.120   0.307   1.849 -0.7862 -1.3148 -0.3610
 2540TIP3   OH229178   5.048   0.816   1.111  0.6342  0.6073 -0.1516
 2540TIP3    H129179   4.990   0.759   1.161 -0.1330  2.3253  0.9944
 2540TIP3    H229180   5.078   0.881   1.174  2.3113  0.9037 -1.1764
 2541TIP3   OH229181   1.112   1.637   7.989 -0.1976  0.5476  0.3586
 2541TIP3    H129182   1.022   1.670   7.990 -1.8187 -3.2177 -1.4525
 2541TIP3    H229183   1.113   1.570   8.058  0.4061 -1.0925 -1.1773
 2542TIP3   OH229184   5.402   2.533   7.519  0.1777 -0.1901  0.0753
 2542TIP3    H129185   5.355   2.537   7.603  1.1039 -2.4649  0.7955
 2542TIP3    H229186   5.423   2.624   7.499 -0.2909  0.4505  2.1934
 2543TIP3   OH229187   3.490   6.091   7.073  0.4656 -0.6201 -0.3205
 2543TIP3    H129188   3.451   6.087   7.160 -1.1999  0.3802 -0.9699
 2543TIP3    H229189   3.470   6.006   7.034 -1.0872 -0.1547 -0.6150
 2544TIP3   OH229190   5.336   3.244   2.117  0.0347 -0.0009  0.1225
 2544TIP3    H129191   5.249   3.215   2.091 -0.1757  0.9717 -0.2935
 2544TIP3    H229192   5.389   3.236   2.038 -0.5998  2.9315 -0.7077
 2545TIP3   OH229193   0.126   4.349   2.303 -0.0400 -1.0734  0.1655
 2545TIP3    H129194   0.150   4.390   2.385  1.8675 -0.3745 -0.6743
 2545TIP3    H229195   0.045   4.302   2.322  0.3866 -0.9978  2.4391
 2546TIP3   OH229196   5.736   4.705   2.336 -0.1487  0.3691 -0.6231
 2546TIP3    H129197   5.749   4.800   2.345 -0.5795  0.2991  0.9916
 2546TIP3    H229198   5.723   4.692   2.242 -0.1384  1.9158 -0.8681
 2547TIP3   OH229199   1.234   0.166   0.259  0.2027 -0.0579 -0.0844
 2547TIP3    H129200   1.214   0.229   0.328  0.9161  0.4523 -0.3297
 2547TIP3    H229201   1.222   0.215   0.177 -0.7540 -0.6909 -0.3339
 2548TIP3   OH229202   2.378   3.153   1.419  0.3917 -0.6522 -0.0781
 2548TIP3    H129203   2.454   3.208   1.433  1.1509 -1.3379 -1.2999
 2548TIP3    H229204   2.348   3.130   1.506  0.7334  0.7549  0.4369
 2549TIP3   OH229205   2.823   2.082   7.592  0.2474 -0.2799 -0.5409
 2549TIP3    H129206   2.805   1.989   7.587  0.0096 -0.2328 -0.5565
 2549TIP3    H229207   2.754   2.123   7.540  0.1451 -0.0728 -0.2459
 2550TIP3   OH229208   2.800   2.103   0.947 -0.1508 -0.1340 -0.1714
 2550TIP3    H129209   2.761   2.190   0.956  0.3752  0.4419 -2.6223
 2550TIP3    H229210   2.729   2.043   0.970 -1.3338  0.9395 -0.8782
 2551TIP3   OH229211   5.986   4.994   2.172  0.6119 -0.3053 -0.3196
 2551TIP3    H129212   6.025   5.077   2.199  1.1858 -0.5960 -0.2246
 2551TIP3    H229213   5.911   4.983   2.230  1.2221 -0.4156  0.4760
 2552TIP3   OH229214   5.472   3.062   1.043  0.1018 -0.0668 -0.4364
 2552TIP3    H129215   5.456   2.980   1.089  0.8168 -0.8051 -1.4607
 2552TIP3    H229216   5.486   3.036   0.952 -1.8781  1.3953 -1.2374
 2553TIP3   OH229217   0.271   3.391   0.618  0.1113 -0.2585 -0.2653
 2553TIP3    H129218   0.314   3.348   0.691  0.6039  1.8716  0.7779
 2553TIP3    H229219   0.279   3.485   0.636 -0.6326  0.3326 -2.5470
 2554TIP3   OH229220   0.439   3.100   2.186  0.2688  0.6175  0.2013
 2554TIP3    H129221   0.473   3.170   2.131  0.4275  0.1056 -0.3608
 2554TIP3    H229222   0.509   3.084   2.250 -0.1438  1.5937  0.9212
 2555TIP3   OH229223   0.708   4.075   0.058  0.1555 -0.4777  0.3283
 2555TIP3    H129224   0.690   3.994   0.011 -0.9684 -1.3287  2.1273
 2555TIP3    H229225   0.785   4.112   0.014 -0.7891 -1.2195 -2.0896
 2556TIP3   OH229226   4.010   4.653   3.008  0.1222 -0.1796  0.0559
 2556TIP3    H129227   4.088   4.639   2.954  0.4060  0.5625  0.2617
 2556TIP3    H229228   4.007   4.578   3.067  0.8264 -0.0912  0.2134
 2557TIP3   OH229229   5.058   3.863   7.096  0.2825 -0.2542  0.3450
 2557TIP3    H129230   5.142   3.876   7.052 -0.9253  0.4467 -1.9446
 2557TIP3    H229231   5.041   3.946   7.140  0.9678 -0.5437  1.1639
 2558TIP3   OH229232   4.832   5.736   2.755 -0.2073 -0.0412  0.1887
 2558TIP3    H129233   4.842   5.794   2.830 -0.8591 -0.7215  0.8161
 2558TIP3    H229234   4.790   5.657   2.790  2.6604 -1.8888 -0.1536
 2559TIP3   OH229235   3.338   2.002   7.103  0.1229 -0.0115  0.2456
 2559TIP3    H129236   3.307   2.016   7.014  0.0804 -1.7258 -0.0478
 2559TIP3    H229237   3.323   2.085   7.147 -1.2284  0.4283 -0.9583
 2560TIP3   OH229238   4.412   4.452   2.028  0.6432 -0.0348  0.0781
 2560TIP3    H129239   4.408   4.359   2.003 -1.3873 -0.3933  1.4825
 2560TIP3    H229240   4.484   4.456   2.091  0.6128 -0.7159  0.1693
 2561TIP3   OH229241   0.052   4.631   0.405  0.9007 -0.2015  0.7571
 2561TIP3    H129242   0.068   4.563   0.470  0.4857 -0.4496  0.6024
 2561TIP3    H229243   0.091   4.597   0.325  1.6601  0.2273  0.9363
 2562TIP3   OH229244   0.727   6.818   7.862  0.5527 -0.3167 -0.5897
 2562TIP3    H129245   0.687   6.744   7.907  0.8431  0.7942  1.6741
 2562TIP3    H229246   0.820   6.813   7.886  0.5535  0.8066 -0.2810
 2563TIP3   OH229247   2.695   3.188   3.001  0.2086 -0.7967  0.0315
 2563TIP3    H129248   2.742   3.262   2.963 -1.3388 -0.9774 -2.5203
 2563TIP3    H229249   2.609   3.224   3.024 -0.2343 -1.5576 -0.3710
 2564TIP3   OH229250   6.834   5.997   8.015  0.0712 -0.2758 -0.0449
 2564TIP3    H129251   6.820   6.066   7.950  0.2864 -1.7609 -1.7080
 2564TIP3    H229252   6.812   5.916   7.970  1.8826 -1.5204  1.1877
 2565TIP3   OH229253   5.042   2.396   7.434 -0.0384 -0.3080 -0.6043
 2565TIP3    H129254   5.037   2.346   7.353 -3.4001 -1.6035  0.2725
 2565TIP3    H229255   5.002   2.480   7.412  0.7862  0.0769 -0.7039
 2566TIP3   OH229256   5.109   1.673   0.085  0.4851 -0.9640 -0.6245
 2566TIP3    H129257   5.051   1.741   0.051  0.4892 -1.1049 -0.9155
 2566TIP3    H229258   5.155   1.639   0.008  0.6811 -1.1098 -0.4454
 2567TIP3   OH229259   2.312   5.580   2.450  0.3412  0.1896  0.6493
 2567TIP3    H129260   2.335   5.651   2.390 -0.6097 -0.1007 -0.0826
 2567TIP3    H229261   2.392   5.563   2.499  1.1946  0.3393 -0.6449
 2568TIP3   OH229262   1.791   4.790   2.605 -0.3452 -0.2417 -0.2736
 2568TIP3    H129263   1.727   4.732   2.564 -0.7383 -0.4372  0.6009
 2568TIP3    H229264   1.750   4.818   2.687  0.9271 -0.8503  0.5985
 2569TIP3   OH229265   1.334   4.512   0.420 -0.2955  0.0667  0.1499
 2569TIP3    H129266   1.375   4.441   0.470  0.1432 -0.6213 -1.1596
 2569TIP3    H229267   1.379   4.591   0.451 -0.4938 -0.2535  1.3178
 2570TIP3   OH229268   5.225   1.817   1.983  0.0043 -0.6138 -0.6312
 2570TIP3    H129269   5.130   1.804   1.977 -0.0926 -1.2827  1.4920
 2570TIP3    H229270   5.261   1.729   1.975  0.5022 -0.3000 -1.9608
 2571TIP3   OH229271   3.001   4.935   0.324 -0.1484  0.6548  0.5696
 2571TIP3    H129272   3.032   4.987   0.398 -0.0448 -0.2479  1.1804
 2571TIP3    H229273   2.941   4.871   0.363  0.3265 -0.1824 -0.0436
 2572TIP3   OH229274   2.023   0.843   0.442 -0.0676  0.0545 -0.2354
 2572TIP3    H129275   1.981   0.915   0.489 -1.1020 -1.0690  0.6524
 2572TIP3    H229276   1.953   0.807   0.386 -0.3530 -1.7689  1.1679
 2573TIP3   OH229277   0.361   4.361   1.402 -0.9747  0.1049  0.4877
 2573TIP3    H129278   0.285   4.409   1.368 -0.4746  0.6474  0.1059
 2573TIP3    H229279   0.330   4.271   1.412 -1.1862 -0.0770 -1.3589
 2574TIP3   OH229280   1.353   6.755   3.120  0.0670  0.3696  0.1090
 2574TIP3    H129281   1.426   6.814   3.140 -0.7740  1.2746  0.6457
 2574TIP3    H229282   1.394   6.677   3.083  1.5346 -0.2364  2.7435
 2575TIP3   OH229283   4.118   6.179   2.603  0.4423  0.1638 -0.2980
 2575TIP3    H129284   4.050   6.192   2.669  0.0463  1.9619 -0.9981
 2575TIP3    H229285   4.135   6.266   2.568  1.1488 -0.6372 -2.0897
 2576TIP3   OH229286   5.404   1.965   1.758 -0.0173 -0.0029 -0.1011
 2576TIP3    H129287   5.343   1.927   1.821  1.1978 -0.5739  0.7621
 2576TIP3    H229288   5.430   2.049   1.796  0.6046 -0.2795  0.0858
 2577TIP3   OH229289   3.257   5.202   0.297 -0.4015  0.1638 -0.0154
 2577TIP3    H129290   3.294   5.281   0.335 -1.3028  0.1724  0.8945
 2577TIP3    H229291   3.307   5.131   0.337  0.8712  0.2573 -1.3468
 2578TIP3   OH229292   5.204   5.063   0.901  0.2697  0.6247  0.0953
 2578TIP3    H129293   5.139   5.133   0.909  0.9076  1.5004 -1.9094
 2578TIP3    H229294   5.275   5.089   0.959 -0.4254  0.4965  1.0331
 2579TIP3   OH229295   0.967   3.467   1.191 -0.2711  0.2153 -0.2207
 2579TIP3    H129296   0.926   3.485   1.275 -1.5640  0.2657 -0.8509
 2579TIP3    H229297   0.909   3.506   1.126  1.3218  1.2443 -1.0952
 2580TIP3   OH229298   6.534   4.940   7.276 -0.2174  0.1515 -0.4962
 2580TIP3    H129299   6.512   4.878   7.206 -0.8235  0.2119 -0.3605
 2580TIP3    H229300   6.629   4.952   7.267 -0.0655 -0.8771 -0.4618
 2581TIP3   OH229301   5.990   5.358   3.168 -0.0108  0.3204 -0.6148
 2581TIP3    H129302   5.924   5.303   3.210  0.0252  1.3410  0.8563
 2581TIP3    H229303   6.019   5.308   3.092 -0.4137 -1.3966  0.3206
 2582TIP3   OH229304   5.423   5.000   2.990 -0.0683  0.5656  0.4742
 2582TIP3    H129305   5.421   5.096   2.988  0.9624  0.5790 -0.3566
 2582TIP3    H229306   5.486   4.975   2.923 -2.8675 -0.8291 -1.8575
 2583TIP3   OH229307   2.389   6.633   2.661 -0.1196  0.1021 -0.1123
 2583TIP3    H129308   2.404   6.603   2.571  1.3877  0.4559 -0.0102
 2583TIP3    H229309   2.308   6.684   2.657  0.6717  1.3296 -1.5783
 2584TIP3   OH229310   2.125   2.037   7.465  0.6134 -0.7528 -0.4239
 2584TIP3    H129311   2.150   2.127   7.444 -0.1357 -0.6918 -1.0689
 2584TIP3    H229312   2.037   2.026   7.429  0.5828 -1.6640 -0.1201
 2585TIP3   OH229313   0.432   5.833   7.980  0.4493  0.2172  0.2265
 2585TIP3    H129314   0.419   5.917   8.025 -2.5582  1.0025 -1.7411
 2585TIP3    H229315   0.395   5.768   8.040 -0.8417  0.8657  0.1774
 2586TIP3   OH229316   2.683   3.898   0.686  0.5326 -0.3587  0.1472
 2586TIP3    H129317   2.639   3.896   0.601 -0.5602  0.1449  0.6886
 2586TIP3    H229318   2.748   3.828   0.680 -0.6890 -1.4818 -0.4826
 2587TIP3   OH229319   4.431   0.464   2.025 -0.3962 -0.1702 -0.6065
 2587TIP3    H129320   4.459   0.512   1.947  0.6541  1.6636  0.8326
 2587TIP3    H229321   4.367   0.522   2.067 -0.1214 -0.6269  0.4708
 2588TIP3   OH229322   3.778   0.364   1.717  0.9882  0.6160 -0.1348
 2588TIP3    H129323   3.785   0.309   1.639 -1.1040  0.8021 -0.5159
 2588TIP3    H229324   3.865   0.363   1.755  1.2871 -2.1564 -0.6840
 2589TIP3   OH229325   5.825   1.340   8.205  0.0979  0.2952  0.0063
 2589TIP3    H129326   5.768   1.417   8.208 -1.1688 -0.6368  3.0697
 2589TIP3    H229327   5.889   1.354   8.274  0.8468 -0.7134 -0.4489
 2590TIP3   OH229328   2.389   4.223   8.561  0.0773  0.2291  0.0485
 2590TIP3    H129329   2.296   4.237   8.583 -0.1918 -0.8046 -0.3886
 2590TIP3    H229330   2.388   4.151   8.499  1.0925  1.0273 -0.9157
 2591TIP3   OH229331   0.704   5.648   7.903 -0.8863  0.1202 -0.1956
 2591TIP3    H129332   0.767   5.720   7.911 -0.7005 -0.1992  1.7816
 2591TIP3    H229333   0.756   5.575   7.870 -1.3674  1.1536 -3.6883
 2592TIP3   OH229334   2.442   6.149   0.981  0.3526  0.0634 -0.0334
 2592TIP3    H129335   2.505   6.189   1.041  1.4675  1.7953 -2.2008
 2592TIP3    H229336   2.491   6.138   0.899 -1.4612 -0.9543 -1.0339
 2593TIP3   OH229337   0.730   2.347   2.800 -0.2182  0.5860 -0.4073
 2593TIP3    H129338   0.667   2.275   2.808  0.3983  0.1950  1.7266
 2593TIP3    H229339   0.709   2.388   2.716  0.2323 -2.8403 -2.3955
 2594TIP3   OH229340   6.070   1.326   0.225  0.0937 -0.2588 -0.0980
 2594TIP3    H129341   6.114   1.258   0.175  0.5564 -1.3531  1.6862
 2594TIP3    H229342   5.977   1.307   0.216  0.1066  0.2326 -1.4138
 2595TIP3   OH229343   6.316   0.350   0.973  0.0986  0.3664 -0.2845
 2595TIP3    H129344   6.277   0.436   0.992 -2.1308 -0.6069 -0.1248
 2595TIP3    H229345   6.249   0.287   1.001  1.8601 -1.4483  0.0048
 2596TIP3   OH229346   0.803   3.389   8.097 -0.1098 -0.3973  0.2494
 2596TIP3    H129347   0.718   3.357   8.066 -0.2956  0.9150 -0.7335
 2596TIP3    H229348   0.783   3.433   8.179 -0.8685  1.9169 -1.0725
 2597TIP3   OH229349   2.553   2.621   1.205 -0.6262 -0.2702  0.0582
 2597TIP3    H129350   2.580   2.707   1.171 -1.7826  0.1102  0.0671
 2597TIP3    H229351   2.514   2.640   1.290  0.3915 -0.9861  0.7119
 2598TIP3   OH229352   4.851   3.852   0.968  0.8489 -0.1807 -0.5147
 2598TIP3    H129353   4.826   3.801   1.046  1.1581 -0.9737 -0.9241
 2598TIP3    H229354   4.840   3.791   0.895 -1.9836  1.2893 -1.4558
 2599TIP3   OH229355   6.659   2.771   7.618  0.2441 -0.6635 -0.3320
 2599TIP3    H129356   6.625   2.758   7.529 -0.3993 -1.4116  0.0158
 2599TIP3    H229357   6.645   2.687   7.662  0.3816 -0.2411  0.5394
 2600TIP3   OH229358   0.428   0.800   1.073 -0.0998 -0.0420  0.4485
 2600TIP3    H129359   0.425   0.710   1.107 -0.0573 -0.2495 -0.0880
 2600TIP3    H229360   0.520   0.824   1.078 -0.0760 -0.1166  0.3589
 2601TIP3   OH229361   1.689   0.720   2.287  0.4266  0.0870 -0.2348
 2601TIP3    H129362   1.603   0.746   2.323  0.2847  0.9173 -1.1268
 2601TIP3    H229363   1.748   0.722   2.362 -0.4345 -1.0401  0.5068
 2602TIP3   OH229364   1.695   1.703   0.659  0.4663  0.6417 -0.2215
 2602TIP3    H129365   1.608   1.666   0.642  0.5189  0.4016  0.0145
 2602TIP3    H229366   1.705   1.772   0.593  0.6655 -0.2559 -1.1586
 2603TIP3   OH229367   2.967   0.107   6.942  0.0782 -0.2431 -0.2046
 2603TIP3    H129368   3.021   0.096   7.021 -0.6549 -1.4086  0.1668
 2603TIP3    H229369   2.981   0.026   6.893 -0.3991 -0.0363 -0.6924
 2604TIP3   OH229370   1.643   1.925   1.009 -0.3484  0.1630 -0.0360
 2604TIP3    H129371   1.639   1.992   1.078 -1.2204 -0.1340  0.2137
 2604TIP3    H229372   1.689   1.852   1.049  1.0308  0.7594 -0.4570
 2605TIP3   OH229373   2.790   4.449   8.340 -0.6479 -0.2829  0.0669
 2605TIP3    H129374   2.756   4.524   8.388 -1.2562  0.0515 -0.8646
 2605TIP3    H229375   2.882   4.444   8.366 -0.2781  1.5048 -0.7167
 2606TIP3   OH229376   3.514   6.449   1.251 -0.0495  0.2222 -0.0530
 2606TIP3    H129377   3.534   6.516   1.186  2.0879  1.1551  1.4530
 2606TIP3    H229378   3.431   6.477   1.289 -0.0068  1.1080 -0.5873
 2607TIP3   OH229379   1.013   4.419   7.446  0.1823  0.0474 -0.2504
 2607TIP3    H129380   0.969   4.364   7.381 -0.9268  0.1616  0.3772
 2607TIP3    H229381   1.096   4.374   7.462 -0.1810 -0.7929 -0.6389
 2608TIP3   OH229382   4.701   1.565   1.614  0.8322  0.4140 -0.0313
 2608TIP3    H129383   4.699   1.591   1.522  0.2991  0.3435 -0.0428
 2608TIP3    H229384   4.793   1.542   1.631  1.0597  1.0602 -0.3632
 2609TIP3   OH229385   5.791   1.462   7.169  0.3426  0.1894 -0.1484
 2609TIP3    H129386   5.828   1.498   7.250  2.8919 -0.5159 -0.8838
 2609TIP3    H229387   5.704   1.432   7.193 -0.0488  2.4681  1.6316
 2610TIP3   OH229388   0.102   1.314   6.933 -0.3244 -0.1124  0.2091
 2610TIP3    H129389   0.105   1.225   6.897 -1.7608 -0.2828  0.4464
 2610TIP3    H229390   0.127   1.303   7.025  1.1439 -0.0027 -0.1521
 2611TIP3   OH229391   0.295   5.407   1.795  0.0204  0.0004  0.2336
 2611TIP3    H129392   0.282   5.356   1.715  1.6264 -2.5224  1.4473
 2611TIP3    H229393   0.333   5.489   1.765  0.1274 -0.6957 -1.6476
 2612TIP3   OH229394   1.672   4.909   2.823  0.3293  0.0739  0.2119
 2612TIP3    H129395   1.656   4.996   2.859  0.8341 -0.0652  0.7866
 2612TIP3    H229396   1.723   4.864   2.890 -0.0591 -0.7212 -0.0080
 2613TIP3   OH229397   2.870   0.384   1.377 -0.0861  0.3492 -0.2113
 2613TIP3    H129398   2.960   0.381   1.409 -0.5871 -0.3400  1.2326
 2613TIP3    H229399   2.821   0.426   1.447 -1.1279 -0.6409 -0.3072
 2614TIP3   OH229400   4.963   6.118   0.044 -0.0236  0.6591  0.1562
 2614TIP3    H129401   4.954   6.103  -0.050 -0.1131 -2.4255  0.5301
 2614TIP3    H229402   5.046   6.074   0.067 -0.8018 -0.0903  1.7100
 2615TIP3   OH229403   5.954   1.378   1.604 -0.3216  0.1059 -0.1036
 2615TIP3    H129404   5.937   1.471   1.612 -3.4395 -0.3642  0.0156
 2615TIP3    H229405   5.929   1.356   1.514  0.9418 -0.5545 -0.3215
 2616TIP3   OH229406   3.784   0.559   2.036 -0.7471 -0.5741  0.0921
 2616TIP3    H129407   3.756   0.512   2.115  0.3106 -1.0143  0.2349
 2616TIP3    H229408   3.725   0.530   1.967 -0.5873 -1.5451  0.3520
 2617TIP3   OH229409   5.706   3.681   0.990 -0.1514 -0.8783  0.4049
 2617TIP3    H129410   5.733   3.618   1.057  0.2080 -1.4885 -0.3098
 2617TIP3    H229411   5.759   3.660   0.914 -0.2622  0.0832  0.0501
 2618TIP3   OH229412   0.387   5.332   2.386 -0.2257 -0.3163 -0.3887
 2618TIP3    H129413   0.436   5.335   2.468 -0.0848  0.9615 -0.5063
 2618TIP3    H229414   0.413   5.250   2.346  1.2060 -0.0403 -0.0713
 2619TIP3   OH229415   3.241   6.053   1.619  0.0857 -0.1342 -0.7432
 2619TIP3    H129416   3.205   6.061   1.707 -0.1794 -2.9575 -0.5199
 2619TIP3    H229417   3.326   6.009   1.631  0.6776  0.6430 -1.8104
 2620TIP3   OH229418   1.280   6.176   2.953  0.2866  0.2446 -0.1211
 2620TIP3    H129419   1.254   6.170   2.861 -0.7640 -2.4479  0.2608
 2620TIP3    H229420   1.201   6.206   2.998 -0.1754 -1.3804  0.2182
 2621TIP3   OH229421   3.646   1.355   0.723  0.4897  0.0193 -0.9014
 2621TIP3    H129422   3.652   1.316   0.811 -2.0594  0.3893 -0.4849
 2621TIP3    H229423   3.694   1.294   0.667  0.4542 -1.3014  0.4277
 2622TIP3   OH229424   3.479   1.168   7.968 -0.2019 -0.4455 -0.3379
 2622TIP3    H129425   3.529   1.250   7.958  0.5480 -0.9611 -0.8961
 2622TIP3    H229426   3.465   1.162   8.063  0.1121  0.1143 -0.2442
 2623TIP3   OH229427   2.436   6.680   1.455 -0.3127 -0.0243  0.0329
 2623TIP3    H129428   2.352   6.649   1.487 -0.1065  0.2372  0.8343
 2623TIP3    H229429   2.416   6.765   1.416 -0.2317  0.5909  1.2933
 2624TIP3   OH229430   6.290   3.644   8.600  0.3565  0.1737  0.1689
 2624TIP3    H129431   6.290   3.737   8.576  1.4224 -0.0269 -0.6689
 2624TIP3    H229432   6.239   3.602   8.531 -1.9159  0.3595  1.6399
 2625TIP3   OH229433   3.271   1.097   1.688 -0.0122 -0.1445 -0.2682
 2625TIP3    H129434   3.226   1.084   1.772  0.6684 -0.1944  0.1062
 2625TIP3    H229435   3.253   1.017   1.639  0.1094 -0.4017  0.0931
 2626TIP3   OH229436   6.374   2.962   6.974 -0.2213  0.0811 -0.0944
 2626TIP3    H129437   6.404   2.885   6.925 -1.0664  0.3861 -1.1086
 2626TIP3    H229438   6.451   2.987   7.026  0.5977 -0.4499 -1.0007
 2627TIP3   OH229439   3.134   3.675   7.690  0.3031  0.1175  0.5825
 2627TIP3    H129440   3.108   3.661   7.599 -0.4341  0.7365  0.6816
 2627TIP3    H229441   3.120   3.769   7.704 -1.1402 -0.2377  1.7906
 2628TIP3   OH229442   0.261   2.647   0.513  0.0952 -0.3341  0.2094
 2628TIP3    H129443   0.178   2.603   0.493  0.8599 -2.1498  0.8734
 2628TIP3    H229444   0.234   2.729   0.554 -1.4253 -1.5644  1.8689
 2629TIP3   OH229445   6.725   3.382   1.441  0.7026 -0.1706  0.1476
 2629TIP3    H129446   6.739   3.369   1.347  0.8390 -0.6516  0.2308
 2629TIP3    H229447   6.727   3.476   1.453  1.1274 -0.1269 -0.2663
 2630TIP3   OH229448   6.383   6.203   0.145 -0.3496 -0.3687  0.1660
 2630TIP3    H129449   6.367   6.260   0.070  0.9549  1.4605  1.1692
 2630TIP3    H229450   6.478   6.188   0.144 -0.3313 -0.4681  1.3048
 2631TIP3   OH229451   4.935   4.560   8.350  0.4369 -0.4078 -0.2192
 2631TIP3    H129452   5.022   4.520   8.355  0.0842 -1.0822  0.7297
 2631TIP3    H229453   4.942   4.640   8.401  0.6592 -0.1563 -0.6395
 2632TIP3   OH229454   3.407   1.953   8.468  0.0726  0.1636  0.1528
 2632TIP3    H129455   3.416   1.992   8.555  0.6796  1.1913 -0.3454
 2632TIP3    H229456   3.339   1.886   8.478 -0.6269  0.9977  1.1676
 2633TIP3   OH229457   5.583   6.532   2.906 -0.2094  0.1440  0.2404
 2633TIP3    H129458   5.502   6.579   2.922 -0.3459  0.0867 -0.2780
 2633TIP3    H229459   5.559   6.439   2.913 -0.0947  0.1345  0.5255
 2634TIP3   OH229460   3.696   3.570   1.524 -0.5795  0.1765  0.0289
 2634TIP3    H129461   3.738   3.644   1.481  0.8661  0.2296  1.4379
 2634TIP3    H229462   3.755   3.547   1.596 -0.3656 -3.0958 -1.0132
 2635TIP3   OH229463   4.095   3.081   2.013  0.6050  0.3350 -0.0123
 2635TIP3    H129464   4.098   3.098   2.108  1.0608  0.0404  0.0299
 2635TIP3    H229465   4.168   3.021   1.997  0.2054 -0.0441 -0.4664
 2636TIP3   OH229466   0.840   4.419   0.845  0.0237  0.1505  0.0238
 2636TIP3    H129467   0.822   4.510   0.868 -2.1954  0.2787 -1.8858
 2636TIP3    H229468   0.925   4.423   0.801  0.4173  1.1069  0.8025
 2637TIP3   OH229469   5.420   5.756   0.359 -0.2590 -0.2873 -0.4217
 2637TIP3    H129470   5.355   5.692   0.330 -2.1847  0.3874  2.0659
 2637TIP3    H229471   5.393   5.779   0.447  2.1069  1.7585 -0.1256
 2638TIP3   OH229472   1.749   1.816   1.923 -0.3494 -0.4647 -0.2988
 2638TIP3    H129473   1.765   1.873   1.848  0.2066  0.2570  0.3435
 2638TIP3    H229474   1.831   1.768   1.935 -0.2816 -0.2636  0.0895
 2639TIP3   OH229475   0.524   6.590   1.874 -0.3752  0.4443 -0.4212
 2639TIP3    H129476   0.526   6.539   1.955 -0.3488  2.0762  0.6425
 2639TIP3    H229477   0.496   6.527   1.807  0.0607 -1.0522  0.7496
 2640TIP3   OH229478   6.393   1.819   8.577  0.1478  0.1890 -0.0248
 2640TIP3    H129479   6.353   1.820   8.491  0.9404 -0.4155 -0.4113
 2640TIP3    H229480   6.487   1.826   8.560  0.2529  1.1864  0.8371
 2641TIP3   OH229481   1.918   0.760   0.949 -0.1122  0.3681  0.1070
 2641TIP3    H129482   1.905   0.853   0.927 -3.3779  0.0773  0.2764
 2641TIP3    H229483   1.979   0.728   0.882 -1.1155  2.0279 -1.7020
 2642TIP3   OH229484   3.800   0.211   8.347 -0.3249 -0.0005 -0.0510
 2642TIP3    H129485   3.859   0.221   8.272 -0.0126 -0.1547  0.1733
 2642TIP3    H229486   3.725   0.267   8.326  0.1869  0.6931 -0.0506
 2643TIP3   OH229487   5.594   6.108   8.671 -0.0433  0.5479 -0.1413
 2643TIP3    H129488   5.598   6.105   8.766 -0.7810 -1.3374 -0.1417
 2643TIP3    H229489   5.652   6.180   8.647  1.3835  0.0523  1.6388
 2644TIP3   OH229490   6.806   3.776   7.778  0.1749 -0.0995 -0.5849
 2644TIP3    H129491   6.871   3.714   7.744  0.8878  0.1855  0.2486
 2644TIP3    H229492   6.813   3.769   7.873 -0.3573  0.6380 -0.4853
 2645TIP3   OH229493   0.942   2.262   1.649 -0.0613 -0.1091 -0.1616
 2645TIP3    H129494   0.902   2.287   1.733  1.0181 -1.5712  0.8473
 2645TIP3    H229495   0.869   2.227   1.598 -0.4993 -0.5619  0.7412
 2646TIP3   OH229496   6.432   1.524   0.578 -0.4850 -0.7022 -0.4735
 2646TIP3    H129497   6.398   1.512   0.667  0.3522  0.5367  0.0453
 2646TIP3    H229498   6.395   1.452   0.528 -0.3907 -1.8629  1.0507
 2647TIP3   OH229499   5.254   0.463   2.093 -0.2989 -0.4326 -0.0265
 2647TIP3    H129500   5.221   0.523   2.026  0.0467 -0.1251  0.0725
 2647TIP3    H229501   5.196   0.477   2.168 -1.7389 -1.9916 -0.7959
 2648TIP3   OH229502   2.426   3.983   0.815 -0.1321  0.2593 -0.1091
 2648TIP3    H129503   2.520   3.982   0.797 -0.0629 -1.6688  0.0631
 2648TIP3    H229504   2.389   4.044   0.752  1.0862  0.0302 -1.0837
 2649TIP3   OH229505   5.366   5.756   7.068 -0.2757  0.1891 -0.0363
 2649TIP3    H129506   5.339   5.706   6.992 -2.3866 -2.0633  2.0087
 2649TIP3    H229507   5.312   5.835   7.066 -0.6440 -0.0781 -0.5954
 2650TIP3   OH229508   4.735   2.963   1.922 -0.1211  0.5375 -0.3357
 2650TIP3    H129509   4.822   2.970   1.882  0.5678 -0.6008  0.8866
 2650TIP3    H229510   4.693   3.047   1.902  0.4519  0.3497 -2.7343
 2651TIP3   OH229511   5.538   4.759   1.080 -0.7076  0.3636  0.9005
 2651TIP3    H129512   5.606   4.822   1.054 -2.2035  1.4954 -0.5360
 2651TIP3    H229513   5.490   4.804   1.149 -0.0970 -0.3781  1.8212
 2652TIP3   OH229514   0.666   4.169   2.882 -0.4421 -0.3667 -0.1382
 2652TIP3    H129515   0.671   4.232   2.810  1.3472 -0.6200 -0.2726
 2652TIP3    H229516   0.585   4.191   2.927  0.1111  2.0256 -0.1963
 2653TIP3   OH229517   6.350   2.368   7.727 -0.5105  0.0272 -0.5327
 2653TIP3    H129518   6.275   2.335   7.678  0.1890 -1.1615 -0.8417
 2653TIP3    H229519   6.312   2.410   7.805 -1.5310  0.3946 -1.2106
 2654TIP3   OH229520   0.745   1.205   7.751 -0.2325 -0.3482  0.6562
 2654TIP3    H129521   0.763   1.135   7.813  2.1784 -0.6610 -0.2856
 2654TIP3    H229522   0.774   1.285   7.795  3.1774 -0.7526 -0.5249
 2655TIP3   OH229523   1.599   1.587   6.685  0.4809 -0.9102 -0.6490
 2655TIP3    H129524   1.512   1.625   6.696  0.3830 -0.8617 -1.4864
 2655TIP3    H229525   1.596   1.505   6.734  1.2433  0.8638  2.6253
 2656TIP3   OH229526   4.931   6.454   2.042 -0.2330  0.0269  0.2205
 2656TIP3    H129527   4.874   6.380   2.024 -0.0257 -0.9524  3.0954
 2656TIP3    H229528   5.020   6.422   2.026 -0.1800 -0.1704  0.8913
 2657TIP3   OH229529   0.346   2.446   8.095  0.7338 -0.4057  0.1374
 2657TIP3    H129530   0.429   2.482   8.127  0.9233  1.1024 -1.9014
 2657TIP3    H229531   0.363   2.352   8.087  1.0682 -0.7027  3.0410
 2658TIP3   OH229532   1.538   2.536   8.333 -0.2147 -0.4603  0.1600
 2658TIP3    H129533   1.456   2.538   8.383 -0.4715  0.3355 -0.2756
 2658TIP3    H229534   1.520   2.590   8.256  0.4530 -0.9814 -0.3680
 2659TIP3   OH229535   5.336   4.718   1.651  0.2495  0.6644  0.3440
 2659TIP3    H129536   5.378   4.801   1.628  1.5981 -0.0113  0.3063
 2659TIP3    H229537   5.258   4.715   1.595  0.8060  1.3698 -0.4918
 2660TIP3   OH229538   2.892   1.199   7.798 -0.3119 -0.2362  0.3785
 2660TIP3    H129539   2.837   1.125   7.824 -0.4112 -0.2137  0.2322
 2660TIP3    H229540   2.924   1.236   7.880 -0.2248 -0.4715  0.4521
 2661TIP3   OH229541   3.331   5.619   1.140 -0.5325 -0.5529 -0.1321
 2661TIP3    H129542   3.352   5.705   1.177 -1.3681 -0.4056  0.0027
 2661TIP3    H229543   3.290   5.571   1.212  1.3117 -1.6382  0.2731
 2662TIP3   OH229544   2.568   4.501   2.149 -1.0798 -0.3058 -0.0064
 2662TIP3    H129545   2.513   4.469   2.220 -0.2068 -1.2591  0.2659
 2662TIP3    H229546   2.545   4.446   2.074 -0.8919 -0.3272 -0.0472
 2663TIP3   OH229547   4.551   2.601   0.009 -0.7681  0.4625  0.7246
 2663TIP3    H129548   4.576   2.609  -0.083  0.7112  0.1259  1.0677
 2663TIP3    H229549   4.463   2.639   0.014  0.2236  3.1020 -0.2858
 2664TIP3   OH229550   4.069   5.556   8.195  0.0598 -0.0057 -0.1040
 2664TIP3    H129551   4.158   5.532   8.220  0.0418  1.0479  1.0327
 2664TIP3    H229552   4.078   5.641   8.152 -0.3125 -0.2840 -0.7520
 2665TIP3   OH229553   2.580   6.265   1.193  0.6731  0.0021  0.1026
 2665TIP3    H129554   2.536   6.343   1.227  0.4766 -0.3731  0.7118
 2665TIP3    H229555   2.674   6.287   1.197  0.5917  0.5046 -0.4857
 2666TIP3   OH229556   4.173   2.145   0.793 -0.8870  0.2595  0.2025
 2666TIP3    H129557   4.084   2.111   0.804 -0.8948  0.2511  0.1183
 2666TIP3    H229558   4.168   2.201   0.715 -0.3711 -1.3064 -1.0010
 2667TIP3   OH229559   5.665   4.808   8.238  0.5286 -0.2845  0.0378
 2667TIP3    H129560   5.625   4.868   8.176  1.3633 -2.6812 -3.1188
 2667TIP3    H229561   5.741   4.856   8.272  0.6652  0.7754 -1.6557
 2668TIP3   OH229562   4.164   6.033   7.269  0.2324  0.3685 -0.2860
 2668TIP3    H129563   4.102   6.078   7.211  0.9148 -0.6968 -1.9267
 2668TIP3    H229564   4.246   6.082   7.258  0.6513 -0.4879 -1.1238
 2669TIP3   OH229565   4.533   4.112   7.610 -0.3400 -0.7735  0.0071
 2669TIP3    H129566   4.445   4.119   7.574  1.0365 -0.5986 -3.7494
 2669TIP3    H229567   4.559   4.202   7.627  0.1151 -0.5371 -1.7679
 2670TIP3   OH229568   6.727   5.126   1.143  0.0990  0.2615 -0.5226
 2670TIP3    H129569   6.713   5.194   1.078  0.0875  2.9540  2.0564
 2670TIP3    H229570   6.822   5.127   1.159  0.0452  0.0046 -0.1624
 2671TIP3   OH229571   3.749   3.761   0.603 -0.2873 -0.0345  0.1214
 2671TIP3    H129572   3.686   3.812   0.551  1.5407  2.6897  0.3549
 2671TIP3    H229573   3.743   3.672   0.568 -1.3737  1.0088 -2.6201
 2672TIP3   OH229574   4.751   6.340   8.132 -0.7557 -0.3023 -0.0137
 2672TIP3    H129575   4.772   6.259   8.085 -0.7879 -1.3255  1.6521
 2672TIP3    H229576   4.735   6.312   8.222  0.9087  1.7522  1.0271
 2673TIP3   OH229577   3.345   5.914   7.862  0.1712 -0.3119  0.4235
 2673TIP3    H129578   3.337   5.926   7.957 -0.5339 -0.7595  0.4278
 2673TIP3    H229579   3.306   5.828   7.846 -0.4295  0.1032 -0.3677
 2674TIP3   OH229580   2.588   0.782   0.329 -0.1821  0.1542 -0.5698
 2674TIP3    H129581   2.627   0.729   0.398  1.0330 -0.3431 -1.5985
 2674TIP3    H229582   2.577   0.869   0.369  3.1910  0.6870 -0.5589
 2675TIP3   OH229583   3.679   2.355   0.695  0.1646 -0.3823  0.2383
 2675TIP3    H129584   3.654   2.302   0.771  0.9692 -1.5068 -0.2599
 2675TIP3    H229585   3.661   2.299   0.620  0.3580  0.3271 -0.3435
 2676TIP3   OH229586   1.626   1.870   8.699 -0.0007 -0.0445 -0.1008
 2676TIP3    H129587   1.705   1.816   8.692  1.3237  1.8650 -0.7140
 2676TIP3    H229588   1.657   1.960   8.686 -2.3574  0.7353 -0.9204
 2677TIP3   OH229589   4.577   4.131   1.014  0.4746  0.1552 -0.7921
 2677TIP3    H129590   4.506   4.177   0.971  1.1025  1.4369 -0.4936
 2677TIP3    H229591   4.652   4.142   0.956  0.4838 -1.0680 -1.0419
 2678TIP3   OH229592   2.562   0.441   0.989 -0.3248  0.1067  0.6391
 2678TIP3    H129593   2.505   0.517   0.993 -0.5540 -0.0735  0.7792
 2678TIP3    H229594   2.638   0.465   1.042  0.3373  0.8547 -0.5768
 2679TIP3   OH229595   4.116   0.573   7.478  0.0135  0.6611 -1.0450
 2679TIP3    H129596   4.050   0.641   7.492  1.0197  1.2674  1.2730
 2679TIP3    H229597   4.074   0.493   7.509  0.0223  0.8721 -0.4753
 2680TIP3   OH229598   5.207   6.136   7.262 -0.3470  0.1983  0.3475
 2680TIP3    H129599   5.162   6.219   7.279  0.2026  0.0929  2.5884
 2680TIP3    H229600   5.226   6.101   7.349  1.8815 -0.9548 -0.5433
 2681TIP3   OH229601   0.644   5.051   1.939 -0.1097  0.5523 -0.0101
 2681TIP3    H129602   0.596   5.055   2.021  0.4433  1.0574  0.2934
 2681TIP3    H229603   0.736   5.048   1.965  0.0872  1.1737 -0.6205
 2682TIP3   OH229604   2.576   2.220   1.323  0.2234 -0.7796 -0.5523
 2682TIP3    H129605   2.611   2.159   1.388 -0.7860 -1.4713 -0.6395
 2682TIP3    H229606   2.647   2.283   1.309  0.5904 -0.8053  0.9676
 2683TIP3   OH229607   0.798   5.849   8.495  0.5611 -0.0362  0.6485
 2683TIP3    H129608   0.827   5.940   8.493  0.8272 -0.1287 -1.0029
 2683TIP3    H229609   0.864   5.804   8.548  0.1617  0.7921  1.8907
 2684TIP3   OH229610   6.202   2.342   1.536 -0.5906 -0.7858 -0.1945
 2684TIP3    H129611   6.170   2.421   1.492 -0.5568 -0.8197 -0.2790
 2684TIP3    H229612   6.135   2.276   1.520 -1.3037 -0.3923  1.0467
 2685TIP3   OH229613   3.954   2.897   0.705  0.3094  0.9313 -0.3670
 2685TIP3    H129614   3.968   2.859   0.791  0.4538  0.8495 -0.4260
 2685TIP3    H229615   3.860   2.886   0.688  0.4435  0.1258 -0.6082
 2686TIP3   OH229616   0.760   3.794   7.226 -0.2228  0.4651 -0.1819
 2686TIP3    H129617   0.840   3.747   7.249  0.0701  0.9699 -0.1705
 2686TIP3    H229618   0.789   3.863   7.166 -0.7872 -0.0015 -1.0267
 2687TIP3   OH229619   3.775   3.515   7.292  0.0813  0.0999  0.2742
 2687TIP3    H129620   3.748   3.581   7.229  0.2372 -0.9758 -0.9696
 2687TIP3    H229621   3.698   3.459   7.303  0.3022 -0.1821  0.4187
 2688TIP3   OH229622   4.973   4.854   8.223 -0.0084 -0.0876  0.0471
 2688TIP3    H129623   4.958   4.827   8.313  0.4189 -2.7764 -0.5820
 2688TIP3    H229624   5.027   4.784   8.186 -0.4831  0.7442 -2.3911
 2689TIP3   OH229625   3.001   2.121   6.749  0.0375 -0.2790 -0.2720
 2689TIP3    H129626   3.070   2.056   6.738  1.2935  0.0815  3.8174
 2689TIP3    H229627   2.925   2.071   6.779  1.0717 -0.0708  3.1021
 2690TIP3   OH229628   1.983   2.276   2.054 -0.5335  0.1182  0.0677
 2690TIP3    H129629   2.005   2.370   2.059 -2.2689  0.4839  1.8389
 2690TIP3    H229630   2.068   2.233   2.046  0.3496  1.7929 -0.1563
 2691TIP3   OH229631   3.392   2.732   1.219 -0.6994 -0.2196 -0.6088
 2691TIP3    H129632   3.312   2.783   1.230 -0.4845  0.1172 -0.5835
 2691TIP3    H229633   3.370   2.644   1.251 -1.4170 -0.4577 -1.7101
 2692TIP3   OH229634   5.448   4.428   3.214 -0.0285 -0.2867 -0.3270
 2692TIP3    H129635   5.402   4.364   3.160  0.8822 -2.9066  1.7920
 2692TIP3    H229636   5.471   4.381   3.294  0.9449  2.6514  1.3088
 2693TIP3   OH229637   1.427   5.456   1.198 -0.4103  0.3791  0.3741
 2693TIP3    H129638   1.457   5.472   1.287  0.6149 -0.5458  0.2297
 2693TIP3    H229639   1.338   5.421   1.207  0.7236 -2.6293  1.3208
 2694TIP3   OH229640   0.592   2.507   1.890 -0.0054 -0.5264  0.1413
 2694TIP3    H129641   0.673   2.549   1.859 -0.9839  0.4960 -1.1621
 2694TIP3    H229642   0.558   2.462   1.812 -0.7022 -0.9356  0.6729
 2695TIP3   OH229643   5.438   6.020   0.277  0.3520  0.2426 -0.7814
 2695TIP3    H129644   5.343   6.013   0.285 -0.1013  3.6251 -1.5582
 2695TIP3    H229645   5.470   5.930   0.286 -2.8217 -0.9071  0.3116
 2696TIP3   OH229646   5.113   0.817   7.963 -0.0349 -0.2374  0.4874
 2696TIP3    H129647   5.132   0.908   7.942 -1.1910  0.2411  1.3701
 2696TIP3    H229648   5.064   0.821   8.045 -3.0459 -1.3250 -1.0546
 2697TIP3   OH229649   3.096   0.643   7.945 -0.4106  0.4651  0.1685
 2697TIP3    H129650   3.124   0.581   7.878 -2.1766 -1.3758  1.0269
 2697TIP3    H229651   3.162   0.636   8.014  1.0109  1.8265 -0.9711
 2698TIP3   OH229652   3.792   3.100   2.376 -0.4443 -0.1293 -0.2811
 2698TIP3    H129653   3.783   3.135   2.288  1.4874  1.5128  0.1032
 2698TIP3    H229654   3.886   3.097   2.392 -0.6708 -1.8098  1.2131
 2699TIP3   OH229655   0.336   2.689   7.904 -0.1883  0.0689  0.5730
 2699TIP3    H129656   0.384   2.615   7.940 -0.0277  0.2052  0.6446
 2699TIP3    H229657   0.244   2.663   7.909 -0.0378 -0.8543 -1.0841
 2700TIP3   OH229658   3.529   3.923   0.175  0.0513 -0.3727 -0.3686
 2700TIP3    H129659   3.612   3.880   0.152  0.0885 -0.1297 -0.7021
 2700TIP3    H229660   3.515   3.986   0.105  0.5201  0.8761  0.6219
 2701TIP3   OH229661   0.747   2.172   1.506  0.4338  0.3812 -0.2496
 2701TIP3    H129662   0.667   2.191   1.554  1.0628  0.4216  0.8135
 2701TIP3    H229663   0.729   2.200   1.416 -0.3616  1.4103  0.2138
 2702TIP3   OH229664   0.874   0.434   7.153  0.1397  0.3792 -0.4088
 2702TIP3    H129665   0.800   0.462   7.099  0.7326  0.0443 -1.4168
 2702TIP3    H229666   0.937   0.398   7.091  1.3989  1.1745  0.3605
 2703TIP3   OH229667   3.259   3.449   1.289 -0.1695  0.3941  0.4898
 2703TIP3    H129668   3.170   3.440   1.322  0.2757 -0.3136  1.5414
 2703TIP3    H229669   3.306   3.373   1.324  1.3278  1.7407  1.5893
 2704TIP3   OH229670   1.554   1.013   0.361 -0.0783  0.5329 -0.3660
 2704TIP3    H129671   1.576   0.940   0.419 -1.1461 -0.0450 -0.6581
 2704TIP3    H229672   1.555   1.090   0.418  0.6507  0.2341  0.0370
 2705TIP3   OH229673   5.458   6.531   0.030 -0.1400  0.3639  0.3849
 2705TIP3    H129674   5.450   6.504   0.122  0.7915  1.6962  0.8955
 2705TIP3    H229675   5.374   6.574   0.011 -0.0530  0.7664  0.8763
 2706TIP3   OH229676   6.090   0.911   1.524  0.6295  0.4512  0.6122
 2706TIP3    H129677   6.103   0.948   1.611 -0.8115  1.2490  0.5133
 2706TIP3    H229678   6.166   0.855   1.510  0.4073 -0.4899  2.8025
 2707TIP3   OH229679   1.693   6.444   0.562  0.2603 -0.5577 -0.2970
 2707TIP3    H129680   1.650   6.365   0.594 -0.6877 -0.3885 -1.1112
 2707TIP3    H229681   1.721   6.422   0.473  1.5528 -0.5350  0.0772
 2708TIP3   OH229682   1.211   0.367   1.487 -0.0788 -0.3690  0.3190
 2708TIP3    H129683   1.260   0.395   1.564 -0.9203 -0.3807  0.8688
 2708TIP3    H229684   1.222   0.439   1.425  2.5002 -1.3142 -0.4818
 2709TIP3   OH229685   5.123   4.735   7.957  0.5279  0.3168  0.4884
 2709TIP3    H129686   5.038   4.764   7.925  0.6002  2.0164  1.6767
 2709TIP3    H229687   5.182   4.747   7.883  0.1044  1.1167  0.2641
 2710TIP3   OH229688   1.591   6.169   1.114  0.2812  0.0247  0.5020
 2710TIP3    H129689   1.500   6.142   1.118 -0.3568  2.1039  0.7426
 2710TIP3    H229690   1.604   6.223   1.191  1.5073  0.4050  0.0539
 2711TIP3   OH229691   5.889   5.299   7.973 -0.3521 -0.7019 -0.0078
 2711TIP3    H129692   5.836   5.379   7.960 -0.7116 -0.9249  0.0600
 2711TIP3    H229693   5.839   5.230   7.929  0.6934 -0.6368 -1.3775
 2712TIP3   OH229694   6.000   2.137   2.421  0.2417  0.7638 -0.3767
 2712TIP3    H129695   5.905   2.144   2.415  0.1916  0.3401 -0.0894
 2712TIP3    H229696   6.023   2.183   2.502  0.2642  0.7053 -0.3497
 2713TIP3   OH229697   1.368   2.028   2.487  0.3901 -0.0100  0.5550
 2713TIP3    H129698   1.438   1.963   2.492 -1.3152 -1.9515  0.3715
 2713TIP3    H229699   1.295   1.989   2.535 -0.4300  2.1850  1.2225
 2714TIP3   OH229700   3.331   4.373   0.386 -0.3276  0.5759 -0.1479
 2714TIP3    H129701   3.313   4.313   0.314  0.7720  0.5006 -0.3732
 2714TIP3    H229702   3.293   4.457   0.358  1.5437  0.9946 -1.6018
 2715TIP3   OH229703   5.016   6.189   3.336 -0.2313  0.0945  0.0991
 2715TIP3    H129704   4.980   6.276   3.325 -0.4448  0.2340  1.6442
 2715TIP3    H229705   4.956   6.131   3.289 -1.5155  0.5229  1.1549
 2716TIP3   OH229706   1.353   5.364   0.657  0.0644  0.2204 -0.0607
 2716TIP3    H129707   1.393   5.315   0.729  0.3365 -0.2301 -0.5206
 2716TIP3    H229708   1.410   5.441   0.646 -0.8347  1.1276  1.2348
 2717TIP3   OH229709   0.420   6.265   8.493 -0.1719 -0.1448 -0.2069
 2717TIP3    H129710   0.414   6.177   8.455 -0.8278  0.6126 -1.9709
 2717TIP3    H229711   0.405   6.252   8.586  1.1582 -2.0626 -0.1976
 2718TIP3   OH229712   3.173   0.618   8.348 -0.2422 -0.4281 -0.2035
 2718TIP3    H129713   3.078   0.624   8.334 -0.3656  0.7318  0.9345
 2718TIP3    H229714   3.193   0.525   8.336 -1.3355 -0.5354 -1.4729
 2719TIP3   OH229715   0.370   1.231   7.297  0.1062 -0.2922  0.1547
 2719TIP3    H129716   0.410   1.281   7.226 -0.5338  1.2162  0.8189
 2719TIP3    H229717   0.299   1.287   7.329 -0.7198 -1.6878  0.8521
 2720TIP3   OH229718   6.746   6.475   7.113  0.2938  0.8075  0.0287
 2720TIP3    H129719   6.805   6.536   7.158  1.5881  0.9149 -1.7079
 2720TIP3    H229720   6.768   6.390   7.151  1.3419  0.8983 -0.3377
 2721TIP3   OH229721   3.162   5.347   2.581  0.1227 -0.4822  0.4656
 2721TIP3    H129722   3.230   5.284   2.556 -0.5394 -0.9958 -0.0820
 2721TIP3    H229723   3.183   5.371   2.671  1.3906 -0.1568  0.0997
 2722TIP3   OH229724   5.824   0.735   0.910 -0.0269 -0.7466  0.0626
 2722TIP3    H129725   5.832   0.736   1.005  0.1171  0.5507  0.0532
 2722TIP3    H229726   5.746   0.683   0.892  0.4559 -1.7557  0.8379
 2723TIP3   OH229727   3.694   6.612   8.028  0.2618  0.2230  0.5834
 2723TIP3    H129728   3.644   6.657   7.960  0.2919 -1.3610 -0.5430
 2723TIP3    H229729   3.629   6.590   8.095  0.3583  2.4627  1.5205
 2724TIP3   OH229730   2.195   4.790   3.003  0.0585  0.0748 -0.4266
 2724TIP3    H129731   2.245   4.851   3.057 -0.1297 -1.4658  1.6262
 2724TIP3    H229732   2.233   4.704   3.022 -1.6651 -0.8221 -0.8034
 2725TIP3   OH229733   6.663   5.525   1.934  0.4439 -0.2650 -0.2772
 2725TIP3    H129734   6.722   5.493   2.003  0.5702  0.1711 -0.1777
 2725TIP3    H229735   6.698   5.611   1.910  0.2412 -0.2951 -0.6966
 2726TIP3   OH229736   0.842   2.728   8.592 -0.1544 -0.5478  0.1885
 2726TIP3    H129737   0.767   2.743   8.534 -0.1394  1.2563  0.5956
 2726TIP3    H229738   0.838   2.634   8.612  0.3677 -1.4971 -3.4122
 2727TIP3   OH229739   2.353   3.202   8.333 -0.0419  0.0751 -0.4222
 2727TIP3    H129740   2.384   3.178   8.421  1.7612 -2.6076 -1.6472
 2727TIP3    H229741   2.341   3.297   8.337  0.5189  0.1238  2.5443
 2728TIP3   OH229742   5.912   4.802   1.390  0.0570  0.1364  0.3310
 2728TIP3    H129743   5.903   4.759   1.475 -0.4981 -0.8262 -0.1940
 2728TIP3    H229744   5.848   4.759   1.334  1.4077 -0.2750 -0.9847
 2729TIP3   OH229745   0.267   2.293   7.268 -0.0169 -0.2154  0.7738
 2729TIP3    H129746   0.304   2.373   7.230 -1.1578 -0.7536 -1.7131
 2729TIP3    H229747   0.342   2.234   7.277  0.1829 -0.6366 -2.3968
 2730TIP3   OH229748   5.093   3.923   0.656  0.1802 -0.1264 -0.2869
 2730TIP3    H129749   5.136   4.007   0.642 -1.3893  0.7176 -0.2904
 2730TIP3    H229750   5.008   3.932   0.612 -0.5321 -1.2464  0.7975
 2731TIP3   OH229751   3.845   1.993   0.089 -1.1169  0.3497  0.0507
 2731TIP3    H129752   3.800   1.909   0.102  1.5455 -1.0122  1.2952
 2731TIP3    H229753   3.858   2.027   0.177  1.0391  0.1904 -0.1452
 2732TIP3   OH229754   0.364   3.225   8.476  0.0398 -0.0659  0.7302
 2732TIP3    H129755   0.444   3.189   8.439 -1.1654 -0.7967 -1.3890
 2732TIP3    H229756   0.308   3.149   8.491 -0.5313  0.4856  1.4716
 2733TIP3   OH229757   5.610   5.524   7.417 -0.3529  0.5538 -0.1887
 2733TIP3    H129758   5.649   5.587   7.479 -0.1765  0.8154 -0.5601
 2733TIP3    H229759   5.650   5.440   7.441 -0.8773  0.5078  0.5582
 2734TIP3   OH229760   0.337   1.930   0.636 -0.4760  0.3480  0.4336
 2734TIP3    H129761   0.275   1.999   0.612 -2.0405 -1.2076 -0.1862
 2734TIP3    H229762   0.410   1.977   0.676 -1.5062  2.3513  0.1070
 2735TIP3   OH229763   6.154   1.497   1.171 -0.1192 -0.2055 -0.4779
 2735TIP3    H129764   6.115   1.579   1.201 -2.1949 -0.7574 -1.4987
 2735TIP3    H229765   6.088   1.431   1.191 -0.6369 -0.9191 -4.0183
 2736TIP3   OH229766   6.797   1.667   1.238 -0.2975 -0.0403 -0.0715
 2736TIP3    H129767   6.741   1.657   1.161  0.0127  0.7800 -0.4164
 2736TIP3    H229768   6.756   1.613   1.305 -0.7942 -0.4472 -0.6989
 2737TIP3   OH229769   6.040   3.132   2.798  0.1644 -0.4655  0.2777
 2737TIP3    H129770   6.025   3.226   2.787 -1.4292 -0.4615  1.9798
 2737TIP3    H229771   5.954   3.092   2.788  1.1500 -2.1151 -2.8719
 2738TIP3   OH229772   4.852   2.705   0.130  0.2543  0.1750 -0.6665
 2738TIP3    H129773   4.797   2.672   0.202 -0.3568 -0.6873 -1.4997
 2738TIP3    H229774   4.879   2.626   0.083  0.9612  0.7057 -1.1560
 2739TIP3   OH229775   1.709   3.149   2.030  0.2755  0.1787  0.3019
 2739TIP3    H129776   1.736   3.059   2.014  1.0919  0.6227 -0.9228
 2739TIP3    H229777   1.649   3.143   2.105 -2.3579 -1.8294 -1.7617
 2740TIP3   OH229778   1.009   2.307   0.217 -0.1543 -0.6882  0.7111
 2740TIP3    H129779   0.929   2.270   0.254 -0.1527 -1.1607  0.2673
 2740TIP3    H229780   0.986   2.326   0.126  1.0471 -3.6537 -0.3481
 2741TIP3   OH229781   4.160   5.209   1.021  0.2862 -0.3882 -0.3230
 2741TIP3    H129782   4.245   5.181   1.054  0.0408 -0.1735  0.5141
 2741TIP3    H229783   4.123   5.131   0.981  0.4261 -0.7619  0.2604
 2742TIP3   OH229784   1.043   6.153   1.260  0.0775 -0.3451 -0.0467
 2742TIP3    H129785   0.995   6.206   1.324  0.9848 -0.0897  0.4448
 2742TIP3    H229786   1.059   6.213   1.187 -0.8811 -0.6107 -0.4851
 2743TIP3   OH229787   3.364   5.839   2.869 -0.4090  0.5766 -0.0305
 2743TIP3    H129788   3.441   5.843   2.926 -0.2974  2.8083 -0.2467
 2743TIP3    H229789   3.290   5.848   2.929 -0.4731 -0.4837  0.0676
 2744TIP3   OH229790   6.573   4.264   1.453  0.4266  0.1166 -0.2123
 2744TIP3    H129791   6.622   4.317   1.515  0.2322  1.7407 -1.3949
 2744TIP3    H229792   6.564   4.319   1.375 -1.8141 -0.7374 -0.6547
 2745TIP3   OH229793   5.334   5.503   0.729 -0.3377  0.2164  0.1108
 2745TIP3    H129794   5.296   5.417   0.712  2.5619 -1.1624 -0.0041
 2745TIP3    H229795   5.317   5.519   0.822  0.6214 -1.3766  0.6099
 2746TIP3   OH229796   4.946   5.029   2.187  0.5100  0.3712 -0.2135
 2746TIP3    H129797   4.920   4.973   2.261 -0.5845  1.6958  0.4498
 2746TIP3    H229798   5.040   5.044   2.201  0.7556 -0.9941 -0.2240
 2747TIP3   OH229799   3.244   0.539   2.781  0.1318  0.1727 -0.1016
 2747TIP3    H129800   3.247   0.633   2.800 -0.2413  0.0092  0.7990
 2747TIP3    H229801   3.306   0.500   2.841 -0.3642 -0.2523  0.1440
 2748TIP3   OH229802   5.500   2.297   8.342 -0.5297  0.2583 -0.1514
 2748TIP3    H129803   5.455   2.346   8.411 -1.0650 -0.1905 -0.1726
 2748TIP3    H229804   5.430   2.248   8.298 -0.5936  2.3315 -2.5608
 2749TIP3   OH229805   5.538   1.563   7.398  0.1482  0.1654  0.6006
 2749TIP3    H129806   5.480   1.633   7.369 -0.9269 -1.2820 -0.9402
 2749TIP3    H229807   5.527   1.494   7.332  3.5586 -0.2384  0.2631
 2750TIP3   OH229808   1.887   6.303   7.753 -1.1120  0.0189 -0.4727
 2750TIP3    H129809   1.916   6.215   7.729 -1.3796  0.0042 -0.7546
 2750TIP3    H229810   1.914   6.358   7.678 -1.0206  0.1610 -0.3361
 2751TIP3   OH229811   2.569   0.709   7.529 -0.5578  0.4558 -0.3276
 2751TIP3    H129812   2.487   0.704   7.579 -0.9626 -1.1115 -1.0777
 2751TIP3    H229813   2.600   0.798   7.543 -1.0521  0.3385  2.0520
 2752TIP3   OH229814   5.780   4.419   7.684  0.2533 -0.1265  0.5570
 2752TIP3    H129815   5.723   4.402   7.609  0.6456 -0.1863  0.2656
 2752TIP3    H229816   5.859   4.368   7.665  0.3540 -0.1493  1.0173
 2753TIP3   OH229817   4.169   4.196   7.091  0.4582 -0.8888  0.3356
 2753TIP3    H129818   4.099   4.235   7.143  1.1290  0.2918  0.3788
 2753TIP3    H229819   4.214   4.137   7.152 -0.4170 -1.5698  0.3351
 2754TIP3   OH229820   3.181   2.669   1.801 -0.3221  0.3097 -0.4426
 2754TIP3    H129821   3.110   2.613   1.832  0.4221 -0.4457 -0.0438
 2754TIP3    H229822   3.152   2.701   1.715 -1.8668  1.3906  0.4286
 2755TIP3   OH229823   4.351   2.455   3.509  0.0403 -0.2080  0.0867
 2755TIP3    H129824   4.361   2.525   3.445  0.9856 -0.0161  0.4248
 2755TIP3    H229825   4.377   2.375   3.462 -2.0097 -0.5149 -0.6036
 2756TIP3   OH229826   0.852   1.065   8.104 -0.5822  0.0004 -0.3565
 2756TIP3    H129827   0.814   1.016   8.030 -1.3956 -2.0171  1.2744
 2756TIP3    H229828   0.778   1.113   8.141 -0.4340  0.1013 -0.1917
 2757TIP3   OH229829   2.152   5.832   8.251 -0.0740  0.5925 -0.3311
 2757TIP3    H129830   2.122   5.741   8.255  1.5988  0.0606  2.2370
 2757TIP3    H229831   2.074   5.881   8.225 -0.8378 -1.5835 -2.5975
 2758TIP3   OH229832   1.373   0.289   8.691  0.0645  0.8341  0.2402
 2758TIP3    H129833   1.325   0.356   8.740 -2.7347 -1.0940  0.3376
 2758TIP3    H229834   1.370   0.319   8.600  0.5730  1.7624  0.5116
 2759TIP3   OH229835   2.913   2.352   8.467 -0.5385  0.8709  0.0785
 2759TIP3    H129836   2.969   2.425   8.491  0.7597 -0.1282  0.1837
 2759TIP3    H229837   2.875   2.323   8.551 -1.4838  1.7357 -0.0315
 2760TIP3   OH229838   0.120   2.465   7.733 -0.2201  0.2889  0.2313
 2760TIP3    H129839   0.075   2.420   7.661 -0.5231  0.4867  0.2964
 2760TIP3    H229840   0.209   2.477   7.702 -0.5804  1.2084 -0.4903
 2761TIP3   OH229841   4.143   1.061   7.245 -0.4891 -0.3998 -0.1650
 2761TIP3    H129842   4.133   0.969   7.217 -0.9771 -0.4357  0.1053
 2761TIP3    H229843   4.234   1.069   7.271 -0.9785 -1.4563  2.0654
 2762TIP3   OH229844   0.959   3.432   0.093 -0.8141  0.2627  1.3136
 2762TIP3    H129845   0.903   3.355   0.107  0.1339 -1.1323 -1.6821
 2762TIP3    H229846   0.977   3.465   0.181 -3.7922 -1.0428  2.5524
 2763TIP3   OH229847   6.684   0.912   1.634  0.0831  0.2647  0.1963
 2763TIP3    H129848   6.674   0.878   1.545 -0.9426 -0.1357  0.4407
 2763TIP3    H229849   6.606   0.880   1.680 -0.0304  1.4972  0.9090
 2764TIP3   OH229850   3.944   2.918   3.139 -0.0861  0.3766 -0.6195
 2764TIP3    H129851   3.853   2.898   3.117 -0.4349  0.7439  0.3998
 2764TIP3    H229852   3.984   2.834   3.158 -0.6005  0.3174  0.2639
 2765TIP3   OH229853   3.879   4.013   2.583 -0.2540 -0.1680  0.4317
 2765TIP3    H129854   3.884   3.965   2.666  0.0908 -0.3180  0.3248
 2765TIP3    H229855   3.969   4.039   2.565 -0.4777  0.7454  0.6189
 2766TIP3   OH229856   0.738   2.693   7.651 -0.0133 -0.0705  0.0240
 2766TIP3    H129857   0.780   2.645   7.722  1.3343  0.6325 -0.2635
 2766TIP3    H229858   0.672   2.747   7.694  2.1849  1.9683  1.1274
 2767TIP3   OH229859   1.002   3.123   2.697  0.0105 -0.6367  0.2473
 2767TIP3    H129860   1.022   3.029   2.706 -0.7276 -0.7718  0.5360
 2767TIP3    H229861   0.930   3.126   2.634 -1.6361 -0.4727  2.0498
 2768TIP3   OH229862   1.717   5.716   8.336  0.1229  0.0827 -0.1739
 2768TIP3    H129863   1.650   5.784   8.327  0.4688  0.6442  1.1116
 2768TIP3    H229864   1.775   5.729   8.261 -0.3186  0.6317 -0.4303
 2769TIP3   OH229865   1.476   4.410   0.069  0.1207 -0.0482  0.0137
 2769TIP3    H129866   1.400   4.448   0.113  0.9231  1.5948  0.0539
 2769TIP3    H229867   1.538   4.482   0.062  0.7485 -0.7306 -2.1860
 2770TIP3   OH229868   1.334   1.979   0.651 -0.4127  0.4732 -0.6265
 2770TIP3    H129869   1.289   2.064   0.655 -0.5058  0.4187 -0.4973
 2770TIP3    H229870   1.275   1.923   0.601 -1.2891 -0.0772  0.9615
 2771TIP3   OH229871   3.879   6.685   2.945  0.7633  0.6070 -0.3735
 2771TIP3    H129872   3.945   6.692   3.014 -0.5614  0.1639  0.9845
 2771TIP3    H229873   3.863   6.775   2.917  1.5443  0.7617 -0.3553
 2772TIP3   OH229874   3.447   4.341   2.708 -0.3277 -0.3148 -0.0408
 2772TIP3    H129875   3.385   4.293   2.762 -0.0369 -1.6862 -0.8712
 2772TIP3    H229876   3.530   4.293   2.717  0.3009  0.7494  0.0690
 2773TIP3   OH229877   4.849   4.153   8.132  0.4948 -0.1735  0.2260
 2773TIP3    H129878   4.925   4.153   8.190  0.8504 -1.9957 -0.1579
 2773TIP3    H229879   4.781   4.106   8.181 -0.4520  1.4955  0.5912
 2774TIP3   OH229880   1.233   4.655   2.625  0.3697  0.3717 -0.6177
 2774TIP3    H129881   1.228   4.612   2.711 -3.3434  3.3641  0.9403
 2774TIP3    H229882   1.166   4.610   2.573 -0.2251  1.1739 -0.5528
 2775TIP3   OH229883   3.861   3.760   8.690  0.1091 -0.5139  0.2280
 2775TIP3    H129884   3.941   3.717   8.720  0.9703  1.9296  1.7722
 2775TIP3    H229885   3.791   3.700   8.715  1.3975 -2.3715 -0.4933
 2776TIP3   OH229886   2.220   5.731   7.593  0.5234  0.4290  0.4232
 2776TIP3    H129887   2.283   5.699   7.528  0.6457  0.0632  0.7162
 2776TIP3    H229888   2.144   5.673   7.583  0.1800  0.9422 -0.0091
 2777TIP3   OH229889   3.557   1.323   8.369 -0.0256  0.0910 -0.0419
 2777TIP3    H129890   3.605   1.286   8.295 -0.3938 -0.0533 -0.2156
 2777TIP3    H229891   3.616   1.312   8.444 -0.2519 -1.1913 -0.0193
 2778TIP3   OH229892   2.518   2.649   2.461 -0.1070 -0.5558  0.2430
 2778TIP3    H129893   2.557   2.617   2.379  0.2598  2.7524 -1.0194
 2778TIP3    H229894   2.489   2.737   2.440 -1.8191 -0.3000  3.2018
 2779TIP3   OH229895   1.329   3.536   0.049 -0.2553 -0.0552 -0.0857
 2779TIP3    H129896   1.284   3.521  -0.035 -0.2884  1.4358 -0.3695
 2779TIP3    H229897   1.258   3.552   0.111 -0.1962  0.4713 -0.1433
 2780TIP3   OH229898   6.783   4.208   0.803  0.4056 -0.7028 -0.3869
 2780TIP3    H129899   6.694   4.176   0.790  0.2413  0.4090 -2.3669
 2780TIP3    H229900   6.834   4.166   0.734  1.3572 -0.9657  0.4384
 2781TIP3   OH229901   1.447   2.806   7.679 -0.2894  0.4063 -0.0991
 2781TIP3    H129902   1.524   2.847   7.640  1.2241 -1.0339  1.1956
 2781TIP3    H229903   1.414   2.747   7.611  1.8305 -1.4790  0.3667
 2782TIP3   OH229904   0.986   5.552   1.966  0.5016 -0.6811  0.5706
 2782TIP3    H129905   1.064   5.585   1.922 -1.5299 -0.6965 -3.5785
 2782TIP3    H229906   0.993   5.457   1.958 -0.8345 -0.6493 -1.9191
 2783TIP3   OH229907   6.120   3.178   8.356 -0.5321 -0.2781 -0.4519
 2783TIP3    H129908   6.099   3.089   8.384  0.1449 -0.1644  0.4404
 2783TIP3    H229909   6.065   3.235   8.410 -0.6660 -0.1367 -0.7349
 2784TIP3   OH229910   0.955   3.609   8.387  0.5691  0.3183 -0.6772
 2784TIP3    H129911   0.861   3.595   8.374  0.0373  1.4175  1.5493
 2784TIP3    H229912   0.974   3.689   8.339 -0.2354  1.5099  0.9055
 2785TIP3   OH229913   2.156   2.533   7.794  0.1146  0.1150  0.3513
 2785TIP3    H129914   2.129   2.604   7.852  2.0038  0.3567  0.9875
 2785TIP3    H229915   2.093   2.462   7.812 -0.4293  0.8241  1.3471
 2786TIP3   OH229916   6.768   2.350   7.570 -0.1879  0.0041  0.6909
 2786TIP3    H129917   6.690   2.329   7.519 -0.8551 -0.2861  1.8044
 2786TIP3    H229918   6.835   2.290   7.538  0.4694  2.1495 -2.3114
 2787TIP3   OH229919   0.177   0.015   8.379  0.0946  0.2868 -0.0735
 2787TIP3    H129920   0.151   0.107   8.384 -0.1751  0.2175 -0.1410
 2787TIP3    H229921   0.121  -0.029   8.443  0.9802  0.3300  0.7473
 2788TIP3   OH229922   4.899   2.205   1.905  0.7400 -0.5963 -0.0204
 2788TIP3    H129923   4.897   2.278   1.843 -0.4877 -0.6754 -0.0968
 2788TIP3    H229924   4.987   2.167   1.894  0.3898 -0.9578 -2.1341
 2789TIP3   OH229925   5.988   1.920   8.551  0.2284  0.4055 -0.4970
 2789TIP3    H129926   5.994   1.835   8.508  1.6900  1.2350 -2.0842
 2789TIP3    H229927   6.001   1.983   8.480 -3.7749  2.1256  0.0374
 2790TIP3   OH229928   4.880   1.269   2.781 -0.6519 -0.5897  0.2883
 2790TIP3    H129929   4.966   1.311   2.787  0.1605 -1.5636 -2.8229
 2790TIP3    H229930   4.899   1.175   2.783 -1.7163 -0.8145  0.2654
 2791TIP3   OH229931   3.267   3.522   1.772 -0.3990 -0.0260 -0.5753
 2791TIP3    H129932   3.347   3.512   1.721  1.7087  3.1929  1.7610
 2791TIP3    H229933   3.221   3.595   1.731 -0.9452 -0.2770 -0.4280
 2792TIP3   OH229934   0.776   4.756   8.518 -1.0648 -0.4352  0.5531
 2792TIP3    H129935   0.728   4.746   8.436  0.0674  2.0253 -0.5472
 2792TIP3    H229936   0.867   4.737   8.494 -0.4243  2.1042  0.6632
 2793TIP3   OH229937   0.275   4.564   2.184 -0.2845  0.0052  0.0116
 2793TIP3    H129938   0.226   4.558   2.102  0.4654 -1.0331 -0.3853
 2793TIP3    H229939   0.266   4.478   2.224 -1.1600  0.6790  1.3554
 2794TIP3   OH229940   0.034   6.243   0.867  0.0620  0.2601  0.6091
 2794TIP3    H129941   0.039   6.338   0.863  0.0155  0.2243 -1.8047
 2794TIP3    H229942   0.073   6.213   0.784 -0.8849 -1.7608  0.8217
 2795TIP3   OH229943   5.627   5.670   0.967  0.8200 -0.4311 -0.5545
 2795TIP3    H129944   5.630   5.624   0.883 -0.1636  1.1016 -1.4829
 2795TIP3    H229945   5.645   5.761   0.944 -0.7955  0.2377  0.6988
 2796TIP3   OH229946   1.652   4.149   0.559 -0.2064 -0.0609 -0.3314
 2796TIP3    H129947   1.588   4.102   0.506  0.6728 -1.3129 -0.3069
 2796TIP3    H229948   1.730   4.094   0.558  1.1253  1.7290 -0.9167
 2797TIP3   OH229949   4.216   1.821   7.782 -0.4566 -0.0083  0.4656
 2797TIP3    H129950   4.234   1.912   7.805 -1.1763 -0.3216  2.3852
 2797TIP3    H229951   4.135   1.800   7.827 -0.6820 -1.4163 -0.5270
 2798TIP3   OH229952   0.907   4.218   2.199  0.0147  0.0866 -0.0779
 2798TIP3    H129953   0.868   4.237   2.285  0.4958  2.3573 -0.2984
 2798TIP3    H229954   0.862   4.277   2.139  0.3499 -0.8060 -1.2392
 2799TIP3   OH229955   4.379   1.384   2.448  0.0106  0.1369  0.1836
 2799TIP3    H129956   4.459   1.386   2.395  0.5521  0.3800  0.9942
 2799TIP3    H229957   4.311   1.418   2.390  0.6169  0.5001 -0.3278
 2800TIP3   OH229958   4.981   4.226   1.840  0.2252 -0.0005  0.4566
 2800TIP3    H129959   5.013   4.316   1.832  0.2759 -0.0997 -0.7009
 2800TIP3    H229960   5.051   4.173   1.803 -0.2361 -0.4247  0.1855
 2801TIP3   OH229961   3.661   6.653   1.082  0.3741  0.0434 -0.2529
 2801TIP3    H129962   3.744   6.673   1.041 -0.0807  0.8029 -0.8277
 2801TIP3    H229963   3.625   6.739   1.106  0.3774 -0.3404  1.2484
 2802TIP3   OH229964   6.452   0.675   2.019  0.1747  0.4858  0.2621
 2802TIP3    H129965   6.402   0.594   2.027  0.2848  0.3479 -0.3787
 2802TIP3    H229966   6.544   0.647   2.029  0.3389  0.2707 -1.5198
 2803TIP3   OH229967   6.661   5.516   8.604  0.2340  0.2220  0.4189
 2803TIP3    H129968   6.701   5.469   8.677 -1.7855 -0.0815  1.4140
 2803TIP3    H229969   6.688   5.607   8.616 -0.2336  0.2137  1.7002
 2804TIP3   OH229970   6.411   4.166   1.935  0.3672  0.4475 -0.1153
 2804TIP3    H129971   6.394   4.143   1.844 -0.7826  0.7112  0.0104
 2804TIP3    H229972   6.484   4.111   1.961 -1.5025 -2.2764 -0.1635
 2805TIP3   OH229973   1.301   6.565   2.053  0.1275 -0.0608 -0.4651
 2805TIP3    H129974   1.286   6.645   2.002  0.8067  0.6487  0.4081
 2805TIP3    H229975   1.259   6.583   2.137 -0.1282 -0.8218 -0.4269
 2806TIP3   OH229976   2.382   2.531   8.521 -0.4369  0.0938 -0.7447
 2806TIP3    H129977   2.325   2.530   8.444 -1.0210 -1.5719 -0.3486
 2806TIP3    H229978   2.463   2.571   8.491 -1.2768  1.1474 -1.7298
 2807TIP3   OH229979   2.975   3.967   2.601  0.0641 -0.0222  0.1079
 2807TIP3    H129980   3.033   3.951   2.676 -0.5131  0.8803  0.7728
 2807TIP3    H229981   2.890   3.988   2.641 -0.2719  0.4048 -0.8033
 2808TIP3   OH229982   1.455   3.292   1.618  0.4730  0.2506  0.1445
 2808TIP3    H129983   1.488   3.284   1.708  3.3423 -0.7988 -0.8817
 2808TIP3    H229984   1.525   3.255   1.564 -0.7333  1.7370 -2.6085
 2809TIP3   OH229985   4.877   4.750   7.860 -0.3770 -0.3019  0.4335
 2809TIP3    H129986   4.837   4.767   7.774  2.9270 -1.7658 -1.5809
 2809TIP3    H229987   4.848   4.662   7.882  1.8322 -1.5522 -1.2493
 2810TIP3   OH229988   2.491   2.254   7.725 -0.0735  0.1402 -0.1608
 2810TIP3    H129989   2.546   2.319   7.682 -1.2901  1.6900  0.5338
 2810TIP3    H229990   2.422   2.304   7.767 -1.3479 -1.6426  0.0195
 2811TIP3   OH229991   0.921   4.423   1.925  0.0123 -1.1262 -0.5747
 2811TIP3    H129992   0.989   4.445   1.861 -0.0027 -0.5680 -0.4086
 2811TIP3    H229993   0.869   4.355   1.884  1.4333 -2.4814 -0.2137
 2812TIP3   OH229994   2.897   4.747   2.002 -0.5693  0.5980 -0.0324
 2812TIP3    H129995   2.876   4.689   2.076  0.9840  0.9084  0.6859
 2812TIP3    H229996   2.901   4.834   2.041 -0.2006  0.8298 -0.5865
 2813TIP3   OH229997   4.635   2.035   1.594 -0.0935 -0.4699 -0.3070
 2813TIP3    H129998   4.668   1.984   1.520  2.1866  0.7849 -0.2357
 2813TIP3    H229999   4.608   2.119   1.555 -1.9097 -0.9256 -0.1285
 2814TIP3   OH230000   5.489   2.192   3.252  0.1925  0.3695  0.0092
 2814TIP3    H130001   5.418   2.156   3.304  0.8966 -0.2118  0.5934
 2814TIP3    H230002   5.465   2.284   3.238 -0.4109  0.3141  0.6437
 2815TIP3   OH230003   0.834   2.073   1.143  0.3634  0.4279  0.6918
 2815TIP3    H130004   0.765   2.021   1.104  0.3024  0.8709  0.1974
 2815TIP3    H230005   0.788   2.142   1.192  0.4098  2.0010 -1.3425
 2816TIP3   OH230006   1.042   5.321   0.617 -0.3026  0.6187 -0.3072
 2816TIP3    H130007   1.068   5.279   0.535 -0.9173  0.4695 -0.4278
 2816TIP3    H230008   1.114   5.301   0.677 -1.0408 -1.5275 -0.0518
 2817TIP3   OH230009   0.390   3.977   0.250  0.1058 -0.3718 -0.0405
 2817TIP3    H130010   0.471   3.929   0.269  0.0570 -0.1659  0.7275
 2817TIP3    H230011   0.384   3.977   0.154  2.3448  1.7867 -0.2801
 2818TIP3   OH230012   5.905   4.700   1.649 -0.2092 -0.0053 -0.4825
 2818TIP3    H130013   5.962   4.764   1.693 -0.5166  0.1989 -0.3768
 2818TIP3    H230014   5.865   4.650   1.720 -1.6207  1.1032 -0.4391
 2819TIP3   OH230015   0.024   6.517   0.887 -0.2573  0.2075 -0.4522
 2819TIP3    H130016   0.081   6.590   0.862  0.0134 -0.1407 -0.8814
 2819TIP3    H230017  -0.064   6.545   0.861 -0.0353  0.0304 -1.4242
 2820TIP3   OH230018   1.173   6.820   2.729  0.2645  0.3858 -0.0611
 2820TIP3    H130019   1.251   6.852   2.773 -0.0944  1.0814  0.0867
 2820TIP3    H230020   1.112   6.798   2.800  0.2385  0.0716 -0.1791
 2821TIP3   OH230021   1.802   0.715   0.308  0.3526  0.6484  0.8308
 2821TIP3    H130022   1.758   0.766   0.239  0.0859 -0.2378  0.3292
 2821TIP3    H230023   1.782   0.624   0.286 -0.5931  0.3787  2.6694
 2822TIP3   OH230024   3.114   5.530   8.451 -0.3705 -0.5385 -0.3058
 2822TIP3    H130025   3.155   5.510   8.535 -0.9995 -0.7665 -0.0436
 2822TIP3    H230026   3.109   5.625   8.449 -1.1427 -0.5540  0.3161
 2823TIP3   OH230027   5.206   4.663   1.159 -0.2398 -0.1804 -0.2516
 2823TIP3    H130028   5.291   4.702   1.179 -0.5497  0.5359 -0.2921
 2823TIP3    H230029   5.164   4.727   1.101 -0.5657 -0.8087 -0.7295
 2824TIP3   OH230030   5.947   0.351   8.706 -0.1690  0.7927  0.1654
 2824TIP3    H130031   5.857   0.325   8.689  0.3539 -0.7873 -0.3675
 2824TIP3    H230032   5.958   0.343   8.800 -0.5558  0.9267  0.2233
 2825TIP3   OH230033   5.918   2.933   7.917 -0.2100  0.1903 -0.8759
 2825TIP3    H130034   5.897   2.845   7.948  0.2999  0.4708  0.3390
 2825TIP3    H230035   5.994   2.959   7.969  0.7334  0.7022 -2.4249
 2826TIP3   OH230036   6.025   2.031   7.626  0.0456 -0.4473  0.9043
 2826TIP3    H130037   5.992   1.975   7.696 -0.3909 -3.0194 -1.1989
 2826TIP3    H230038   5.969   2.011   7.551  2.6851 -0.5469 -1.1917
 2827TIP3   OH230039   4.498   1.488   8.011 -0.0467  0.1222 -0.3155
 2827TIP3    H130040   4.475   1.524   7.926  0.3112  3.3145  0.8121
 2827TIP3    H230041   4.583   1.526   8.032 -0.7093  0.5083  2.0089
 2828TIP3   OH230042   4.453   4.662   1.303  0.7064  0.2261  0.0013
 2828TIP3    H130043   4.538   4.679   1.263  1.2275  1.9150  1.6678
 2828TIP3    H230044   4.407   4.606   1.240  3.1117 -0.9424 -0.8342
 2829TIP3   OH230045   5.903   1.318   1.067 -0.3670  0.8594 -0.6374
 2829TIP3    H130046   5.875   1.260   0.996 -0.3044  0.7981 -0.6122
 2829TIP3    H230047   5.957   1.384   1.024  1.2091 -0.2221 -0.4090
 2830TIP3   OH230048   5.611   5.953   3.130 -0.1609  0.1160  0.0117
 2830TIP3    H130049   5.701   5.927   3.109 -0.6231 -0.7353 -0.9865
 2830TIP3    H230050   5.596   6.031   3.076  0.0494  0.4326  0.3937
 2831TIP3   OH230051   5.610   2.453   1.977  0.3168  0.2293  0.7640
 2831TIP3    H130052   5.633   2.544   1.960 -0.7520  0.0923 -1.8542
 2831TIP3    H230053   5.692   2.405   1.962  0.6308  0.6251  1.1593
 2832TIP3   OH230054   5.535   2.876   0.833  0.1342 -0.2053  0.2571
 2832TIP3    H130055   5.470   2.862   0.902  0.4125 -0.5320  0.4529
 2832TIP3    H230056   5.517   2.808   0.768 -0.6052  0.5522 -0.3643
 2833TIP3   OH230057   5.806   1.616   1.768  0.1058  0.4402  0.4799
 2833TIP3    H130058   5.735   1.665   1.808  0.8665  1.3615  0.7310
 2833TIP3    H230059   5.845   1.566   1.840  1.1520  1.7065  0.8188
 2834TIP3   OH230060   0.087   4.674   8.714  0.3305  0.1727 -0.1517
 2834TIP3    H130061   0.099   4.580   8.700  0.4339  0.2365 -0.4923
 2834TIP3    H230062  -0.007   4.683   8.735  0.5759 -0.1680  1.2455
 2835TIP3   OH230063   2.967   6.544   1.813  0.3671 -0.2976 -0.4215
 2835TIP3    H130064   3.005   6.468   1.857 -0.7447 -1.2562 -1.0699
 2835TIP3    H230065   2.900   6.576   1.873 -1.0182 -1.4901 -1.2829
 2836TIP3   OH230066   1.324   6.260   7.703 -0.1019 -0.3477  0.8869
 2836TIP3    H130067   1.281   6.320   7.641 -1.8647 -1.8329  0.5808
 2836TIP3    H230068   1.415   6.290   7.706 -0.3913  0.9236 -0.9777
 2837TIP3   OH230069   4.349   1.955   0.587 -0.3495 -0.3241 -0.3210
 2837TIP3    H130070   4.308   1.964   0.673 -1.4633 -5.3404 -0.0247
 2837TIP3    H230071   4.431   1.910   0.604 -0.1249 -0.5259 -1.7999
 2838TIP3   OH230072   5.930   2.519   8.715  0.4187  0.3555  0.2802
 2838TIP3    H130073   5.905   2.587   8.778 -0.8530  0.0701  0.1154
 2838TIP3    H230074   5.873   2.445   8.736  0.9796 -0.2441 -0.2867
 2839TIP3   OH230075   1.024   0.789   6.844  0.0184 -0.1695 -0.6104
 2839TIP3    H130076   0.969   0.830   6.911 -0.7923 -1.1927 -0.6320
 2839TIP3    H230077   1.024   0.852   6.772 -0.5940  0.1255 -0.3582
 2840TIP3   OH230078   1.647   4.519   0.320 -0.1740 -0.0642 -0.0276
 2840TIP3    H130079   1.613   4.560   0.240 -1.6640 -1.4247 -0.1251
 2840TIP3    H230080   1.718   4.462   0.290 -0.0261  0.2289 -0.2415
 2841TIP3   OH230081   5.649   4.052   8.384  0.1274  0.3833  0.3318
 2841TIP3    H130082   5.619   4.031   8.473  0.2444  1.9526  0.7793
 2841TIP3    H230083   5.743   4.037   8.386  0.2083  0.9082  0.6386
 2842TIP3   OH230084   2.023   2.628   1.252 -0.8629  0.1995  0.6881
 2842TIP3    H130085   2.038   2.552   1.196  0.6875  1.1944 -0.3273
 2842TIP3    H230086   1.928   2.639   1.253 -1.0811 -1.4144  0.4337
 2843TIP3   OH230087   2.962   6.801   7.916 -0.4633  0.2535 -0.0026
 2843TIP3    H130088   2.873   6.808   7.882 -0.3073  1.1401 -0.2658
 2843TIP3    H230089   2.952   6.800   8.011 -0.8659 -1.6388 -0.0359
 2844TIP3   OH230090   6.646   6.654   0.179  0.0969 -0.3688 -0.6531
 2844TIP3    H130091   6.594   6.734   0.178  2.0709  0.9947 -1.5804
 2844TIP3    H230092   6.602   6.597   0.241 -1.7901  1.1528 -0.5137
 2845TIP3   OH230093   4.623   0.269   8.655  0.0069 -0.7162 -0.5085
 2845TIP3    H130094   4.530   0.289   8.661 -0.3588 -2.5525  0.4805
 2845TIP3    H230095   4.666   0.355   8.657 -1.6691  0.2285 -2.1307
 2846TIP3   OH230096   4.210   6.830   7.898  0.5935 -0.0637 -0.3550
 2846TIP3    H130097   4.279   6.882   7.939  0.8506 -0.3298 -0.4468
 2846TIP3    H230098   4.139   6.829   7.962  0.1051  1.4127 -0.8396
 2847TIP3   OH230099   5.846   0.764   1.180 -0.7544  0.3107 -0.7092
 2847TIP3    H130100   5.857   0.692   1.241  2.8012 -0.3962 -1.9592
 2847TIP3    H230101   5.886   0.839   1.223  0.3773  0.1823 -1.4984
 2848TIP3   OH230102   5.432   6.698   0.719  0.2490  0.2313  0.0479
 2848TIP3    H130103   5.343   6.703   0.755  1.1259 -0.9806  2.6163
 2848TIP3    H230104   5.450   6.787   0.689 -1.4773  0.7280  0.3728
 2849TIP3   OH230105   4.203   6.206   1.588  0.3077 -0.0132 -0.4344
 2849TIP3    H130106   4.176   6.213   1.680  0.5566  0.4526 -0.3928
 2849TIP3    H230107   4.201   6.112   1.570 -1.0378 -0.0209 -0.3436
 2850TIP3   OH230108   4.047   2.951   1.131 -0.0347  0.6756  1.0057
 2850TIP3    H130109   3.983   2.881   1.129  0.1463  0.4905  1.7493
 2850TIP3    H230110   3.995   3.031   1.137 -0.1977  0.5324  1.4909
 2851TIP3   OH230111   1.335   0.479   0.178 -0.6139  0.1331 -0.0603
 2851TIP3    H130112   1.285   0.559   0.164 -0.5216 -0.0115 -1.2793
 2851TIP3    H230113   1.302   0.445   0.261 -1.6431  0.7071 -0.2144
 2852TIP3   OH230114   2.395   6.092   2.643 -0.0102  0.3816 -0.0103
 2852TIP3    H130115   2.317   6.071   2.693 -1.8588 -0.7189 -3.0639
 2852TIP3    H230116   2.408   6.185   2.656 -0.1297  0.0961  2.7027
 2853TIP3   OH230117   2.685   5.127   2.385 -0.5569 -0.1233 -0.0010
 2853TIP3    H130118   2.737   5.048   2.370 -2.5187 -1.5198  0.3382
 2853TIP3    H230119   2.737   5.177   2.449  1.2951 -0.4970 -1.1201
 2854TIP3   OH230120   5.736   2.691   7.997 -0.8146  0.1848 -0.4555
 2854TIP3    H130121   5.743   2.606   8.041  1.0432  0.0444 -0.8956
 2854TIP3    H230122   5.779   2.752   8.057  2.1244 -0.0796 -2.0797
 2855TIP3   OH230123   2.652   6.625   7.495  0.6578  0.0495 -0.1955
 2855TIP3    H130124   2.674   6.534   7.474  0.8464  0.2058 -0.6783
 2855TIP3    H230125   2.582   6.648   7.434  2.9179  1.3127 -2.4718
 2856TIP3   OH230126   3.196   2.230   0.730 -0.1624  0.7732 -0.1660
 2856TIP3    H130127   3.131   2.274   0.786 -0.3359 -0.4623  0.6258
 2856TIP3    H230128   3.168   2.252   0.641 -2.0240 -0.1612  0.1281
 2857TIP3   OH230129   3.663   3.487   7.949  0.4164  0.7211  0.5531
 2857TIP3    H130130   3.656   3.550   8.020  0.1280  0.2951  0.9024
 2857TIP3    H230131   3.651   3.402   7.990 -0.4650  0.5105 -0.1144
 2858TIP3   OH230132   0.831   4.322   2.461  0.3740 -0.5738  0.8196
 2858TIP3    H130133   0.870   4.298   2.545  0.7518  1.2563  1.2116
 2858TIP3    H230134   0.835   4.418   2.459  1.7956 -0.5856 -1.9534
 2859TIP3   OH230135   3.119   2.159   1.971 -0.1286  0.1637 -0.1279
 2859TIP3    H130136   3.039   2.171   2.023 -0.2047 -0.0794 -0.1860
 2859TIP3    H230137   3.190   2.163   2.034 -0.2628 -0.8386  0.1043
 2860TIP3   OH230138   3.966   6.358   8.693 -0.0612 -0.4387 -0.3147
 2860TIP3    H130139   4.004   6.433   8.739 -0.3387  0.1455 -1.0181
 2860TIP3    H230140   3.957   6.291   8.761 -0.8911  0.5550  0.6031
 2861TIP3   OH230141   6.188   0.998   1.767 -0.0198 -0.1318  0.2935
 2861TIP3    H130142   6.147   1.080   1.793  0.0840 -0.3564  1.2073
 2861TIP3    H230143   6.213   0.957   1.850  1.0737 -0.4912 -0.2017
 2862TIP3   OH230144   1.064   6.315   2.076  0.2754 -0.1750  0.1852
 2862TIP3    H130145   1.000   6.255   2.038  0.2720  0.6153 -1.1207
 2862TIP3    H230146   1.016   6.359   2.147 -0.5744  0.2222 -0.6082
 2863TIP3   OH230147   2.301   4.117   1.546  0.2825  0.1763 -0.2225
 2863TIP3    H130148   2.309   4.170   1.625  0.4648 -0.7054  0.3583
 2863TIP3    H230149   2.321   4.178   1.475  0.0365  0.9981  0.3966
 2864TIP3   OH230150   6.448   3.397   1.504  0.3927  0.0806  0.1223
 2864TIP3    H130151   6.532   3.352   1.494 -0.1287 -0.6115 -1.7127
 2864TIP3    H230152   6.383   3.328   1.486 -0.4666  1.2355 -1.4210
 2865TIP3   OH230153   3.518   0.198   8.274  0.0873 -0.4991 -0.3422
 2865TIP3    H130154   3.498   0.105   8.269 -0.6352 -0.2877 -2.0504
 2865TIP3    H230155   3.476   0.227   8.355 -1.6743 -1.2237 -0.9508
 2866TIP3   OH230156   3.023   2.761   0.957  0.1762 -0.2729  0.0923
 2866TIP3    H130157   2.973   2.763   0.875 -0.4115 -1.5720  0.3931
 2866TIP3    H230158   2.965   2.716   1.019  0.8961  0.0637  1.0208
 2867TIP3   OH230159   1.688   1.014   2.620  0.0522 -0.1917  0.3529
 2867TIP3    H130160   1.779   1.042   2.608 -0.4474  0.9209 -1.1250
 2867TIP3    H230161   1.687   0.923   2.593  0.1750  0.6257 -2.8465
 2868TIP3   OH230162   6.368   6.362   2.477  0.4381  0.4021 -0.0377
 2868TIP3    H130163   6.309   6.290   2.502  0.4598 -0.5207 -2.4138
 2868TIP3    H230164   6.315   6.441   2.488 -0.6599 -0.2579 -0.3880
 2869TIP3   OH230165   3.687   6.497   3.013  0.4288  0.1014  0.3160
 2869TIP3    H130166   3.678   6.430   2.946 -1.2007 -0.4294  0.9941
 2869TIP3    H230167   3.768   6.542   2.992  0.4265 -0.6399 -1.4557
 2870TIP3   OH230168   5.166   5.210   7.370  0.3433  0.5351  0.0131
 2870TIP3    H130169   5.142   5.252   7.453  2.3640  0.0059  0.9234
 2870TIP3    H230170   5.262   5.210   7.371  0.4058 -1.8495 -1.1084
 2871TIP3   OH230171   4.282   3.201   8.441 -0.5219  0.3917 -0.2932
 2871TIP3    H130172   4.323   3.115   8.432 -0.8817  0.0119  1.2636
 2871TIP3    H230173   4.315   3.252   8.368  2.9858  0.2052  0.9675
 2872TIP3   OH230174   6.131   4.435   8.605 -0.0001  0.0484 -0.4114
 2872TIP3    H130175   6.125   4.380   8.527  0.2776 -1.0862  0.3493
 2872TIP3    H230176   6.217   4.416   8.642 -1.4206 -2.1676  2.1192
 2873TIP3   OH230177   3.125   5.371   0.562  0.1892  0.0537  0.4757
 2873TIP3    H130178   3.053   5.434   0.575 -0.2395 -0.1968 -0.5470
 2873TIP3    H230179   3.186   5.418   0.505  0.6503  0.1178  1.0183
 2874TIP3   OH230180   6.034   3.874   0.058  0.1881  0.6627  0.1748
 2874TIP3    H130181   5.967   3.904   0.119  1.2167  4.1250 -0.1545
 2874TIP3    H230182   6.027   3.934  -0.016  1.5039 -0.9920 -1.3813
 2875TIP3   OH230183   4.185   4.630   7.015 -0.1218  0.4258 -0.2249
 2875TIP3    H130184   4.125   4.632   7.090  1.0047  0.9053  0.6945
 2875TIP3    H230185   4.216   4.540   7.011 -1.9919 -0.2222 -1.6422
 2876TIP3   OH230186   5.509   5.891   2.172 -0.3553 -0.0823  0.3268
 2876TIP3    H130187   5.498   5.919   2.082  0.9056  1.1169  0.5190
 2876TIP3    H230188   5.578   5.947   2.207 -1.5720  0.2732  2.3751
 2877TIP3   OH230189   6.839   1.735   6.669 -0.4273 -0.2568 -0.1296
 2877TIP3    H130190   6.777   1.683   6.618 -0.0572 -0.3261 -0.5095
 2877TIP3    H230191   6.874   1.674   6.734 -1.5175  0.0361  0.7677
 2878TIP3   OH230192   4.386   3.554   1.329 -0.1403  0.2080  0.3417
 2878TIP3    H130193   4.366   3.483   1.390 -0.6039 -0.2150 -0.2863
 2878TIP3    H230194   4.330   3.537   1.253  1.7763 -0.3970 -1.0358
 2879TIP3   OH230195   2.754   6.378   1.542 -0.0427 -0.5586  0.3356
 2879TIP3    H130196   2.661   6.372   1.522  0.0206  0.0152 -0.1942
 2879TIP3    H230197   2.758   6.403   1.634 -0.4924  1.7189 -0.2024
 2880TIP3   OH230198   3.113   1.492   1.827 -0.3814 -0.1258 -0.5340
 2880TIP3    H130199   3.109   1.565   1.890  3.7530  0.0367 -0.1772
 2880TIP3    H230200   3.146   1.418   1.879 -2.0588 -1.5874 -1.4541
 2881TIP3   OH230201   3.762   3.131   8.701 -0.5830  0.2118  0.8613
 2881TIP3    H130202   3.801   3.046   8.681 -0.4735  0.6856 -1.1565
 2881TIP3    H230203   3.837   3.189   8.715 -0.6276  0.3333  0.5982
 2882TIP3   OH230204   3.813   1.389   0.995 -0.3186 -0.6289 -0.4115
 2882TIP3    H130205   3.754   1.370   1.067  0.8272 -0.7335  0.5175
 2882TIP3    H230206   3.829   1.304   0.953 -0.9092 -0.5804 -0.7477
 2883TIP3   OH230207   6.746   5.109   7.954 -0.1399  0.0031 -0.2907
 2883TIP3    H130208   6.714   5.191   7.990 -0.6659 -0.2369 -0.1955
 2883TIP3    H230209   6.734   5.046   8.025 -1.6024 -0.5719 -1.0080
 2884TIP3   OH230210   6.483   3.602   0.710 -0.0173  0.6789 -0.3050
 2884TIP3    H130211   6.495   3.542   0.636  1.0532  1.0230 -0.4257
 2884TIP3    H230212   6.422   3.556   0.768 -0.0349 -0.0657 -0.8862
 2885TIP3   OH230213   6.132   6.263   7.477 -0.3209  0.4341 -0.3082
 2885TIP3    H130214   6.081   6.183   7.463 -1.2465  0.4108  2.4879
 2885TIP3    H230215   6.163   6.288   7.390 -0.9983 -2.2901 -1.4218
 2886TIP3   OH230216   6.308   5.762   8.540 -0.7335  0.2990  0.3413
 2886TIP3    H130217   6.238   5.744   8.477  0.6110 -2.1075 -0.6100
 2886TIP3    H230218   6.379   5.799   8.487 -0.6679  1.1557  1.0049
 2887TIP3   OH230219   3.079   3.262   1.993 -0.0835 -0.1056  0.2894
 2887TIP3    H130220   3.085   3.191   1.928  1.0457  1.4031 -1.3520
 2887TIP3    H230221   2.985   3.270   2.010 -0.4362 -0.5352 -1.2121
 2888TIP3   OH230222   6.366   0.841   1.085  0.2935  0.1879  0.0153
 2888TIP3    H130223   6.417   0.874   1.011  2.9980 -1.8571  0.8059
 2888TIP3    H230224   6.393   0.896   1.159  1.2693 -0.7541  0.3874
 2889TIP3   OH230225   5.684   5.843   8.125 -0.4186 -0.2116  0.2035
 2889TIP3    H130226   5.678   5.748   8.138 -0.3212 -0.1947  0.3733
 2889TIP3    H230227   5.615   5.879   8.181 -0.8619 -0.2164 -0.3230
 2890TIP3   OH230228   3.366   5.294   8.161  0.4192 -0.1534  0.5243
 2890TIP3    H130229   3.446   5.345   8.142 -0.8254  1.8736  0.4731
 2890TIP3    H230230   3.350   5.308   8.254  0.1085 -0.5625  0.5341
 2891TIP3   OH230231   4.621   2.349   7.800 -0.2825  0.2968  0.0578
 2891TIP3    H130232   4.664   2.411   7.858 -0.6533 -0.0334  0.7009
 2891TIP3    H230233   4.693   2.303   7.757  0.0130  0.0555  0.7918
 2892TIP3   OH230234   0.230   2.075   2.657  0.2319  0.4925  0.7056
 2892TIP3    H130235   0.259   2.161   2.687  1.4634  0.6450 -0.7866
 2892TIP3    H230236   0.162   2.094   2.592  0.6171  0.3603  0.2565
 2893TIP3   OH230237   1.875   5.238   1.811  0.1402  0.2706 -0.1722
 2893TIP3    H130238   1.946   5.227   1.873 -0.2703  2.2039  0.7149
 2893TIP3    H230239   1.799   5.262   1.864 -1.2909 -1.9171 -1.0685
 2894TIP3   OH230240   5.784   2.705   1.922 -0.1171 -0.0081  0.1151
 2894TIP3    H130241   5.872   2.667   1.916  0.3267  1.0411 -0.2368
 2894TIP3    H230242   5.739   2.676   1.842  0.0638 -0.1598  0.0686
 2895TIP3   OH230243   1.929   1.099   1.160 -0.6640 -0.4378  0.0943
 2895TIP3    H130244   1.964   1.020   1.201  0.6493  0.2261  0.3103
 2895TIP3    H230245   1.979   1.171   1.199 -0.8520  0.3873 -1.1221
 2896TIP3   OH230246   0.167   6.254   0.601  0.1345 -0.6425 -0.0203
 2896TIP3    H130247   0.210   6.312   0.538 -0.9931 -0.4957 -0.6840
 2896TIP3    H230248   0.235   6.191   0.627  1.0620  0.2741 -0.1434
 2897TIP3   OH230249   2.852   1.958   7.957 -0.3042  0.4249 -0.5223
 2897TIP3    H130250   2.931   1.987   7.912 -0.6301  0.1165 -1.3157
 2897TIP3    H230251   2.882   1.897   8.024  0.1174  0.2088 -0.9070
 2898TIP3   OH230252   5.277   6.685   1.422  0.4221 -0.3865 -0.1851
 2898TIP3    H130253   5.197   6.712   1.467  0.4770  1.0759 -0.9167
 2898TIP3    H230254   5.280   6.738   1.343  2.0376 -0.5157 -0.2522
 2899TIP3   OH230255   0.535   5.439   7.217 -0.6739 -0.3459 -0.2632
 2899TIP3    H130256   0.598   5.509   7.236  1.1393 -1.5099 -1.6352
 2899TIP3    H230257   0.522   5.444   7.122 -1.3448 -1.2083 -0.2314
 2900TIP3   OH230258   5.740   0.191   2.471 -0.6837 -0.6309  0.1251
 2900TIP3    H130259   5.664   0.239   2.438  0.1952 -0.8872 -2.4877
 2900TIP3    H230260   5.710   0.101   2.480 -1.0398 -0.4836  0.4585
 2901TIP3   OH230261   5.756   6.841   1.784  0.3542  0.0411 -0.2131
 2901TIP3    H130262   5.733   6.748   1.778  1.1853 -0.3776  2.0695
 2901TIP3    H230263   5.789   6.851   1.873 -0.2711  2.6703 -0.2223
 2902TIP3   OH230264   4.666   1.828   7.721  0.0127 -0.3168  0.0453
 2902TIP3    H130265   4.752   1.834   7.763 -0.3447 -1.6724  1.0441
 2902TIP3    H230266   4.622   1.909   7.745  0.4011 -0.3668  0.9647
 2903TIP3   OH230267   2.692   2.806   0.091  0.6429 -0.1252 -0.0716
 2903TIP3    H130268   2.756   2.804   0.162 -0.4315  2.0434  1.0668
 2903TIP3    H230269   2.725   2.743   0.026  2.8420 -0.5123  1.3288
 2904TIP3   OH230270   6.023   1.583   0.328 -0.1950 -0.4381  0.3163
 2904TIP3    H130271   6.046   1.507   0.274  0.0465  0.0553 -0.2825
 2904TIP3    H230272   5.978   1.642   0.268  1.6593  0.9138  0.1779
 2905TIP3   OH230273   3.665   2.514   1.542  0.2956  0.2020  0.1248
 2905TIP3    H130274   3.691   2.606   1.532  0.0379  0.0902 -2.3133
 2905TIP3    H230275   3.657   2.482   1.452 -3.4524 -1.1498  0.7536
 2906TIP3   OH230276   1.188   0.337   0.448  0.5078 -0.3962  0.3646
 2906TIP3    H130277   1.118   0.400   0.437  1.9503  1.1016 -0.6428
 2906TIP3    H230278   1.224   0.355   0.535  0.6644 -0.0775  0.2358
 2907TIP3   OH230279   0.262   1.138   0.619  0.9017  0.1707 -0.4549
 2907TIP3    H130280   0.303   1.052   0.627  1.3516  0.1619 -2.2987
 2907TIP3    H230281   0.305   1.178   0.543  0.2497  1.7705 -0.0184
 2908TIP3   OH230282   5.933   4.674   8.513 -0.0867  0.0952 -0.2559
 2908TIP3    H130283   6.002   4.609   8.527 -1.0145 -0.6837  0.9237
 2908TIP3    H230284   5.855   4.635   8.553 -0.8737  1.5680 -0.2789
 2909TIP3   OH230285   0.140   6.114   8.201 -0.2692  0.0288  0.1479
 2909TIP3    H130286   0.215   6.061   8.227  0.2263  0.6106 -0.0625
 2909TIP3    H230287   0.097   6.063   8.132 -0.0580 -0.3022  0.2596
 2910TIP3   OH230288   4.013   3.214   0.157 -0.0464 -0.2518  0.3941
 2910TIP3    H130289   4.045   3.186   0.072 -1.0607  0.0868 -0.1249
 2910TIP3    H230290   4.039   3.144   0.217 -0.1767 -0.9872 -0.3777
 2911TIP3   OH230291   1.659   2.908   7.515 -0.1188 -0.4570 -0.2506
 2911TIP3    H130292   1.600   2.854   7.463  0.6514 -2.4669  0.8492
 2911TIP3    H230293   1.723   2.942   7.452 -2.1301  1.4755 -1.4005
 2912TIP3   OH230294   6.524   2.814   8.400 -0.0509 -0.1894  0.2401
 2912TIP3    H130295   6.587   2.850   8.463 -0.7711  1.9473 -0.1716
 2912TIP3    H230296   6.479   2.745   8.449 -0.1987  1.0204  1.9259
 2913TIP3   OH230297   0.315   1.937   8.181  0.5462 -0.3375  0.7817
 2913TIP3    H130298   0.232   1.978   8.207 -0.5140 -1.4281 -0.7135
 2913TIP3    H230299   0.311   1.850   8.219 -1.2174 -2.1195 -3.0237
 2914TIP3   OH230300   0.246   5.598   2.426 -0.1948 -0.2438 -0.3968
 2914TIP3    H130301   0.188   5.537   2.472 -0.1823  1.4450  2.0892
 2914TIP3    H230302   0.331   5.555   2.428 -0.8161 -1.6226 -1.7957
 2915TIP3   OH230303   2.468   4.961   7.029 -0.9274 -0.4099  0.7338
 2915TIP3    H130304   2.474   5.057   7.035  2.9835 -0.2689 -1.6616
 2915TIP3    H230305   2.380   4.944   6.994 -1.5394  2.3423  0.7115
 2916TIP3   OH230306   1.418   3.692   2.111  0.0004  0.2470 -0.1511
 2916TIP3    H130307   1.478   3.669   2.182  1.4693 -0.9681 -1.6898
 2916TIP3    H230308   1.368   3.612   2.095 -1.4673  1.0004  0.5481
 2917TIP3   OH230309   6.163   1.710   0.010 -0.2284 -0.2931  0.1844
 2917TIP3    H130310   6.160   1.617   0.033 -0.3887 -0.3712 -0.1452
 2917TIP3    H230311   6.244   1.719  -0.039 -0.6396 -0.4415 -0.5421
 2918TIP3   OH230312   1.067   3.508   2.238 -0.0418  0.5041 -0.1001
 2918TIP3    H130313   1.025   3.438   2.286 -1.4970  0.8979 -0.7325
 2918TIP3    H230314   1.095   3.571   2.305  0.0476 -0.0287  0.3647
 2919TIP3   OH230315   0.786   6.474   8.305  0.1303  0.2476 -0.5548
 2919TIP3    H130316   0.793   6.428   8.221  0.2329 -1.2586  0.2551
 2919TIP3    H230317   0.707   6.440   8.345  0.9004 -0.2138  0.6348
 2920TIP3   OH230318   0.893   6.482   1.719  0.1573 -0.3775 -0.3954
 2920TIP3    H130319   0.963   6.517   1.775 -3.4580  2.5582  2.8255
 2920TIP3    H230320   0.871   6.555   1.661 -1.9400 -0.1597  0.5847
 2921TIP3   OH230321   5.948   6.089   8.375  0.1906  0.5377  0.4152
 2921TIP3    H130322   5.999   6.081   8.456  0.4475  1.2712  0.3359
 2921TIP3    H230323   5.981   6.020   8.318  2.7055  2.3505 -0.4870
 2922TIP3   OH230324   5.238   1.465   1.546 -0.3288 -0.0900 -0.9493
 2922TIP3    H130325   5.278   1.549   1.568 -0.6439 -0.2373  0.2315
 2922TIP3    H230326   5.227   1.421   1.630  0.6564 -1.7030 -1.6211
 2923TIP3   OH230327   5.995   5.112   0.355  0.0233 -0.8890  0.2874
 2923TIP3    H130328   6.017   5.199   0.387  0.8813 -1.7730  2.2764
 2923TIP3    H230329   6.076   5.079   0.316  0.5247 -1.7524  1.9445
 2924TIP3   OH230330   3.886   1.158   0.870  0.1325 -0.3029 -0.1940
 2924TIP3    H130331   3.811   1.099   0.871  0.6666 -0.9930  0.6791
 2924TIP3    H230332   3.957   1.109   0.912  0.7854  0.7038 -0.0656
 2925TIP3   OH230333   6.600   3.324   0.326  0.4066 -0.0700  0.1019
 2925TIP3    H130334   6.571   3.317   0.235  0.4437 -0.6711  0.1347
 2925TIP3    H230335   6.692   3.298   0.325  0.1677 -0.9592  0.4454
 2926TIP3   OH230336   4.952   1.924   2.395  0.0984 -0.2385  0.0129
 2926TIP3    H130337   4.911   1.912   2.310 -0.9376 -0.0668  0.4713
 2926TIP3    H230338   5.007   2.001   2.385 -1.1452  0.6668 -0.1196
 2927TIP3   OH230339   0.555   0.822   0.325  0.5701  0.1749 -0.4615
 2927TIP3    H130340   0.546   0.852   0.415 -0.4764 -1.8658  0.1577
 2927TIP3    H230341   0.583   0.731   0.332 -0.0267 -0.1872 -2.1763
 2928TIP3   OH230342   1.340   3.509   0.424  0.1526 -0.3755  0.2954
 2928TIP3    H130343   1.341   3.586   0.368  1.6639 -0.9684 -0.5339
 2928TIP3    H230344   1.387   3.535   0.503  2.8104 -1.1005 -0.9670
 2929TIP3   OH230345   4.715   6.236   0.134 -0.6440 -0.0746  0.4515
 2929TIP3    H130346   4.674   6.165   0.085 -0.4317  0.0811  0.0397
 2929TIP3    H230347   4.806   6.237   0.104 -0.6776  0.4502  0.3522
 2930TIP3   OH230348   3.623   4.278   1.857 -0.3084  0.0354  0.1744
 2930TIP3    H130349   3.655   4.191   1.835  0.5025 -0.0679  1.6984
 2930TIP3    H230350   3.562   4.299   1.786  0.2012 -1.3635 -0.7177
 2931TIP3   OH230351   2.809   4.602   2.228 -0.0973  0.3254  0.7195
 2931TIP3    H130352   2.857   4.520   2.215  1.8403  1.2095  1.7744
 2931TIP3    H230353   2.717   4.578   2.218  0.5021 -1.4672 -1.4857
 2932TIP3   OH230354   4.006   4.124   1.754 -0.2908 -0.2148 -0.2890
 2932TIP3    H130355   4.047   4.201   1.713  1.5229 -0.2736  1.2750
 2932TIP3    H230356   3.919   4.119   1.714  1.2421 -0.2619 -4.1054
 2933TIP3   OH230357   2.339   4.548   0.027  0.2696  0.2509 -0.3440
 2933TIP3    H130358   2.268   4.562  -0.036  0.9346  0.4533 -1.0632
 2933TIP3    H230359   2.417   4.541  -0.027  0.6352 -1.3712  0.3300
 2934TIP3   OH230360   6.687   2.741   0.670 -1.4048  0.3869 -0.3926
 2934TIP3    H130361   6.761   2.791   0.703 -1.5545  1.8652 -2.1297
 2934TIP3    H230362   6.681   2.665   0.728  1.4404  0.2312 -0.1858
 2935TIP3   OH230363   4.144   5.433   2.845  0.6619  0.1159  0.0819
 2935TIP3    H130364   4.202   5.448   2.771 -0.4238  0.5927 -0.7040
 2935TIP3    H230365   4.193   5.461   2.922  1.3492  0.7697 -0.5938
 2936TIP3   OH230366   4.428   4.301   0.856 -0.0866  0.2116 -0.3883
 2936TIP3    H130367   4.361   4.366   0.835  0.6513  1.3954  0.7965
 2936TIP3    H230368   4.504   4.326   0.802 -0.1449 -0.3297 -0.7320
 2937TIP3   OH230369   3.469   6.492   8.531  0.1594 -0.1286  0.6884
 2937TIP3    H130370   3.456   6.506   8.625  2.1101 -0.7080  1.0858
 2937TIP3    H230371   3.386   6.454   8.501 -0.0308 -1.2284  2.4550
 2938TIP3   OH230372   3.605   1.426   2.553  0.1695  0.3588  0.3599
 2938TIP3    H130373   3.586   1.468   2.469  0.4141 -1.6197 -0.7449
 2938TIP3    H230374   3.521   1.423   2.598 -0.8762 -2.0396 -1.5252
 2939TIP3   OH230375   5.891   3.338   8.499 -0.5018  0.0115  0.0576
 2939TIP3    H130376   5.892   3.410   8.561  2.2977  1.8408 -1.8769
 2939TIP3    H230377   5.883   3.380   8.413  1.7410 -1.8606 -1.1846
 2940TIP3   OH230378   3.668   1.888   3.118 -0.1892 -0.6714  0.3665
 2940TIP3    H130379   3.661   1.798   3.087 -0.6946  0.2071 -2.3077
 2940TIP3    H230380   3.728   1.930   3.056  0.8361  0.6340  2.1505
 2941TIP3   OH230381   5.272   4.081   7.900  0.1064 -0.0499  0.2639
 2941TIP3    H130382   5.206   4.045   7.958 -0.6568  0.4419 -0.2844
 2941TIP3    H230383   5.300   4.008   7.846  0.7914 -0.5023  1.2035
 2942TIP3   OH230384   4.699   0.069   1.080  0.1956 -0.0651  0.5531
 2942TIP3    H130385   4.670   0.014   1.007  1.2422 -1.1159  0.9002
 2942TIP3    H230386   4.629   0.133   1.090  0.3010  0.5369 -1.8029
 2943TIP3   OH230387   2.111   3.152   7.843 -0.4364  0.1685 -0.5410
 2943TIP3    H130388   2.150   3.230   7.883  0.4922 -1.0520  1.0352
 2943TIP3    H230389   2.185   3.103   7.808 -1.0405  0.0927 -1.8039
 2944TIP3   OH230390   2.726   3.343   8.399 -0.1108  0.0739  0.3534
 2944TIP3    H130391   2.732   3.389   8.315  1.1070  0.0774  0.4163
 2944TIP3    H230392   2.791   3.272   8.392  0.9499  0.8536  1.7571
 2945TIP3   OH230393   5.098   2.220   8.426  0.1754 -0.6638 -0.2262
 2945TIP3    H130394   5.125   2.142   8.474 -1.3389 -2.3372 -1.9165
 2945TIP3    H230395   5.007   2.204   8.402 -0.2653  1.7490 -0.4662
 2946TIP3   OH230396   2.049   6.420   0.225 -0.6424 -0.2034 -0.2080
 2946TIP3    H130397   2.078   6.339   0.268  2.1000  0.7633 -0.0593
 2946TIP3    H230398   2.046   6.485   0.296 -0.1537  0.4253 -0.7518
 2947TIP3   OH230399   0.051   2.599   1.122 -0.2272 -0.4519 -0.2001
 2947TIP3    H130400   0.015   2.662   1.185  0.3419 -0.5117  0.1859
 2947TIP3    H230401  -0.025   2.550   1.092 -0.9195  1.3009 -1.5231
 2948TIP3   OH230402   3.907   3.868   2.809  0.4097 -0.1444  0.1370
 2948TIP3    H130403   3.851   3.824   2.872  0.4470 -0.8027 -0.2750
 2948TIP3    H230404   3.973   3.802   2.786  0.6113  0.2072 -0.3070
 2949TIP3   OH230405   2.462   3.941   1.085  0.2741 -0.4351 -0.4210
 2949TIP3    H130406   2.426   3.974   1.002  0.4420 -0.5641 -0.5442
 2949TIP3    H230407   2.496   3.855   1.064 -1.0832 -1.1399  0.1220
 2950TIP3   OH230408   1.497   1.537   7.687  0.1683 -0.1117  0.2410
 2950TIP3    H130409   1.583   1.557   7.725  1.0904 -1.2377 -1.1448
 2950TIP3    H230410   1.505   1.446   7.658 -1.2999 -0.0332 -0.4688
 2951TIP3   OH230411   2.933   6.349   8.063 -0.2635  0.4534 -0.6690
 2951TIP3    H130412   2.859   6.404   8.037 -0.9039 -0.4518 -0.7840
 2951TIP3    H230413   2.935   6.279   7.999 -0.1006 -0.2304  0.0718
 2952TIP3   OH230414   4.636   4.920   1.078 -0.3916  0.2017  0.3161
 2952TIP3    H130415   4.585   4.900   0.999 -0.9928  1.1947  0.4323
 2952TIP3    H230416   4.714   4.965   1.045 -0.5939  0.5262  0.2711
 2953TIP3   OH230417   4.050   1.675   0.408  0.0760 -0.1663  0.0292
 2953TIP3    H130418   4.018   1.650   0.494 -0.4636  0.8606  0.1354
 2953TIP3    H230419   3.981   1.648   0.347 -0.3919  0.7853  0.1186
 2954TIP3   OH230420   4.928   2.248   2.599 -0.0303 -0.7088 -0.0779
 2954TIP3    H130421   5.000   2.235   2.537 -0.0034 -0.8519 -0.0182
 2954TIP3    H230422   4.971   2.284   2.677 -0.0919 -0.3495 -0.2103
 2955TIP3   OH230423   0.796   4.075   1.025 -0.1542  0.4937  0.2312
 2955TIP3    H130424   0.729   4.062   1.093 -0.0987 -1.2296 -0.0052
 2955TIP3    H230425   0.856   4.001   1.036  0.7409  1.0599 -0.6919
 2956TIP3   OH230426   4.718   0.812   2.028  0.0497 -0.3406 -0.3426
 2956TIP3    H130427   4.791   0.840   1.972  0.3755 -0.8162 -0.1729
 2956TIP3    H230428   4.652   0.879   2.017 -0.0057 -0.5555 -1.5238
 2957TIP3   OH230429   5.319   3.533   1.409  0.5620 -0.1507  0.6535
 2957TIP3    H130430   5.293   3.623   1.390 -0.1980 -0.6551 -0.8117
 2957TIP3    H230431   5.255   3.503   1.474  0.3600  0.1296  0.5875
 2958TIP3   OH230432   4.133   0.064   1.240  0.0853 -0.2739 -0.4823
 2958TIP3    H130433   4.079   0.077   1.162 -1.0311  1.3522  0.4892
 2958TIP3    H230434   4.114  -0.026   1.267  0.0843 -0.6843 -1.7714
 2959TIP3   OH230435   0.109   2.835   1.370 -0.1081 -0.8707  0.0388
 2959TIP3    H130436   0.038   2.776   1.347 -0.2081 -0.6517 -0.2262
 2959TIP3    H230437   0.066   2.909   1.413 -0.2022 -0.0863 -1.3552
 2960TIP3   OH230438   1.721   1.628   7.908  0.4501 -0.2810  0.3185
 2960TIP3    H130439   1.726   1.564   7.979  0.2944  0.2796  0.8407
 2960TIP3    H230440   1.813   1.649   7.889  0.4916 -0.3598  0.4302
 2961TIP3   OH230441   4.427   2.909   1.520  0.2021  0.0308 -0.6824
 2961TIP3    H130442   4.509   2.945   1.555 -0.0397  0.0258 -0.0975
 2961TIP3    H230443   4.379   2.879   1.597  0.0190 -0.7507 -1.0914
 2962TIP3   OH230444   3.995   6.620   2.401 -0.0275 -0.2201  0.0056
 2962TIP3    H130445   3.956   6.620   2.488  0.2629  0.5283  0.1418
 2962TIP3    H230446   4.029   6.709   2.390  0.1021 -0.3655 -0.7955
 2963TIP3   OH230447   2.677   0.751   0.082 -0.9003  0.2699  0.1065
 2963TIP3    H130448   2.645   0.746   0.173 -2.2029  0.9457 -0.2849
 2963TIP3    H230449   2.743   0.819   0.084 -0.3511 -0.2611  0.6949
 2964TIP3   OH230450   0.247   4.940   1.658 -0.4276  0.3036 -0.4985
 2964TIP3    H130451   0.327   4.907   1.699 -0.7052 -0.1820 -0.3357
 2964TIP3    H230452   0.262   5.034   1.649 -0.7468  0.6037  1.6401
 2965TIP3   OH230453   4.586   4.784   1.610 -0.1120 -0.3269 -0.1040
 2965TIP3    H130454   4.615   4.729   1.537 -1.8761 -0.3006 -0.8844
 2965TIP3    H230455   4.493   4.798   1.593 -0.2479  0.8405  1.4299
 2966TIP3   OH230456   2.490   4.805   1.077 -0.3337 -0.3752  0.0846
 2966TIP3    H130457   2.477   4.734   1.139  1.2896  0.1398  1.0716
 2966TIP3    H230458   2.431   4.874   1.107 -0.6321 -0.6594  0.1596
 2967TIP3   OH230459   0.333   5.702   7.095  0.1513 -0.4825  0.2800
 2967TIP3    H130460   0.271   5.731   7.029  0.3768 -1.5469 -0.4247
 2967TIP3    H230461   0.409   5.672   7.045 -0.0423 -2.2042  0.9503
 2968TIP3   OH230462   4.991   0.324   0.730  1.1227  0.3637 -0.0498
 2968TIP3    H130463   4.954   0.293   0.812  0.8185  1.4956  0.2595
 2968TIP3    H230464   4.927   0.299   0.663 -0.2544  2.2567  0.4692
 2969TIP3   OH230465   4.621   5.246   0.391 -0.3116 -0.1426 -0.4883
 2969TIP3    H130466   4.557   5.264   0.460  0.1811 -0.2172 -0.0046
 2969TIP3    H230467   4.571   5.204   0.322 -0.9549  0.5898 -0.4817
 2970TIP3   OH230468   4.935   1.755   1.931 -0.2944 -0.0469  0.0544
 2970TIP3    H130469   4.907   1.830   1.880 -0.8960  0.3610  0.9616
 2970TIP3    H230470   4.920   1.680   1.873 -0.4868  0.4490 -0.5489
 2971TIP3   OH230471   3.157   3.069   1.824 -0.5421  0.2915  0.3499
 2971TIP3    H130472   3.106   3.033   1.751 -0.0399 -0.4671  0.3704
 2971TIP3    H230473   3.164   2.997   1.886  0.4762  0.4116  0.3873
 2972TIP3   OH230474   4.934   1.948   0.732  0.6400  0.3612 -0.2541
 2972TIP3    H130475   4.907   1.925   0.643  1.0419 -0.8251 -0.0920
 2972TIP3    H230476   4.914   1.870   0.784 -0.1719  1.2673  0.8333
 2973TIP3   OH230477   2.418   5.142   1.820  0.0668 -0.0644 -0.0890
 2973TIP3    H130478   2.415   5.054   1.858  0.9738 -0.9755 -1.9886
 2973TIP3    H230479   2.342   5.145   1.762 -1.0130  1.1201  1.3116
 2974TIP3   OH230480   4.141   1.709   6.834 -0.3076 -0.4803 -0.9976
 2974TIP3    H130481   4.106   1.743   6.752  0.0157  2.2110 -0.1170
 2974TIP3    H230482   4.201   1.777   6.865 -1.1644 -0.9090  1.9435
 2975TIP3   OH230483   6.472   1.071   1.864  0.2420  0.5670 -0.3850
 2975TIP3    H130484   6.531   1.143   1.886 -2.3955  3.2273 -1.3196
 2975TIP3    H230485   6.397   1.084   1.922 -0.2841 -1.5323 -0.5367
 2976TIP3   OH230486   3.442   3.405   3.259  0.5477 -0.1595  0.3345
 2976TIP3    H130487   3.427   3.378   3.349  0.4919  0.6075  0.5633
 2976TIP3    H230488   3.354   3.414   3.222  0.5709 -0.5143  0.1813
 2977TIP3   OH230489   5.357   2.593   2.051  0.3039  0.6714  0.4805
 2977TIP3    H130490   5.402   2.510   2.036 -0.2957  0.0968  1.6802
 2977TIP3    H230491   5.330   2.589   2.143 -0.4048  1.8701  0.3457
 2978TIP3   OH230492   0.717   3.237   1.358  0.5763  0.2337 -0.2807
 2978TIP3    H130493   0.694   3.183   1.282 -3.0679  0.1525  0.7040
 2978TIP3    H230494   0.698   3.182   1.433  2.3886  0.9615  0.7965
 2979TIP3   OH230495   2.418   0.480   2.597 -0.6938 -0.1978  0.2323
 2979TIP3    H130496   2.433   0.556   2.540  0.0676 -0.9287 -0.5787
 2979TIP3    H230497   2.422   0.405   2.538  0.9578 -1.0559  1.3553
 2980TIP3   OH230498   5.260   2.279   8.192 -0.0869 -0.6736  0.4188
 2980TIP3    H130499   5.242   2.367   8.159  0.6189 -1.3879 -2.1160
 2980TIP3    H230500   5.232   2.281   8.283 -1.8693  1.6190 -0.0903
 2981TIP3   OH230501   4.218   2.839   1.718  0.1447  0.1442 -0.5298
 2981TIP3    H130502   4.151   2.773   1.701 -1.6233  1.5731  0.4780
 2981TIP3    H230503   4.182   2.920   1.682  0.3389  1.3670  1.8268
 2982TIP3   OH230504   4.419   5.671   7.674  0.7252 -0.0659 -0.6641
 2982TIP3    H130505   4.481   5.681   7.746  0.9652  0.6251 -0.9541
 2982TIP3    H230506   4.456   5.724   7.603 -0.5897  0.9999 -0.5951
 2983TIP3   OH230507   4.121   1.786   2.481  0.4157 -0.2348 -0.1195
 2983TIP3    H130508   4.049   1.799   2.420  1.4853  0.4179 -1.2832
 2983TIP3    H230509   4.082   1.803   2.567 -0.7958  0.2022 -0.7259
 2984TIP3   OH230510   6.842   1.729   2.037 -0.2326 -0.4833  0.1808
 2984TIP3    H130511   6.819   1.643   2.073 -1.8269 -1.1151 -2.0741
 2984TIP3    H230512   6.783   1.790   2.080  0.1474 -0.6964  1.0090
 2985TIP3   OH230513   2.044   1.672   2.274 -0.5075  0.8134  0.5607
 2985TIP3    H130514   2.094   1.606   2.322  1.4069  1.2833 -0.6805
 2985TIP3    H230515   1.959   1.631   2.256  0.5773 -1.2548 -0.0636
 2986TIP3   OH230516   5.033   2.438   7.930 -0.0091  0.3060  0.0844
 2986TIP3    H130517   4.978   2.362   7.949 -0.8744  0.7522 -0.5404
 2986TIP3    H230518   5.098   2.405   7.868  1.8709 -0.7754  2.4903
 2987TIP3   OH230519   1.481   3.625   1.522  0.4735  0.0399 -0.0318
 2987TIP3    H130520   1.498   3.610   1.615 -1.5059 -0.4664  0.2847
 2987TIP3    H230521   1.552   3.683   1.494  1.5642 -0.4544  1.5779
 2988TIP3   OH230522   4.195   2.605   2.176  0.3557  0.5670  0.3243
 2988TIP3    H130523   4.271   2.606   2.234  0.4296 -0.2018  0.2530
 2988TIP3    H230524   4.229   2.633   2.091  0.1969  1.9446  0.6900
 2989TIP3   OH230525   1.777   5.261   1.552  0.3033 -0.5757  0.3089
 2989TIP3    H130526   1.794   5.228   1.640  0.5760 -0.6990  0.2121
 2989TIP3    H230527   1.831   5.340   1.545 -0.8534  0.3018  0.7794
 2990TIP3   OH230528   4.352   0.612   1.367 -0.4647 -0.2775 -0.1472
 2990TIP3    H130529   4.441   0.615   1.403 -1.2905 -0.2982  2.0800
 2990TIP3    H230530   4.356   0.667   1.289  1.1038  1.2462  0.9235
 2991TIP3   OH230531   3.548   1.055   2.368  0.3080  0.6768  0.1925
 2991TIP3    H130532   3.453   1.062   2.377  0.3472  0.8030  0.5286
 2991TIP3    H230533   3.574   1.137   2.327  0.1276  0.0997 -1.1162
 2992TIP3   OH230534   0.608   5.508   1.036 -0.2205 -0.4705  0.0539
 2992TIP3    H130535   0.531   5.460   1.007 -0.0886  0.6976 -2.4549
 2992TIP3    H230536   0.573   5.586   1.079 -0.4553 -0.3045 -0.4298
 2993TIP3   OH230537   1.919   0.037   0.165 -0.2353  0.2351  0.0111
 2993TIP3    H130538   1.902  -0.050   0.202  1.8193 -0.0939  0.3405
 2993TIP3    H230539   1.983   0.076   0.226  0.4216  1.1446 -1.2260
 2994TIP3   OH230540   2.986   2.725   0.251 -0.5398 -0.0346  0.3922
 2994TIP3    H130541   3.019   2.716   0.341 -1.5130  2.3283  1.0647
 2994TIP3    H230542   3.064   2.745   0.199 -0.2152  0.6024  1.0943
 2995TIP3   OH230543   3.419   1.753   1.441  0.0472 -0.2091 -0.3196
 2995TIP3    H130544   3.425   1.667   1.400  0.3992  0.5056 -1.8479
 2995TIP3    H230545   3.371   1.807   1.378  2.0701  1.3799 -0.6389
 2996TIP3   OH230546   2.138   4.325   0.912  0.1979 -0.0849  0.1376
 2996TIP3    H130547   2.109   4.407   0.874 -1.1867 -0.2700  0.7567
 2996TIP3    H230548   2.086   4.258   0.868  2.4951 -0.8535 -1.6074
 2997TIP3   OH230549   3.920   2.131   0.326 -0.4776 -0.1098  0.1181
 2997TIP3    H130550   3.925   2.168   0.414  0.7750  2.0238 -0.7923
 2997TIP3    H230551   4.005   2.091   0.311 -0.9549 -1.1649  0.1380
 2998TIP3   OH230552   1.348   6.044   2.478  0.2896 -0.2554  0.0790
 2998TIP3    H130553   1.277   5.998   2.432  0.6117 -1.5567  0.8210
 2998TIP3    H230554   1.307   6.122   2.514 -0.2575  0.1435 -1.3288
 2999TIP3   OH230555   2.567   3.403   7.123  0.1014  0.2886  0.6810
 2999TIP3    H130556   2.638   3.458   7.091 -1.7267  2.3703 -0.0418
 2999TIP3    H230557   2.578   3.320   7.077  1.8283  0.6743  0.3372
 3000TIP3   OH230558   2.427   2.088   0.954 -0.1341  0.0180 -0.2749
 3000TIP3    H130559   2.383   2.145   0.891  0.1167 -1.0025 -1.4298
 3000TIP3    H230560   2.451   2.010   0.903  1.6521 -0.1111  0.6732
 3001TIP3   OH230561   4.717   4.875   8.691 -0.0644 -0.3612 -0.0147
 3001TIP3    H130562   4.638   4.831   8.662 -0.0369 -1.6375  1.6800
 3001TIP3    H230563   4.703   4.891   8.785  1.0003  0.9238 -0.0391
 3002TIP3   OH230564   0.826   1.972   1.867 -0.1850  0.3761 -0.2391
 3002TIP3    H130565   0.916   2.001   1.856 -0.0380  0.7667  1.7774
 3002TIP3    H230566   0.776   2.052   1.882 -0.5650  0.0144  0.4862
 3003TIP3   OH230567   4.153   1.984   0.340  0.0023  0.4671 -0.0684
 3003TIP3    H130568   4.205   1.976   0.420  1.0170 -2.0406 -0.8758
 3003TIP3    H230569   4.090   1.912   0.345 -0.7942  1.0816 -0.9321
 3004TIP3   OH230570   3.858   0.629   0.964 -0.3611  0.5118  0.0591
 3004TIP3    H130571   3.936   0.662   0.920 -0.2716 -1.0335 -1.0316
 3004TIP3    H230572   3.789   0.633   0.898 -1.4247  2.4924  1.2141
 3005TIP3   OH230573   4.859   2.716   2.380  0.0397 -0.2147  0.1487
 3005TIP3    H130574   4.846   2.655   2.307  1.5400 -0.7544  0.3052
 3005TIP3    H230575   4.838   2.665   2.458 -0.1816 -0.0643  0.1889
 3006TIP3   OH230576   0.358   3.888   7.834 -0.1583  0.5731 -0.4923
 3006TIP3    H130577   0.424   3.941   7.790  1.7588 -0.9726  0.3801
 3006TIP3    H230578   0.345   3.813   7.776  0.3976 -0.1298  0.2559
 3007TIP3   OH230579   6.355   3.134   7.352  0.5007  0.5022  0.0689
 3007TIP3    H130580   6.338   3.130   7.446  0.3540 -0.6216  0.0142
 3007TIP3    H230581   6.282   3.184   7.316  1.0335  1.7473  0.6403
 3008TIP3   OH230582   3.150   1.368   1.568 -0.4895  0.5166  0.4100
 3008TIP3    H130583   3.153   1.273   1.582  0.6715  0.4353 -0.2142
 3008TIP3    H230584   3.185   1.405   1.649 -0.0654  0.3635  0.2995
 3009TIP3   OH230585   6.724   6.676   8.079  0.1572  0.6038  0.2135
 3009TIP3    H130586   6.664   6.658   8.151  0.3294 -0.1290  0.1830
 3009TIP3    H230587   6.811   6.655   8.115  0.3696  1.3420  0.1569
 3010TIP3   OH230588   1.501   3.190   7.582  0.4917 -0.1478  0.5066
 3010TIP3    H130589   1.457   3.134   7.519  1.2907  0.2658 -0.4564
 3010TIP3    H230590   1.530   3.131   7.651 -0.9798 -0.5092  0.8368
 3011TIP3   OH230591   2.000   5.968   2.358 -0.2571 -0.3852 -0.1759
 3011TIP3    H130592   2.029   5.888   2.401  1.2628 -1.2103 -2.5770
 3011TIP3    H230593   2.020   5.955   2.265  0.2505  2.8293 -0.6525
 3012TIP3   OH230594   2.645   2.205   0.255 -0.0685  0.4244 -0.1905
 3012TIP3    H130595   2.635   2.204   0.350 -1.2378  0.4103 -0.2936
 3012TIP3    H230596   2.583   2.272   0.225  0.6480  0.7864 -0.9148
 3013TIP3   OH230597   6.072   4.213   0.491 -0.0313  0.4254  0.7240
 3013TIP3    H130598   6.078   4.131   0.443  1.0550  0.5246  0.6762
 3013TIP3    H230599   5.988   4.250   0.464 -0.5008 -0.6264  0.6926
 3014TIP3   OH230600   6.580   6.581   8.550 -0.0994  0.1778  0.1968
 3014TIP3    H130601   6.488   6.570   8.575  0.1573 -2.0664  0.2735
 3014TIP3    H230602   6.577   6.609   8.459 -0.8483 -1.1553 -0.2027
 3015TIP3   OH230603   3.137   3.269   7.157  0.8873  0.6912 -0.5457
 3015TIP3    H130604   3.208   3.269   7.221  0.8108 -1.1204 -0.4166
 3015TIP3    H230605   3.177   3.235   7.077  0.4605  0.8799 -0.8433
 3016TIP3   OH230606   2.812   0.616   7.975 -0.5880 -0.3783  0.1340
 3016TIP3    H130607   2.807   0.550   8.044 -0.8490 -2.3930 -1.6621
 3016TIP3    H230608   2.904   0.615   7.948 -0.5520  0.1340  0.2492
 3017TIP3   OH230609   5.472   3.912   7.808  0.7491 -0.2784  0.4454
 3017TIP3    H130610   5.485   3.818   7.796  0.2494 -0.2405 -0.4632
 3017TIP3    H230611   5.501   3.951   7.726 -2.2747  0.0522 -0.5823
 3018TIP3   OH230612   6.354   5.110   0.627 -0.7783  0.1573 -0.1073
 3018TIP3    H130613   6.413   5.037   0.647 -0.4945  0.3708 -0.1743
 3018TIP3    H230614   6.361   5.121   0.532 -0.3132  0.7083 -0.0135
 3019TIP3   OH230615   3.739   2.524   0.005  0.1659  0.4529 -0.1811
 3019TIP3    H130616   3.807   2.586   0.030 -1.2914  1.0665  2.6835
 3019TIP3    H230617   3.759   2.445   0.055  0.3926 -0.4081 -1.5890
 3020TIP3   OH230618   0.102   4.627   1.946  0.0319 -0.0548 -0.0155
 3020TIP3    H130619   0.061   4.542   1.927  0.4917  0.1109 -1.9254
 3020TIP3    H230620   0.031   4.690   1.941 -0.3408 -0.3057  1.5584
 3021TIP3   OH230621   6.340   3.329   8.187  0.4854  0.1562  0.1092
 3021TIP3    H130622   6.277   3.267   8.223  2.3286 -1.5891  0.4850
 3021TIP3    H230623   6.393   3.357   8.262  1.2801  0.2208 -0.4554
 3022TIP3   OH230624   4.658   5.274   2.054  0.1232 -0.4593  0.3665
 3022TIP3    H130625   4.566   5.260   2.077  0.4561 -0.7414  1.6302
 3022TIP3    H230626   4.701   5.191   2.074  1.0673  0.3999  2.2028
 3023TIP3   OH230627   3.504   6.576   1.894 -0.1652  0.6219 -0.8212
 3023TIP3    H130628   3.557   6.567   1.815  0.9294  0.5062 -0.0916
 3023TIP3    H230629   3.452   6.655   1.879  0.0945  0.6563 -1.6134
 3024TIP3   OH230630   1.494   6.506   1.164  0.0639  0.2339  0.0727
 3024TIP3    H130631   1.555   6.578   1.147  0.0621 -0.0751 -1.3641
 3024TIP3    H230632   1.411   6.535   1.129 -1.0144  1.1259  3.0428
 3025TIP3   OH230633   0.773   5.395   7.808 -0.6890  0.5122 -0.0282
 3025TIP3    H130634   0.823   5.392   7.726 -0.6871 -0.3816 -0.0018
 3025TIP3    H230635   0.708   5.327   7.799  0.4534 -0.8613  1.4412
 3026TIP3   OH230636   2.687   3.919   2.185 -0.1528 -0.4801 -0.2003
 3026TIP3    H130637   2.677   3.838   2.136 -1.5932 -1.3730  1.4275
 3026TIP3    H230638   2.597   3.950   2.199  0.0984 -0.7013  2.4437
 3027TIP3   OH230639   3.283   6.462   2.976 -0.1594 -0.7967 -0.5250
 3027TIP3    H130640   3.351   6.435   2.914  1.0774 -0.9455  0.8462
 3027TIP3    H230641   3.319   6.440   3.062 -1.7921 -0.5083  0.2607
 3028TIP3   OH230642   4.128   5.909   0.096  0.4814  0.0082  0.6160
 3028TIP3    H130643   4.187   5.928   0.169  2.3531 -1.5608 -0.3979
 3028TIP3    H230644   4.048   5.874   0.138  1.2173 -0.1718  1.9299
 3029TIP3   OH230645   3.742   4.096   1.221 -0.1840 -0.6102  0.3763
 3029TIP3    H130646   3.647   4.088   1.235 -0.5767 -1.5325 -2.2567
 3029TIP3    H230647   3.752   4.179   1.176  0.4670  0.0676  1.7017
 3030TIP3   OH230648   2.696   6.324   7.474  0.0452  0.1568 -0.2813
 3030TIP3    H130649   2.693   6.321   7.379  2.9534  1.5525 -0.5217
 3030TIP3    H230650   2.763   6.260   7.498 -0.0090  0.4759  0.7859
 3031TIP3   OH230651   3.648   4.385   0.317 -0.3919 -0.0803 -0.2222
 3031TIP3    H130652   3.666   4.394   0.411 -2.9433 -0.9455  0.4426
 3031TIP3    H230653   3.733   4.397   0.275  1.1359 -1.1902  2.2839
 3032TIP3   OH230654   3.325   2.488   1.970  0.2081 -0.4559 -0.3313
 3032TIP3    H130655   3.313   2.407   1.919 -1.2186 -0.1923 -0.4479
 3032TIP3    H230656   3.291   2.557   1.913  3.1700  0.5629 -1.0538
 3033TIP3   OH230657   0.669   3.868   8.575 -0.3705 -0.0925 -0.0970
 3033TIP3    H130658   0.613   3.921   8.519 -0.9027  0.5815  1.0218
 3033TIP3    H230659   0.609   3.803   8.613 -0.2579  0.1698  0.5432
 3034TIP3   OH230660   2.088   5.943   2.105 -0.3651 -0.5775 -0.4428
 3034TIP3    H130661   2.174   5.931   2.064  0.3913  1.6164  0.3426
 3034TIP3    H230662   2.034   5.980   2.035  0.8273  2.8366  0.2317
 3035TIP3   OH230663   4.937   5.487   1.369  0.0015  0.8753 -0.6760
 3035TIP3    H130664   4.915   5.491   1.462  0.0053  1.1597 -0.6855
 3035TIP3    H230665   4.988   5.567   1.353  1.2096  0.1486 -0.6074
 3036TIP3   OH230666   0.012   2.719   0.232  0.5006 -0.2810 -0.2422
 3036TIP3    H130667   0.014   2.688   0.322  3.3610  2.8066  0.9673
 3036TIP3    H230668   0.103   2.716   0.203 -0.2174 -0.3916 -2.7863
 3037TIP3   OH230669   6.088   5.809   1.381  0.0983 -0.7769  0.2475
 3037TIP3    H130670   6.081   5.904   1.370 -1.2693 -0.7612  1.0867
 3037TIP3    H230671   6.010   5.773   1.339  1.3489 -1.6853 -1.4099
 3038TIP3   OH230672   2.042   0.347   1.953  0.5122 -0.2117 -0.4667
 3038TIP3    H130673   1.961   0.384   1.916  0.2463 -1.6622 -1.4135
 3038TIP3    H230674   2.024   0.253   1.961  2.1847 -0.6012 -0.9173
 3039TIP3   OH230675   0.324   5.197   1.602 -0.1397  0.9458 -0.5304
 3039TIP3    H130676   0.402   5.194   1.657  0.3363  3.7158 -0.9082
 3039TIP3    H230677   0.357   5.191   1.512 -0.4778  0.7879 -0.6476
 3040TIP3   OH230678   4.693   4.941   0.273  0.2604  0.2463 -0.5461
 3040TIP3    H130679   4.603   4.933   0.243 -0.2300  0.2468  0.8547
 3040TIP3    H230680   4.704   4.870   0.337  0.6379  1.3572  0.6845
 3041TIP3   OH230681   1.741   1.466   8.717 -0.0370 -0.4999  0.4488
 3041TIP3    H130682   1.783   1.410   8.781 -1.6625 -1.3119  0.8585
 3041TIP3    H230683   1.648   1.464   8.740 -0.1943  2.4818  0.5733
 3042TIP3   OH230684   4.826   1.899   2.139  0.2665 -0.1068  0.3255
 3042TIP3    H130685   4.790   1.987   2.139 -2.1234 -0.9882 -0.2879
 3042TIP3    H230686   4.885   1.897   2.064  1.5608  1.3518  1.2435
 3043TIP3   OH230687   2.801   4.958   0.697 -0.3036 -0.3056  0.0016
 3043TIP3    H130688   2.815   4.905   0.619 -0.1027  0.6347 -0.6241
 3043TIP3    H230689   2.723   4.921   0.739 -0.6059 -0.6123 -0.8195
 3044TIP3   OH230690   3.347   4.760   0.197 -0.4490  0.2133  0.3716
 3044TIP3    H130691   3.277   4.787   0.138 -0.2232  1.5919  0.7184
 3044TIP3    H230692   3.368   4.671   0.169 -3.3681 -0.8611  1.2433
 3045TIP3   OH230693   2.255   0.952   0.543  0.4361  0.1963 -0.3146
 3045TIP3    H130694   2.175   0.992   0.509  0.8380 -0.0860 -1.6409
 3045TIP3    H230695   2.259   0.866   0.502  1.5511  0.3070 -0.4902
 3046TIP3   OH230696   2.525   2.526   0.623 -0.2170  0.2748 -0.8433
 3046TIP3    H130697   2.473   2.525   0.703  2.0827 -1.7071  0.7599
 3046TIP3    H230698   2.474   2.579   0.562 -3.1254  0.0323  1.1866
 3047TIP3   OH230699   5.467   2.684   0.562 -0.3670  0.8358 -0.9142
 3047TIP3    H130700   5.412   2.642   0.496 -0.2833 -0.8090  0.0065
 3047TIP3    H230701   5.512   2.755   0.516 -1.0035  0.3093 -2.3739
 3048TIP3   OH230702   3.652   4.724   2.478 -0.2609 -0.1161  0.4653
 3048TIP3    H130703   3.721   4.766   2.530  0.4779 -1.1676  0.3626
 3048TIP3    H230704   3.682   4.732   2.387 -0.5314 -0.1183  0.3748
 3049TIP3   OH230705   6.587   0.278   0.038  0.1665  0.7841 -0.1630
 3049TIP3    H130706   6.663   0.220   0.044 -0.0578  0.5365  0.2734
 3049TIP3    H230707   6.624   0.366   0.048  0.4130  0.6751 -0.1091
 3050TIP3   OH230708   2.027   6.333   2.079  0.0555  0.5982 -0.1701
 3050TIP3    H130709   2.045   6.274   2.006  0.3733  0.9364 -0.3690
 3050TIP3    H230710   1.934   6.322   2.097  0.6862 -2.5966  2.1018
 3051TIP3   OH230711   3.901   5.531   0.006  1.0830 -0.6356 -0.4942
 3051TIP3    H130712   3.811   5.500   0.002  1.6196 -2.1763 -1.6406
 3051TIP3    H230713   3.895   5.626  -0.007 -0.6448 -0.0323  3.4072
 3052TIP3   OH230714   5.348   4.706   2.287  0.2623  0.1459 -0.0727
 3052TIP3    H130715   5.315   4.766   2.354  1.7142  1.3533 -0.3993
 3052TIP3    H230716   5.269   4.666   2.251 -0.7852  1.9861  0.0313
 3053TIP3   OH230717   1.129   1.260   2.487  0.0895 -0.1465  0.0936
 3053TIP3    H130718   1.150   1.218   2.404 -1.4708 -0.7552 -0.0391
 3053TIP3    H230719   1.116   1.352   2.466  0.7220 -0.1136 -0.1464
 3054TIP3   OH230720   3.440   5.570   0.865 -0.0362 -0.1142  0.9503
 3054TIP3    H130721   3.376   5.499   0.865  0.5533 -0.7397 -1.2102
 3054TIP3    H230722   3.446   5.598   0.956 -2.7055 -0.6195  1.3788
 3055TIP3   OH230723   5.638   3.379   7.748  0.5996  0.5443 -0.4112
 3055TIP3    H130724   5.661   3.315   7.681 -0.5873 -1.0783  0.6590
 3055TIP3    H230725   5.650   3.333   7.830 -1.0889  1.3843  0.3655
 3056TIP3   OH230726   0.381   0.898   7.824  0.2709 -0.2111  0.0702
 3056TIP3    H130727   0.404   0.897   7.917  0.5183  1.2559  0.0447
 3056TIP3    H230728   0.426   0.974   7.789  1.3704 -1.5623 -1.5818
 3057TIP3   OH230729   1.737   6.461   0.953 -0.1018 -0.7349  0.1553
 3057TIP3    H130730   1.713   6.553   0.940 -1.3825 -0.8636  1.3098
 3057TIP3    H230731   1.655   6.418   0.978  0.7239 -1.9095  1.0022
 3058TIP3   OH230732   2.301   0.413   1.881 -0.2570 -0.5104  0.3468
 3058TIP3    H130733   2.207   0.401   1.867 -0.4720  1.4180 -0.1816
 3058TIP3    H230734   2.335   0.442   1.796  0.7172 -0.5911  0.6914
 3059TIP3   OH230735   5.135   1.229   2.350  0.3633  0.4672  0.1846
 3059TIP3    H130736   5.221   1.270   2.342  0.3784  0.7749  1.7256
 3059TIP3    H230737   5.135   1.188   2.436 -0.7622 -0.1980 -0.1118
 3060TIP3   OH230738   4.685   2.900   0.594 -0.1590  0.0917 -0.0298
 3060TIP3    H130739   4.751   2.879   0.661 -0.0965  0.8890  0.1823
 3060TIP3    H230740   4.621   2.955   0.641  0.0140  0.8626 -0.6778
 3061TIP3   OH230741   2.888   4.288   2.515 -0.7171  0.1410 -0.3912
 3061TIP3    H130742   2.809   4.262   2.466 -0.3465  0.6253 -1.2707
 3061TIP3    H230743   2.951   4.220   2.496 -0.6541  0.1983 -0.3875
 3062TIP3   OH230744   1.439   3.192   0.071  0.1056  0.7772 -0.8032
 3062TIP3    H130745   1.467   3.283   0.086 -0.1567  0.9958 -1.5704
 3062TIP3    H230746   1.349   3.200   0.038 -0.2970  0.1757  0.1220
 3063TIP3   OH230747   1.914   6.836   1.393 -0.2169  0.3201 -0.3152
 3063TIP3    H130748   1.884   6.830   1.484 -0.6555  3.2921 -0.1598
 3063TIP3    H230749   1.836   6.822   1.340 -0.3025  0.3035 -0.1848
 3064TIP3   OH230750   5.163   4.918   2.974 -0.4196  0.8645 -0.7401
 3064TIP3    H130751   5.253   4.943   2.992 -0.8151  1.1132  1.1345
 3064TIP3    H230752   5.116   5.002   2.968 -0.2610  0.8575 -3.7711
 3065TIP3   OH230753   4.722   3.122   7.876 -0.8297  0.3563  0.4129
 3065TIP3    H130754   4.631   3.136   7.849 -1.3018 -0.7123  1.3340
 3065TIP3    H230755   4.739   3.191   7.939 -1.3082  0.0560  0.8841
 3066TIP3   OH230756   0.509   5.754   1.168 -0.3346 -0.0185  0.4279
 3066TIP3    H130757   0.521   5.796   1.253 -0.7876 -0.4022  0.6856
 3066TIP3    H230758   0.542   5.818   1.105  0.5379  0.0456  0.9248
 3067TIP3   OH230759   6.375   5.531   8.123  0.0741  0.4183 -0.4873
 3067TIP3    H130760   6.340   5.536   8.034 -2.0636 -0.4615  0.2262
 3067TIP3    H230761   6.308   5.482   8.172  0.8635  1.4436  1.7485
 3068TIP3   OH230762   3.476   2.422   8.233 -0.3441 -0.0636 -0.1647
 3068TIP3    H130763   3.553   2.370   8.212 -0.4750  0.4145 -1.9305
 3068TIP3    H230764   3.455   2.398   8.324  0.4612 -1.9577 -0.4359
 3069TIP3   OH230765   4.225   3.707   6.634  0.6841  0.0930  0.0004
 3069TIP3    H130766   4.169   3.782   6.656 -0.1171 -0.4376 -0.1729
 3069TIP3    H230767   4.306   3.722   6.683 -0.7324 -0.6716  2.8141
 3070TIP3   OH230768   1.801   4.283   0.267  0.0142  0.4429  0.3488
 3070TIP3    H130769   1.819   4.192   0.243  1.3003  1.0532 -1.2466
 3070TIP3    H230770   1.779   4.279   0.360  2.1350 -1.2806  0.8810
 3071TIP3   OH230771   0.368   2.476   2.082 -0.6743  0.2201  0.1759
 3071TIP3    H130772   0.464   2.482   2.083 -0.7660  2.2497  0.7854
 3071TIP3    H230773   0.346   2.447   2.171 -0.6391 -0.6757 -0.0921
 3072TIP3   OH230774   6.095   1.272   1.810  0.2200 -0.4558 -0.1260
 3072TIP3    H130775   6.169   1.333   1.807 -1.7777  2.1475  0.4924
 3072TIP3    H230776   6.039   1.298   1.736 -0.6627 -1.5816  0.1184
 3073TIP3   OH230777   0.389   1.103   0.122 -0.3925 -0.3326  0.4410
 3073TIP3    H130778   0.427   1.019   0.100  1.6035  0.3533  1.0849
 3073TIP3    H230779   0.439   1.167   0.071 -1.2203  0.5548  0.6910
 3074TIP3   OH230780   1.318   6.653   0.995 -0.5066  0.0658  0.4070
 3074TIP3    H130781   1.223   6.669   0.996 -0.5139  0.0181  0.4444
 3074TIP3    H230782   1.334   6.615   0.908 -0.6923 -0.9984  0.8276
 3075TIP3   OH230783   1.774   3.079   2.792  0.6088  0.4780 -0.2783
 3075TIP3    H130784   1.844   3.143   2.784  0.9328  0.2283  0.4545
 3075TIP3    H230785   1.811   2.998   2.757  1.2411 -0.0396  1.4672
 3076TIP3   OH230786   4.073   3.636   7.612 -0.0567  0.0479 -0.4465
 3076TIP3    H130787   4.014   3.646   7.687  1.0875  3.6838  0.1626
 3076TIP3    H230788   4.031   3.570   7.557 -2.0627 -1.1519  2.3123
 3077TIP3   OH230789   2.854   0.573   8.291  0.8834 -0.3380 -0.1239
 3077TIP3    H130790   2.807   0.571   8.375  0.4141  2.4242 -0.2183
 3077TIP3    H230791   2.816   0.501   8.241 -1.3014  0.0665  0.8243
 3078TIP3   OH230792   0.308   1.595   2.197  0.7559  0.4447  0.2081
 3078TIP3    H130793   0.350   1.520   2.239  1.3069  1.3660  1.3078
 3078TIP3    H230794   0.288   1.563   2.108  0.4378 -1.1976  0.8238
 3079TIP3   OH230795   5.806   6.518   8.412 -0.7264  0.5177  0.1319
 3079TIP3    H130796   5.838   6.528   8.502 -0.3715  0.1167  0.0540
 3079TIP3    H230797   5.724   6.568   8.410 -0.0761  1.6219  0.3084
 3080TIP3   OH230798   4.098   0.790   6.845  0.1552 -0.5095  0.2027
 3080TIP3    H130799   4.137   0.774   6.931 -0.0893 -1.3477  0.1718
 3080TIP3    H230800   4.103   0.706   6.800  1.6247  0.2654 -1.1775
 3081TIP3   OH230801   3.137   2.826   7.343  0.2755 -0.0906 -0.1546
 3081TIP3    H130802   3.218   2.874   7.327  2.1397 -2.5161  1.2670
 3081TIP3    H230803   3.108   2.857   7.429  1.9819 -1.9663  1.1936
 3082TIP3   OH230804   6.504   2.322   7.490 -0.6938 -0.5753 -0.3114
 3082TIP3    H130805   6.454   2.385   7.439 -1.0368 -0.8820 -0.3594
 3082TIP3    H230806   6.441   2.283   7.550 -0.3129 -0.2926  0.2821
 3083TIP3   OH230807   3.709   6.244   7.168 -0.0444 -0.6120  0.3129
 3083TIP3    H130808   3.668   6.199   7.094  0.1113  0.4402 -0.4324
 3083TIP3    H230809   3.750   6.322   7.130 -2.5011  1.6104  1.8745
 3084TIP3   OH230810   5.371   1.283   7.931 -0.1414  0.5350  0.6226
 3084TIP3    H130811   5.433   1.324   7.991 -1.5386  0.6876  2.0112
 3084TIP3    H230812   5.328   1.356   7.887 -0.0106  0.4533  0.3566
 3085TIP3   OH230813   3.867   2.901   0.380 -0.5664 -0.2706  0.2769
 3085TIP3    H130814   3.892   2.831   0.441 -1.2559  0.8851  1.9521
 3085TIP3    H230815   3.949   2.945   0.360 -0.2753 -0.9026  0.0514
 3086TIP3   OH230816   4.099   3.055   1.598 -0.0939 -0.3814 -0.2667
 3086TIP3    H130817   4.020   3.009   1.626 -0.9579  2.1511  1.9158
 3086TIP3    H230818   4.066   3.124   1.539  0.4489  0.7008  0.6649
 3087TIP3   OH230819   3.712   0.149   1.139 -0.0375  0.0401  0.4336
 3087TIP3    H130820   3.707   0.243   1.124 -0.7896 -0.1856 -0.9864
 3087TIP3    H230821   3.804   0.126   1.120 -0.4733  0.1035 -2.1869
 3088TIP3   OH230822   4.368   3.162   2.307  0.2868  1.0409 -0.4406
 3088TIP3    H130823   4.464   3.168   2.301  0.5079 -1.8079 -1.6595
 3088TIP3    H230824   4.350   3.156   2.401  1.7783 -2.1327 -0.2100
 3089TIP3   OH230825   5.471   0.544   8.294 -0.6175 -0.7727  0.4110
 3089TIP3    H130826   5.460   0.631   8.334 -1.7868 -1.2323  1.1684
 3089TIP3    H230827   5.383   0.521   8.263  0.1522 -0.6395 -2.1018
 3090TIP3   OH230828   5.384   5.114   8.165 -0.3790  0.0043  0.1543
 3090TIP3    H130829   5.318   5.049   8.190  0.5439 -2.2128 -2.6409
 3090TIP3    H230830   5.351   5.151   8.083  0.1212  1.6316  0.6499
 3091TIP3   OH230831   3.268   4.922   1.207 -0.0191 -0.8249  0.3169
 3091TIP3    H130832   3.232   4.900   1.292 -0.3286  2.5786  1.1958
 3091TIP3    H230833   3.209   4.988   1.172  2.2335  0.7701 -0.7331
 3092TIP3   OH230834   1.768   0.270   7.151  0.4302  0.4399 -0.0146
 3092TIP3    H130835   1.820   0.302   7.225  1.6299  0.7319 -0.9434
 3092TIP3    H230836   1.804   0.183   7.132  0.6900  0.6986 -0.7510
 3093TIP3   OH230837   5.405   5.096   0.165 -1.0134 -0.4292  0.0980
 3093TIP3    H130838   5.322   5.053   0.145 -2.0754  1.4820  0.1137
 3093TIP3    H230839   5.386   5.152   0.240  0.5689 -0.6661  0.7249
 3094TIP3   OH230840   3.843   5.917   2.100 -0.3868  0.3075 -0.3376
 3094TIP3    H130841   3.761   5.898   2.145 -0.0586 -0.6065 -0.0936
 3094TIP3    H230842   3.872   6.000   2.138 -0.6827  0.1181  0.3321
 3095TIP3   OH230843   0.506   2.035   0.118  0.4089  0.3675 -0.1255
 3095TIP3    H130844   0.456   2.097   0.172 -1.1176  0.2506 -1.3271
 3095TIP3    H230845   0.586   2.082   0.095  1.4842  0.1526  2.7865
 3096TIP3   OH230846   2.089   1.270   1.295 -0.1550  0.6678 -0.5018
 3096TIP3    H130847   2.172   1.272   1.248 -0.4210  1.0719 -0.9706
 3096TIP3    H230848   2.074   1.360   1.322 -1.2083  0.9355 -1.8359
 3097TIP3   OH230849   2.894   3.177   7.742 -0.5299  0.1415 -0.4547
 3097TIP3    H130850   2.800   3.163   7.747 -0.7009  1.2361 -0.2946
 3097TIP3    H230851   2.904   3.262   7.699  0.3429  0.5179  0.4289
 3098TIP3   OH230852   1.979   5.697   7.099 -0.4607  0.2235  0.2888
 3098TIP3    H130853   2.059   5.650   7.122 -0.4009  1.4072  2.8912
 3098TIP3    H230854   1.914   5.629   7.083  0.6768 -0.7373 -0.3385
 3099TIP3   OH230855   5.816   6.401   0.672 -0.3379  0.4261 -0.2355
 3099TIP3    H130856   5.892   6.442   0.713  1.0081 -0.6853 -1.5113
 3099TIP3    H230857   5.838   6.309   0.665 -2.1478 -0.0805  0.0404
 3100TIP3   OH230858   0.430   2.764   2.525  0.0323 -0.2450 -0.1555
 3100TIP3    H130859   0.479   2.815   2.589  1.4338 -1.5143 -0.1542
 3100TIP3    H230860   0.407   2.827   2.456 -1.8279  1.2246  1.7072
 3101TIP3   OH230861   5.060   0.392   1.482  0.3689  0.2908 -0.1814
 3101TIP3    H130862   5.035   0.328   1.548 -0.6366  1.4025  0.5431
 3101TIP3    H230863   5.014   0.473   1.507  0.4248  0.9001 -1.8968
 3102TIP3   OH230864   6.391   2.706   0.925  0.4281 -0.1645  0.4215
 3102TIP3    H130865   6.395   2.635   0.861 -0.7371  1.0127 -1.0477
 3102TIP3    H230866   6.318   2.683   0.982  0.4604 -0.4521  0.3471
 3103TIP3   OH230867   5.682   3.524   2.451  0.3336 -0.0662  0.6055
 3103TIP3    H130868   5.753   3.576   2.413 -0.2947  1.5247  1.5325
 3103TIP3    H230869   5.604   3.551   2.404  0.1523 -1.0829  0.2797
 3104TIP3   OH230870   6.718   6.163   7.800  0.1165 -0.5667 -0.0102
 3104TIP3    H130871   6.752   6.252   7.806 -0.1399 -0.5490  2.1704
 3104TIP3    H230872   6.623   6.174   7.797  0.1050 -0.7581 -0.4146
 3105TIP3   OH230873   5.582   4.929   1.810 -0.3119 -0.2487  0.3864
 3105TIP3    H130874   5.536   4.957   1.889 -0.8707 -0.5015  0.1607
 3105TIP3    H230875   5.674   4.922   1.837 -0.7941 -2.6374  1.6945
 3106TIP3   OH230876   4.669   2.730   1.300  0.6507 -0.2600  0.0121
 3106TIP3    H130877   4.585   2.704   1.338  0.2411  1.3401  0.2516
 3106TIP3    H230878   4.682   2.669   1.227  0.2365 -1.7646  1.1469
 3107TIP3   OH230879   5.465   5.926   1.918 -0.0403 -0.7810  0.1392
 3107TIP3    H130880   5.524   5.887   1.853  1.0061  0.4643  0.3097
 3107TIP3    H230881   5.430   6.003   1.874 -3.3600 -2.6010 -0.8144
 3108TIP3   OH230882   6.402   4.177   0.019  0.3603 -0.0858 -0.0111
 3108TIP3    H130883   6.485   4.210   0.053  0.0133  0.3255  0.4390
 3108TIP3    H230884   6.406   4.194  -0.075  1.0638 -0.6722 -0.1004
 3109TIP3   OH230885   4.661   3.691   1.586 -0.0077 -0.4591 -0.9018
 3109TIP3    H130886   4.666   3.785   1.566 -1.5229 -0.3335 -0.8017
 3109TIP3    H230887   4.585   3.683   1.644 -0.5539 -1.8809 -1.7644
 3110TIP3   OH230888   4.772   6.627   8.403 -1.0213 -1.0026 -0.2824
 3110TIP3    H130889   4.738   6.539   8.418 -0.8333 -1.0505 -0.1473
 3110TIP3    H230890   4.807   6.655   8.487 -1.1530 -0.7655 -0.3036
 3111TIP3   OH230891   6.150   4.413   8.151  0.1663 -0.2462 -0.3265
 3111TIP3    H130892   6.154   4.497   8.197  0.7386  0.5262 -1.7342
 3111TIP3    H230893   6.103   4.432   8.070 -0.1659 -1.4175 -0.4310
 3112TIP3   OH230894   2.469   1.849   3.021  0.1448  0.0563  0.3547
 3112TIP3    H130895   2.547   1.900   3.043 -0.5051  1.3923 -0.3533
 3112TIP3    H230896   2.469   1.845   2.926 -0.2704 -0.5829  0.3724
 3113TIP3   OH230897   4.103   1.885   8.719  0.2201  0.2040  0.8543
 3113TIP3    H130898   4.058   1.801   8.717  0.8514 -0.1372 -0.2761
 3113TIP3    H230899   4.036   1.948   8.745 -0.5086 -0.5162  0.7512
 3114TIP3   OH230900   3.642   5.336   0.461  0.7042 -0.5008 -0.0693
 3114TIP3    H130901   3.614   5.423   0.434  0.3256  0.1287  2.1684
 3114TIP3    H230902   3.736   5.345   0.478  0.6204 -0.4587  0.3838
 3115TIP3   OH230903   0.722   1.544   1.181 -0.2259 -0.0357  0.3253
 3115TIP3    H130904   0.661   1.519   1.112  0.9671 -0.4887 -0.5849
 3115TIP3    H230905   0.773   1.616   1.145  0.4761 -0.3366  0.6882
 3116TIP3   OH230906   2.693   1.487   1.524 -0.0648  0.3197 -0.2535
 3116TIP3    H130907   2.786   1.511   1.520 -0.0885  0.3790 -0.4423
 3116TIP3    H230908   2.672   1.456   1.436 -0.3796  0.8746 -0.3770
 3117TIP3   OH230909   5.422   3.223   2.390 -0.0871 -0.4453 -0.0664
 3117TIP3    H130910   5.344   3.201   2.339 -0.1937  0.7735 -0.4572
 3117TIP3    H230911   5.403   3.308   2.429  0.3184 -0.9689  1.3745
 3118TIP3   OH230912   0.072   4.678   7.085  0.0377  0.5163  0.0347
 3118TIP3    H130913   0.133   4.729   7.032 -0.6696  0.4219 -0.8929
 3118TIP3    H230914   0.052   4.602   7.031  0.5670 -0.4243  1.1319
 3119TIP3   OH230915   1.731   0.066   2.868  0.1852 -0.1974  0.4518
 3119TIP3    H130916   1.679  -0.010   2.842  0.9512 -0.4773 -0.3148
 3119TIP3    H230917   1.821   0.034   2.870  0.6000  0.8538 -0.5542
 3120TIP3   OH230918   2.972   1.874   2.197 -0.0987  0.2637  0.4180
 3120TIP3    H130919   3.034   1.946   2.204 -0.5866  0.5586  2.4982
 3120TIP3    H230920   2.925   1.875   2.281 -0.7341 -1.9211  0.1467
 3121TIP3   OH230921   2.571   1.441   0.692  0.2302 -0.2679  0.0949
 3121TIP3    H130922   2.507   1.501   0.653  1.1618 -0.1416 -1.3287
 3121TIP3    H230923   2.519   1.366   0.720 -0.7106  0.4044  0.2156
 3122TIP3   OH230924   6.474   5.872   7.487 -0.6245 -0.0482  0.6581
 3122TIP3    H130925   6.428   5.946   7.446 -1.0834 -1.0859 -0.8084
 3122TIP3    H230926   6.558   5.870   7.442 -0.1747  0.2493  1.4832
 3123TIP3   OH230927   2.839   5.054   1.571 -0.4490  0.0909 -0.0440
 3123TIP3    H130928   2.775   5.083   1.636  1.0399  2.8768  0.3313
 3123TIP3    H230929   2.908   5.013   1.624  1.0141  2.8220  0.3659
 3124TIP3   OH230930   5.374   5.264   2.311 -0.1632 -0.6324 -0.2463
 3124TIP3    H130931   5.313   5.253   2.239  0.8152 -2.5727 -0.8305
 3124TIP3    H230932   5.339   5.339   2.360 -1.8532 -0.4138 -1.6745
 3125TIP3   OH230933   2.571   4.337   1.914 -0.7101 -0.2274  0.5881
 3125TIP3    H130934   2.594   4.267   1.976  1.0494  0.0199  0.2580
 3125TIP3    H230935   2.568   4.293   1.829 -1.5266 -0.2509  0.6177
 3126TIP3   OH230936   4.289   0.045   0.433  0.0959 -0.3001 -0.1541
 3126TIP3    H130937   4.346   0.017   0.362 -0.3166 -1.4930 -0.0524
 3126TIP3    H230938   4.206   0.001   0.415 -1.0870  2.0567 -0.7527
 3127TIP3   OH230939   1.402   2.769   1.905 -0.0120  0.2482 -0.2612
 3127TIP3    H130940   1.463   2.717   1.958 -0.7838 -1.2218 -0.7430
 3127TIP3    H230941   1.421   2.743   1.815 -2.5754 -1.8049 -0.3573
 3128TIP3   OH230942   2.153   4.582   7.631 -0.0004  0.0102  0.0266
 3128TIP3    H130943   2.070   4.604   7.673  0.2305  1.7272 -0.3463
 3128TIP3    H230944   2.138   4.497   7.590 -1.0296 -0.4979  1.3862
 3129TIP3   OH230945   5.289   4.401   7.843 -0.1148 -0.0113 -0.0057
 3129TIP3    H130946   5.205   4.380   7.802 -0.5250 -0.3657  0.9961
 3129TIP3    H230947   5.314   4.485   7.803 -1.1739  0.3377  0.0315
 3130TIP3   OH230948   3.857   1.962   2.923  0.3084  0.2061  0.2008
 3130TIP3    H130949   3.863   2.057   2.936  1.9111 -0.0516  1.7527
 3130TIP3    H230950   3.938   1.928   2.960  0.4695 -1.6630 -1.7072
 3131TIP3   OH230951   6.622   2.840   0.206 -0.0439  0.6425 -0.3062
 3131TIP3    H130952   6.708   2.798   0.203  0.5050  1.6183  0.6558
 3131TIP3    H230953   6.576   2.808   0.129  0.5416 -1.2381  0.0860
 3132TIP3   OH230954   0.422   0.914   0.652  0.4541 -0.0346  0.0747
 3132TIP3    H130955   0.419   0.819   0.653 -1.0319 -0.0109  0.3005
 3132TIP3    H230956   0.476   0.938   0.728  2.3508 -0.6938 -1.0002
 3133TIP3   OH230957   6.771   3.491   1.010 -0.6389 -0.1599  0.5549
 3133TIP3    H130958   6.814   3.513   0.927 -2.7685  1.7256 -0.1619
 3133TIP3    H230959   6.687   3.455   0.984 -0.4865 -1.5898  1.9226
 3134TIP3   OH230960   0.282   2.954   8.308  0.0348 -0.2640 -0.2088
 3134TIP3    H130961   0.359   2.980   8.257  0.5987 -0.3397  0.5845
 3134TIP3    H230962   0.300   2.863   8.333 -0.2367 -0.2302  0.1135
 3135TIP3   OH230963   0.781   1.740   0.344 -0.0649 -0.4682 -0.5498
 3135TIP3    H130964   0.843   1.685   0.295  0.7503  1.7075 -2.1623
 3135TIP3    H230965   0.730   1.784   0.276 -0.3689  1.0889  0.6384
 3136TIP3   OH230966   0.363   3.927   1.862 -0.4012  0.1862  0.1574
 3136TIP3    H130967   0.381   4.015   1.829 -0.4299 -0.6175 -2.1122
 3136TIP3    H230968   0.425   3.870   1.817  0.1179 -0.9211  2.1270
 3137TIP3   OH230969   5.862   4.439   0.755 -0.1681 -0.0196  0.4720
 3137TIP3    H130970   5.880   4.486   0.673 -0.5633 -2.1006 -0.9136
 3137TIP3    H230971   5.782   4.478   0.789 -1.1493 -0.4016 -1.2655
 3138TIP3   OH230972   5.882   4.603   3.195 -0.2608  0.1815 -0.0574
 3138TIP3    H130973   5.948   4.646   3.249 -0.2225  0.2872 -0.1866
 3138TIP3    H230974   5.801   4.611   3.245  0.3422 -2.5809  1.5158
 3139TIP3   OH230975   5.522   2.672   1.379 -0.5596 -0.5698 -0.0867
 3139TIP3    H130976   5.528   2.582   1.347  1.9801 -1.2942  1.9739
 3139TIP3    H230977   5.588   2.720   1.329 -1.3594 -0.0152 -0.6299
 3140TIP3   OH230978   3.821   1.583   8.538  0.1504 -0.2314 -0.6697
 3140TIP3    H130979   3.769   1.527   8.595  0.6792  1.0144  1.1261
 3140TIP3    H230980   3.782   1.670   8.549  1.5731  0.4169 -0.5900
 3141TIP3   OH230981   1.884   1.462   1.442  0.2700  0.1222  0.4399
 3141TIP3    H130982   1.825   1.386   1.446  1.0191 -0.5372 -0.5154
 3141TIP3    H230983   1.949   1.445   1.511  1.0608 -0.6707 -0.4734
 3142TIP3   OH230984   0.716   2.746   0.252 -0.6772  0.1697  0.8940
 3142TIP3    H130985   0.784   2.809   0.276  0.3058 -0.6824  0.4203
 3142TIP3    H230986   0.648   2.799   0.211 -0.0764  0.9905  0.9245
 3143TIP3   OH230987   6.731   0.597   2.072 -0.9825 -0.3370  0.1919
 3143TIP3    H130988   6.814   0.561   2.041 -1.1761  0.1328 -0.8925
 3143TIP3    H230989   6.696   0.529   2.130  0.0411 -0.6353  0.4785
 3144TIP3   OH230990   1.931   3.289   2.801 -0.8577  0.1640 -0.1036
 3144TIP3    H130991   1.957   3.369   2.847  0.3673  1.2228 -2.4750
 3144TIP3    H230992   2.013   3.242   2.786 -1.3986 -0.8273  0.0240
 3145TIP3   OH230993   0.048   3.247   0.388 -0.5810  0.2407  0.1814
 3145TIP3    H130994   0.061   3.329   0.340 -2.0915 -0.1900 -1.0347
 3145TIP3    H230995   0.051   3.179   0.321  0.8907 -0.7693  1.2015
 3146TIP3   OH230996   1.983   0.483   7.940  0.7798  0.1766  0.2645
 3146TIP3    H130997   2.075   0.490   7.913  0.5495 -0.7172 -0.7868
 3146TIP3    H230998   1.976   0.395   7.977  0.0641 -0.2088 -0.7731
 3147TIP3   OH230999   3.876   3.319   0.499 -0.2962  0.0934  0.0266
 3147TIP3    H131000   3.812   3.249   0.486  0.3921 -0.8149  1.3269
 3147TIP3    H231001   3.959   3.274   0.514  0.4574  1.2355 -0.5723
 3148TIP3   OH231002   6.419   6.063   2.022  0.1391  0.1145  0.1585
 3148TIP3    H131003   6.342   6.039   2.075  0.6223  0.9702  1.3032
 3148TIP3    H231004   6.383   6.089   1.937 -0.9391  1.2727  0.9299
 3149TIP3   OH231005   4.975   6.756   0.085 -0.0191  0.4929 -0.5043
 3149TIP3    H131006   4.888   6.790   0.104 -0.2890 -1.3030  1.9003
 3149TIP3    H231007   5.031   6.796   0.152  0.2430 -1.2285  0.3594
 3150TIP3   OH231008   0.695   2.335   0.272 -0.0076 -0.0775  0.2287
 3150TIP3    H131009   0.759   2.390   0.318  0.5421 -1.7311  1.5452
 3150TIP3    H231010   0.742   2.253   0.254 -0.6604 -0.0246 -2.0809
 3151TIP3   OH231011   3.863   4.835   1.527  0.3479 -0.5759  0.1604
 3151TIP3    H131012   3.848   4.908   1.466 -0.1490  0.5705  1.5906
 3151TIP3    H231013   3.915   4.773   1.477 -1.3658 -0.4249 -1.9727
 3152TIP3   OH231014   3.041   3.087   8.192  0.0445  0.3564 -0.0172
 3152TIP3    H131015   2.981   3.044   8.132  0.4072  1.6175 -1.3373
 3152TIP3    H231016   3.115   3.028   8.199  0.2803  0.4828 -1.3328
 3153TIP3   OH231017   5.089   1.011   0.565  0.5015 -0.7090  0.0599
 3153TIP3    H131018   5.026   1.082   0.552  0.4140 -1.1908 -2.7464
 3153TIP3    H231019   5.116   1.020   0.656 -0.3301  2.2330  0.1334
 3154TIP3   OH231020   5.775   4.410   7.966 -0.4795  0.2084  0.6797
 3154TIP3    H131021   5.782   4.410   7.871  2.2264 -0.5381  0.7915
 3154TIP3    H231022   5.812   4.494   7.993 -2.0552  0.8135  1.1010
 3155TIP3   OH231023   0.872   0.530   7.905 -0.5325  0.0877 -0.0057
 3155TIP3    H131024   0.870   0.435   7.914  0.5477  0.0596  0.0712
 3155TIP3    H231025   0.901   0.545   7.816  1.9763  0.3015  0.7711
 3156TIP3   OH231026   4.744   1.650   0.527  0.3917  0.1951 -0.4763
 3156TIP3    H131027   4.660   1.608   0.542  0.7368 -0.5298 -0.5076
 3156TIP3    H231028   4.777   1.609   0.446  1.5375 -0.8036  0.4471
 3157TIP3   OH231029   4.436   2.282   8.429  0.1631 -0.1832  0.3962
 3157TIP3    H131030   4.406   2.246   8.512 -1.1757 -0.8793 -0.3478
 3157TIP3    H231031   4.362   2.268   8.369  0.8208  0.9631 -0.7214
 3158TIP3   OH231032   1.279   1.253   0.777 -0.6110  0.6449  0.2856
 3158TIP3    H131033   1.191   1.217   0.774  0.4354 -2.1937  0.0203
 3158TIP3    H231034   1.302   1.254   0.870 -1.1769  2.2333  0.4399
 3159TIP3   OH231035   3.477   4.193   0.549  0.3397 -0.0166 -0.0887
 3159TIP3    H131036   3.440   4.272   0.510 -0.9443 -0.2458  0.6112
 3159TIP3    H231037   3.537   4.225   0.617  2.2616  0.3728 -1.8784
 3160TIP3   OH231038   0.303   6.648   8.517 -0.0315  0.5338  0.3984
 3160TIP3    H131039   0.321   6.730   8.471 -0.2009  0.0519 -0.5601
 3160TIP3    H231040   0.232   6.669   8.578  1.0013  1.4662  1.3141
 3161TIP3   OH231041   2.020   2.638   1.839  0.1397 -0.3743 -0.1430
 3161TIP3    H131042   2.006   2.638   1.933  1.6416  0.2181  0.1102
 3161TIP3    H231043   1.935   2.660   1.802 -1.2511 -3.4513  0.8913
 3162TIP3   OH231044   3.828   0.060   1.777  0.1539 -0.0934 -0.0593
 3162TIP3    H131045   3.833   0.079   1.684  0.7690 -2.7159 -0.6216
 3162TIP3    H231046   3.874   0.134   1.818 -3.2732  3.0721 -1.3988
 3163TIP3   OH231047   1.724   3.850   8.298  0.5951 -0.5027  0.3126
 3163TIP3    H131048   1.668   3.928   8.298  1.1224 -0.0615 -2.1257
 3163TIP3    H231049   1.777   3.859   8.378 -0.6187  0.6582  1.0281
 3164TIP3   OH231050   4.248   0.714   8.206  0.1024 -0.0025  0.0315
 3164TIP3    H131051   4.205   0.742   8.125 -0.7963  0.0593  0.5105
 3164TIP3    H231052   4.225   0.782   8.270 -0.9588 -1.0782  0.8566
 3165TIP3   OH231053   1.409   4.853   7.721  0.0936 -0.5742  0.1465
 3165TIP3    H131054   1.350   4.905   7.666  0.9199 -0.8790 -1.0770
 3165TIP3    H231055   1.352   4.810   7.785 -0.8854 -0.1359 -0.4185
 3166TIP3   OH231056   5.922   2.392   0.846 -0.5194 -0.1434  0.2403
 3166TIP3    H131057   5.871   2.322   0.808  0.6067 -1.5220  1.1614
 3166TIP3    H231058   6.010   2.382   0.808 -0.1259  0.2174  1.0122
 3167TIP3   OH231059   6.172   4.606   0.336  0.2890  0.2466 -0.3679
 3167TIP3    H131060   6.263   4.612   0.305 -0.0006  1.6512 -1.0272
 3167TIP3    H231061   6.129   4.548   0.273  0.3784  0.8131 -0.9614
 3168TIP3   OH231062   5.555   1.864   0.465 -0.1885  0.1172 -0.0373
 3168TIP3    H131063   5.470   1.888   0.427  0.6010  1.3234 -1.1212
 3168TIP3    H231064   5.533   1.829   0.552 -1.6338  3.1561  0.9847
 3169TIP3   OH231065   4.187   0.987   8.312 -0.0249  0.6576  0.2793
 3169TIP3    H131066   4.277   1.007   8.286 -0.5107  1.6555 -0.6737
 3169TIP3    H231067   4.140   1.070   8.306 -1.2729 -0.0598 -0.3354
 3170TIP3   OH231068   6.728   2.554   0.856 -0.0672 -0.3667  0.0436
 3170TIP3    H131069   6.753   2.489   0.922  0.9748  0.2015  0.2495
 3170TIP3    H231070   6.728   2.637   0.905  2.3046  0.3139 -0.9401
 3171TIP3   OH231071   0.761   1.120   1.800  0.5109  0.5129  0.0713
 3171TIP3    H131072   0.848   1.104   1.836  0.0726  1.4483  1.6530
 3171TIP3    H231073   0.701   1.097   1.871 -0.5313  0.2076 -0.8733
 3172TIP3   OH231074   5.037   5.253   1.234  0.3582  0.4995  0.6133
 3172TIP3    H131075   5.066   5.246   1.143 -1.1306 -0.1010  0.1412
 3172TIP3    H231076   4.988   5.335   1.238 -0.0695  0.2487  0.7026
 3173TIP3   OH231077   5.271   1.419   0.654  0.4041 -0.2214  0.0355
 3173TIP3    H131078   5.196   1.427   0.596  1.6493  0.6988 -1.5177
 3173TIP3    H231079   5.304   1.330   0.640 -0.1870 -0.5205  0.4934
 3174TIP3   OH231080   6.366   1.503   1.571 -0.1611 -0.5608 -0.5749
 3174TIP3    H131081   6.375   1.443   1.645 -0.7189  0.1681  0.1018
 3174TIP3    H231082   6.454   1.507   1.532  0.2154 -0.7198  0.2350
 3175TIP3   OH231083   0.729   3.872   8.167  0.2860  0.0098  0.6863
 3175TIP3    H131084   0.706   3.911   8.251  2.0310 -0.1078  1.2491
 3175TIP3    H231085   0.816   3.834   8.181  2.0453  2.6106 -1.9714
 3176TIP3   OH231086   0.651   3.164   2.373  0.0529 -0.1727  0.2335
 3176TIP3    H131087   0.719   3.140   2.310  0.5410  0.3462  0.5505
 3176TIP3    H231088   0.686   3.135   2.458 -0.0294  0.2866  0.4239
 3177TIP3   OH231089   4.396   4.768   6.890 -0.0256  0.9126 -0.8086
 3177TIP3    H131090   4.417   4.688   6.842  1.0109  0.3308  0.5719
 3177TIP3    H231091   4.308   4.752   6.924 -0.8198  1.3683 -2.5152
 3178TIP3   OH231092   2.459   3.558   1.978  0.4003  0.5972 -0.4210
 3178TIP3    H131093   2.390   3.616   1.945 -0.4363 -0.6389 -0.9264
 3178TIP3    H231094   2.416   3.504   2.043  0.9180 -0.1037 -0.6419
 3179TIP3   OH231095   0.356   1.797   7.032 -0.4490 -0.0888 -0.2508
 3179TIP3    H131096   0.306   1.718   7.051 -0.8150  0.4955  1.3121
 3179TIP3    H231097   0.308   1.839   6.961 -1.4466 -0.1876  0.3605
 3180TIP3   OH231098   0.939   3.184   1.000 -0.0612  0.3220  0.3443
 3180TIP3    H131099   0.921   3.277   0.984  1.2944  0.3649 -1.0999
 3180TIP3    H231100   0.852   3.144   1.006 -0.6728  1.7005  1.2895
 3181TIP3   OH231101   0.758   3.850   0.627  0.4890 -0.1020 -0.2484
 3181TIP3    H131102   0.767   3.940   0.655  2.3157  0.2195 -1.6715
 3181TIP3    H231103   0.813   3.800   0.687 -0.0301 -0.2018  0.1531
 3182TIP3   OH231104   1.759   2.019   0.766  0.1919  0.3644  0.0139
 3182TIP3    H131105   1.711   1.983   0.691  0.4349  1.6165 -0.7847
 3182TIP3    H231106   1.697   2.013   0.839 -2.2361  4.0358 -1.4419
 3183TIP3   OH231107   5.665   1.117   1.870  0.1703  0.0559 -0.0102
 3183TIP3    H131108   5.739   1.062   1.896 -1.3606 -3.4625 -2.3251
 3183TIP3    H231109   5.614   1.129   1.950  1.3637 -0.5248  0.8664
 3184TIP3   OH231110   5.385   5.360   8.547  0.8293  0.2835  0.0666
 3184TIP3    H131111   5.446   5.371   8.620 -0.3406  1.2551  0.9329
 3184TIP3    H231112   5.438   5.323   8.477  2.1488  0.0244  1.1679
 3185TIP3   OH231113   3.887   3.812   7.998 -0.7214  0.3966  0.1728
 3185TIP3    H131114   3.859   3.801   7.907 -0.1045 -0.2004  0.0482
 3185TIP3    H231115   3.960   3.751   8.008 -0.8914  0.3373  1.1187
 3186TIP3   OH231116   5.890   6.601   1.862 -0.1018 -0.0930  0.3428
 3186TIP3    H131117   5.959   6.635   1.919  1.3925  0.2804 -1.5907
 3186TIP3    H231118   5.922   6.617   1.773 -1.4327 -2.4099 -0.6427
 3187TIP3   OH231119   3.447   0.345   0.337 -0.3988 -0.3157 -0.0003
 3187TIP3    H131120   3.438   0.440   0.332  2.2919  0.0102 -0.0083
 3187TIP3    H231121   3.409   0.322   0.422 -1.0359  0.7650  0.0247
 3188TIP3   OH231122   5.724   2.210   2.868 -0.1008  0.4062  0.0306
 3188TIP3    H131123   5.791   2.165   2.919  0.1400  0.3797 -0.3142
 3188TIP3    H231124   5.681   2.268   2.932  2.7101  3.2823 -0.4510
 3189TIP3   OH231125   5.632   0.228   1.695  0.1409 -0.3002 -0.0627
 3189TIP3    H131126   5.716   0.269   1.674 -0.4928  2.0899  1.7478
 3189TIP3    H231127   5.655   0.155   1.753  1.0262 -0.1480 -0.2109
 3190TIP3   OH231128   3.896   5.747   0.326 -0.9952 -0.3877 -0.2139
 3190TIP3    H131129   3.907   5.751   0.421 -1.3748  1.7350 -0.2082
 3190TIP3    H231130   3.802   5.729   0.314 -0.4391 -4.0419 -0.2711
 3191TIP3   OH231131   5.191   5.931   0.287  0.4095 -0.2519 -0.2433
 3191TIP3    H131132   5.126   5.976   0.341  0.3628  0.6972 -1.0497
 3191TIP3    H231133   5.177   5.838   0.304 -1.6424 -0.1061 -0.9152
 3192TIP3   OH231134   5.468   1.074   8.434 -0.5577 -0.2649  0.0611
 3192TIP3    H131135   5.497   1.123   8.357 -2.0430 -1.2415 -1.1975
 3192TIP3    H231136   5.469   1.137   8.506 -1.4512  1.3586 -1.2856
 3193TIP3   OH231137   5.813   1.220   0.396  0.5585  0.4367 -0.4105
 3193TIP3    H131138   5.833   1.253   0.484  0.2870  0.6702 -0.4319
 3193TIP3    H231139   5.812   1.125   0.406  0.7566  0.4548 -0.2095
 3194TIP3   OH231140   0.415   0.497   1.127  0.3958 -0.8606  0.1429
 3194TIP3    H131141   0.404   0.403   1.113  0.9410 -0.6797 -1.7362
 3194TIP3    H231142   0.509   0.511   1.134  0.3326 -0.4138  0.1901
 3195TIP3   OH231143   2.299   0.314   0.464 -0.3577  0.6381  0.3638
 3195TIP3    H131144   2.247   0.371   0.521 -1.6663 -2.1082  2.1523
 3195TIP3    H231145   2.364   0.275   0.522 -0.3707 -0.6789 -0.4647
 3196TIP3   OH231146   4.014   5.288   7.000  0.0859  0.1934  0.8933
 3196TIP3    H131147   4.040   5.222   6.936 -0.3976 -0.3760  1.2715
 3196TIP3    H231148   3.941   5.334   6.960 -0.7475 -0.6979  1.3410
 3197TIP3   OH231149   1.323   1.951   8.646 -0.4764  0.4822  0.2540
 3197TIP3    H131150   1.337   2.041   8.618  0.0148  0.7981  1.4421
 3197TIP3    H231151   1.411   1.916   8.661 -0.6156  1.4079  4.5153
 3198TIP3   OH231152   2.863   6.162   2.153  0.4608 -0.8201  0.2057
 3198TIP3    H131153   2.819   6.228   2.207  2.4725  0.5219  0.3307
 3198TIP3    H231154   2.950   6.155   2.192  0.0057 -4.4611  0.9070
 3199TIP3   OH231155   2.100   5.120   0.411 -0.3282  0.1642  0.4326
 3199TIP3    H131156   2.070   5.127   0.502 -1.0130  1.9232  0.1148
 3199TIP3    H231157   2.096   5.210   0.378 -0.7179 -0.5423 -1.5491
 3200TIP3   OH231158   4.585   3.962   1.515  0.0433 -0.1441 -0.8844
 3200TIP3    H131159   4.506   3.909   1.503 -1.1008  1.5234 -1.0247
 3200TIP3    H231160   4.613   3.984   1.426 -1.2773  1.9649 -0.8417
 3201TIP3   OH231161   5.086   6.269   3.605 -0.1524  0.3881  0.2481
 3201TIP3    H131162   5.075   6.264   3.510  0.9242 -1.2791  0.1546
 3201TIP3    H231163   5.165   6.217   3.622  1.3437  2.9508  1.7899
 3202TIP3   OH231164   4.383   5.781   1.310  0.4246  0.2904  0.1245
 3202TIP3    H131165   4.423   5.785   1.397  0.0778 -0.2982  0.3166
 3202TIP3    H231166   4.313   5.847   1.313  0.1581 -0.0031  0.4286
 3203TIP3   OH231167   6.069   0.124   8.616 -0.1767 -0.0707  0.1424
 3203TIP3    H131168   6.041   0.058   8.552  1.1385 -0.3974 -0.1316
 3203TIP3    H231169   6.029   0.205   8.586  0.1140 -0.2941 -0.9041
 3204TIP3   OH231170   4.482   1.546   6.949 -0.8749  0.1036  0.2392
 3204TIP3    H131171   4.573   1.556   6.976 -1.2194 -1.4984  2.2030
 3204TIP3    H231172   4.475   1.600   6.870  1.7303  0.3271  0.0657
 3205TIP3   OH231173   1.582   3.277   8.361 -0.3093 -0.0543  0.2351
 3205TIP3    H131174   1.604   3.211   8.296 -0.1602 -0.4786  0.7158
 3205TIP3    H231175   1.616   3.243   8.443  1.9901  1.7251  0.1261
 3206TIP3   OH231176   0.717   5.269   0.752 -0.3998 -0.3204  0.0808
 3206TIP3    H131177   0.759   5.211   0.688  0.3225  0.3320 -0.0393
 3206TIP3    H231178   0.748   5.238   0.837  0.9066  0.5967 -0.0391
 3207TIP3   OH231179   5.810   5.467   0.973 -0.0983  0.4214 -0.0633
 3207TIP3    H131180   5.730   5.465   0.920  0.4731  3.4880 -1.2302
 3207TIP3    H231181   5.791   5.533   1.041  0.8233 -0.1417  0.7646
 3208TIP3   OH231182   6.348   2.677   2.853 -0.1118  0.4745 -0.2302
 3208TIP3    H131183   6.419   2.631   2.898 -0.2547  0.0868 -0.4013
 3208TIP3    H231184   6.306   2.729   2.922 -0.4544 -0.2714  0.1339
 3209TIP3   OH231185   5.676   6.409   1.620  0.1500 -0.7315  0.2085
 3209TIP3    H131186   5.741   6.478   1.606 -0.2219 -0.0101  1.7721
 3209TIP3    H231187   5.718   6.330   1.586  0.9338  0.1052 -0.8312
 3210TIP3   OH231188   2.034   4.603   1.909  0.3098  0.1712  0.1280
 3210TIP3    H131189   2.098   4.610   1.980  0.7592  1.8447 -0.4052
 3210TIP3    H231190   2.083   4.622   1.830 -0.4027 -0.6860 -0.5451
 3211TIP3   OH231191   4.650   0.993   2.376  0.0985  0.3437 -0.4847
 3211TIP3    H131192   4.722   1.000   2.313 -0.1739  0.7053 -0.7628
 3211TIP3    H231193   4.690   1.009   2.461  0.4522 -0.0471 -0.5759
 3212TIP3   OH231194   1.122   2.054   8.373  0.0077 -0.1871  0.9070
 3212TIP3    H131195   1.105   2.000   8.450  0.0303 -1.5157 -0.0030
 3212TIP3    H231196   1.141   2.141   8.409  0.8614 -0.9746  2.4572
 3213TIP3   OH231197   6.545   2.314   1.251  0.2186 -0.2191  0.4543
 3213TIP3    H131198   6.460   2.275   1.233 -0.1642  0.9570 -0.3633
 3213TIP3    H231199   6.527   2.386   1.312  0.5478  0.3348 -0.0855
 3214TIP3   OH231200   0.311   2.692   8.363 -0.3652  0.6241 -0.5135
 3214TIP3    H131201   0.267   2.608   8.348  0.7983  0.0605 -0.9263
 3214TIP3    H231202   0.272   2.726   8.443  1.4490 -1.9515  1.6405
 3215TIP3   OH231203   1.111   3.004   7.564  0.5715 -0.3936 -0.3638
 3215TIP3    H131204   1.128   3.012   7.471 -0.0437 -0.0315 -0.4525
 3215TIP3    H231205   1.027   3.049   7.577  0.3639 -0.9414  0.2604
 3216TIP3   OH231206   4.136   6.576   2.018 -0.4522  0.4549  0.1036
 3216TIP3    H131207   4.226   6.592   1.989 -1.0086 -0.3333 -2.2813
 3216TIP3    H231208   4.102   6.663   2.040  0.4170  0.9682 -0.5019
 3217TIP3   OH231209   4.967   4.156   0.371 -0.0564 -0.4810 -0.3361
 3217TIP3    H131210   5.039   4.194   0.421 -0.3108  0.1182 -0.4140
 3217TIP3    H231211   4.899   4.138   0.437 -0.1849 -0.1920 -0.3878
 3218TIP3   OH231212   3.973   3.345   2.062  0.4694 -0.1230 -0.4705
 3218TIP3    H131213   4.032   3.341   1.987  2.2886 -1.4977  0.9209
 3218TIP3    H231214   3.926   3.261   2.060 -2.6622  1.5162 -2.3755
 3219TIP3   OH231215   4.184   3.738   0.400  0.2583  0.2557 -0.4190
 3219TIP3    H131216   4.198   3.663   0.457  1.3857  1.8186  1.4940
 3219TIP3    H231217   4.218   3.710   0.314 -1.0698 -1.9940 -0.2688
 3220TIP3   OH231218   4.647   0.191   6.933 -0.0076 -0.2606  0.0259
 3220TIP3    H131219   4.636   0.259   7.000 -0.2162 -1.3939  1.1709
 3220TIP3    H231220   4.724   0.219   6.884  0.2894  0.4920  0.8825
 3221TIP3   OH231221   0.280   0.161   1.496 -0.1659  0.3960 -0.2361
 3221TIP3    H131222   0.266   0.143   1.589 -1.5065 -2.9346 -0.9069
 3221TIP3    H231223   0.369   0.196   1.491  0.3456 -0.3671  2.2172
 3222TIP3   OH231224   2.056   1.078   0.910  0.4453 -0.1560  0.5772
 3222TIP3    H131225   2.018   1.112   0.991  2.4344  2.1121  0.6638
 3222TIP3    H231226   2.120   1.013   0.939  0.8920  0.3861  0.8283
 3223TIP3   OH231227   3.204   3.502   8.624  0.0873  0.3995  0.0505
 3223TIP3    H131228   3.152   3.451   8.686  0.0226  0.8663  0.3812
 3223TIP3    H231229   3.293   3.501   8.661 -0.2962  2.2064  1.1407
 3224TIP3   OH231230   2.970   5.663   2.186  0.0482  0.0670  0.3526
 3224TIP3    H131231   3.054   5.683   2.146  0.2741  0.2001  0.8922
 3224TIP3    H231232   2.991   5.610   2.262 -0.3821 -0.1906  0.2991
 3225TIP3   OH231233   1.359   4.113   0.186 -0.3292  0.3862 -0.0359
 3225TIP3    H131234   1.268   4.127   0.214 -0.0503  1.4464  0.3901
 3225TIP3    H231235   1.387   4.198   0.151  0.3156 -0.0931 -0.7237
 3226TIP3   OH231236   3.282   6.171   1.269  0.3023  0.1663 -0.1632
 3226TIP3    H131237   3.363   6.168   1.219 -0.5529  0.6783 -1.6249
 3226TIP3    H231238   3.216   6.135   1.210 -0.6658  0.3889  0.7566
 3227TIP3   OH231239   6.517   6.764   0.466  0.1949 -0.2508  0.3033
 3227TIP3    H131240   6.450   6.698   0.488  0.0037 -0.5722 -1.1784
 3227TIP3    H231241   6.466   6.842   0.442  0.4170  0.3772  1.7523
 3228TIP3   OH231242   0.983   4.964   8.668 -0.0239 -0.1451  0.0290
 3228TIP3    H131243   0.989   4.903   8.741  0.5291 -0.0631  0.0579
 3228TIP3    H231244   1.015   4.914   8.593  2.7197  0.7879  0.4736
 3229TIP3   OH231245   2.366   4.589   0.306  0.1465 -0.1906 -0.1476
 3229TIP3    H131246   2.372   4.608   0.213  1.9723 -0.2042 -0.0655
 3229TIP3    H231247   2.410   4.504   0.316 -0.8165 -0.6168  0.6073
 3230TIP3   OH231248   1.359   0.469   1.693 -0.1819  0.4389  0.6051
 3230TIP3    H131249   1.448   0.434   1.698 -0.1119  0.5956  0.4820
 3230TIP3    H231250   1.323   0.457   1.781  0.5347  1.8773  1.1268
 3231TIP3   OH231251   4.454   4.189   1.505  0.0373  0.6188  0.3099
 3231TIP3    H131252   4.444   4.223   1.416 -2.3596  1.4656  0.8125
 3231TIP3    H231253   4.508   4.111   1.496 -1.0452  0.0779 -2.0471
 3232TIP3   OH231254   6.601   6.571   0.826  0.6972 -0.1603 -0.7761
 3232TIP3    H131255   6.638   6.630   0.891 -0.0641  0.2174 -0.6747
 3232TIP3    H231256   6.518   6.542   0.864  0.9402 -1.1009 -0.9396
 3233TIP3   OH231257   2.168   1.959   7.724  0.4532  0.1973 -0.0326
 3233TIP3    H131258   2.176   1.985   7.633 -0.1589 -0.0314 -0.1522
 3233TIP3    H231259   2.076   1.936   7.735 -0.2101  3.1085  1.3957
 3234TIP3   OH231260   0.779   3.897   7.895  0.1976  0.4341  0.2562
 3234TIP3    H131261   0.858   3.846   7.883  1.4265  2.0209  1.1626
 3234TIP3    H231262   0.757   3.887   7.987 -1.2231 -0.7215 -0.1741
 3235TIP3   OH231263   6.406   2.977   2.514 -0.0735 -0.6178  0.6816
 3235TIP3    H131264   6.472   2.977   2.584  1.6597 -1.0492 -0.8532
 3235TIP3    H231265   6.409   3.066   2.478  0.2864 -0.8578  0.0951
 3236TIP3   OH231266   0.885   4.134   7.596  0.3253  0.2605 -0.3741
 3236TIP3    H131267   0.865   4.050   7.554  0.7133 -0.6468  1.1753
 3236TIP3    H231268   0.833   4.198   7.548 -1.2660 -1.1056 -0.5422
 3237TIP3   OH231269   1.781   1.344   0.588  0.1246  0.1656 -0.4401
 3237TIP3    H131270   1.840   1.418   0.579 -0.6145  0.6934 -1.0265
 3237TIP3    H231271   1.828   1.283   0.645  1.6202  0.1701 -1.6153
 3238TIP3   OH231272   2.601   4.382   0.472 -0.3044  0.3271 -0.3925
 3238TIP3    H131273   2.625   4.289   0.462 -0.0876  0.5364 -2.1715
 3238TIP3    H231274   2.619   4.401   0.564 -1.2114 -1.6310  0.2615
 3239TIP3   OH231275   6.135   0.435   7.182 -0.3754 -0.6196  0.0625
 3239TIP3    H131276   6.228   0.411   7.186 -0.2247 -0.0912 -0.2421
 3239TIP3    H231277   6.134   0.519   7.137 -0.7483  0.7658  2.5102
 3240TIP3   OH231278   0.990   1.420   1.575  0.5073 -0.3790 -0.0703
 3240TIP3    H131279   0.962   1.340   1.532 -2.4354  0.2259  0.4983
 3240TIP3    H231280   0.942   1.422   1.657  5.1125 -0.9588  3.0300
 3241TIP3   OH231281   4.765   2.410   1.483  0.0508  0.3019  0.3328
 3241TIP3    H131282   4.842   2.355   1.498 -1.3155 -2.1540 -1.0223
 3241TIP3    H231283   4.780   2.449   1.397 -0.3825 -0.5758 -0.1593
 3242TIP3   OH231284   4.381   3.122   2.976 -0.0234 -0.8488  0.2537
 3242TIP3    H131285   4.342   3.202   2.942  0.5057 -0.5840  0.2543
 3242TIP3    H231286   4.307   3.063   2.990 -0.2328 -1.0767 -1.6022
 3243TIP3   OH231287   5.551   6.083   3.394  0.1037 -0.1355  0.2184
 3243TIP3    H131288   5.567   6.008   3.337 -1.6357  1.3839 -2.4758
 3243TIP3    H231289   5.633   6.133   3.391 -0.5208  0.8793 -2.6212
 3244TIP3   OH231290   1.689   2.889   0.799  0.1254  0.7759  0.1754
 3244TIP3    H131291   1.761   2.827   0.800  1.3711  2.1857  0.5970
 3244TIP3    H231292   1.683   2.919   0.709  0.0410  0.6485  0.1378
 3245TIP3   OH231293   0.593   6.517   2.428 -0.1615  0.4099  0.0930
 3245TIP3    H131294   0.500   6.497   2.417  0.2578 -0.4965 -2.6528
 3245TIP3    H231295   0.623   6.455   2.495 -0.8916 -1.7686 -1.4735
 3246TIP3   OH231296   1.655   1.013   2.070 -0.3497  0.3522 -0.3673
 3246TIP3    H131297   1.577   0.997   2.017 -0.4665 -1.2127  0.2260
 3246TIP3    H231298   1.642   1.101   2.105 -1.5919  0.3267 -0.7178
 3247TIP3   OH231299   3.637   3.012   7.525  0.4366  0.1178  0.2512
 3247TIP3    H131300   3.597   3.061   7.453  0.0050  0.5870  0.7946
 3247TIP3    H231301   3.730   3.031   7.518  0.2368  1.3520  0.6795
 3248TIP3   OH231302   5.678   0.299   8.635  0.2216  0.7249 -0.6245
 3248TIP3    H131303   5.586   0.314   8.612  0.5662  2.8446 -0.8113
 3248TIP3    H231304   5.728   0.343   8.566  1.3281  1.7543  0.7740
 3249TIP3   OH231305   5.170   2.366   7.705  0.0336  0.3859 -0.1953
 3249TIP3    H131306   5.246   2.310   7.689 -0.9337 -1.4551  1.3052
 3249TIP3    H231307   5.132   2.378   7.618 -0.4400 -2.4109 -0.4724
 3250TIP3   OH231308   3.522   5.099   1.977 -0.1339 -0.0520 -0.4965
 3250TIP3    H131309   3.577   5.120   1.901  0.3150  0.3554 -0.0685
 3250TIP3    H231310   3.434   5.089   1.941  0.2654 -1.0527 -1.2526
 3251TIP3   OH231311   2.693   1.403   8.203 -0.3924 -0.5856  0.1573
 3251TIP3    H131312   2.696   1.429   8.295 -1.5583  0.6454 -0.1107
 3251TIP3    H231313   2.765   1.451   8.162  0.8753 -2.0433  0.6014
 3252TIP3   OH231314   2.931   5.935   7.473  0.1943  0.3524  0.2115
 3252TIP3    H131315   3.010   5.917   7.524  0.3380 -0.0415 -0.1492
 3252TIP3    H231316   2.952   5.905   7.385 -0.6846 -0.6011  0.3132
 3253TIP3   OH231317   6.314   3.553   1.837  0.6027  0.6615  0.3718
 3253TIP3    H131318   6.403   3.564   1.802  1.4025  0.6999  2.2862
 3253TIP3    H231319   6.296   3.634   1.884 -0.3451  0.5350  0.2483
 3254TIP3   OH231320   2.787   1.230   1.334  0.7879  0.3711 -0.0206
 3254TIP3    H131321   2.814   1.201   1.421  2.1774 -2.0877 -1.1495
 3254TIP3    H231322   2.692   1.233   1.337  0.7793 -0.5394  1.3431
 3255TIP3   OH231323   2.281   5.608   2.051 -0.5878  0.3095  0.2760
 3255TIP3    H131324   2.351   5.545   2.066 -0.3503  0.7052  0.9113
 3255TIP3    H231325   2.276   5.618   1.956 -0.6665 -0.6937  0.1672
 3256TIP3   OH231326   2.531   4.999   2.177  0.2704  0.4942 -0.0983
 3256TIP3    H131327   2.609   5.045   2.207  0.5755 -0.3098  0.3951
 3256TIP3    H231328   2.517   4.931   2.243  0.5485 -0.8865 -1.3985
 3257TIP3   OH231329   6.790   6.245   7.313  0.1664  0.0329 -0.3223
 3257TIP3    H131330   6.698   6.244   7.286  0.1565  1.8662 -0.5202
 3257TIP3    H231331   6.788   6.218   7.405 -0.9021  2.2543  0.3822
 3258TIP3   OH231332   1.617   1.914   1.601 -0.3332  0.1832  0.1613
 3258TIP3    H131333   1.545   1.855   1.576 -0.3907  0.6944 -0.9399
 3258TIP3    H231334   1.693   1.879   1.555 -0.4880  1.2692 -0.9693
 3259TIP3   OH231335   0.609   1.734   6.943 -0.1318 -0.1972  0.2905
 3259TIP3    H131336   0.530   1.758   6.993  1.0651 -0.2025  2.3097
 3259TIP3    H231337   0.600   1.639   6.930 -0.4977 -0.1892  0.4498
 3260TIP3   OH231338   5.094   6.779   7.963 -0.0359  0.4437  0.0078
 3260TIP3    H131339   5.051   6.798   8.046 -2.3003  0.0475 -0.9973
 3260TIP3    H231340   5.158   6.711   7.984 -1.1045 -0.1974  1.2866
 3261TIP3   OH231341   5.206   1.702   0.607  0.4243  0.1954  0.1360
 3261TIP3    H131342   5.238   1.613   0.623  1.0385 -0.0265 -1.9937
 3261TIP3    H231343   5.181   1.702   0.514 -3.3086  1.1406  0.9716
 3262TIP3   OH231344   3.908   5.637   2.027  0.3231 -0.0034  0.7221
 3262TIP3    H131345   3.856   5.653   1.948  0.4911 -1.5580  0.2635
 3262TIP3    H231346   3.916   5.723   2.069 -0.2337  0.7487 -0.6653
 3263TIP3   OH231347   5.117   1.805   8.381 -0.7561  0.2420  0.5499
 3263TIP3    H131348   5.127   1.873   8.448  1.4203  1.4979 -0.9235
 3263TIP3    H231349   5.089   1.853   8.302  1.6993 -0.3219 -0.7704
 3264TIP3   OH231350   3.832   1.310   2.486  0.0167  0.4904  0.0693
 3264TIP3    H131351   3.799   1.280   2.400  0.9011  0.5440 -0.2962
 3264TIP3    H231352   3.757   1.354   2.526 -0.8173 -0.7211 -0.1014
 3265TIP3   OH231353   5.430   5.906   0.616 -0.0460  0.2070  0.7138
 3265TIP3    H131354   5.428   6.000   0.635  0.2866  1.1133 -2.9725
 3265TIP3    H231355   5.516   5.877   0.647  1.0630  1.8353 -0.6502
 3266TIP3   OH231356   0.431   2.488   2.557 -0.1935 -0.2918 -0.4633
 3266TIP3    H131357   0.393   2.464   2.642  0.6389  1.8201  0.5743
 3266TIP3    H231358   0.375   2.559   2.525  0.1944 -0.2768 -1.1256
 3267TIP3   OH231359   2.167   6.446   2.533 -0.0990 -0.0056 -0.0796
 3267TIP3    H131360   2.126   6.476   2.614  2.1904  0.4183  0.9835
 3267TIP3    H231361   2.178   6.352   2.545  1.2708  0.2210  0.6389
 3268TIP3   OH231362   4.083   0.771   3.004  0.2479 -0.3400 -0.1144
 3268TIP3    H131363   4.129   0.843   2.962  0.6962 -0.2089  0.5908
 3268TIP3    H231364   4.072   0.706   2.934  0.2785  0.1972 -0.6285
 3269TIP3   OH231365   6.806   2.132   1.082 -0.2407  0.5014  0.4076
 3269TIP3    H131366   6.837   2.066   1.020 -1.0474  0.0299  0.4970
 3269TIP3    H231367   6.740   2.087   1.134 -1.3402  1.5653 -0.0158
 3270TIP3   OH231368   6.381   1.334   8.555  0.4791 -0.5927 -0.0065
 3270TIP3    H131369   6.312   1.300   8.498  0.0068 -1.4755  1.0518
 3270TIP3    H231370   6.458   1.342   8.498 -0.2529 -0.4663 -0.9846
 3271TIP3   OH231371   6.732   1.977   7.862 -0.1512  0.3877  0.1722
 3271TIP3    H131372   6.790   1.911   7.822 -1.0648 -0.2801 -0.0966
 3271TIP3    H231373   6.735   1.958   7.955 -0.1131  0.2122  0.1355
 3272TIP3   OH231374   3.324   3.830   2.159  0.4040 -0.5563  0.2139
 3272TIP3    H131375   3.374   3.912   2.167 -0.9729  0.3223  0.0304
 3272TIP3    H231376   3.307   3.822   2.065 -1.4265  0.1768  0.4477
 3273TIP3   OH231377   3.868   2.174   0.827  0.0425  0.4239 -0.1669
 3273TIP3    H131378   3.832   2.247   0.876  0.5969  0.6416 -0.0795
 3273TIP3    H231379   3.906   2.116   0.893 -0.0950  0.2216 -0.2616
 3274TIP3   OH231380   4.932   4.504   8.711  0.4551 -0.4092  0.2848
 3274TIP3    H131381   4.952   4.466   8.626  2.2168  1.5444 -0.2483
 3274TIP3    H231382   4.836   4.501   8.716  0.3570 -1.2867 -1.3949
 3275TIP3   OH231383   4.190   5.810   8.030  0.5115  0.6114  0.6172
 3275TIP3    H131384   4.278   5.778   8.048 -0.2528 -0.8699  2.0132
 3275TIP3    H231385   4.187   5.896   8.071  1.1833  0.4878  0.9385
 3276TIP3   OH231386   5.456   5.962   8.276  0.3730  0.0279 -0.0014
 3276TIP3    H131387   5.452   6.039   8.333 -1.5690 -1.5304  2.1151
 3276TIP3    H231388   5.378   5.968   8.221  0.9113  0.1995 -0.7752
 3277TIP3   OH231389   3.529   5.470   7.027 -0.5091  0.0826 -0.3125
 3277TIP3    H131390   3.535   5.528   7.103 -0.8822 -0.8196  0.4323
 3277TIP3    H231391   3.479   5.519   6.963 -1.4755  0.3138  0.5828
 3278TIP3   OH231392   4.447   0.795   7.264  0.1895  0.3783  0.3490
 3278TIP3    H131393   4.505   0.719   7.274  0.1949  0.4557  0.9444
 3278TIP3    H231394   4.449   0.814   7.171 -1.0853 -1.3499 -0.0850
 3279TIP3   OH231395   1.435   0.035   0.407  0.5146 -0.3014  0.6126
 3279TIP3    H131396   1.379   0.104   0.370 -0.4603 -1.3902 -0.0015
 3279TIP3    H231397   1.513   0.081   0.436  0.0961  1.0006 -0.2421
 3280TIP3   OH231398   3.977   2.097   6.735 -0.0281  0.2959  0.2694
 3280TIP3    H131399   3.968   2.171   6.795 -0.0583 -1.4944  2.6345
 3280TIP3    H231400   3.922   2.120   6.660 -1.7256  1.7808  1.8554
 3281TIP3   OH231401   3.861   2.964   1.669 -0.2649  0.1061 -0.5018
 3281TIP3    H131402   3.783   3.008   1.704 -0.2624  1.8432 -2.4930
 3281TIP3    H231403   3.829   2.915   1.594  0.1347 -1.5172  0.3523
 3282TIP3   OH231404   5.837   5.348   7.472  0.0698 -0.3687 -0.2108
 3282TIP3    H131405   5.900   5.283   7.442 -0.3920 -1.0017  0.1869
 3282TIP3    H231406   5.766   5.298   7.511  0.0605  0.3954  0.7914
 3283TIP3   OH231407   6.722   6.099   0.453 -0.7914  0.1523 -0.6371
 3283TIP3    H131408   6.751   6.176   0.405 -1.0259  0.0505 -0.9498
 3283TIP3    H231409   6.779   6.028   0.421  0.2573  0.4230  0.5513
 3284TIP3   OH231410   2.818   2.790   1.753 -0.3974  0.4257  0.5446
 3284TIP3    H131411   2.845   2.699   1.742 -0.8517  0.0098  2.4820
 3284TIP3    H231412   2.894   2.841   1.724 -0.1738 -0.5322 -0.6584
 3285TIP3   OH231413   2.917   2.696   7.457  0.3605 -0.0619  0.4153
 3285TIP3    H131414   2.911   2.601   7.450 -0.0685 -0.0775  0.9096
 3285TIP3    H231415   2.996   2.719   7.408 -0.8492 -0.4129 -1.7888
 3286TIP3   OH231416   5.930   1.979   0.829 -0.1318 -0.4686 -0.2858
 3286TIP3    H131417   5.875   1.936   0.763  0.1126 -0.1027 -0.7358
 3286TIP3    H231418   5.972   2.051   0.782  0.9493 -0.8989 -0.0321
 3287TIP3   OH231419   2.985   0.836   8.194  0.5287  0.2833  0.6810
 3287TIP3    H131420   2.921   0.789   8.142 -1.2974  3.0487  0.2004
 3287TIP3    H231421   3.065   0.837   8.141  1.0671 -3.0336  1.2042
 3288TIP3   OH231422   6.493   4.936   0.771 -0.0328 -0.1975  0.0864
 3288TIP3    H131423   6.574   4.904   0.731  0.7323  0.5445  0.9991
 3288TIP3    H231424   6.432   4.862   0.764  0.0758 -0.1589 -2.3074
 3289TIP3   OH231425   4.014   4.821   1.150 -0.0831 -0.3537 -0.8550
 3289TIP3    H131426   4.005   4.762   1.225 -2.5558 -1.3810 -1.8332
 3289TIP3    H231427   4.032   4.907   1.189  0.2690 -1.1260  0.7982
 3290TIP3   OH231428   0.099   1.376   0.520  0.5804 -0.1189 -0.4540
 3290TIP3    H131429   0.127   1.332   0.440 -0.3799 -0.1754 -0.7701
 3290TIP3    H231430   0.004   1.374   0.516  0.5241  0.8564  0.1506
 3291TIP3   OH231431   3.525   2.978   1.292  0.2035 -0.2460 -0.1020
 3291TIP3    H131432   3.608   2.956   1.335  0.7148  1.8096  0.1104
 3291TIP3    H231433   3.472   2.899   1.300  1.5473 -1.0814  1.2235
 3292TIP3   OH231434   1.753   5.955   7.211 -0.1486  0.4918 -0.1437
 3292TIP3    H131435   1.810   6.005   7.152  0.7590 -2.6297 -2.1551
 3292TIP3    H231436   1.812   5.919   7.276 -0.0344 -1.3115 -1.1955
 3293TIP3   OH231437   3.547   6.149   0.617 -0.0945  0.3162 -0.3404
 3293TIP3    H131438   3.637   6.183   0.611  0.9026 -2.1696 -0.4798
 3293TIP3    H231439   3.519   6.140   0.526  0.2101 -0.6287 -0.3419
 3294TIP3   OH231440   4.490   5.899   3.043 -0.2692  0.0025  0.2971
 3294TIP3    H131441   4.408   5.884   3.090 -0.6415 -0.9952 -0.6427
 3294TIP3    H231442   4.532   5.813   3.039  0.0415  0.1899 -0.6499
 3295TIP3   OH231443   6.409   6.662   1.034 -0.2366  0.3849  0.1015
 3295TIP3    H131444   6.421   6.738   1.091 -0.3020  0.1928  0.3735
 3295TIP3    H231445   6.332   6.617   1.070  0.2422 -0.2191  0.3942
 3296TIP3   OH231446   4.481   4.445   2.446 -0.0287 -0.2592  0.4140
 3296TIP3    H131447   4.390   4.469   2.464 -0.2344  0.0878 -0.9960
 3296TIP3    H231448   4.494   4.363   2.494 -1.0309 -0.2268  0.7605
 3297TIP3   OH231449   1.830   4.989   8.665  0.3694  0.1175  0.4456
 3297TIP3    H131450   1.894   4.964   8.732 -0.3265 -0.7494  0.8095
 3297TIP3    H231451   1.851   4.934   8.590  0.3812  0.2078  0.3831
 3298TIP3   OH231452   4.304   2.661   1.905  0.1478 -0.4045  0.0523
 3298TIP3    H131453   4.275   2.735   1.851  0.6180  0.6662  1.1876
 3298TIP3    H231454   4.252   2.587   1.876 -0.9392  0.5780 -0.5689
 3299TIP3   OH231455   5.529   6.606   7.229 -0.1940  0.1701  0.2124
 3299TIP3    H131456   5.577   6.563   7.301  0.0697 -0.9564 -0.6142
 3299TIP3    H231457   5.548   6.699   7.241 -0.5631  0.0686  1.8962
 3300TIP3   OH231458   3.396   3.663   1.133  0.3037 -0.5488 -0.5315
 3300TIP3    H131459   3.327   3.600   1.154 -0.6270 -0.3882 -2.8896
 3300TIP3    H231460   3.392   3.727   1.204  1.1320 -2.9142  1.8486
 3301TIP3   OH231461   6.007   5.476   8.120  0.3290  0.1090  0.1108
 3301TIP3    H131462   5.945   5.534   8.165  0.4624  1.1989 -1.0378
 3301TIP3    H231463   5.958   5.395   8.106 -0.2016  0.2854  0.8517
 3302TIP3   OH231464   5.175   2.997   1.155  0.3564  0.2844 -0.1350
 3302TIP3    H131465   5.170   2.936   1.229 -0.0005 -1.2526 -1.3777
 3302TIP3    H231466   5.227   2.951   1.089  2.5245  2.5061 -0.0857
 3303TIP3   OH231467   6.260   2.712   1.946  0.0400 -0.3936  0.2695
 3303TIP3    H131468   6.339   2.681   1.903 -0.9768 -1.9572 -0.5651
 3303TIP3    H231469   6.285   2.795   1.985  1.9296 -0.5779 -0.4488
 3304TIP3   OH231470   3.679   6.078   0.002  0.5171  0.4039 -0.2243
 3304TIP3    H131471   3.596   6.069   0.048  1.3424 -0.9278  1.0691
 3304TIP3    H231472   3.654   6.104  -0.087 -1.2483  0.4516  0.2519
 3305TIP3   OH231473   5.450   0.837   1.918 -0.0321  0.1066 -0.0963
 3305TIP3    H131474   5.502   0.757   1.928  0.5713  0.1766 -2.2795
 3305TIP3    H231475   5.360   0.806   1.913  0.0651 -0.2900  0.4421
 3306TIP3   OH231476   1.799   3.763   2.580  0.3809 -0.0036  0.2388
 3306TIP3    H131477   1.860   3.829   2.611  1.4049 -1.2246  0.9260
 3306TIP3    H231478   1.714   3.807   2.579  1.0852  1.4149  0.3099
 3307TIP3   OH231479   0.809   6.484   0.977  0.5333 -0.2118  0.0327
 3307TIP3    H131480   0.723   6.452   0.952  1.0873 -3.2142  1.4136
 3307TIP3    H231481   0.864   6.469   0.900  0.4730 -1.5128  0.2134
 3308TIP3   OH231482   1.154   5.836   2.489  0.2339 -0.3223  0.3075
 3308TIP3    H131483   1.157   5.879   2.574 -0.4903 -1.6224  1.0334
 3308TIP3    H231484   1.071   5.863   2.451  0.7336  0.5723 -0.1858
 3309TIP3   OH231485   2.319   0.253   0.866 -0.0846  0.2123  0.4127
 3309TIP3    H131486   2.352   0.321   0.807  0.6604  0.3728  0.9868
 3309TIP3    H231487   2.263   0.300   0.928  0.1488  0.2547  0.5949
 3310TIP3   OH231488   0.313   0.633   2.281 -0.3542  0.2368  0.4231
 3310TIP3    H131489   0.275   0.678   2.356 -2.1540  0.9973 -0.8525
 3310TIP3    H231490   0.404   0.663   2.278 -0.4015  0.5790  1.9793
 3311TIP3   OH231491   6.836   3.739   1.193 -0.0292 -0.2839 -0.6124
 3311TIP3    H131492   6.789   3.684   1.130  1.4635  0.0997 -2.1180
 3311TIP3    H231493   6.818   3.698   1.278 -2.0883 -0.8212 -1.2416
 3312TIP3   OH231494   3.527   4.955   1.224  0.9007 -0.0038 -0.2358
 3312TIP3    H131495   3.433   4.956   1.207  0.6097 -1.4470  1.0089
 3312TIP3    H231496   3.556   4.868   1.193  1.1165 -0.9964  2.5084
 3313TIP3   OH231497   3.204   4.719   8.636 -0.3426 -0.0088  0.0285
 3313TIP3    H131498   3.150   4.774   8.692 -1.0554 -0.2615 -0.3929
 3313TIP3    H231499   3.239   4.779   8.570 -1.4373 -0.0953 -0.6695
 3314TIP3   OH231500   6.522   1.574   2.285 -0.0739 -0.2748  0.0250
 3314TIP3    H131501   6.539   1.664   2.311  0.2549 -0.4434  0.4216
 3314TIP3    H231502   6.431   1.573   2.255 -0.1393  0.1437  0.2147
 3315TIP3   OH231503   4.452   1.640   2.267 -0.6710  0.3075 -0.1629
 3315TIP3    H131504   4.545   1.629   2.248 -0.4895 -2.4085  1.7031
 3315TIP3    H231505   4.407   1.601   2.191 -0.2108 -0.5783  0.0084
 3316TIP3   OH231506   6.749   1.483   2.122 -0.6609  0.3910  0.4701
 3316TIP3    H131507   6.687   1.519   2.184 -0.9550  0.2217  0.2760
 3316TIP3    H231508   6.697   1.466   2.043 -0.8535 -1.7581  0.9932
 3317TIP3   OH231509   3.471   0.006   1.176  0.3884  0.4654 -0.2687
 3317TIP3    H131510   3.547   0.064   1.165  0.8271 -0.2138 -0.9464
 3317TIP3    H231511   3.426   0.009   1.092  1.0501 -1.0284 -0.7183
 3318TIP3   OH231512   2.701   1.718   7.324  0.0842 -0.1700  1.2540
 3318TIP3    H131513   2.722   1.750   7.412  0.3550  2.1165  0.4394
 3318TIP3    H231514   2.624   1.768   7.298 -1.3149 -2.3526  0.9518
 3319TIP3   OH231515   2.954   3.010   1.114  0.3674  0.3364  0.7934
 3319TIP3    H131516   2.890   3.066   1.070 -0.1359 -0.6561  0.2243
 3319TIP3    H231517   2.949   2.926   1.067  0.8890 -0.2848  1.8074
 3320TIP3   OH231518   3.407   3.920   7.726 -0.2187 -0.3274 -0.3497
 3320TIP3    H131519   3.356   3.938   7.804  0.3638 -0.3473  0.0439
 3320TIP3    H231520   3.357   3.959   7.654 -0.1399  0.8094  0.1880
 3321TIP3   OH231521   3.804   6.542   1.322 -0.6732  0.6067 -0.2736
 3321TIP3    H131522   3.755   6.596   1.384 -2.0385 -0.5544 -0.2955
 3321TIP3    H231523   3.744   6.529   1.249 -1.0275 -2.1742  0.3963
 3322TIP3   OH231524   2.147   6.582   0.451 -0.3213  0.4434 -0.2950
 3322TIP3    H131525   2.132   6.660   0.505 -0.1644 -0.3985  0.9898
 3322TIP3    H231526   2.094   6.514   0.492  0.1535 -0.3353 -0.9464
 3323TIP3   OH231527   2.628   0.219   1.570 -0.0473  0.2205 -0.0206
 3323TIP3    H131528   2.571   0.221   1.646  1.0251 -1.5035  0.8901
 3323TIP3    H231529   2.571   0.243   1.497 -1.5752 -0.0234  1.0384
 3324TIP3   OH231530   5.879   2.864   2.163  0.2726  0.2526  0.6458
 3324TIP3    H131531   5.894   2.776   2.128  0.8696  1.1904 -1.5806
 3324TIP3    H231532   5.929   2.865   2.244  2.2682 -0.7034 -0.4983
 3325TIP3   OH231533   2.743   5.677   7.430 -0.3168  0.3455  0.0364
 3325TIP3    H131534   2.777   5.592   7.401  0.0034  0.2827  0.5981
 3325TIP3    H231535   2.662   5.688   7.379  0.5615  0.5324 -1.3731
 3326TIP3   OH231536   1.360   2.216   1.853 -0.2080  0.4949 -0.5606
 3326TIP3    H131537   1.307   2.190   1.928  0.1355 -0.1697 -0.5386
 3326TIP3    H231538   1.414   2.139   1.834 -0.7567  0.4136 -1.9003
 3327TIP3   OH231539   1.832   5.029   2.037  0.4708 -0.0797  0.0476
 3327TIP3    H131540   1.927   5.025   2.022  0.0715 -0.1564 -3.0057
 3327TIP3    H231541   1.816   5.119   2.064  1.5555 -0.5160  2.4259
 3328TIP3   OH231542   4.136   2.792   8.489 -0.1409  0.0087 -0.2851
 3328TIP3    H131543   4.051   2.781   8.447 -0.9463  0.2930  1.1844
 3328TIP3    H231544   4.197   2.806   8.417 -1.2801 -0.5307 -1.3898
 3329TIP3   OH231545   0.597   1.685   1.363  0.0103  0.1325 -0.2158
 3329TIP3    H131546   0.671   1.715   1.416  0.6377 -2.7599  0.7562
 3329TIP3    H231547   0.636   1.625   1.300 -1.3208 -0.0925 -0.8481
 3330TIP3   OH231548   0.652   1.838   8.094 -0.3225  0.1225  0.3217
 3330TIP3    H131549   0.563   1.871   8.090 -0.5756 -0.5718 -2.9443
 3330TIP3    H231550   0.669   1.823   8.187 -2.9704  1.8461  1.1772
 3331TIP3   OH231551   1.600   6.326   7.748 -0.2499  0.9224  0.2316
 3331TIP3    H131552   1.668   6.324   7.815 -1.4575 -1.1272  1.4949
 3331TIP3    H231553   1.645   6.302   7.667  0.7352  0.6747  0.8404
 3332TIP3   OH231554   4.719   3.993   8.342 -0.0826  0.3768 -0.3464
 3332TIP3    H131555   4.785   4.024   8.403  0.5691  3.0774 -2.2506
 3332TIP3    H231556   4.636   4.005   8.388  0.5121 -2.9600  2.0361
 3333TIP3   OH231557   5.717   2.993   1.185  0.1036  0.3552  0.0730
 3333TIP3    H131558   5.691   3.042   1.263 -2.1662  0.0474 -0.4409
 3333TIP3    H231559   5.684   3.045   1.111  2.2648  0.6726 -0.7662
 3334TIP3   OH231560   2.552   4.827   2.404 -0.2131  0.4018 -0.6520
 3334TIP3    H131561   2.642   4.810   2.376  0.2996  1.6676  0.1205
 3334TIP3    H231562   2.561   4.883   2.481 -1.6612  0.1597 -0.2743
 3335TIP3   OH231563   2.367   2.905   8.159  0.1057  0.4874  0.2375
 3335TIP3    H131564   2.444   2.881   8.210 -0.7592 -1.2339  0.7840
 3335TIP3    H231565   2.326   2.822   8.136 -0.5508  1.2859 -1.7215
 3336TIP3   OH231566   5.358   4.193   2.585  0.2777 -0.4733  0.1642
 3336TIP3    H131567   5.344   4.173   2.678  0.5228 -0.6511  0.1623
 3336TIP3    H231568   5.383   4.110   2.546  0.2239 -0.3867 -0.0535
 3337TIP3   OH231569   5.476   3.273   1.208  0.0414 -0.3430  0.1980
 3337TIP3    H131570   5.461   3.187   1.167 -2.2980  0.5920 -1.1344
 3337TIP3    H231571   5.540   3.315   1.152 -0.2775 -0.5075 -0.2997
 3338TIP3   OH231572   5.647   3.247   2.245  0.2434  0.4385 -0.0281
 3338TIP3    H131573   5.559   3.262   2.282  0.2178  3.7818 -1.0908
 3338TIP3    H231574   5.703   3.236   2.322 -0.8843 -0.3241  0.7218
 3339TIP3   OH231575   1.510   2.328   2.258 -0.0646  0.1636 -0.6006
 3339TIP3    H131576   1.572   2.356   2.192  0.6858  1.4453  0.6029
 3339TIP3    H231577   1.501   2.403   2.317 -2.4454 -0.1112 -0.4831
 3340TIP3   OH231578   3.460   6.677   1.568 -0.0229  0.3825  0.4168
 3340TIP3    H131579   3.420   6.698   1.652  2.4597  1.5170  1.4154
 3340TIP3    H231580   3.389   6.684   1.505 -1.4277  2.0375  2.0888
 3341TIP3   OH231581   6.056   2.465   8.224  0.4613  0.9137 -0.8888
 3341TIP3    H131582   6.001   2.495   8.296 -1.2553 -0.9477 -1.3314
 3341TIP3    H231583   5.994   2.444   8.154  1.6652 -1.4909 -1.3361
 3342TIP3   OH231584   5.129   5.374   0.419  0.5709 -0.2863  0.0530
 3342TIP3    H131585   5.161   5.372   0.510  2.4034  1.9877 -0.4499
 3342TIP3    H231586   5.043   5.333   0.424  0.6979 -0.4499  2.7884
 3343TIP3   OH231587   2.212   5.140   2.233 -0.0976 -0.0502  0.5914
 3343TIP3    H131588   2.223   5.205   2.303  2.0354 -0.4165  0.6817
 3343TIP3    H231589   2.263   5.176   2.160 -1.1865 -0.3285 -0.3302
 3344TIP3   OH231590   0.961   3.285   1.686  0.0195 -0.4526  0.2810
 3344TIP3    H131591   0.993   3.221   1.750  4.5092  1.1742  0.0289
 3344TIP3    H231592   0.959   3.237   1.603  2.9572 -0.5683  0.1687
 3345TIP3   OH231593   2.225   3.398   1.636  0.4668 -0.3914 -0.1236
 3345TIP3    H131594   2.201   3.407   1.728  0.4527  1.2304 -0.2598
 3345TIP3    H231595   2.321   3.391   1.636  0.8075  2.7850 -0.0997
 3346TIP3   OH231596   5.751   4.963   1.058 -0.1058  0.4096 -0.3898
 3346TIP3    H131597   5.716   5.019   0.989  0.7190  0.0177 -1.1493
 3346TIP3    H231598   5.745   5.016   1.138 -0.6445  1.0398 -0.8373
 3347TIP3   OH231599   5.507   2.042   0.704 -0.4199 -0.1812  0.2042
 3347TIP3    H131600   5.483   2.075   0.791 -0.9781  0.1800 -0.0768
 3347TIP3    H231601   5.423   2.021   0.662 -0.1345 -0.7502 -0.0959
 3348TIP3   OH231602   6.356   3.123   1.141  0.0056 -0.0947 -0.3284
 3348TIP3    H131603   6.351   3.031   1.168  0.2445 -0.1975 -0.6171
 3348TIP3    H231604   6.437   3.155   1.180  0.4708 -0.3075 -1.0853
 3349TIP3   OH231605   3.473   0.570   2.048  0.3887  0.1153 -0.5737
 3349TIP3    H131606   3.441   0.585   1.958 -1.1102 -0.3122 -0.1459
 3349TIP3    H231607   3.526   0.647   2.067  0.2753  0.4867 -1.6366
 3350TIP3   OH231608   6.006   5.842   2.011 -0.6159 -0.2257 -0.1974
 3350TIP3    H131609   6.053   5.867   1.931  3.1299 -2.6770  0.9698
 3350TIP3    H231610   6.010   5.920   2.066  1.5238 -0.0648 -0.4771
 3351TIP3   OH231611   1.997   5.422   0.213 -0.6973  0.2007  0.0838
 3351TIP3    H131612   2.055   5.457   0.145 -0.8831  1.3540  0.4908
 3351TIP3    H231613   2.054   5.409   0.289 -0.4934 -1.0739 -0.2597
 3352TIP3   OH231614   1.370   6.541   0.245 -0.7310  0.2778 -0.5486
 3352TIP3    H131615   1.387   6.519   0.337 -1.2007 -0.1237 -0.5526
 3352TIP3    H231616   1.416   6.474   0.196  0.6052  1.2347 -0.6501
 3353TIP3   OH231617   0.992   2.766   0.508  0.1956  0.5438  0.6006
 3353TIP3    H131618   0.977   2.817   0.588 -0.1159  0.2908  0.7041
 3353TIP3    H231619   1.085   2.743   0.512  0.0517  0.0459  1.1755
 3354TIP3   OH231620   5.583   0.194   2.053  0.1792 -0.4575  0.2974
 3354TIP3    H131621   5.644   0.127   2.021 -0.9377 -0.9280 -0.9573
 3354TIP3    H231622   5.504   0.182   1.999 -0.8086  0.5072  1.4713
 3355TIP3   OH231623   1.124   4.926   7.436 -0.2118  0.3249  0.3744
 3355TIP3    H131624   1.071   5.003   7.459 -0.4895  0.2181  0.1057
 3355TIP3    H231625   1.080   4.889   7.359  1.3179  1.2906 -1.0120
 3356TIP3   OH231626   1.335   2.627   7.490  0.0122  0.0960  0.4195
 3356TIP3    H131627   1.386   2.678   7.427 -2.6006  1.4308 -0.7943
 3356TIP3    H231628   1.333   2.539   7.452  0.4627  0.2990 -0.0990
 3357TIP3   OH231629   5.709   4.434   2.420 -0.0302 -0.3442  0.1907
 3357TIP3    H131630   5.707   4.519   2.375 -2.8093 -1.2137 -1.5848
 3357TIP3    H231631   5.639   4.440   2.485  0.4458 -0.9564  0.7731
 3358TIP3   OH231632   5.654   4.259   0.939 -0.0635 -0.3913  0.6641
 3358TIP3    H131633   5.569   4.296   0.913  0.0522  0.8289  1.9223
 3358TIP3    H231634   5.711   4.335   0.950  1.8853 -1.2701 -2.2314
 3359TIP3   OH231635   2.819   4.886   2.313  0.4775 -0.0004  0.2278
 3359TIP3    H131636   2.900   4.920   2.276  0.7467 -1.5441 -0.6931
 3359TIP3    H231637   2.811   4.798   2.278  0.0090 -1.0719  2.7644
 3360TIP3   OH231638   6.347   5.698   1.576  0.0090 -0.3644 -0.0334
 3360TIP3    H131639   6.255   5.687   1.554  0.0099 -1.1067  0.3147
 3360TIP3    H231640   6.384   5.609   1.572  0.7357 -0.0638 -0.2850
 3361TIP3   OH231641   5.465   1.718   0.716 -0.0905 -0.1845  0.2565
 3361TIP3    H131642   5.371   1.728   0.705 -0.1470  0.5039  1.2771
 3361TIP3    H231643   5.476   1.627   0.743 -0.6100  0.1216  1.5420
 3362TIP3   OH231644   6.476   0.026   0.102 -0.3204  0.1820 -0.1129
 3362TIP3    H131645   6.408  -0.015   0.049 -0.5525 -0.0598  0.3723
 3362TIP3    H231646   6.464   0.120   0.088  0.8090  0.1110 -1.9837
 3363TIP3   OH231647   4.383   2.492   0.684 -0.5657  0.9047 -0.3231
 3363TIP3    H131648   4.386   2.581   0.718 -1.2322  1.8055 -2.4222
 3363TIP3    H231649   4.463   2.451   0.716  0.2025  2.5559 -0.0397
 3364TIP3   OH231650   4.348   0.716   7.489 -0.1034  0.5181  0.1348
 3364TIP3    H131651   4.381   0.731   7.400 -1.3691  2.2361 -0.1001
 3364TIP3    H231652   4.276   0.654   7.477  1.3675 -1.3355  0.3517
 3365TIP3   OH231653   1.739   2.676   1.291  0.4519 -0.0267  0.5193
 3365TIP3    H131654   1.680   2.616   1.336  0.0957 -1.4115 -1.6815
 3365TIP3    H231655   1.717   2.762   1.328 -2.1235 -0.6449  0.6380
 3366TIP3   OH231656   5.137   5.480   2.090 -0.6044  0.2441 -0.2501
 3366TIP3    H131657   5.218   5.434   2.066 -0.0449  1.3397 -0.5156
 3366TIP3    H231658   5.078   5.410   2.118 -0.0658 -0.7363 -1.4288
 3367TIP3   OH231659   3.960   1.929   2.306 -0.2219  0.0842 -0.0589
 3367TIP3    H131660   3.950   1.977   2.388  2.0695 -0.8297  0.8181
 3367TIP3    H231661   4.014   1.986   2.251  2.3752 -1.2643  0.9291
 3368TIP3   OH231662   3.428   5.598   8.349 -0.0076  0.0525  0.5075
 3368TIP3    H131663   3.404   5.599   8.442 -0.6412  1.8065  0.3501
 3368TIP3    H231664   3.523   5.600   8.349  0.0230 -0.6908  1.1032
 3369TIP3   OH231665   5.226   1.336   1.290 -0.0551  0.0116 -0.4912
 3369TIP3    H131666   5.144   1.345   1.242  0.6566  1.4023 -1.5089
 3369TIP3    H231667   5.217   1.394   1.366  0.9256  2.3026 -2.0105
 3370TIP3   OH231668   5.134   1.370   0.150  0.4257  0.4657 -0.2216
 3370TIP3    H131669   5.162   1.359   0.241  0.2689  0.2462 -0.1994
 3370TIP3    H231670   5.112   1.463   0.143 -0.8862  0.2161  0.3391
 3371TIP3   OH231671   0.800   6.761   2.347 -0.2610  0.2825 -0.0776
 3371TIP3    H131672   0.788   6.758   2.252  2.1761 -0.1148 -0.4231
 3371TIP3    H231673   0.740   6.695   2.380  0.6191 -1.3766 -1.5922
 3372TIP3   OH231674   0.359   4.523   0.704  0.1300  0.0176  0.4244
 3372TIP3    H131675   0.440   4.472   0.707 -0.3831 -0.8148  0.4813
 3372TIP3    H231676   0.333   4.532   0.796  0.0558  0.1336  0.3923
 3373TIP3   OH231677   4.663   4.373   2.129  0.4444  0.2090  0.1394
 3373TIP3    H131678   4.654   4.283   2.160  1.1393 -0.5771 -1.7590
 3373TIP3    H231679   4.717   4.416   2.195 -1.7976 -0.0544  2.2696
 3374TIP3   OH231680   0.523   1.786   0.218 -0.5806  0.3005 -0.2840
 3374TIP3    H131681   0.496   1.864   0.169  0.0046  0.6269 -0.0924
 3374TIP3    H231682   0.489   1.713   0.166 -0.3687  0.6573 -0.9405
 3375TIP3   OH231683   6.003   4.069   7.726 -0.6048 -0.0779  0.1026
 3375TIP3    H131684   5.969   4.101   7.810 -0.5408 -1.9573  0.9003
 3375TIP3    H231685   6.039   4.147   7.683  0.3718  0.7704  2.3038
 3376TIP3   OH231686   2.686   2.717   7.602 -0.3320  0.1165 -0.2852
 3376TIP3    H131687   2.778   2.707   7.576 -0.1314  0.8681  0.1313
 3376TIP3    H231688   2.640   2.737   7.521 -0.2981 -1.2212 -0.6689
 3377TIP3   OH231689   3.464   1.574   2.333 -0.3308 -0.2419  0.1488
 3377TIP3    H131690   3.399   1.637   2.300 -0.5061  0.2908  1.4450
 3377TIP3    H231691   3.518   1.554   2.257 -1.2362  0.2766 -0.6638
 3378TIP3   OH231692   4.218   4.232   8.016 -0.5296 -0.0106 -0.1256
 3378TIP3    H131693   4.274   4.245   7.940 -1.4238  0.8848 -0.6509
 3378TIP3    H231694   4.143   4.182   7.982 -1.2436  0.9496  0.0054
 3379TIP3   OH231695   6.075   0.362   0.235  0.3502 -0.0639 -0.3407
 3379TIP3    H131696   6.062   0.303   0.309 -0.0441  0.8704  0.3458
 3379TIP3    H231697   6.162   0.340   0.202  0.4027 -0.6945  0.2079
 3380TIP3   OH231698   0.057   1.847   1.008  0.2945 -0.0300 -0.0562
 3380TIP3    H131699  -0.019   1.804   1.048  0.4851  0.6236  1.0384
 3380TIP3    H231700   0.058   1.814   0.918 -0.9901 -0.4336  0.0530
 3381TIP3   OH231701   3.938   4.386   6.820  0.5719  0.1184 -0.6479
 3381TIP3    H131702   3.881   4.416   6.891  0.0210  0.0425 -1.0493
 3381TIP3    H231703   3.930   4.453   6.752  2.7789  1.3148  0.1913
 3382TIP3   OH231704   2.489   1.263   7.717 -0.6333 -0.4992  0.0499
 3382TIP3    H131705   2.470   1.286   7.809 -0.9729  0.3317 -0.2147
 3382TIP3    H231706   2.535   1.340   7.683 -2.7649  0.2864 -1.1823
 3383TIP3   OH231707   0.968   4.897   2.168  1.0538 -0.3990  0.5395
 3383TIP3    H131708   0.973   4.956   2.244 -0.2616  2.9307 -1.6927
 3383TIP3    H231709   0.876   4.870   2.166  0.9247  0.0516 -0.1427
 3384TIP3   OH231710   2.861   0.587   2.073 -0.0971 -0.0911  0.1210
 3384TIP3    H131711   2.870   0.677   2.043  0.4780 -0.2923 -0.3399
 3384TIP3    H231712   2.849   0.594   2.167 -0.3901  0.4814  0.0459
 3385TIP3   OH231713   3.372   0.666   1.446 -0.4073 -0.0209  0.1946
 3385TIP3    H131714   3.360   0.612   1.367 -1.0465  3.2064 -2.1239
 3385TIP3    H231715   3.465   0.660   1.466 -0.3715 -1.5175 -0.2983
 3386TIP3   OH231716   1.172   4.147   2.238 -0.0538  0.0985 -0.0124
 3386TIP3    H131717   1.094   4.199   2.220 -0.6791 -1.0312 -0.6559
 3386TIP3    H231718   1.193   4.105   2.155  0.7365 -0.2823  0.3648
 3387TIP3   OH231719   5.169   6.197   2.776  0.1061  0.1526 -0.2614
 3387TIP3    H131720   5.157   6.155   2.861  3.3181 -0.2931  0.1148
 3387TIP3    H231721   5.226   6.136   2.728  0.7998  1.7842 -1.5893
 3388TIP3   OH231722   6.501   6.790   2.353  0.4796  0.0702  0.1399
 3388TIP3    H131723   6.489   6.750   2.439 -1.5811  0.4101  0.0657
 3388TIP3    H231724   6.501   6.716   2.292  1.5686 -0.1427  0.3824
 3389TIP3   OH231725   3.411   2.014   8.206 -0.1303 -0.2373  0.5407
 3389TIP3    H131726   3.391   2.030   8.298  0.2267  1.1052  0.4024
 3389TIP3    H231727   3.427   1.919   8.202  1.2233 -0.1314  2.1428
 3390TIP3   OH231728   2.310   5.910   8.001 -0.4222  0.4243 -0.1052
 3390TIP3    H131729   2.303   5.834   8.058 -0.4283 -1.0697 -1.9906
 3390TIP3    H231730   2.383   5.961   8.038  0.1161 -0.9000  0.7409
 3391TIP3   OH231731   2.586   0.998   7.571 -0.1350  0.0619 -0.2911
 3391TIP3    H131732   2.518   1.002   7.504  0.2642 -0.3901 -0.7249
 3391TIP3    H231733   2.566   1.072   7.629 -2.6250 -1.6152  1.1661
 3392TIP3   OH231734   6.261   4.422   1.528 -0.1345 -0.2259 -0.5372
 3392TIP3    H131735   6.294   4.451   1.442 -0.4782 -3.6264 -1.9925
 3392TIP3    H231736   6.204   4.348   1.507  0.0983 -1.4477  2.6939
 3393TIP3   OH231737   0.409   2.645   0.938 -0.3342 -0.4522 -0.9898
 3393TIP3    H131738   0.395   2.649   0.844 -0.3800 -0.8041 -0.9969
 3393TIP3    H231739   0.379   2.558   0.964 -1.6638  0.1449 -0.4283
 3394TIP3   OH231740   5.918   1.056   8.123 -0.2959  0.2014 -0.4455
 3394TIP3    H131741   5.903   1.109   8.045 -1.0220 -1.3106 -1.3860
 3394TIP3    H231742   5.929   0.967   8.089 -0.1308 -0.4145  1.1510
 3395TIP3   OH231743   3.705   1.321   8.601 -0.6091  0.3540 -0.5405
 3395TIP3    H131744   3.692   1.330   8.695 -0.0532 -0.2111 -0.4009
 3395TIP3    H231745   3.778   1.260   8.593 -0.8515  0.1536 -1.3412
 3396TIP3   OH231746   4.322   2.965   8.671  0.1876  0.4524 -0.0160
 3396TIP3    H131747   4.254   2.992   8.609  0.4055 -0.0973 -0.5011
 3396TIP3    H231748   4.314   2.870   8.675  1.0290  0.3689 -0.2006
 3397TIP3   OH231749   6.423   1.840   8.127 -0.1922  0.3354  0.4319
 3397TIP3    H131750   6.366   1.782   8.177 -1.4658  0.1970 -1.1305
 3397TIP3    H231751   6.364   1.900   8.083  0.7617 -0.3309 -1.8989
 3398TIP3   OH231752   4.172   2.740   0.580  0.3517 -0.2716 -0.4376
 3398TIP3    H131753   4.117   2.815   0.604  1.2852  0.3255 -0.0861
 3398TIP3    H231754   4.243   2.741   0.644  1.2188 -0.5294 -1.3613
 3399TIP3   OH231755   3.540   4.938   2.186 -0.0372 -0.2640 -0.0380
 3399TIP3    H131756   3.587   4.861   2.154  1.2966  0.0359  1.0984
 3399TIP3    H231757   3.553   5.004   2.117  1.3549 -0.1563  0.2798
 3400TIP3   OH231758   1.797   5.987   1.186 -0.9237  0.2397  0.0213
 3400TIP3    H131759   1.868   6.025   1.239 -0.8289  0.7445 -0.4648
 3400TIP3    H231760   1.719   6.034   1.215 -1.0570 -0.2799  0.5190
 3401TIP3   OH231761   3.825   4.307   1.067  0.5460 -0.1612 -0.0624
 3401TIP3    H131762   3.772   4.372   1.021  0.8997  0.1018 -0.1063
 3401TIP3    H231763   3.886   4.275   1.001  0.9924  0.1478  0.1862
 3402TIP3   OH231764   0.543   2.129   2.776 -0.7639  0.3687 -0.1825
 3402TIP3    H131765   0.482   2.149   2.705  0.1986 -0.9470 -1.4355
 3402TIP3    H231766   0.552   2.033   2.773  1.0419  0.4909  0.2066
 3403TIP3   OH231767   4.469   5.193   1.506  0.2778  0.0349  0.0327
 3403TIP3    H131768   4.407   5.121   1.516 -0.3067  0.5125 -0.0608
 3403TIP3    H231769   4.421   5.259   1.456  0.2461  1.1108  1.3955
 3404TIP3   OH231770   1.980   3.587   7.303  0.6158 -0.2453  0.5839
 3404TIP3    H131771   1.941   3.629   7.380  1.0982 -1.0417  1.2765
 3404TIP3    H231772   2.074   3.603   7.313  0.5514  1.2196 -0.8055
 3405TIP3   OH231773   6.336   4.843   1.760 -0.4181 -0.2734  0.3946
 3405TIP3    H131774   6.392   4.837   1.682 -0.1911 -1.4376  0.6306
 3405TIP3    H231775   6.376   4.911   1.814  0.5905 -0.8635  0.4038
 3406TIP3   OH231776   6.482   4.877   1.083  0.0483 -0.2760 -0.0480
 3406TIP3    H131777   6.420   4.849   1.016  1.8815  0.4749 -2.1703
 3406TIP3    H231778   6.472   4.973   1.087  1.1496 -0.1261 -0.5319
 3407TIP3   OH231779   4.691   3.570   8.074 -0.2073  0.1480  0.0445
 3407TIP3    H131780   4.755   3.634   8.104  0.7636 -0.2854 -1.0558
 3407TIP3    H231781   4.639   3.617   8.008  1.2966 -0.4944 -1.6726
 3408TIP3   OH231782   0.986   6.329   2.466  0.0082  0.0990  0.3901
 3408TIP3    H131783   0.962   6.270   2.537  0.2614  0.9854  1.2364
 3408TIP3    H231784   1.081   6.330   2.466  0.0173 -0.1710 -0.2080
 3409TIP3   OH231785   3.214   0.223   1.214 -0.1188  0.0925 -0.0531
 3409TIP3    H131786   3.230   0.193   1.124  0.3939  0.2919 -0.0348
 3409TIP3    H231787   3.162   0.154   1.254 -0.4780  0.0680 -0.5490
 3410TIP3   OH231788   2.927   0.491   0.503  0.2418  0.5073 -0.4832
 3410TIP3    H131789   2.932   0.481   0.598 -1.2733  0.4588 -0.3781
 3410TIP3    H231790   3.015   0.516   0.476 -0.0309  3.9506  1.3435
 3411TIP3   OH231791   0.383   5.664   7.368 -0.0668 -0.7943 -0.2638
 3411TIP3    H131792   0.472   5.661   7.332 -0.3452 -2.2832 -0.9120
 3411TIP3    H231793   0.327   5.683   7.293 -0.3874 -0.9873 -0.0762
 3412TIP3   OH231794   3.185   2.281   6.908  0.3214 -0.1329  0.0857
 3412TIP3    H131795   3.125   2.241   6.845  0.3356 -0.2142  0.1230
 3412TIP3    H231796   3.272   2.250   6.882  0.4174  0.4546 -0.3284
 3413TIP3   OH231797   5.631   3.261   8.208  0.5469 -0.2925  0.0785
 3413TIP3    H131798   5.606   3.173   8.180 -1.8188  0.0975  0.7028
 3413TIP3    H231799   5.616   3.260   8.303 -0.5135  1.0477 -0.0521
 3414TIP3   OH231800   1.755   1.664   0.387 -0.3713  0.0915 -0.5848
 3414TIP3    H131801   1.830   1.632   0.437 -0.7539  0.1661  0.0376
 3414TIP3    H231802   1.782   1.751   0.356 -0.2538  0.1741 -0.2478
 3415TIP3   OH231803   4.250   0.781   0.276  0.5102  0.3826  0.3121
 3415TIP3    H131804   4.163   0.793   0.314  0.8051  1.0561  0.7913
 3415TIP3    H231805   4.278   0.695   0.308  0.4870  0.6618  1.1028
 3416TIP3   OH231806   1.315   4.935   0.413  0.4779  0.1618 -0.0011
 3416TIP3    H131807   1.350   5.024   0.415  0.8698 -0.0039  0.8578
 3416TIP3    H231808   1.286   4.922   0.323  2.5326  0.3446 -0.7293
 3417TIP3   OH231809   1.270   4.290   2.584 -0.3783  0.4523 -0.0447
 3417TIP3    H131810   1.360   4.316   2.606 -0.4295  3.2889 -2.5407
 3417TIP3    H231811   1.275   4.263   2.493 -1.8866 -0.5695  0.1471
 3418TIP3   OH231812   5.666   0.385   2.230 -0.4620  0.2556  0.5722
 3418TIP3    H131813   5.619   0.387   2.314  0.8277 -1.4976  1.3821
 3418TIP3    H231814   5.629   0.311   2.183 -0.3039  0.4661  0.1110
 3419TIP3   OH231815   2.819   5.503   8.591 -0.5780  0.3934  0.1959
 3419TIP3    H131816   2.878   5.481   8.663 -0.1465 -0.0803 -0.2889
 3419TIP3    H231817   2.820   5.598   8.587  3.1296  0.4562 -2.1435
 3420TIP3   OH231818   0.176   3.729   2.124 -0.0400  0.0230 -0.4725
 3420TIP3    H131819   0.168   3.683   2.040 -0.6827 -0.4485 -0.1542
 3420TIP3    H231820   0.095   3.710   2.170  1.2670 -1.8035  1.2976
 3421TIP3   OH231821   4.592   0.992   1.556 -0.0743  0.3062  0.5459
 3421TIP3    H131822   4.653   0.966   1.487 -0.4915 -0.6684  0.5145
 3421TIP3    H231823   4.571   1.083   1.537  2.4526  1.1452  1.4008
 3422TIP3   OH231824   5.309   5.515   0.028  0.0581  0.1534  0.5974
 3422TIP3    H131825   5.340   5.453   0.095 -0.5217 -0.8255 -0.0142
 3422TIP3    H231826   5.265   5.460  -0.037 -2.0934  1.3824  0.9188
 3423TIP3   OH231827   0.874   6.431   2.249  0.0776 -1.1198 -0.1557
 3423TIP3    H131828   0.894   6.364   2.315  0.7865  1.6178  2.6211
 3423TIP3    H231829   0.794   6.473   2.280  1.2592  1.2534 -0.0596
 3424TIP3   OH231830   0.975   5.834   0.305  0.2336 -0.0976  0.4639
 3424TIP3    H131831   1.058   5.850   0.259 -0.4224 -0.6885 -0.9779
 3424TIP3    H231832   0.908   5.859   0.241 -0.7069 -0.8916  1.1237
 3425TIP3   OH231833   4.862   5.421   1.018 -0.0838  0.2264 -0.3186
 3425TIP3    H131834   4.823   5.450   0.936  0.8613  1.2253 -0.4332
 3425TIP3    H231835   4.788   5.402   1.075 -0.7393  1.3601 -0.7674
 3426TIP3   OH231836   1.320   6.103   1.139 -0.4409  0.5432 -0.0393
 3426TIP3    H131837   1.258   6.122   1.210  0.0572  0.2712  0.4804
 3426TIP3    H231838   1.280   6.142   1.061 -0.7086  1.3827  0.5037
 3427TIP3   OH231839   1.058   2.967   0.756 -0.3390  0.1445  0.1552
 3427TIP3    H131840   1.146   2.950   0.723 -0.7936  0.9832 -1.6025
 3427TIP3    H231841   1.053   2.917   0.837  1.3247 -0.9223 -0.3481
 3428TIP3   OH231842   1.481   1.299   7.556  0.3518  0.2330  0.4249
 3428TIP3    H131843   1.455   1.288   7.464  2.3818  0.9681 -0.3005
 3428TIP3    H231844   1.449   1.220   7.599 -3.5315  1.2909 -0.1262
 3429TIP3   OH231845   3.713   0.892   1.933 -0.1904  0.1119  0.3968
 3429TIP3    H131846   3.685   0.888   1.842  0.1064  0.6501  0.2743
 3429TIP3    H231847   3.759   0.810   1.948 -2.6782 -1.2584  0.9118
 3430TIP3   OH231848   5.430   0.337   8.022  0.3930 -0.6939  1.1634
 3430TIP3    H131849   5.409   0.429   8.042 -0.0962 -0.3210 -0.7905
 3430TIP3    H231850   5.356   0.287   8.055 -0.3579 -0.1233  0.3941
 3431TIP3   OH231851   5.589   0.853   8.016 -0.5800 -0.2596 -0.1921
 3431TIP3    H131852   5.545   0.782   7.970 -2.1519  0.5460  0.0031
 3431TIP3    H231853   5.576   0.930   7.960  0.2401  0.0928  0.0785
 3432TIP3   OH231854   6.442   1.115   0.427 -0.4985 -0.4343 -0.3744
 3432TIP3    H131855   6.378   1.047   0.450 -3.0056  1.7129 -0.5940
 3432TIP3    H231856   6.455   1.163   0.509  0.7031 -0.6962 -0.3994
 3433TIP3   OH231857   4.419   0.854   7.733  0.7270 -0.8698  0.0865
 3433TIP3    H131858   4.425   0.844   7.638  1.5615 -0.8877  0.1326
 3433TIP3    H231859   4.466   0.779   7.768 -0.6350 -1.5410  0.5431
 3434TIP3   OH231860   3.725   5.342   1.476 -0.0555 -0.7514  0.2539
 3434TIP3    H131861   3.702   5.274   1.414 -0.5172 -0.5702  0.2205
 3434TIP3    H231862   3.683   5.421   1.441  0.6856 -0.3937  0.1519
 3435TIP3   OH231863   6.696   5.921   8.282  0.0745  0.2228  0.0697
 3435TIP3    H131864   6.713   5.974   8.205 -0.1646 -1.4494 -1.1769
 3435TIP3    H231865   6.744   5.839   8.267 -1.7821 -1.0301  0.6006
 3436TIP3   OH231866   2.593   0.765   8.119 -0.2629 -0.2573  0.4035
 3436TIP3    H131867   2.549   0.802   8.042  1.1076 -0.0391 -0.3106
 3436TIP3    H231868   2.666   0.715   8.082  0.7150  0.2633  1.5818
 3437TIP3   OH231869   6.569   3.839   2.160 -0.1627 -0.2796  0.5230
 3437TIP3    H131870   6.569   3.873   2.071  3.7647  0.5152  0.6242
 3437TIP3    H231871   6.524   3.905   2.211  0.2659  0.8219 -0.4775
 3438TIP3   OH231872   0.361   5.361   1.105  0.3164  0.8951 -0.0954
 3438TIP3    H131873   0.339   5.386   1.195 -0.9016  0.2548 -0.1866
 3438TIP3    H231874   0.301   5.413   1.050 -1.9193 -1.6630 -0.3082
 3439TIP3   OH231875   2.685   2.027   2.006 -0.1322  0.1985 -0.1592
 3439TIP3    H131876   2.641   1.950   1.969  0.0712  1.1088 -2.4465
 3439TIP3    H231877   2.701   2.003   2.097 -2.7964 -1.2785  0.0269
 3440TIP3   OH231878   1.726   5.780   0.350  0.6808 -0.2332 -0.0596
 3440TIP3    H131879   1.636   5.805   0.327  1.2562  1.0192 -1.0702
 3440TIP3    H231880   1.739   5.695   0.309  0.3154  0.0912 -0.8733
 3441TIP3   OH231881   4.345   3.763   7.627  0.0879  0.3648  0.2753
 3441TIP3    H131882   4.395   3.780   7.547  0.6751 -0.3116  0.4943
 3441TIP3    H231883   4.277   3.702   7.600 -0.2454  0.8028  0.1118
 3442TIP3   OH231884   4.430   6.585   1.443 -0.5622 -0.2586  0.2090
 3442TIP3    H131885   4.497   6.640   1.483 -0.0434 -0.2477 -0.6530
 3442TIP3    H231886   4.426   6.614   1.352 -0.4501 -1.4588 -0.2048
 3443TIP3   OH231887   1.144   4.860   1.334  0.7312  0.4829 -0.0781
 3443TIP3    H131888   1.153   4.781   1.388 -0.9543  1.1536  1.2652
 3443TIP3    H231889   1.173   4.931   1.390  1.2374  0.9421 -0.9107
 3444TIP3   OH231890   3.339   5.897   7.322  0.0926 -0.2726  0.3277
 3444TIP3    H131891   3.334   5.985   7.358  2.5766 -0.6194  1.7308
 3444TIP3    H231892   3.428   5.890   7.287 -1.0365 -1.2199 -2.6423
 3445TIP3   OH231893   0.971   3.544   7.968 -0.3376  0.5078  0.3086
 3445TIP3    H131894   0.965   3.552   7.872 -0.1919 -1.8502  0.0499
 3445TIP3    H231895   0.904   3.480   7.991  2.0766 -1.8704  1.2659
 3446TIP3   OH231896   1.838   4.484   2.519  0.1119 -0.4718  0.8529
 3446TIP3    H131897   1.784   4.478   2.440  0.0006 -1.6139  0.9902
 3446TIP3    H231898   1.785   4.533   2.581 -1.8915 -3.5682  1.8115
 3447TIP3   OH231899   5.399   3.084   8.273 -0.0687 -0.5006 -0.7177
 3447TIP3    H131900   5.412   3.174   8.304  1.5128 -0.1722 -2.2129
 3447TIP3    H231901   5.306   3.079   8.254 -0.8301 -0.2162  2.3848
 3448TIP3   OH231902   3.499   3.711   0.874 -0.0054 -0.1112 -0.3424
 3448TIP3    H131903   3.543   3.628   0.858 -1.6982 -1.2495  0.4929
 3448TIP3    H231904   3.470   3.705   0.965  0.8001  1.9000  0.1024
 3449TIP3   OH231905   2.637   6.726   1.638 -0.1358  0.4783 -0.8209
 3449TIP3    H131906   2.578   6.724   1.563 -0.2742  0.8288 -0.7237
 3449TIP3    H231907   2.641   6.635   1.668  0.8338  0.1223 -1.9603
 3450TIP3   OH231908   6.604   4.407   7.787 -0.3861 -0.0650 -0.3023
 3450TIP3    H131909   6.622   4.430   7.696 -0.6456  1.5228  0.0154
 3450TIP3    H231910   6.661   4.465   7.838 -0.7736 -0.4259  0.5564
 3451TIP3   OH231911   4.097   5.919   0.806 -0.2019  0.8660 -0.0807
 3451TIP3    H131912   4.089   5.828   0.837  0.1617  0.6895 -0.4947
 3451TIP3    H231913   4.139   5.965   0.879  2.9286 -0.0591 -1.1049
 3452TIP3   OH231914   4.769   6.043   8.554 -0.6186 -0.3083  0.6059
 3452TIP3    H131915   4.849   5.995   8.532  0.0846  0.9505  0.3652
 3452TIP3    H231916   4.702   5.975   8.560 -0.2827 -1.0791 -2.5348
 3453TIP3   OH231917   1.471   1.861   1.313  0.1342 -0.9042 -0.3397
 3453TIP3    H131918   1.485   1.952   1.339 -1.0959 -0.2964 -1.7074
 3453TIP3    H231919   1.545   1.841   1.256  0.6274 -0.9222  0.2871
 3454TIP3   OH231920   2.545   0.072   7.795  0.4571 -0.5568  0.4887
 3454TIP3    H131921   2.544   0.105   7.885  1.0078 -1.7625  0.9583
 3454TIP3    H231922   2.463   0.024   7.786 -0.1937  0.6219 -0.0887
 3455TIP3   OH231923   3.600   2.894   2.315  0.2073  0.3571  0.0374
 3455TIP3    H131924   3.645   2.969   2.354 -0.1014  0.5854 -0.0463
 3455TIP3    H231925   3.660   2.864   2.247 -0.2668  1.3813 -0.8676
 3456TIP3   OH231926   2.220   6.070   0.162 -0.1668 -0.4426  0.0075
 3456TIP3    H131927   2.195   6.119   0.083  0.4636 -0.2053 -0.0442
 3456TIP3    H231928   2.200   6.129   0.234  0.1740 -0.2799 -0.0303
 3457TIP3   OH231929   4.203   4.038   0.930 -0.4371 -0.3067  0.3141
 3457TIP3    H131930   4.216   4.034   1.025  0.1445  2.2790  0.4087
 3457TIP3    H231931   4.262   3.971   0.895  1.7601  0.7904  1.6567
 3458TIP3   OH231932   0.095   0.924   7.936 -0.4446  0.5023  0.0608
 3458TIP3    H131933   0.147   0.987   7.987  0.5661  0.5012 -0.9449
 3458TIP3    H231934   0.158   0.885   7.875 -1.3242 -0.5962 -0.1650
 3459TIP3   OH231935   5.171   5.069   1.724  0.4940 -0.5602 -0.3143
 3459TIP3    H131936   5.153   5.163   1.731  2.1621 -0.0411 -2.0823
 3459TIP3    H231937   5.103   5.037   1.665  0.3477 -0.3060 -0.2883
 3460TIP3   OH231938   4.510   0.208   1.433  0.5323 -0.1459  0.3957
 3460TIP3    H131939   4.555   0.268   1.374  1.8085 -1.2962  0.1617
 3460TIP3    H231940   4.471   0.142   1.376  1.0550 -0.7940  0.7822
 3461TIP3   OH231941   1.029   1.638   0.756 -0.3757  0.4371 -0.2970
 3461TIP3    H131942   1.084   1.601   0.687  0.6848  1.8699 -0.2487
 3461TIP3    H231943   0.967   1.568   0.777 -0.9858  0.0943 -2.9499
 3462TIP3   OH231944   3.541   3.652   2.592 -0.0799 -0.6832 -0.4320
 3462TIP3    H131945   3.628   3.677   2.560  0.8241 -1.0403  1.5550
 3462TIP3    H231946   3.521   3.570   2.545  0.1639 -0.0531 -1.6682
 3463TIP3   OH231947   5.551   4.666   7.240 -0.3239 -0.1290  0.4063
 3463TIP3    H131948   5.533   4.758   7.219 -0.5054 -0.5377 -1.3730
 3463TIP3    H231949   5.468   4.621   7.221  1.0362 -1.3680 -3.6358
 3464TIP3   OH231950   6.840   0.955   0.457 -0.5913  0.2999 -0.5367
 3464TIP3    H131951   6.848   0.924   0.547 -1.5794 -1.9419 -1.1660
 3464TIP3    H231952   6.929   0.949   0.422 -0.3251  0.5563  0.0735
 3465TIP3   OH231953   4.775   1.816   0.945 -0.3424  0.4069 -0.0539
 3465TIP3    H131954   4.684   1.821   0.972 -0.7111  2.6713 -1.4794
 3465TIP3    H231955   4.816   1.895   0.981  1.3083 -0.9390  1.2248
 3466TIP3   OH231956   3.503   1.251   1.789 -0.1294  0.6734 -0.2312
 3466TIP3    H131957   3.451   1.197   1.729 -0.5957  0.7116  0.1353
 3466TIP3    H231958   3.453   1.333   1.797  0.1033  0.8008 -0.0557
 3467TIP3   OH231959   2.511   1.692   7.937  0.0486 -0.2078  0.0902
 3467TIP3    H131960   2.474   1.732   7.859 -0.1488 -0.2144  0.1792
 3467TIP3    H231961   2.590   1.647   7.907 -0.7479 -1.3500 -0.3555
 3468TIP3   OH231962   4.948   6.106   7.601 -0.5093 -0.5396  0.4864
 3468TIP3    H131963   4.915   6.048   7.671 -1.1309 -1.9190 -0.8893
 3468TIP3    H231964   4.886   6.094   7.529  0.3130  0.5763 -0.4356
 3469TIP3   OH231965   6.642   2.972   7.098  0.0908  0.1310  0.4377
 3469TIP3    H131966   6.709   2.906   7.081  1.0331  1.1351  0.2190
 3469TIP3    H231967   6.650   2.991   7.192  0.1565  0.3022  0.3974
 3470TIP3   OH231968   0.565   3.600   1.934 -0.2022 -0.0862  0.0899
 3470TIP3    H131969   0.641   3.644   1.973  0.7213  0.2520 -1.9635
 3470TIP3    H231970   0.494   3.664   1.940  0.1047  0.2206  0.5191
 3471TIP3   OH231971   0.221   5.492   2.052 -0.1596 -0.0332  0.0295
 3471TIP3    H131972   0.298   5.491   2.107 -1.2220 -0.0218  1.5707
 3471TIP3    H231973   0.249   5.450   1.970  0.6880 -2.8527  1.6437
 3472TIP3   OH231974   1.397   3.762   7.743  0.0071  0.4507  0.2358
 3472TIP3    H131975   1.350   3.758   7.660 -0.5774 -3.1708  0.5654
 3472TIP3    H231976   1.462   3.691   7.737  1.7078  1.7625  1.9189
 3473TIP3   OH231977   3.495   2.388   1.701 -0.0086 -0.5673 -0.3070
 3473TIP3    H131978   3.534   2.376   1.787 -0.1030  2.3319  0.2612
 3473TIP3    H231979   3.561   2.435   1.650  0.2363 -2.6520 -2.0511
 3474TIP3   OH231980   0.063   2.146   2.462  0.4559 -0.5811 -0.1177
 3474TIP3    H131981   0.032   2.201   2.390  1.0719 -0.7279 -0.5101
 3474TIP3    H231982   0.036   2.058   2.437 -1.2702 -0.3827  0.9195
 3475TIP3   OH231983   3.482   5.838   1.689  0.1736  0.1294 -0.5997
 3475TIP3    H131984   3.572   5.864   1.708  0.0352 -0.8576  1.7498
 3475TIP3    H231985   3.451   5.800   1.771 -1.7284 -1.4101 -1.9703
 3476TIP3   OH231986   1.157   6.539   7.813  0.6772  0.0860  0.4419
 3476TIP3    H131987   1.169   6.627   7.777 -0.4955 -0.8535 -2.5372
 3476TIP3    H231988   1.236   6.525   7.865  1.4548  2.4660  0.0646
 3477TIP3   OH231989   5.906   6.698   2.458  0.0912  0.4147  0.7103
 3477TIP3    H131990   5.824   6.710   2.506 -1.4317  3.3762 -2.2548
 3477TIP3    H231991   5.968   6.757   2.501  0.9167 -1.9667  3.0762
 3478TIP3   OH231992   0.629   2.351   2.187 -0.2977  0.0567 -0.0766
 3478TIP3    H131993   0.626   2.357   2.282 -1.0426 -1.2514  0.0147
 3478TIP3    H231994   0.681   2.273   2.170  1.8959  1.5928 -0.8391
 3479TIP3   OH231995   6.273   3.330   7.903  0.0156 -0.3450  0.3343
 3479TIP3    H131996   6.328   3.374   7.838 -1.3413  0.1424 -0.4984
 3479TIP3    H231997   6.308   3.360   7.987  2.1608 -1.4108 -0.0782
 3480TIP3   OH231998   3.405   1.517   1.739 -0.8479  0.2079  0.1025
 3480TIP3    H131999   3.405   1.539   1.832  0.2675  1.3831 -0.1586
 3480TIP3    H232000   3.415   1.600   1.694 -0.2458 -0.4616 -1.0479
 3481TIP3   OH232001   4.171   4.693   0.198  0.3207 -0.5104  0.7224
 3481TIP3    H132002   4.108   4.640   0.247  0.7633 -2.0339 -0.2981
 3481TIP3    H232003   4.151   4.783   0.223 -2.0280 -0.9694  0.7004
 3482TIP3   OH232004   2.629   6.171   8.385  0.6708  0.2743 -0.5963
 3482TIP3    H132005   2.534   6.165   8.384  0.6781  0.0753 -2.0693
 3482TIP3    H232006   2.647   6.263   8.404  0.2390  0.0415  1.1304
 3483TIP3   OH232007   2.966   4.471   0.375 -0.0409  0.0851  0.7554
 3483TIP3    H132008   3.042   4.527   0.392  0.2436 -0.7006  2.2858
 3483TIP3    H232009   2.990   4.421   0.296 -0.4925  2.3718 -0.9114
 3484TIP3   OH232010   1.777   5.105   1.311 -0.2261 -0.4576  0.2974
 3484TIP3    H132011   1.709   5.041   1.330 -1.7797  1.4162  1.3901
 3484TIP3    H232012   1.778   5.163   1.387  1.5672  0.4590 -0.3624
 3485TIP3   OH232013   6.702   5.073   2.114 -0.1025 -0.2296  0.4504
 3485TIP3    H132014   6.624   5.095   2.063  1.0310 -2.8958 -2.7828
 3485TIP3    H232015   6.763   5.145   2.097 -0.6038  0.1189  0.0831
 3486TIP3   OH232016   0.967   5.642   8.206  0.3080 -0.0325 -0.0699
 3486TIP3    H132017   0.989   5.572   8.145 -0.7124  0.1016 -0.6196
 3486TIP3    H232018   0.872   5.653   8.197  0.3335  0.8716  0.5954
 3487TIP3   OH232019   6.115   3.974   0.727  0.1090  0.2410  0.3272
 3487TIP3    H132020   6.190   4.008   0.678 -0.0575 -0.6504 -0.6002
 3487TIP3    H232021   6.052   4.045   0.729  0.0743  0.2699 -0.8931
 3488TIP3   OH232022   1.143   2.508   6.819  0.5225  0.4436 -0.1264
 3488TIP3    H132023   1.101   2.459   6.891  0.2553  1.3628  0.3547
 3488TIP3    H232024   1.130   2.600   6.842  1.5271  0.7500 -0.7285
 3489TIP3   OH232025   1.040   2.224   2.123 -1.1306  0.6853 -0.0930
 3489TIP3    H132026   1.025   2.194   2.033 -0.2701  0.4109 -0.1534
 3489TIP3    H232027   1.134   2.216   2.135 -1.4069 -0.7384  1.3471
 3490TIP3   OH232028   4.393   5.248   1.835 -0.3712  0.0826 -0.1083
 3490TIP3    H132029   4.408   5.183   1.904  0.9518 -0.1360 -0.5698
 3490TIP3    H232030   4.417   5.203   1.754  0.9947  1.2443 -0.3964
 3491TIP3   OH232031   2.591   3.561   2.599 -0.0630 -0.2502 -0.4551
 3491TIP3    H132032   2.671   3.510   2.587 -0.4201 -0.3239 -2.9150
 3491TIP3    H232033   2.614   3.625   2.667  0.7023 -2.9280  2.0107
 3492TIP3   OH232034   3.824   0.809   3.161 -0.0122 -0.0463 -0.2964
 3492TIP3    H132035   3.816   0.902   3.185  2.1944  0.2036 -0.3114
 3492TIP3    H232036   3.918   0.797   3.145  0.1968 -2.8375  2.1270
 3493TIP3   OH232037   0.821   3.905   1.427  0.4113 -0.3085 -0.2275
 3493TIP3    H132038   0.842   3.884   1.336  0.1420 -0.6055 -0.2269
 3493TIP3    H232039   0.841   3.998   1.436  0.1797 -0.2125 -0.6687
 3494TIP3   OH232040   2.444   4.756   1.655  0.8514 -0.4671  0.1645
 3494TIP3    H132041   2.505   4.759   1.729  1.7477 -1.8785 -0.4850
 3494TIP3    H232042   2.387   4.831   1.669  1.6398 -0.1133  1.7403
 3495TIP3   OH232043   5.653   4.113   2.597 -0.5468 -0.2098 -0.0109
 3495TIP3    H132044   5.705   4.060   2.536 -0.2153  0.4732 -0.3364
 3495TIP3    H232045   5.569   4.125   2.552 -0.1238  0.7328 -0.5962
 3496TIP3   OH232046   3.162   1.589   0.081 -0.3958 -0.2331  0.6035
 3496TIP3    H132047   3.090   1.587   0.018 -1.9328  0.6634  2.2754
 3496TIP3    H232048   3.168   1.499   0.113 -1.4553 -0.1112  1.1768
 3497TIP3   OH232049   3.850   2.772   1.157 -0.4794  0.3433 -0.0369
 3497TIP3    H132050   3.770   2.764   1.106 -0.7671  1.4326  0.2214
 3497TIP3    H232051   3.821   2.803   1.243  0.2446  1.1692 -0.0739
 3498TIP3   OH232052   0.545   5.904   1.397  0.1596  0.0678  0.0079
 3498TIP3    H132053   0.563   5.831   1.457  2.0150  0.1795 -0.3675
 3498TIP3    H232054   0.463   5.941   1.429 -1.2065 -2.5653 -0.1813
 3499TIP3   OH232055   4.322   6.590   0.555 -0.3569  0.2141  0.0911
 3499TIP3    H132056   4.348   6.655   0.489  1.1481 -0.2135  0.2293
 3499TIP3    H232057   4.341   6.506   0.515 -0.5447 -0.0913  0.6351
 3500TIP3   OH232058   4.968   4.141   7.879 -0.3407 -0.1456 -0.5789
 3500TIP3    H132059   4.911   4.132   7.955 -1.4780 -1.9987 -1.5715
 3500TIP3    H232060   4.971   4.235   7.862  0.8648  0.4565  2.3690
 3501TIP3   OH232061   0.043   5.711   8.205  0.1819  0.1512 -0.4726
 3501TIP3    H132062   0.051   5.698   8.110  3.0212  0.4209 -0.3551
 3501TIP3    H232063   0.048   5.623   8.242  1.2949  0.1871 -0.5047
 3502TIP3   OH232064   3.892   3.199   7.701 -0.2728 -0.2735  0.1257
 3502TIP3    H132065   3.970   3.246   7.729  0.3874 -0.2839 -1.5692
 3502TIP3    H232066   3.902   3.189   7.606 -2.2259 -0.4867 -0.1115
 3503TIP3   OH232067   1.485   2.800   0.097  0.3211 -0.0567 -0.4409
 3503TIP3    H132068   1.471   2.712   0.131 -1.3581  0.4421  0.2772
 3503TIP3    H232069   1.421   2.810   0.027 -0.5939  1.0889  0.5089
 3504TIP3   OH232070   4.200   2.322   0.572 -0.1724 -0.4238 -0.1190
 3504TIP3    H132071   4.263   2.370   0.625  0.3764 -1.0251 -0.2142
 3504TIP3    H232072   4.139   2.389   0.540  1.0722  0.3408 -0.9462
 3505TIP3   OH232073   6.443   5.150   2.851  0.2935  0.5445 -0.3935
 3505TIP3    H132074   6.497   5.224   2.877 -0.1485  0.4489  0.8764
 3505TIP3    H232075   6.501   5.094   2.799  1.2721  0.6740  0.5334
 3506TIP3   OH232076   6.044   4.633   8.256  0.0267 -1.0187 -0.0478
 3506TIP3    H132077   5.996   4.673   8.328  1.3676  0.0108  0.3068
 3506TIP3    H232078   5.975   4.599   8.198 -1.1553  0.8017  0.1885
 3507TIP3   OH232079   0.975   5.411   7.998 -0.1267  0.4606  0.0443
 3507TIP3    H132080   0.889   5.420   7.956 -0.7966  0.0046  1.2728
 3507TIP3    H232081   1.002   5.322   7.978  0.0102  0.5646 -0.2408
 3508TIP3   OH232082   2.057   4.308   0.584  0.4636 -0.1644 -0.1629
 3508TIP3    H132083   1.994   4.360   0.632  0.2612 -0.3864 -0.1882
 3508TIP3    H232084   2.066   4.353   0.500  1.3430  0.6194  0.3341
 3509TIP3   OH232085   0.541   2.788   8.503 -0.5845 -0.6205  0.4087
 3509TIP3    H132086   0.468   2.775   8.564 -1.2726  0.3173 -0.1978
 3509TIP3    H232087   0.516   2.738   8.426 -1.4754  1.1674 -0.5014
 3510TIP3   OH232088   0.277   0.164   0.565  0.5378 -0.0402  0.6483
 3510TIP3    H132089   0.203   0.113   0.533  0.6796 -0.6047  1.2123
 3510TIP3    H232090   0.242   0.253   0.576 -0.1363 -0.3681  1.1843
 3511TIP3   OH232091   2.973   4.816   7.027  0.1769 -0.0362  0.2425
 3511TIP3    H132092   2.889   4.843   7.065  0.3339 -1.2696  1.5114
 3511TIP3    H232093   3.039   4.858   7.083  0.4045 -1.2767  0.9259
 3512TIP3   OH232094   2.227   0.633   2.810 -0.2599 -0.1538  0.4016
 3512TIP3    H132095   2.137   0.642   2.780  0.1851  0.8981 -0.6957
 3512TIP3    H232096   2.278   0.616   2.731  0.3860 -1.9156  1.1361
 3513TIP3   OH232097   4.282   0.801   8.724 -0.0411 -0.3540 -0.1406
 3513TIP3    H132098   4.282   0.799   8.819  0.1745  0.9124 -0.0956
 3513TIP3    H232099   4.247   0.715   8.698 -0.2152 -0.6673  1.0646
 3514TIP3   OH232100   3.825   6.422   2.260 -0.0632 -0.0607 -0.0123
 3514TIP3    H132101   3.750   6.439   2.318 -0.4599 -0.9985 -0.2312
 3514TIP3    H232102   3.897   6.473   2.298 -0.4913 -0.1252  0.9151
 3515TIP3   OH232103   4.936   0.182   0.978 -0.2580  0.6736  0.0427
 3515TIP3    H132104   4.863   0.137   1.020  1.3609 -0.1069  2.2242
 3515TIP3    H232105   4.986   0.219   1.050  1.2898  1.5174 -1.3895
 3516TIP3   OH232106   4.349   2.041   2.228 -0.1388 -0.4141  0.2170
 3516TIP3    H132107   4.319   2.123   2.187  0.6361 -0.7375 -1.0560
 3516TIP3    H232108   4.277   1.980   2.213 -0.4968 -0.1170  0.6983
 3517TIP3   OH232109   2.194   0.600   8.147 -0.2197  0.0776  0.5645
 3517TIP3    H132110   2.139   0.608   8.224  0.3647  1.9144  0.8458
 3517TIP3    H232111   2.138   0.560   8.081 -0.9125 -0.9575  1.7495
 3518TIP3   OH232112   2.197   6.219   1.681 -0.8954 -0.3474 -0.5192
 3518TIP3    H132113   2.158   6.134   1.660 -0.5953 -0.9796  1.2846
 3518TIP3    H232114   2.124   6.280   1.680 -1.7451 -1.2405  1.3113
 3519TIP3   OH232115   0.378   4.658   1.762  0.3530 -0.3502 -0.8151
 3519TIP3    H132116   0.356   4.720   1.831  0.3687 -0.8786 -0.3298
 3519TIP3    H232117   0.298   4.607   1.750  0.8089 -1.2292 -0.1571
 3520TIP3   OH232118   6.675   4.039   8.224  0.2421  0.1541 -0.5973
 3520TIP3    H132119   6.639   3.981   8.157  0.3824 -0.2441 -0.3313
 3520TIP3    H232120   6.647   4.127   8.197  0.0062 -0.0375 -0.9876
 3521TIP3   OH232121   4.894   6.732   7.765 -0.8862 -0.4814 -0.0039
 3521TIP3    H132122   4.854   6.648   7.785 -0.0070 -0.9663 -0.2611
 3521TIP3    H232123   4.965   6.741   7.828  0.4090 -0.9444 -1.3369
 3522TIP3   OH232124   1.592   5.363   0.943  0.3355 -0.0081 -0.7769
 3522TIP3    H132125   1.631   5.294   0.997 -1.8863 -0.5321  0.2791
 3522TIP3    H232126   1.524   5.400   0.998 -0.4901  1.0202 -2.4267
 3523TIP3   OH232127   1.503   1.068   2.373  0.2320 -0.1062 -0.2595
 3523TIP3    H132128   1.478   0.980   2.403  3.1522 -1.3774 -1.2455
 3523TIP3    H232129   1.590   1.082   2.409 -0.5364  2.9075  0.7214
 3524TIP3   OH232130   1.686   1.133   7.791  0.1863 -0.0884  0.3948
 3524TIP3    H132131   1.690   1.223   7.759  1.8619  0.0341  0.8263
 3524TIP3    H232132   1.595   1.106   7.777  0.2886  0.7041 -2.2906
 3525TIP3   OH232133   2.251   0.861   8.192 -0.0669  0.0237  0.1104
 3525TIP3    H132134   2.242   0.770   8.162 -1.4731  0.0404  0.4022
 3525TIP3    H232135   2.343   0.869   8.218  0.6173 -0.6880 -1.9101
 3526TIP3   OH232136   5.238   6.366   8.643  0.0198  0.0458  0.0976
 3526TIP3    H132137   5.330   6.373   8.668  0.5110  0.7139 -1.6999
 3526TIP3    H232138   5.229   6.277   8.609  0.0755  0.0743  0.0077
 3527TIP3   OH232139   5.441   1.865   8.675  0.4771 -0.1944  0.0162
 3527TIP3    H132140   5.446   1.954   8.640  2.0023  0.5381  1.8707
 3527TIP3    H232141   5.533   1.838   8.685  0.1667 -0.5289  2.7912
 3528TIP3   OH232142   4.847   5.666   7.988 -0.0909 -0.3277  0.2887
 3528TIP3    H132143   4.891   5.719   8.054 -0.4693  1.6321 -0.9582
 3528TIP3    H232144   4.909   5.597   7.966  0.4323 -0.4091  1.9401
 3529TIP3   OH232145   6.703   0.954   7.660 -0.0556  0.3929  0.3208
 3529TIP3    H132146   6.654   0.888   7.610 -0.0325  0.3361  0.3733
 3529TIP3    H232147   6.670   1.038   7.628  1.1560  0.3942 -1.0144
 3530TIP3   OH232148   5.651   3.964   8.641 -0.6266 -0.7360 -0.0891
 3530TIP3    H132149   5.662   4.024   8.714  0.3530 -2.3110  1.1111
 3530TIP3    H232150   5.641   3.877   8.681 -0.7322 -1.5671 -1.7855
 3531TIP3   OH232151   2.064   4.861   7.282 -0.5202  0.3852  0.5006
 3531TIP3    H132152   1.996   4.794   7.279 -2.1545  1.9661  0.2741
 3531TIP3    H232153   2.032   4.929   7.223  1.3463  1.1390  0.2920
 3532TIP3   OH232154   5.351   3.311   7.847 -0.1206 -0.4176  0.4348
 3532TIP3    H132155   5.419   3.375   7.872 -1.6034  0.7416  1.7499
 3532TIP3    H232156   5.370   3.291   7.755  2.0067 -0.1803  0.7548
 3533TIP3   OH232157   6.781   3.683   2.244 -0.2851  0.2888 -0.1230
 3533TIP3    H132158   6.715   3.748   2.221 -0.9428 -0.2679  0.1449
 3533TIP3    H232159   6.741   3.599   2.218  0.6156  0.0032 -0.6337
 3534TIP3   OH232160   5.122   1.985   8.576 -0.0819 -0.4119  0.4425
 3534TIP3    H132161   5.182   2.023   8.640  0.1704  3.1464 -1.6562
 3534TIP3    H232162   5.053   1.945   8.629  1.1776  0.4609  2.8881
 3535TIP3   OH232163   2.163   6.079   8.463 -0.2829 -0.6391 -0.1132
 3535TIP3    H132164   2.209   6.016   8.518 -2.1922 -0.7905  1.3937
 3535TIP3    H232165   2.152   6.156   8.518 -3.1240 -1.1482  0.1991
 3536TIP3   OH232166   1.102   1.175   7.996  0.0516  0.4006  0.4844
 3536TIP3    H132167   1.103   1.150   7.903 -0.9541 -0.4741  0.6891
 3536TIP3    H232168   1.021   1.138   8.030 -0.3326  1.9818  1.3935
 3537TIP3   OH232169   5.017   2.190   7.138  1.1462  0.2106  0.6229
 3537TIP3    H132170   4.974   2.263   7.095  0.6613 -0.3348  0.1684
 3537TIP3    H232171   5.021   2.121   7.072 -1.1906 -1.2706  1.9034
 3538TIP3   OH232172   3.550   2.095   3.238 -0.0692 -0.0364 -0.4756
 3538TIP3    H132173   3.609   2.047   3.179  1.8140  1.2096  0.2947
 3538TIP3    H232174   3.527   2.174   3.189 -1.5589 -0.7252 -0.9567
 3539TIP3   OH232175   5.598   2.874   0.388 -0.9122  0.9021  0.0007
 3539TIP3    H132176   5.549   2.955   0.399  0.3237  1.8941 -1.3535
 3539TIP3    H232177   5.688   2.903   0.369 -0.6147 -0.7590 -1.3544
 3540TIP3   OH232178   0.464   1.516   1.061 -0.2902 -1.0754 -0.4180
 3540TIP3    H132179   0.450   1.423   1.043 -1.5320 -0.6970 -1.5173
 3540TIP3    H232180   0.379   1.548   1.090  0.3672 -0.4724  0.9584
 3541TIP3   OH232181   4.136   1.147   7.749  0.0438 -0.6085 -0.2728
 3541TIP3    H132182   4.045   1.128   7.723 -0.2867  1.0494 -0.4229
 3541TIP3    H232183   4.143   1.110   7.837 -0.7913 -0.7361 -0.2475
 3542TIP3   OH232184   0.564   5.381   2.587 -0.0166 -0.8225 -0.2691
 3542TIP3    H132185   0.493   5.401   2.648  0.2378 -0.6050 -0.0405
 3542TIP3    H232186   0.566   5.456   2.527 -0.5817 -1.2618 -0.8465
 3543TIP3   OH232187   2.765   4.960   1.132  0.4315  0.4080  0.0303
 3543TIP3    H132188   2.692   4.939   1.073 -0.7347 -0.9856  1.8478
 3543TIP3    H232189   2.726   5.015   1.200  1.5778  1.3933 -0.0815
 3544TIP3   OH232190   0.471   4.796   0.893 -0.1356  0.3039 -0.2452
 3544TIP3    H132191   0.552   4.847   0.893 -0.4562  1.1493  3.9327
 3544TIP3    H232192   0.498   4.707   0.917 -0.4110  0.8188  2.2262
 3545TIP3   OH232193   3.652   3.523   1.213  0.1970  0.0490 -0.2266
 3545TIP3    H132194   3.571   3.572   1.207  0.4709  0.4797 -0.4909
 3545TIP3    H232195   3.654   3.490   1.303 -0.4898 -0.3575 -0.3591
 3546TIP3   OH232196   1.958   6.580   7.823  0.0012 -0.1993  0.2501
 3546TIP3    H132197   1.967   6.551   7.732  0.6827 -2.0313  0.8398
 3546TIP3    H232198   1.864   6.593   7.835 -0.0167  1.0296 -0.9538
 3547TIP3   OH232199   5.801   6.212   1.448  0.4434 -0.1318 -0.2015
 3547TIP3    H132200   5.744   6.137   1.459  1.0499 -0.7120 -0.8879
 3547TIP3    H232201   5.763   6.260   1.374 -0.9890  1.2669  1.3355
 3548TIP3   OH232202   4.321   1.792   1.381  0.1440  0.0113  0.4594
 3548TIP3    H132203   4.246   1.733   1.377  0.5737 -0.4856 -0.5171
 3548TIP3    H232204   4.381   1.750   1.443  0.5730 -0.7434 -0.4479
 3549TIP3   OH232205   0.141   3.904   1.043 -0.0038 -0.1748  0.2126
 3549TIP3    H132206   0.231   3.881   1.068  0.0154 -1.6207 -1.0177
 3549TIP3    H232207   0.086   3.851   1.101 -0.0725  0.5512  0.8219
 3550TIP3   OH232208   6.400   4.822   0.383 -0.5425  0.1458 -0.0617
 3550TIP3    H132209   6.493   4.804   0.368  0.1375  2.0698  1.3527
 3550TIP3    H232210   6.373   4.754   0.446  0.3174  0.4102  0.6200
 3551TIP3   OH232211   5.101   3.456   1.583 -0.6013 -0.3270 -0.2139
 3551TIP3    H132212   5.090   3.492   1.671  0.0738 -0.4848 -0.0641
 3551TIP3    H232213   5.087   3.362   1.593  1.1422 -0.5869  0.0457
 3552TIP3   OH232214   2.872   0.089   0.281  0.0149 -0.1976 -0.1033
 3552TIP3    H132215   2.908   0.042   0.205 -1.9236 -0.8898 -0.6578
 3552TIP3    H232216   2.851   0.020   0.344 -0.8709  0.1061 -0.0497
 3553TIP3   OH232217   1.715   3.796   0.596 -0.7085  0.2565 -0.3160
 3553TIP3    H132218   1.744   3.743   0.523  0.5357 -0.6171  0.7610
 3553TIP3    H232219   1.762   3.879   0.585 -0.1352 -0.0544 -0.2394
 3554TIP3   OH232220   1.119   0.201   1.097  0.0378 -0.1821  0.3129
 3554TIP3    H132221   1.109   0.170   1.187  2.0818 -2.2698 -0.1125
 3554TIP3    H232222   1.098   0.295   1.102  0.3759 -0.1782  3.0151
 3555TIP3   OH232223   2.761   0.956   1.730 -0.3554 -0.2030 -0.2694
 3555TIP3    H132224   2.679   0.979   1.774  0.0503 -0.7148  0.7843
 3555TIP3    H232225   2.733   0.924   1.644 -1.1107  1.4132 -0.6511
 3556TIP3   OH232226   3.918   3.803   0.321 -0.1678  0.0150  0.3256
 3556TIP3    H132227   4.001   3.796   0.369 -0.0339 -1.6222 -0.0821
 3556TIP3    H232228   3.872   3.721   0.341 -1.1835  0.3945 -0.3841
 3557TIP3   OH232229   5.460   5.679   2.370 -0.7844  0.3057 -0.8707
 3557TIP3    H132230   5.501   5.668   2.455 -1.3335 -0.1900 -0.6575
 3557TIP3    H232231   5.497   5.760   2.335 -0.2841  0.3194 -0.3206
 3558TIP3   OH232232   2.755   2.064   0.526  0.3623  0.0210  0.0052
 3558TIP3    H132233   2.738   2.137   0.585  0.1653 -0.2705  0.3174
 3558TIP3    H232234   2.836   2.025   0.559  1.0189  0.7006 -0.7723
 3559TIP3   OH232235   3.113   0.109   7.758  0.0417 -0.0080 -0.7055
 3559TIP3    H132236   3.047   0.066   7.813  0.2039  0.2128 -0.3338
 3559TIP3    H232237   3.067   0.129   7.677 -0.4288  0.3930 -0.3424
 3560TIP3   OH232238   3.476   5.949   8.418  0.5334 -0.1179 -0.2980
 3560TIP3    H132239   3.515   6.036   8.403  1.9684 -0.9648 -1.9235
 3560TIP3    H232240   3.549   5.896   8.449 -0.0463 -1.0162 -0.4425
 3561TIP3   OH232241   1.012   4.496   2.155 -0.1405 -0.0141  0.0976
 3561TIP3    H132242   1.102   4.464   2.144 -0.8699 -1.7865 -1.1664
 3561TIP3    H232243   0.968   4.468   2.075 -2.6762 -2.2005  2.0992
 3562TIP3   OH232244   1.906   4.169   1.513  0.2618  0.7188  0.8325
 3562TIP3    H132245   1.949   4.215   1.585  1.7769  1.3210 -0.3818
 3562TIP3    H232246   1.900   4.235   1.444  1.8989 -0.6583 -0.7417
 3563TIP3   OH232247   0.996   3.520   0.715 -0.0794 -0.4312 -0.0446
 3563TIP3    H132248   1.049   3.593   0.684 -0.2107  0.0141  0.7552
 3563TIP3    H232249   1.055   3.444   0.712  0.0764 -0.2838 -0.8173
 3564TIP3   OH232250   4.094   2.533   8.619 -0.5485  0.1355  0.2056
 3564TIP3    H132251   4.154   2.526   8.545  1.7970  0.7158  1.9049
 3564TIP3    H232252   4.007   2.538   8.580  0.5174 -0.3097 -2.4340
 3565TIP3   OH232253   1.924   1.421   0.915  0.3876  0.3295  0.4018
 3565TIP3    H132254   1.922   1.436   1.009 -2.5579  0.2843  0.4332
 3565TIP3    H232255   1.871   1.492   0.878  1.9524  0.6869 -1.3182
 3566TIP3   OH232256   2.343   0.679   0.508 -0.3630  0.1866 -0.6148
 3566TIP3    H132257   2.300   0.607   0.461  0.0619 -0.6130  0.1876
 3566TIP3    H232258   2.430   0.646   0.527 -0.3886  0.6561  0.3713
 3567TIP3   OH232259   0.650   6.559   7.937  0.5705  1.0428  0.3910
 3567TIP3    H132260   0.700   6.478   7.934 -0.6097  0.2880  0.5837
 3567TIP3    H232261   0.561   6.533   7.915  0.0808  2.2175  0.9210
 3568TIP3   OH232262   5.618   6.603   1.973  0.5553  0.4418  0.5657
 3568TIP3    H132263   5.708   6.629   1.953  1.3118 -1.2130  1.6228
 3568TIP3    H232264   5.616   6.593   2.068 -1.0348  1.3541  0.6675
 3569TIP3   OH232265   5.510   5.218   1.475 -0.2725 -0.4723  0.3880
 3569TIP3    H132266   5.473   5.141   1.518 -0.7135 -0.7488 -0.4519
 3569TIP3    H232267   5.434   5.270   1.448  0.0283  0.4983  1.3393
 3570TIP3   OH232268   6.628   2.522   1.697  0.3105  0.1315 -0.5669
 3570TIP3    H132269   6.660   2.432   1.687  0.3275  0.1866 -0.9991
 3570TIP3    H232270   6.706   2.576   1.683  0.7748  0.1653  1.6880
 3571TIP3   OH232271   2.687   2.372   3.037  0.1146 -0.6282 -0.2224
 3571TIP3    H132272   2.711   2.405   2.951 -1.1371  1.1624  0.0666
 3571TIP3    H232273   2.707   2.444   3.097  0.7483 -1.7514  0.9757
 3572TIP3   OH232274   2.977   5.461   0.090  0.4158  0.3893  0.2328
 3572TIP3    H132275   2.932   5.507   0.161 -0.5968  0.2684 -0.3098
 3572TIP3    H232276   2.995   5.374   0.125  2.3858  1.1621  1.2824
 3573TIP3   OH232277   5.823   6.516   3.030 -0.3547 -1.1195 -0.2744
 3573TIP3    H132278   5.842   6.473   2.947 -0.5452  3.4182 -3.0162
 3573TIP3    H232279   5.742   6.565   3.015  1.3746  2.6385  1.1914
 3574TIP3   OH232280   3.210   0.157   1.491 -0.4549 -0.2832 -0.1106
 3574TIP3    H132281   3.135   0.099   1.479 -1.0533  0.6747 -1.0631
 3574TIP3    H232282   3.172   0.243   1.506  0.4359  0.5774 -2.4926
 3575TIP3   OH232283   6.283   2.063   7.994 -0.0903  0.3801 -0.2100
 3575TIP3    H132284   6.302   2.052   7.901 -1.5437  1.3781 -0.6571
 3575TIP3    H232285   6.202   2.113   7.997 -1.0152 -1.0853  1.6002
 3576TIP3   OH232286   4.262   5.378   7.989 -0.6452  0.0609 -0.1393
 3576TIP3    H132287   4.230   5.289   7.974 -0.2922 -0.1023  0.0457
 3576TIP3    H232288   4.187   5.424   8.027 -0.8567 -0.1326 -0.3198
 3577TIP3   OH232289   0.510   4.443   8.172  0.5452  0.9217  0.3406
 3577TIP3    H132290   0.459   4.373   8.212  0.2037  0.8480 -0.2096
 3577TIP3    H232291   0.451   4.518   8.171  0.4518  0.8454 -0.2669
 3578TIP3   OH232292   5.633   6.010   7.553 -0.6129  0.0102 -0.1760
 3578TIP3    H132293   5.675   5.936   7.510  0.0204 -0.3592  1.0402
 3578TIP3    H232294   5.665   6.087   7.505 -0.1162 -0.4066 -0.5156
 3579TIP3   OH232295   4.551   4.250   8.252  0.7639 -0.3967  0.6553
 3579TIP3    H132296   4.595   4.213   8.175 -1.0359  0.7128 -1.0157
 3579TIP3    H232297   4.505   4.176   8.291  0.3611 -0.7003 -0.3511
 3580TIP3   OH232298   0.041   6.599   0.094  0.6025  0.5857  0.5505
 3580TIP3    H132299   0.038   6.582  -0.001  1.1418 -1.1086  0.8040
 3580TIP3    H232300  -0.046   6.635   0.114  0.2589  0.3821 -0.4809
 3581TIP3   OH232301   2.122   5.809   1.155 -0.4765  0.0575  0.3182
 3581TIP3    H132302   2.201   5.856   1.129 -0.2796 -0.9838 -1.0647
 3581TIP3    H232303   2.051   5.871   1.141 -0.0266  0.6150  0.4831
 3582TIP3   OH232304   4.270   5.952   2.156  0.1894  0.2726 -0.0230
 3582TIP3    H132305   4.214   5.988   2.225  0.6943  1.8821 -0.4252
 3582TIP3    H232306   4.208   5.918   2.090 -0.6789  5.4667 -2.3646
 3583TIP3   OH232307   4.418   4.519   1.715  0.3114 -0.7848  0.3264
 3583TIP3    H132308   4.467   4.437   1.725  2.1537  0.4659  2.5928
 3583TIP3    H232309   4.485   4.587   1.711 -1.1827  0.7125 -1.0256
 3584TIP3   OH232310   0.367   4.951   2.448  0.1778  0.5553 -0.0699
 3584TIP3    H132311   0.279   4.972   2.479  0.6925  1.4335  0.8562
 3584TIP3    H232312   0.385   5.017   2.381 -0.2844 -0.3200 -1.0928
 3585TIP3   OH232313   3.469   5.668   0.123  0.6750 -0.2637 -0.3495
 3585TIP3    H132314   3.391   5.636   0.079  1.0362 -0.9829 -0.4882
 3585TIP3    H232315   3.491   5.749   0.077  1.4519 -1.3489 -1.9900
 3586TIP3   OH232316   0.503   1.816   1.842  0.1154 -0.0017  0.6619
 3586TIP3    H132317   0.433   1.847   1.786 -0.6028 -0.6100  1.2011
 3586TIP3    H232318   0.501   1.874   1.918  0.0559 -0.1440  0.7708
 3587TIP3   OH232319   2.217   4.728   1.343 -0.1063 -0.0000 -0.0623
 3587TIP3    H132320   2.135   4.762   1.380 -0.4762  2.0816 -2.5250
 3587TIP3    H232321   2.200   4.722   1.249  2.0245 -1.2402 -0.4181
 3588TIP3   OH232322   4.993   1.517   7.938  0.3933 -0.1372  1.3092
 3588TIP3    H132323   4.968   1.472   7.857 -1.2481 -0.7064  2.1036
 3588TIP3    H232324   5.037   1.450   7.990  0.8519  0.0542  1.1743
 3589TIP3   OH232325   3.261   6.211   8.057  0.5052  0.1409  0.2077
 3589TIP3    H132326   3.238   6.208   7.965 -0.6597  2.0771  0.3880
 3589TIP3    H232327   3.202   6.149   8.099  0.1319  0.2387 -0.1703
 3590TIP3   OH232328   6.616   1.716   2.725  0.0259 -0.1464 -0.3924
 3590TIP3    H132329   6.705   1.752   2.721  0.0766 -0.3277 -0.9855
 3590TIP3    H232330   6.576   1.760   2.799  0.9275 -0.7657  0.4873
 3591TIP3   OH232331   2.715   5.252   1.994  0.2701 -0.0078  0.3849
 3591TIP3    H132332   2.633   5.285   2.031  0.5157 -1.4163  2.3141
 3591TIP3    H232333   2.783   5.278   2.056  0.8359 -1.5670  0.4627
 3592TIP3   OH232334   4.565   0.852   8.693 -0.4670  0.4840 -0.3132
 3592TIP3    H132335   4.476   0.829   8.720 -0.7154 -0.3674 -1.7088
 3592TIP3    H232336   4.557   0.870   8.599  1.0535 -1.0860 -0.8097
 3593TIP3   OH232337   1.307   4.704   7.276  0.2478  0.0499 -0.7475
 3593TIP3    H132338   1.334   4.630   7.221  1.1287  0.8009 -1.3616
 3593TIP3    H232339   1.224   4.732   7.238  0.2616 -0.1832 -0.9582
 3594TIP3   OH232340   0.161   3.758   0.708 -0.3478  0.0044  0.1758
 3594TIP3    H132341   0.072   3.778   0.734 -0.9847 -2.5600  0.1710
 3594TIP3    H232342   0.205   3.730   0.788 -0.2520 -1.0263 -0.2215
 3595TIP3   OH232343   2.301   5.021   1.169  0.5950 -0.2125 -0.2702
 3595TIP3    H132344   2.354   5.095   1.196  0.2757  0.0054 -0.2338
 3595TIP3    H232345   2.234   5.012   1.238  0.3089 -0.1967 -0.5420
 3596TIP3   OH232346   0.974   1.397   0.423  0.5467  0.0336 -0.0287
 3596TIP3    H132347   0.996   1.476   0.373  0.1890  0.9907  1.2662
 3596TIP3    H232348   0.885   1.412   0.453  1.1184  0.0277  1.8228
 3597TIP3   OH232349   2.576   6.099   2.222  0.3762  0.0566 -0.3626
 3597TIP3    H132350   2.655   6.054   2.192 -0.8834 -2.1976 -0.4443
 3597TIP3    H232351   2.597   6.127   2.311  0.6831 -2.1462  0.3065
 3598TIP3   OH232352   1.883   3.988   8.077 -0.4959  0.5156 -0.0211
 3598TIP3    H132353   1.901   3.895   8.080  0.0842  0.6523  1.8390
 3598TIP3    H232354   1.813   4.002   8.140 -0.2905  1.3874  0.0388
 3599TIP3   OH232355   5.282   2.375   0.713 -0.0983  0.1691 -0.4485
 3599TIP3    H132356   5.221   2.324   0.766 -0.2735  1.0493  0.2244
 3599TIP3    H232357   5.245   2.371   0.624 -1.7111  1.4748  0.1011
 3600TIP3   OH232358   3.093   4.080   1.944 -0.2562  0.3691 -0.2000
 3600TIP3    H132359   3.149   4.002   1.933 -1.7249 -0.5636 -1.5398
 3600TIP3    H232360   3.148   4.143   1.990  1.4543 -0.9738 -0.3085
 3601TIP3   OH232361   0.925   6.698   8.343  0.4687  0.2697  0.4457
 3601TIP3    H132362   0.948   6.707   8.435  1.9773  0.4911  0.0708
 3601TIP3    H232363   0.886   6.611   8.336 -0.1473  0.4561  1.3712
 3602TIP3   OH232364   3.486   6.574   7.447  0.1096  0.0245 -0.4748
 3602TIP3    H132365   3.491   6.611   7.359  1.2094  0.6059 -0.1889
 3602TIP3    H232366   3.470   6.481   7.432  0.6635  0.0443 -1.3126
 3603TIP3   OH232367   2.801   4.119   8.064  0.4025  0.4064  0.1585
 3603TIP3    H132368   2.831   4.081   7.982  1.2280 -0.5487  0.8749
 3603TIP3    H232369   2.708   4.136   8.051  0.2200 -1.0465 -0.5015
 3604TIP3   OH232370   2.053   1.913   0.944  0.2109 -0.4626  0.9633
 3604TIP3    H132371   2.102   1.945   0.868 -0.4824 -0.6454  0.4313
 3604TIP3    H232372   2.034   1.992   0.995  0.9415 -0.3772  1.1079
 3605TIP3   OH232373   5.692   5.772   0.673  0.0964  0.3173 -0.0756
 3605TIP3    H132374   5.693   5.709   0.602  1.9586 -0.3075  0.4464
 3605TIP3    H232375   5.738   5.848   0.639 -0.1548  0.5221  0.0359
 3606TIP3   OH232376   5.917   0.142   8.117 -0.5365 -0.7124  0.5902
 3606TIP3    H132377   5.884   0.104   8.199 -0.6780 -0.7487  0.5171
 3606TIP3    H232378   5.859   0.217   8.101 -1.6729 -1.7765 -0.4348
 3607TIP3   OH232379   1.817   6.343   8.271  0.3294 -0.6290 -0.1188
 3607TIP3    H132380   1.867   6.333   8.190  0.0398 -0.7262 -0.2885
 3607TIP3    H232381   1.830   6.260   8.317 -0.6558 -1.1348 -0.7230
 3608TIP3   OH232382   5.584   0.444   0.214  0.3270 -0.3449 -0.1385
 3608TIP3    H132383   5.627   0.452   0.299 -0.4622  2.5807  0.0640
 3608TIP3    H232384   5.648   0.476   0.151  0.2195 -0.6949 -0.4307
 3609TIP3   OH232385   4.071   3.946   1.464  0.2475  0.0185  0.1951
 3609TIP3    H132386   4.098   3.906   1.548  2.7447  1.2290  0.0663
 3609TIP3    H232387   4.070   3.873   1.403  2.0807 -0.3483  0.5360
 3610TIP3   OH232388   0.803   3.624   7.561 -0.1266 -0.0545  0.2053
 3610TIP3    H132389   0.866   3.592   7.626 -0.5184  1.0443  1.1546
 3610TIP3    H232390   0.855   3.672   7.498  0.5299 -2.7030 -1.4355
 3611TIP3   OH232391   5.441   1.223   0.545 -0.4467 -0.0604  0.2740
 3611TIP3    H132392   5.478   1.164   0.479 -1.2208 -0.2375 -0.0200
 3611TIP3    H232393   5.452   1.175   0.627  0.5756  0.1868  0.2922
 3612TIP3   OH232394   4.038   0.325   3.081  0.0255  0.0699  0.1158
 3612TIP3    H132395   4.115   0.353   3.130  1.1804 -1.5266 -0.6931
 3612TIP3    H232396   4.002   0.406   3.044  0.5337  0.9920  1.5581
 3613TIP3   OH232397   5.498   2.155   2.112  0.3913  0.2756 -0.0764
 3613TIP3    H132398   5.510   2.061   2.127 -1.9706 -0.1575 -0.4928
 3613TIP3    H232399   5.444   2.185   2.185 -0.8214  0.7803 -1.1388
 3614TIP3   OH232400   6.839   2.590   0.480  0.0596 -0.0653 -0.2303
 3614TIP3    H132401   6.779   2.596   0.554 -1.1764 -0.0723 -1.1953
 3614TIP3    H232402   6.857   2.496   0.472 -0.8131 -0.2079 -0.6899
 3615TIP3   OH232403   3.214   3.981   7.229  0.2787  0.1329  0.1563
 3615TIP3    H132404   3.166   4.026   7.160  1.2979 -0.3268 -0.8781
 3615TIP3    H232405   3.146   3.934   7.279 -0.5530  1.1125 -0.0202
 3616TIP3   OH232406   0.119   2.088   8.307 -0.9317 -0.4258  0.0851
 3616TIP3    H132407   0.066   2.155   8.350 -1.4789  0.0260 -1.2503
 3616TIP3    H232408   0.189   2.069   8.370 -2.3454 -0.6455  1.6469
 3617TIP3   OH232409   1.251   0.480   7.707 -0.5370 -0.3488  0.3432
 3617TIP3    H132410   1.335   0.514   7.675 -0.0885  0.5372  2.2762
 3617TIP3    H232411   1.226   0.414   7.644  0.7042  0.6579 -1.2843
 3618TIP3   OH232412   5.941   6.507   1.415  0.0857 -0.8239  0.2775
 3618TIP3    H132413   5.924   6.535   1.325  0.2807  0.2093  0.5460
 3618TIP3    H232414   5.914   6.415   1.418  0.2328 -0.9147 -0.8743
 3619TIP3   OH232415   5.770   6.634   2.224 -0.2321 -0.2341  0.4717
 3619TIP3    H132416   5.700   6.579   2.259 -0.0028 -1.1647 -0.4899
 3619TIP3    H232417   5.826   6.652   2.299  0.1126 -1.9883  0.6641
 3620TIP3   OH232418   1.199   3.102   8.211 -0.1358 -0.2984  0.0224
 3620TIP3    H132419   1.105   3.118   8.200  0.1345  1.0142 -0.6827
 3620TIP3    H232420   1.221   3.148   8.292 -0.6210 -3.2031  1.9478
 3621TIP3   OH232421   1.855   2.915   8.690  0.0421  0.4886  0.2971
 3621TIP3    H132422   1.813   3.001   8.696  0.2774  0.6866 -0.7201
 3621TIP3    H232423   1.948   2.934   8.682  0.1137  0.1336  0.2718
 3622TIP3   OH232424   1.623   0.456   0.248  0.5727  0.4018  0.0774
 3622TIP3    H132425   1.540   0.464   0.202 -0.2299 -1.1746  1.1379
 3622TIP3    H232426   1.679   0.406   0.188  0.4328  0.6285 -0.2436
 3623TIP3   OH232427   6.830   4.115   1.251 -0.7138 -0.2534 -0.8591
 3623TIP3    H132428   6.877   4.194   1.278 -0.9062 -0.7776  1.2245
 3623TIP3    H232429   6.887   4.043   1.279 -1.2447 -0.8605 -1.3238
 3624TIP3   OH232430   2.222   5.805   0.168  0.2120  0.0562 -0.0287
 3624TIP3    H132431   2.214   5.900   0.170 -2.6179 -0.0908  0.1774
 3624TIP3    H232432   2.178   5.775   0.248  2.2323 -1.4187  0.6160
 3625TIP3   OH232433   0.697   1.862   2.165  0.4088 -0.2846  0.1226
 3625TIP3    H132434   0.670   1.797   2.230  1.0719 -0.6606  0.0224
 3625TIP3    H232435   0.615   1.906   2.141 -0.1461 -1.4583 -0.2371
 3626TIP3   OH232436   4.345   2.050   2.639 -0.4859  0.1567  0.2026
 3626TIP3    H132437   4.308   2.125   2.592 -1.2904 -1.0690 -1.2175
 3626TIP3    H232438   4.269   2.007   2.678 -0.2388 -0.8102 -0.3552
 3627TIP3   OH232439   4.335   0.719   3.102  0.3653  0.3407 -0.5398
 3627TIP3    H132440   4.245   0.744   3.082 -0.3668 -1.1209  0.7344
 3627TIP3    H232441   4.329   0.627   3.127  2.2518  0.1690 -0.5928
 3628TIP3   OH232442   4.043   3.577   2.188  0.5298  0.1631  0.0145
 3628TIP3    H132443   4.010   3.495   2.153  0.7501 -1.0298  2.3820
 3628TIP3    H232444   4.137   3.562   2.201  1.1175  1.7369 -1.9057
 3629TIP3   OH232445   3.573   2.077   1.915 -0.7991 -0.7267  0.2512
 3629TIP3    H132446   3.587   2.172   1.913  1.4785 -0.9377  2.0721
 3629TIP3    H232447   3.478   2.067   1.923 -1.1222  1.3689 -0.3575
 3630TIP3   OH232448   6.545   1.132   7.828 -0.0418 -0.1133 -0.4646
 3630TIP3    H132449   6.570   1.149   7.737  1.8271  0.7849  0.1727
 3630TIP3    H232450   6.527   1.218   7.865  0.5284 -0.3357  0.3661
 3631TIP3   OH232451   6.457   3.722   7.789 -0.1934  0.3863 -0.6183
 3631TIP3    H132452   6.461   3.720   7.693  0.4302 -2.7150 -0.6526
 3631TIP3    H232453   6.369   3.689   7.810 -0.0337  0.2526 -0.1384
 3632TIP3   OH232454   3.547   4.410   8.553 -0.6501  0.1670 -0.0502
 3632TIP3    H132455   3.504   4.331   8.522 -1.9463  1.2604 -1.1195
 3632TIP3    H232456   3.550   4.468   8.477 -1.2954  1.8110  1.1190
 3633TIP3   OH232457   2.996   2.427   7.618  0.0350  0.9491 -0.4874
 3633TIP3    H132458   2.948   2.442   7.537  1.3050  2.9351 -0.9475
 3633TIP3    H232459   3.086   2.410   7.591  0.1320 -0.2540  0.4594
 3634TIP3   OH232460   6.131   1.001   0.825 -0.1635 -0.5574 -0.5426
 3634TIP3    H132461   6.059   0.969   0.771  0.6568 -0.6967 -1.5802
 3634TIP3    H232462   6.093   1.009   0.913 -2.2960  2.1813 -1.5529
 3635TIP3   OH232463   3.148   1.663   7.417 -0.3414  0.4077  0.5239
 3635TIP3    H132464   3.166   1.581   7.371  0.1013  0.7084  0.1525
 3635TIP3    H232465   3.138   1.728   7.347  1.1355  1.0322  0.8640
 3636TIP3   OH232466   0.175   5.785   0.474 -0.1426  0.6165  0.2749
 3636TIP3    H132467   0.227   5.722   0.524  0.4041  0.4451 -0.4900
 3636TIP3    H232468   0.179   5.865   0.526  2.9002  1.3369 -0.8726
 3637TIP3   OH232469   3.808   5.796   7.743  0.2129  0.4968  0.2045
 3637TIP3    H132470   3.741   5.865   7.750 -2.1917 -1.5226 -1.1455
 3637TIP3    H232471   3.857   5.818   7.664 -0.8111  0.4949 -0.4519
 3638TIP3   OH232472   2.315   3.761   1.867  0.5206 -0.5137 -0.0540
 3638TIP3    H132473   2.243   3.816   1.898 -0.8524 -1.7184 -0.9263
 3638TIP3    H232474   2.350   3.807   1.791  0.9665  0.2905  0.6288
 3639TIP3   OH232475   6.741   1.345   8.094 -0.4147  0.0293  0.1047
 3639TIP3    H132476   6.814   1.360   8.155  0.7837  0.2786 -1.3189
 3639TIP3    H232477   6.741   1.250   8.080 -1.1514 -0.1165  1.0074
 3640TIP3   OH232478   1.448   3.760   0.573 -0.2229 -0.1046 -0.0370
 3640TIP3    H132479   1.443   3.746   0.478  1.3169 -0.8816 -0.0335
 3640TIP3    H232480   1.532   3.804   0.586 -1.2776  1.7658  0.8059
 3641TIP3   OH232481   3.844   4.490   8.557 -0.1219  0.2517 -0.1863
 3641TIP3    H132482   3.852   4.456   8.646 -1.4120  0.7501  0.1380
 3641TIP3    H232483   3.762   4.453   8.524 -0.8285  1.8510 -0.3345
 3642TIP3   OH232484   2.386   6.470   7.176 -0.2181  0.1646 -0.0567
 3642TIP3    H132485   2.417   6.384   7.148 -0.2275 -0.0043  0.4392
 3642TIP3    H232486   2.316   6.450   7.239 -0.6444  0.5382 -0.4072
 3643TIP3   OH232487   4.384   6.619   2.627 -0.5004  0.0119  0.1234
 3643TIP3    H132488   4.373   6.588   2.717  0.1566  1.3536  0.7062
 3643TIP3    H232489   4.460   6.678   2.632  0.1490 -0.6301 -1.5107
 3644TIP3   OH232490   0.320   1.908   1.633  0.2433  0.1474  0.3886
 3644TIP3    H132491   0.334   1.906   1.538 -0.2207 -0.3710  0.3234
 3644TIP3    H232492   0.251   1.843   1.648 -0.2465  0.7904  0.9908
 3645TIP3   OH232493   5.338   5.509   7.516 -0.3835  0.0498 -1.2689
 3645TIP3    H132494   5.422   5.552   7.502 -0.1576  0.5593  1.1167
 3645TIP3    H232495   5.357   5.416   7.512 -0.2560  0.1237 -3.3034
 3646TIP3   OH232496   6.832   3.302   2.749 -0.2325  0.7016  0.3773
 3646TIP3    H132497   6.905   3.330   2.694 -0.9272  1.0489 -0.3989
 3646TIP3    H232498   6.762   3.365   2.731 -2.1997 -1.9191 -2.2003
 3647TIP3   OH232499   6.175   3.951   0.282 -0.1054  0.2380 -0.5242
 3647TIP3    H132500   6.222   3.880   0.326 -2.7744 -0.2758  1.7786
 3647TIP3    H232501   6.133   3.910   0.207  0.0065 -0.1418 -0.3791
 3648TIP3   OH232502   3.595   1.310   6.751  0.6016  0.1157  0.0615
 3648TIP3    H132503   3.644   1.272   6.679  0.1467 -0.7748  0.1975
 3648TIP3    H232504   3.651   1.380   6.785  2.2658 -1.5160  0.8759
 3649TIP3   OH232505   0.317   5.678   1.694  0.8213 -0.3647 -0.6508
 3649TIP3    H132506   0.302   5.698   1.602 -0.9943  0.5276 -0.1977
 3649TIP3    H232507   0.230   5.659   1.730  1.3931  0.0071  1.0442
 3650TIP3   OH232508   2.524   2.965   0.758  0.5769  0.0756  0.1473
 3650TIP3    H132509   2.578   2.974   0.679  1.1234 -0.6168  0.4393
 3650TIP3    H232510   2.455   3.031   0.747  1.2221  0.6667 -0.4369
 3651TIP3   OH232511   1.592   3.651   1.785  0.1768 -0.1821 -0.3915
 3651TIP3    H132512   1.597   3.742   1.816 -0.0276 -0.6725  1.1646
 3651TIP3    H232513   1.529   3.609   1.844 -0.5418 -1.0855 -1.7650
 3652TIP3   OH232514   6.185   1.883   0.628  0.7177 -0.5938  0.3028
 3652TIP3    H132515   6.179   1.847   0.717  2.2828  1.9032  1.5363
 3652TIP3    H232516   6.172   1.977   0.639  0.2529 -0.2853 -2.2531
 3653TIP3   OH232517   4.288   1.407   0.370  0.5115  0.4541 -0.4158
 3653TIP3    H132518   4.200   1.443   0.357 -0.1106 -0.7023  0.4318
 3653TIP3    H232519   4.337   1.436   0.293 -0.2643  2.1123 -0.3216
 3654TIP3   OH232520   4.599   2.500   1.679  0.0726  0.7576 -0.1588
 3654TIP3    H132521   4.640   2.469   1.598  1.7478  0.7602  0.6357
 3654TIP3    H232522   4.611   2.595   1.678 -0.2293  0.7976 -0.0734
 3655TIP3   OH232523   2.181   2.124   7.931  0.1610 -0.0302  0.0705
 3655TIP3    H132524   2.218   2.119   7.843 -1.3196  0.2209 -0.6104
 3655TIP3    H232525   2.125   2.202   7.929  1.9210  1.3847  1.9971
 3656TIP3   OH232526   0.198   4.819   0.772  0.2748 -0.0206 -0.0649
 3656TIP3    H132527   0.228   4.779   0.691  0.0582 -2.6191  1.0366
 3656TIP3    H232528   0.270   4.806   0.833 -0.9068 -1.4588  1.1130
 3657TIP3   OH232529   5.033   5.741   1.409 -0.4293  0.1977  0.5784
 3657TIP3    H132530   4.979   5.778   1.479  0.7198  3.4368 -0.0499
 3657TIP3    H232531   5.107   5.802   1.401  0.7528 -1.3780 -1.8307
 3658TIP3   OH232532   3.426   0.865   3.227 -0.4665  0.0187 -0.5425
 3658TIP3    H132533   3.425   0.905   3.314 -2.0359  1.0270 -0.9930
 3658TIP3    H232534   3.435   0.771   3.244  1.1690  0.3228  0.6056
 3659TIP3   OH232535   6.825   2.542   3.073  0.3385  0.0918  0.3478
 3659TIP3    H132536   6.867   2.618   3.031  1.1889  0.4458  1.7692
 3659TIP3    H232537   6.876   2.467   3.043 -1.6819 -0.2534 -2.6348
 3660TIP3   OH232538   2.544   1.107   1.781  0.4177 -0.0269  0.5019
 3660TIP3    H132539   2.470   1.089   1.838  1.3990 -0.4716  1.6890
 3660TIP3    H232540   2.556   1.202   1.787  0.1780 -0.0038  0.6086
 3661TIP3   OH232541   2.115   3.047   8.205 -0.1027  0.2863  0.0146
 3661TIP3    H132542   2.174   3.080   8.274 -1.0387  2.2214 -0.0350
 3661TIP3    H232543   2.171   2.993   8.150  1.5085  1.5672  0.3153
 3662TIP3   OH232544   0.123   3.256   2.499 -0.3647  0.1300  0.3124
 3662TIP3    H132545   0.150   3.280   2.411  1.4036  0.0507  0.7964
 3662TIP3    H232546   0.179   3.308   2.557 -0.4599 -0.9111  1.3811
 3663TIP3   OH232547   0.968   5.545   8.448  0.1512 -0.1998  1.0137
 3663TIP3    H132548   0.972   5.624   8.501  0.0599  0.2475  0.3634
 3663TIP3    H232549   0.983   5.575   8.358 -0.9837 -0.7544  0.6127
 3664TIP3   OH232550   6.462   3.286   2.492 -0.3451 -0.4289  0.4839
 3664TIP3    H132551   6.408   3.280   2.570 -0.4761 -0.2197  0.4096
 3664TIP3    H232552   6.491   3.377   2.490 -1.5456 -0.0440 -0.5090
 3665TIP3   OH232553   2.753   3.166   0.975  0.1927  0.4012 -0.2940
 3665TIP3    H132554   2.731   3.124   0.892  1.0079 -0.0035 -0.3132
 3665TIP3    H232555   2.750   3.260   0.956 -1.2357  0.3628 -0.3514
 3666TIP3   OH232556   5.838   2.784   8.508  0.1323  0.1319  0.6530
 3666TIP3    H132557   5.787   2.841   8.450  0.1841  0.1234  0.5991
 3666TIP3    H232558   5.827   2.823   8.595 -0.0441  0.0765  0.6560
 3667TIP3   OH232559   4.028   5.169   8.459 -0.0849 -0.0453 -0.7681
 3667TIP3    H132560   4.021   5.082   8.498  0.2229  0.2179 -0.1214
 3667TIP3    H232561   4.008   5.155   8.366 -1.7148 -0.5409 -0.3778
 3668TIP3   OH232562   3.815   4.736   0.150  0.4345 -0.2036  0.3893
 3668TIP3    H132563   3.743   4.791   0.182 -0.7826 -1.5705  0.1009
 3668TIP3    H232564   3.871   4.797   0.101  0.2661  1.1629  1.8213
 3669TIP3   OH232565   6.737   5.162   7.456 -0.7447  0.8451  0.2807
 3669TIP3    H132566   6.777   5.157   7.542 -0.2887  4.3965  0.4072
 3669TIP3    H232567   6.811   5.161   7.395 -0.7817  2.1073  0.1944
 3670TIP3   OH232568   5.887   5.435   0.624 -0.3071  0.2305  0.7081
 3670TIP3    H132569   5.837   5.489   0.563 -3.0863 -1.1850  1.5845
 3670TIP3    H232570   5.958   5.399   0.572 -0.5106  1.8282 -0.7669
 3671TIP3   OH232571   1.029   1.103   7.752 -0.2697  0.2076 -0.0830
 3671TIP3    H132572   1.069   1.120   7.666  2.5413 -1.3409  0.7920
 3671TIP3    H232573   0.975   1.025   7.737  0.9730 -0.6495 -0.3037
 3672TIP3   OH232574   3.151   0.018   2.086 -0.1183 -0.3906 -0.1101
 3672TIP3    H132575   3.102   0.025   2.004  0.3934 -0.2447 -0.4112
 3672TIP3    H232576   3.121  -0.063   2.125 -0.2151 -0.5699 -0.5497
 3673TIP3   OH232577   2.929   0.511   0.037 -0.2668  0.6790  0.1504
 3673TIP3    H132578   2.903   0.436   0.092  3.1015 -0.5505  0.3204
 3673TIP3    H232579   2.940   0.583   0.099  0.9125  0.0210  0.7369
 3674TIP3   OH232580   2.952   0.689   0.282  0.0011 -0.2702 -0.1853
 3674TIP3    H132581   2.934   0.720   0.371 -1.9086  0.9853 -0.9315
 3674TIP3    H232582   3.013   0.752   0.246 -0.3501  0.0584 -0.2151
 3675TIP3   OH232583   5.657   1.898   2.522  0.2446 -0.0996  0.2575
 3675TIP3    H132584   5.690   1.950   2.448  1.8276  0.5159  1.3506
 3675TIP3    H232585   5.594   1.956   2.566 -1.5808 -0.8719 -1.1829
 3676TIP3   OH232586   4.648   3.974   1.249  0.2537 -0.3200 -0.4309
 3676TIP3    H132587   4.626   4.022   1.169  1.9232  0.4914 -0.4418
 3676TIP3    H232588   4.634   3.882   1.226 -2.2102  0.0444 -0.6596
 3677TIP3   OH232589   4.434   1.171   2.614 -0.2585 -0.3187 -0.2083
 3677TIP3    H132590   4.454   1.236   2.547  1.5204  2.2256  2.5609
 3677TIP3    H232591   4.346   1.194   2.644  0.3755  0.9708  0.7840
 3678TIP3   OH232592   3.147   6.101   1.064 -0.2613 -0.3127 -0.2349
 3678TIP3    H132593   3.164   6.184   1.019 -0.0212 -1.6481 -2.7735
 3678TIP3    H232594   3.105   6.046   0.998 -1.0254 -2.0322  1.5786
 3679TIP3   OH232595   1.754   6.514   1.873 -0.2108  0.3606 -0.2954
 3679TIP3    H132596   1.761   6.598   1.919 -1.4326 -0.3656  1.3388
 3679TIP3    H232597   1.666   6.515   1.834  0.4370  0.5447 -1.8142
 3680TIP3   OH232598   0.912   6.581   1.412 -0.0542 -0.3653 -0.4198
 3680TIP3    H132599   0.953   6.655   1.457  1.8371 -1.0389 -0.9542
 3680TIP3    H232600   0.948   6.504   1.456  0.5243 -1.0052 -1.9614
 3681TIP3   OH232601   6.117   2.069   1.744  0.3231  0.3046 -0.1433
 3681TIP3    H132602   6.158   2.014   1.810  2.6071 -0.7732 -2.3039
 3681TIP3    H232603   6.104   2.153   1.787  0.0985 -0.8194  2.1416
 3682TIP3   OH232604   6.711   4.269   7.050  0.0736  0.3966  0.4362
 3682TIP3    H132605   6.669   4.309   7.126 -0.1959  0.6189  0.1694
 3682TIP3    H232606   6.685   4.177   7.055  0.2429  0.3619  0.7377
 3683TIP3   OH232607   3.324   0.567   1.019  0.5711  0.0441 -0.0206
 3683TIP3    H132608   3.377   0.640   1.051  1.1109 -0.1899 -0.3692
 3683TIP3    H232609   3.240   0.577   1.064  1.1005  0.0858  0.9902
 3684TIP3   OH232610   4.891   6.766   0.578 -0.9442  0.1980 -0.2182
 3684TIP3    H132611   4.809   6.718   0.591 -1.0146  0.5877  0.8871
 3684TIP3    H232612   4.912   6.801   0.665  0.4421  0.0297 -0.4653
 3685TIP3   OH232613   0.217   3.822   8.105 -0.0109 -0.5549 -0.0073
 3685TIP3    H132614   0.248   3.851   8.019  0.4108 -0.8591  0.0416
 3685TIP3    H232615   0.124   3.804   8.092  0.2556 -1.5131 -0.6369
 3686TIP3   OH232616   1.872   4.644   8.038 -0.1629 -0.4517  0.1343
 3686TIP3    H132617   1.780   4.633   8.012 -0.2492  0.6953 -0.0808
 3686TIP3    H232618   1.871   4.717   8.100  0.6586 -0.1711 -0.1775
 3687TIP3   OH232619   5.216   1.015   8.342  0.3334  0.0533 -0.2031
 3687TIP3    H132620   5.148   1.050   8.400  1.1080  0.3657  0.5368
 3687TIP3    H232621   5.295   1.014   8.395  0.0720 -4.6269  0.5234
 3688TIP3   OH232622   1.248   6.765   8.086 -0.1278 -0.3297  0.2680
 3688TIP3    H132623   1.169   6.715   8.066 -0.4911  0.5232 -0.4816
 3688TIP3    H232624   1.221   6.856   8.085  0.9724  0.0192 -0.5865
 3689TIP3   OH232625   3.315   0.449   1.298 -0.3467 -0.1938  0.4431
 3689TIP3    H132626   3.292   0.375   1.241  1.3194  0.2420 -0.8578
 3689TIP3    H232627   3.409   0.461   1.286 -0.3638  1.3820  1.5623
 3690TIP3   OH232628   0.816   2.433   8.064  0.4679  0.2842  0.5282
 3690TIP3    H132629   0.905   2.470   8.067  0.4770  0.1870  1.8255
 3690TIP3    H232630   0.807   2.403   7.973  1.2683  1.4756  0.0079
 3691TIP3   OH232631   3.943   6.294   1.482  0.0157  0.0145 -0.1989
 3691TIP3    H132632   3.986   6.272   1.564 -0.4527  0.4611  0.1757
 3691TIP3    H232633   4.014   6.317   1.423  0.3138  0.3691  0.2933
 3692TIP3   OH232634   2.450   4.850   1.385  0.5935 -0.0345 -0.4247
 3692TIP3    H132635   2.460   4.822   1.475 -1.9607  0.7248  0.1747
 3692TIP3    H232636   2.368   4.809   1.356 -0.5339  2.5313 -1.1623
 3693TIP3   OH232637   0.110   2.842   7.388  0.2330 -0.2584 -0.2438
 3693TIP3    H132638   0.155   2.926   7.378  0.9586 -0.8525 -2.6047
 3693TIP3    H232639   0.018   2.862   7.374  0.4135  0.1447 -0.8824
 3694TIP3   OH232640   2.171   5.333   7.407  0.3864 -0.0668 -0.2867
 3694TIP3    H132641   2.241   5.350   7.344 -0.8881 -0.2137 -1.8127
 3694TIP3    H232642   2.102   5.290   7.356 -1.0219  0.5033  1.0316
 3695TIP3   OH232643   1.893   3.198   8.083  0.2700  0.5193 -0.3605
 3695TIP3    H132644   1.948   3.147   8.024 -0.5865  0.6385 -1.2836
 3695TIP3    H232645   1.938   3.193   8.168  2.1496  1.3006 -1.2545
 3696TIP3   OH232646   2.834   3.819   2.412 -0.8436  0.3805 -0.0621
 3696TIP3    H132647   2.804   3.870   2.337  0.8688  1.4419 -0.0802
 3696TIP3    H232648   2.897   3.876   2.456  0.7220 -1.4846  0.2618
 3697TIP3   OH232649   6.419   4.475   8.557  0.2817 -0.1818 -0.1310
 3697TIP3    H132650   6.411   4.558   8.603 -0.5801  0.3716 -1.2538
 3697TIP3    H232651   6.513   4.454   8.560  0.6278  1.2401 -0.5460
 3698TIP3   OH232652   1.557   5.493   2.590 -0.0177 -0.4739 -0.3986
 3698TIP3    H132653   1.551   5.398   2.595 -0.2965 -0.3994  0.9975
 3698TIP3    H232654   1.471   5.524   2.618  0.8358  0.2170  1.6306
 3699TIP3   OH232655   3.997   6.173   0.690 -0.0877  0.2296 -1.2128
 3699TIP3    H132656   4.024   6.210   0.606 -0.4442  0.4285 -1.2463
 3699TIP3    H232657   4.035   6.086   0.692 -0.7088 -0.0708 -1.9214
 3700TIP3   OH232658   1.278   1.207   2.266  0.1455  0.3841 -0.1738
 3700TIP3    H132659   1.310   1.261   2.193 -0.3993 -0.9469 -1.4647
 3700TIP3    H232660   1.351   1.148   2.285 -0.0027  0.2053 -0.1683
 3701TIP3   OH232661   0.336   0.562   1.648  0.6157  0.8915  0.0350
 3701TIP3    H132662   0.370   0.540   1.562  1.4225  0.5656  0.4315
 3701TIP3    H232663   0.367   0.491   1.705 -0.1797  0.9288  0.5332
 3702TIP3   OH232664   1.059   6.220   0.281 -0.0283 -0.1297 -0.0684
 3702TIP3    H132665   0.972   6.259   0.282 -0.6867 -1.4932  1.8779
 3702TIP3    H232666   1.071   6.190   0.190 -0.2141  2.8194 -1.1715
 3703TIP3   OH232667   6.080   2.334   1.820  0.0594  0.1810 -0.5017
 3703TIP3    H132668   6.060   2.415   1.866  1.8306  0.6975 -0.5780
 3703TIP3    H232669   6.104   2.361   1.731 -1.6397 -0.6576 -1.2598
 3704TIP3   OH232670   6.809   4.183   7.668  0.0544 -0.3807  0.6110
 3704TIP3    H132671   6.850   4.269   7.673  0.3870 -0.6137  2.6535
 3704TIP3    H232672   6.764   4.183   7.584  1.6884  1.0299 -0.3319
 3705TIP3   OH232673   4.200   4.368   6.855 -0.4175 -0.4087  0.4097
 3705TIP3    H132674   4.207   4.314   6.933  1.1292  0.1676  0.7090
 3705TIP3    H232675   4.106   4.385   6.845 -0.7568 -1.6581  1.3113
 3706TIP3   OH232676   6.464   5.826   7.922  0.0331  0.4475 -0.2939
 3706TIP3    H132677   6.433   5.900   7.869  0.6306  1.3246  0.5545
 3706TIP3    H232678   6.385   5.792   7.964 -0.6163 -0.8490 -2.3921
 3707TIP3   OH232679   2.851   2.377   8.060  0.0384  0.4777  0.2533
 3707TIP3    H132680   2.833   2.309   8.125 -1.3844  0.9414  0.3663
 3707TIP3    H232681   2.826   2.338   7.976  1.6195 -0.0229 -0.0221
 3708TIP3   OH232682   6.507   5.292   1.592 -0.1480 -0.2609  0.8340
 3708TIP3    H132683   6.412   5.301   1.605 -0.0913 -0.2927  1.2946
 3708TIP3    H232684   6.516   5.220   1.530 -0.4953  0.9025 -0.6133
 3709TIP3   OH232685   1.466   0.355   0.998  0.2052 -0.3505 -0.1814
 3709TIP3    H132686   1.423   0.297   0.935 -0.6258 -0.9486  0.8904
 3709TIP3    H232687   1.467   0.440   0.956  0.2456 -0.8723 -1.2592
 3710TIP3   OH232688   1.477   6.568   8.476  0.0950 -0.5470  0.5470
 3710TIP3    H132689   1.501   6.510   8.403 -0.6558  0.7803 -0.8130
 3710TIP3    H232690   1.559   6.579   8.525  1.3441  0.6033 -1.6176
 3711TIP3   OH232691   2.994   2.587   2.190  0.1519  0.7563 -0.0308
 3711TIP3    H132692   3.081   2.549   2.178 -0.1291  0.0482  0.0854
 3711TIP3    H232693   2.957   2.538   2.263 -0.6506  0.4898 -0.6038
 3712TIP3   OH232694   6.637   1.493   7.734 -0.0209 -0.0756  0.4557
 3712TIP3    H132695   6.547   1.518   7.711  0.4877  1.5613  0.1426
 3712TIP3    H232696   6.636   1.490   7.830 -0.3924 -0.0310  0.4567
 3713TIP3   OH232697   4.758   2.594   0.712  0.1099  0.0186 -0.2740
 3713TIP3    H132698   4.784   2.665   0.653 -1.1952  0.3238 -0.4959
 3713TIP3    H232699   4.765   2.515   0.659  1.2424 -0.0006 -0.1233
 3714TIP3   OH232700   0.913   1.513   6.971  0.2652  0.7994 -0.1504
 3714TIP3    H132701   0.846   1.496   7.037  0.3956  0.8475 -0.0064
 3714TIP3    H232702   0.885   1.461   6.895  1.5479 -1.5051  0.8481
 3715TIP3   OH232703   2.194   1.602   0.777  0.1395  0.0987 -0.7667
 3715TIP3    H132704   2.174   1.559   0.861  0.1218  0.0608 -0.7901
 3715TIP3    H232705   2.193   1.531   0.713 -0.4374  0.2107 -0.8954
 3716TIP3   OH232706   2.072   5.310   0.813  0.0347 -0.8263 -0.3033
 3716TIP3    H132707   2.067   5.232   0.757  1.2113 -2.1306  1.3114
 3716TIP3    H232708   2.040   5.280   0.898  0.4730  0.4800  0.3378
 3717TIP3   OH232709   1.602   3.671   2.323 -0.7903 -0.0644 -0.4787
 3717TIP3    H132710   1.684   3.714   2.297 -0.6525  0.8687  1.3282
 3717TIP3    H232711   1.630   3.586   2.356 -0.6767 -0.2258 -0.9949
 3718TIP3   OH232712   2.081   6.609   7.077 -0.4130  0.1253 -0.4382
 3718TIP3    H132713   2.091   6.532   7.133 -1.7138  0.2376 -0.0064
 3718TIP3    H232714   2.169   6.644   7.067 -0.1908  0.4829  2.0745
 3719TIP3   OH232715   2.999   5.653   7.007  0.4413 -0.2155 -0.3071
 3719TIP3    H132716   3.008   5.566   7.045  0.3878  0.5225  1.5061
 3719TIP3    H232717   3.087   5.691   7.014  0.0025  0.6445  1.0155
 3720TIP3   OH232718   2.320   5.989   2.353  0.6480 -0.4362 -0.4680
 3720TIP3    H132719   2.372   6.016   2.429 -0.3580  1.0541 -0.2693
 3720TIP3    H232720   2.328   6.061   2.291 -0.1954 -0.7202 -0.9218
 3721TIP3   OH232721   2.504   4.035   1.844  0.6859  0.2672  0.2069
 3721TIP3    H132722   2.516   4.097   1.772  0.1920  0.9040  0.6574
 3721TIP3    H232723   2.589   3.992   1.853  0.4353 -0.6881 -1.5143
 3722TIP3   OH232724   5.497   1.269   1.243  0.6156  0.0339  0.7168
 3722TIP3    H132725   5.522   1.347   1.195  0.2435 -0.9676 -1.2129
 3722TIP3    H232726   5.402   1.278   1.255  0.5754 -0.1072  0.5099
 3723TIP3   OH232727   1.280   1.187   1.041 -0.6239  0.2582 -0.6260
 3723TIP3    H132728   1.212   1.216   1.101  0.3081  1.8163 -0.2661
 3723TIP3    H232729   1.335   1.129   1.093 -0.7196  0.3513 -0.4198
 3724TIP3   OH232730   2.871   3.883   2.849 -0.1235 -0.3344  0.1694
 3724TIP3    H132731   2.967   3.876   2.846 -0.2837 -3.4922 -1.1052
 3724TIP3    H232732   2.854   3.952   2.913  2.9725 -0.1321  0.9308
 3725TIP3   OH232733   4.470   3.259   8.238 -0.9194 -0.8029  0.0395
 3725TIP3    H132734   4.473   3.174   8.193  0.5316 -0.0757 -1.3277
 3725TIP3    H232735   4.423   3.317   8.177  0.6353  0.0695 -0.3781
 3726TIP3   OH232736   4.250   4.514   2.250  0.4075 -0.1115  0.0170
 3726TIP3    H132737   4.313   4.505   2.178  1.4664  0.6601  0.8054
 3726TIP3    H232738   4.249   4.427   2.291  0.1693 -0.4185 -0.6265
 3727TIP3   OH232739   4.734   3.939   7.457  0.5366 -0.0293 -0.1648
 3727TIP3    H132740   4.815   3.985   7.480  0.5070 -0.8179  1.6824
 3727TIP3    H232741   4.666   3.983   7.509  0.3896 -1.6027  1.0473
 3728TIP3   OH232742   5.113   6.692   7.467 -0.0814 -0.0739 -0.1366
 3728TIP3    H132743   5.045   6.715   7.531 -1.0126 -0.8325 -0.8289
 3728TIP3    H232744   5.180   6.759   7.479 -1.4306  1.3463 -0.1750
 3729TIP3   OH232745   4.250   2.148   7.493 -0.2030 -0.6610  0.6775
 3729TIP3    H132746   4.180   2.162   7.557  0.8601  0.7915  1.5836
 3729TIP3    H232747   4.299   2.230   7.493  0.3864 -0.9628 -1.3442
 3730TIP3   OH232748   4.970   3.090   1.003  0.0011 -0.2408 -0.3536
 3730TIP3    H132749   4.879   3.072   1.026  0.5382 -1.5937  0.8414
 3730TIP3    H232750   5.021   3.027   1.054  1.6957  1.2657 -0.0857
 3731TIP3   OH232751   4.301   1.676   8.674  0.4638  0.3329  0.2307
 3731TIP3    H132752   4.217   1.682   8.719  0.6544 -1.3850  0.8999
 3731TIP3    H232753   4.280   1.684   8.581 -0.2390  1.4206  0.4749
 3732TIP3   OH232754   0.035   2.642   2.365 -0.5764 -0.1621 -0.3676
 3732TIP3    H132755   0.057   2.660   2.456 -0.7414 -2.6620  0.2308
 3732TIP3    H232756   0.088   2.566   2.342  0.5933  1.2999 -2.8805
 3733TIP3   OH232757   3.416   4.983   0.389 -0.2571  0.6464  0.3376
 3733TIP3    H132758   3.429   4.953   0.478  0.6757  1.5528  0.5186
 3733TIP3    H232759   3.384   4.906   0.342 -0.4736  0.0881  1.3768
 3734TIP3   OH232760   6.423   0.047   1.204  0.3855  0.2129  0.5179
 3734TIP3    H132761   6.402   0.070   1.295 -0.8909  0.5312  0.1485
 3734TIP3    H232762   6.518   0.063   1.198  0.1043  2.4529  1.1502
 3735TIP3   OH232763   0.610   4.495   1.346 -0.1732 -0.5493 -0.8593
 3735TIP3    H132764   0.557   4.417   1.364 -0.7611  0.2732  1.2921
 3735TIP3    H232765   0.591   4.516   1.255 -0.7356 -2.3544 -1.2112
 3736TIP3   OH232766   0.797   3.038   1.939 -0.2155 -0.2732 -0.4228
 3736TIP3    H132767   0.826   3.043   2.031  0.5607  0.4936 -0.6979
 3736TIP3    H232768   0.878   3.042   1.888 -0.7259  0.6413 -1.1828
 3737TIP3   OH232769   4.788   6.789   2.387  0.2116  0.2956 -0.1621
 3737TIP3    H132770   4.838   6.799   2.469  0.2384 -0.1236 -0.1258
 3737TIP3    H232771   4.817   6.863   2.333 -0.8809  1.4247  0.7454
 3738TIP3   OH232772   5.516   2.388   2.957 -0.1683 -0.3422  0.2873
 3738TIP3    H132773   5.440   2.351   2.914  0.4389 -1.5945  0.2477
 3738TIP3    H232774   5.483   2.418   3.042 -0.9554  0.3468 -0.2407
 3739TIP3   OH232775   0.588   4.358   0.758  0.5699 -0.0289 -0.6339
 3739TIP3    H132776   0.618   4.318   0.676  1.7414  0.2112 -0.3425
 3739TIP3    H232777   0.667   4.366   0.811 -0.4999 -2.5491  1.5889
 3740TIP3   OH232778   3.853   5.206   1.056 -0.2298  0.4783 -0.4858
 3740TIP3    H132779   3.854   5.287   1.107 -0.1609 -0.4484  1.0543
 3740TIP3    H232780   3.945   5.186   1.041  0.0561 -1.5046  2.9105
 3741TIP3   OH232781   4.347   0.817   1.834  0.7319 -0.5865 -0.1607
 3741TIP3    H132782   4.366   0.844   1.924  0.2577  2.2152 -0.8014
 3741TIP3    H232783   4.258   0.849   1.818  1.7992  1.4772 -2.4423
 3742TIP3   OH232784   0.672   3.521   7.213  0.3027  0.3287 -0.3539
 3742TIP3    H132785   0.681   3.616   7.206  0.4717  0.3250 -0.2004
 3742TIP3    H232786   0.578   3.506   7.211  0.1955  0.6277  1.1549
 3743TIP3   OH232787   2.330   4.705   2.744 -0.3849  0.1279  0.3493
 3743TIP3    H132788   2.244   4.727   2.709 -0.8721  0.6515  1.7722
 3743TIP3    H232789   2.342   4.767   2.817  1.5445  0.6019 -0.3199
 3744TIP3   OH232790   6.109   4.082   1.137  0.8040 -0.0570  0.1504
 3744TIP3    H132791   6.062   4.086   1.054  2.0911 -2.0126 -0.7326
 3744TIP3    H232792   6.202   4.082   1.113  1.2544  0.9999  1.7086
 3745TIP3   OH232793   6.207   4.020   2.090 -0.6716 -0.1342  0.2684
 3745TIP3    H132794   6.273   4.082   2.057 -0.9034  0.3716  0.7398
 3745TIP3    H232795   6.163   4.067   2.160 -0.4521 -1.0594  1.0528
 3746TIP3   OH232796   2.557   5.454   3.094 -0.1124 -0.5948  0.1031
 3746TIP3    H132797   2.540   5.461   3.000  1.2666 -1.0343 -0.1961
 3746TIP3    H232798   2.593   5.539   3.118  1.7679 -1.2268 -0.2887
 3747TIP3   OH232799   4.036   1.565   2.000  0.1544  0.3152 -1.1211
 3747TIP3    H132800   3.967   1.521   1.951 -0.9859 -0.6185  1.1749
 3747TIP3    H232801   3.993   1.638   2.045  1.1144  1.0448 -1.3408
 3748TIP3   OH232802   5.984   4.396   0.131  0.1157  0.0327 -0.1129
 3748TIP3    H132803   6.016   4.393   0.041 -1.4507 -1.8595 -0.6788
 3748TIP3    H232804   6.045   4.341   0.180 -0.8898 -1.6988 -0.7342
 3749TIP3   OH232805   3.076   5.108   1.112 -0.0062  0.1735 -0.3120
 3749TIP3    H132806   3.051   5.140   1.026 -0.0471  1.2518  0.0894
 3749TIP3    H232807   3.013   5.147   1.172 -0.3299 -1.0226  0.1604
 3750TIP3   OH232808   3.695   4.479   0.866 -0.3570  0.5060  0.1858
 3750TIP3    H132809   3.717   4.545   0.933  0.7009  0.8076 -0.4455
 3750TIP3    H232810   3.613   4.511   0.829 -1.2984  0.0078  1.7428
 3751TIP3   OH232811   1.855   1.708   8.689  0.0298 -0.2374  0.0322
 3751TIP3    H132812   1.806   1.626   8.698  0.4829 -0.3607  1.6022
 3751TIP3    H232813   1.907   1.697   8.609  0.8589 -1.8931  0.7715
 3752TIP3   OH232814   3.817   4.864   2.647 -0.3262  0.7357  0.0195
 3752TIP3    H132815   3.778   4.952   2.649 -0.7223  0.5608  0.1363
 3752TIP3    H232816   3.799   4.828   2.734 -2.6966 -0.5413 -0.9155
 3753TIP3   OH232817   5.075   5.456   8.527  0.1062  0.0242 -0.1517
 3753TIP3    H132818   5.002   5.496   8.481  0.9729 -1.4858 -3.0721
 3753TIP3    H232819   5.042   5.370   8.554 -0.1635  0.6153  1.5325
 3754TIP3   OH232820   4.036   1.054   6.693  0.0575  0.0842 -0.2921
 3754TIP3    H132821   4.092   1.128   6.715 -1.0127  0.5220  1.0988
 3754TIP3    H232822   4.075   0.980   6.740 -0.1015  0.2297  0.0716
 3755TIP3   OH232823   5.515   1.490   8.090  0.1544  0.0930 -0.4754
 3755TIP3    H132824   5.589   1.538   8.128  0.4132 -2.1443  2.1206
 3755TIP3    H232825   5.438   1.521   8.138 -0.5339  1.5976 -2.4040
 3756TIP3   OH232826   4.685   6.295   1.478 -0.3700  0.5207  0.1813
 3756TIP3    H132827   4.780   6.309   1.474 -0.1072 -1.2662 -0.9565
 3756TIP3    H232828   4.649   6.364   1.423  0.4983 -0.2322 -1.4271
 3757TIP3   OH232829   2.579   3.433   0.367  0.8462  0.3525  0.6037
 3757TIP3    H132830   2.594   3.393   0.281  0.9416 -1.2378  1.3307
 3757TIP3    H232831   2.641   3.506   0.370  1.0390  0.2608 -0.5618
 3758TIP3   OH232832   0.461   3.715   7.512 -0.2867  0.5092 -0.4515
 3758TIP3    H132833   0.456   3.724   7.416  0.8300  0.1997 -0.5519
 3758TIP3    H232834   0.521   3.785   7.539  0.3409 -0.1470 -0.1162
 3759TIP3   OH232835   1.324   2.051   8.025 -0.0383 -0.2121 -0.5079
 3759TIP3    H132836   1.348   1.991   7.955 -3.2559 -2.2762 -0.0823
 3759TIP3    H232837   1.318   1.995   8.103 -2.6456  0.6560  0.0102
 3760TIP3   OH232838   6.783   4.750   2.328 -0.2338  0.6342  0.3323
 3760TIP3    H132839   6.867   4.788   2.356 -0.3259  1.2041 -0.1704
 3760TIP3    H232840   6.727   4.825   2.310 -1.3321  0.2627  2.0368
 3761TIP3   OH232841   3.033   0.218   2.765 -0.2910 -0.3187 -0.3619
 3761TIP3    H132842   3.083   0.267   2.700 -0.1089 -0.7267 -0.5284
 3761TIP3    H232843   2.952   0.269   2.776 -0.3030 -0.2228 -0.8693
 3762TIP3   OH232844   1.995   2.919   7.736 -0.1334  0.6708  0.1336
 3762TIP3    H132845   2.000   3.012   7.758 -1.2437  0.8921 -0.4732
 3762TIP3    H232846   2.040   2.912   7.652  1.9133  0.2463  1.1895
 3763TIP3   OH232847   2.413   4.415   8.158  0.2845 -0.2979  0.6060
 3763TIP3    H132848   2.368   4.474   8.220  1.1148  0.0919  0.8555
 3763TIP3    H232849   2.381   4.442   8.072  0.2791  0.1956  0.7575
 3764TIP3   OH232850   3.937   6.566   7.807  0.3567 -0.2496 -0.1214
 3764TIP3    H132851   3.992   6.553   7.731 -0.3712 -2.8394 -0.3139
 3764TIP3    H232852   3.856   6.604   7.773  0.9232  0.9160 -0.2281
 3765TIP3   OH232853   2.353   5.678   8.373  0.3490 -0.5020  0.2900
 3765TIP3    H132854   2.313   5.721   8.298  0.0839  0.8783  1.1846
 3765TIP3    H232855   2.446   5.700   8.367  0.5184 -1.3463 -0.2481
 3766TIP3   OH232856   0.344   4.253   8.264  0.5236 -0.3460 -0.5850
 3766TIP3    H132857   0.349   4.217   8.353  0.7162 -1.5393 -1.0630
 3766TIP3    H232858   0.260   4.225   8.231  1.5438 -2.2378 -1.7241
 3767TIP3   OH232859   6.822   4.786   1.121 -0.4371  0.3101 -0.1819
 3767TIP3    H132860   6.776   4.870   1.121  0.4329  0.8035  0.2290
 3767TIP3    H232861   6.788   4.740   1.045 -1.4468  0.7411 -0.0135
 3768TIP3   OH232862   0.943   0.230   0.644 -0.3181 -0.2270  0.3962
 3768TIP3    H132863   1.031   0.256   0.674 -0.3825  1.6508 -0.8967
 3768TIP3    H232864   0.913   0.168   0.711  1.4315  0.1556  1.6170
 3769TIP3   OH232865   5.372   6.590   7.536 -0.1403  0.4136  0.1068
 3769TIP3    H132866   5.350   6.674   7.575 -2.4880  0.3882 -0.9309
 3769TIP3    H232867   5.467   6.589   7.530  0.0589  2.0034  2.2142
 3770TIP3   OH232868   0.050   6.374   8.094 -0.0674 -0.0789  0.2790
 3770TIP3    H132869   0.077   6.454   8.139 -0.3299  0.7053 -0.9210
 3770TIP3    H232870   0.105   6.306   8.132  2.4347  1.1772 -0.8731
 3771TIP3   OH232871   6.611   0.487   7.933 -0.3541  0.0687 -0.3987
 3771TIP3    H132872   6.581   0.460   7.847  0.7873 -3.2755  0.1178
 3771TIP3    H232873   6.586   0.415   7.991  2.6040  0.2240  1.2430
 3772TIP3   OH232874   2.539   0.594   2.248 -0.4932 -0.5341 -0.0805
 3772TIP3    H132875   2.624   0.587   2.293 -0.3036  0.0398 -0.3445
 3772TIP3    H232876   2.552   0.547   2.166 -0.1252  0.3500 -0.5468
 3773TIP3   OH232877   2.504   1.841   2.750 -0.0047  0.0302 -0.8148
 3773TIP3    H132878   2.546   1.816   2.668 -0.4050  0.0418 -1.0245
 3773TIP3    H232879   2.411   1.847   2.729 -0.1156 -0.0036 -0.3529
 3774TIP3   OH232880   0.029   3.224   8.673 -0.2367  0.4829  0.6658
 3774TIP3    H132881   0.020   3.151   8.733 -1.3513  0.2364  0.2264
 3774TIP3    H232882   0.081   3.190   8.601  1.7508  0.9971  1.7960
 3775TIP3   OH232883   3.086   0.846   0.577 -0.6307  0.5590 -0.5575
 3775TIP3    H132884   3.155   0.907   0.553 -0.1409  0.5461  0.7474
 3775TIP3    H232885   3.119   0.760   0.550 -0.2768  0.5933 -0.2424
 3776TIP3   OH232886   4.505   5.193   0.644  0.1544  0.6815 -0.5697
 3776TIP3    H132887   4.434   5.253   0.666  1.5071  1.6644  1.5647
 3776TIP3    H232888   4.464   5.107   0.637 -1.2411  1.1984  0.7602
 3777TIP3   OH232889   6.424   2.812   1.534  0.3319  0.2210  0.0692
 3777TIP3    H132890   6.372   2.877   1.581 -1.9809 -1.8642  0.6003
 3777TIP3    H232891   6.361   2.743   1.512  2.8218 -2.3303  0.4265
 3778TIP3   OH232892   5.706   5.069   8.119  0.2278  0.1600 -0.3103
 3778TIP3    H132893   5.793   5.030   8.111  0.1031 -0.6419  1.6954
 3778TIP3    H232894   5.721   5.151   8.166  0.0156  0.5866 -0.9750
 3779TIP3   OH232895   2.868   1.696   0.910 -0.4544 -0.3521 -0.0274
 3779TIP3    H132896   2.797   1.759   0.896  0.1951  0.0656 -1.5860
 3779TIP3    H232897   2.927   1.739   0.971 -0.8834 -0.1816  0.2726
 3780TIP3   OH232898   3.214   0.966   2.849 -0.1408  0.1234  0.3860
 3780TIP3    H132899   3.163   0.887   2.865 -0.0603  0.4081  2.3077
 3780TIP3    H232900   3.269   0.976   2.928  3.0631 -0.2657 -1.6072
 3781TIP3   OH232901   1.066   5.489   2.786 -0.4422  0.2590  0.7196
 3781TIP3    H132902   0.977   5.490   2.751 -0.0117 -1.3250 -0.5838
 3781TIP3    H232903   1.072   5.405   2.832  1.0272 -0.7840 -1.2150
 3782TIP3   OH232904   2.156   4.684   0.506  0.3098  0.0277 -0.2426
 3782TIP3    H132905   2.071   4.693   0.463 -0.1053  0.4696  0.6366
 3782TIP3    H232906   2.207   4.629   0.447 -0.6984 -0.5252 -0.6228
 3783TIP3   OH232907   0.555   5.720   7.675  0.1294  0.3530 -0.2429
 3783TIP3    H132908   0.623   5.724   7.743 -0.5420 -0.7036  0.5191
 3783TIP3    H232909   0.585   5.651   7.616  1.6974  2.5151 -2.2052
 3784TIP3   OH232910   2.862   0.061   1.659  0.1059 -0.1134  0.0286
 3784TIP3    H132911   2.816   0.138   1.626 -1.8255 -0.7131  1.1761
 3784TIP3    H232912   2.792  -0.002   1.679  1.5488 -1.7225  0.2470
 3785TIP3   OH232913   1.028   2.131   2.888  0.5929  0.8881  0.2729
 3785TIP3    H132914   1.099   2.067   2.885  0.2827  0.5700 -1.9241
 3785TIP3    H232915   1.059   2.198   2.949  2.4818  0.4118 -0.0960
 3786TIP3   OH232916   3.552   5.425   1.106  0.3003  0.5846  0.0042
 3786TIP3    H132917   3.472   5.475   1.120  0.8751  2.0154 -1.5126
 3786TIP3    H232918   3.539   5.345   1.157 -2.7657  0.0248 -1.4394
 3787TIP3   OH232919   5.942   6.583   8.026 -0.0380  0.3782 -0.1278
 3787TIP3    H132920   5.872   6.543   7.974  0.5982 -0.2028 -0.5594
 3787TIP3    H232921   5.948   6.528   8.104 -0.2420  0.5865  0.0352
 3788TIP3   OH232922   1.505   0.855   7.661  0.6880 -0.5909  0.0225
 3788TIP3    H132923   1.477   0.911   7.589  0.3312 -0.3460  0.3501
 3788TIP3    H232924   1.516   0.768   7.622  0.5915 -0.4371 -0.3423
 3789TIP3   OH232925   6.561   1.818   2.336  0.3732 -0.2345  0.0775
 3789TIP3    H132926   6.519   1.876   2.399  1.6202  0.4787  0.2982
 3789TIP3    H232927   6.555   1.865   2.253 -2.2001 -1.6343 -0.6303
 3790TIP3   OH232928   0.133   1.350   2.133  0.1844  0.4440 -0.1395
 3790TIP3    H132929   0.049   1.375   2.173  0.8020  1.3864  0.6065
 3790TIP3    H232930   0.172   1.290   2.196 -1.2839 -2.6074 -1.9159
 3791TIP3   OH232931   0.159   6.343   8.398  0.2372 -0.0369  0.4322
 3791TIP3    H132932   0.161   6.267   8.340 -0.0677 -0.2314  0.6701
 3791TIP3    H232933   0.227   6.325   8.463  3.2276  1.8707 -1.9014
 3792TIP3   OH232934   3.602   2.466   7.104 -0.8609 -0.5384  0.1624
 3792TIP3    H132935   3.623   2.377   7.076 -0.5926 -0.3862 -0.1378
 3792TIP3    H232936   3.597   2.516   7.022  1.9862  0.3663  0.4213
 3793TIP3   OH232937   3.607   6.222   8.473  0.5147  0.4307 -0.0314
 3793TIP3    H132938   3.553   6.296   8.500  0.0362  0.5863 -1.3496
 3793TIP3    H232939   3.602   6.222   8.377  0.0351 -1.6602 -0.0512
 3794TIP3   OH232940   2.221   3.857   0.592 -0.1435  0.7387  0.4056
 3794TIP3    H132941   2.254   3.768   0.603 -0.5724  0.5977  0.5743
 3794TIP3    H232942   2.268   3.908   0.657 -0.6544  0.4331  1.0224
 3795TIP3   OH232943   3.098   2.629   0.527 -0.1618 -0.3387  0.1118
 3795TIP3    H132944   3.009   2.600   0.548 -0.5476  0.3897 -0.4434
 3795TIP3    H232945   3.089   2.723   0.512  0.2763 -0.6059 -2.1297
 3796TIP3   OH232946   2.631   4.787   1.888  0.3483  0.3399  0.0471
 3796TIP3    H132947   2.712   4.751   1.925  0.3730  2.3691  2.2293
 3796TIP3    H232948   2.647   4.881   1.885 -1.5798  0.6812 -0.5027
 3797TIP3   OH232949   4.941   6.184   0.806 -0.3734  0.2307  0.4140
 3797TIP3    H132950   4.988   6.155   0.727 -2.1461 -0.0570 -0.5841
 3797TIP3    H232951   4.871   6.241   0.773 -0.7387  0.6594  1.8500
 3798TIP3   OH232952   0.009   2.635   1.667 -0.4898 -0.5613  0.2734
 3798TIP3    H132953   0.086   2.591   1.702 -1.2792 -2.1561  0.0972
 3798TIP3    H232954   0.029   2.728   1.674  0.7037 -0.9019  1.9239
 3799TIP3   OH232955   0.527   6.383   0.986 -0.5260  0.1186  0.6840
 3799TIP3    H132956   0.532   6.354   0.895 -0.8323  0.0268  0.6961
 3799TIP3    H232957   0.442   6.426   0.993 -0.4243  0.2865  0.8805
 3800TIP3   OH232958   0.406   6.465   7.820 -0.0694 -0.5148 -0.1269
 3800TIP3    H132959   0.450   6.449   7.736  0.7073  0.0970  0.1534
 3800TIP3    H232960   0.315   6.482   7.796 -0.3972 -2.6671 -0.6512
 3801TIP3   OH232961   5.504   6.690   7.869 -0.2692 -0.3776  0.2378
 3801TIP3    H132962   5.425   6.741   7.856 -1.6694 -2.6604 -0.8191
 3801TIP3    H232963   5.558   6.710   7.792 -0.8296 -0.5260 -0.1998
 3802TIP3   OH232964   0.911   5.077   1.307 -0.3037 -0.5361  0.7580
 3802TIP3    H132965   0.887   5.070   1.400  0.7845  0.1712  1.1136
 3802TIP3    H232966   1.006   5.069   1.306 -0.3019 -0.5199 -0.3027
 3803TIP3   OH232967   3.338   6.331   6.972 -0.2901  0.2286 -0.1753
 3803TIP3    H132968   3.261   6.298   7.018 -0.6952  1.8528  0.3711
 3803TIP3    H232969   3.407   6.267   6.992  0.0091  1.5719  4.0996
 3804TIP3   OH232970   4.778   1.791   7.194  0.2748  0.0374  0.3457
 3804TIP3    H132971   4.773   1.713   7.138  0.6501  0.2369  0.0385
 3804TIP3    H232972   4.824   1.856   7.142 -2.7675  1.5614 -0.6550
 3805TIP3   OH232973   2.705   4.096   2.655 -0.2132 -0.2730  0.7947
 3805TIP3    H132974   2.673   4.045   2.730 -1.7974 -1.3478 -0.5223
 3805TIP3    H232975   2.634   4.157   2.635 -0.7714 -1.4351 -1.0635
 3806TIP3   OH232976   2.299   6.005   1.948  0.0349  0.3387 -0.2463
 3806TIP3    H132977   2.325   5.937   1.886  0.3437 -1.0849  1.3702
 3806TIP3    H232978   2.219   6.042   1.911 -0.1916 -0.9764 -1.1368
 3807TIP3   OH232979   3.630   5.950   1.163  0.0903  0.2785  0.4017
 3807TIP3    H132980   3.629   5.969   1.257  1.2953  2.8996 -0.0217
 3807TIP3    H232981   3.619   6.036   1.121  1.1731 -0.6040 -1.8501
 3808TIP3   OH232982   4.889   0.092   1.298 -0.0802 -0.0195  0.0376
 3808TIP3    H132983   4.801   0.059   1.279  0.0716 -0.7737  0.6060
 3808TIP3    H232984   4.882   0.135   1.383 -0.2081  1.1972 -0.5625
 3809TIP3   OH232985   2.830   4.378   1.132  0.2616 -0.3356  0.4199
 3809TIP3    H132986   2.789   4.440   1.191  0.2535 -1.3401  1.5141
 3809TIP3    H232987   2.923   4.402   1.132  0.1245  0.1913  0.1713
 3810TIP3   OH232988   1.529   4.296   1.154 -0.4197 -0.0187  0.4823
 3810TIP3    H132989   1.442   4.274   1.121 -0.3443 -0.5116  0.5932
 3810TIP3    H232990   1.513   4.348   1.232 -0.5965  1.8875 -0.7666
 3811TIP3   OH232991   4.662   0.822   8.429  0.9311 -0.5442 -0.1614
 3811TIP3    H132992   4.756   0.810   8.441  1.1205 -0.4494 -1.3785
 3811TIP3    H232993   4.653   0.846   8.336 -0.4171 -2.0185 -0.4632
 3812TIP3   OH232994   3.112   4.889   7.964 -0.5907  0.4387 -0.4180
 3812TIP3    H132995   3.177   4.820   7.953 -1.2448 -0.1108 -0.9957
 3812TIP3    H232996   3.106   4.902   8.059  0.7755  0.9283 -0.3889
 3813TIP3   OH232997   3.605   4.689   1.239  0.3065 -0.6252 -0.2866
 3813TIP3    H132998   3.661   4.652   1.171 -0.4526 -0.2243 -1.1605
 3813TIP3    H232999   3.589   4.617   1.299  3.0497 -0.3559  0.9121
 3814TIP3   OH233000   5.738   5.499   1.294  0.3234 -0.3236 -0.2247
 3814TIP3    H133001   5.815   5.451   1.264  0.3593 -0.8877  0.7425
 3814TIP3    H233002   5.664   5.446   1.265  0.2357  0.6075 -1.8395
 3815TIP3   OH233003   5.548   5.036   7.900  0.4043  0.5133  0.3690
 3815TIP3    H133004   5.615   5.071   7.841  1.7003 -0.9478  0.9039
 3815TIP3    H233005   5.587   5.044   7.987  0.3870 -1.3537  0.5880
 3816TIP3   OH233006   0.509   0.818   8.187  0.1843  0.1639  0.0963
 3816TIP3    H133007   0.571   0.766   8.136 -0.0859  0.0939 -0.1638
 3816TIP3    H233008   0.528   0.796   8.278  0.6035  0.2152  0.0228
 3817TIP3   OH233009   4.258   4.253   2.336 -0.6203  0.3111 -0.3939
 3817TIP3    H133010   4.196   4.211   2.396 -1.4692  0.9670 -0.7944
 3817TIP3    H233011   4.330   4.190   2.329 -1.0846 -0.3239  0.3368
 3818TIP3   OH233012   2.941   0.862   8.502 -0.2018 -0.0158 -0.4929
 3818TIP3    H133013   2.994   0.893   8.428 -0.4753  0.0427 -0.6685
 3818TIP3    H233014   2.884   0.794   8.464 -1.5492  1.1910 -0.7296
 3819TIP3   OH233015   6.531   0.669   2.937  0.1494  0.0734  0.5946
 3819TIP3    H133016   6.443   0.695   2.910  0.6127 -0.1513 -1.2675
 3819TIP3    H233017   6.590   0.711   2.874  1.1798 -1.9858  0.0712
 3820TIP3   OH233018   6.806   2.973   8.018 -0.0547 -0.0656  0.1816
 3820TIP3    H133019   6.774   2.918   8.089 -0.2473 -0.6588 -0.3541
 3820TIP3    H233020   6.738   2.967   7.951 -0.4030  1.3644  0.3754
 3821TIP3   OH233021   2.998   6.799   1.425 -0.4624  0.4910  0.5746
 3821TIP3    H133022   2.958   6.714   1.408 -3.1559  1.9171 -0.7608
 3821TIP3    H233023   2.960   6.828   1.507  0.8341  0.2649  1.2938
 3822TIP3   OH233024   3.830   4.869   7.403  0.0666 -0.3774 -0.2812
 3822TIP3    H133025   3.886   4.910   7.469  1.2030 -1.7687 -0.3236
 3822TIP3    H233026   3.791   4.794   7.449  0.2926 -0.9249 -0.9763
 3823TIP3   OH233027   1.308   3.203   8.437  0.1585  0.1114  0.4158
 3823TIP3    H133028   1.290   3.237   8.524 -1.5414 -0.4400  0.3326
 3823TIP3    H233029   1.397   3.232   8.417  1.0042 -0.6369  2.7463
 3824TIP3   OH233030   3.614   0.919   8.049  0.1978  0.1063 -0.1277
 3824TIP3    H133031   3.588   1.009   8.028  1.1510  0.0640 -1.5984
 3824TIP3    H233032   3.532   0.876   8.074 -0.3457  1.2443  0.1254
 3825TIP3   OH233033   2.922   6.518   0.951  0.6907  0.6866  0.2004
 3825TIP3    H133034   2.906   6.589   1.013  1.0723  0.6177  0.3812
 3825TIP3    H233035   3.018   6.508   0.951  0.6266  0.0307  0.3358
 3826TIP3   OH233036   0.354   5.055   0.832  0.2172 -0.0487 -0.1073
 3826TIP3    H133037   0.358   4.965   0.865  1.4221 -0.0057 -0.0826
 3826TIP3    H233038   0.336   5.045   0.738 -0.5228 -0.2807  0.0593
 3827TIP3   OH233039   5.136   5.404   8.263  0.1887 -0.1407 -0.4393
 3827TIP3    H133040   5.141   5.310   8.246  1.1637  0.0928 -1.5594
 3827TIP3    H233041   5.110   5.410   8.355  0.2846 -1.5016 -0.3005
 3828TIP3   OH233042   0.557   5.765   0.689 -0.1764 -0.2206 -0.0078
 3828TIP3    H133043   0.499   5.777   0.614  2.3238 -0.1940 -2.0800
 3828TIP3    H233044   0.558   5.671   0.705  1.7092 -0.6655 -2.2233
 3829TIP3   OH233045   6.013   4.347   0.984 -0.5522 -0.3691  0.2460
 3829TIP3    H133046   5.971   4.390   0.909  0.1963 -0.6713 -0.3603
 3829TIP3    H233047   5.988   4.400   1.060 -0.4483  0.5632 -0.3625
 3830TIP3   OH233048   4.464   1.707   0.942  0.0153  0.0334 -0.5597
 3830TIP3    H133049   4.418   1.643   0.887 -1.3045  0.1302  0.3887
 3830TIP3    H233050   4.401   1.779   0.953  0.5366  0.3457  0.4698
 3831TIP3   OH233051   5.749   3.434   1.408 -0.5501  0.3550  0.5146
 3831TIP3    H133052   5.823   3.482   1.371 -0.5688  0.1262  0.1703
 3831TIP3    H233053   5.707   3.496   1.467 -1.0230  1.0336 -0.4929
 3832TIP3   OH233054   4.374   0.042   8.418 -0.4051 -0.2016 -0.5714
 3832TIP3    H133055   4.393   0.032   8.512 -3.2159  0.7524  0.1736
 3832TIP3    H233056   4.432  -0.022   8.376  0.1761 -1.4398  1.8972
 3833TIP3   OH233057   5.623   0.537   0.518 -0.2651  0.7875  0.0857
 3833TIP3    H133058   5.623   0.633   0.515 -0.1186  0.8175  1.0032
 3833TIP3    H233059   5.709   0.514   0.551  0.0698  0.2919 -1.0600
 3834TIP3   OH233060   0.589   4.946   7.346 -0.5089 -0.2775  0.1956
 3834TIP3    H133061   0.670   4.987   7.318 -0.8430  0.5445  0.3987
 3834TIP3    H233062   0.609   4.852   7.349  1.3703  0.0917  3.1997
 3835TIP3   OH233063   0.580   2.334   7.692 -0.1315 -0.1161  0.0126
 3835TIP3    H133064   0.614   2.280   7.621 -1.7119  1.1031 -1.7731
 3835TIP3    H233065   0.575   2.274   7.767 -0.7411 -2.1412 -1.5511
 3836TIP3   OH233066   2.775   1.094   2.843  0.0499 -0.5427  0.4190
 3836TIP3    H133067   2.720   1.109   2.919  1.7756 -2.5033  2.1892
 3836TIP3    H233068   2.849   1.153   2.855  1.0276 -1.8573  1.0873
 3837TIP3   OH233069   2.795   4.396   3.084 -0.6404 -0.2461  0.3772
 3837TIP3    H133070   2.851   4.400   3.161 -1.1358 -0.6092  0.7612
 3837TIP3    H233071   2.777   4.488   3.062 -0.3434 -0.1405  0.5807
 3838TIP3   OH233072   0.468   0.222   2.708  0.3302 -0.1018 -0.1469
 3838TIP3    H133073   0.475   0.268   2.625  2.0823 -0.5887 -0.3176
 3838TIP3    H233074   0.551   0.241   2.752  0.6731 -2.2462  0.2126
 3839TIP3   OH233075   2.004   5.008   2.936 -0.0179  0.2568  0.1698
 3839TIP3    H133076   2.052   5.068   2.877  0.0526 -0.4587 -0.5148
 3839TIP3    H233077   2.069   4.943   2.962  0.5214  1.6783  2.7107
 3840TIP3   OH233078   2.225   0.027   2.700 -0.0105  0.2001 -0.1829
 3840TIP3    H133079   2.250   0.075   2.621  0.3996  0.5655  0.1648
 3840TIP3    H233080   2.230   0.092   2.770  2.0334 -0.6498  0.5471
 3841TIP3   OH233081   1.060   0.620   8.535 -0.4122  0.0164 -0.6584
 3841TIP3    H133082   0.988   0.664   8.581 -0.9653 -0.6479 -0.8813
 3841TIP3    H233083   1.037   0.527   8.537 -0.2357 -0.0734 -1.8847
 3842TIP3   OH233084   1.613   3.621   8.477  0.2213  0.7432  0.4727
 3842TIP3    H133085   1.532   3.596   8.522 -0.1114  1.3157  0.2049
 3842TIP3    H233086   1.597   3.711   8.448 -0.0485  0.0155 -1.8474
 3843TIP3   OH233087   3.475   5.841   8.151  0.1481  0.5653  0.4026
 3843TIP3    H133088   3.427   5.770   8.195 -0.8915  2.4888  2.5902
 3843TIP3    H233089   3.441   5.921   8.191  1.3379  2.3323 -1.9014
 3844TIP3   OH233090   0.518   5.478   1.516 -0.0274  0.4032  0.4258
 3844TIP3    H133091   0.559   5.500   1.599 -0.4588  0.3644  0.6489
 3844TIP3    H233092   0.588   5.434   1.466  0.5226  1.2966  0.3818
 3845TIP3   OH233093   0.547   6.511   8.482  0.2628  0.4235  0.1354
 3845TIP3    H133094   0.516   6.421   8.476  1.6787 -0.0214 -1.0121
 3845TIP3    H233095   0.471   6.560   8.514 -0.0726 -1.3985  2.4511
 3846TIP3   OH233096   5.838   2.228   1.835 -0.1342  0.7437 -0.7945
 3846TIP3    H133097   5.926   2.266   1.836  0.1181  0.2011 -1.4849
 3846TIP3    H233098   5.823   2.204   1.743 -0.1758 -1.0450 -0.3616
 3847TIP3   OH233099   1.852   5.554   7.887  0.8646  0.0386  0.3110
 3847TIP3    H133100   1.827   5.626   7.829  0.1584 -0.7616 -0.3914
 3847TIP3    H233101   1.863   5.479   7.830  1.7097 -0.4031  1.0272
 3848TIP3   OH233102   6.638   1.608   1.003 -0.1201 -0.7358 -0.1828
 3848TIP3    H133103   6.595   1.645   0.926  0.8379 -1.1975 -0.9561
 3848TIP3    H233104   6.571   1.610   1.071 -0.4225  1.4314 -0.4796
 3849TIP3   OH233105   4.405   2.680   1.379  0.7899  0.3187 -0.1702
 3849TIP3    H133106   4.320   2.688   1.335 -0.6051 -0.7056  2.1465
 3849TIP3    H233107   4.408   2.756   1.438  2.2547  1.2273 -1.3535
 3850TIP3   OH233108   5.733   5.547   8.185  0.1920  0.2624 -0.2765
 3850TIP3    H133109   5.759   5.471   8.236 -2.3770 -0.9111 -0.5074
 3850TIP3    H233110   5.668   5.512   8.123  0.7816  2.2136 -2.1011
 3851TIP3   OH233111   4.838   3.279   1.846  0.3419 -1.1099  0.6082
 3851TIP3    H133112   4.927   3.246   1.829 -0.5190 -2.4883 -1.6597
 3851TIP3    H233113   4.785   3.240   1.777 -1.6945  1.2426  0.7461
 3852TIP3   OH233114   2.399   4.030   7.147 -0.4841 -0.0726  0.3450
 3852TIP3    H133115   2.399   4.047   7.053  0.2537 -0.2652  0.3014
 3852TIP3    H233116   2.311   4.053   7.176 -0.0506  2.2480  0.0093
 3853TIP3   OH233117   5.344   5.269   7.928 -0.5616 -0.0209  0.1266
 3853TIP3    H133118   5.291   5.329   7.876 -0.5294  0.1511  0.2928
 3853TIP3    H233119   5.354   5.192   7.872 -1.5758 -0.3396  0.3599
 3854TIP3   OH233120   5.680   4.352   2.732  0.1293  0.7118  0.2322
 3854TIP3    H133121   5.727   4.340   2.814 -1.6866  0.0144  1.2223
 3854TIP3    H233122   5.698   4.272   2.682  0.5773  0.7835  0.2731
 3855TIP3   OH233123   6.041   3.996   8.480  0.0186 -0.0156 -0.1528
 3855TIP3    H133124   5.995   3.916   8.456 -0.0881  0.1689 -0.5773
 3855TIP3    H233125   6.021   4.057   8.409  0.9043  0.0713 -0.3435
 3856TIP3   OH233126   1.921   1.208   3.027 -0.2376 -0.3174 -0.0273
 3856TIP3    H133127   1.896   1.117   3.009  0.5352 -1.0674  2.3778
 3856TIP3    H233128   1.934   1.247   2.940 -3.2053 -1.6992 -1.2310
 3857TIP3   OH233129   3.103   6.787   1.182  0.4823  0.5126 -0.3205
 3857TIP3    H133130   3.043   6.792   1.256  0.4520  1.5371 -0.3961
 3857TIP3    H233131   3.057   6.830   1.110  0.4707 -0.5693 -0.9682
 3858TIP3   OH233132   6.173   3.850   1.416 -0.3241 -0.1914  0.0396
 3858TIP3    H133133   6.233   3.916   1.380  1.2343 -0.7471  1.4837
 3858TIP3    H233134   6.217   3.767   1.400 -0.1935 -0.5386  2.0153
 3859TIP3   OH233135   6.270   2.175   0.379 -0.4386 -0.6731  0.0317
 3859TIP3    H133136   6.362   2.195   0.393 -0.5480 -0.7772  0.9769
 3859TIP3    H233137   6.229   2.190   0.464 -1.3054 -0.5699 -0.3940
 3860TIP3   OH233138   0.424   4.230   0.963 -0.1493 -0.0376 -0.2692
 3860TIP3    H133139   0.330   4.229   0.980 -0.1992  0.1485 -0.5260
 3860TIP3    H233140   0.431   4.261   0.873  0.2326  1.7217  0.3202
 3861TIP3   OH233141   0.510   3.729   0.211  0.6866  0.1523 -0.2297
 3861TIP3    H133142   0.450   3.692   0.276  0.9949  0.5573  0.2986
 3861TIP3    H233143   0.467   3.713   0.127  0.0362  0.0656  0.1067
 3862TIP3   OH233144   3.362   1.774   2.533 -0.3984  0.2008 -0.2308
 3862TIP3    H133145   3.401   1.688   2.518 -2.1586 -0.7161  0.1960
 3862TIP3    H233146   3.412   1.810   2.607 -0.4619 -1.0049  0.4235
 3863TIP3   OH233147   3.759   4.199   0.074 -0.1083 -0.0523 -0.0286
 3863TIP3    H133148   3.761   4.153   0.158  1.1113 -2.0863 -1.1023
 3863TIP3    H233149   3.795   4.286   0.094  1.3462 -0.9218  1.3418
 3864TIP3   OH233150   4.445   1.348   2.039  0.9084 -0.0553  0.6957
 3864TIP3    H133151   4.484   1.422   1.991 -0.0431 -0.4270 -0.7047
 3864TIP3    H233152   4.507   1.276   2.026  0.1019 -0.4907 -1.0610
 3865TIP3   OH233153   3.888   6.480   1.936  0.0857  0.7476 -0.4784
 3865TIP3    H133154   3.865   6.526   2.017  1.1792  2.0936 -0.8900
 3865TIP3    H233155   3.983   6.487   1.931  0.5436 -3.0723  0.2549
 3866TIP3   OH233156   6.298   5.487   0.504  0.0185  0.0243 -0.8463
 3866TIP3    H133157   6.254   5.572   0.491  2.1465  1.0670 -1.7299
 3866TIP3    H233158   6.312   5.481   0.598 -1.1506  0.0883 -0.6490
 3867TIP3   OH233159   1.369   1.730   6.790  0.0148 -0.0346 -0.1317
 3867TIP3    H133160   1.348   1.823   6.789 -0.8094 -0.1891  1.1131
 3867TIP3    H233161   1.291   1.688   6.828  0.8916 -1.0941  0.5549
 3868TIP3   OH233162   4.516   6.211   7.527 -0.3800 -0.0812 -0.5228
 3868TIP3    H133163   4.575   6.136   7.517 -0.7517 -0.1345 -2.7063
 3868TIP3    H233164   4.538   6.269   7.454 -0.3171  1.8405  0.9326
 3869TIP3   OH233165   4.812   4.384   0.316  0.3217  0.2743  0.0226
 3869TIP3    H133166   4.869   4.309   0.332 -0.1198  0.1078  0.8394
 3869TIP3    H233167   4.770   4.401   0.400  0.9491  1.8979  0.0568
 3870TIP3   OH233168   2.952   6.679   3.161  0.2024 -0.3318  0.4400
 3870TIP3    H133169   2.923   6.600   3.205 -0.8243  1.0983  2.5039
 3870TIP3    H233170   2.941   6.660   3.068 -0.5762 -2.3769  0.8888
 3871TIP3   OH233171   2.045   3.344   0.375  0.6733 -0.3252  0.1917
 3871TIP3    H133172   1.977   3.352   0.308  0.5290 -0.7687  0.2794
 3871TIP3    H233173   2.124   3.378   0.333  0.4564 -0.0517 -0.0016
 3872TIP3   OH233174   3.837   5.232   1.919  0.6631  0.1662  0.4405
 3872TIP3    H133175   3.899   5.296   1.885  0.5713 -0.0926 -0.2389
 3872TIP3    H233176   3.889   5.154   1.937  0.4154 -0.3638 -1.0025
 3873TIP3   OH233177   3.468   4.321   8.032  0.1454  0.4553 -0.1730
 3873TIP3    H133178   3.517   4.375   8.094  0.6182 -0.1475 -0.0164
 3873TIP3    H233179   3.423   4.256   8.086 -0.7568  0.9353 -0.3248
 3874TIP3   OH233180   2.883   5.767   0.602 -0.1695  0.0023 -0.6583
 3874TIP3    H133181   2.840   5.848   0.574  1.4980  1.4301  0.6710
 3874TIP3    H233182   2.864   5.762   0.695  0.9222 -0.3679 -0.4503
 3875TIP3   OH233183   6.133   0.292   7.791  0.3117  0.2891 -0.1916
 3875TIP3    H133184   6.178   0.343   7.724  1.1917  0.8420  0.7907
 3875TIP3    H233185   6.182   0.209   7.795 -1.2750 -0.8169 -1.9722
 3876TIP3   OH233186   2.200   2.143   1.965 -0.5425  0.3755 -0.1025
 3876TIP3    H133187   2.265   2.131   1.896 -2.6634 -0.2038 -2.1204
 3876TIP3    H233188   2.203   2.062   2.015 -0.1425  0.1047 -0.5600
 3877TIP3   OH233189   1.636   3.948   6.959  0.3896  0.0136  0.2325
 3877TIP3    H133190   1.541   3.951   6.947  0.3835 -1.1311 -0.1036
 3877TIP3    H233191   1.650   3.961   7.053 -0.2021 -1.4458  0.5365
 3878TIP3   OH233192   3.301   0.216   0.129  0.1072  0.4257  0.1739
 3878TIP3    H133193   3.367   0.277   0.164  0.6359  0.2405 -0.4692
 3878TIP3    H233194   3.265   0.262   0.054 -0.3820  0.4526  0.4244
 3879TIP3   OH233195   4.309   3.459   7.465  0.4246  0.1802  0.1797
 3879TIP3    H133196   4.363   3.487   7.392  0.2922  1.1271  0.4326
 3879TIP3    H233197   4.219   3.472   7.435  0.3407 -0.5399  0.0913
 3880TIP3   OH233198   3.848   3.647   2.600 -0.3268  0.0395 -0.1176
 3880TIP3    H133199   3.798   3.595   2.537 -1.8656 -0.0007  1.0802
 3880TIP3    H233200   3.914   3.691   2.547  0.3325 -2.2494 -1.3313
 3881TIP3   OH233201   6.512   1.936   2.901  0.2209  0.4827  0.0135
 3881TIP3    H133202   6.435   1.991   2.917 -0.4977 -0.5941  0.3380
 3881TIP3    H233203   6.550   1.923   2.988 -0.2729 -0.4568  0.1047
 3882TIP3   OH233204   5.100   6.125   6.843  0.3202 -0.0550  0.3392
 3882TIP3    H133205   5.031   6.114   6.778  0.2543 -3.6135  0.7991
 3882TIP3    H233206   5.059   6.179   6.912 -0.4598  1.5551 -1.2818
 3883TIP3   OH233207   6.415   5.265   7.977  0.3514 -0.1876  0.1173
 3883TIP3    H133208   6.437   5.238   8.067 -0.3505 -0.9384  0.0814
 3883TIP3    H233209   6.319   5.273   7.978 -0.1153 -3.7537 -1.4390
 3884TIP3   OH233210   0.224   1.569   7.157 -0.1799  0.2586 -0.2247
 3884TIP3    H133211   0.301   1.514   7.173 -0.8535 -0.4788  0.5625
 3884TIP3    H233212   0.203   1.607   7.243 -0.7710  0.3558 -0.4100
 3885TIP3   OH233213   1.193   5.311   8.716 -0.0384  0.2904 -0.4117
 3885TIP3    H133214   1.112   5.291   8.762  0.0148 -1.7396 -1.0849
 3885TIP3    H233215   1.167   5.316   8.624  0.2796  1.6945 -0.4390
 3886TIP3   OH233216   1.592   2.223   8.427 -0.2993 -0.4676 -0.5838
 3886TIP3    H133217   1.619   2.188   8.342  1.0914 -0.3949 -0.1867
 3886TIP3    H233218   1.536   2.298   8.405  0.1752 -0.3513 -1.4444
 3887TIP3   OH233219   4.638   6.836   7.953  0.0601  0.8992 -0.2155
 3887TIP3    H133220   4.623   6.744   7.974 -3.1968  1.2454 -0.5363
 3887TIP3    H233221   4.714   6.835   7.896 -0.7805 -1.7965 -1.4840
 3888TIP3   OH233222   4.237   6.610   8.302 -0.5585  0.2551 -0.0153
 3888TIP3    H133223   4.197   6.636   8.219  1.5731  0.6520 -0.9847
 3888TIP3    H233224   4.292   6.684   8.327  0.1896 -0.5435  0.8125
 3889TIP3   OH233225   3.631   0.009   2.213 -0.2122 -0.1096 -0.5137
 3889TIP3    H133226   3.590  -0.047   2.279 -0.2591  0.1794 -0.2970
 3889TIP3    H233227   3.674  -0.053   2.153 -0.5300 -0.3916 -0.4562
 3890TIP3   OH233228   3.685   4.107   7.877  0.8016  0.4540  0.1163
 3890TIP3    H133229   3.696   4.012   7.869  0.7548  0.3801  0.9260
 3890TIP3    H233230   3.599   4.119   7.916  1.1082  0.8015  0.7047
 3891TIP3   OH233231   5.830   4.907   0.789 -0.6374 -0.0846  0.1042
 3891TIP3    H133232   5.908   4.889   0.842 -0.1746 -2.1377 -1.1716
 3891TIP3    H233233   5.829   5.002   0.781  1.1434  0.0661  1.0292
 3892TIP3   OH233234   6.427   6.238   8.332 -0.0183  0.4904  0.0727
 3892TIP3    H133235   6.448   6.245   8.425 -0.5063 -1.9506  0.4222
 3892TIP3    H233236   6.511   6.247   8.288  0.6284 -0.9449  0.9384
 3893TIP3   OH233237   6.833   0.503   2.413 -0.1247 -0.0046  0.4283
 3893TIP3    H133238   6.795   0.547   2.489  1.1488 -1.0102  1.7176
 3893TIP3    H233239   6.925   0.529   2.414 -0.1703  0.2910 -1.0492
 3894TIP3   OH233240   3.827   3.081   2.096  0.3124  0.3857  0.1439
 3894TIP3    H133241   3.844   3.002   2.147  0.8204  0.5281  0.1983
 3894TIP3    H233242   3.848   3.057   2.006 -0.3196  0.2175  0.0360
 3895TIP3   OH233243   3.460   1.986   2.376  0.2397  0.2381  0.4596
 3895TIP3    H133244   3.429   1.937   2.452  0.4348  0.2994  0.5809
 3895TIP3    H233245   3.547   2.017   2.402  0.3478  0.1743  0.1735
 3896TIP3   OH233246   0.119   5.165   0.374  0.0666 -0.2550  0.3692
 3896TIP3    H133247   0.058   5.138   0.305 -0.1112  1.8238 -0.3589
 3896TIP3    H233248   0.205   5.161   0.332  0.2329 -1.1067  0.7479
 3897TIP3   OH233249   1.566   1.171   1.662  0.4349  0.0741  0.0385
 3897TIP3    H133250   1.526   1.086   1.681 -0.2496  0.4262  0.2045
 3897TIP3    H233251   1.496   1.221   1.619  0.2156  1.2075  1.6360
 3898TIP3   OH233252   3.072   4.439   8.152 -0.3672 -0.4158 -0.3913
 3898TIP3    H133253   3.058   4.403   8.240 -1.5802  1.0680  0.0656
 3898TIP3    H233254   3.096   4.531   8.168  2.4776 -0.8460 -1.5077
 3899TIP3   OH233255   2.324   6.673   2.395  0.0848  0.0450  0.4122
 3899TIP3    H133256   2.324   6.658   2.300 -1.5537  0.1303  0.3669
 3899TIP3    H233257   2.322   6.768   2.404 -1.2950  0.0372  0.4703
 3900TIP3   OH233258   5.115   2.664   0.240 -0.0726  0.1880 -0.7766
 3900TIP3    H133259   5.088   2.692   0.152  1.1142  1.8274 -0.6672
 3900TIP3    H233260   5.036   2.672   0.293 -1.1322 -1.9613 -1.8792
 3901TIP3   OH233261   1.607   4.911   1.767  0.0372  0.0315  0.5407
 3901TIP3    H133262   1.566   4.862   1.695 -0.2200 -0.2440  0.8698
 3901TIP3    H233263   1.699   4.885   1.764 -0.0745 -0.3879  0.6349
 3902TIP3   OH233264   4.905   3.510   8.644 -0.6683 -0.2784  0.2753
 3902TIP3    H133265   4.886   3.519   8.738  0.6608 -1.3308  0.6676
 3902TIP3    H233266   4.921   3.416   8.631  1.0665  0.1021 -0.6170
 3903TIP3   OH233267   3.835   2.037   8.528 -0.2047  0.0831 -0.1517
 3903TIP3    H133268   3.758   1.980   8.530 -2.1691  2.4584 -1.6967
 3903TIP3    H233269   3.848   2.063   8.620 -1.1519 -0.4627  0.1483
 3904TIP3   OH233270   1.154   4.986   8.427  0.0269 -0.1129  0.4262
 3904TIP3    H133271   1.113   5.063   8.387  1.6575  1.2523  1.2354
 3904TIP3    H233272   1.248   5.004   8.422  0.4992 -2.3750  0.0776
 3905TIP3   OH233273   5.554   2.344   8.050 -0.2824 -0.4896  0.4261
 3905TIP3    H133274   5.492   2.359   8.120 -0.4662  1.2739 -0.0683
 3905TIP3    H233275   5.516   2.273   7.998 -1.1835 -0.3711  0.9169
 3906TIP3   OH233276   5.135   1.036   0.857  0.3761  0.2714 -0.1002
 3906TIP3    H133277   5.090   0.952   0.869 -0.1109  0.3952 -0.9889
 3906TIP3    H233278   5.153   1.065   0.946 -3.3638  1.2955  0.5221
 3907TIP3   OH233279   2.552   2.396   8.702  0.6084 -0.1725 -0.8584
 3907TIP3    H133280   2.490   2.445   8.648  3.2679  1.6911 -2.4229
 3907TIP3    H233281   2.572   2.455   8.775  0.7978 -0.6433 -0.5225
 3908TIP3   OH233282   1.732   3.544   7.974  0.6323 -0.7787  0.0738
 3908TIP3    H133283   1.710   3.458   7.938  0.1595 -0.1936 -1.0974
 3908TIP3    H233284   1.648   3.590   7.979  0.8767 -0.3892  0.7192
 3909TIP3   OH233285   1.201   0.297   7.896  0.8122  0.5767 -0.0142
 3909TIP3    H133286   1.220   0.372   7.840  0.6260  0.4189 -0.2932
 3909TIP3    H233287   1.250   0.225   7.857  1.8371  0.7849  0.8659
 3910TIP3   OH233288   6.005   0.802   8.356  0.3381 -0.3575  0.5903
 3910TIP3    H133289   6.075   0.859   8.324  1.0097 -1.4620  0.0644
 3910TIP3    H233290   5.969   0.761   8.277  0.5282 -1.4186  1.0462
 3911TIP3   OH233291   2.840   6.551   8.500  0.6953  0.0057 -0.0041
 3911TIP3    H133292   2.792   6.630   8.476 -1.1190 -0.9900  0.1726
 3911TIP3    H233293   2.778   6.500   8.553  1.6563 -1.7149 -0.4414
 3912TIP3   OH233294   5.283   0.001   1.213 -0.5967  0.4306 -0.7464
 3912TIP3    H133295   5.377  -0.013   1.200 -0.7237 -0.2628 -0.9639
 3912TIP3    H233296   5.277   0.079   1.268  0.0779  1.1101 -1.6003
 3913TIP3   OH233297   3.546   4.083   2.978  0.3707 -0.0580  0.0558
 3913TIP3    H133298   3.453   4.103   2.966  0.3734  0.5988  0.9949
 3913TIP3    H233299   3.575   4.050   2.893 -0.3324  1.2590 -0.7235
 3914TIP3   OH233300   0.466   1.536   7.520 -0.5048  0.1397  0.5525
 3914TIP3    H133301   0.397   1.472   7.504 -0.8707 -0.0988  2.8060
 3914TIP3    H233302   0.516   1.500   7.593  2.1041  0.2816 -1.0406
 3915TIP3   OH233303   4.512   6.441   2.431  0.7122  0.0161  0.1073
 3915TIP3    H133304   4.487   6.488   2.511  1.0559  0.1003  0.1645
 3915TIP3    H233305   4.505   6.508   2.362 -1.5234 -0.5219 -0.2716
 3916TIP3   OH233306   1.538   5.798   8.061 -0.2385  0.2127 -0.5583
 3916TIP3    H133307   1.496   5.712   8.061  1.1070 -0.4658 -0.0997
 3916TIP3    H233308   1.522   5.832   8.149 -1.3232  0.7375 -0.9372
 3917TIP3   OH233309   4.056   3.771   1.225  0.5919 -0.0487  0.1333
 3917TIP3    H133310   3.990   3.819   1.175  0.5853  2.1062  2.0308
 3917TIP3    H233311   4.111   3.729   1.159 -0.2315  1.4866 -1.6128
 3918TIP3   OH233312   1.200   3.023   0.179 -0.2395  0.3240 -0.1311
 3918TIP3    H133313   1.197   2.954   0.113 -0.6446 -0.3134  0.5306
 3918TIP3    H233314   1.288   3.017   0.217 -0.9848 -1.4201  1.5225
 3919TIP3   OH233315   0.186   0.407   0.636  0.3470 -0.1176 -0.1893
 3919TIP3    H133316   0.102   0.441   0.667  0.5158  0.1673 -0.0435
 3919TIP3    H233317   0.248   0.432   0.704  0.3670 -1.2807  0.2333
 3920TIP3   OH233318   0.104   5.270   1.408  0.2856  0.1253 -0.7176
 3920TIP3    H133319   0.137   5.211   1.340  1.8753  1.4901 -1.2006
 3920TIP3    H233320   0.173   5.336   1.418 -0.1782  0.3337  1.7968
 3921TIP3   OH233321   5.273   3.713   7.847  0.0577 -0.0703  0.1448
 3921TIP3    H133322   5.234   3.792   7.885  0.3992 -0.1639  0.6846
 3921TIP3    H233323   5.288   3.654   7.921 -1.1844 -1.0842 -0.3634
 3922TIP3   OH233324   3.050   1.361   7.594  0.4631  0.1096 -0.3355
 3922TIP3    H133325   3.090   1.419   7.659  2.3292  0.9377 -2.0876
 3922TIP3    H233326   2.987   1.416   7.549  1.1053  0.3612 -0.9560
 3923TIP3   OH233327   6.543   3.692   7.522 -0.4403 -0.2462 -0.4412
 3923TIP3    H133328   6.522   3.695   7.429 -1.2689  0.9451 -0.2384
 3923TIP3    H233329   6.607   3.621   7.530  0.2751  0.1687 -2.0340
 3924TIP3   OH233330   0.122   2.339   8.649 -0.0034 -0.2297 -0.4104
 3924TIP3    H133331   0.197   2.283   8.630 -1.9656 -3.7732  1.1028
 3924TIP3    H233332   0.074   2.343   8.566 -0.0025 -1.1778 -0.4746
 3925TIP3   OH233333   0.942   2.112   7.142  0.8722 -0.0034  0.1893
 3925TIP3    H133334   0.945   2.063   7.059  0.5217  1.5507 -0.7752
 3925TIP3    H233335   0.870   2.071   7.191  0.9279 -0.7890 -0.3588
 3926TIP3   OH233336   0.877   3.807   1.136 -0.7467 -0.6146  0.2129
 3926TIP3    H133337   0.966   3.771   1.139 -0.4131  0.1731  0.0935
 3926TIP3    H233338   0.829   3.749   1.077 -0.4902 -1.4254  0.7933
 3927TIP3   OH233339   3.772   0.182   1.483  0.1741 -0.4897 -0.2770
 3927TIP3    H133340   3.787   0.137   1.400  1.0973 -1.7799  0.5665
 3927TIP3    H233341   3.676   0.189   1.489 -0.1185 -3.3513  0.0220
 3928TIP3   OH233342   1.049   0.091   8.210  0.0413  0.4333 -0.0046
 3928TIP3    H133343   1.038   0.071   8.303  0.7698 -1.6887 -0.3042
 3928TIP3    H233344   0.962   0.083   8.172 -0.4596  2.4264  0.6442
 3929TIP3   OH233345   5.577   3.645   7.773  0.0160 -0.1503 -0.2499
 3929TIP3    H133346   5.632   3.661   7.850  2.0511  0.7010 -1.7798
 3929TIP3    H233347   5.560   3.551   7.775 -0.6746 -0.0143  1.6482
 3930TIP3   OH233348   3.200   0.365   8.259  0.0792  0.0514  0.2825
 3930TIP3    H133349   3.222   0.421   8.185  0.5457  1.1612  1.2261
 3930TIP3    H233350   3.223   0.276   8.231  2.4902  0.7277 -0.0652
 3931TIP3   OH233351   3.780   5.771   0.852 -0.2681  0.0114  0.2778
 3931TIP3    H133352   3.747   5.684   0.827  0.7024 -0.8681  1.8180
 3931TIP3    H233353   3.875   5.761   0.850 -0.1090  1.5648 -1.1040
 3932TIP3   OH233354   3.901   6.106   0.406  0.4229 -0.5782 -1.0874
 3932TIP3    H133355   3.846   6.177   0.375  0.6539 -0.3639 -1.0084
 3932TIP3    H233356   3.848   6.061   0.472  0.5428 -0.0513 -0.6258
 3933TIP3   OH233357   4.989   5.859   8.534  0.4006  0.0965  0.5045
 3933TIP3    H133358   4.925   5.789   8.520 -0.2723  0.6974  0.4988
 3933TIP3    H233359   5.047   5.825   8.602  0.3880 -0.6622  0.1476
 3934TIP3   OH233360   1.052   3.638   8.629  1.0393  0.4106 -0.3891
 3934TIP3    H133361   1.002   3.612   8.551 -0.4214  0.4573  0.5016
 3934TIP3    H233362   1.024   3.578   8.697  0.8070  1.5948  0.6004
 3935TIP3   OH233363   4.240   4.443   0.731 -0.0562 -0.3166 -0.5944
 3935TIP3    H133364   4.182   4.508   0.770 -3.4287 -2.7742 -1.1034
 3935TIP3    H233365   4.250   4.470   0.640  1.0544  0.9870 -0.1256
 3936TIP3   OH233366   4.249   4.791   0.621  0.7025 -0.0267 -0.0840
 3936TIP3    H133367   4.175   4.741   0.654 -0.0431  1.0987  0.0177
 3936TIP3    H233368   4.306   4.726   0.581 -1.6761 -0.7407 -2.7361
 3937TIP3   OH233369   4.089   1.022   0.443 -0.0448  0.3632  0.5614
 3937TIP3    H133370   4.062   1.097   0.496  0.4558 -0.1867  1.6289
 3937TIP3    H233371   4.183   1.016   0.456  0.2393  0.7360 -1.1171
 3938TIP3   OH233372   1.541   0.305   7.836 -0.0799  0.0457  0.5845
 3938TIP3    H133373   1.497   0.241   7.781  0.3265  0.7682 -0.6088
 3938TIP3    H233374   1.539   0.266   7.924 -0.2141 -1.3974 -0.0268
 3939TIP3   OH233375   4.164   6.093   0.408  0.3241 -0.2136 -0.9881
 3939TIP3    H133376   4.069   6.088   0.392  0.2958 -0.3657 -0.7813
 3939TIP3    H233377   4.183   6.015   0.461  0.4004  0.3318 -0.1987
 3940TIP3   OH233378   6.121   2.698   0.757  0.0561  0.0641 -0.0111
 3940TIP3    H133379   6.096   2.612   0.725  0.6764 -0.0795 -0.1285
 3940TIP3    H233380   6.202   2.719   0.709  1.8941 -0.8009  2.4709
 3941TIP3   OH233381   2.484   2.967   1.183  0.2178  0.6193  0.2160
 3941TIP3    H133382   2.497   3.039   1.244 -4.2581  0.3767  1.8489
 3941TIP3    H233383   2.399   2.985   1.143  0.6120 -1.9640 -2.0737
 3942TIP3   OH233384   3.849   3.867   1.089  0.1290  0.5270 -0.3771
 3942TIP3    H133385   3.789   3.855   1.016  0.9976  2.0771 -1.3945
 3942TIP3    H233386   3.809   3.935   1.143 -0.3885 -0.4383  0.4802
 3943TIP3   OH233387   1.919   2.355   8.089  0.1924  0.0153  0.1302
 3943TIP3    H133388   1.863   2.420   8.131 -0.2341 -0.0135 -0.3934
 3943TIP3    H233389   1.997   2.351   8.145 -0.5713 -0.3784  1.1931
 3944TIP3   OH233390   3.186   1.023   8.016 -0.5211  0.1737  0.1583
 3944TIP3    H133391   3.251   0.955   7.998 -0.6591  0.0950 -0.0566
 3944TIP3    H233392   3.201   1.089   7.948 -0.3332  0.3973  0.4169
 3945TIP3   OH233393   6.112   1.592   6.868 -0.2110 -0.2688 -0.5981
 3945TIP3    H133394   6.170   1.667   6.863 -0.6818  0.0588 -1.2648
 3945TIP3    H233395   6.166   1.517   6.841  0.2024 -0.1533 -0.1151
 3946TIP3   OH233396   4.598   2.290   0.740 -0.5560 -0.1400 -0.3789
 3946TIP3    H133397   4.692   2.276   0.737  0.0570  3.0622  0.6631
 3946TIP3    H233398   4.563   2.205   0.769  1.8290 -1.6807 -1.6251
 3947TIP3   OH233399   2.218   2.820   1.352  0.3196 -0.1523  0.4015
 3947TIP3    H133400   2.175   2.842   1.435  1.5519 -1.3313  1.3940
 3947TIP3    H233401   2.157   2.759   1.310  0.5306 -1.0589  1.3547
 3948TIP3   OH233402   6.285   0.043   1.896  0.3904  0.2510 -0.3532
 3948TIP3    H133403   6.212  -0.019   1.900 -0.1307  0.5069 -3.5198
 3948TIP3    H233404   6.244   0.129   1.900  0.7662  0.4054  0.2843
 3949TIP3   OH233405   1.587   4.647   0.072  0.0949  0.3677  0.4122
 3949TIP3    H133406   1.599   4.618  -0.018 -1.6277  0.0223  0.2606
 3949TIP3    H233407   1.576   4.742   0.066  0.5267  0.4149  0.3308
 3950TIP3   OH233408   1.354   3.760   0.310  0.5544  0.4981 -0.0978
 3950TIP3    H133409   1.394   3.759   0.222 -0.1748  2.8340 -0.5161
 3950TIP3    H233410   1.283   3.824   0.303 -0.2588 -0.1224  1.9163
 3951TIP3   OH233411   1.138   2.483   1.578  0.3178  0.1294 -0.1945
 3951TIP3    H133412   1.077   2.408   1.577  0.0675  0.3323 -0.2062
 3951TIP3    H233413   1.177   2.483   1.490 -1.1427  1.1989 -0.8806
 3952TIP3   OH233414   5.437   4.932   8.439 -0.1463  0.2072  0.1029
 3952TIP3    H133415   5.404   4.852   8.479  1.7855 -1.3566 -1.2464
 3952TIP3    H233416   5.361   4.991   8.438 -2.2274 -2.2733 -0.6210
 3953TIP3   OH233417   2.483   6.692   1.996 -0.2022  0.0706 -0.2728
 3953TIP3    H133418   2.487   6.601   2.026 -0.2548 -0.2867 -1.3368
 3953TIP3    H233419   2.390   6.709   1.982 -0.0114 -0.5686 -2.6099
 3954TIP3   OH233420   5.883   1.800   7.699  0.5197 -0.2546 -0.5603
 3954TIP3    H133421   5.965   1.776   7.656  0.8154  2.1563 -1.5147
 3954TIP3    H233422   5.816   1.788   7.631  0.1567 -1.4788 -0.0159
 3955TIP3   OH233423   2.592   5.370   1.163  0.7771 -0.5717 -0.0243
 3955TIP3    H133424   2.549   5.308   1.222  0.6455  0.5742  1.1280
 3955TIP3    H233425   2.521   5.407   1.111  0.8015 -1.0160 -0.3885
 3956TIP3   OH233426   6.511   6.018   1.143  0.1615 -0.7733  0.4456
 3956TIP3    H133427   6.529   6.101   1.100 -1.0472 -0.7012  0.0569
 3956TIP3    H233428   6.433   5.984   1.100  0.9312 -2.3772  0.2278
 3957TIP3   OH233429   2.767   2.680   0.614  0.0730 -0.1372 -0.9488
 3957TIP3    H133430   2.772   2.626   0.535 -2.2908 -0.7250 -0.7676
 3957TIP3    H233431   2.722   2.760   0.586 -1.6904 -0.7596 -0.0715
 3958TIP3   OH233432   4.882   3.482   2.875 -0.6839  0.1378  0.1897
 3958TIP3    H133433   4.833   3.448   2.950  0.7734  0.6419  1.4200
 3958TIP3    H233434   4.966   3.435   2.878 -0.3199  0.7044 -0.6713
 3959TIP3   OH233435   6.695   2.566   8.724 -0.2803 -0.0547  0.4207
 3959TIP3    H133436   6.615   2.604   8.760  0.4624  1.9292  0.1207
 3959TIP3    H233437   6.749   2.546   8.800 -0.1295  0.8389  0.5608
 3960TIP3   OH233438   2.822   1.344   2.420 -0.1926 -0.8233  0.0109
 3960TIP3    H133439   2.843   1.263   2.467  0.4003 -0.3543  0.5611
 3960TIP3    H233440   2.804   1.408   2.489  1.4403  0.0798 -0.3697
 3961TIP3   OH233441   5.894   6.518   8.677 -0.0175 -0.3970 -0.0264
 3961TIP3    H133442   5.918   6.439   8.725  0.6222  0.2708  0.8001
 3961TIP3    H233443   5.828   6.560   8.733  0.7947  0.4307  0.3441
 3962TIP3   OH233444   0.442   0.399   1.847  0.0571 -0.1092  0.3869
 3962TIP3    H133445   0.456   0.346   1.925  0.6152 -1.9499 -0.8811
 3962TIP3    H233446   0.524   0.447   1.835 -0.5180  1.2564  1.6459
 3963TIP3   OH233447   1.012   2.736   0.906  0.1046 -0.2681  0.2517
 3963TIP3    H133448   0.944   2.706   0.967 -1.1683 -0.9616 -1.4358
 3963TIP3    H233449   1.031   2.659   0.852 -0.0777  0.7819 -1.3477
 3964TIP3   OH233450   0.315   4.055   2.665 -0.2081 -0.2611 -0.4937
 3964TIP3    H133451   0.240   4.078   2.720  0.6068 -1.1037  1.0405
 3964TIP3    H233452   0.346   4.139   2.631  0.3455  0.5432  1.8191
 3965TIP3   OH233453   6.052   4.703   6.941  0.5173  0.3067  0.0135
 3965TIP3    H133454   6.044   4.768   7.010  0.6554  0.4251 -0.0831
 3965TIP3    H233455   6.097   4.748   6.870 -0.6047  0.5312 -0.5871
 3966TIP3   OH233456   6.446   0.554   0.068 -0.2820  0.3175 -0.6453
 3966TIP3    H133457   6.425   0.647   0.066 -0.4182  0.2837 -0.9111
 3966TIP3    H233458   6.362   0.510   0.054 -0.1866  0.1621 -0.7403
 3967TIP3   OH233459   4.511   1.731   1.575 -0.2004 -0.0958 -0.2846
 3967TIP3    H133460   4.570   1.658   1.592  1.7119  1.1142 -1.4341
 3967TIP3    H233461   4.512   1.782   1.656 -0.6460 -0.7120  0.1190
 3968TIP3   OH233462   5.929   1.981   1.548 -0.4055  0.1841 -0.1513
 3968TIP3    H133463   6.004   1.994   1.607  0.5837  0.5887 -1.4471
 3968TIP3    H233464   5.910   2.069   1.515  0.2286 -0.2684 -1.8026
 3969TIP3   OH233465   0.500   3.661   8.629 -0.3432  0.2931 -0.0144
 3969TIP3    H133466   0.489   3.676   8.535  2.3532 -0.1685 -0.4908
 3969TIP3    H233467   0.491   3.566   8.639  0.4352  0.2132 -0.0094
 3970TIP3   OH233468   5.655   5.629   1.785  0.5551  0.1504 -0.0088
 3970TIP3    H133469   5.667   5.573   1.708 -2.2515 -1.2414  0.4126
 3970TIP3    H233470   5.640   5.716   1.749 -1.7502 -0.6505 -1.2402
 3971TIP3   OH233471   4.109   1.930   2.742  0.1098  0.2353 -0.1899
 3971TIP3    H133472   4.104   1.888   2.827  2.3378 -2.0017 -1.0536
 3971TIP3    H233473   4.058   2.011   2.752 -1.1900 -0.8218  2.6692
 3972TIP3   OH233474   5.917   4.134   0.815 -0.5792 -0.5086 -0.1582
 3972TIP3    H133475   5.835   4.087   0.830 -0.2789 -0.3263  2.4649
 3972TIP3    H233476   5.894   4.226   0.830  0.0127 -0.4082  0.1204
 3973TIP3   OH233477   3.723   3.891   0.858  0.6817  0.6301 -0.9050
 3973TIP3    H133478   3.764   3.863   0.776  1.2558 -1.9427  0.1457
 3973TIP3    H233479   3.632   3.862   0.849  0.6594  0.6677 -0.7938
 3974TIP3   OH233480   5.922   6.193   0.047  0.1439 -0.3125  0.0452
 3974TIP3    H133481   5.850   6.209   0.108  0.6460 -2.0513  1.1729
 3974TIP3    H233482   5.917   6.099   0.029  0.9026 -0.0923 -1.4829
 3975TIP3   OH233483   2.158   6.242   0.386 -0.2147 -0.4776 -0.3982
 3975TIP3    H133484   2.168   6.153   0.421  0.1019  0.2688  1.5281
 3975TIP3    H233485   2.229   6.291   0.426 -0.4853  0.6897 -1.3193
 3976TIP3   OH233486   4.718   6.387   8.514  0.4188 -0.1309  0.6689
 3976TIP3    H133487   4.666   6.383   8.594  1.8164 -2.4289  1.5551
 3976TIP3    H233488   4.668   6.336   8.451 -0.4958  1.3679  0.1132
 3977TIP3   OH233489   2.974   3.210   1.531 -0.0322 -0.1891  0.0870
 3977TIP3    H133490   2.976   3.265   1.609 -0.5500  0.2588 -0.2075
 3977TIP3    H233491   2.977   3.272   1.458 -1.1205 -0.5024 -0.2535
 3978TIP3   OH233492   2.407   3.390   7.347  0.2705  1.3676  0.4443
 3978TIP3    H133493   2.469   3.387   7.275  0.5879  3.2783  0.5832
 3978TIP3    H233494   2.350   3.464   7.327 -0.7098  0.8865  1.3185
 3979TIP3   OH233495   2.519   1.758   1.399  0.2023 -0.3040  0.3806
 3979TIP3    H133496   2.441   1.814   1.396  0.1495 -0.3199  1.2941
 3979TIP3    H233497   2.567   1.787   1.476  1.5761  0.3073 -0.6758
 3980TIP3   OH233498   1.768   3.358   8.586 -0.8238 -0.8523 -0.3192
 3980TIP3    H133499   1.826   3.371   8.511  0.7049  2.3697  1.2087
 3980TIP3    H233500   1.710   3.435   8.584 -0.8809 -0.7977  1.6301
 3981TIP3   OH233501   0.691   3.388   7.744 -0.8375 -0.0731 -0.3571
 3981TIP3    H133502   0.764   3.336   7.711  0.7141  2.0612 -0.4685
 3981TIP3    H233503   0.649   3.332   7.809  2.4824 -0.5090  1.6446
 3982TIP3   OH233504   6.299   0.913   0.576 -0.5366  0.7325  0.3934
 3982TIP3    H133505   6.230   0.859   0.538  1.4343 -1.4466 -0.3424
 3982TIP3    H233506   6.312   0.876   0.664 -0.5593  1.3927  0.6775
 3983TIP3   OH233507   5.097   1.885   8.108  0.1502 -0.4426 -0.5346
 3983TIP3    H133508   5.151   1.827   8.054  3.6400  0.2695  1.8235
 3983TIP3    H233509   5.100   1.969   8.064 -1.9757 -1.0832 -2.1052
 3984TIP3   OH233510   3.954   0.139   0.310 -0.3272 -0.5623 -0.0153
 3984TIP3    H133511   3.951   0.153   0.216 -1.5432 -1.3413 -0.1138
 3984TIP3    H233512   3.879   0.188   0.344 -0.1188 -0.5964  0.5139
 3985TIP3   OH233513   4.375   6.080   1.912  0.0472 -0.3190 -0.0940
 3985TIP3    H133514   4.314   6.032   1.857 -0.6126  0.2070  0.1651
 3985TIP3    H233515   4.357   6.049   2.001  0.3478 -0.3683 -0.0495
 3986TIP3   OH233516   1.810   3.805   2.228 -0.1701 -0.0149 -0.2132
 3986TIP3    H133517   1.900   3.831   2.250 -0.9256  1.3289  1.5603
 3986TIP3    H233518   1.773   3.882   2.184 -0.3278 -0.7523 -1.4188
 3987TIP3   OH233519   1.050   3.804   7.805 -0.2788 -0.2615  0.1349
 3987TIP3    H133520   1.074   3.731   7.748 -0.2616 -0.3316  0.2329
 3987TIP3    H233521   1.066   3.882   7.751  0.1129 -0.3106  0.1801
 3988TIP3   OH233522   6.578   3.891   7.977 -0.3869  0.1923  0.1468
 3988TIP3    H133523   6.589   3.963   7.914  0.4070 -0.5233 -0.5684
 3988TIP3    H233524   6.534   3.822   7.927  0.1233 -0.3324  0.4010
 3989TIP3   OH233525   4.094   4.057   8.493  0.2704  0.5034  0.0153
 3989TIP3    H133526   4.051   3.990   8.442  0.9636  0.9758 -1.2351
 3989TIP3    H233527   4.149   4.009   8.555  0.9230 -0.0972 -1.0104
 3990TIP3   OH233528   6.454   1.988   2.610  0.0523 -0.0462  0.2167
 3990TIP3    H133529   6.480   1.970   2.701  0.1186 -0.9432  0.0269
 3990TIP3    H233530   6.527   2.038   2.574  0.8541 -1.2175  0.1489
 3991TIP3   OH233531   6.477   1.284   7.022 -0.1700  0.0584  0.7061
 3991TIP3    H133532   6.528   1.343   6.967  1.1162 -1.7868 -0.1807
 3991TIP3    H233533   6.386   1.308   7.005 -0.0840 -2.0557 -4.3930
 3992TIP3   OH233534   2.268   2.779   0.651 -0.1276  0.1075 -0.2124
 3992TIP3    H133535   2.348   2.830   0.664 -0.7948  1.3253 -0.7311
 3992TIP3    H233536   2.272   2.710   0.718  1.4287  0.0296 -0.3573
 3993TIP3   OH233537   0.994   6.350   7.710  0.0249 -0.1334 -0.1638
 3993TIP3    H133538   1.010   6.382   7.621 -1.3587  0.5954 -0.1798
 3993TIP3    H233539   1.031   6.417   7.767 -0.1280 -0.0166 -0.2000
 3994TIP3   OH233540   5.539   6.438   0.826  0.0828  0.7105 -0.4146
 3994TIP3    H133541   5.607   6.432   0.758 -0.4306 -0.7553 -0.8588
 3994TIP3    H233542   5.477   6.502   0.792  0.3820  0.7838 -0.8375
 3995TIP3   OH233543   5.137   6.024   1.183 -0.4798  0.1103  0.2636
 3995TIP3    H133544   5.110   5.964   1.114 -0.8773  0.4653  0.1120
 3995TIP3    H233545   5.182   5.968   1.247 -0.1703 -0.2265 -0.2463
 3996TIP3   OH233546   2.882   5.397   8.351  1.0162 -0.3356 -0.1486
 3996TIP3    H133547   2.879   5.444   8.434  0.7527 -0.3400 -0.1532
 3996TIP3    H233548   2.911   5.308   8.374  2.2245  0.0276 -0.2325
 3997TIP3   OH233549   1.424   4.949   7.383  0.0735 -0.3500  0.8286
 3997TIP3    H133550   1.392   4.864   7.353 -0.1030  0.5493 -1.8362
 3997TIP3    H233551   1.351   5.008   7.370  0.8584  0.5906  0.5628
 3998TIP3   OH233552   0.924   6.473   0.736 -0.0047 -0.3583 -0.7819
 3998TIP3    H133553   0.982   6.461   0.661 -1.7175 -1.4443 -2.0230
 3998TIP3    H233554   0.874   6.553   0.714  0.5609  0.2104 -0.0321
 3999TIP3   OH233555   3.186   6.134   0.093 -0.3162  0.5828  0.6732
 3999TIP3    H133556   3.155   6.106   0.179 -1.3570  0.3937  0.2513
 3999TIP3    H233557   3.145   6.219   0.079 -0.5864  0.3661  0.1313
 4000TIP3   OH233558   2.938   5.688   1.048  0.1329 -0.7670  0.0046
 4000TIP3    H133559   3.005   5.719   1.109  0.4949  1.0534 -1.2488
 4000TIP3    H233560   2.855   5.698   1.096  0.5015 -0.3969  0.5811
 4001TIP3   OH233561   5.943   1.316   1.341  0.2802  0.0827  0.3233
 4001TIP3    H133562   5.956   1.226   1.370  2.3269 -0.0207 -0.7297
 4001TIP3    H233563   5.930   1.309   1.246  0.2454  0.8907  0.2613
 4002TIP3   OH233564   6.572   1.484   6.670  0.3270  0.0883  0.3196
 4002TIP3    H133565   6.641   1.485   6.605  1.0092 -1.3208  0.9775
 4002TIP3    H233566   6.617   1.494   6.754 -0.3483  0.0245  0.6995
 4003TIP3   OH233567   2.878   6.052   8.344 -0.3169 -0.3430  0.3534
 4003TIP3    H133568   2.802   6.094   8.303  1.1086 -0.7214 -3.1094
 4003TIP3    H233569   2.928   6.125   8.382 -0.4378  0.4936 -1.0076
 4004TIP3   OH233570   4.586   1.513   1.876 -0.4783  0.2140 -0.9278
 4004TIP3    H133571   4.531   1.590   1.891 -2.1840 -0.7774 -1.8030
 4004TIP3    H233572   4.652   1.543   1.813 -0.5527  1.1978 -0.5507
 4005TIP3   OH233573   5.351   1.525   2.583  0.3110 -0.0754  0.2190
 4005TIP3    H133574   5.347   1.490   2.672  0.5378 -0.1673  0.1935
 4005TIP3    H233575   5.278   1.484   2.537  1.0412 -1.1247 -0.0327
 4006TIP3   OH233576   5.023   5.887   0.980 -0.0240  0.5952  0.1165
 4006TIP3    H133577   5.005   5.898   0.886  0.3899  0.1694 -0.0108
 4006TIP3    H233578   4.938   5.905   1.022 -0.6936 -1.0682 -0.4606
 4007TIP3   OH233579   6.154   4.281   0.730  0.1110  0.1955  0.1699
 4007TIP3    H133580   6.102   4.230   0.792 -0.3983  1.4478  0.8086
 4007TIP3    H233581   6.104   4.279   0.649 -1.7960  2.5629  1.1430
 4008TIP3   OH233582   2.578   6.196   2.827 -0.3139 -0.5102 -0.1559
 4008TIP3    H133583   2.554   6.170   2.916  0.9170  0.7369  0.5892
 4008TIP3    H233584   2.523   6.273   2.810  0.5857  0.2167  0.1706
 4009TIP3   OH233585   6.080   4.562   7.283  0.1266  0.2216  0.1707
 4009TIP3    H133586   6.118   4.647   7.304  0.1560  0.8707 -2.1630
 4009TIP3    H233587   6.033   4.536   7.362  0.4057  2.2536  1.0636
 4010TIP3   OH233588   0.793   1.250   1.001  0.2536  0.9556 -0.4974
 4010TIP3    H133589   0.704   1.259   1.037  1.2487  0.1058  2.4820
 4010TIP3    H233590   0.847   1.305   1.057  1.6643  1.2766 -2.1138
 4011TIP3   OH233591   4.301   0.472   7.203 -0.8884  0.1923 -0.1340
 4011TIP3    H133592   4.392   0.503   7.205 -0.8467  0.0376  0.4863
 4011TIP3    H233593   4.280   0.467   7.110 -0.5099  0.9525 -0.2692
 4012TIP3   OH233594   2.620   2.848   2.281 -0.2980 -0.0757  0.0724
 4012TIP3    H133595   2.637   2.929   2.232 -1.0829  0.0243 -0.0570
 4012TIP3    H233596   2.594   2.785   2.214  0.7974 -0.5825  0.1190
 4013TIP3   OH233597   5.241   4.126   7.565 -0.0319 -0.5477 -0.2972
 4013TIP3    H133598   5.260   4.165   7.651 -0.3976  1.2457 -0.9917
 4013TIP3    H233599   5.272   4.191   7.502 -2.1154 -0.6640 -1.5122
 4014TIP3   OH233600   0.416   5.096   8.581  0.6754  0.5040 -0.0450
 4014TIP3    H133601   0.438   5.013   8.622 -0.1909 -0.5570 -1.6300
 4014TIP3    H233602   0.330   5.119   8.616  0.1108 -0.2014 -0.9420
 4015TIP3   OH233603   0.178   0.570   0.181  0.0380  1.0673 -0.5843
 4015TIP3    H133604   0.271   0.555   0.200  0.3983  2.5658 -1.0209
 4015TIP3    H233605   0.158   0.508   0.111  0.9141  1.2223 -0.9894
 4016TIP3   OH233606   5.127   2.038   1.581  0.0343  0.1894 -0.3288
 4016TIP3    H133607   5.212   2.032   1.538 -0.1650  2.9007 -1.2671
 4016TIP3    H233608   5.083   1.956   1.558  2.4037 -1.3995  0.3864
 4017TIP3   OH233609   1.965   4.637   0.230  0.2330  0.0976  0.0328
 4017TIP3    H133610   1.937   4.578   0.160 -1.1167  1.5081 -0.6882
 4017TIP3    H233611   1.887   4.649   0.284 -0.0154  2.3218 -0.6913
 4018TIP3   OH233612   6.128   5.195   0.749 -0.2718 -0.3823 -0.1188
 4018TIP3    H133613   6.193   5.147   0.698  0.6317  0.0106  0.6386
 4018TIP3    H233614   6.164   5.283   0.758 -0.3900 -0.4408  1.2005
 4019TIP3   OH233615   5.567   0.152   7.791  0.0474  0.1913  0.1178
 4019TIP3    H133616   5.477   0.119   7.800 -0.5757  1.2690 -1.6600
 4019TIP3    H233617   5.611   0.087   7.736  0.7960 -1.0084  2.0289
 4020TIP3   OH233618   5.079   4.097   7.297  0.3274 -0.6346  0.9686
 4020TIP3    H133619   4.987   4.115   7.278  0.4927 -0.3888  0.3938
 4020TIP3    H233620   5.125   4.178   7.275  0.7917 -1.0342  0.4479
 4021TIP3   OH233621   0.837   4.800   1.899 -0.1047  0.3634 -0.5933
 4021TIP3    H133622   0.761   4.814   1.955  0.9945  3.0818  0.4017
 4021TIP3    H233623   0.816   4.720   1.850 -1.8270 -1.2485  2.4540
 4022TIP3   OH233624   0.252   5.438   7.269  0.1719 -0.0193  0.4013
 4022TIP3    H133625   0.346   5.427   7.281  0.0397 -0.4886  1.0494
 4022TIP3    H233626   0.230   5.517   7.319  0.1839 -0.0354  0.4316
 4023TIP3   OH233627   4.363   1.339   1.069  0.8244 -0.3467  0.3584
 4023TIP3    H133628   4.347   1.247   1.088  0.0753  0.0362  1.7485
 4023TIP3    H233629   4.306   1.386   1.129  1.0568  1.0320 -0.4531
 4024TIP3   OH233630   6.276   2.232   1.243  0.1883 -0.2303  0.4655
 4024TIP3    H133631   6.249   2.159   1.297 -0.7794 -2.8163 -3.1272
 4024TIP3    H233632   6.194   2.267   1.208  0.8140  0.6899 -0.1230
 4025TIP3   OH233633   4.002   6.320   7.372  0.7264  0.0144 -0.5326
 4025TIP3    H133634   3.949   6.241   7.359  0.6646 -0.0534  0.1352
 4025TIP3    H233635   4.083   6.288   7.411  0.6032  0.3081 -0.0357
 4026TIP3   OH233636   0.742   0.725   8.057  0.5208  0.3574 -0.3207
 4026TIP3    H133637   0.784   0.675   7.988  0.1682 -0.7112  0.2183
 4026TIP3    H233638   0.791   0.703   8.137 -0.3368 -0.0276  0.1140
 4027TIP3   OH233639   1.712   2.944   1.391  0.2231 -0.1896 -1.0565
 4027TIP3    H133640   1.701   2.936   1.486 -0.4315 -1.3952 -1.2171
 4027TIP3    H233641   1.770   3.019   1.380  1.8268 -1.1294  0.3908
 4028TIP3   OH233642   1.249   6.083   0.417 -0.1982 -0.3878 -0.3692
 4028TIP3    H133643   1.200   6.046   0.490 -1.5146 -1.4737 -1.7248
 4028TIP3    H233644   1.185   6.137   0.370  1.0666  1.6933  0.1876
 4029TIP3   OH233645   6.741   1.908   0.611 -0.0317 -0.2553 -0.3379
 4029TIP3    H133646   6.702   1.829   0.575 -1.3608 -0.2986  1.1212
 4029TIP3    H233647   6.674   1.944   0.669  1.2110  0.9944  0.3800
 4030TIP3   OH233648   4.179   4.530   1.591 -0.5717  0.4613  0.5836
 4030TIP3    H133649   4.262   4.486   1.608 -0.6015 -0.1257 -0.7173
 4030TIP3    H233650   4.133   4.527   1.676 -0.5853 -2.0837  0.5617
 4031TIP3   OH233651   1.120   3.349   2.944 -0.4305 -1.3781  0.8979
 4031TIP3    H133652   1.173   3.310   2.873  1.5431 -0.3065  1.6922
 4031TIP3    H233653   1.053   3.284   2.962 -0.6978 -1.8897 -1.6220
 4032TIP3   OH233654   5.902   2.558   2.168 -0.2276 -0.0333 -0.1632
 4032TIP3    H133655   5.911   2.555   2.263  1.1403 -0.1302 -0.2815
 4032TIP3    H233656   5.968   2.497   2.135  0.4639  1.2487 -1.2249
 4033TIP3   OH233657   0.928   5.059   0.675  0.0809  0.2935  0.2644
 4033TIP3    H133658   0.966   4.984   0.630 -0.9634 -0.6299  0.8545
 4033TIP3    H233659   0.963   5.135   0.629  1.3816 -0.5361 -0.1762
 4034TIP3   OH233660   2.070   4.873   7.860 -0.0489  0.4687 -0.0022
 4034TIP3    H133661   1.994   4.926   7.836  0.8177  1.8700  0.2255
 4034TIP3    H233662   2.044   4.783   7.838 -1.3589  1.0302 -0.9296
 4035TIP3   OH233663   2.403   4.220   1.333  0.4213 -0.0423 -0.2388
 4035TIP3    H133664   2.389   4.313   1.312  0.2711 -0.1914 -0.8355
 4035TIP3    H233665   2.492   4.202   1.301  1.2471  0.3903  1.6983
 4036TIP3   OH233666   2.081   3.959   1.638  0.0327  0.1484  0.2160
 4036TIP3    H133667   2.049   4.036   1.685 -0.3006  0.8318 -1.0668
 4036TIP3    H233668   2.153   3.992   1.585 -1.2514  0.0356 -1.7319
 4037TIP3   OH233669   4.358   5.087   7.551  0.5161  0.0111 -0.0841
 4037TIP3    H133670   4.417   5.016   7.574  1.2118  1.4132  2.9010
 4037TIP3    H233671   4.415   5.159   7.525 -0.1480 -0.1486 -2.2092
 4038TIP3   OH233672   4.042   5.139   8.188 -0.5420 -0.0066 -0.5469
 4038TIP3    H133673   3.993   5.210   8.148  0.0647  0.3554 -0.6657
 4038TIP3    H233674   4.093   5.102   8.116  1.6867  1.5837  0.0970
 4039TIP3   OH233675   1.742   5.540   2.176 -0.4612 -0.0977  0.6684
 4039TIP3    H133676   1.837   5.532   2.179 -0.3089  0.8452 -0.9692
 4039TIP3    H233677   1.716   5.552   2.268  1.1106  0.8363  1.0171
 4040TIP3   OH233678   6.335   1.029   2.253 -0.3091 -0.5165  0.0650
 4040TIP3    H133679   6.351   1.094   2.322 -1.7163 -0.7020  0.5903
 4040TIP3    H233680   6.290   0.958   2.297  0.5418 -1.5378 -0.6662
 4041TIP3   OH233681   6.589   1.840   2.020 -0.0328  0.1679 -0.0061
 4041TIP3    H133682   6.594   1.935   2.032  0.6750  0.3728 -1.6038
 4041TIP3    H233683   6.597   1.828   1.925  1.1450 -1.5606  0.2718
 4042TIP3   OH233684   1.229   5.109   2.269 -0.2733 -0.1466 -0.1229
 4042TIP3    H133685   1.159   5.051   2.298 -0.7231  0.2413 -0.4074
 4042TIP3    H233686   1.202   5.196   2.299 -1.4042  0.5096 -2.7066
 4043TIP3   OH233687   4.053   3.741   2.397 -0.3457  0.6508  0.5368
 4043TIP3    H133688   4.136   3.779   2.368 -1.6466  2.6593 -0.8924
 4043TIP3    H233689   4.029   3.680   2.327  0.8397 -1.5312  1.9368
 4044TIP3   OH233690   0.526   0.801   1.957  0.0442  0.0015 -0.3779
 4044TIP3    H133691   0.439   0.762   1.947 -0.0552  0.6035 -2.1654
 4044TIP3    H233692   0.516   0.890   1.923  1.5924 -0.2657 -1.6222
 4045TIP3   OH233693   4.461   6.336   8.593 -0.3755 -0.1016 -0.2564
 4045TIP3    H133694   4.416   6.282   8.658  0.2861  0.6040  0.8116
 4045TIP3    H233695   4.424   6.308   8.509 -0.1472 -2.1142  0.2614
 4046TIP3   OH233696   1.159   3.276   8.699  0.0408  0.0866  0.0663
 4046TIP3    H133697   1.136   3.183   8.699  0.6637 -0.0744 -0.1124
 4046TIP3    H233698   1.083   3.319   8.737 -0.5430 -0.4244 -0.4730
 4047TIP3   OH233699   2.194   1.830   7.998  0.1916 -0.3409 -0.2229
 4047TIP3    H133700   2.262   1.872   8.052  0.0501 -0.7006  0.2344
 4047TIP3    H233701   2.168   1.898   7.936 -1.2092  0.8414  1.5439
 4048TIP3   OH233702   3.214   2.538   6.999  0.0696  0.0176 -0.0554
 4048TIP3    H133703   3.211   2.447   6.971  1.1461 -0.0748  0.0800
 4048TIP3    H233704   3.132   2.576   6.968  0.1696 -0.6769 -1.2104
 4049TIP3   OH233705   6.515   2.723   1.841  0.4502 -0.0684 -0.1101
 4049TIP3    H133706   6.561   2.682   1.769  0.3692 -1.0126  0.3565
 4049TIP3    H233707   6.548   2.677   1.919 -0.5549 -0.0997  0.3088
 4050TIP3   OH233708   3.610   0.556   0.633 -0.0775 -0.7426 -0.1144
 4050TIP3    H133709   3.608   0.613   0.710 -1.0210 -0.1464 -0.5582
 4050TIP3    H233710   3.702   0.554   0.607 -0.1558  1.5416 -0.7522
 4051TIP3   OH233711   5.539   3.329   0.897 -0.0175 -0.3922 -0.2574
 4051TIP3    H133712   5.513   3.419   0.916 -0.4489 -0.6130  0.2159
 4051TIP3    H233713   5.593   3.303   0.971  0.3310 -0.4399 -0.5230
 4052TIP3   OH233714   6.096   1.594   2.930  0.4911  0.5577  0.6114
 4052TIP3    H133715   6.101   1.503   2.904  0.8526 -0.2533  3.1835
 4052TIP3    H233716   6.138   1.642   2.859 -1.2304 -1.0168 -1.6343
 4053TIP3   OH233717   1.434   3.805   3.303 -0.2743  0.3421 -0.0283
 4053TIP3    H133718   1.364   3.796   3.367 -0.6591  1.0634 -0.3274
 4053TIP3    H233719   1.475   3.889   3.324 -0.2113  0.4428 -0.5310
 4054TIP3   OH233720   0.520   4.619   2.427  0.1437  0.5003 -0.6239
 4054TIP3    H133721   0.590   4.584   2.371  1.4839 -1.9999  2.3158
 4054TIP3    H233722   0.553   4.607   2.516 -3.3971  0.7827  0.8699
 4055TIP3   OH233723   4.908   2.689   1.075 -0.2240 -0.0961  0.1539
 4055TIP3    H133724   4.978   2.709   1.013  0.2393  0.3257  0.7988
 4055TIP3    H233725   4.827   2.713   1.028  0.1308  0.4463 -0.1982
 4056TIP3   OH233726   5.409   0.044   8.188 -0.0671 -0.0238 -0.1146
 4056TIP3    H133727   5.503   0.038   8.207 -0.2258 -2.5758  0.1900
 4056TIP3    H233728   5.367   0.032   8.273 -0.7126  1.5336 -0.1822
 4057TIP3   OH233729   2.308   4.255   0.341  0.4179  0.1795  0.1147
 4057TIP3    H133730   2.376   4.236   0.276 -0.7818 -0.8657 -0.8875
 4057TIP3    H233731   2.352   4.243   0.426  1.2866 -1.2190 -0.5054
 4058TIP3   OH233732   3.428   5.504   2.427 -0.3462  0.2594  0.0879
 4058TIP3    H133733   3.411   5.411   2.415  0.1330 -0.1711  2.2847
 4058TIP3    H233734   3.360   5.533   2.487  0.1825  1.0361  0.3291
 4059TIP3   OH233735   1.696   4.915   0.329 -0.3895  0.1039  0.4011
 4059TIP3    H133736   1.660   4.892   0.244  0.0262  0.1617  0.2065
 4059TIP3    H233737   1.787   4.940   0.311  0.4763 -2.2439  1.1607
 4060TIP3   OH233738   6.109   4.702   2.636 -0.0837 -0.1039 -0.0143
 4060TIP3    H133739   6.112   4.653   2.554 -1.6947 -0.7865  0.2844
 4060TIP3    H233740   6.016   4.716   2.652  0.2517  1.0916  1.0871
 4061TIP3   OH233741   2.201   5.397   8.510  0.5346  0.5089 -0.3618
 4061TIP3    H133742   2.200   5.389   8.415 -0.4415  1.0755 -0.4198
 4061TIP3    H233743   2.259   5.471   8.527  0.9778  0.1959 -0.4887
 4062TIP3   OH233744   0.549   4.298   7.937  0.4950  0.1904  0.0426
 4062TIP3    H133745   0.542   4.206   7.963 -1.3768  0.3478  0.1654
 4062TIP3    H233746   0.550   4.346   8.020  0.0263  0.3730 -0.0601
 4063TIP3   OH233747   0.518   1.061   6.818 -0.0419  0.0802 -0.2550
 4063TIP3    H133748   0.476   1.087   6.736 -2.1508  1.8174  1.2741
 4063TIP3    H233749   0.461   0.993   6.853 -0.0645  0.4926  0.5184
 4064TIP3   OH233750   5.411   4.997   1.607  0.3605 -0.0167 -0.3734
 4064TIP3    H133751   5.474   4.985   1.678 -0.0475 -1.2366 -0.1955
 4064TIP3    H233752   5.328   5.012   1.651  0.2153 -0.1604 -0.5978
 4065TIP3   OH233753   0.551   3.981   8.331 -0.3432  0.2498 -0.4368
 4065TIP3    H133754   0.512   4.066   8.312 -0.8882  0.0548 -0.2061
 4065TIP3    H233755   0.477   3.920   8.332 -0.0611 -0.0909  0.2042
 4066TIP3   OH233756   3.128   6.841   8.561 -0.1830  0.0329 -0.0999
 4066TIP3    H133757   3.087   6.912   8.611 -0.3807  2.5564 -3.5458
 4066TIP3    H233758   3.209   6.879   8.527 -0.1733 -1.4439 -1.8883
 4067TIP3   OH233759   4.966   0.032   2.618  0.4808  0.3354 -0.5349
 4067TIP3    H133760   5.015   0.112   2.605 -0.4162  1.0272  0.1893
 4067TIP3    H233761   5.011  -0.012   2.691 -1.6067  2.4349  2.2549
 4068TIP3   OH233762   1.154   1.778   0.949  0.1291  0.1817  0.1014
 4068TIP3    H133763   1.247   1.780   0.926 -0.3211  0.2419 -1.8674
 4068TIP3    H233764   1.115   1.719   0.885 -1.4655  1.4771 -0.1699
 4069TIP3   OH233765   4.199   2.729   8.112  0.0118 -0.1443  1.0409
 4069TIP3    H133766   4.179   2.677   8.034  0.9096 -2.2402  2.1162
 4069TIP3    H233767   4.293   2.744   8.107  0.0480 -0.1587  1.6324
 4070TIP3   OH233768   4.317   4.441   0.316  0.1192 -0.4088  0.2187
 4070TIP3    H133769   4.398   4.396   0.293  0.9397 -0.2992  2.6193
 4070TIP3    H233770   4.291   4.487   0.236  3.1438  0.5909 -0.3143
 4071TIP3   OH233771   1.496   5.989   7.552 -1.1052 -0.5198  0.6613
 4071TIP3    H133772   1.403   5.987   7.529 -0.9937  1.8012 -0.2968
 4071TIP3    H233773   1.501   6.049   7.626 -0.2192  1.0218 -0.5680
 4072TIP3   OH233774   0.444   1.340   8.121 -0.0373  0.4797 -0.2427
 4072TIP3    H133775   0.462   1.382   8.205  1.9459 -0.6567 -0.0425
 4072TIP3    H233776   0.503   1.383   8.059 -0.2351  0.1295 -0.6838
 4073TIP3   OH233777   1.769   3.246   0.846  0.3353 -0.4664 -0.6640
 4073TIP3    H133778   1.738   3.330   0.880  2.5127 -0.1722  0.7736
 4073TIP3    H233779   1.863   3.259   0.833  0.4628 -2.2420 -1.8411
 4074TIP3   OH233780   6.024   4.698   7.683  0.2716 -0.1038  0.1453
 4074TIP3    H133781   6.074   4.624   7.649 -0.6231  0.0256 -1.5882
 4074TIP3    H233782   5.938   4.688   7.642 -0.6155  0.5825  1.7668
 4075TIP3   OH233783   2.957   3.754   0.627 -0.4057 -0.1038 -0.3558
 4075TIP3    H133784   3.015   3.765   0.702 -0.0734  0.0730 -0.6332
 4075TIP3    H233785   3.010   3.780   0.552 -0.4675 -1.0528 -0.7451
 4076TIP3   OH233786   0.527   5.298   7.463  0.1512 -0.2863  0.4279
 4076TIP3    H133787   0.487   5.211   7.463  0.4288 -0.4493 -0.9554
 4076TIP3    H233788   0.527   5.324   7.371 -0.3054  1.3694  0.8590
 4077TIP3   OH233789   5.821   4.757   0.338 -0.0197  0.4065 -0.7876
 4077TIP3    H133790   5.733   4.722   0.348 -0.1773  0.8390 -0.6646
 4077TIP3    H233791   5.847   4.783   0.426  1.0654 -1.6630 -0.4137
 4078TIP3   OH233792   1.533   2.533   0.374 -0.3809  0.2079 -0.3054
 4078TIP3    H133793   1.511   2.469   0.442  1.6449  0.3150  0.5090
 4078TIP3    H233794   1.458   2.591   0.370 -1.0170 -0.4825  1.0306
 4079TIP3   OH233795   1.970   3.029   2.072  0.2864  0.2051 -0.3660
 4079TIP3    H133796   1.993   3.079   2.150  0.2523  0.2567 -0.3886
 4079TIP3    H233797   1.896   3.077   2.034 -0.3741 -0.3972  0.1408
 4080TIP3   OH233798   2.136   4.996   0.952  0.4345  0.8517  0.1906
 4080TIP3    H133799   2.216   5.013   1.002  0.7349  0.3734 -0.1268
 4080TIP3    H233800   2.166   4.956   0.871 -0.1343  0.6337  0.0854
 4081TIP3   OH233801   4.222   1.186   1.390  0.1841  0.4168 -0.0613
 4081TIP3    H133802   4.267   1.135   1.322 -3.1352 -1.5523 -1.0377
 4081TIP3    H233803   4.154   1.127   1.423 -0.5629  2.5377  2.5487
 4082TIP3   OH233804   6.159   3.608   7.715  0.0281  0.4152  0.2556
 4082TIP3    H133805   6.194   3.601   7.626  2.8981 -1.0542  1.3474
 4082TIP3    H233806   6.130   3.519   7.736  0.4098  0.4869  1.1300
 4083TIP3   OH233807   4.379   5.548   8.566  0.0570  0.1649  0.7208
 4083TIP3    H133808   4.379   5.602   8.645  0.5026  0.6024  0.4321
 4083TIP3    H233809   4.312   5.482   8.581 -0.4117  0.7304  1.1394
 4084TIP3   OH233810   2.835   1.081   7.517  0.1414  0.3033 -0.7228
 4084TIP3    H133811   2.826   1.049   7.427 -0.2586 -1.1745 -0.1770
 4084TIP3    H233812   2.752   1.060   7.559  0.6036  0.2798  0.2099
 4085TIP3   OH233813   6.405   2.737   3.173  0.3303 -0.0799  0.1111
 4085TIP3    H133814   6.454   2.667   3.130  1.1084  0.2385  0.4570
 4085TIP3    H233815   6.464   2.812   3.169  1.4500 -0.5728  3.6963
 4086TIP3   OH233816   0.129   0.007   0.982 -0.1954 -0.0058 -0.4052
 4086TIP3    H133817   0.043   0.050   0.987 -0.1938 -0.1139  1.3972
 4086TIP3    H233818   0.163   0.012   1.072  0.6882 -1.9679 -0.5752
 4087TIP3   OH233819   2.751   6.724   1.249  0.0499 -0.0060 -0.3880
 4087TIP3    H133820   2.753   6.717   1.154 -1.0378 -0.4596 -0.3901
 4087TIP3    H233821   2.737   6.818   1.266 -3.3781 -0.2868 -0.8085
 4088TIP3   OH233822   6.334   4.046   0.560 -0.3466 -0.4151  0.0800
 4088TIP3    H133823   6.384   4.096   0.495  1.0657 -1.4169  0.3317
 4088TIP3    H233824   6.309   3.966   0.514 -3.0442  0.6419 -0.4876
 4089TIP3   OH233825   5.399   1.566   0.156  0.3064  0.1527  0.1435
 4089TIP3    H133826   5.369   1.500   0.219  0.1523  0.6085  0.5496
 4089TIP3    H233827   5.471   1.611   0.201  3.1417 -2.2932 -1.5544
 4090TIP3   OH233828   4.579   3.558   0.911 -0.0231 -0.2933 -0.0809
 4090TIP3    H133829   4.567   3.465   0.894 -1.0879  0.2926 -3.2177
 4090TIP3    H233830   4.667   3.577   0.880 -0.8587  0.2039 -2.3494
 4091TIP3   OH233831   0.837   1.887   8.353 -0.2963 -0.3185 -0.3265
 4091TIP3    H133832   0.871   1.938   8.280 -1.9452  3.0981  1.0652
 4091TIP3    H233833   0.914   1.851   8.396  0.8055 -0.9013 -2.6154
 4092TIP3   OH233834   1.620   2.885   2.951  0.5477 -0.5549 -0.6786
 4092TIP3    H133835   1.613   2.967   3.000  0.3587  0.1798 -1.9175
 4092TIP3    H233836   1.676   2.905   2.877  0.5501 -1.5633 -0.9699
 4093TIP3   OH233837   1.820   6.263   1.804  0.5606 -0.6502  0.6704
 4093TIP3    H133838   1.799   6.342   1.854 -0.6854 -0.7213  0.2854
 4093TIP3    H233839   1.883   6.292   1.738  2.5895 -0.6396  2.5028
 4094TIP3   OH233840   1.755   0.759   2.036 -0.0021 -0.6131 -0.3771
 4094TIP3    H133841   1.742   0.853   2.041 -0.0158 -0.6384  0.1468
 4094TIP3    H233842   1.733   0.727   2.123  2.3120 -0.8061  0.1972
 4095TIP3   OH233843   1.422   5.028   8.413  0.3709 -0.2500 -0.0914
 4095TIP3    H133844   1.454   5.117   8.405 -0.0442 -0.1375 -0.5437
 4095TIP3    H233845   1.461   4.981   8.340  1.3914 -0.6934  0.7120
 4096TIP3   OH233846   4.800   3.327   8.018 -0.8211  0.1858  1.1258
 4096TIP3    H133847   4.768   3.414   7.992  0.4414  1.5593  3.6619
 4096TIP3    H233848   4.895   3.332   8.003 -0.6567 -0.4861  1.8709
 4097TIP3   OH233849   1.556   6.119   1.811  0.0763  0.0186  0.1542
 4097TIP3    H133850   1.628   6.181   1.796 -0.3361  0.2960 -0.7755
 4097TIP3    H233851   1.588   6.061   1.879  0.6441  0.9877  0.7333
 4098TIP3   OH233852   1.950   5.256   8.288  0.4597 -0.4893  1.0826
 4098TIP3    H133853   2.037   5.264   8.250  0.3621  0.2014  1.0011
 4098TIP3    H233854   1.892   5.240   8.213  0.5298 -1.0857  1.1502
 4099TIP3   OH233855   2.928   0.420   1.035  0.2750  0.5480 -0.3109
 4099TIP3    H133856   2.969   0.370   0.965 -0.9963  0.3806 -0.9634
 4099TIP3    H233857   2.955   0.375   1.115  1.9211  0.8721 -0.6454
 4100TIP3   OH233858   6.209   6.054   8.517 -0.3492  0.2873 -0.2258
 4100TIP3    H133859   6.272   6.043   8.446  0.4007  3.0328 -0.0958
 4100TIP3    H233860   6.240   5.994   8.586 -0.6050 -1.7897 -1.8124
 4101TIP3   OH233861   0.098   4.798   8.076  0.1265  0.0860  0.3847
 4101TIP3    H133862   0.159   4.870   8.068 -0.8020  0.9920  1.1517
 4101TIP3    H233863   0.012   4.840   8.086 -0.5274 -1.1268  0.0977
 4102TIP3   OH233864   6.259   1.802   7.778 -0.3351 -0.2880 -0.2935
 4102TIP3    H133865   6.351   1.780   7.787 -0.0603 -0.3522 -2.4955
 4102TIP3    H233866   6.259   1.886   7.731 -1.3982  0.1302  0.4099
 4103TIP3   OH233867   3.382   2.602   7.633 -0.2630  0.0284 -0.0464
 4103TIP3    H133868   3.392   2.508   7.648 -1.3062 -0.0163  0.3866
 4103TIP3    H233869   3.301   2.626   7.677  1.3215  1.6807  2.2077
 4104TIP3   OH233870   0.287   4.593   8.212  0.0959  0.5598 -0.1227
 4104TIP3    H133871   0.231   4.627   8.142 -0.7867 -0.3332  0.1214
 4104TIP3    H233872   0.269   4.651   8.287 -1.9347 -0.7654  0.5057
 4105TIP3   OH233873   3.285   4.548   2.164  0.0182 -0.3355 -0.3084
 4105TIP3    H133874   3.233   4.569   2.087  0.9827  0.0443 -0.8816
 4105TIP3    H233875   3.350   4.485   2.132  1.3904  0.9556 -0.2109
 4106TIP3   OH233876   0.702   2.778   2.298  0.6731 -0.3731 -0.0596
 4106TIP3    H133877   0.772   2.743   2.353  1.6588  0.5306 -0.7036
 4106TIP3    H233878   0.621   2.759   2.347  1.4728 -0.0726  1.4386
 4107TIP3   OH233879   5.907   6.632   1.149 -0.5972 -0.1271  0.3006
 4107TIP3    H133880   5.849   6.616   1.075 -0.3432 -0.6148  0.2019
 4107TIP3    H233881   5.915   6.728   1.153 -0.4284 -0.1032 -0.4478
 4108TIP3   OH233882   6.308   6.297   1.153  0.1191 -0.0432  0.4320
 4108TIP3    H133883   6.331   6.240   1.079 -0.8335  1.9252 -1.4956
 4108TIP3    H233884   6.391   6.335   1.180  0.3697 -0.0103 -0.3431
 4109TIP3   OH233885   3.852   5.804   8.698 -0.3949  0.1905 -0.0995
 4109TIP3    H133886   3.842   5.796   8.603 -1.0234 -2.4749  0.1076
 4109TIP3    H233887   3.809   5.887   8.720 -0.0220  0.9731 -2.1503
 4110TIP3   OH233888   4.283   2.034   2.997  0.2813 -0.2550 -0.2036
 4110TIP3    H133889   4.219   1.964   2.988  1.6083 -1.4926 -0.3377
 4110TIP3    H233890   4.280   2.057   3.090  0.1463 -0.7981 -0.0710
 4111TIP3   OH233891   1.709   1.048   0.699  0.3468 -0.1974 -0.6383
 4111TIP3    H133892   1.682   1.038   0.790  0.4445  0.7747 -0.4941
 4111TIP3    H233893   1.641   1.101   0.658  1.5258  1.5236 -0.4862
 4112TIP3   OH233894   0.166   5.173   8.701 -0.2394 -0.9879  0.3436
 4112TIP3    H133895   0.104   5.128   8.758  1.0897 -0.0037  2.7119
 4112TIP3    H233896   0.203   5.242   8.756  1.1846 -0.0130 -1.7273
 4113TIP3   OH233897   3.749   0.594   7.705 -0.2409  0.0395  0.3360
 4113TIP3    H133898   3.755   0.644   7.786  0.4361 -0.1690  0.4190
 4113TIP3    H233899   3.791   0.510   7.726  0.7377  0.3091 -0.4757
 4114TIP3   OH233900   4.451   3.779   6.797 -0.1952  0.2969  0.2856
 4114TIP3    H133901   4.511   3.745   6.863  1.2160 -0.0693 -1.1142
 4114TIP3    H233902   4.456   3.874   6.805 -0.1720  0.2500  0.8149
 4115TIP3   OH233903   1.581   2.634   0.690  0.6478 -0.6659  0.3050
 4115TIP3    H133904   1.580   2.706   0.627  0.2045  0.3844  1.4687
 4115TIP3    H233905   1.673   2.612   0.701  0.7086 -1.2767 -1.1166
 4116TIP3   OH233906   1.704   3.520   2.876  0.4167  0.1418  0.1169
 4116TIP3    H133907   1.676   3.582   2.943  2.2868  0.0085  1.1156
 4116TIP3    H233908   1.703   3.435   2.921  0.4520 -0.1476 -0.4184
 4117TIP3   OH233909   1.890   0.602   7.559  0.4865  0.1834  0.3981
 4117TIP3    H133910   1.834   0.587   7.635 -1.4435  2.3013 -0.4717
 4117TIP3    H233911   1.914   0.695   7.566 -0.0153  0.5162 -1.7017
 4118TIP3   OH233912   2.029   2.747   7.957 -0.4492  0.9494 -0.2043
 4118TIP3    H133913   1.939   2.716   7.962 -1.0606  2.0005 -3.0136
 4118TIP3    H233914   2.023   2.832   7.913  1.9866  0.4907 -1.6074
 4119TIP3   OH233915   2.308   6.391   8.060 -0.0201 -0.4712  0.3495
 4119TIP3    H133916   2.222   6.372   8.021  0.1185  0.6714 -0.5629
 4119TIP3    H233917   2.289   6.404   8.153 -0.4637 -2.5380  0.5829
 4120TIP3   OH233918   2.971   3.924   8.159  0.1807  0.6310 -0.1277
 4120TIP3    H133919   2.942   3.835   8.141  0.5143  0.6557 -0.8222
 4120TIP3    H233920   2.896   3.979   8.135 -0.1620  0.5193  0.6629
 4121TIP3   OH233921   2.463   6.222   7.099  0.0144  0.0024  0.0166
 4121TIP3    H133922   2.395   6.183   7.044 -1.3963  0.3017  1.4412
 4121TIP3    H233923   2.542   6.174   7.078 -0.9330 -1.2807 -0.7638
 4122TIP3   OH233924   2.145   3.491   8.054 -0.3402 -0.4496 -0.0320
 4122TIP3    H133925   2.196   3.565   8.089  0.8384 -1.2406 -0.0445
 4122TIP3    H233926   2.184   3.472   7.969  0.5443 -2.2104  0.7217
 4123TIP3   OH233927   6.357   5.503   8.606  0.5959  0.1120 -0.6945
 4123TIP3    H133928   6.332   5.593   8.584 -0.2240 -0.0950 -0.6364
 4123TIP3    H233929   6.445   5.493   8.570  0.7424  0.9747 -0.5975
 4124TIP3   OH233930   3.902   1.795   2.058  0.0223  0.3986 -0.3698
 4124TIP3    H133931   3.885   1.833   2.145 -0.9140  0.3145 -0.5083
 4124TIP3    H233932   3.815   1.784   2.019  0.3803 -0.3994 -0.9678
 4125TIP3   OH233933   6.565   6.027   1.408  0.5555 -0.1336  0.1734
 4125TIP3    H133934   6.547   6.037   1.315  1.1489  1.7486  0.2265
 4125TIP3    H233935   6.478   6.029   1.449  0.3937  1.0101 -0.1971
 4126TIP3   OH233936   2.409   4.426   0.767  0.1979  0.2705  0.2211
 4126TIP3    H133937   2.479   4.369   0.799  1.1641  0.3138 -1.6551
 4126TIP3    H233938   2.454   4.506   0.740 -0.3278 -0.2120 -2.2859
 4127TIP3   OH233939   2.869   4.656   0.740  0.4376 -0.0691 -0.2631
 4127TIP3    H133940   2.933   4.609   0.794 -0.9795  0.6745  2.2399
 4127TIP3    H233941   2.875   4.747   0.770 -1.0891  0.1872 -0.6583
 4128TIP3   OH233942   3.655   1.476   0.130 -0.4583 -0.3707 -0.4570
 4128TIP3    H133943   3.574   1.467   0.181 -0.8869  0.9859 -0.8382
 4128TIP3    H233944   3.725   1.469   0.194 -0.8967 -0.9295 -0.0262
 4129TIP3   OH233945   5.337   6.252   7.529 -0.4258 -0.0892 -0.5325
 4129TIP3    H133946   5.381   6.225   7.449  0.2644 -0.1077 -0.1573
 4129TIP3    H233947   5.351   6.179   7.590 -1.4085 -0.3183 -0.5560
 4130TIP3   OH233948   3.420   4.197   8.426 -0.1497  0.8015 -0.2298
 4130TIP3    H133949   3.498   4.152   8.393 -0.6025 -0.5402  0.4908
 4130TIP3    H233950   3.348   4.136   8.410 -0.8967  1.5666  0.1166
 4131TIP3   OH233951   0.730   1.678   7.324  0.2503 -0.6148  0.9278
 4131TIP3    H133952   0.821   1.705   7.338  0.6727 -1.9334  0.9081
 4131TIP3    H233953   0.737   1.604   7.263 -0.9739  0.3041 -0.3808
 4132TIP3   OH233954   0.893   4.411   8.556 -0.1934  0.4464  0.2024
 4132TIP3    H133955   0.929   4.490   8.597  1.2878  0.4060 -0.9335
 4132TIP3    H233956   0.841   4.444   8.482  1.5122  0.3476 -1.0808
 4133TIP3   OH233957   6.572   3.017   0.804 -0.0679 -0.0281 -0.1531
 4133TIP3    H133958   6.584   3.070   0.725  0.6954 -0.0686 -0.0708
 4133TIP3    H233959   6.629   2.942   0.792 -1.1192 -0.8394 -0.2509
 4134TIP3   OH233960   6.537   6.444   1.154 -0.8708 -0.1754  0.4219
 4134TIP3    H133961   6.612   6.489   1.193 -0.9477 -0.6107  1.0901
 4134TIP3    H233962   6.483   6.514   1.118  0.3603  0.0887 -1.0052
 4135TIP3   OH233963   6.397   0.983   8.027 -0.3490  0.4948  0.5578
 4135TIP3    H133964   6.389   1.077   8.038  2.1784  0.8178  0.3205
 4135TIP3    H233965   6.428   0.972   7.937 -1.1492 -0.6171  0.3913
 4136TIP3   OH233966   4.716   1.577   8.134 -0.0278  0.0897 -0.3475
 4136TIP3    H133967   4.790   1.519   8.116  0.5352  0.2193  1.3969
 4136TIP3    H233968   4.679   1.544   8.216 -1.0679  0.8617 -0.4903
 4137TIP3   OH233969   6.308   2.336   0.063  0.2882  0.0921 -0.6275
 4137TIP3    H133970   6.346   2.416   0.099 -0.5600  0.7729 -1.2113
 4137TIP3    H233971   6.233   2.317   0.121  1.8037 -1.6170  0.9306
 4138TIP3   OH233972   3.141   5.990   1.897 -0.2451  0.0813 -0.4556
 4138TIP3    H133973   3.047   5.996   1.914 -0.0604  1.8831  0.1124
 4138TIP3    H233974   3.182   6.010   1.982  0.6751 -1.6612 -0.4375
 4139TIP3   OH233975   1.968   5.874   8.519  0.0960 -1.1588  0.0269
 4139TIP3    H133976   2.063   5.881   8.506 -0.2013 -0.0371 -1.9022
 4139TIP3    H233977   1.950   5.780   8.507  1.1161 -1.6402  1.9327
 4140TIP3   OH233978   4.821   5.876   0.126  0.4847  0.1700  0.2076
 4140TIP3    H133979   4.886   5.831   0.073 -0.2581  0.4253 -0.9506
 4140TIP3    H233980   4.816   5.964   0.088  1.1798  0.9435  1.7925
 4141TIP3   OH233981   4.544   5.094   2.378 -0.1296 -0.1498 -0.2696
 4141TIP3    H133982   4.638   5.111   2.376 -0.0737 -0.4901 -1.1304
 4141TIP3    H233983   4.517   5.117   2.467  0.8270 -0.3815  0.0925
 4142TIP3   OH233984   3.805   6.370   7.995  0.0398 -0.0155 -0.0020
 4142TIP3    H133985   3.738   6.317   7.952  1.2073 -0.6205 -1.1270
 4142TIP3    H233986   3.774   6.460   7.986 -2.0417 -0.4237  2.0593
 4143TIP3   OH233987   3.653   4.095   8.324  0.1921  0.0657  0.4366
 4143TIP3    H133988   3.725   4.148   8.357  0.3290  0.7650 -0.9397
 4143TIP3    H233989   3.694   4.016   8.290  0.4107  0.7285 -0.9044
 4144TIP3   OH233990   2.238   5.434   1.763  0.7283 -0.4545 -0.3510
 4144TIP3    H133991   2.166   5.496   1.780  0.6977 -0.6279  0.1516
 4144TIP3    H233992   2.279   5.468   1.683 -2.3207 -2.5127 -3.0553
 4145TIP3   OH233993   0.495   0.041   8.719 -0.0292  0.0332  0.1721
 4145TIP3    H133994   0.507  -0.044   8.761 -0.7745 -0.0349  0.2658
 4145TIP3    H233995   0.402   0.044   8.696  0.1455  0.5062 -0.5273
 4146TIP3   OH233996   4.375   2.956   8.380 -0.0662  0.2217 -0.0928
 4146TIP3    H133997   4.431   2.972   8.304  1.3767 -0.5508  0.7779
 4146TIP3    H233998   4.432   2.970   8.455 -1.8759  2.6159  0.9590
 4147TIP3   OH233999   6.347   4.383   0.527 -0.1508  0.1998  0.0157
 4147TIP3    H134000   6.290   4.340   0.591  1.5719 -1.2850  0.6580
 4147TIP3    H234001   6.322   4.343   0.443 -1.2499  0.8905 -0.0016
 4148TIP3   OH234002   5.725   3.903   7.129 -0.8222 -0.0105 -0.0309
 4148TIP3    H134003   5.737   3.956   7.208 -1.3428 -0.3336  0.2672
 4148TIP3    H234004   5.642   3.933   7.092 -0.0802  0.8741 -1.0358
 4149TIP3   OH234005   2.638   1.711   2.530 -0.7174 -0.1189 -0.0432
 4149TIP3    H134006   2.598   1.625   2.518  0.6576 -0.9005  0.7449
 4149TIP3    H234007   2.718   1.708   2.478 -0.7398  0.7679 -0.1536
 4150TIP3   OH234008   5.282   2.560   7.274 -0.0278  0.1950  0.4770
 4150TIP3    H134009   5.268   2.620   7.347 -0.1931  1.4600 -0.5388
 4150TIP3    H234010   5.377   2.560   7.261  0.3046 -2.0977  2.2992
 4151TIP3   OH234011   4.831   5.287   8.120  0.4983  0.2807 -0.0206
 4151TIP3    H134012   4.771   5.344   8.168 -0.7869 -0.3875 -0.7910
 4151TIP3    H234013   4.823   5.315   8.029 -0.6413 -1.4850 -0.5107
 4152TIP3   OH234014   3.850   1.409   8.317  0.1047 -0.1863  0.0179
 4152TIP3    H134015   3.825   1.373   8.402 -0.3109 -1.3088 -0.5633
 4152TIP3    H234016   3.782   1.474   8.298  1.1245  1.3307  1.2944
 4153TIP3   OH234017   6.418   5.119   8.236 -0.2803 -0.0983  0.3733
 4153TIP3    H134018   6.484   5.181   8.265 -2.0732  2.5563 -0.7654
 4153TIP3    H234019   6.411   5.055   8.307  1.8507  0.8256  1.5020
 4154TIP3   OH234020   3.116   0.985   1.921 -0.7029  0.4931  0.4642
 4154TIP3    H134021   3.179   0.930   1.967 -1.4623 -0.3158  0.5545
 4154TIP3    H234022   3.046   1.001   1.984 -0.4534  1.6417  0.4649
 4155TIP3   OH234023   3.383   6.750   8.279 -0.6011  0.1501 -0.0006
 4155TIP3    H134024   3.320   6.693   8.324 -1.0442  0.5652 -0.0800
 4155TIP3    H234025   3.463   6.699   8.274 -0.7322 -0.1347  0.7131
 4156TIP3   OH234026   2.015   6.591   2.335 -0.3602  0.2457  0.7544
 4156TIP3    H134027   2.000   6.506   2.376  3.3580 -0.7713  0.4378
 4156TIP3    H234028   2.093   6.625   2.380  0.1898  1.9336 -1.3107
 4157TIP3   OH234029   3.158   3.506   2.624  0.5798 -0.0286 -0.2268
 4157TIP3    H134030   3.123   3.438   2.682 -1.0108 -0.6510 -1.8266
 4157TIP3    H234031   3.217   3.460   2.565 -0.0766  0.0486 -0.9599
 4158TIP3   OH234032   2.536   2.572   0.207 -0.2649 -1.0337  0.0491
 4158TIP3    H134033   2.456   2.520   0.217 -0.2901 -1.2114 -1.0217
 4158TIP3    H234034   2.511   2.660   0.236 -0.0893 -1.6744  2.3489
 4159TIP3   OH234035   3.101   2.798   1.238 -0.1337  0.3012 -0.7200
 4159TIP3    H134036   3.073   2.739   1.167 -1.2046  0.1664 -0.2133
 4159TIP3    H234037   3.042   2.873   1.231  0.3625  0.7105 -0.5378
 4160TIP3   OH234038   1.931   6.554   3.269  0.1682  0.1587  0.6520
 4160TIP3    H134039   1.855   6.608   3.289  0.8967  0.5320  2.6796
 4160TIP3    H234040   1.950   6.509   3.352  1.5510 -0.7028 -0.0964
 4161TIP3   OH234041   3.601   6.382   0.226 -0.1041  0.0877  0.2399
 4161TIP3    H134042   3.691   6.414   0.218 -0.1329 -0.1105 -1.2910
 4161TIP3    H234043   3.552   6.435   0.163 -1.4950  1.5757  2.4604
 4162TIP3   OH234044   6.636   2.282   8.132  0.1952  0.2132  0.1370
 4162TIP3    H134045   6.568   2.243   8.076  0.7434 -0.0082 -0.3772
 4162TIP3    H234046   6.692   2.331   8.072  1.0437 -0.3777  0.4249
 4163TIP3   OH234047   4.839   1.127   8.355  0.4530  0.3871 -0.1552
 4163TIP3    H134048   4.909   1.116   8.420  1.9483  0.3134 -1.7051
 4163TIP3    H234049   4.859   1.062   8.287 -0.4765  1.1394 -1.1742
 4164TIP3   OH234050   6.084   2.706   1.049 -0.6124  0.2197 -0.2279
 4164TIP3    H134051   6.088   2.696   0.954  2.4169  2.2454 -0.4570
 4164TIP3    H234052   6.022   2.778   1.063 -0.6718  0.2654 -0.7099
 4165TIP3   OH234053   0.413   4.267   2.532  0.0492  0.7784  0.0639
 4165TIP3    H134054   0.384   4.357   2.519  1.8671  1.3838 -0.1036
 4165TIP3    H234055   0.489   4.275   2.589  0.2337 -0.6605  0.0414
 4166TIP3   OH234056   5.270   1.973   0.524  0.6989  0.0739 -0.0538
 4166TIP3    H134057   5.211   1.974   0.449 -0.8314  1.4759  1.0963
 4166TIP3    H234058   5.222   1.925   0.592  0.4926  1.8161  1.1204
 4167TIP3   OH234059   5.218   2.049   2.176  0.4437  0.5707  0.0858
 4167TIP3    H134060   5.255   1.982   2.118  0.3480  0.4383  0.1777
 4167TIP3    H234061   5.160   2.100   2.120 -1.2429 -0.8143  0.5034
 4168TIP3   OH234062   3.596   1.119   7.200 -0.0017 -0.7119  0.1777
 4168TIP3    H134063   3.632   1.194   7.153  4.1765 -1.6545  1.4763
 4168TIP3    H234064   3.565   1.156   7.283 -1.1889 -0.0263 -0.5318
 4169TIP3   OH234065   1.456   1.516   8.056  0.4031 -0.2511 -0.2547
 4169TIP3    H134066   1.429   1.565   7.978 -2.9506 -2.0488 -0.4081
 4169TIP3    H234067   1.447   1.578   8.128 -0.5019  0.3166 -0.8313
 4170TIP3   OH234068   0.590   4.004   7.691  0.0945  0.1790  0.1434
 4170TIP3    H134069   0.656   3.991   7.624  0.1998 -0.5150  0.3748
 4170TIP3    H234070   0.630   3.970   7.771 -0.5079 -0.1866  0.2988
 4171TIP3   OH234071   0.326   4.646   7.473 -0.3069 -0.3491  1.1815
 4171TIP3    H134072   0.243   4.688   7.450  0.4099  1.4684  1.7018
 4171TIP3    H234073   0.326   4.564   7.425 -1.9866  0.0514  0.4274
 4172TIP3   OH234074   4.849   1.571   7.627 -0.4722  0.3160  0.4170
 4172TIP3    H134075   4.863   1.652   7.579 -2.3047  0.2123 -0.3975
 4172TIP3    H234076   4.762   1.581   7.666 -0.6464 -1.1796  0.4614
 4173TIP3   OH234077   5.422   1.209   2.253  0.0966  0.2739  0.5448
 4173TIP3    H134078   5.414   1.304   2.267  1.7376  0.7090 -1.0694
 4173TIP3    H234079   5.468   1.178   2.331  0.8225  1.0651  0.4470
 4174TIP3   OH234080   5.805   3.504   0.151 -0.5656 -0.1154  0.3201
 4174TIP3    H134081   5.771   3.531   0.066 -0.2985  0.8058  0.4994
 4174TIP3    H234082   5.898   3.484   0.134 -0.4045  0.4869  0.4774
 4175TIP3   OH234083   3.174   4.268   0.649 -0.3331 -0.1113 -0.4725
 4175TIP3    H134084   3.227   4.347   0.635  0.9826 -0.3157  2.5758
 4175TIP3    H234085   3.093   4.300   0.688  0.8071 -0.2227  2.2161
 4176TIP3   OH234086   3.345   0.835   7.286  0.4457 -0.3922  0.0022
 4176TIP3    H134087   3.333   0.874   7.199 -0.8770 -0.0082  0.3310
 4176TIP3    H234088   3.420   0.775   7.276 -0.8547 -1.8225 -1.9102
 4177TIP3   OH234089   6.293   3.035   8.516  0.3597 -0.6193  0.1850
 4177TIP3    H134090   6.263   3.121   8.487  2.3498  0.5265  1.3437
 4177TIP3    H234091   6.223   3.003   8.574  0.4106  1.0579  1.2271
 4178TIP3   OH234092   4.154   0.516   1.690 -0.2292  0.0913  0.0074
 4178TIP3    H134093   4.142   0.532   1.596 -0.6178 -0.7166 -0.0890
 4178TIP3    H234094   4.220   0.447   1.695 -0.2933  0.0516  0.3284
 4179TIP3   OH234095   4.331   6.273   2.288  0.1969 -0.5619  0.2066
 4179TIP3    H134096   4.330   6.335   2.361 -0.4677  0.2365 -0.4644
 4179TIP3    H234097   4.277   6.200   2.318  0.8999 -0.7924  0.9629
 4180TIP3   OH234098   1.717   2.297   8.698 -0.2919 -0.4196 -0.4708
 4180TIP3    H134099   1.732   2.390   8.684 -0.6578 -0.3175 -0.2173
 4180TIP3    H234100   1.691   2.263   8.612 -0.8777 -0.1359 -0.4143
 4181TIP3   OH234101   4.900   1.831   8.690 -0.2442 -0.1138  0.2582
 4181TIP3    H134102   4.851   1.810   8.611 -1.4639 -0.8435  1.1671
 4181TIP3    H234103   4.834   1.861   8.752  0.6916  0.5290  0.9824
 4182TIP3   OH234104   5.624   1.656   7.000 -0.5885 -0.1729  0.5728
 4182TIP3    H134105   5.687   1.655   7.073 -0.5378  2.3942  0.6878
 4182TIP3    H234106   5.541   1.679   7.042 -0.6521  0.8533 -0.0691
 4183TIP3   OH234107   2.965   5.931   1.559  0.2405 -0.2735 -0.2440
 4183TIP3    H134108   3.024   6.002   1.585  2.2904 -2.1061  0.4200
 4183TIP3    H234109   2.952   5.944   1.465 -1.3874  2.2743  0.2315
 4184TIP3   OH234110   4.707   1.543   0.885 -0.1410 -0.3891  0.1549
 4184TIP3    H134111   4.733   1.628   0.851  0.2723  0.1522  1.7890
 4184TIP3    H234112   4.621   1.558   0.923 -0.7624 -1.0797 -0.9205
 4185TIP3   OH234113   2.427   6.692   7.339 -0.1816 -0.0067 -0.0677
 4185TIP3    H134114   2.348   6.669   7.389  0.3428 -0.7180  0.4528
 4185TIP3    H234115   2.437   6.619   7.277  1.1766 -0.9704  1.2140
 4186TIP3   OH234116   5.772   3.134   0.446 -0.2784 -0.2314 -0.0517
 4186TIP3    H134117   5.763   3.135   0.541  0.7103  0.3471  0.0608
 4186TIP3    H234118   5.723   3.211   0.417  1.1100  0.8138  0.2142
 4187TIP3   OH234119   1.038   6.647   1.002  0.4918 -0.0826 -0.1166
 4187TIP3    H134120   0.951   6.616   0.977  0.9802 -0.3663 -1.5567
 4187TIP3    H234121   1.025   6.689   1.087 -0.9286 -0.6759 -0.0121
 4188TIP3   OH234122   1.128   5.994   2.710  0.1773  0.5839 -0.1346
 4188TIP3    H134123   1.079   6.017   2.789  0.0269 -0.7847  0.2012
 4188TIP3    H234124   1.150   6.078   2.670 -1.1199  1.2595  0.5155
 4189TIP3   OH234125   3.935   2.577   2.251  0.2733 -0.0274 -0.2995
 4189TIP3    H134126   3.900   2.514   2.315  0.4006  0.3448  0.1441
 4189TIP3    H234127   4.030   2.565   2.255  0.2265 -1.1313 -1.6040
 4190TIP3   OH234128   5.530   4.510   1.286 -0.1351 -0.9128  0.2716
 4190TIP3    H134129   5.557   4.577   1.222  1.0384  0.7915  2.4154
 4190TIP3    H234130   5.537   4.427   1.238  1.8089  0.1590 -1.4697
 4191TIP3   OH234131   0.064   3.543   0.244 -0.5328 -0.2269 -0.1742
 4191TIP3    H134132  -0.019   3.589   0.252 -0.0149  0.6406  0.3127
 4191TIP3    H234133   0.123   3.589   0.304  0.4064 -0.5922 -0.7974
 4192TIP3   OH234134   0.123   3.128   8.429  0.2109 -0.4976  0.3812
 4192TIP3    H134135   0.050   3.154   8.374  0.4067  0.3092  0.4891
 4192TIP3    H234136   0.161   3.052   8.385 -1.2847 -1.5574  0.8408
 4193TIP3   OH234137   3.289   4.669   7.951 -0.0656 -0.0839 -0.4204
 4193TIP3    H134138   3.307   4.588   7.902 -0.4547  0.0216 -0.7451
 4193TIP3    H234139   3.204   4.653   7.993  0.6316 -0.4810  0.8851
 4194TIP3   OH234140   4.313   5.469   8.294  0.6196  0.5684  0.0109
 4194TIP3    H134141   4.369   5.391   8.289  0.4949  0.3733  1.3320
 4194TIP3    H234142   4.342   5.514   8.373  1.2537  2.3362 -1.1718
 4195TIP3   OH234143   3.884   6.653   2.641 -0.7281 -0.3380  0.1494
 4195TIP3    H134144   3.804   6.684   2.683 -0.8680 -1.6952  0.9171
 4195TIP3    H234145   3.941   6.730   2.640 -0.6939 -0.2166  2.9008
 4196TIP3   OH234146   2.962   4.542   1.663  0.5075 -0.9362  0.2755
 4196TIP3    H134147   2.924   4.546   1.751 -0.6978 -0.9238 -0.2249
 4196TIP3    H234148   2.945   4.453   1.634  1.6776 -1.2064  0.3650
 4197TIP3   OH234149   0.442   6.455   2.742  0.4359 -0.6726  0.1586
 4197TIP3    H134150   0.506   6.412   2.686  0.6553 -0.4156  0.2092
 4197TIP3    H234151   0.369   6.394   2.747  0.0256 -0.3261 -1.1472
 4198TIP3   OH234152   0.537   6.433   2.105 -0.1976  0.0156 -0.0689
 4198TIP3    H134153   0.587   6.366   2.151 -1.7835  0.0283  1.8240
 4198TIP3    H234154   0.446   6.415   2.127 -0.7003  2.8109  0.5890
 4199TIP3   OH234155   4.665   1.453   8.439 -0.3943  0.3525 -0.4246
 4199TIP3    H134156   4.581   1.420   8.470  0.2352 -2.2190 -1.2211
 4199TIP3    H234157   4.710   1.483   8.519 -1.2361 -0.2077  0.2791
 4200TIP3   OH234158   0.002   2.791   8.235  0.2293 -0.0997 -0.3314
 4200TIP3    H134159   0.071   2.857   8.249  2.8343 -2.9167  1.3378
 4200TIP3    H234160  -0.015   2.755   8.322 -3.6196  0.5094 -0.6421
 4201TIP3   OH234161   3.470   6.413   2.771 -0.2444 -0.2098 -0.1601
 4201TIP3    H134162   3.514   6.355   2.833 -1.0730  0.1465  0.7873
 4201TIP3    H234163   3.511   6.394   2.687  1.1856 -0.4202  0.5572
 4202TIP3   OH234164   6.095   4.955   0.909  0.0900  0.0130  0.1573
 4202TIP3    H134165   6.186   4.927   0.921  0.0715  0.6031  1.9649
 4202TIP3    H234166   6.101   5.030   0.850  0.7288 -0.1132  0.0447
 4203TIP3   OH234167   1.401   5.795   2.700 -0.0225 -0.2589  0.2516
 4203TIP3    H134168   1.373   5.721   2.645 -0.0199  0.3468 -0.5919
 4203TIP3    H234169   1.363   5.872   2.657  2.4661  0.5613 -0.6730
 4204TIP3   OH234170   5.717   2.939   8.331 -0.3159  0.1732 -0.0222
 4204TIP3    H134171   5.636   2.923   8.380  0.3202 -0.5519  0.8252
 4204TIP3    H234172   5.688   2.959   8.243 -1.3816 -1.3231 -0.0423
 4205TIP3   OH234173   0.104   2.327   0.750  0.6859  0.2046  0.0242
 4205TIP3    H134174   0.111   2.231   0.750  2.0199  0.2931  0.2246
 4205TIP3    H234175   0.022   2.344   0.703 -0.3397 -1.0729  1.2638
 4206TIP3   OH234176   4.351   4.984   1.139 -0.4647 -0.7920  0.5374
 4206TIP3    H134177   4.424   4.946   1.188  1.1802 -1.0170 -1.9220
 4206TIP3    H234178   4.327   4.916   1.076 -1.4678  0.0437 -0.0180
 4207TIP3   OH234179   5.187   6.103   8.482  0.3508 -0.4299 -0.1777
 4207TIP3    H134180   5.196   6.038   8.551 -1.6819 -0.1451  0.4145
 4207TIP3    H234181   5.095   6.098   8.456  0.7180  0.5440 -1.7963
 4208TIP3   OH234182   1.942   3.694   8.532 -0.2403  0.7680 -0.0435
 4208TIP3    H134183   1.962   3.614   8.580  0.0878  0.6210 -0.4173
 4208TIP3    H234184   1.923   3.664   8.443 -2.0477  0.9024  0.2536
 4209TIP3   OH234185   0.557   5.561   0.113  0.2155 -0.2316  0.2335
 4209TIP3    H134186   0.549   5.625   0.184  0.7996  1.0643 -0.8121
 4209TIP3    H234187   0.529   5.609   0.035 -0.3942 -1.6144 -0.4313
 4210TIP3   OH234188   0.991   1.816   2.201  0.2260 -0.3448  0.0775
 4210TIP3    H134189   1.002   1.788   2.292 -0.8708 -2.7236 -0.4480
 4210TIP3    H234190   0.898   1.833   2.191  0.3890  0.2697 -0.5447
 4211TIP3   OH234191   2.784   5.710   0.194  0.5170 -0.2406  0.1933
 4211TIP3    H134192   2.802   5.720   0.100  0.5644 -1.3497  0.0711
 4211TIP3    H234193   2.723   5.781   0.214  2.4407  1.5970 -0.0947
 4212TIP3   OH234194   2.832   1.172   8.407 -0.5205 -0.2415  0.0002
 4212TIP3    H134195   2.923   1.154   8.430 -0.3649 -3.8163 -2.5510
 4212TIP3    H234196   2.784   1.160   8.490  1.0990 -0.5431  0.9458
 4213TIP3   OH234197   5.395   0.735   0.838  0.3234  0.7119 -0.2094
 4213TIP3    H134198   5.416   0.826   0.858 -1.3701  1.2554 -0.7044
 4213TIP3    H234199   5.340   0.740   0.760  0.1574 -0.7415 -0.2141
 4214TIP3   OH234200   0.567   0.778   8.476  0.1843 -0.4305  0.1601
 4214TIP3    H134201   0.530   0.785   8.564 -0.9415 -1.5244 -0.1846
 4214TIP3    H234202   0.625   0.854   8.467 -0.3789  0.1825  1.5094
 4215TIP3   OH234203   0.457   0.728   2.586 -0.4054 -0.0858 -0.6083
 4215TIP3    H134204   0.536   0.780   2.597 -1.0489  0.3294  4.3855
 4215TIP3    H234205   0.484   0.638   2.601 -0.4055 -0.4104 -2.3764
 4216TIP3   OH234206   1.841   0.464   8.202 -0.3286 -0.7365 -0.4721
 4216TIP3    H134207   1.871   0.536   8.146 -0.5766 -0.6107 -0.4441
 4216TIP3    H234208   1.891   0.475   8.283 -1.3713  0.2475  0.0667
 4217TIP3   OH234209   1.764   3.530   1.626 -0.9961 -0.5955  0.0008
 4217TIP3    H134210   1.830   3.588   1.587 -2.0547  0.6666  0.0537
 4217TIP3    H234211   1.722   3.583   1.693  0.3305 -2.4953  2.5314
 4218TIP3   OH234212   2.036   5.541   7.536 -0.1027 -0.4188 -0.1946
 4218TIP3    H134213   1.985   5.489   7.599  0.2142 -0.7020 -0.1660
 4218TIP3    H234214   2.080   5.476   7.481 -1.2032 -0.1796 -1.4040
 4219TIP3   OH234215   6.715   3.888   0.969  0.6908 -0.3444  0.2856
 4219TIP3    H134216   6.662   3.954   1.013  0.2838 -2.3762  3.0413
 4219TIP3    H234217   6.805   3.920   0.979  0.3581  1.2211 -1.1129
 4220TIP3   OH234218   3.567   5.274   7.266  0.3739  0.2380  0.1807
 4220TIP3    H134219   3.543   5.336   7.197 -0.3549  0.7551  0.8771
 4220TIP3    H234220   3.508   5.200   7.254  0.0846  0.4326  0.3881
 4221TIP3   OH234221   2.991   4.873   0.916  0.4046 -0.0101 -0.7229
 4221TIP3    H134222   2.954   4.962   0.911 -0.2320 -0.2547 -0.4192
 4221TIP3    H234223   2.986   4.850   1.009 -0.1023 -0.6423 -0.8991
 4222TIP3   OH234224   3.172   0.371   2.600  0.0160  0.1921 -0.4506
 4222TIP3    H134225   3.110   0.397   2.532  1.8242  0.6554 -1.9859
 4222TIP3    H234226   3.181   0.449   2.655 -1.5525 -0.2268  0.4897
 4223TIP3   OH234227   1.876   4.933   0.926 -0.1906 -0.4952  0.0588
 4223TIP3    H134228   1.966   4.963   0.912  0.1447 -2.1046 -1.6402
 4223TIP3    H234229   1.854   4.887   0.846 -2.0869 -1.2525  0.9680
 4224TIP3   OH234230   2.586   1.209   7.153  0.0969 -0.2674  0.1036
 4224TIP3    H134231   2.616   1.285   7.103  0.2199 -0.9159 -0.8366
 4224TIP3    H234232   2.517   1.242   7.209 -0.4200  0.3842 -0.8904
 4225TIP3   OH234233   5.898   2.936   0.297 -0.1960  0.2292 -0.2483
 4225TIP3    H134234   5.970   2.885   0.334 -1.1633 -0.6459  0.4996
 4225TIP3    H234235   5.879   3.002   0.364  1.0883  1.6909 -1.2348
 4226TIP3   OH234236   2.348   4.448   1.045 -0.5085 -0.4639 -0.1141
 4226TIP3    H134237   2.426   4.407   1.006 -0.9784  1.2742 -3.2258
 4226TIP3    H234238   2.274   4.403   1.004 -1.1038 -0.3629  0.8377
 4227TIP3   OH234239   5.171   5.967   7.054 -0.0069 -0.1325  0.8155
 4227TIP3    H134240   5.133   6.012   6.979 -1.8644 -1.8054  0.6817
 4227TIP3    H234241   5.164   6.031   7.126 -0.1767  0.7181  0.0639
 4228TIP3   OH234242   1.036   1.424   8.135  0.2609 -0.2892 -0.1187
 4228TIP3    H134243   1.089   1.351   8.103  2.3755  1.7549 -1.5756
 4228TIP3    H234244   0.945   1.395   8.121  1.0038 -2.6630 -0.4704
 4229TIP3   OH234245   1.343   0.971   8.294  0.5246 -0.0607 -0.1063
 4229TIP3    H134246   1.359   0.974   8.200  0.3572  1.1869 -0.1112
 4229TIP3    H234247   1.274   0.905   8.304  1.4780 -1.1962 -0.6894
 4230TIP3   OH234248   0.706   5.158   0.378  0.1835  0.0085 -0.0856
 4230TIP3    H134249   0.729   5.237   0.329  0.2477 -0.4505 -0.8102
 4230TIP3    H234250   0.616   5.173   0.407  0.7233  1.0340  1.1971
 4231TIP3   OH234251   6.456   2.281   1.686  0.2363  0.4769 -0.0681
 4231TIP3    H134252   6.424   2.192   1.676  1.4827 -0.2072  1.5826
 4231TIP3    H234253   6.383   2.336   1.656 -1.2600 -1.0571  0.5791
 4232TIP3   OH234254   2.823   2.521   1.620  0.1717  0.5404  0.3846
 4232TIP3    H134255   2.867   2.460   1.561  1.7378  1.9075  0.0963
 4232TIP3    H234256   2.766   2.573   1.563 -0.2489  0.1834  0.4670
 4233TIP3   OH234257   6.102   6.008   7.658  0.1494  0.1096 -0.6707
 4233TIP3    H134258   6.088   5.971   7.572 -0.5987 -0.8899 -0.1353
 4233TIP3    H234259   6.023   5.985   7.708  0.5710  0.6533  0.2819
 4234TIP3   OH234260   4.134   6.366   1.255  0.0332 -0.1697  0.3208
 4234TIP3    H134261   4.108   6.355   1.163 -1.2159  0.2017  0.6117
 4234TIP3    H234262   4.228   6.347   1.255  0.4299  1.4659 -1.3263
 4235TIP3   OH234263   2.152   5.983   0.489 -0.7808 -0.0341  0.4017
 4235TIP3    H134264   2.146   5.888   0.484  1.8767 -0.4442  2.4957
 4235TIP3    H234265   2.114   6.006   0.573  1.4219  0.2745  1.3994
 4236TIP3   OH234266   4.728   0.532   2.044 -0.1514 -0.2705  0.3778
 4236TIP3    H134267   4.717   0.627   2.047 -0.7709 -0.0393 -3.5513
 4236TIP3    H234268   4.653   0.500   1.994  1.0226 -2.5694 -0.0819
 4237TIP3   OH234269   2.198   4.858   0.717  0.1298  0.5998  0.3165
 4237TIP3    H134270   2.243   4.939   0.694 -1.5536  1.0342 -1.7312
 4237TIP3    H234271   2.197   4.808   0.636 -0.0063 -0.9312  1.2337
 4238TIP3   OH234272   1.099   2.916   1.129  0.1883  0.5410 -0.5748
 4238TIP3    H134273   1.040   2.865   1.074  0.6239  0.1776 -0.6995
 4238TIP3    H234274   1.052   2.998   1.143  0.0223  0.5928 -1.3864
 4239TIP3   OH234275   3.504   0.748   1.124  0.3991 -0.1283 -0.0550
 4239TIP3    H134276   3.495   0.801   1.204  1.2994  1.1433 -0.7537
 4239TIP3    H234277   3.528   0.661   1.155 -0.0812  0.1252  1.0849
 4240TIP3   OH234278   1.520   5.470   1.454 -0.4529  0.0235 -0.3288
 4240TIP3    H134279   1.538   5.376   1.460 -1.8977 -0.2144  1.0666
 4240TIP3    H234280   1.604   5.509   1.430  0.8634 -1.3862  1.5992
 4241TIP3   OH234281   4.935   2.406   0.523 -0.4632  0.1635 -0.2046
 4241TIP3    H134282   4.969   2.361   0.446 -2.0985 -0.7048 -0.4599
 4241TIP3    H234283   4.944   2.499   0.502 -0.3361 -0.0580 -1.1823
 4242TIP3   OH234284   4.226   0.620   2.165 -0.3432  0.4203 -0.5079
 4242TIP3    H134285   4.234   0.692   2.227 -1.3187  1.1131 -1.1524
 4242TIP3    H234286   4.134   0.624   2.135 -0.0361 -0.2003 -1.5966
 4243TIP3   OH234287   6.335   1.157   1.596  0.1602  0.0782  0.0998
 4243TIP3    H134288   6.323   1.106   1.676 -1.1503  1.9570  1.1692
 4243TIP3    H234289   6.257   1.136   1.543 -0.1865  0.6496  0.3755
 4244TIP3   OH234290   3.384   5.240   2.505 -0.1635  0.2188  0.0383
 4244TIP3    H134291   3.406   5.260   2.596 -0.0828  1.5783 -0.2530
 4244TIP3    H234292   3.468   5.222   2.463 -0.2620 -1.0909  0.3664
 4245TIP3   OH234293   6.525   4.758   1.330 -0.3306 -0.4604 -0.4352
 4245TIP3    H134294   6.601   4.701   1.319  1.3073  1.4507  0.2200
 4245TIP3    H234295   6.510   4.796   1.244 -0.6940 -1.0215 -0.6187
 4246TIP3   OH234296   1.770   6.782   1.654 -0.1001 -0.8141 -0.3037
 4246TIP3    H134297   1.742   6.873   1.656  0.4345 -0.6599  0.3775
 4246TIP3    H234298   1.702   6.737   1.605 -0.3308 -0.0362 -0.7044
 4247TIP3   OH234299   6.384   2.705   7.938 -0.0921 -0.0946  0.3742
 4247TIP3    H134300   6.304   2.722   7.988  1.1295  1.3888  1.9913
 4247TIP3    H234301   6.418   2.623   7.975 -1.3907 -1.3462 -1.1076
 4248TIP3   OH234302   3.446   3.087   0.590 -0.1120 -0.9447 -0.4143
 4248TIP3    H134303   3.371   3.118   0.640  0.2878  0.4480 -0.6288
 4248TIP3    H234304   3.517   3.081   0.655  0.5443  1.3647 -0.8436
 4249TIP3   OH234305   1.520   0.925   1.778  0.3848  0.3645  0.6921
 4249TIP3    H134306   1.566   0.843   1.761 -0.3419 -0.1021  0.9371
 4249TIP3    H234307   1.455   0.903   1.845 -0.0764  1.0505  0.4801
 4250TIP3   OH234308   4.118   3.635   8.641 -0.0786 -0.4377 -0.4442
 4250TIP3    H134309   4.204   3.609   8.608 -0.1640  0.4429 -1.4141
 4250TIP3    H234310   4.094   3.566   8.702  1.5684 -0.4189  0.2780
 4251TIP3   OH234311   4.457   6.214   2.651  0.5018  0.6612 -0.8671
 4251TIP3    H134312   4.504   6.174   2.724 -0.7307  1.4048  0.3858
 4251TIP3    H234313   4.456   6.146   2.583  0.3739 -0.6174  0.3637
 4252TIP3   OH234314   2.589   3.889   0.425 -0.1061  0.2622  0.5174
 4252TIP3    H134315   2.588   3.794   0.416  2.1380  0.2868 -0.9989
 4252TIP3    H234316   2.512   3.919   0.377  0.2004 -0.7547 -0.6766
 4253TIP3   OH234317   4.546   2.235   1.439 -0.2086 -0.1537  0.4428
 4253TIP3    H134318   4.622   2.293   1.442  0.1543 -0.5596 -0.7958
 4253TIP3    H234319   4.471   2.294   1.445  0.1366  0.5577 -1.6199
 4254TIP3   OH234320   0.911   0.110   0.407  0.4949 -0.2427  0.2558
 4254TIP3    H134321   0.868   0.167   0.343  0.4845 -1.2808 -0.6876
 4254TIP3    H234322   0.924   0.166   0.484 -2.5360  0.1525  0.6129
 4255TIP3   OH234323   6.813   3.788   0.453 -0.1290  0.3200 -0.2425
 4255TIP3    H134324   6.739   3.773   0.395 -1.1912  2.3635  0.4923
 4255TIP3    H234325   6.780   3.765   0.540  0.3404  0.5384 -0.0010
 4256TIP3   OH234326   0.142   1.573   6.841 -0.4131  0.3623 -0.0601
 4256TIP3    H134327   0.124   1.633   6.913 -0.4260  0.9428 -0.5333
 4256TIP3    H234328   0.133   1.486   6.879  0.4972  0.6543  0.8580
 4257TIP3   OH234329   3.812   3.414   8.242  0.1029 -0.7104 -0.1177
 4257TIP3    H134330   3.866   3.350   8.289  1.2413 -0.0928 -0.5494
 4257TIP3    H234331   3.820   3.494   8.294  0.9977 -0.1501 -1.0791
 4258TIP3   OH234332   0.718   6.786   2.079  0.3807  0.1485  0.2832
 4258TIP3    H134333   0.700   6.878   2.101 -0.5616  0.0552 -0.0481
 4258TIP3    H234334   0.647   6.762   2.020  0.8146 -0.7001  0.1032
 4259TIP3   OH234335   0.503   2.254   1.590  0.1677 -0.0160 -0.4002
 4259TIP3    H134336   0.468   2.343   1.598  2.3292  0.9489 -0.9357
 4259TIP3    H234337   0.462   2.219   1.511 -2.8644 -0.6366  1.2872
 4260TIP3   OH234338   2.903   5.500   0.619 -0.1887 -0.5206  0.2409
 4260TIP3    H134339   2.813   5.487   0.590 -0.2931 -0.1654  0.4082
 4260TIP3    H234340   2.913   5.595   0.626  0.1328 -0.5656  0.4253
 4261TIP3   OH234341   4.063   1.426   0.568 -0.0455  0.3048 -0.1950
 4261TIP3    H134342   4.070   1.333   0.589  1.3567  0.2658 -0.7474
 4261TIP3    H234343   4.051   1.469   0.652  0.8222 -0.2567  0.2298
 4262TIP3   OH234344   0.309   6.214   2.729  0.1415  0.2411 -0.1676
 4262TIP3    H134345   0.283   6.131   2.770 -0.8231  1.3294  1.4984
 4262TIP3    H234346   0.233   6.271   2.737  1.4787  2.0013  0.6477
 4263TIP3   OH234347   4.508   3.343   7.636  0.7748  0.1284  0.2956
 4263TIP3    H134348   4.434   3.373   7.582  1.1654 -0.6332 -0.6940
 4263TIP3    H234349   4.583   3.345   7.577  1.0617 -1.5270  0.5473
 4264TIP3   OH234350   5.624   1.792   1.900  0.6122 -0.2341  0.8572
 4264TIP3    H134351   5.576   1.849   1.839  0.5244  1.0789  2.1094
 4264TIP3    H234352   5.593   1.818   1.987  1.4913 -1.3676  1.5368
 4265TIP3   OH234353   5.554   1.488   8.421  0.0480 -0.0528 -0.0791
 4265TIP3    H134354   5.617   1.540   8.471  0.7173  1.1690 -2.0708
 4265TIP3    H234355   5.473   1.539   8.425  0.6236  1.0812 -1.7782
 4266TIP3   OH234356   2.350   4.907   1.978  0.1870 -1.2246 -0.2861
 4266TIP3    H134357   2.367   4.814   1.961  0.4794 -1.0952 -0.7240
 4266TIP3    H234358   2.414   4.931   2.045  0.6876 -1.1311 -0.7906
 4267TIP3   OH234359   5.195   3.518   0.244 -0.0175  0.1731  0.6637
 4267TIP3    H134360   5.125   3.575   0.275 -0.4091  1.0138 -1.5835
 4267TIP3    H234361   5.149   3.445   0.202  0.3772  0.8647 -1.0608
 4268TIP3   OH234362   2.983   1.470   2.659 -0.2612  0.3733 -0.7338
 4268TIP3    H134363   3.069   1.428   2.658 -0.3235  0.2542 -0.9915
 4268TIP3    H234364   2.970   1.496   2.750 -0.1713 -0.0587 -0.5987
 4269TIP3   OH234365   1.923   6.065   8.724 -0.1483 -0.0494  0.1338
 4269TIP3    H134366   1.910   6.026   8.811  3.3526 -0.4938  0.6160
 4269TIP3    H234367   1.946   5.992   8.668  0.2166  0.5548 -0.5233
 4270TIP3   OH234368   4.036   5.329   0.102  0.0514  0.1211 -0.6304
 4270TIP3    H134369   3.977   5.285   0.162  0.4167 -0.4882 -0.7044
 4270TIP3    H234370   3.983   5.396   0.060 -0.9501 -1.2644 -1.6525
 4271TIP3   OH234371   0.935   5.768   1.067 -1.0471  0.0028  0.6482
 4271TIP3    H134372   0.913   5.738   0.978 -1.5760  1.6013  0.2161
 4271TIP3    H234373   0.851   5.773   1.112 -0.7803 -0.7985  1.2619
 4272TIP3   OH234374   6.401   5.619   7.484 -0.0412  0.2283 -0.3997
 4272TIP3    H134375   6.416   5.713   7.485  1.4707  0.0203  0.2909
 4272TIP3    H234376   6.365   5.601   7.398  0.0544  1.3882 -0.7011
 4273TIP3   OH234377   0.280   3.124   1.304 -0.2694  0.3596  0.2035
 4273TIP3    H134378   0.313   3.038   1.331  2.1774  0.6353 -1.5904
 4273TIP3    H234379   0.185   3.116   1.312 -0.0764 -2.2248  0.8938
 4274TIP3   OH234380   0.261   3.024   0.020 -0.0804 -0.7895 -0.1485
 4274TIP3    H134381   0.242   3.030   0.114  4.3666  0.2663  0.9079
 4274TIP3    H234382   0.294   3.111  -0.004  3.4577 -2.2502 -1.3155
 4275TIP3   OH234383   1.357   4.533   2.371  0.1333 -0.0958  0.0610
 4275TIP3    H134384   1.394   4.445   2.367 -0.5962 -0.4192  0.2792
 4275TIP3    H234385   1.270   4.521   2.409 -0.2260  0.6385 -0.5014
 4276TIP3   OH234386   3.913   6.169   2.213 -0.5514  0.6608 -0.0163
 4276TIP3    H134387   3.975   6.217   2.159  1.0901  0.0469  1.2105
 4276TIP3    H234388   3.847   6.233   2.238 -0.6001  1.2665 -1.6001
 4277TIP3   OH234389   6.452   1.589   1.193  0.4856  0.3271  0.3171
 4277TIP3    H134390   6.513   1.541   1.250  0.1725 -0.4241  0.0356
 4277TIP3    H234391   6.371   1.538   1.198 -0.4012  1.7556  1.3479
 4278TIP3   OH234392   4.045   0.819   8.519  0.5980  0.0153 -0.6990
 4278TIP3    H134393   3.965   0.868   8.534  0.5519 -0.4054  0.5108
 4278TIP3    H234394   4.109   0.885   8.490  0.1386  0.5315 -0.5374
 4279TIP3   OH234395   3.331   2.806   0.885  0.4981  0.0261  0.2016
 4279TIP3    H134396   3.258   2.749   0.906  1.3312 -1.6036 -1.1230
 4279TIP3    H234397   3.369   2.769   0.805  2.6250  0.9241  0.7140
 4280TIP3   OH234398   0.981   1.550   2.112 -0.3794 -0.4571 -0.2378
 4280TIP3    H134399   1.021   1.493   2.177 -4.0863 -0.4587  2.3924
 4280TIP3    H234400   1.003   1.639   2.140 -1.0888 -0.4874  0.4532
 4281TIP3   OH234401   0.366   1.338   8.470  0.5530 -0.5448  0.1705
 4281TIP3    H134402   0.333   1.425   8.493  0.6540  0.1369 -2.0956
 4281TIP3    H234403   0.307   1.278   8.516 -2.1287  0.6758 -1.4167
 4282TIP3   OH234404   4.581   0.588   0.475 -0.4464 -0.0810 -0.2353
 4282TIP3    H134405   4.605   0.552   0.560 -0.4262 -0.4869 -0.4136
 4282TIP3    H234406   4.601   0.682   0.482 -0.1947 -0.1623  0.1160
 4283TIP3   OH234407   0.088   3.201   0.860 -0.1497 -0.2991 -0.1986
 4283TIP3    H134408   0.049   3.286   0.841  1.0854  0.3034 -0.1256
 4283TIP3    H234409   0.156   3.219   0.925 -1.1386 -1.6364  1.2523
 4284TIP3   OH234410   1.032   0.355   8.467 -0.8428 -0.1140 -0.1565
 4284TIP3    H134411   1.059   0.265   8.486 -1.7787 -0.2445  0.6743
 4284TIP3    H234412   0.946   0.346   8.426 -0.5713  0.3712 -0.8402
 4285TIP3   OH234413   5.270   2.114   0.074 -0.2081 -0.5491 -0.6223
 4285TIP3    H134414   5.276   2.210   0.071  0.1639 -0.5910 -1.7541
 4285TIP3    H234415   5.359   2.084   0.056 -0.5137 -1.1072 -1.2207
 4286TIP3   OH234416   5.226   5.669   1.218 -0.1007  0.4385  0.6362
 4286TIP3    H134417   5.131   5.664   1.205 -0.2032 -2.8646  1.9261
 4286TIP3    H234418   5.237   5.683   1.312  0.6696 -0.9923  0.7755
 4287TIP3   OH234419   3.743   1.054   8.279 -0.7516 -0.8027  0.3468
 4287TIP3    H134420   3.768   0.966   8.308 -0.8985 -0.7334  0.6918
 4287TIP3    H234421   3.661   1.042   8.232 -0.2871 -0.9765 -0.4389
 4288TIP3   OH234422   5.632   3.626   1.550  0.2011 -0.4156  0.3011
 4288TIP3    H134423   5.582   3.689   1.498  0.0058 -0.6364  0.2193
 4288TIP3    H234424   5.615   3.652   1.641  2.5051  1.4964  0.2642
 4289TIP3   OH234425   1.261   2.830   0.413  0.1659 -0.6089  1.1715
 4289TIP3    H134426   1.310   2.904   0.377 -1.8065  0.9321  1.4572
 4289TIP3    H234427   1.253   2.769   0.340 -0.2509  0.5954  0.1714
 4290TIP3   OH234428   2.430   6.694   3.002  0.0785  0.0803  0.1204
 4290TIP3    H134429   2.375   6.616   3.009  0.2553  0.0813  2.0846
 4290TIP3    H234430   2.371   6.767   3.024  0.9020  0.0289  2.8236
 4291TIP3   OH234431   0.930   6.064   2.243  0.9016 -0.0760  0.1950
 4291TIP3    H134432   0.914   6.016   2.324 -1.6484  0.6669  0.2370
 4291TIP3    H234433   0.986   6.007   2.191 -2.0366 -3.2476  0.1672
 4292TIP3   OH234434   0.135   4.569   7.777 -0.0022 -1.1718  0.2900
 4292TIP3    H134435   0.058   4.608   7.736 -0.4638 -1.5406  0.7948
 4292TIP3    H234436   0.151   4.489   7.726 -0.8273 -1.8509  1.0542
 4293TIP3   OH234437   3.434   3.741   8.685 -0.6012  0.2313 -0.0741
 4293TIP3    H134438   3.351   3.769   8.645 -0.5683 -1.1579 -1.1945
 4293TIP3    H234439   3.497   3.807   8.657 -0.5582 -0.7128 -2.5175
 4294TIP3   OH234440   4.879   6.744   8.127  0.8286  0.2059 -0.4798
 4294TIP3    H134441   4.803   6.690   8.106  0.5485  0.1895  0.5007
 4294TIP3    H234442   4.894   6.727   8.220  1.0302  1.4479 -0.2747
 4295TIP3   OH234443   2.365   2.351   2.549 -0.5935 -0.2780 -0.3198
 4295TIP3    H134444   2.304   2.293   2.596 -0.0787 -0.9852 -0.4993
 4295TIP3    H234445   2.430   2.375   2.615 -1.5340  1.1869  0.0997
 4296TIP3   OH234446   6.065   2.536   1.290 -0.3272  0.4713  0.2795
 4296TIP3    H134447   6.072   2.608   1.227  0.0272  1.5897  1.5568
 4296TIP3    H234448   5.988   2.486   1.261  0.4402  0.3255 -1.6341
 4297TIP3   OH234449   6.159   0.376   3.049 -0.0256 -0.2929  0.2206
 4297TIP3    H134450   6.188   0.370   2.958  0.1909 -1.4998  0.3530
 4297TIP3    H234451   6.205   0.305   3.094 -3.2685 -2.5141  0.4010
 4298TIP3   OH234452   1.396   3.593   2.671  0.0083 -0.6267  0.5711
 4298TIP3    H134453   1.458   3.665   2.663 -0.8069  0.2335  1.6773
 4298TIP3    H234454   1.372   3.591   2.764 -1.1458 -1.3159  0.2889
 4299TIP3   OH234455   4.135   4.749   8.641 -0.8132  0.5845 -0.0668
 4299TIP3    H134456   4.173   4.682   8.584 -0.7267  1.4242 -1.0354
 4299TIP3    H234457   4.149   4.717   8.729 -1.6734 -1.1608 -0.5149
 4300TIP3   OH234458   6.207   3.532   8.357  0.1971  0.0503 -0.1254
 4300TIP3    H134459   6.206   3.520   8.262  0.8746 -0.2316 -0.0967
 4300TIP3    H234460   6.289   3.492   8.386 -0.1061 -0.0578  0.6042
 4301TIP3   OH234461   4.442   5.230   0.169  0.2122 -0.0910  0.1200
 4301TIP3    H134462   4.511   5.270   0.116 -0.0488  0.0345 -0.1269
 4301TIP3    H234463   4.432   5.142   0.132 -2.3173  1.0864 -2.3094
 4302TIP3   OH234464   1.876   3.783   1.801 -0.0699  0.0163  0.0496
 4302TIP3    H134465   1.914   3.748   1.720  0.8190 -1.3535  1.0207
 4302TIP3    H234466   1.831   3.863   1.773  0.3406 -0.3288 -1.7685
 4303TIP3   OH234467   0.382   2.855   1.318  0.1767  0.4014 -0.1228
 4303TIP3    H134468   0.430   2.787   1.365  2.0942  0.3649 -2.0025
 4303TIP3    H234469   0.289   2.834   1.333  0.7092 -0.7457  1.9160
 4304TIP3   OH234470   4.714   5.061   1.483  0.0414  0.1379  0.0174
 4304TIP3    H134471   4.626   5.097   1.474 -0.9840 -1.5926  2.2236
 4304TIP3    H234472   4.700   4.969   1.505  2.4682 -0.6501 -1.3605
 4305TIP3   OH234473   6.822   2.680   8.507 -0.3969 -0.3151  0.0999
 4305TIP3    H134474   6.908   2.665   8.546 -0.8382 -0.1692  1.1600
 4305TIP3    H234475   6.760   2.667   8.579 -1.3189 -1.1150 -0.7985
 4306TIP3   OH234476   4.343   2.429   7.574 -0.5855  0.0517  0.6559
 4306TIP3    H134477   4.329   2.498   7.509  1.2244 -1.5130 -1.5902
 4306TIP3    H234478   4.430   2.447   7.609 -0.4953 -0.5350  0.7459
 4307TIP3   OH234479   4.917   0.198   0.278 -0.1853  0.1774  0.5465
 4307TIP3    H134480   5.011   0.214   0.266  0.0657 -0.5405  1.4738
 4307TIP3    H234481   4.889   0.266   0.339 -0.5050  1.0370 -0.5296
 4308TIP3   OH234482   2.199   6.671   7.923 -0.0613  0.3299 -0.6155
 4308TIP3    H134483   2.188   6.694   8.016  1.7322 -0.7891 -0.0904
 4308TIP3    H234484   2.118   6.626   7.900 -0.3735  0.2772  0.5248
 4309TIP3   OH234485   5.614   2.716   7.641 -0.7572 -0.1244 -0.0736
 4309TIP3    H134486   5.644   2.637   7.688  1.1507  0.9153  0.5568
 4309TIP3    H234487   5.654   2.708   7.554  1.6990  1.3375  0.8156
 4310TIP3   OH234488   0.536   0.318   0.830 -0.7178  0.1025 -0.2464
 4310TIP3    H134489   0.613   0.359   0.868 -1.8474  0.8090  1.3803
 4310TIP3    H234490   0.548   0.224   0.844  0.7699 -0.0023 -1.8737
 4311TIP3   OH234491   6.278   6.475   8.305  1.1001  0.2087 -0.0326
 4311TIP3    H134492   6.317   6.389   8.322  0.9576  0.2295  0.4320
 4311TIP3    H234493   6.265   6.512   8.393 -0.6098 -0.0882 -0.1459
 4312TIP3   OH234494   4.383   4.503   8.584 -0.0709  0.0749 -0.1519
 4312TIP3    H134495   4.430   4.517   8.502 -1.5193  0.2452 -0.9872
 4312TIP3    H234496   4.330   4.424   8.569 -2.0877  1.3787 -0.2368
 4313TIP3   OH234497   1.587   5.016   0.563 -0.8468 -0.2339  0.6689
 4313TIP3    H134498   1.607   4.966   0.483  0.5668  2.3552 -0.7491
 4313TIP3    H234499   1.667   5.009   0.615 -1.1051 -0.4660  1.0326
 4314TIP3   OH234500   6.685   2.489   2.761  0.5378  0.1325 -0.3700
 4314TIP3    H134501   6.616   2.427   2.786 -0.1652  1.0108 -0.0485
 4314TIP3    H234502   6.760   2.435   2.739 -0.3813 -0.8806 -1.1254
 4315TIP3   OH234503   1.163   3.992   1.458  0.1095 -0.1550 -0.0864
 4315TIP3    H134504   1.160   4.037   1.543  2.1294 -0.6312  0.2920
 4315TIP3    H234505   1.116   4.049   1.398  1.4538  1.8509  0.6705
 4316TIP3   OH234506   5.522   1.244   7.531 -0.5774  0.2860  0.4229
 4316TIP3    H134507   5.618   1.245   7.525 -0.4801 -1.9677  0.6132
 4316TIP3    H234508   5.494   1.321   7.481  1.2839  0.3345 -0.6428
 4317TIP3   OH234509   4.312   5.733   2.802  0.9358 -0.0186  0.0621
 4317TIP3    H134510   4.310   5.808   2.743  0.7319 -0.3362 -0.3321
 4317TIP3    H234511   4.233   5.741   2.855  0.5158 -0.3811 -0.5060
 4318TIP3   OH234512   0.280   3.579   0.926 -0.0577 -0.0027  0.5722
 4318TIP3    H134513   0.359   3.574   0.873 -1.5080 -1.6768 -1.6342
 4318TIP3    H234514   0.287   3.504   0.986 -0.2303 -0.5730 -0.0969
 4319TIP3   OH234515   3.788   5.096   2.167  0.0520 -0.1115  0.0585
 4319TIP3    H134516   3.743   5.149   2.101 -0.0910 -1.1338 -0.6892
 4319TIP3    H234517   3.835   5.030   2.117  0.4475 -0.5315  0.9613
 4320TIP3   OH234518   5.436   6.568   8.178  0.4760 -0.1145 -0.3222
 4320TIP3    H134519   5.513   6.624   8.171 -0.7610  1.6647 -0.1880
 4320TIP3    H234520   5.436   6.539   8.269  0.2205  1.0698  0.0750
 4321TIP3   OH234521   2.005   1.196   7.637 -0.2926 -0.2106 -0.1007
 4321TIP3    H134522   1.930   1.200   7.696  0.7036  1.8018  1.1762
 4321TIP3    H234523   1.988   1.263   7.571  0.7341  0.8801  0.7090
 4322TIP3   OH234524   1.715   3.153   7.188  0.1692 -0.2818 -0.0804
 4322TIP3    H134525   1.665   3.233   7.173 -0.9018 -1.0383 -0.6770
 4322TIP3    H234526   1.653   3.082   7.171  0.1025 -1.3007  3.6153
 4323TIP3   OH234527   4.650   1.308   0.711 -0.3012  0.0152 -0.0819
 4323TIP3    H134528   4.704   1.349   0.778  1.3463 -0.3926 -1.0994
 4323TIP3    H234529   4.620   1.381   0.656  0.6419  0.1008 -0.4955
 4324TIP3   OH234530   4.259   3.478   1.740  0.0560  0.3574 -0.1263
 4324TIP3    H134531   4.334   3.442   1.788  0.8182  0.1728 -1.4125
 4324TIP3    H234532   4.191   3.412   1.749  0.0892  0.4451  0.9025
 4325TIP3   OH234533   5.485   1.195   0.105  0.2233  0.4626  0.4210
 4325TIP3    H134534   5.568   1.244   0.098  0.4703  0.2960  1.8757
 4325TIP3    H234535   5.435   1.222   0.028  0.7449  2.2860  0.6659
 4326TIP3   OH234536   6.701   4.464   8.634  0.0917  0.6784 -0.0245
 4326TIP3    H134537   6.713   4.451   8.540  1.4296  0.3439  0.1760
 4326TIP3    H234538   6.729   4.555   8.649 -1.0266  1.0471 -0.0813
 4327TIP3   OH234539   3.522   1.425   1.505  0.1698 -0.1645 -0.0290
 4327TIP3    H134540   3.615   1.421   1.527  0.3542  1.0435 -0.5146
 4327TIP3    H234541   3.479   1.446   1.588  0.4728  0.5589 -0.0440
 4328TIP3   OH234542   5.571   1.141   2.473  0.1243 -0.0241  0.1098
 4328TIP3    H134543   5.658   1.144   2.513 -0.1712 -1.0218  0.8830
 4328TIP3    H234544   5.510   1.140   2.547 -0.5282  0.1909 -0.4135
 4329TIP3   OH234545   1.888   2.603   0.680 -0.3774 -0.5300  0.1698
 4329TIP3    H134546   1.947   2.580   0.752 -0.9605 -1.9620  0.2125
 4329TIP3    H234547   1.929   2.680   0.640 -0.4438  0.8151  2.4951
 4330TIP3   OH234548   5.226   3.184   0.891 -0.2161  0.0595  0.4404
 4330TIP3    H134549   5.160   3.146   0.949 -0.7933  1.2787  0.6020
 4330TIP3    H234550   5.306   3.185   0.944 -0.1945 -0.8426  0.4538
 4331TIP3   OH234551   2.086   4.380   2.480  0.5806  0.1550  0.1583
 4331TIP3    H134552   2.010   4.430   2.450  1.5540  0.6596 -1.6331
 4331TIP3    H234553   2.131   4.439   2.541  0.3211  0.4294  0.0868
 4332TIP3   OH234554   1.162   6.423   1.793 -0.3337 -0.5531  0.2686
 4332TIP3    H134555   1.210   6.340   1.803  0.1347 -0.4125 -0.6331
 4332TIP3    H234556   1.124   6.439   1.879  1.5518 -0.4842  1.1542
 4333TIP3   OH234557   5.966   0.174   1.774  0.2732  0.1987  0.3907
 4333TIP3    H134558   5.912   0.102   1.806  0.7519  0.4503  1.8228
 4333TIP3    H234559   5.970   0.161   1.680 -2.9587  0.6161  0.0851
 4334TIP3   OH234560   3.693   6.618   2.096  0.1298  0.9193 -0.0592
 4334TIP3    H134561   3.657   6.613   2.007 -0.0114  1.9641 -0.0703
 4334TIP3    H234562   3.649   6.548   2.144 -1.2402  1.5910 -0.3106
 4335TIP3   OH234563   1.598   3.607   1.121 -0.2152  0.3708  0.3503
 4335TIP3    H134564   1.611   3.533   1.180 -0.7150 -1.2492 -1.4670
 4335TIP3    H234565   1.682   3.652   1.120  0.7494 -1.3575 -0.0234
 4336TIP3   OH234566   1.235   6.416   8.222  0.7001  0.9107  0.1207
 4336TIP3    H134567   1.256   6.509   8.233 -0.5933  1.2688 -0.3465
 4336TIP3    H234568   1.140   6.413   8.217  0.6924 -0.5245  0.7630
 4337TIP3   OH234569   3.452   1.709   0.053  0.0502 -0.6707  0.0685
 4337TIP3    H134570   3.379   1.738   0.109 -0.6736  0.6573 -1.4625
 4337TIP3    H234571   3.431   1.618   0.032  0.0161 -1.0017  1.4001
 4338TIP3   OH234572   2.345   6.731   7.722 -0.0553  0.5503 -0.5558
 4338TIP3    H134573   2.311   6.694   7.640  3.2429 -0.6203 -1.5669
 4338TIP3    H234574   2.274   6.721   7.785 -2.5049  0.9148 -3.0662
 4339TIP3   OH234575   4.541   4.281   1.244 -0.5640 -0.5864  0.4516
 4339TIP3    H134576   4.625   4.312   1.279 -0.4041  1.0713 -1.2475
 4339TIP3    H234577   4.565   4.236   1.162 -1.3518  0.5355 -0.4212
 4340TIP3   OH234578   5.650   1.460   0.774  0.2301 -0.3318  0.3410
 4340TIP3    H134579   5.556   1.462   0.791  0.2557 -0.7100  0.5557
 4340TIP3    H234580   5.686   1.527   0.832  0.1717 -0.7066  0.8152
 4341TIP3   OH234581   1.858   3.399   0.162 -0.3179  0.1381 -0.0281
 4341TIP3    H134582   1.923   3.432   0.100 -0.6022  0.5461 -0.1124
 4341TIP3    H234583   1.807   3.336   0.111  0.2743 -0.4989  0.1542
 4342TIP3   OH234584   0.336   0.312   8.048  0.2593 -0.0388  0.0939
 4342TIP3    H134585   0.428   0.329   8.065 -0.0385  0.9963  0.7352
 4342TIP3    H234586   0.296   0.399   8.043 -0.7233 -0.4829  0.0822
 4343TIP3   OH234587   1.391   5.532   8.043  0.0269 -0.1943  0.8805
 4343TIP3    H134588   1.448   5.459   8.065 -1.3892 -1.3205  0.9376
 4343TIP3    H234589   1.345   5.552   8.125 -0.1364  0.2683  0.6790
 4344TIP3   OH234590   5.765   0.769   1.622  0.6019 -0.2457  0.3409
 4344TIP3    H134591   5.844   0.772   1.675 -1.3423  0.5854  3.4280
 4344TIP3    H234592   5.710   0.703   1.665 -1.7453  1.6946  0.4952
 4345TIP3   OH234593   2.302   2.016   6.827  0.5431  0.1918 -0.3170
 4345TIP3    H134594   2.255   1.938   6.797  1.0424 -1.5440  2.9278
 4345TIP3    H234595   2.236   2.085   6.827 -0.1363 -0.3692 -2.4348
 4346TIP3   OH234596   1.483   6.577   7.641 -0.4297 -0.1345 -0.6420
 4346TIP3    H134597   1.417   6.643   7.621  0.5873  0.2249 -3.1036
 4346TIP3    H234598   1.437   6.493   7.632 -0.9806  0.1446 -0.4664
 4347TIP3   OH234599   4.785   3.919   2.841 -0.1951  0.2734 -0.2625
 4347TIP3    H134600   4.705   3.925   2.789 -0.2529  0.2351 -0.1797
 4347TIP3    H234601   4.772   3.841   2.896 -0.0119  0.1438 -0.3994
 4348TIP3   OH234602   5.666   6.730   8.593  0.0168  0.1034  0.0537
 4348TIP3    H134603   5.710   6.808   8.558 -2.7839  1.4056 -0.9200
 4348TIP3    H234604   5.617   6.763   8.669 -0.0709 -1.0477  0.5107
 4349TIP3   OH234605   3.570   6.506   2.385  0.3977 -0.0055  0.2989
 4349TIP3    H134606   3.635   6.502   2.455 -2.1626  0.0547  2.8879
 4349TIP3    H234607   3.532   6.594   2.393  0.5307  0.2621 -1.6888
 4350TIP3   OH234608   4.315   2.211   0.278 -0.7316 -0.3170  0.1579
 4350TIP3    H134609   4.252   2.142   0.297 -1.5459  0.9499  2.3546
 4350TIP3    H234610   4.401   2.170   0.292 -1.1959 -0.9782  1.1921
 4351TIP3   OH234611   3.642   0.927   0.380  0.1014 -0.4892  0.3087
 4351TIP3    H134612   3.609   1.007   0.340 -0.5649 -0.3790  1.0595
 4351TIP3    H234613   3.623   0.858   0.316 -1.6719 -0.4414  0.7572
 4352TIP3   OH234614   5.190   3.130   7.931  0.0794 -0.1185 -0.4387
 4352TIP3    H134615   5.258   3.194   7.910  0.2651 -0.6571 -1.5680
 4352TIP3    H234616   5.125   3.141   7.862 -2.5778  2.4422  2.1737
 4353TIP3   OH234617   5.693   6.098   7.952 -0.2896 -0.3915 -0.9544
 4353TIP3    H134618   5.603   6.108   7.983  0.1881  0.4360  0.2360
 4353TIP3    H234619   5.726   6.023   8.001  0.1050  0.1955 -0.3105
 4354TIP3   OH234620   4.872   5.284   0.486 -0.1319 -0.3729  0.0325
 4354TIP3    H134621   4.856   5.270   0.579  1.2582  0.0870  0.3691
 4354TIP3    H234622   4.785   5.284   0.446 -0.8988  1.1980  1.5813
 4355TIP3   OH234623   6.449   0.286   8.505 -0.3702  0.1799 -0.9689
 4355TIP3    H134624   6.511   0.238   8.450 -0.0144 -0.6385  0.1178
 4355TIP3    H234625   6.491   0.290   8.591 -1.4256  0.4128 -0.4515
 4356TIP3   OH234626   5.028   4.091   1.546 -0.2191 -0.0628  0.0263
 4356TIP3    H134627   4.967   4.122   1.480  0.9321  1.2021 -0.4793
 4356TIP3    H234628   5.111   4.082   1.501  0.0842 -1.4469  0.7791
 4357TIP3   OH234629   5.494   3.046   1.502 -0.5890  0.1788  0.0643
 4357TIP3    H134630   5.585   3.056   1.474 -0.7547 -1.1057 -1.0373
 4357TIP3    H234631   5.455   3.132   1.486  0.1016  0.3530 -0.7641
 4358TIP3   OH234632   0.899   0.611   2.225  0.2089 -0.6074  0.4233
 4358TIP3    H134633   0.966   0.566   2.278  0.0614 -1.1950  0.1262
 4358TIP3    H234634   0.842   0.653   2.289  1.8365  1.3740  0.6513
 4359TIP3   OH234635   4.685   2.088   2.670  0.1721 -0.0256  0.1415
 4359TIP3    H134636   4.760   2.120   2.620 -0.1030 -0.7700 -0.7965
 4359TIP3    H234637   4.720   2.069   2.757  0.4709  2.1697  0.5651
 4360TIP3   OH234638   5.776   5.108   7.783 -0.1362 -0.1543 -0.0149
 4360TIP3    H134639   5.836   5.035   7.796 -2.6250 -2.3864 -0.4323
 4360TIP3    H234640   5.781   5.127   7.689  1.8733  1.5945  0.3484
 4361TIP3   OH234641   6.236   2.050   1.432  0.2388 -0.1130 -0.0041
 4361TIP3    H134642   6.187   1.992   1.489 -0.4288 -0.5296 -0.9874
 4361TIP3    H234643   6.318   2.067   1.480  0.3412 -1.6504  0.4083
 4362TIP3   OH234644   6.588   5.473   1.332 -0.2524  0.2477 -0.0469
 4362TIP3    H134645   6.680   5.483   1.307 -0.4453 -0.2939 -0.9897
 4362TIP3    H234646   6.552   5.561   1.328  0.4825  0.6500  1.4143
 4363TIP3   OH234647   5.731   1.304   8.521 -0.2724 -0.2809  0.6604
 4363TIP3    H134648   5.666   1.314   8.451  0.0407 -0.3713  0.3512
 4363TIP3    H234649   5.719   1.381   8.576  0.6554  0.7240 -0.4743
 4364TIP3   OH234650   6.054   6.837   7.937 -0.2969  0.7031  0.0355
 4364TIP3    H134651   5.987   6.894   7.974 -1.2874 -0.3511 -0.0874
 4364TIP3    H234652   6.036   6.751   7.975  0.3309  0.1787 -0.8183
 4365TIP3   OH234653   6.798   5.445   0.109 -0.3550  0.3046 -0.1086
 4365TIP3    H134654   6.874   5.438   0.166 -1.0317 -1.3622  0.6508
 4365TIP3    H234655   6.733   5.387   0.148 -0.5850 -1.5906 -2.9889
 4366TIP3   OH234656   2.369   3.283   2.117  0.0490 -0.2729  0.5263
 4366TIP3    H134657   2.333   3.219   2.179 -2.3359 -2.1770 -2.5396
 4366TIP3    H234658   2.422   3.231   2.056 -0.5554  0.8920 -1.0609
 4367TIP3   OH234659   1.074   2.672   1.288  0.0003  0.2745  0.3015
 4367TIP3    H134660   1.144   2.732   1.262  0.8556 -0.6084  0.5068
 4367TIP3    H234661   0.996   2.728   1.294  0.5060  1.1427 -0.6892
 4368TIP3   OH234662   0.576   0.537   8.332 -0.1531 -0.5321  0.2571
 4368TIP3    H134663   0.531   0.460   8.369 -0.0777 -1.2931 -1.1308
 4368TIP3    H234664   0.558   0.607   8.394  2.5313 -2.3262  3.3918
 4369TIP3   OH234665   1.591   0.268   8.486 -0.4004 -0.4596 -0.0339
 4369TIP3    H134666   1.530   0.285   8.414  1.9821 -0.1241 -2.1041
 4369TIP3    H234667   1.653   0.341   8.484  0.7854 -1.3695  1.2002
 4370TIP3   OH234668   6.173   1.388   7.099  0.1517  0.3139 -0.1976
 4370TIP3    H134669   6.116   1.351   7.031 -0.5117 -0.7165  0.8847
 4370TIP3    H234670   6.170   1.325   7.170  4.2772 -0.8286 -0.7823
 4371TIP3   OH234671   2.578   3.975   2.863  0.7241 -0.7294 -0.0650
 4371TIP3    H134672   2.505   3.915   2.849 -0.3883  0.3529  0.9016
 4371TIP3    H234673   2.631   3.932   2.931  1.7178 -2.1120 -1.6520
 4372TIP3   OH234674   3.213   2.880   2.030  0.0774  0.1093 -0.0005
 4372TIP3    H134675   3.246   2.798   1.992  1.3256  1.2623 -1.5347
 4372TIP3    H234676   3.288   2.916   2.078 -0.5554  0.2325  0.9215
 4373TIP3   OH234677   4.851   6.519   0.284  0.1117 -0.1949  0.8328
 4373TIP3    H134678   4.939   6.523   0.247 -1.5052  1.3253 -3.6465
 4373TIP3    H234679   4.834   6.608   0.316 -0.2001 -0.1124  0.4531
 4374TIP3   OH234680   2.675   1.049   2.170  0.1462 -0.8009 -0.0834
 4374TIP3    H134681   2.635   1.131   2.144  0.1608 -1.1744 -1.3345
 4374TIP3    H234682   2.656   0.989   2.098  0.9713 -1.6260  0.3647
 4375TIP3   OH234683   3.341   5.695   8.588  0.2319  0.1985  0.1082
 4375TIP3    H134684   3.330   5.789   8.572 -1.0131  0.2444  1.0971
 4375TIP3    H234685   3.265   5.671   8.642  1.7540 -0.8917  1.8721
 4376TIP3   OH234686   0.663   4.539   7.151  0.3050  0.2396  0.3645
 4376TIP3    H134687   0.618   4.476   7.207 -0.6980  1.1774  0.6441
 4376TIP3    H234688   0.691   4.487   7.075  1.4023 -0.9748  1.5421
 4377TIP3   OH234689   4.626   3.152   1.586 -0.1680 -0.1046 -0.8083
 4377TIP3    H134690   4.617   3.246   1.598  1.4755 -0.1102  0.9124
 4377TIP3    H234691   4.690   3.142   1.515  0.9178  0.1195  0.1194
 4378TIP3   OH234692   2.565   3.396   2.310  0.0351  0.3432  0.3100
 4378TIP3    H134693   2.490   3.363   2.360  0.9167 -0.0729  1.3784
 4378TIP3    H234694   2.627   3.323   2.309  2.2276  1.9801  3.0810
 4379TIP3   OH234695   1.918   0.452   7.335  0.0844 -0.1049  0.1433
 4379TIP3    H134696   1.956   0.501   7.262 -0.9832 -0.4628 -0.6778
 4379TIP3    H234697   1.941   0.502   7.413 -1.0836  1.7896 -0.6762
 4380TIP3   OH234698   4.774   0.103   8.296 -0.2774 -0.6324 -0.1727
 4380TIP3    H134699   4.706   0.061   8.244 -0.9612 -1.2416  1.1682
 4380TIP3    H234700   4.754   0.197   8.290 -0.5678 -0.7272 -0.7047
 4381TIP3   OH234701   2.174   3.475   2.289 -0.1210 -0.0837 -0.3734
 4381TIP3    H134702   2.216   3.513   2.366 -0.3912  0.5546 -0.5366
 4381TIP3    H234703   2.210   3.386   2.284  1.4497  0.5296 -0.6826
 4382TIP3   OH234704   6.517   2.527   3.007 -0.0629 -0.1183 -0.3872
 4382TIP3    H134705   6.506   2.449   2.953 -2.8393  1.0165 -1.6559
 4382TIP3    H234706   6.607   2.555   2.990 -0.7988  0.3401 -4.8342
 4383TIP3   OH234707   5.844   2.507   1.493 -0.6775 -0.1047  0.4504
 4383TIP3    H134708   5.807   2.591   1.518 -0.7424 -0.3875  1.3313
 4383TIP3    H234709   5.912   2.528   1.429 -1.3938  0.5254 -0.1169
 4384TIP3   OH234710   1.548   3.142   2.251 -0.3457  0.0137 -0.2788
 4384TIP3    H134711   1.484   3.082   2.213  0.5462 -1.1390 -0.0486
 4384TIP3    H234712   1.499   3.194   2.314 -0.5647 -3.2494  2.5951
 4385TIP3   OH234713   1.773   6.063   8.396 -0.1653  0.0417  0.3039
 4385TIP3    H134714   1.701   6.039   8.453 -0.6178 -2.4473 -1.1818
 4385TIP3    H234715   1.851   6.025   8.437  0.0503  1.0461  0.8790
 4386TIP3   OH234716   6.584   4.044   7.101  0.9314  0.2997 -0.5020
 4386TIP3    H134717   6.506   4.066   7.152  0.4211 -1.0386 -0.6570
 4386TIP3    H234718   6.583   3.948   7.096  2.3838  0.2759 -0.8297
 4387TIP3   OH234719   6.182   1.925   1.964 -0.1493  0.3021  0.2348
 4387TIP3    H134720   6.227   1.841   1.959 -1.6921 -0.6091  0.8873
 4387TIP3    H234721   6.115   1.912   2.031 -0.0522  2.2428  0.7626
 4388TIP3   OH234722   1.160   0.784   7.476 -0.1962  0.2610  0.7981
 4388TIP3    H134723   1.245   0.822   7.498 -0.6656  0.7047  1.9092
 4388TIP3    H234724   1.159   0.781   7.381  0.7852  0.9026  0.7549
 4389TIP3   OH234725   6.273   4.168   8.074  0.3206  0.0795  0.1710
 4389TIP3    H134726   6.360   4.167   8.034  0.7343  0.8350  1.0091
 4389TIP3    H234727   6.259   4.259   8.100 -0.2988 -0.2111  0.9335
 4390TIP3   OH234728   3.251   4.952   8.458 -0.4531  0.5327  0.5251
 4390TIP3    H134729   3.192   4.978   8.387 -0.0077 -0.0567 -0.0686
 4390TIP3    H234730   3.273   5.034   8.502 -1.1013  0.8495  0.2721
 4391TIP3   OH234731   1.404   0.255   3.203 -0.0395 -0.1039 -0.3245
 4391TIP3    H134732   1.315   0.224   3.217  0.1585  0.1787  2.0169
 4391TIP3    H234733   1.402   0.296   3.117 -2.3262  0.4117 -0.0966
 4392TIP3   OH234734   3.452   2.167   6.899  0.5705  0.2960  0.6622
 4392TIP3    H134735   3.496   2.163   6.984 -1.3995 -2.1755  1.7145
 4392TIP3    H234736   3.506   2.114   6.841  0.2605 -0.7464  1.2979
 4393TIP3   OH234737   1.726   2.400   2.523  0.8727 -0.0580 -0.2349
 4393TIP3    H134738   1.740   2.480   2.574 -0.4967 -0.2844  0.5488
 4393TIP3    H234739   1.809   2.353   2.528  1.3005  0.7331  0.3266
 4394TIP3   OH234740   3.995   0.170   0.031  0.2293 -0.0594  0.3693
 4394TIP3    H134741   4.008   0.219  -0.050 -0.3479 -0.9260 -0.2603
 4394TIP3    H234742   4.084   0.160   0.067  0.6491 -0.7890 -0.8203
 4395TIP3   OH234743   6.815   4.046   7.894  0.0765 -0.4849  0.2627
 4395TIP3    H134744   6.815   3.955   7.865  2.4937 -0.3839 -0.1978
 4395TIP3    H234745   6.823   4.097   7.813 -0.2039  0.1046  0.5992
 4396TIP3   OH234746   6.205   4.987   2.856  0.1668 -0.2561  0.3055
 4396TIP3    H134747   6.215   4.916   2.919 -0.7076 -0.5492  0.1304
 4396TIP3    H234748   6.295   5.013   2.833  0.5320  0.6009  2.4834
 4397TIP3   OH234749   5.046   5.669   2.305 -0.1311  0.0467 -0.8748
 4397TIP3    H134750   5.095   5.599   2.349 -1.4117  0.7761  1.9212
 4397TIP3    H234751   5.071   5.662   2.213  2.9095 -1.4779 -0.0545
 4398TIP3   OH234752   2.949   3.650   1.898 -0.4710 -0.1824  0.0724
 4398TIP3    H134753   2.872   3.653   1.956  0.0582  0.0227  0.7735
 4398TIP3    H234754   3.021   3.627   1.956 -0.2095 -1.7629 -0.8138
 4399TIP3   OH234755   4.685   3.487   7.798 -0.3867  0.6202  0.4784
 4399TIP3    H134756   4.592   3.462   7.797 -0.1990 -0.0981 -1.0996
 4399TIP3    H234757   4.731   3.408   7.772  0.7563  0.7504  1.9875
 4400TIP3   OH234758   0.227   5.637   1.097 -0.4052  0.7280 -0.1891
 4400TIP3    H134759   0.317   5.666   1.108 -0.4638  0.2919  1.6258
 4400TIP3    H234760   0.198   5.683   1.017  1.0573  1.7191 -0.2031
 4401TIP3   OH234761   5.182   3.854   0.995 -0.2330 -0.3389  0.4038
 4401TIP3    H134762   5.119   3.874   1.064 -0.2605  0.3646  0.1898
 4401TIP3    H234763   5.142   3.783   0.945 -0.8346  0.0642  0.3045
 4402TIP3   OH234764   3.237   5.119   0.027 -0.5137  0.0717  0.0881
 4402TIP3    H134765   3.247   5.147   0.118  1.3021 -0.6315  0.1345
 4402TIP3    H234766   3.239   5.200  -0.024 -1.7333  0.4828  0.6583
 4403TIP3   OH234767   0.195   3.395   8.183  0.1688  0.2396  0.0837
 4403TIP3    H134768   0.182   3.390   8.278 -1.5473  1.4325 -0.0416
 4403TIP3    H234769   0.107   3.391   8.147  0.8676 -1.6807 -1.5860
 4404TIP3   OH234770   3.662   3.846   8.529 -0.2119  0.0512 -0.1920
 4404TIP3    H134771   3.752   3.850   8.563  0.7203 -0.4315 -2.4249
 4404TIP3    H234772   3.673   3.844   8.434 -2.5607 -1.0710 -0.5002
 4405TIP3   OH234773   5.703   2.728   1.179  0.1216  0.2198 -0.0786
 4405TIP3    H134774   5.725   2.711   1.088  0.5313  1.9238 -0.3296
 4405TIP3    H234775   5.721   2.821   1.191  0.4422 -0.0479  1.8500
 4406TIP3   OH234776   4.487   3.245   8.649  0.7202 -0.4300  0.1672
 4406TIP3    H134777   4.427   3.214   8.581  3.0497 -0.5584 -2.0283
 4406TIP3    H234778   4.503   3.169   8.704  0.5199 -1.0044 -0.5524
 4407TIP3   OH234779   5.425   3.161   1.866 -0.0572  0.1800 -0.1193
 4407TIP3    H134780   5.478   3.214   1.806  0.5142 -0.0768  0.1562
 4407TIP3    H234781   5.432   3.072   1.833  3.2345 -0.6378  2.3072
 4408TIP3   OH234782   6.554   1.400   8.315 -0.1175  0.2307  0.3681
 4408TIP3    H134783   6.613   1.370   8.384  0.4880 -0.2964 -0.3641
 4408TIP3    H234784   6.610   1.409   8.238 -0.8020  0.7367 -0.0780
 4409TIP3   OH234785   3.742   1.726   0.204  0.1339 -0.2685  0.2088
 4409TIP3    H134786   3.719   1.763   0.289 -0.0105  0.8643 -0.3138
 4409TIP3    H234787   3.658   1.698   0.167  0.1480 -0.3790  0.2602
 4410TIP3   OH234788   5.930   3.474   0.995  0.7033 -0.6255  0.3811
 4410TIP3    H134789   6.015   3.518   1.000  0.1427  0.5176  0.0746
 4410TIP3    H234790   5.917   3.459   0.901 -0.2972  0.9863  0.2204
 4411TIP3   OH234791   5.565   0.082   1.458  0.5038  0.1515  0.4094
 4411TIP3    H134792   5.577  -0.009   1.482  0.1553 -0.0511 -0.1485
 4411TIP3    H234793   5.602   0.132   1.530  0.2364 -0.4308  0.9562
 4412TIP3   OH234794   0.456   1.192   1.049 -0.2565 -0.2301 -0.2764
 4412TIP3    H134795   0.501   1.127   0.995  0.0949  0.2258 -0.5326
 4412TIP3    H234796   0.374   1.148   1.074 -0.4179 -0.4585 -1.1606
 4413TIP3   OH234797   5.373   3.353   8.332 -0.4004  0.0053  0.0815
 4413TIP3    H134798   5.422   3.436   8.332 -0.6540  0.1663  1.5432
 4413TIP3    H234799   5.293   3.373   8.284  0.5805 -0.0566 -1.6731
 4414TIP3   OH234800   1.849   2.596   0.319 -0.7465 -0.2588 -0.1437
 4414TIP3    H134801   1.792   2.539   0.372 -0.5935  0.4563  0.8151
 4414TIP3    H234802   1.825   2.576   0.229 -1.4581 -1.0610  0.2056
 4415TIP3   OH234803   4.770   1.578   2.462 -0.1567 -0.5558 -0.8908
 4415TIP3    H134804   4.737   1.607   2.377 -1.0162  0.7115 -0.1478
 4415TIP3    H234805   4.797   1.658   2.506 -1.1824 -1.0134  0.6507
 4416TIP3   OH234806   4.973   3.159   7.766 -0.5937 -0.3603 -0.1797
 4416TIP3    H134807   4.972   3.221   7.693 -0.7844  2.8289  2.3209
 4416TIP3    H234808   4.882   3.152   7.793 -0.6211 -2.0856 -0.6192
 4417TIP3   OH234809   3.374   5.886   0.356 -0.4330 -0.6090  0.1419
 4417TIP3    H134810   3.395   5.970   0.397  0.7046 -0.4848 -0.6754
 4417TIP3    H234811   3.296   5.856   0.403 -0.6329  0.7173  0.7011
 4418TIP3   OH234812   3.684   5.061   0.651  0.5256  0.3019  0.0041
 4418TIP3    H134813   3.651   5.139   0.695  1.6452  0.9424 -0.2558
 4418TIP3    H234814   3.643   5.062   0.565  0.9530  0.9070 -0.1965
 4419TIP3   OH234815   1.579   4.762   8.475  0.6479  0.3260 -0.1965
 4419TIP3    H134816   1.496   4.721   8.449  0.6714 -0.5159  0.9495
 4419TIP3    H234817   1.554   4.848   8.507  0.4964  0.9529 -1.9217
 4420TIP3   OH234818   6.607   4.354   0.138  0.3388  0.1364 -0.0651
 4420TIP3    H134819   6.652   4.396   0.065  0.0167  0.1907 -0.2373
 4420TIP3    H234820   6.670   4.354   0.210  0.5922  0.2507 -0.2902
 4421TIP3   OH234821   1.007   1.842   7.059  0.0269  0.3537 -0.0832
 4421TIP3    H134822   1.027   1.759   7.016 -2.1601 -2.0437  3.0442
 4421TIP3    H234823   0.960   1.892   6.992 -2.4946 -2.7891 -0.9612
 4422TIP3   OH234824   2.254   2.820   2.606 -0.6642  0.3546 -0.1642
 4422TIP3    H134825   2.175   2.775   2.635 -1.3907 -0.1349 -2.7060
 4422TIP3    H234826   2.226   2.878   2.536  0.7847  2.4917  0.9278
 4423TIP3   OH234827   6.288   2.825   1.227 -0.1865 -0.0536  0.7179
 4423TIP3    H134828   6.301   2.735   1.254 -0.3215 -0.5050 -0.6397
 4423TIP3    H234829   6.215   2.822   1.166  1.5551  0.4902 -1.5533
 4424TIP3   OH234830   1.548   0.668   7.338  0.4747  0.6122  1.0400
 4424TIP3    H134831   1.472   0.611   7.345  0.1733  0.5304 -1.8377
 4424TIP3    H234832   1.512   0.756   7.349 -0.0411  0.5659 -0.1626
 4425TIP3   OH234833   5.462   2.720   8.139 -0.4985 -0.5220 -0.0534
 4425TIP3    H134834   5.506   2.729   8.055 -1.3206 -1.0372 -0.5397
 4425TIP3    H234835   5.435   2.810   8.161  0.1302 -0.3144 -0.1007
 4426TIP3   OH234836   6.600   1.321   2.357  0.6255  0.3564  0.2241
 4426TIP3    H134837   6.694   1.337   2.360  0.7840 -0.5844  0.8632
 4426TIP3    H234838   6.560   1.405   2.377  1.3658  0.4150  1.5825
 4427TIP3   OH234839   6.597   2.138   2.409 -0.2291  0.0397 -0.2264
 4427TIP3    H134840   6.629   2.228   2.419  0.3135 -0.2228  0.4838
 4427TIP3    H234841   6.603   2.122   2.314  1.7402  0.0353 -0.1542
 4428TIP3   OH234842   5.024   1.595   2.828  0.6670  0.4346  0.8349
 4428TIP3    H134843   5.045   1.680   2.868 -1.4995  1.7103 -0.5189
 4428TIP3    H234844   4.953   1.560   2.882  0.8469 -0.0192  0.7777
 4429TIP3   OH234845   4.619   6.836   0.812  0.2811  0.4060  0.2011
 4429TIP3    H134846   4.614   6.898   0.739 -0.3134  0.7252  0.5045
 4429TIP3    H234847   4.618   6.750   0.771 -1.0299  0.5563 -0.1467
 4430TIP3   OH234848   6.481   5.156   1.930  0.4662 -0.3865  0.4707
 4430TIP3    H134849   6.522   5.117   1.853 -2.4104 -0.0139 -1.3847
 4430TIP3    H234850   6.484   5.250   1.914 -0.1154 -0.3012  0.8224
 4431TIP3   OH234851   2.015   2.456   8.567 -0.1023  0.0685 -0.1038
 4431TIP3    H134852   1.941   2.443   8.625  0.0738 -1.1778 -0.1507
 4431TIP3    H234853   2.054   2.370   8.556  0.3159  0.3939 -1.4729
 4432TIP3   OH234854   0.435   0.233   1.085 -0.1681 -0.1982 -0.0447
 4432TIP3    H134855   0.445   0.204   0.994 -1.2234 -0.9951  0.0602
 4432TIP3    H234856   0.376   0.168   1.124 -1.3268  1.2221  0.6724
 4433TIP3   OH234857   5.354   1.706   1.591 -0.0863 -0.2460  0.0900
 4433TIP3    H134858   5.370   1.778   1.652 -1.8103 -0.1293  0.4503
 4433TIP3    H234859   5.413   1.723   1.518 -0.1389  1.2998  0.3739
 4434TIP3   OH234860   0.186   3.997   2.226 -0.2751  0.9568  0.1310
 4434TIP3    H134861   0.167   4.066   2.163  1.2862  2.1341  0.8760
 4434TIP3    H234862   0.147   3.918   2.188 -1.4822  2.0936 -1.0879
 4435TIP3   OH234863   6.386   4.046   1.363  0.1642 -0.1747 -0.2028
 4435TIP3    H134864   6.449   4.114   1.385  0.0334 -0.3252  0.6490
 4435TIP3    H234865   6.389   4.041   1.267  0.1091  1.0838 -0.2805
 4436TIP3   OH234866   1.386   3.805   7.464 -0.5371 -0.2262 -0.2577
 4436TIP3    H134867   1.310   3.748   7.473 -0.8964  0.4647  1.4236
 4436TIP3    H234868   1.349   3.892   7.450 -0.0839  0.1930  1.0548
 4437TIP3   OH234869   6.163   3.906   8.144 -0.2449 -0.5315  0.4987
 4437TIP3    H134870   6.174   3.995   8.175 -0.5885 -0.4552  0.3945
 4437TIP3    H234871   6.204   3.906   8.057 -1.3642 -0.1563 -0.0379
 4438TIP3   OH234872   1.335   4.599   8.445 -0.2861  0.4289  0.3675
 4438TIP3    H134873   1.306   4.582   8.355 -1.0722 -0.4251  0.7658
 4438TIP3    H234874   1.407   4.537   8.459 -0.7640 -0.0727  0.6230
 4439TIP3   OH234875   4.805   5.054   1.766  0.3167  0.3483  0.3740
 4439TIP3    H134876   4.765   5.043   1.852 -2.3041  0.0552 -0.7931
 4439TIP3    H234877   4.733   5.081   1.709  1.6450 -0.9041 -2.0500
 4440TIP3   OH234878   6.067   4.879   0.565 -0.4774  0.7693  0.2243
 4440TIP3    H134879   6.089   4.925   0.484 -2.0429  0.2190 -0.5607
 4440TIP3    H234880   6.005   4.936   0.609 -1.2796  0.1188 -0.0313
 4441TIP3   OH234881   3.608   3.121   1.084 -0.5051  0.5252 -0.1850
 4441TIP3    H134882   3.601   3.052   1.150  0.4419  1.5218  1.0132
 4441TIP3    H234883   3.523   3.166   1.087 -0.6427  0.2551 -0.0160
 4442TIP3   OH234884   3.698   0.411   3.197  0.0335 -0.3834  0.2643
 4442TIP3    H134885   3.744   0.363   3.266  0.5337  1.0163  0.9418
 4442TIP3    H234886   3.647   0.344   3.151  1.9873 -1.8660  0.0941
 4443TIP3   OH234887   4.350   3.625   0.742  0.5024  0.4091 -0.0930
 4443TIP3    H134888   4.285   3.562   0.713 -0.7014  0.5714  2.0405
 4443TIP3    H234889   4.430   3.573   0.755 -0.3317 -0.6350  1.1550
 4444TIP3   OH234890   0.102   4.419   0.616 -0.5831  0.3166  0.2860
 4444TIP3    H134891   0.181   4.446   0.663 -1.0328  1.1770  0.5465
 4444TIP3    H234892   0.077   4.336   0.657 -0.5597  0.6944  1.0634
 4445TIP3   OH234893   0.887   5.395   2.499  0.3102 -0.1388  0.1290
 4445TIP3    H134894   0.854   5.445   2.574  0.9317 -1.0504  1.0490
 4445TIP3    H234895   0.897   5.306   2.533  2.4750 -0.1682 -0.4513
 4446TIP3   OH234896   4.344   2.257   8.679 -0.4248 -0.0596  0.0093
 4446TIP3    H134897   4.271   2.311   8.711 -1.7690 -1.9725  0.3417
 4446TIP3    H234898   4.398   2.242   8.756 -0.5016  0.0928  0.0942
 4447TIP3   OH234899   6.677   0.539   8.370  0.4153 -0.0541 -0.2438
 4447TIP3    H134900   6.772   0.550   8.366  0.4147  0.6838  1.1052
 4447TIP3    H234901   6.664   0.446   8.387  0.9341  0.0143  0.5419
 4448TIP3   OH234902   2.173   0.440   0.715  0.2417 -0.3126 -0.1242
 4448TIP3    H134903   2.142   0.477   0.798 -0.3180  0.1749 -0.5506
 4448TIP3    H234904   2.153   0.347   0.722 -0.6475 -0.1271 -0.0861
 4449TIP3   OH234905   0.463   5.508   2.190  0.1763  0.3881 -0.0052
 4449TIP3    H134906   0.429   5.454   2.261  0.3627 -1.2376 -1.1013
 4449TIP3    H234907   0.538   5.459   2.155  0.7759  1.6762 -0.6201
 4450TIP3   OH234908   6.176   5.557   7.936 -0.5625 -0.1425  0.4760
 4450TIP3    H134909   6.123   5.502   7.993  0.1827 -0.6902  0.6665
 4450TIP3    H234910   6.130   5.641   7.933 -0.9116 -0.2885  1.4149
 4451TIP3   OH234911   2.083   0.046   8.663  0.4379 -0.0618  0.2087
 4451TIP3    H134912   2.040  -0.039   8.660 -1.7414  0.9334 -3.3185
 4451TIP3    H234913   2.049   0.087   8.742  0.7235 -2.0351  1.4116
 4452TIP3   OH234914   0.496   5.122   1.370  0.3907 -0.1571  0.2625
 4452TIP3    H134915   0.570   5.061   1.377  0.7994  0.1342 -1.1575
 4452TIP3    H234916   0.537   5.209   1.370  0.0234  0.0197 -0.1658
 4453TIP3   OH234917   3.935   3.287   8.040  0.3549  0.7829  0.1925
 4453TIP3    H134918   3.874   3.358   8.057 -0.7780 -0.2957  0.7497
 4453TIP3    H234919   3.880   3.210   8.026  1.5699 -0.5411  2.1526
 4454TIP3   OH234920   6.237   6.760   8.702 -0.0248  0.3357 -0.1469
 4454TIP3    H134921   6.189   6.833   8.665  0.1452  2.1554  2.8614
 4454TIP3    H234922   6.220   6.765   8.796  2.1951 -1.8680  0.4942
 4455TIP3   OH234923   5.229   0.430   0.858 -0.2365 -0.0604  0.4969
 4455TIP3    H134924   5.154   0.380   0.891 -1.1365  0.1970 -1.0684
 4455TIP3    H234925   5.204   0.455   0.769  1.6316  0.2351  0.0216
 4456TIP3   OH234926   4.630   6.205   2.352 -0.4536  0.3998 -0.0897
 4456TIP3    H134927   4.590   6.279   2.398  0.2722  0.2670  0.7811
 4456TIP3    H234928   4.722   6.230   2.342 -0.7147  0.7076 -2.0714
 4457TIP3   OH234929   3.629   5.650   0.368  0.5952  0.0091 -0.2432
 4457TIP3    H134930   3.553   5.648   0.311 -1.0238  0.2532  1.7788
 4457TIP3    H234931   3.598   5.690   0.449  2.1088 -2.3901  1.6923
 4458TIP3   OH234932   3.534   5.378   2.053 -0.2766 -0.1081  0.3415
 4458TIP3    H134933   3.540   5.282   2.058  0.8562 -0.1455 -1.1485
 4458TIP3    H234934   3.621   5.405   2.023 -0.9074  1.3131 -0.2507
 4459TIP3   OH234935   6.202   0.392   7.554 -0.2208  0.0568 -0.7188
 4459TIP3    H134936   6.122   0.429   7.516  0.0722  2.5760  0.8525
 4459TIP3    H234937   6.272   0.421   7.496 -0.2799 -0.9530 -1.3180
 4460TIP3   OH234938   1.143   0.343   6.980 -0.2202 -0.2624  0.0822
 4460TIP3    H134939   1.156   0.273   6.916  0.3545  0.3039 -0.4348
 4460TIP3    H234940   1.148   0.423   6.929 -2.3497  0.1435  0.4097
 4461TIP3   OH234941   5.559   5.971   0.939 -0.1681  0.2461  0.2224
 4461TIP3    H134942   5.516   6.044   0.895 -1.2026  0.9642  2.2820
 4461TIP3    H234943   5.488   5.910   0.959  0.5642 -0.9790 -0.7150
 4462TIP3   OH234944   4.543   6.662   2.266  0.2770  0.0667 -0.2009
 4462TIP3    H134945   4.542   6.720   2.190 -0.9018 -0.4362 -0.5971
 4462TIP3    H234946   4.617   6.692   2.319  2.3473 -0.7590 -2.4534
 4463TIP3   OH234947   5.004   5.120   1.480  0.0377 -0.6653 -0.0421
 4463TIP3    H134948   5.015   5.165   1.397  1.7601 -1.5251 -0.3167
 4463TIP3    H234949   4.909   5.111   1.490 -0.3155  1.7673 -0.6122
 4464TIP3   OH234950   3.348   2.453   0.798 -0.1581  0.4655 -0.2203
 4464TIP3    H134951   3.297   2.385   0.754  0.4994  0.1283 -0.4838
 4464TIP3    H234952   3.367   2.517   0.729 -0.3020  0.6396 -0.1008
 4465TIP3   OH234953   3.437   4.464   7.809 -0.3326  0.0125 -0.2429
 4465TIP3    H134954   3.433   4.395   7.875 -1.0717 -0.1359 -0.4348
 4465TIP3    H234955   3.414   4.421   7.727 -3.3147  0.9379  0.0000
 4466TIP3   OH234956   0.140   5.189   2.162  0.0671  0.2208 -0.0173
 4466TIP3    H134957   0.144   5.093   2.164 -0.9327  0.1586 -0.4867
 4466TIP3    H234958   0.229   5.217   2.186  0.2042 -0.8057  0.7446
 4467TIP3   OH234959   1.085   1.960   2.618  0.0578 -0.3119 -0.2283
 4467TIP3    H134960   1.103   2.047   2.583 -1.0235 -0.6326 -1.7144
 4467TIP3    H234961   0.993   1.962   2.643  0.0098 -1.0192 -0.3125
 4468TIP3   OH234962   3.789   0.786   1.477 -0.2912 -0.8836 -0.6642
 4468TIP3    H134963   3.831   0.767   1.393  1.8526 -0.3280  0.2192
 4468TIP3    H234964   3.857   0.768   1.542 -0.6781  2.0907  0.7192
 4469TIP3   OH234965   1.374   1.282   7.946 -0.0291  0.2980 -0.2575
 4469TIP3    H134966   1.414   1.357   7.992 -0.1671 -0.0569  0.4622
 4469TIP3    H234967   1.301   1.256   8.002  0.9276 -1.3294  0.3222
 4470TIP3   OH234968   4.448   6.048   0.877 -0.4092  0.6285  0.5769
 4470TIP3    H134969   4.370   6.028   0.928 -0.7010 -0.1960 -0.1667
 4470TIP3    H234970   4.521   6.016   0.931 -0.8807 -3.6967 -0.9568
 4471TIP3   OH234971   3.337   3.509   0.375 -0.5587  0.3448 -0.5545
 4471TIP3    H134972   3.311   3.510   0.468  0.1113  0.1758 -0.3614
 4471TIP3    H234973   3.340   3.601   0.350  0.4115  0.4559 -0.0750
 4472TIP3   OH234974   5.947   6.805   8.427 -0.2563  0.5413 -0.5713
 4472TIP3    H134975   5.867   6.841   8.388 -0.9627  0.6501  0.8690
 4472TIP3    H234976   5.940   6.711   8.414 -1.1302  0.4524  0.3585
 4473TIP3   OH234977   2.891   1.549   0.220 -0.1986 -0.1754 -0.9417
 4473TIP3    H134978   2.910   1.462   0.256  0.3302  0.2092 -0.2586
 4473TIP3    H234979   2.811   1.537   0.169 -0.5410 -0.9092 -0.2519
 4474TIP3   OH234980   6.147   2.507   7.538 -0.2264  0.3297  0.3232
 4474TIP3    H134981   6.151   2.578   7.603 -0.9354  0.1657  0.5597
 4474TIP3    H234982   6.230   2.512   7.492 -0.8252  2.2622 -0.6607
 4475TIP3   OH234983   4.872   1.456   2.053 -0.2695 -0.1129  0.5458
 4475TIP3    H134984   4.852   1.450   1.960 -0.5654  0.5800  0.5605
 4475TIP3    H234985   4.852   1.369   2.087 -1.9402  0.1387  0.2978
 4476TIP3   OH234986   1.552   0.782   0.512 -0.1263  0.4108 -0.1936
 4476TIP3    H134987   1.566   0.822   0.597 -1.5394  0.2812  0.1248
 4476TIP3    H234988   1.539   0.689   0.531  1.8992 -0.0624 -0.8075
 4477TIP3   OH234989   0.012   3.450   0.723 -0.2855  0.2271 -0.5809
 4477TIP3    H134990   0.071   3.437   0.648  2.1431  0.1913  1.1834
 4477TIP3    H234991  -0.015   3.541   0.718  0.8270  0.5543 -0.8828
 4478TIP3   OH234992   5.398   5.500   1.793 -0.2700 -0.5529 -0.3230
 4478TIP3    H134993   5.485   5.538   1.807 -0.5972 -0.2385  1.0776
 4478TIP3    H234994   5.339   5.576   1.791 -0.7314 -0.8513  0.8424
 4479TIP3   OH234995   2.915   5.907   8.100 -0.4401  0.1016  0.1689
 4479TIP3    H134996   2.841   5.883   8.044 -1.2946 -1.6138  1.8705
 4479TIP3    H234997   2.874   5.926   8.185  0.9710  0.5841  0.7641
 4480TIP3   OH234998   5.749   2.587   2.935 -0.8974 -0.1171  0.7447
 4480TIP3    H134999   5.830   2.556   2.894  0.0744  1.5682  1.3346
 4480TIP3    H235000   5.689   2.513   2.926  0.2094 -0.8750 -1.0459
 4481TIP3   OH235001   3.530   3.709   1.801  0.0095  0.2701 -0.3826
 4481TIP3    H135002   3.550   3.652   1.727  0.3851  0.5437 -0.4942
 4481TIP3    H235003   3.561   3.661   1.878 -3.1890 -1.4725 -0.0006
 4482TIP3   OH235004   4.421   4.981   0.054 -0.4498  0.1629  0.1523
 4482TIP3    H135005   4.416   4.906  -0.005  1.4794  1.8320 -2.3294
 4482TIP3    H235006   4.346   4.970   0.113 -0.8157 -3.1256 -0.7128
 4483TIP3   OH235007   5.395   2.785   1.083  0.1772 -0.2090 -0.0211
 4483TIP3    H135008   5.355   2.706   1.046  1.2537 -0.4527 -0.6965
 4483TIP3    H235009   5.427   2.758   1.169  0.1905 -0.3889 -0.0831
 4484TIP3   OH235010   2.539   1.336   8.447  0.3346 -0.4679 -0.3781
 4484TIP3    H135011   2.502   1.323   8.534  0.5921  0.9541 -0.0287
 4484TIP3    H235012   2.539   1.431   8.435 -0.4058 -0.6652 -2.2549
 4485TIP3   OH235013   5.313   1.456   2.242  0.8453 -0.5875 -0.4822
 4485TIP3    H135014   5.354   1.537   2.274 -0.1523 -0.5924  0.9019
 4485TIP3    H235015   5.284   1.477   2.154  0.7432  0.5268 -0.1968
 4486TIP3   OH235016   5.280   0.665   1.085 -0.1374  0.2963  0.2709
 4486TIP3    H135017   5.193   0.701   1.070 -0.1977  0.0072 -0.1077
 4486TIP3    H235018   5.316   0.652   0.997  0.4078  0.6969  0.4259
 4487TIP3   OH235019   0.228   1.628   7.769 -0.5656 -0.1973 -0.4022
 4487TIP3    H135020   0.187   1.714   7.766  0.7144  0.3992 -1.8223
 4487TIP3    H235021   0.322   1.645   7.766 -0.1089 -1.5533  2.2397
 4488TIP3   OH235022   6.117   4.570   2.370 -0.2251  0.5008  0.2233
 4488TIP3    H135023   6.205   4.542   2.346 -0.3527  0.0680  0.2388
 4488TIP3    H235024   6.075   4.490   2.403 -1.1673  0.2918 -1.3405
 4489TIP3   OH235025   2.126   4.671   1.642 -0.2744  0.3789 -0.6866
 4489TIP3    H135026   2.080   4.744   1.601 -1.3750 -0.8471 -1.7037
 4489TIP3    H235027   2.215   4.678   1.609 -0.4393  1.0836 -1.0113
 4490TIP3   OH235028   2.607   1.501   0.157  0.0356  0.0202  0.5556
 4490TIP3    H135029   2.560   1.580   0.182 -1.5909 -0.9626  0.7258
 4490TIP3    H235030   2.616   1.451   0.238 -1.9244 -1.4665 -0.0782
 4491TIP3   OH235031   3.733   5.430   7.903 -0.4549  0.0541 -0.0601
 4491TIP3    H135032   3.669   5.378   7.856  0.5774 -0.4412 -0.9585
 4491TIP3    H235033   3.690   5.515   7.916 -1.3478 -0.3228 -0.4693
 4492TIP3   OH235034   5.119   6.431   7.761 -0.9888 -0.8344 -0.2976
 4492TIP3    H135035   5.027   6.444   7.782 -0.8851  6.1943 -1.8350
 4492TIP3    H235036   5.166   6.463   7.838  0.0975 -1.3702 -0.7149
 4493TIP3   OH235037   6.707   5.847   1.584 -0.8780 -0.3677  0.6176
 4493TIP3    H135038   6.637   5.832   1.647 -0.1440  2.8752  2.4431
 4493TIP3    H235039   6.672   5.916   1.526  0.4993  0.8952  1.2201
 4494TIP3   OH235040   5.252   0.347   8.285  0.2106  0.5528  0.3250
 4494TIP3    H135041   5.197   0.281   8.244  1.0257 -0.2022  0.4013
 4494TIP3    H235042   5.232   0.341   8.378 -1.3503  1.9929  0.1210
 4495TIP3   OH235043   4.714   0.950   0.973 -0.2406 -0.1416  0.1285
 4495TIP3    H135044   4.682   1.032   1.011  0.4649  0.3274 -0.2607
 4495TIP3    H235045   4.639   0.915   0.925 -0.3606  0.6235 -0.2650
 4496TIP3   OH235046   5.065   6.283   1.289  0.3632 -0.4151  0.1410
 4496TIP3    H135047   4.984   6.283   1.237  1.5025 -0.7408 -1.7116
 4496TIP3    H235048   5.103   6.196   1.275  1.3623 -0.0454  0.4658
 4497TIP3   OH235049   0.308   2.226   8.489  0.2479  0.2640  0.2902
 4497TIP3    H135050   0.260   2.289   8.436 -0.6810 -0.9196 -0.3065
 4497TIP3    H235051   0.400   2.249   8.475 -0.0398  0.9368 -0.5998
 4498TIP3   OH235052   2.921   6.202   7.578  0.3116 -0.5207 -0.3018
 4498TIP3    H135053   2.988   6.253   7.532  1.5729 -0.3361  1.6175
 4498TIP3    H235054   2.960   6.116   7.589  0.7415 -0.1240  1.7270
 4499TIP3   OH235055   1.606   4.579   7.228 -0.2557  0.3681 -0.2372
 4499TIP3    H135056   1.603   4.496   7.277  0.9752 -0.1209 -0.9562
 4499TIP3    H235057   1.577   4.555   7.140 -1.2598  1.0045 -0.0997
 4500TIP3   OH235058   6.597   3.595   8.237  0.3944 -0.0242  0.4633
 4500TIP3    H135059   6.564   3.508   8.256 -2.6701  0.9630  0.1728
 4500TIP3    H235060   6.538   3.655   8.283  2.5832  1.9340  0.9306
 4501TIP3   OH235061   1.042   2.444   0.850  0.8924  0.4262  0.4519
 4501TIP3    H135062   1.054   2.435   0.945 -0.6587 -0.5350  0.5951
 4501TIP3    H235063   0.949   2.426   0.836  0.6320  2.6224 -1.0462
 4502TIP3   OH235064   6.311   0.326   2.477 -0.2205  0.3042  0.1629
 4502TIP3    H135065   6.323   0.263   2.548  1.1508 -1.5763 -1.6283
 4502TIP3    H235066   6.381   0.390   2.489  1.1313 -1.0013 -0.4323
 4503TIP3   OH235067   2.555   2.024   7.875 -0.2903  0.0530  0.0370
 4503TIP3    H135068   2.643   2.049   7.902  0.4703 -1.3173 -1.0102
 4503TIP3    H235069   2.528   2.092   7.813  0.5318 -0.1094 -0.5265
 4504TIP3   OH235070   5.941   3.130   1.546 -0.2757  0.2741 -0.1743
 4504TIP3    H135071   5.928   3.061   1.611  1.0715  0.2062  0.0561
 4504TIP3    H235072   5.973   3.204   1.596 -1.4042  0.9786 -0.4682
 4505TIP3   OH235073   6.698   0.907   0.216 -0.5742 -0.0401 -0.6265
 4505TIP3    H135074   6.699   0.941   0.306 -2.5400  1.3122 -1.0691
 4505TIP3    H235075   6.720   0.814   0.226 -1.8428 -0.1873  1.4002
 4506TIP3   OH235076   4.891   0.761   0.054  0.3938 -0.1601 -0.0936
 4506TIP3    H135077   4.936   0.685   0.091  0.8688  0.6333  1.0410
 4506TIP3    H235078   4.856   0.807   0.130  1.0979  1.3631 -0.6477
 4507TIP3   OH235079   1.334   3.219   2.798  0.6702 -0.4947 -0.0509
 4507TIP3    H135080   1.378   3.267   2.728  0.7764 -1.0842 -0.3970
 4507TIP3    H235081   1.318   3.132   2.761  1.5032 -1.0942  0.9483
 4508TIP3   OH235082   3.011   6.271   1.954 -0.0375 -0.2085  0.3435
 4508TIP3    H135083   3.088   6.270   2.011 -0.0962  0.6774  0.4589
 4508TIP3    H235084   2.939   6.244   2.010 -0.4486  2.5170  1.2825
 4509TIP3   OH235085   3.569   5.197   1.312 -0.1369  0.1306 -0.0737
 4509TIP3    H135086   3.571   5.113   1.265 -1.9158  0.0835 -0.1282
 4509TIP3    H235087   3.476   5.216   1.323  0.2419  1.5181  1.0063
 4510TIP3   OH235088   3.594   0.733   0.838 -0.6372 -0.8697  0.1087
 4510TIP3    H135089   3.567   0.731   0.930 -1.8198 -0.6750 -0.2228
 4510TIP3    H235090   3.524   0.779   0.793  1.0693  1.2336 -0.5438
 4511TIP3   OH235091   0.464   0.319   8.465  0.3887 -0.1340  0.3616
 4511TIP3    H135092   0.486   0.328   8.558 -1.3122 -1.4176  0.9374
 4511TIP3    H235093   0.517   0.245   8.436 -0.4557 -0.9332  0.8148
 4512TIP3   OH235094   0.016   3.212   1.947 -0.1802  0.1881 -0.1378
 4512TIP3    H135095   0.090   3.152   1.944  0.9667  1.6009 -2.1032
 4512TIP3    H235096  -0.045   3.177   1.882  0.1729  0.7238 -0.7688
 4513TIP3   OH235097   2.590   3.504   8.580 -0.6723 -0.1061 -0.7590
 4513TIP3    H135098   2.644   3.454   8.519 -0.1162 -0.6909  0.1761
 4513TIP3    H235099   2.571   3.586   8.535  1.1497  0.1979 -1.0612
 4514TIP3   OH235100   3.413   5.853   1.333 -0.0209  0.1847  0.1383
 4514TIP3    H135101   3.347   5.920   1.317  0.9764  0.5870 -2.7739
 4514TIP3    H235102   3.465   5.888   1.405 -0.2450  1.9869 -0.5329
 4515TIP3   OH235103   6.286   5.800   2.374  0.2598 -0.0967 -0.3480
 4515TIP3    H135104   6.367   5.767   2.336 -0.1552 -0.0122 -1.3589
 4515TIP3    H235105   6.218   5.769   2.314 -0.6108 -1.3294  1.2036
 4516TIP3   OH235106   0.304   5.463   1.357  0.2093 -0.3149 -0.2080
 4516TIP3    H135107   0.387   5.470   1.406  1.8347  0.6816 -2.8476
 4516TIP3    H235108   0.259   5.545   1.377 -0.4818 -1.1096  1.7027
 4517TIP3   OH235109   4.156   5.327   1.572  0.3568 -0.0311  0.0772
 4517TIP3    H135110   4.137   5.366   1.487 -0.2119  0.4738  0.4246
 4517TIP3    H235111   4.179   5.236   1.552 -3.0633 -0.9317 -0.3864
 4518TIP3   OH235112   4.988   4.854   2.400  0.1224 -0.8524  0.1016
 4518TIP3    H135113   4.901   4.821   2.378  0.7019 -1.6772 -1.0249
 4518TIP3    H235114   5.005   4.821   2.488 -0.7397 -0.5970  0.3711
 4519TIP3   OH235115   2.582   6.460   8.310  0.9250  0.3924 -0.5325
 4519TIP3    H135116   2.495   6.442   8.343  1.0091 -1.8899 -1.3378
 4519TIP3    H235117   2.579   6.433   8.218  2.5071  0.1145 -0.5359
 4520TIP3   OH235118   3.309   4.105   8.151  0.3636 -0.0944 -0.1158
 4520TIP3    H135119   3.338   4.022   8.188 -0.7293 -0.2182  0.4977
 4520TIP3    H235120   3.229   4.085   8.104 -0.1513  0.6690  0.4004
 4521TIP3   OH235121   6.549   2.620   8.139  0.0372 -0.4050  0.0854
 4521TIP3    H135122   6.520   2.599   8.228 -0.0472 -0.3814  0.0635
 4521TIP3    H235123   6.614   2.552   8.119 -0.4475 -0.8206 -0.0968
 4522TIP3   OH235124   6.472   2.314   2.827  0.3056  0.1471 -0.4693
 4522TIP3    H135125   6.439   2.309   2.737 -1.6766 -0.3717  0.2093
 4522TIP3    H235126   6.421   2.247   2.874  1.9936 -0.2895  0.8466
 4523TIP3   OH235127   0.382   4.942   1.166 -0.1378  0.1677 -0.1432
 4523TIP3    H135128   0.438   5.016   1.188  0.3166 -0.4038  0.7277
 4523TIP3    H235129   0.400   4.878   1.236 -1.8584 -0.0397  0.1463
 4524TIP3   OH235130   1.058   3.907   8.708 -0.1118  0.0343 -0.5392
 4524TIP3    H135131   1.028   3.838   8.648 -0.8079 -1.4148  1.3684
 4524TIP3    H235132   1.003   3.982   8.687  0.1783 -0.1580 -2.1910
 4525TIP3   OH235133   1.441   0.979   8.042 -0.1336 -0.4919  0.2431
 4525TIP3    H135134   1.426   0.918   7.970 -0.6485  1.6687 -1.6081
 4525TIP3    H235135   1.508   1.039   8.008  1.1146 -0.5935  2.3824
 4526TIP3   OH235136   0.179   3.636   7.694 -0.2189 -0.6706  0.3578
 4526TIP3    H135137   0.267   3.599   7.708  0.1213  0.0408  0.1344
 4526TIP3    H235138   0.127   3.561   7.665  1.0466 -0.6011 -2.4903
 4527TIP3   OH235139   4.776   1.649   1.360 -0.6253 -0.0905  0.0190
 4527TIP3    H135140   4.834   1.616   1.291  0.1067 -0.6760  0.9011
 4527TIP3    H235141   4.749   1.735   1.329 -1.0427 -0.7066 -1.4288
 4528TIP3   OH235142   3.607   6.460   0.823  0.1494  0.4045 -0.1076
 4528TIP3    H135143   3.678   6.473   0.761  1.5209 -2.1886  0.7663
 4528TIP3    H235144   3.630   6.515   0.898  0.1304  1.1452 -0.6372
 4529TIP3   OH235145   1.020   0.282   1.681 -0.4314 -0.7453  0.2009
 4529TIP3    H135146   0.991   0.193   1.664 -0.9635 -0.3246 -1.2777
 4529TIP3    H235147   1.092   0.296   1.619  0.4021 -0.5160  1.2025
 4530TIP3   OH235148   3.301   4.997   7.597  0.0396  0.6223  0.1665
 4530TIP3    H135149   3.395   4.976   7.592  0.5348  1.5784  3.2813
 4530TIP3    H235150   3.288   5.064   7.530  1.2923 -0.3604 -1.1139
 4531TIP3   OH235151   5.519   6.433   0.291 -0.3486  0.0061  0.1472
 4531TIP3    H135152   5.555   6.488   0.361 -0.5324  0.7263 -0.3150
 4531TIP3    H235153   5.464   6.370   0.337 -1.9518  1.6093  0.5577
 4532TIP3   OH235154   4.292   4.041   1.710  0.3006  0.4206  0.5926
 4532TIP3    H135155   4.344   4.105   1.662  0.3729  0.9211  1.3111
 4532TIP3    H235156   4.208   4.084   1.724  0.5154  0.5680  1.5059
 4533TIP3   OH235157   6.443   2.515   0.370 -0.3676  0.3432  0.2412
 4533TIP3    H135158   6.444   2.449   0.439 -0.6051 -0.5589 -0.5930
 4533TIP3    H235159   6.356   2.555   0.375 -1.1294 -1.0936 -0.7696
 4534TIP3   OH235160   0.345   2.119   7.963 -0.1734  0.3434  0.2860
 4534TIP3    H135161   0.285   2.137   7.890 -1.3046 -1.2882  0.7674
 4534TIP3    H235162   0.305   2.046   8.010  0.5623  1.2996  2.5287
 4535TIP3   OH235163   5.326   4.545   0.269 -0.0739 -0.3505  0.6362
 4535TIP3    H135164   5.238   4.556   0.233  0.1498  2.2255  0.6997
 4535TIP3    H235165   5.312   4.530   0.363 -0.4688  1.2687  0.8677
 4536TIP3   OH235166   3.941   4.394   1.589  0.2389 -0.3022  0.1324
 4536TIP3    H135167   3.887   4.422   1.515  2.0978  0.8029 -0.8957
 4536TIP3    H235168   3.997   4.325   1.553  2.5223  1.5674 -0.1298
 4537TIP3   OH235169   3.531   5.267   7.809  0.1128  0.1998 -0.6458
 4537TIP3    H135170   3.437   5.286   7.816  0.2834  1.1305 -0.7035
 4537TIP3    H235171   3.535   5.180   7.769 -0.7270 -0.0382 -0.2473
 4538TIP3   OH235172   4.966   0.953   2.315 -0.1296  0.5832  0.7233
 4538TIP3    H135173   4.968   0.859   2.331 -0.1618  0.8276  2.2956
 4538TIP3    H235174   5.038   0.969   2.254 -0.3472 -0.4939  0.1638
 4539TIP3   OH235175   3.129   2.522   8.521  0.0399 -0.0910  0.6023
 4539TIP3    H135176   3.171   2.479   8.595 -0.4065  1.3062  1.7257
 4539TIP3    H235177   3.123   2.614   8.547  1.5013  0.8288 -1.9065
 4540TIP3   OH235178   4.890   5.892   2.355  0.1453  0.2862  0.1066
 4540TIP3    H135179   4.953   5.819   2.355  0.3814  0.4768 -1.0778
 4540TIP3    H235180   4.917   5.947   2.282  0.2852  1.8722  1.3060
 4541TIP3   OH235181   0.825   3.660   0.373 -0.3179 -0.3638  0.1320
 4541TIP3    H135182   0.793   3.643   0.461 -1.1552 -0.2874 -0.1429
 4541TIP3    H235183   0.790   3.746   0.351 -1.4245 -1.0146 -0.8245
 4542TIP3   OH235184   3.023   0.024   2.550  0.2489  0.1044  0.1726
 4542TIP3    H135185   3.043   0.100   2.605 -2.2170  0.6036  0.4970
 4542TIP3    H235186   3.028  -0.050   2.609 -0.4741  0.4126  0.6325
 4543TIP3   OH235187   2.978   6.220   1.483  0.8556 -0.9688  0.5966
 4543TIP3    H135188   2.896   6.249   1.522  0.0288 -1.1383 -0.9583
 4543TIP3    H235189   2.952   6.164   1.410  2.2385  1.0865 -1.6372
 4544TIP3   OH235190   4.948   1.886   0.434  0.7478 -0.4785 -0.1057
 4544TIP3    H135191   5.009   1.954   0.405  0.6122  0.2081  1.1656
 4544TIP3    H235192   4.881   1.883   0.365  0.2907  1.2862  0.2223
 4545TIP3   OH235193   1.452   1.955   7.450  0.0095 -0.2618 -0.1925
 4545TIP3    H135194   1.456   1.893   7.522  0.1119 -0.4483 -0.3586
 4545TIP3    H235195   1.358   1.968   7.435 -0.0463 -1.4246 -1.0461
 4546TIP3   OH235196   0.414   1.194   0.421  0.2025  0.7540 -0.2231
 4546TIP3    H135197   0.344   1.178   0.357 -0.6983 -1.8008  1.2481
 4546TIP3    H235198   0.495   1.182   0.371 -0.4293  0.7670 -1.3005
 4547TIP3   OH235199   6.728   0.613   1.680 -0.2549  0.0222  0.6985
 4547TIP3    H135200   6.802   0.552   1.678  0.6457  0.9360  2.5512
 4547TIP3    H235201   6.710   0.632   1.588  2.0851  0.0432  0.1718
 4548TIP3   OH235202   2.313   1.668   8.579  0.1033 -0.0368  0.1418
 4548TIP3    H135203   2.273   1.607   8.639 -1.2359  1.4275  0.8019
 4548TIP3    H235204   2.397   1.628   8.556 -0.7333 -2.0961  0.4960
 4549TIP3   OH235205   5.658   4.159   0.378  0.1149 -0.3632 -0.1334
 4549TIP3    H135206   5.728   4.203   0.428  0.3212 -1.7178  0.8292
 4549TIP3    H235207   5.633   4.223   0.311 -0.2889  1.6302  1.7926
 4550TIP3   OH235208   3.315   3.080   0.821 -0.2099 -0.0084 -0.3556
 4550TIP3    H135209   3.355   2.992   0.820 -1.2804 -0.4996 -1.0339
 4550TIP3    H235210   3.265   3.082   0.902 -2.5812 -1.1655 -1.6954
 4551TIP3   OH235211   6.161   1.069   8.537  0.3240  0.0983 -0.0700
 4551TIP3    H135212   6.237   1.102   8.489 -0.1856  0.1673 -0.8508
 4551TIP3    H235213   6.088   1.079   8.476 -0.5998  1.4339  1.1780
 4552TIP3   OH235214   0.309   3.568   1.659  0.0367 -0.1135 -0.1671
 4552TIP3    H135215   0.303   3.573   1.563 -2.2384  0.2256 -0.0550
 4552TIP3    H235216   0.354   3.485   1.675  0.0817 -0.3841 -1.5221
 4553TIP3   OH235217   5.496   4.083   1.434 -0.0528 -0.1139  0.3062
 4553TIP3    H135218   5.566   4.097   1.497  1.5311 -1.3656 -1.1060
 4553TIP3    H235219   5.540   4.063   1.352 -2.0687 -0.5303 -0.7457
 4554TIP3   OH235220   6.010   5.494   8.578 -0.2952  0.5121 -0.2635
 4554TIP3    H135221   6.026   5.413   8.626  0.8008  0.2661 -0.9950
 4554TIP3    H235222   5.916   5.497   8.565 -0.1709 -2.2594 -2.9213
 4555TIP3   OH235223   2.516   1.395   7.984  0.4105  0.1482 -0.2020
 4555TIP3    H135224   2.514   1.491   7.974  0.8343  0.1349 -0.4552
 4555TIP3    H235225   2.594   1.379   8.036 -0.8178  0.0837  1.6928
 4556TIP3   OH235226   6.201   4.900   0.070  0.1099 -0.0182 -0.3092
 4556TIP3    H135227   6.196   4.939   0.158  0.6118  1.4722 -0.9153
 4556TIP3    H235228   6.127   4.839   0.067 -0.4346  0.5557  0.8440
 4557TIP3   OH235229   5.272   6.540   7.950  0.5339  0.4576 -0.2842
 4557TIP3    H135230   5.365   6.559   7.967  0.3179 -0.3693  2.2921
 4557TIP3    H235231   5.245   6.486   8.025 -1.9263  0.2888 -1.2143
 4558TIP3   OH235232   3.926   2.197   8.177  0.2841  0.3148  0.0766
 4558TIP3    H135233   3.909   2.244   8.259  0.0762  0.1936  0.1049
 4558TIP3    H235234   3.839   2.171   8.146  0.4524 -0.9159  0.5669
 4559TIP3   OH235235   4.276   2.501   0.196  0.2234 -0.1582  0.5495
 4559TIP3    H135236   4.281   2.563   0.268 -1.0963 -0.6572  1.0954
 4559TIP3    H235237   4.310   2.420   0.232  1.1808  0.0262  0.0804
 4560TIP3   OH235238   2.022   4.509   7.313 -0.2872 -0.1253  0.0615
 4560TIP3    H135239   1.997   4.416   7.316 -0.5555 -0.1020 -0.9386
 4560TIP3    H235240   1.942   4.554   7.286  0.1446  0.2542 -0.6087
 4561TIP3   OH235241   6.417   3.305   1.911 -1.1586 -0.1845 -0.4525
 4561TIP3    H135242   6.441   3.290   2.002 -2.6471 -1.6282 -0.2319
 4561TIP3    H235243   6.351   3.374   1.914 -0.2373  0.7288 -0.6088
 4562TIP3   OH235244   3.091   3.738   1.680  0.2141 -0.0387  0.1877
 4562TIP3    H135245   3.030   3.724   1.753  1.3519 -2.8222  0.7181
 4562TIP3    H235246   3.036   3.777   1.612 -1.7708 -0.7776  1.2467
 4563TIP3   OH235247   6.525   5.653   8.327 -0.0639 -0.2201 -0.2398
 4563TIP3    H135248   6.469   5.581   8.297 -0.0916  0.3440 -1.5868
 4563TIP3    H235249   6.589   5.664   8.257 -0.1361  1.1552 -0.1153
 4564TIP3   OH235250   3.195   5.678   0.761 -0.2870 -0.0480  0.5966
 4564TIP3    H135251   3.285   5.655   0.783 -0.0836  0.9093  0.7888
 4564TIP3    H235252   3.142   5.613   0.808  0.2643 -0.0368  1.2519
 4565TIP3   OH235253   3.585   1.644   2.924  0.0796  0.2975 -0.1528
 4565TIP3    H135254   3.584   1.648   2.828 -0.6892  1.3922 -0.1176
 4565TIP3    H235255   3.494   1.659   2.950  0.2698 -0.0382  0.7495
 4566TIP3   OH235256   2.794   5.440   1.545  0.4925  0.6960 -1.3496
 4566TIP3    H135257   2.812   5.463   1.636  0.1561  1.7151 -1.5204
 4566TIP3    H235258   2.709   5.397   1.547  0.6666  0.3600 -1.1362
 4567TIP3   OH235259   3.188   5.689   7.790  0.3710 -0.0748 -0.1837
 4567TIP3    H135260   3.113   5.667   7.734 -0.9266  2.0605  0.5792
 4567TIP3    H235261   3.190   5.620   7.856 -0.2544 -0.7369 -0.8375
 4568TIP3   OH235262   1.179   0.310   1.907 -0.0625  0.5113  0.5678
 4568TIP3    H135263   1.148   0.286   1.819 -2.9449  1.8837  1.0587
 4568TIP3    H235264   1.105   0.289   1.964  1.6832 -0.1733  2.6716
 4569TIP3   OH235265   4.359   2.994   2.564  0.5675  0.7336  0.2695
 4569TIP3    H135266   4.286   2.975   2.623 -1.5109  3.0412 -1.3569
 4569TIP3    H235267   4.348   2.932   2.491  1.6170 -0.4014  1.0401
 4570TIP3   OH235268   0.745   6.160   1.109  0.2764 -0.2439 -0.0721
 4570TIP3    H135269   0.796   6.196   1.037  0.3985 -0.9284 -0.3339
 4570TIP3    H235270   0.730   6.234   1.168 -0.3395  0.4655 -1.0868
 4571TIP3   OH235271   4.022   4.701   2.548  0.0137  0.3798 -0.0621
 4571TIP3    H135272   3.985   4.618   2.576 -1.2638  1.1778  0.7328
 4571TIP3    H235273   3.972   4.767   2.596 -0.0959  1.6738 -1.8182
 4572TIP3   OH235274   0.712   2.245   2.438  0.1133  0.4074  0.3059
 4572TIP3    H135275   0.779   2.221   2.374  1.4317  0.6132  1.5336
 4572TIP3    H235276   0.686   2.162   2.478 -1.1238  0.2149 -0.8484
 4573TIP3   OH235277   3.625   0.184   8.671 -0.2117 -0.3353  0.5690
 4573TIP3    H135278   3.643   0.271   8.637 -0.2934 -0.1802  0.9181
 4573TIP3    H235279   3.704   0.133   8.650 -0.2587 -0.2423  0.1579
 4574TIP3   OH235280   1.962   1.065   0.641  0.1268 -0.5662  0.1400
 4574TIP3    H135281   1.867   1.051   0.642 -0.0159  0.3132 -0.2504
 4574TIP3    H235282   1.986   1.070   0.733 -0.5168  1.0901  0.2551
 4575TIP3   OH235283   2.693   3.110   8.706 -0.3972 -0.1889 -0.1574
 4575TIP3    H135284   2.719   3.032   8.756 -0.0399  0.3435  0.5201
 4575TIP3    H235285   2.776   3.151   8.683 -0.5701  1.2885  1.6262
 4576TIP3   OH235286   4.752   4.371   8.453 -0.4502  0.0672 -0.0574
 4576TIP3    H135287   4.813   4.443   8.436 -0.2791 -0.0850 -0.0958
 4576TIP3    H235288   4.689   4.375   8.381 -0.7148  0.4657  0.1931
 4577TIP3   OH235289   5.206   5.803   7.784  0.4509 -0.3874  0.4596
 4577TIP3    H135290   5.153   5.723   7.789  0.6502 -0.4633  1.6065
 4577TIP3    H235291   5.282   5.785   7.839  0.8799  0.3219  0.1155
 4578TIP3   OH235292   4.425   3.040   8.104  0.3388  0.6895  0.4696
 4578TIP3    H135293   4.429   2.944   8.101 -0.3228  0.6087  1.3909
 4578TIP3    H235294   4.428   3.067   8.013  1.6568 -0.1479  0.2394
 4579TIP3   OH235295   5.008   4.963   1.102  0.5205  0.5114 -0.1430
 4579TIP3    H135296   5.002   5.024   1.175  0.1666  1.1600 -0.6969
 4579TIP3    H235297   5.046   5.015   1.031  1.3496 -0.2532 -0.2690
 4580TIP3   OH235298   4.448   5.727   8.114  0.0968  1.0332  0.8073
 4580TIP3    H135299   4.438   5.667   8.188  0.1622  2.2051  1.7850
 4580TIP3    H235300   4.503   5.798   8.147 -0.3317  1.8561 -0.1856
 4581TIP3   OH235301   0.440   2.213   0.978  0.8423 -0.6180 -0.2085
 4581TIP3    H135302   0.497   2.261   1.038 -0.4514 -1.8510  2.1419
 4581TIP3    H235303   0.356   2.209   1.023 -1.0786  0.7572 -3.3818
 4582TIP3   OH235304   2.092   1.274   2.021  0.2774 -0.1494  0.3012
 4582TIP3    H135305   2.057   1.363   2.016 -2.6159 -1.1792  0.3630
 4582TIP3    H235306   2.121   1.266   2.112 -0.6099  0.3416  0.6423
 4583TIP3   OH235307   2.604   1.985   0.095  0.3712  0.3979 -0.0736
 4583TIP3    H135308   2.622   2.062   0.149 -0.7531  1.6579 -1.4300
 4583TIP3    H235309   2.684   1.972   0.044  1.0082 -0.0952  1.0231
 4584TIP3   OH235310   2.968   6.786   0.065  0.4676  0.1296  0.1164
 4584TIP3    H135311   3.000   6.745  -0.015  0.5696 -3.0058  1.5924
 4584TIP3    H235312   2.876   6.803   0.048  0.2734 -1.3055 -0.4178
 4585TIP3   OH235313   2.040   0.846   7.639 -0.7909 -0.0176  0.0969
 4585TIP3    H135314   2.028   0.854   7.734  0.0397 -1.0893  0.3214
 4585TIP3    H235315   2.109   0.909   7.619 -0.2950 -0.4582  0.3802
 4586TIP3   OH235316   6.463   0.817   1.795  0.2258 -0.1060 -0.4752
 4586TIP3    H135317   6.500   0.777   1.873 -1.2677 -1.2228 -0.2954
 4586TIP3    H235318   6.439   0.905   1.822  1.1927  0.0659 -0.1426
 4587TIP3   OH235319   2.989   6.230   0.505  0.5561  0.4889 -0.1165
 4587TIP3    H135320   2.957   6.176   0.577  0.0761 -1.8011 -1.9190
 4587TIP3    H235321   3.078   6.255   0.531 -0.0873  0.8766  1.8220
 4588TIP3   OH235322   0.308   6.436   2.494 -0.5806  0.7854 -0.3035
 4588TIP3    H135323   0.260   6.437   2.577 -1.4514  1.0171 -0.8040
 4588TIP3    H235324   0.249   6.394   2.432  0.5482 -0.5152 -0.5417
 4589TIP3   OH235325   3.632   3.201   0.431  0.1202 -0.5574 -0.2395
 4589TIP3    H135326   3.567   3.177   0.496  0.4803 -1.0178 -0.0393
 4589TIP3    H235327   3.625   3.134   0.364 -1.2309  0.6885 -1.4155
 4590TIP3   OH235328   2.160   2.332   8.244 -0.0254  0.1912 -0.1060
 4590TIP3    H135329   2.219   2.406   8.231 -0.0485  0.6674  2.0523
 4590TIP3    H235330   2.217   2.261   8.275 -0.1624 -0.3531 -1.0743
 4591TIP3   OH235331   3.847   2.828   2.203 -0.4094 -0.2483 -0.4200
 4591TIP3    H135332   3.925   2.875   2.234 -2.0985  3.1185 -0.7252
 4591TIP3    H235333   3.863   2.737   2.225  3.1360  0.4227  0.4493
 4592TIP3   OH235334   5.844   4.773   7.199 -0.3542  0.1605 -0.0002
 4592TIP3    H135335   5.851   4.718   7.276 -1.9729 -0.2365 -0.1101
 4592TIP3    H235336   5.867   4.861   7.230 -1.8178  0.1668  1.1620
 4593TIP3   OH235337   3.949   0.288   2.475 -0.4648  0.4063  0.0701
 4593TIP3    H135338   3.898   0.292   2.556  0.1340 -0.6646  0.5195
 4593TIP3    H235339   4.022   0.349   2.489 -0.6082  0.5566  0.1581
 4594TIP3   OH235340   4.925   3.913   1.751  0.6798  0.1226 -0.3849
 4594TIP3    H135341   4.880   3.997   1.763  0.7734  0.2309 -0.7970
 4594TIP3    H235342   4.972   3.922   1.668 -0.3689 -0.8094 -1.1058
 4595TIP3   OH235343   0.009   2.892   1.821  0.1479  0.0804  0.8711
 4595TIP3    H135344  -0.052   2.925   1.887  0.1133 -2.3058  2.1412
 4595TIP3    H235345   0.095   2.925   1.849  0.0566 -0.4693  1.8628
 4596TIP3   OH235346   0.039   2.075   0.152 -0.1646 -0.1057 -0.1739
 4596TIP3    H135347   0.120   2.095   0.105 -0.7638  1.9889 -0.4028
 4596TIP3    H235348  -0.030   2.080   0.085 -0.4902 -2.5398 -0.1319
 4597TIP3   OH235349   5.551   1.758   1.402 -0.3471  0.1234  0.5341
 4597TIP3    H135350   5.585   1.846   1.382 -0.2137  0.1605  0.9034
 4597TIP3    H235351   5.603   1.699   1.348 -0.6573  0.2997  0.0401
 4598TIP3   OH235352   0.734   3.969   7.460 -0.1808 -0.1001 -0.2763
 4598TIP3    H135353   0.696   4.030   7.397 -1.2122 -0.6927 -0.2593
 4598TIP3    H235354   0.739   3.886   7.413  0.6903 -0.1406 -0.1274
 4599TIP3   OH235355   1.902   0.811   8.687  0.3744  0.4846 -0.2008
 4599TIP3    H135356   1.846   0.745   8.646  1.0868  0.8379 -1.8299
 4599TIP3    H235357   1.841   0.872   8.729 -0.3478 -0.3358 -0.0309
 4600TIP3   OH235358   6.640   0.158   2.432 -0.1240 -0.0131 -0.8413
 4600TIP3    H135359   6.646   0.228   2.498 -1.3548  0.0444 -0.7724
 4600TIP3    H235360   6.573   0.098   2.467  2.1110 -2.2176 -0.0016
 4601TIP3   OH235361   5.972   4.992   2.692 -0.0306  0.0707 -0.3380
 4601TIP3    H135362   5.929   5.073   2.718 -1.6215 -0.8869  0.1684
 4601TIP3    H235363   6.026   4.968   2.768  1.1416  1.0607 -0.8172
 4602TIP3   OH235364   4.453   4.048   2.205  0.2511  0.0507 -0.3484
 4602TIP3    H135365   4.494   3.983   2.147  4.0239  1.2252  0.7293
 4602TIP3    H235366   4.498   4.037   2.289 -1.2345  1.9751  0.7782
 4603TIP3   OH235367   0.512   1.556   8.719 -0.5437 -0.0673 -1.2574
 4603TIP3    H135368   0.591   1.609   8.717  0.6388 -1.6990 -0.0948
 4603TIP3    H235369   0.487   1.546   8.627  0.7855  0.2022 -1.6614
 4604TIP3   OH235370   5.466   0.357   0.947 -0.3082 -0.8906  0.6213
 4604TIP3    H135371   5.378   0.385   0.920  0.5307 -0.1662 -1.5636
 4604TIP3    H235372   5.465   0.365   1.042 -1.7252  1.9090  0.4834
 4605TIP3   OH235373   0.829   3.281   7.407 -0.2018 -0.2139 -0.4758
 4605TIP3    H135374   0.765   3.351   7.412  0.3783  0.2291  1.8929
 4605TIP3    H235375   0.913   3.326   7.394  0.1174 -0.4772  0.6049
 4606TIP3   OH235376   6.561   0.878   8.252 -0.3179  0.3528  0.2436
 4606TIP3    H135377   6.510   0.897   8.173  1.2705  0.8722 -0.6969
 4606TIP3    H235378   6.547   0.784   8.267 -1.1663  0.3844 -0.2494
 4607TIP3   OH235379   0.923   6.349   8.080  0.3933  0.0626  0.0878
 4607TIP3    H135380   0.861   6.324   8.011  1.6710 -0.7756 -0.8166
 4607TIP3    H235381   0.965   6.267   8.105  1.1398  0.6038  0.6645
 4608TIP3   OH235382   5.642   2.973   8.073 -0.3275 -0.0633  0.0438
 4608TIP3    H135383   5.550   2.976   8.048 -0.2725 -4.2646 -1.5568
 4608TIP3    H235384   5.689   3.009   7.998 -0.5988  0.6083  0.1927
 4609TIP3   OH235385   2.417   2.283   8.059  0.2961  0.1458 -0.3622
 4609TIP3    H135386   2.338   2.232   8.044 -0.2348  0.6871  0.4888
 4609TIP3    H235387   2.481   2.219   8.091 -0.6236  0.1095  1.5334
 4610TIP3   OH235388   2.398   1.090   7.408 -0.3271 -0.3062 -0.5229
 4610TIP3    H135389   2.330   1.079   7.475 -1.6638  0.3937 -1.6984
 4610TIP3    H235390   2.369   1.166   7.356  2.8135  1.8578  0.6003
 4611TIP3   OH235391   0.433   2.546   0.332 -0.0674 -0.2645  0.1546
 4611TIP3    H135392   0.371   2.597   0.384  0.4190  1.0040 -0.4850
 4611TIP3    H235393   0.448   2.467   0.384 -0.2360  0.5925  1.5471
 4612TIP3   OH235394   5.447   0.427   1.627  0.1155 -0.0771  0.2231
 4612TIP3    H135395   5.516   0.471   1.677 -1.9135  0.4012  2.8943
 4612TIP3    H235396   5.472   0.335   1.627  0.1861 -0.1045  2.3073
 4613TIP3   OH235397   2.817   5.778   8.597 -0.0383  0.3586  0.0333
 4613TIP3    H135398   2.796   5.867   8.624 -2.1442  0.3817 -1.4315
 4613TIP3    H235399   2.878   5.789   8.524  1.6268  0.4595  1.3818
 4614TIP3   OH235400   3.931   1.726   7.879  0.3519 -0.2994 -0.5371
 4614TIP3    H135401   3.851   1.760   7.918 -0.5904 -0.6749 -2.0449
 4614TIP3    H235402   3.979   1.686   7.952 -1.5693 -1.4209  0.1819
 4615TIP3   OH235403   1.635   6.597   2.112  0.2721 -0.0035 -0.0775
 4615TIP3    H135404   1.592   6.517   2.083 -0.3213  0.2022  0.2332
 4615TIP3    H235405   1.654   6.583   2.205  0.3340  0.1440 -0.0658
 4616TIP3   OH235406   2.650   2.948   1.612  0.1435 -0.8403  0.3306
 4616TIP3    H135407   2.712   2.984   1.549  0.4417 -1.1320  0.4523
 4616TIP3    H235408   2.696   2.873   1.650  0.0302 -0.5739  1.0068
 4617TIP3   OH235409   3.805   1.770   0.938  0.8662  0.1088  0.5321
 4617TIP3    H135410   3.770   1.681   0.951  0.6205  0.2454  0.8210
 4617TIP3    H235411   3.729   1.822   0.912  0.7370  0.5137  1.6286
 4618TIP3   OH235412   1.191   3.078   1.354 -0.2901  0.0101 -0.5562
 4618TIP3    H135413   1.212   3.168   1.327 -0.9598  0.8396  1.4562
 4618TIP3    H235414   1.199   3.026   1.274 -1.0219  2.0569 -2.0540
 4619TIP3   OH235415   5.660   6.722   8.096 -0.5877 -0.1429 -0.6513
 4619TIP3    H135416   5.746   6.712   8.056  0.5056 -2.0791  1.9187
 4619TIP3    H235417   5.601   6.734   8.021  1.7232  0.1130 -2.5676
 4620TIP3   OH235418   4.564   1.787   1.824  0.3224 -0.3046 -0.0073
 4620TIP3    H135419   4.513   1.805   1.903 -0.6680 -0.0619 -0.6838
 4620TIP3    H235420   4.643   1.841   1.834  0.0021  0.0615  0.6153
 4621TIP3   OH235421   4.089   4.334   0.934 -0.5707  0.6981 -0.1627
 4621TIP3    H135422   4.122   4.369   0.851 -1.3005  0.0630 -0.7369
 4621TIP3    H235423   4.108   4.240   0.929  1.0872  0.9097  1.2195
 4622TIP3   OH235424   1.596   4.666   8.228  0.0530  0.1915  0.1046
 4622TIP3    H135425   1.618   4.576   8.250 -0.1156  0.3287  0.8580
 4622TIP3    H235426   1.628   4.718   8.301  0.2765  0.7636 -0.3873
 4623TIP3   OH235427   3.440   6.107   7.612  0.2121  0.5950  0.1213
 4623TIP3    H135428   3.394   6.133   7.532  1.4688 -1.0938 -1.2532
 4623TIP3    H235429   3.527   6.146   7.603  0.5415 -0.0578  0.3747
 4624TIP3   OH235430   1.094   0.555   8.126  0.1203 -0.2282  0.5520
 4624TIP3    H135431   1.147   0.476   8.136 -3.2921 -3.0135 -1.3120
 4624TIP3    H235432   1.008   0.532   8.161 -0.9749  2.7773  0.1531
 4625TIP3   OH235433   4.006   2.477   0.840  0.7360  0.7431  0.6446
 4625TIP3    H135434   3.916   2.482   0.870  0.9801 -0.1409  1.5888
 4625TIP3    H235435   4.001   2.486   0.745 -0.5451 -1.1866  0.4828
 4626TIP3   OH235436   6.547   1.867   3.186 -0.5763 -0.2989  0.8968
 4626TIP3    H135437   6.454   1.849   3.179 -0.8643  1.2641  0.3194
 4626TIP3    H235438   6.553   1.962   3.198  1.0279  0.0164 -1.6394
 4627TIP3   OH235439   0.158   3.096   7.882 -0.3118  0.0977  0.4935
 4627TIP3    H135440   0.132   3.099   7.790  2.4364 -1.1835 -0.4282
 4627TIP3    H235441   0.100   3.030   7.921 -1.0835  0.1883 -0.4582
 4628TIP3   OH235442   3.075   0.668   7.594  0.4903 -0.6064  0.1260
 4628TIP3    H135443   3.062   0.732   7.524  1.8677 -0.7511 -0.3017
 4628TIP3    H235444   2.991   0.624   7.602  0.1197 -0.1503 -0.9991
 4629TIP3   OH235445   3.476   2.527   1.039  0.1253  0.4989 -0.4719
 4629TIP3    H135446   3.449   2.492   0.954 -1.2838 -0.2724  0.2712
 4629TIP3    H235447   3.408   2.589   1.063 -1.8506 -2.3022  1.9500
 4630TIP3   OH235448   4.175   1.494   2.290  0.1035  0.9458  0.3267
 4630TIP3    H135449   4.204   1.530   2.206  0.9282  0.7479  0.5207
 4630TIP3    H235450   4.081   1.514   2.293  0.2556  1.7996 -0.2111
 4631TIP3   OH235451   0.010   5.043   1.561 -0.1058 -0.0942  0.0641
 4631TIP3    H135452   0.045   5.120   1.516  0.1617 -0.1844  0.1141
 4631TIP3    H235453   0.086   4.987   1.573 -0.0756  0.1578  1.1056
 4632TIP3   OH235454   5.187   5.723   0.606  0.5622 -0.5876 -0.2744
 4632TIP3    H135455   5.242   5.648   0.629  1.6356  0.5986  1.1977
 4632TIP3    H235456   5.247   5.797   0.603 -0.3284  0.1155 -2.6116
 4633TIP3   OH235457   4.924   2.850   1.382  1.0498  0.0076 -0.1438
 4633TIP3    H135458   5.016   2.824   1.378  1.0670 -0.1529  1.0422
 4633TIP3    H235459   4.876   2.767   1.374  1.0031  0.0812 -0.6652
 4634TIP3   OH235460   3.849   1.082   2.055  0.4877 -0.2563 -0.1598
 4634TIP3    H135461   3.926   1.027   2.062  1.0714  0.7463  2.6272
 4634TIP3    H235462   3.779   1.023   2.027  1.0878 -2.5114  2.6162
 4635TIP3   OH235463   3.591   5.743   3.061 -0.3179 -0.1731  0.6951
 4635TIP3    H135464   3.587   5.802   3.137  0.3552  1.1256 -0.2366
 4635TIP3    H235465   3.667   5.774   3.011 -1.7240  0.0821 -1.3697
 4636TIP3   OH235466   3.373   3.225   1.387 -0.3882  0.1361 -0.0646
 4636TIP3    H135467   3.314   3.151   1.404  1.1144 -1.0405  0.1989
 4636TIP3    H235468   3.446   3.187   1.338  0.0145  1.6278 -0.6809
 4637TIP3   OH235469   3.190   3.386   0.160 -0.0808  0.3693  0.0672
 4637TIP3    H135470   3.114   3.443   0.158  0.1497  0.6814  0.2129
 4637TIP3    H235471   3.222   3.391   0.250 -0.2913 -0.2968  0.1877
 4638TIP3   OH235472   4.259   1.596   1.647  0.2394 -0.2134  0.7500
 4638TIP3    H135473   4.329   1.661   1.653  0.7040 -0.2361 -2.6066
 4638TIP3    H235474   4.304   1.511   1.649  0.2421 -0.2515 -0.2983
 4639TIP3   OH235475   2.509   5.739   0.848  0.7700 -0.1116 -0.3018
 4639TIP3    H135476   2.597   5.768   0.825  0.7688  0.3395  0.2445
 4639TIP3    H235477   2.457   5.754   0.769  0.4514  2.7010  0.3239
 4640TIP3   OH235478   4.884   2.251   8.041 -0.9956 -0.3828 -0.3292
 4640TIP3    H135479   4.843   2.168   8.068  0.2826 -0.9637 -0.0780
 4640TIP3    H235480   4.876   2.307   8.118  0.4996 -1.2255  0.5194
 4641TIP3   OH235481   3.935   4.089   0.554 -0.3769  0.0667 -0.0679
 4641TIP3    H135482   3.943   4.091   0.650 -2.3862  0.6940  0.1199
 4641TIP3    H235483   3.950   3.997   0.532  1.0273  0.0667  0.7233
 4642TIP3   OH235484   0.420   4.841   0.263 -0.4548 -0.5727  0.5225
 4642TIP3    H135485   0.416   4.935   0.278 -2.0735 -0.5306  0.0164
 4642TIP3    H235486   0.371   4.827   0.181 -0.1078 -1.8360  0.4982
 4643TIP3   OH235487   2.804   5.172   2.672  0.5254 -0.4528 -0.0724
 4643TIP3    H135488   2.742   5.224   2.723  0.1815 -1.2323  0.3156
 4643TIP3    H235489   2.831   5.230   2.601 -0.4993 -0.0290 -0.1314
 4644TIP3   OH235490   5.091   1.797   1.165  0.1294  0.2032 -0.9573
 4644TIP3    H135491   5.056   1.886   1.162  0.9203  0.5358 -0.7119
 4644TIP3    H235492   5.030   1.745   1.114  0.0373  1.0212 -1.6997
 4645TIP3   OH235493   1.787   5.569   0.986 -0.1920  0.1242  0.6220
 4645TIP3    H135494   1.731   5.637   1.023  0.8479  0.2932  1.9585
 4645TIP3    H235495   1.731   5.491   0.985 -1.0017  0.6905  0.2528
 4646TIP3   OH235496   0.736   1.650   7.628  0.4711  0.2914 -0.3252
 4646TIP3    H135497   0.828   1.628   7.611  1.1902  1.2967  1.7657
 4646TIP3    H235498   0.689   1.623   7.550  2.4237 -1.0653 -1.1063
 4647TIP3   OH235499   2.477   0.158   2.176  0.5577  0.0664  0.1567
 4647TIP3    H135500   2.476   0.142   2.270 -0.8931  0.1107  0.1739
 4647TIP3    H235501   2.406   0.104   2.141 -0.2011  1.5195 -0.6445
 4648TIP3   OH235502   4.870   1.593   1.107  0.0515  0.0884  0.5472
 4648TIP3    H135503   4.840   1.587   1.017 -1.6995 -1.9600  1.2002
 4648TIP3    H235504   4.935   1.523   1.116 -1.4422 -1.2455  1.4198
 4649TIP3   OH235505   1.698   1.071   8.417 -0.3295  0.2724 -0.5975
 4649TIP3    H135506   1.793   1.069   8.412 -0.3367  1.2811 -1.6587
 4649TIP3    H235507   1.669   0.990   8.375  0.0680 -0.5148  0.6191
 4650TIP3   OH235508   4.719   2.142   2.079 -0.4851  0.1613  0.5461
 4650TIP3    H135509   4.664   2.095   2.017  0.2099 -1.9735  1.4502
 4650TIP3    H235510   4.791   2.177   2.026 -1.7022  1.3861 -0.3446
 4651TIP3   OH235511   2.364   3.132   0.140 -0.6772 -0.2422 -0.7305
 4651TIP3    H135512   2.292   3.086   0.184 -1.7996  1.7071 -0.4115
 4651TIP3    H235513   2.397   3.069   0.076 -0.2177 -2.5077  1.5712
 4652TIP3   OH235514   6.198   2.016   8.289  0.4512  0.5586  0.7380
 4652TIP3    H135515   6.246   2.098   8.296 -0.6457  1.1545  1.4364
 4652TIP3    H235516   6.174   2.009   8.197  1.7445  0.3073  0.3974
 4653TIP3   OH235517   4.373   3.800   1.452 -0.0508  0.1425  0.2303
 4653TIP3    H135518   4.365   3.715   1.409 -0.5790  1.3287 -2.2442
 4653TIP3    H235519   4.315   3.794   1.528 -1.8284 -1.0474 -1.1173
 4654TIP3   OH235520   4.140   6.290   2.091  0.0276  0.0497  0.0911
 4654TIP3    H135521   4.225   6.269   2.129 -0.2370  0.0077  0.6715
 4654TIP3    H235522   4.142   6.385   2.077  0.7230 -0.1501 -1.2924
 4655TIP3   OH235523   3.650   2.109   7.718 -0.0715 -0.3569 -0.3369
 4655TIP3    H135524   3.742   2.136   7.724 -0.3431  0.4441  0.4889
 4655TIP3    H235525   3.653   2.013   7.711  0.8700 -0.2338 -2.0489
 4656TIP3   OH235526   3.600   1.846   2.127 -0.3080  0.2093 -0.0278
 4656TIP3    H135527   3.571   1.871   2.215 -1.1709  1.6467 -0.6741
 4656TIP3    H235528   3.566   1.916   2.071  0.6463 -0.4279 -1.4385
 4657TIP3   OH235529   0.277   0.899   0.380  0.2060 -0.1595  0.2749
 4657TIP3    H135530   0.343   0.860   0.323 -0.5977 -1.3366  0.1083
 4657TIP3    H235531   0.318   0.902   0.467  0.6715 -0.3312  0.0621
 4658TIP3   OH235532   2.958   2.123   1.484 -0.4394 -0.1326  0.2563
 4658TIP3    H135533   2.999   2.097   1.566  1.7442  0.7899 -0.4629
 4658TIP3    H235534   2.970   2.047   1.427 -1.1152 -0.4253  0.4983
 4659TIP3   OH235535   1.445   0.011   2.597  0.0774 -0.2295 -0.0379
 4659TIP3    H135536   1.444   0.014   2.693 -1.4969 -3.1288  0.1571
 4659TIP3    H235537   1.383   0.079   2.570  0.4733  0.5595  0.9857
 4660TIP3   OH235538   5.264   1.702   7.941 -0.2113 -0.2707  0.3012
 4660TIP3    H135539   5.191   1.664   7.892  0.1718  1.4354 -1.7525
 4660TIP3    H235540   5.316   1.748   7.875  1.9114 -0.1676  1.9337
 4661TIP3   OH235541   0.236   6.205   7.255  0.1257 -0.7408 -0.2143
 4661TIP3    H135542   0.228   6.143   7.182 -2.3756 -0.6450 -0.0879
 4661TIP3    H235543   0.151   6.249   7.258  0.8949  0.7167  1.4850
 4662TIP3   OH235544   1.995   6.427   1.658  0.2374  0.1793  0.8338
 4662TIP3    H135545   1.968   6.477   1.735 -1.5146 -0.0330  0.3917
 4662TIP3    H235546   2.027   6.493   1.596  2.0397  0.3179  1.8494
 4663TIP3   OH235547   5.508   4.456   8.041  0.1881 -0.1291  0.4470
 4663TIP3    H135548   5.589   4.411   8.020 -0.0020  0.0911 -0.9047
 4663TIP3    H235549   5.532   4.548   8.048  0.0301 -0.0184 -0.2899
 4664TIP3   OH235550   5.812   4.278   2.964  0.0193  0.0096 -0.3116
 4664TIP3    H135551   5.874   4.309   2.898 -1.5482  0.6392 -1.5321
 4664TIP3    H235552   5.855   4.298   3.048  1.6976 -0.0871 -1.1163
 4665TIP3   OH235553   2.690   2.129   1.571  1.1398 -0.0205  0.1851
 4665TIP3    H135554   2.780   2.118   1.541  1.8481  0.8004  1.8640
 4665TIP3    H235555   2.694   2.201   1.634 -0.9331  0.9065 -0.6379
 4666TIP3   OH235556   4.654   6.623   0.578  0.4045  0.0096  0.0747
 4666TIP3    H135557   4.587   6.558   0.600 -0.9967  1.4516  0.2631
 4666TIP3    H235558   4.604   6.698   0.544  1.9902  0.8354 -0.5056
 4667TIP3   OH235559   0.538   4.064   1.152 -0.5083 -0.0659  0.7833
 4667TIP3    H135560   0.514   4.132   1.089 -0.1326 -1.0845 -0.5281
 4667TIP3    H235561   0.481   3.990   1.130 -0.5319 -0.3680  1.8090
 4668TIP3   OH235562   0.007   6.509   1.583  0.5252 -0.3363 -0.1733
 4668TIP3    H135563  -0.024   6.445   1.519  0.8139 -1.4947  0.7895
 4668TIP3    H235564   0.082   6.551   1.541  1.5113 -1.9817 -0.1586
 4669TIP3   OH235565   4.478   1.277   1.521  0.1270 -0.1239  0.2129
 4669TIP3    H135566   4.408   1.231   1.475 -1.1461 -0.5564  2.3926
 4669TIP3    H235567   4.493   1.356   1.470 -2.2867  0.1898 -0.1382
 4670TIP3   OH235568   1.123   1.426   7.579 -0.2663  0.2661 -0.6473
 4670TIP3    H135569   1.204   1.410   7.628 -1.2430 -1.0451  0.6220
 4670TIP3    H235570   1.148   1.414   7.487  0.7517 -1.3482 -0.2024
 4671TIP3   OH235571   0.529   5.488   0.767 -0.0467  0.1280 -0.1560
 4671TIP3    H135572   0.604   5.429   0.776  0.8206  0.7280 -2.6289
 4671TIP3    H235573   0.453   5.433   0.783  0.8413 -0.7898  1.1342
 4672TIP3   OH235574   4.811   4.199   2.894  0.2371  0.1594  0.1183
 4672TIP3    H135575   4.859   4.209   2.976 -0.9595  1.7128  0.6844
 4672TIP3    H235576   4.805   4.105   2.881  0.3233 -0.1331  1.9105
 4673TIP3   OH235577   1.349   5.133   7.607 -0.4376  0.4954  0.3497
 4673TIP3    H135578   1.291   5.208   7.619 -0.4131  0.7046 -0.7657
 4673TIP3    H235579   1.304   5.077   7.544  0.7899  0.9180 -0.9377
 4674TIP3   OH235580   5.287   2.269   0.455 -0.6810  0.2517  0.8356
 4674TIP3    H135581   5.223   2.198   0.445 -0.7200  0.5422 -1.8550
 4674TIP3    H235582   5.372   2.226   0.445 -0.6336  0.3683  0.7344
 4675TIP3   OH235583   6.119   0.904   7.901  0.0826  0.0286 -0.6734
 4675TIP3    H135584   6.212   0.881   7.902 -0.0701 -0.6137 -0.9734
 4675TIP3    H235585   6.119   1.000   7.890  0.7125  0.1405  0.1630
 4676TIP3   OH235586   0.686   6.274   7.926  0.2372 -0.3015 -0.1997
 4676TIP3    H135587   0.682   6.243   7.835 -2.9785 -0.3935 -0.1406
 4676TIP3    H235588   0.662   6.198   7.978 -0.4901  0.3997  0.5114
 4677TIP3   OH235589   0.980   6.346   8.628 -0.0116  0.1609 -0.6821
 4677TIP3    H135590   0.914   6.410   8.654  2.2543  1.2776  3.2214
 4677TIP3    H235591   1.049   6.399   8.587  1.0134  0.0493  0.8013
 4678TIP3   OH235592   3.273   2.530   2.235 -0.1711 -0.2088  0.5486
 4678TIP3    H135593   3.303   2.523   2.144 -3.3806 -0.3684 -0.6191
 4678TIP3    H235594   3.322   2.604   2.270  0.2361  0.7142 -1.7443
 4679TIP3   OH235595   0.206   6.001   1.858 -0.6311 -0.6145  0.7187
 4679TIP3    H135596   0.216   6.065   1.929  4.1386  0.4312 -0.5626
 4679TIP3    H235597   0.212   5.916   1.901  0.6565 -0.0149  1.8038
 4680TIP3   OH235598   0.922   1.438   7.829 -0.0793 -0.7347 -0.3368
 4680TIP3    H135599   0.964   1.376   7.770  1.8340  0.8015 -0.6808
 4680TIP3    H235600   0.992   1.497   7.857 -1.7195  1.0651  0.2471
 4681TIP3   OH235601   1.672   3.521   2.611  0.2219  0.3077  0.3522
 4681TIP3    H135602   1.664   3.527   2.707  1.0459 -3.5313  0.8454
 4681TIP3    H235603   1.720   3.600   2.586 -0.7872  1.8940  2.9302
 4682TIP3   OH235604   6.500   3.442   7.779  0.2150  0.2778 -0.5707
 4682TIP3    H135605   6.487   3.537   7.787  2.3339  0.7303 -1.6760
 4682TIP3    H235606   6.504   3.427   7.684 -0.0100 -0.9128 -0.4023
 4683TIP3   OH235607   2.491   5.276   8.657  0.4321 -0.0852 -0.1712
 4683TIP3    H135608   2.518   5.352   8.708 -0.4550  0.7003 -0.8218
 4683TIP3    H235609   2.431   5.229   8.713  2.1924 -1.2236  0.8514
 4684TIP3   OH235610   1.760   2.747   7.976  0.3105  0.3899 -0.0579
 4684TIP3    H135611   1.738   2.703   8.058  1.5017 -0.4986 -0.2043
 4684TIP3    H235612   1.692   2.719   7.915 -0.9486  1.5460  0.7514
 4685TIP3   OH235613   0.541   5.781   1.880 -0.0055  0.0844 -0.0898
 4685TIP3    H135614   0.588   5.702   1.909 -0.1467 -0.4057 -1.1281
 4685TIP3    H235615   0.464   5.748   1.835  0.6117  0.7440 -1.7234
 4686TIP3   OH235616   2.318   3.402   0.268 -0.4236  0.2220  0.3951
 4686TIP3    H135617   2.409   3.414   0.294 -0.1438  0.7890 -0.8270
 4686TIP3    H235618   2.316   3.316   0.226 -0.2505  0.6026 -0.4094
 4687TIP3   OH235619   3.385   1.712   8.220  0.0748  0.5290 -0.2170
 4687TIP3    H135620   3.355   1.688   8.308  1.0745  0.3541  0.0854
 4687TIP3    H235621   3.334   1.657   8.161 -0.0609  0.0998  0.2943
 4688TIP3   OH235622   2.621   4.537   7.662 -0.0646  0.1740 -0.2837
 4688TIP3    H135623   2.680   4.502   7.595 -0.5470  1.8513 -1.6454
 4688TIP3    H235624   2.578   4.459   7.698  3.0793 -1.1446  0.9782
 4689TIP3   OH235625   2.248   5.856   8.569 -0.2408  0.1627  0.7492
 4689TIP3    H135626   2.237   5.786   8.633  1.0153 -0.0382  0.7545
 4689TIP3    H235627   2.272   5.811   8.488  0.1861  0.5604  0.6506
 4690TIP3   OH235628   4.860   0.166   2.238  0.4105  0.0928  0.4104
 4690TIP3    H135629   4.901   0.242   2.280  3.6754 -1.4425  0.3083
 4690TIP3    H235630   4.845   0.193   2.148 -0.9302  1.4184  0.9976
 4691TIP3   OH235631   2.228   0.937   2.304  0.1010  0.4105  0.1763
 4691TIP3    H135632   2.200   0.931   2.212 -0.6081  0.9812  0.3461
 4691TIP3    H235633   2.153   0.907   2.354  0.3395  0.4942  0.5885
 4692TIP3   OH235634   2.118   1.065   1.506 -0.2310 -0.3608 -0.4718
 4692TIP3    H135635   2.194   1.104   1.551  0.2850 -1.3962 -0.4242
 4692TIP3    H235636   2.091   1.132   1.443  1.4723 -0.4181 -1.3337
 4693TIP3   OH235637   5.947   0.772   1.806  0.3042  0.6963  0.0863
 4693TIP3    H135638   5.975   0.729   1.887  1.2436 -1.0099 -1.0780
 4693TIP3    H235639   5.983   0.861   1.812  2.7183 -0.2301  0.3723
 4694TIP3   OH235640   0.230   4.345   7.616 -0.9431 -0.0991 -0.1214
 4694TIP3    H135641   0.231   4.402   7.539 -0.0558 -1.8603 -1.4900
 4694TIP3    H235642   0.316   4.303   7.616 -1.1472 -0.5863  1.5159
 4695TIP3   OH235643   0.425   3.258   0.877  0.2954  0.0424  0.0533
 4695TIP3    H135644   0.433   3.162   0.870  0.8444  0.1082 -0.3301
 4695TIP3    H235645   0.357   3.272   0.943  0.8948 -0.6169  0.8340
 4696TIP3   OH235646   5.529   3.643   0.409  0.5506  0.4773  0.2923
 4696TIP3    H135647   5.507   3.562   0.363  1.7276 -0.3570  1.1310
 4696TIP3    H235648   5.483   3.637   0.492 -2.1531  2.3078 -0.9094
 4697TIP3   OH235649   3.293   0.133   0.970 -0.3505  0.3067  0.2540
 4697TIP3    H135650   3.376   0.163   0.933  0.7864  0.6188  2.8500
 4697TIP3    H235651   3.226   0.180   0.919  1.1343  1.8033 -0.4118
 4698TIP3   OH235652   1.110   4.588   0.932  0.6509  0.1108 -0.4192
 4698TIP3    H135653   1.105   4.675   0.971 -0.9765  0.2254 -0.7882
 4698TIP3    H235654   1.194   4.586   0.887  2.4004  0.1363  2.6030
 4699TIP3   OH235655   0.782   1.348   8.252 -0.1255 -0.5138  0.3783
 4699TIP3    H135656   0.713   1.316   8.309  0.3043  1.1469  1.9198
 4699TIP3    H235657   0.841   1.396   8.310  2.9136 -2.6767 -0.6787
 4700TIP3   OH235658   2.180   6.210   1.100  0.0501  0.1073  0.4286
 4700TIP3    H135659   2.274   6.194   1.090 -0.0557  0.1249 -0.7233
 4700TIP3    H235660   2.167   6.299   1.067 -0.8835 -1.1579 -3.1560
 4701TIP3   OH235661   0.443   3.627   2.389 -0.5031  0.4536  0.3931
 4701TIP3    H135662   0.430   3.635   2.484 -1.0821 -0.6874  0.4362
 4701TIP3    H235663   0.429   3.534   2.372  0.6860  0.4453 -0.6566
 4702TIP3   OH235664   4.407   0.036   1.264 -0.0434  0.4021  0.5445
 4702TIP3    H135665   4.441  -0.041   1.219  0.5394 -0.1401  1.8377
 4702TIP3    H235666   4.312   0.031   1.255 -0.0179 -0.5645  0.7484
 4703TIP3   OH235667   2.163   6.484   1.058 -0.5172  0.1093 -0.1471
 4703TIP3    H135668   2.098   6.550   1.083  0.7980  1.4604 -0.1489
 4703TIP3    H235669   2.184   6.504   0.967  1.4003  1.0628  0.4533
 4704TIP3   OH235670   3.755   0.434   2.291 -0.0308 -0.8191 -0.6778
 4704TIP3    H135671   3.736   0.498   2.360 -1.8308 -0.8436 -1.1045
 4704TIP3    H235672   3.736   0.349   2.330 -1.6742 -0.7948 -1.3504
 4705TIP3   OH235673   0.810   4.649   0.992  0.6250 -0.0537 -0.2098
 4705TIP3    H135674   0.792   4.736   0.957 -0.2025  0.3920  1.2513
 4705TIP3    H235675   0.901   4.653   1.021  0.9268 -0.0343 -1.1400
 4706TIP3   OH235676   4.869   3.642   1.826  0.1582 -0.5747  0.1857
 4706TIP3    H135677   4.946   3.586   1.821  0.2994 -0.3123 -0.7649
 4706TIP3    H235678   4.901   3.729   1.804 -0.4687 -0.5280 -0.5735
 4707TIP3   OH235679   0.404   3.270   0.390  0.0006 -0.7926  0.6141
 4707TIP3    H135680   0.481   3.320   0.414 -0.0554 -0.2426 -0.3107
 4707TIP3    H235681   0.335   3.303   0.447  0.1469 -0.3636  0.5462
 4708TIP3   OH235682   2.763   3.668   0.390 -0.0034  0.3330  0.3243
 4708TIP3    H135683   2.842   3.667   0.444  2.1293 -2.3077 -2.4710
 4708TIP3    H235684   2.786   3.723   0.315 -1.3520  0.6576  0.1359
 4709TIP3   OH235685   5.323   4.515   1.888 -0.1715  0.2595 -0.3752
 4709TIP3    H135686   5.344   4.561   1.807  1.3246 -0.0139 -0.1567
 4709TIP3    H235687   5.406   4.479   1.918 -0.9906 -1.0764  0.3952
 4710TIP3   OH235688   6.407   5.659   2.590  0.2940  0.2470  0.1278
 4710TIP3    H135689   6.336   5.680   2.650 -1.0862 -1.2192 -0.9104
 4710TIP3    H235690   6.464   5.736   2.593 -1.0141  1.2279  1.4392
 4711TIP3   OH235691   5.724   0.023   7.224  1.1218 -0.0116  0.2044
 4711TIP3    H135692   5.653   0.070   7.268  0.4603 -1.3869  0.6707
 4711TIP3    H235693   5.767  -0.026   7.293  1.0464 -0.9954 -0.4276
 4712TIP3   OH235694   6.779   0.630   7.691 -0.3280 -0.2158  0.2903
 4712TIP3    H135695   6.769   0.634   7.787 -0.4898 -1.6066  0.3581
 4712TIP3    H235696   6.855   0.685   7.673 -0.8761  0.8551  1.1025
 4713TIP3   OH235697   1.503   6.811   7.898  0.2687  0.2386 -0.6286
 4713TIP3    H135698   1.514   6.889   7.953  0.8500 -0.6068  0.4921
 4713TIP3    H235699   1.422   6.771   7.929 -0.9583  1.2529 -2.3395
 4714TIP3   OH235700   4.027   3.482   0.145 -0.0320  0.0174 -0.1340
 4714TIP3    H135701   3.970   3.505   0.219  0.7566 -0.7332  0.7370
 4714TIP3    H235702   4.013   3.388   0.134  1.8802 -0.4319  0.8732
 4715TIP3   OH235703   2.245   4.942   1.611 -0.1375 -0.3325  0.6953
 4715TIP3    H135704   2.197   4.912   1.533  0.0412 -0.5499  0.6656
 4715TIP3    H235705   2.211   5.029   1.629 -1.6949 -1.0938  1.6331
 4716TIP3   OH235706   4.669   2.032   8.689  0.2574 -0.2619 -0.5643
 4716TIP3    H135707   4.680   2.113   8.639 -1.2827  0.5864  0.3932
 4716TIP3    H235708   4.577   2.008   8.677  0.0441 -0.4518  1.1974
 4717TIP3   OH235709   1.705   3.034   7.770  0.0134 -0.1003  0.0973
 4717TIP3    H135710   1.694   3.006   7.679  0.6962  1.4955 -0.5216
 4717TIP3    H235711   1.779   2.983   7.802 -0.6808 -1.1854 -0.0056
 4718TIP3   OH235712   0.879   2.691   2.501 -0.3482  0.0297 -0.0010
 4718TIP3    H135713   0.881   2.751   2.576  1.9656 -0.3103  0.2964
 4718TIP3    H235714   0.841   2.610   2.536  0.6829 -0.1180  0.8395
 4719TIP3   OH235715   3.616   0.877   7.446  0.5156  0.2497  0.2641
 4719TIP3    H135716   3.606   0.969   7.420  1.4451 -0.1538 -1.6639
 4719TIP3    H235717   3.526   0.848   7.465  0.0802  1.2406 -0.2141
 4720TIP3   OH235718   2.298   3.136   0.773 -0.2999 -0.1884  0.1189
 4720TIP3    H135719   2.251   3.125   0.856  0.1127 -3.4191  0.0537
 4720TIP3    H235720   2.229   3.150   0.708 -0.5907  3.1962  0.9789
 4721TIP3   OH235721   4.755   2.506   2.218 -0.4124  0.6528  0.4602
 4721TIP3    H135722   4.733   2.424   2.263  1.6565  0.2921  0.8882
 4721TIP3    H235723   4.694   2.510   2.144 -1.6804 -0.3878  1.4027
 4722TIP3   OH235724   5.728   4.480   0.146 -0.1450 -0.7295 -0.0357
 4722TIP3    H135725   5.712   4.571   0.170  0.8355 -0.9434  1.6239
 4722TIP3    H235726   5.824   4.473   0.144 -0.2136 -1.5796 -0.7746
 4723TIP3   OH235727   1.352   1.113   7.728 -0.3306  0.1021 -0.1339
 4723TIP3    H135728   1.270   1.073   7.758 -0.9842  0.7466 -1.0112
 4723TIP3    H235729   1.375   1.175   7.797  0.3065 -1.2232  0.8915
 4724TIP3   OH235730   0.119   5.909   1.622  0.4412 -0.0271 -0.2244
 4724TIP3    H135731   0.138   5.945   1.708 -2.0771  3.4352 -0.8989
 4724TIP3    H235732   0.031   5.873   1.630  0.1671  0.3544 -1.3423
 4725TIP3   OH235733   6.631   3.173   1.797  0.4050  0.1311  0.0338
 4725TIP3    H135734   6.583   3.093   1.779  0.1698  0.6747 -1.9607
 4725TIP3    H235735   6.573   3.224   1.855  1.4643 -1.9501  3.2076
 4726TIP3   OH235736   3.346   1.119   1.011  0.4446  0.5860 -0.2069
 4726TIP3    H135737   3.309   1.193   0.963 -0.9719  0.4154  0.5535
 4726TIP3    H235738   3.281   1.100   1.080  0.6651 -1.4704 -0.4949
 4727TIP3   OH235739   6.152   3.459   1.630  0.0258 -0.3666 -0.1776
 4727TIP3    H135740   6.212   3.461   1.705  0.2313  0.8634 -0.3625
 4727TIP3    H235741   6.145   3.550   1.602 -1.6196 -0.5447 -0.4312
 4728TIP3   OH235742   5.243   5.526   2.413 -0.2312  0.0743 -0.3232
 4728TIP3    H135743   5.306   5.598   2.422 -0.2601 -0.1197  1.9328
 4728TIP3    H235744   5.255   5.474   2.492  0.2235 -2.8298 -2.1626
 4729TIP3   OH235745   1.510   4.327   8.526  0.4157 -0.5740  0.3136
 4729TIP3    H135746   1.439   4.269   8.499 -0.7638  0.8324  0.2953
 4729TIP3    H235747   1.495   4.343   8.619  1.4598 -1.2596  0.6207
 4730TIP3   OH235748   1.920   6.485   1.296  0.7978  0.4336 -0.8054
 4730TIP3    H135749   1.945   6.544   1.225 -0.3144  1.8199 -0.0882
 4730TIP3    H235750   1.962   6.522   1.374 -0.3649  0.6050 -0.2502
 4731TIP3   OH235751   6.645   1.654   3.025 -0.3224  0.2907  0.4976
 4731TIP3    H135752   6.740   1.668   3.022 -0.2078 -0.4484  0.6752
 4731TIP3    H235753   6.612   1.730   3.074  0.2275  0.2906  0.8824
 4732TIP3   OH235754   6.814   3.629   8.427  0.5274 -0.4212  0.0624
 4732TIP3    H135755   6.838   3.559   8.366  0.0472  1.2674 -2.1879
 4732TIP3    H235756   6.740   3.673   8.385  1.1898  1.8227  1.0786
 4733TIP3   OH235757   4.509   4.015   6.964  0.1133  0.4498 -0.1571
 4733TIP3    H135758   4.492   4.104   6.996  0.4046 -0.3322  2.3880
 4733TIP3    H235759   4.605   4.008   6.965  0.1707  0.5885 -1.9053
 4734TIP3   OH235760   4.747   4.737   2.323  0.0129 -0.0403 -0.4691
 4734TIP3    H135761   4.664   4.723   2.277 -0.6227  1.2590  0.2433
 4734TIP3    H235762   4.785   4.649   2.330 -1.0116 -0.5758 -1.3298
 4735TIP3   OH235763   5.163   0.768   1.916 -0.2165 -0.0843 -0.2641
 4735TIP3    H135764   5.072   0.752   1.941 -0.3221 -1.2154 -1.3102
 4735TIP3    H235765   5.188   0.692   1.864  0.5133  1.3609 -2.1556
 4736TIP3   OH235766   0.523   3.952   0.838 -0.0837 -0.3671  0.1921
 4736TIP3    H135767   0.450   3.990   0.789 -0.4852  0.9978  1.7657
 4736TIP3    H235768   0.577   4.026   0.864  1.1717 -1.2397  0.1723
 4737TIP3   OH235769   2.421   0.944   0.759  0.5143  0.0762  0.4722
 4737TIP3    H135770   2.398   0.885   0.831  0.1585  0.0529  0.3429
 4737TIP3    H235771   2.360   0.921   0.689  0.0831  0.8798  0.5667
 4738TIP3   OH235772   6.244   5.209   1.664  0.2219  0.4075 -0.1854
 4738TIP3    H135773   6.231   5.143   1.732 -1.2046  1.4794  0.6352
 4738TIP3    H235774   6.159   5.254   1.657  0.5485  0.7997 -2.1719
 4739TIP3   OH235775   6.645   4.013   1.940  0.6406  0.0288 -0.1216
 4739TIP3    H135776   6.678   4.003   1.851  1.9474 -1.7914  0.5096
 4739TIP3    H235777   6.724   4.013   1.995 -0.2178 -2.0585  1.2462
 4740TIP3   OH235778   1.501   2.359   0.613  0.4267 -0.2453  0.4274
 4740TIP3    H135779   1.407   2.377   0.606  0.5987  0.3041 -0.6353
 4740TIP3    H235780   1.537   2.433   0.660  0.2229 -0.8294  1.5252
 4741TIP3   OH235781   6.115   0.656   0.800  0.4314 -0.4630 -0.2771
 4741TIP3    H135782   6.044   0.719   0.815  0.6566 -0.5467  1.3255
 4741TIP3    H235783   6.154   0.643   0.887  2.8592  0.0804 -1.2029
 4742TIP3   OH235784   3.658   0.987   6.538 -0.0360  0.3165 -0.7852
 4742TIP3    H135785   3.677   1.079   6.522 -1.7044  1.2970  2.1101
 4742TIP3    H235786   3.700   0.969   6.623 -1.4356 -0.9636 -0.3244
 4743TIP3   OH235787   6.105   2.104   2.750 -0.0329  0.1075  0.3188
 4743TIP3    H135788   6.020   2.061   2.761 -0.8620  1.0509 -1.8367
 4743TIP3    H235789   6.085   2.186   2.704  2.2853 -1.3226 -3.7741
 4744TIP3   OH235790   6.095   4.145   3.265 -0.0108  0.0670 -0.2070
 4744TIP3    H135791   6.100   4.090   3.187 -0.9659  0.0460 -0.2695
 4744TIP3    H235792   6.018   4.201   3.250  0.2347  0.5752  0.3866
 4745TIP3   OH235793   0.181   0.330   8.450 -0.2740 -0.8847 -0.2603
 4745TIP3    H135794   0.161   0.402   8.391 -1.1167 -0.2074  0.8103
 4745TIP3    H235795   0.277   0.325   8.449 -0.1310  0.8495  0.2931
 4746TIP3   OH235796   2.195   1.534   8.143 -0.2735  0.8199 -0.1991
 4746TIP3    H135797   2.259   1.543   8.214  0.0783  0.0736 -0.4163
 4746TIP3    H235798   2.180   1.624   8.114  0.6153  1.0185 -0.0885
 4747TIP3   OH235799   5.729   0.508   8.444 -0.5533 -0.2927 -0.4131
 4747TIP3    H135800   5.642   0.512   8.403 -0.6027 -1.1099 -0.4071
 4747TIP3    H235801   5.744   0.596   8.477 -1.5834 -0.2451 -0.0266
 4748TIP3   OH235802   2.988   5.215   0.221  0.4380  0.5324 -0.0180
 4748TIP3    H135803   3.081   5.222   0.244  0.8190 -1.9559 -0.4800
 4748TIP3    H235804   2.960   5.133   0.262 -1.0517  0.2912 -1.4170
 4749TIP3   OH235805   1.953   5.804   7.399  0.5368  0.2600 -0.6546
 4749TIP3    H135806   1.953   5.716   7.437 -0.8562 -0.2038 -1.6671
 4749TIP3    H235807   2.030   5.804   7.341  1.1535  0.0877  0.1403
 4750TIP3   OH235808   1.556   3.651   7.321 -0.5172  0.3525  0.6913
 4750TIP3    H135809   1.580   3.569   7.364 -3.5325 -0.1724  1.6478
 4750TIP3    H235810   1.528   3.708   7.392  0.6860  1.9378 -0.0564
 4751TIP3   OH235811   2.118   2.193   1.044  0.7040  0.1995 -0.4554
 4751TIP3    H135812   2.172   2.219   0.969 -1.2487 -1.0695 -2.4544
 4751TIP3    H235813   2.176   2.201   1.119  2.3826  2.8687 -1.8795
 4752TIP3   OH235814   2.273   1.534   2.969  0.4399 -0.7668  0.1338
 4752TIP3    H135815   2.358   1.513   3.007  0.6493 -0.2732 -0.0413
 4752TIP3    H235816   2.286   1.523   2.875  0.8066  0.8814 -0.0479
 4753TIP3   OH235817   0.715   5.074   7.985 -0.1935  0.4158  0.6407
 4753TIP3    H135818   0.708   5.014   7.911  3.1540 -0.2905  0.7141
 4753TIP3    H235819   0.626   5.105   8.000 -2.1950 -4.3483  0.4971
 4754TIP3   OH235820   2.654   6.743   8.419  0.2803  0.0506  0.5040
 4754TIP3    H135821   2.669   6.808   8.350  1.2424  1.0371  1.6180
 4754TIP3    H235822   2.659   6.659   8.373 -0.2452  0.7052 -0.8312
 4755TIP3   OH235823   4.445   5.016   7.889  0.6374  0.4311  0.5386
 4755TIP3    H135824   4.530   5.000   7.929  0.1208  1.5603  2.1736
 4755TIP3    H235825   4.461   5.087   7.827  0.9361  0.4346  0.6202
 4756TIP3   OH235826   0.138   5.142   7.323 -0.3947 -0.0012  0.7091
 4756TIP3    H135827   0.168   5.233   7.328 -0.6131  0.0195  1.7815
 4756TIP3    H235828   0.216   5.093   7.294 -1.2922  1.0136 -4.2875
 4757TIP3   OH235829   4.544   4.547   8.373  0.0224  0.1917  0.5815
 4757TIP3    H135830   4.623   4.540   8.320  0.0909  1.5029  0.4813
 4757TIP3    H235831   4.522   4.640   8.372 -0.9388 -0.0021  1.4603
 4758TIP3   OH235832   6.560   2.239   0.131  0.2086 -0.2552  0.2595
 4758TIP3    H135833   6.575   2.188   0.211 -1.2755 -1.0842  0.0546
 4758TIP3    H235834   6.465   2.233   0.116  0.2299  1.2442 -0.6775
 4759TIP3   OH235835   0.423   1.394   7.802  0.2781  0.6609  0.1285
 4759TIP3    H135836   0.451   1.477   7.839  2.9617 -0.5986  1.2160
 4759TIP3    H235837   0.413   1.336   7.877 -0.5734 -0.2763 -0.6820
 4760TIP3   OH235838   4.733   0.369   8.338 -0.3170 -0.7418  0.1301
 4760TIP3    H135839   4.743   0.451   8.289 -0.7027 -0.8572 -0.1479
 4760TIP3    H235840   4.640   0.349   8.331 -0.4445 -0.5589  1.2462
 4761TIP3   OH235841   3.026   5.825   8.429  1.2216 -0.4473 -0.4637
 4761TIP3    H135842   3.100   5.861   8.478  0.7999  1.3461 -1.0721
 4761TIP3    H235843   2.976   5.902   8.401  0.2022 -1.5290 -1.7497
 4762TIP3   OH235844   2.362   2.065   1.219 -0.1033 -0.8107  0.2001
 4762TIP3    H135845   2.438   2.115   1.251 -1.0838  0.5761  0.4458
 4762TIP3    H235846   2.373   2.064   1.124  0.4078 -0.9169  0.2576
 4763TIP3   OH235847   0.022   6.321   8.650 -0.4464 -0.3319 -0.0850
 4763TIP3    H135848   0.001   6.230   8.626 -0.8106  0.0921 -1.5018
 4763TIP3    H235849   0.012   6.370   8.568  3.1093  0.4577 -0.2012
 4764TIP3   OH235850   1.337   1.586   2.207 -0.1774 -0.4833 -0.7999
 4764TIP3    H135851   1.411   1.557   2.260 -1.1158 -1.0196  0.2601
 4764TIP3    H235852   1.349   1.542   2.123 -0.2118 -1.9728 -0.0587
 4765TIP3   OH235853   2.774   3.325   2.120  0.2527 -0.3393 -0.2335
 4765TIP3    H135854   2.781   3.411   2.079  2.8931 -0.1879  0.3976
 4765TIP3    H235855   2.805   3.338   2.209 -0.2690 -1.7674  0.1874
 4766TIP3   OH235856   0.688   5.529   7.548  0.3602 -0.5248 -0.2968
 4766TIP3    H135857   0.652   5.462   7.490  3.2844  0.5374 -3.6983
 4766TIP3    H235858   0.781   5.507   7.557  0.6740  1.1663  1.3962
 4767TIP3   OH235859   4.814   1.962   1.797 -0.4379 -0.0207  0.9106
 4767TIP3    H135860   4.821   2.054   1.824 -0.9366  0.4778 -0.5688
 4767TIP3    H235861   4.763   1.965   1.717  0.1876 -1.5318  0.4341
 4768TIP3   OH235862   2.811   2.280   8.707 -0.1997  0.3426 -0.1419
 4768TIP3    H135863   2.724   2.299   8.673 -0.2832 -0.2897 -0.2914
 4768TIP3    H235864   2.811   2.318   8.795 -1.6123 -2.0197  0.9828
 4769TIP3   OH235865   2.335   3.565   1.046 -0.2564 -0.6079  0.1789
 4769TIP3    H135866   2.399   3.610   0.991  0.0776 -1.4070 -0.1053
 4769TIP3    H235867   2.375   3.480   1.066 -2.2011 -2.2394 -2.1155
 4770TIP3   OH235868   5.207   6.122   7.850 -0.5828 -0.5081 -0.2620
 4770TIP3    H135869   5.295   6.087   7.840  1.1997  2.9773  1.4215
 4770TIP3    H235870   5.203   6.194   7.786 -2.0427 -0.3385 -0.0091
 4771TIP3   OH235871   1.806   1.500   2.777  0.5923  0.2262 -0.1065
 4771TIP3    H135872   1.888   1.531   2.816  0.0458 -1.2112  2.3527
 4771TIP3    H235873   1.744   1.572   2.789  0.9076  0.4776  0.0247
 4772TIP3   OH235874   1.863   3.456   6.897  0.3321  0.4440  0.1366
 4772TIP3    H135875   1.835   3.471   6.987  1.9306  2.1356  0.4130
 4772TIP3    H235876   1.861   3.543   6.856 -1.2655 -0.3976 -1.7998
 4773TIP3   OH235877   6.469   0.274   8.055  0.0103  0.3480  0.4870
 4773TIP3    H135878   6.479   0.188   8.013  1.3161  1.0019 -0.6258
 4773TIP3    H235879   6.378   0.298   8.039 -0.2078 -0.5739  0.3030
 4774TIP3   OH235880   0.850   5.623   2.310 -0.1080 -0.1539  0.2453
 4774TIP3    H135881   0.864   5.543   2.361  0.2477 -0.3170 -0.0998
 4774TIP3    H235882   0.935   5.639   2.268 -0.3590  0.0563 -0.1829
 4775TIP3   OH235883   1.531   4.961   1.413  0.5138  0.2152 -0.4161
 4775TIP3    H135884   1.534   4.899   1.485  1.9419  1.8531  1.0283
 4775TIP3    H235885   1.459   5.021   1.435 -1.0661 -0.9934 -1.9543
 4776TIP3   OH235886   2.299   0.034   0.663 -0.2497 -0.1835 -0.4266
 4776TIP3    H135887   2.306   0.081   0.746  0.2026  0.7696 -0.9800
 4776TIP3    H235888   2.221   0.070   0.622 -0.3927 -0.5520 -0.4808
 4777TIP3   OH235889   5.800   4.310   8.284  0.4373  0.4404  0.6497
 4777TIP3    H135890   5.749   4.391   8.284 -1.3212 -0.5211 -2.5840
 4777TIP3    H235891   5.735   4.241   8.271  1.9667 -1.5296  2.6073
 4778TIP3   OH235892   3.737   6.418   2.588  0.1243  0.1737  0.6988
 4778TIP3    H135893   3.731   6.347   2.652  1.2354 -0.8921 -0.3265
 4778TIP3    H235894   3.810   6.472   2.617  0.5037 -0.1998  0.4471
 4779TIP3   OH235895   4.640   2.584   0.269  0.2475 -0.2658 -0.4810
 4779TIP3    H135896   4.651   2.490   0.287  0.0351 -0.4225 -1.1477
 4779TIP3    H235897   4.596   2.587   0.184  0.1152  0.4389 -0.3926
 4780TIP3   OH235898   2.520   0.298   2.796  0.1518 -0.1848 -0.8455
 4780TIP3    H135899   2.463   0.346   2.736 -0.7760  0.7721  0.7332
 4780TIP3    H235900   2.585   0.363   2.823 -1.5510  0.5133  1.8888
 4781TIP3   OH235901   5.338   1.853   0.257 -0.3590  0.0227 -0.0712
 4781TIP3    H135902   5.346   1.920   0.188  0.3733 -0.0310 -0.0424
 4781TIP3    H235903   5.357   1.771   0.213  2.0864  0.1785  0.5751
 4782TIP3   OH235904   2.897   1.497   8.008 -0.0850  0.2729 -0.3962
 4782TIP3    H135905   2.950   1.564   7.966 -0.4014  1.1001  0.4856
 4782TIP3    H235906   2.959   1.427   8.031  0.5619  1.0437  0.2539
 4783TIP3   OH235907   5.434   0.281   0.350  0.1444  0.2936  0.6749
 4783TIP3    H135908   5.482   0.328   0.282 -1.7817  0.2311 -0.8245
 4783TIP3    H235909   5.393   0.349   0.403  1.9870  0.3562  2.1365
 4784TIP3   OH235910   2.875   6.534   0.225  0.2898  0.1601  0.4141
 4784TIP3    H135911   2.810   6.593   0.187  0.5367 -1.2304 -2.4554
 4784TIP3    H235912   2.830   6.493   0.299 -0.6221  2.2279  1.0850
 4785TIP3   OH235913   1.340   2.245   1.411  0.2243 -0.1532 -0.2954
 4785TIP3    H135914   1.295   2.162   1.424 -0.4439  0.5529  2.5398
 4785TIP3    H235915   1.404   2.249   1.482  1.0286  1.2674 -1.0532
 4786TIP3   OH235916   5.698   5.941   1.464  0.2674  0.4903  0.1299
 4786TIP3    H135917   5.719   5.851   1.490  1.6638  1.0946  1.2659
 4786TIP3    H235918   5.662   5.933   1.376  1.5703 -1.0836 -0.3143
 4787TIP3   OH235919   4.338   3.273   1.424  0.4053 -0.0387 -0.2050
 4787TIP3    H135920   4.392   3.257   1.501  0.3092 -0.3872 -0.2080
 4787TIP3    H235921   4.371   3.213   1.358 -0.6613 -1.0341  0.1248
 4788TIP3   OH235922   4.446   5.383   1.321  0.2369  0.2179 -0.0976
 4788TIP3    H135923   4.428   5.406   1.230 -0.6652 -1.1957 -0.3103
 4788TIP3    H235924   4.542   5.388   1.328  0.8401 -3.8421 -2.4043
 4789TIP3   OH235925   4.430   6.104   7.244 -0.1229 -0.1851  0.2893
 4789TIP3    H135926   4.500   6.040   7.256  0.9447  0.7719 -0.5995
 4789TIP3    H235927   4.466   6.169   7.183 -1.5087  0.7544  0.4067
 4790TIP3   OH235928   1.489   6.015   1.566 -0.1749 -0.4265  0.4930
 4790TIP3    H135929   1.398   6.021   1.535 -0.6454 -1.8520  1.4827
 4790TIP3    H235930   1.486   6.053   1.654  0.7172  1.6660 -0.3028
 4791TIP3   OH235931   6.067   0.610   8.659 -0.2378  0.0201  0.5865
 4791TIP3    H135932   6.013   0.532   8.664  0.7213 -0.7533 -0.5088
 4791TIP3    H235933   6.156   0.577   8.646  0.2913  1.2752  0.8377
 4792TIP3   OH235934   6.814   1.673   7.090  0.1622  0.4152 -0.1021
 4792TIP3    H135935   6.876   1.602   7.105 -1.4831 -0.9475  0.5970
 4792TIP3    H235936   6.847   1.745   7.143  0.3232 -0.7877  1.5096
 4793TIP3   OH235937   5.826   6.843   2.042  0.5697 -0.3741  0.3941
 4793TIP3    H135938   5.919   6.847   2.067  0.2204 -0.8699  1.8790
 4793TIP3    H235939   5.783   6.799   2.116 -1.0563  1.0430  0.3546
 4794TIP3   OH235940   3.145   4.789   1.440 -0.0646  0.8141  0.5795
 4794TIP3    H135941   3.137   4.817   1.531  0.0391  0.8534  0.5764
 4794TIP3    H235942   3.234   4.756   1.432 -0.5622 -0.6740  0.8980
 4795TIP3   OH235943   1.747   4.622   0.561 -0.1062  0.5839  0.9831
 4795TIP3    H135944   1.760   4.544   0.616  2.9687  0.7997  0.7462
 4795TIP3    H235945   1.717   4.587   0.477  1.5247 -0.4404  0.7841
 4796TIP3   OH235946   4.504   2.348   0.446  0.1415  0.6371  0.0467
 4796TIP3    H135947   4.487   2.384   0.533 -0.0558  0.3046  0.1488
 4796TIP3    H235948   4.420   2.311   0.418  0.4068  0.0069  0.0699
 4797TIP3   OH235949   1.760   2.807   8.449 -0.1305  0.1407 -0.2911
 4797TIP3    H135950   1.840   2.819   8.397 -0.6061 -0.9597 -1.3348
 4797TIP3    H235951   1.780   2.848   8.533  1.2686  0.5370 -0.7803
 4798TIP3   OH235952   1.372   2.922   8.408 -0.7649 -0.2671  0.0103
 4798TIP3    H135953   1.467   2.927   8.401 -0.8238 -1.3346 -2.2148
 4798TIP3    H235954   1.343   3.013   8.403  0.0737 -0.0113 -0.3546
 4799TIP3   OH235955   6.769   2.271   8.378 -0.4516  0.3281 -0.0239
 4799TIP3    H135956   6.725   2.282   8.294 -0.0339  1.1452 -0.1382
 4799TIP3    H235957   6.716   2.321   8.440 -0.6235 -0.0739  0.1566
 4800TIP3   OH235958   5.309   6.432   2.314  0.3181  0.1760 -0.4944
 4800TIP3    H135959   5.278   6.405   2.400  1.2030 -1.9770 -0.7693
 4800TIP3    H235960   5.230   6.450   2.264 -0.2305  0.6917  0.5407
 4801TIP3   OH235961   1.591   2.117   1.191 -0.5420 -1.1099 -0.6984
 4801TIP3    H135962   1.603   2.210   1.169 -0.0040 -0.6364  1.3575
 4801TIP3    H235963   1.496   2.105   1.191 -0.5892 -0.8355 -1.9782
 4802TIP3   OH235964   0.619   3.052   1.532 -0.0556 -0.1244  0.3610
 4802TIP3    H135965   0.525   3.060   1.550  0.0475  1.4858  0.3320
 4802TIP3    H235966   0.640   2.961   1.554 -1.4607 -0.2984  1.0957
 4803TIP3   OH235967   2.397   5.300   0.238 -0.2788 -0.0046  0.4489
 4803TIP3    H135968   2.449   5.373   0.205 -0.4493  0.5683  1.3952
 4803TIP3    H235969   2.441   5.273   0.318  0.1379 -1.3746 -0.2164
 4804TIP3   OH235970   0.340   0.906   6.976  0.1217  1.0045 -0.1460
 4804TIP3    H135971   0.275   0.966   6.940  0.8302  2.7242  1.3306
 4804TIP3    H235972   0.305   0.880   7.061  0.0772 -0.3043 -0.5337
 4805TIP3   OH235973   1.989   6.799   2.847  0.7915 -0.4696 -0.1229
 4805TIP3    H135974   2.000   6.733   2.916  2.0873 -1.3789 -1.1421
 4805TIP3    H235975   2.071   6.797   2.799 -0.5288 -0.8334 -2.5225
 4806TIP3   OH235976   1.787   1.222   1.807 -0.2894 -0.8261  0.1146
 4806TIP3    H135977   1.707   1.216   1.755  0.0199  1.0187 -0.6688
 4806TIP3    H235978   1.850   1.168   1.760 -0.6501 -1.0440 -0.1265
 4807TIP3   OH235979   3.891   2.234   1.684  0.4764  0.1942 -0.0766
 4807TIP3    H135980   3.880   2.310   1.627  1.0896  0.2196 -0.1716
 4807TIP3    H235981   3.985   2.215   1.680  0.3885 -0.3245  0.2586
 4808TIP3   OH235982   1.577   2.377   7.991  0.0585  0.4815  0.4621
 4808TIP3    H135983   1.600   2.312   8.057  0.9315 -1.0457 -1.2874
 4808TIP3    H235984   1.481   2.377   7.989 -0.0016  0.8044  1.9089
 4809TIP3   OH235985   4.920   1.794   7.443 -0.5087  0.1723  0.7012
 4809TIP3    H135986   4.973   1.872   7.426 -0.4386 -0.3166 -1.7238
 4809TIP3    H235987   4.865   1.786   7.365 -0.5366 -2.1740  0.8986
 4810TIP3   OH235988   6.713   1.528   7.391  0.1397 -0.1419  0.1201
 4810TIP3    H135989   6.669   1.534   7.306  1.4056  1.0832 -0.4932
 4810TIP3    H235990   6.783   1.464   7.377 -0.0871 -0.4587  0.4436
 4811TIP3   OH235991   6.196   6.218   0.648  0.1361  0.2386  0.2754
 4811TIP3    H135992   6.182   6.124   0.658  0.9401  0.1376  0.5827
 4811TIP3    H235993   6.187   6.235   0.554 -0.7196 -0.0131  0.3035
 4812TIP3   OH235994   0.437   4.542   7.852  0.0697 -0.5912  0.1329
 4812TIP3    H135995   0.342   4.534   7.840  0.1754 -0.4620 -0.8098
 4812TIP3    H235996   0.464   4.457   7.887 -0.6409 -0.0476  2.1194
 4813TIP3   OH235997   4.108   2.944   8.267  0.3033 -0.5138 -0.3366
 4813TIP3    H135998   4.128   2.879   8.200  1.1563  0.8206 -1.4361
 4813TIP3    H235999   4.190   2.992   8.279 -0.6660  1.3006 -0.6488
 4814TIP3   OH236000   5.542   6.632   1.422  0.0583  0.0211 -0.1303
 4814TIP3    H136001   5.451   6.659   1.407  0.5259  1.1870 -0.9649
 4814TIP3    H236002   5.540   6.590   1.508 -1.0856  0.8996  0.2996
 4815TIP3   OH236003   3.028   2.382   1.467 -0.4090 -0.4347 -0.6506
 4815TIP3    H136004   3.017   2.287   1.461 -0.4537 -0.6619  1.8728
 4815TIP3    H236005   3.111   2.393   1.513 -0.7466  0.7330 -0.2969
 4816TIP3   OH236006   2.776   5.625   1.994  0.7367  0.3939 -0.5362
 4816TIP3    H136007   2.851   5.647   2.048  1.1910 -0.8397 -0.6300
 4816TIP3    H236008   2.813   5.589   1.914  0.0747 -1.3205 -0.1121
 4817TIP3   OH236009   6.243   5.681   1.151 -0.3541 -0.3976 -0.6324
 4817TIP3    H136010   6.295   5.672   1.231 -1.4399 -0.3748  0.1003
 4817TIP3    H236011   6.183   5.753   1.169  0.3117  0.5509 -2.0126
 4818TIP3   OH236012   1.529   3.433   2.108  0.2476 -0.1113  0.2288
 4818TIP3    H136013   1.596   3.500   2.095  0.3091 -0.1396  0.4041
 4818TIP3    H236014   1.509   3.403   2.019  0.0742  0.2789  0.1334
 4819TIP3   OH236015   0.003   1.167   8.381  0.2195 -0.2341 -0.2237
 4819TIP3    H136016  -0.090   1.162   8.404  0.1191 -1.3107 -0.8265
 4819TIP3    H236017   0.045   1.204   8.459 -0.7795  0.7705 -0.1387
 4820TIP3   OH236018   0.332   4.744   0.549  0.0446 -0.1664  0.1785
 4820TIP3    H136019   0.330   4.654   0.583  1.5787 -0.5073 -0.4908
 4820TIP3    H236020   0.385   4.737   0.469  1.9375  1.6372  1.1644
 4821TIP3   OH236021   0.550   4.019   8.010 -0.6840  0.0333  0.0728
 4821TIP3    H136022   0.470   3.967   8.006 -0.0065 -1.1364  1.0423
 4821TIP3    H236023   0.605   3.973   8.074  0.6643  0.9484 -0.3951
 4822TIP3   OH236024   1.640   0.415   7.471 -0.0007  0.3132 -0.0298
 4822TIP3    H136025   1.735   0.426   7.472  0.1253 -0.4062 -1.3078
 4822TIP3    H236026   1.613   0.440   7.383 -0.6632 -1.7131 -0.4712
 4823TIP3   OH236027   6.176   6.248   0.346  0.4163 -0.0350  0.3083
 4823TIP3    H136028   6.253   6.253   0.289 -2.1794 -1.0858 -3.7249
 4823TIP3    H236029   6.132   6.332   0.333 -0.9869 -0.8704 -0.5461
 4824TIP3   OH236030   1.788   3.532   8.285 -0.1093 -0.0640 -0.5398
 4824TIP3    H136031   1.787   3.588   8.207  0.6623  1.7274  0.6826
 4824TIP3    H236032   1.723   3.570   8.343  0.1331 -0.6855  0.1560
 4825TIP3   OH236033   3.389   5.299   1.576  0.1701  0.0068  0.7426
 4825TIP3    H136034   3.452   5.231   1.597 -0.0560 -0.3123  0.4166
 4825TIP3    H236035   3.308   5.251   1.556 -0.3371  0.4290  1.6898
 4826TIP3   OH236036   4.150   3.175   7.535  0.4855  0.2482  0.1963
 4826TIP3    H136037   4.193   3.107   7.587 -1.5904 -1.1382  0.2263
 4826TIP3    H236038   4.143   3.138   7.448  0.4270  0.9479 -0.1053
 4827TIP3   OH236039   2.848   1.376   0.590 -0.2114 -0.2812  0.3109
 4827TIP3    H136040   2.772   1.385   0.647 -1.0893  0.1050 -0.8964
 4827TIP3    H236041   2.872   1.283   0.597  0.0872 -0.1252  1.7570
 4828TIP3   OH236042   0.283   0.916   2.097  0.4020 -0.5370  0.2211
 4828TIP3    H136043   0.357   0.888   2.150  0.5098 -1.4614 -0.4006
 4828TIP3    H236044   0.272   0.847   2.032 -1.0095 -0.4141  0.3006
 4829TIP3   OH236045   2.514   5.779   2.512  0.0678  0.2915 -0.0167
 4829TIP3    H136046   2.520   5.694   2.556  0.8774  0.8079  0.9249
 4829TIP3    H236047   2.523   5.759   2.419 -0.8773 -0.7572  0.0978
 4830TIP3   OH236048   4.502   4.232   7.900  0.1084  0.4193  0.0576
 4830TIP3    H136049   4.516   4.154   7.954 -0.3203 -1.3938 -2.2918
 4830TIP3    H236050   4.575   4.289   7.923 -0.2841 -0.0133  2.8144
 4831TIP3   OH236051   0.929   4.099   0.744  0.3610  0.4430  0.1579
 4831TIP3    H136052   0.979   4.028   0.785 -0.9361 -0.1731  0.7480
 4831TIP3    H236053   0.866   4.125   0.811  1.4345  2.8799  0.3297
 4832TIP3   OH236054   1.354   3.898   0.014 -0.9538  0.7684  0.4442
 4832TIP3    H136055   1.348   3.970   0.077 -1.4537 -0.1324  1.4604
 4832TIP3    H236056   1.266   3.891  -0.023 -0.5269  1.6715 -0.8377
 4833TIP3   OH236057   6.488   2.745   7.355  0.8184 -0.0043  0.2267
 4833TIP3    H136058   6.542   2.714   7.282  0.9787 -0.0884  0.3814
 4833TIP3    H236059   6.438   2.668   7.382  0.9049 -0.0209  0.3357
 4834TIP3   OH236060   3.269   5.337   0.889 -0.2963 -0.5414  0.2317
 4834TIP3    H136061   3.179   5.361   0.913  0.0300  0.8997  0.0802
 4834TIP3    H236062   3.266   5.326   0.794  0.0285  1.2005 -0.0110
 4835TIP3   OH236063   6.669   4.750   8.701  0.5498 -0.1928  0.0287
 4835TIP3    H136064   6.699   4.839   8.720  0.9460 -0.2305 -0.4233
 4835TIP3    H236065   6.573   4.758   8.697  0.5211  0.0265  0.9354
 4836TIP3   OH236066   0.239   0.748   8.432 -0.4563  0.0871 -0.3923
 4836TIP3    H136067   0.179   0.799   8.485  0.4669  1.7009 -0.8117
 4836TIP3    H236068   0.292   0.699   8.495 -1.1997 -0.1651  0.0388
 4837TIP3   OH236069   0.537   1.764   0.510  0.3251  0.3611  0.3133
 4837TIP3    H136070   0.628   1.750   0.534  0.7987  0.0848 -1.4900
 4837TIP3    H236071   0.536   1.757   0.414 -1.2507  2.2945  0.1272
 4838TIP3   OH236072   3.516   4.128   2.360  0.2855 -0.4418  0.8871
 4838TIP3    H136073   3.546   4.182   2.433 -1.6559  0.6433  0.9532
 4838TIP3    H236074   3.486   4.047   2.401 -1.5536  0.4743  1.4708
 4839TIP3   OH236075   2.116   0.555   0.230  0.4839  0.0934 -0.5064
 4839TIP3    H136076   2.075   0.593   0.308 -0.0128  0.0937 -0.7663
 4839TIP3    H236077   2.203   0.594   0.228  0.5969 -0.0912  0.1872
 4840TIP3   OH236078   1.867   3.082   0.269 -0.2330  0.2813 -0.6027
 4840TIP3    H136079   1.852   3.144   0.198 -1.6070  0.5286 -0.1154
 4840TIP3    H236080   1.781   3.045   0.288  0.4257 -1.2378 -0.3687
 4841TIP3   OH236081   1.771   0.687   0.724  0.7535  0.1744 -0.2688
 4841TIP3    H136082   1.806   0.748   0.790  2.2085  2.5608 -3.0431
 4841TIP3    H236083   1.838   0.619   0.717  1.9016  1.3550 -1.1209
 4842TIP3   OH236084   6.281   5.921   0.749 -0.0400  0.1223 -0.3156
 4842TIP3    H136085   6.251   5.835   0.779 -1.6368  0.2001 -1.5438
 4842TIP3    H236086   6.349   5.901   0.685  2.0317 -0.0838  1.8133
 4843TIP3   OH236087   3.193   5.245   8.376  0.0315  0.1383 -0.5208
 4843TIP3    H136088   3.128   5.313   8.357 -1.5647 -0.9578  0.7262
 4843TIP3    H236089   3.177   5.178   8.309 -0.1526 -0.1481 -0.1903
 4844TIP3   OH236090   5.229   3.999   1.972  0.0109 -0.3799  0.4559
 4844TIP3    H136091   5.216   3.926   2.033 -0.5110  0.1849  1.0308
 4844TIP3    H236092   5.141   4.033   1.956  0.1039 -0.7329 -0.8875
 4845TIP3   OH236093   6.669   4.423   1.673  0.2013  0.0492 -0.4170
 4845TIP3    H136094   6.593   4.474   1.702  0.0205  0.0967 -0.9715
 4845TIP3    H236095   6.729   4.488   1.637 -0.5619 -0.2255 -2.3079
 4846TIP3   OH236096   0.404   1.157   1.678  0.1691  0.2892  0.2145
 4846TIP3    H136097   0.445   1.071   1.664  0.4606  0.5169 -0.3601
 4846TIP3    H236098   0.442   1.213   1.611 -0.2850  0.7831  0.3614
 4847TIP3   OH236099   1.491   5.092   1.941  0.0326  0.0548 -0.2038
 4847TIP3    H136100   1.551   5.035   1.894  1.5763  0.1745  1.4895
 4847TIP3    H236101   1.532   5.179   1.935 -0.0357  0.1678  0.8331
 4848TIP3   OH236102   6.540   2.507   1.442  0.8497 -0.0374  0.8103
 4848TIP3    H136103   6.452   2.513   1.480  0.7483  1.8702  0.3958
 4848TIP3    H236104   6.596   2.481   1.515  0.1164 -0.1024  1.3673
 4849TIP3   OH236105   4.633   0.309   8.048  0.5771  0.0162  0.5784
 4849TIP3    H136106   4.678   0.394   8.050 -0.3013  0.5179 -0.2530
 4849TIP3    H236107   4.701   0.248   8.020  1.0895  0.5294  0.6627
 4850TIP3   OH236108   5.198   4.352   1.126  0.4346  0.5098 -0.2475
 4850TIP3    H136109   5.157   4.438   1.132 -3.0716 -1.1108  1.4747
 4850TIP3    H236110   5.166   4.316   1.043 -0.8993 -0.3444  0.5989
 4851TIP3   OH236111   4.527   2.049   0.832 -0.1153 -0.3759 -0.1965
 4851TIP3    H136112   4.544   1.977   0.771  0.4800  0.4452 -1.0298
 4851TIP3    H236113   4.454   2.018   0.886 -0.0091 -1.5144 -0.6697
 4852TIP3   OH236114   5.311   3.279   8.709  0.8025 -0.1039  0.3570
 4852TIP3    H136115   5.253   3.281   8.785  2.1279  0.4744  1.3772
 4852TIP3    H236116   5.386   3.333   8.734  1.2815  0.0893 -1.3597
 4853TIP3   OH236117   3.459   2.321   7.689 -0.0334  0.7481  0.3827
 4853TIP3    H136118   3.428   2.247   7.638  0.1576  0.2658  0.9584
 4853TIP3    H236119   3.396   2.329   7.761 -0.4311  1.5666 -0.0457
 4854TIP3   OH236120   4.119   3.202   0.906  0.5734 -0.7666  0.3975
 4854TIP3    H136121   4.058   3.134   0.935 -1.5101  1.5199  1.7452
 4854TIP3    H236122   4.201   3.181   0.950 -0.5018 -1.5133  2.1472
 4855TIP3   OH236123   1.373   3.794   7.172  0.4853 -0.7042 -0.1859
 4855TIP3    H136124   1.317   3.731   7.126  2.1440 -0.9425 -2.0201
 4855TIP3    H236125   1.432   3.739   7.223  1.4043 -0.6353 -1.1502
 4856TIP3   OH236126   6.688   1.206   1.746 -0.4012 -0.2104  0.0278
 4856TIP3    H136127   6.659   1.123   1.707  1.1004 -1.4034  1.3051
 4856TIP3    H236128   6.780   1.213   1.720 -0.5702  1.2032 -0.2483
 4857TIP3   OH236129   0.743   0.984   8.406  0.5747 -0.0323 -0.5999
 4857TIP3    H136130   0.775   0.981   8.316 -2.0657 -0.2131 -1.6268
 4857TIP3    H236131   0.723   1.077   8.421  0.5576 -0.0692 -0.3892
 4858TIP3   OH236132   6.735   3.114   2.521 -0.6038 -0.0204 -0.3799
 4858TIP3    H136133   6.815   3.165   2.532 -0.2268 -0.6741 -0.0203
 4858TIP3    H236134   6.667   3.179   2.502  0.1358  0.4917 -1.3969
 4859TIP3   OH236135   2.322   1.574   0.241 -0.5386 -0.6158  0.1304
 4859TIP3    H136136   2.366   1.650   0.203  0.0379  0.3360  2.4635
 4859TIP3    H236137   2.255   1.550   0.178  0.6650  0.4951 -1.6397
 4860TIP3   OH236138   4.536   5.959   1.124 -0.1551  0.8663 -0.6332
 4860TIP3    H136139   4.473   5.890   1.145  1.8906 -0.7912  0.4040
 4860TIP3    H236140   4.583   5.974   1.205  1.7501  1.0073 -1.7045
 4861TIP3   OH236141   6.451   0.595   8.180 -0.0236  0.8194  0.0450
 4861TIP3    H136142   6.495   0.572   8.262  2.1747  1.8354 -0.7564
 4861TIP3    H236143   6.508   0.560   8.111 -2.8732 -1.8744 -1.1509
 4862TIP3   OH236144   5.417   4.695   0.524  0.0067  0.0443 -0.1782
 4862TIP3    H136145   5.343   4.749   0.497 -1.5594 -1.4486  0.8511
 4862TIP3    H236146   5.483   4.757   0.553 -0.5696  1.4634 -1.7139
 4863TIP3   OH236147   5.590   4.007   7.548 -0.5060 -0.1713  0.3696
 4863TIP3    H136148   5.594   4.097   7.583 -1.7316  0.1206 -0.2171
 4863TIP3    H236149   5.658   4.005   7.481 -0.1399  0.1646  0.7208
 4864TIP3   OH236150   4.706   2.304   3.397 -0.0761 -0.4622  0.6493
 4864TIP3    H136151   4.620   2.289   3.358  0.5150  0.2593 -0.9826
 4864TIP3    H236152   4.701   2.392   3.434 -0.5802 -1.0811  2.1247
 4865TIP3   OH236153   4.809   5.989   1.642  0.4444  0.0023  0.4720
 4865TIP3    H136154   4.733   6.033   1.680  0.4021  0.6118 -0.2830
 4865TIP3    H236155   4.851   5.945   1.716 -0.4130 -0.0077  0.9696
 4866TIP3   OH236156   3.491   2.197   7.311 -0.1744 -0.8827  0.0634
 4866TIP3    H136157   3.412   2.247   7.291 -0.5330 -1.9403 -1.2799
 4866TIP3    H236158   3.464   2.136   7.380 -1.1970 -2.7547 -1.8881
 4867TIP3   OH236159   4.530   3.760   7.942 -0.0660 -0.3848  0.0057
 4867TIP3    H136160   4.436   3.755   7.955 -0.0944  1.0257  0.5554
 4867TIP3    H236161   4.542   3.831   7.878  0.5937 -0.9266 -0.4903
 4868TIP3   OH236162   5.134   2.626   2.226  0.9221  0.1217 -0.0925
 4868TIP3    H136163   5.136   2.658   2.136 -0.5266  3.2745  0.8445
 4868TIP3    H236164   5.080   2.690   2.273  1.6482 -1.3580  3.0374
 4869TIP3   OH236165   1.313   4.275   1.888  0.5772 -0.1860  0.1395
 4869TIP3    H136166   1.260   4.206   1.847 -1.6766 -0.6173  3.3832
 4869TIP3    H236167   1.368   4.228   1.950  1.4154  0.7075  0.0951
 4870TIP3   OH236168   1.282   3.613   8.371 -0.1446 -0.3626  0.5517
 4870TIP3    H136169   1.307   3.549   8.304  1.1374 -2.0472  2.5137
 4870TIP3    H236170   1.218   3.567   8.425 -1.8813  1.3006  0.0182
 4871TIP3   OH236171   5.785   5.193   2.791  0.0875  0.0622  0.0853
 4871TIP3    H136172   5.826   5.167   2.874  1.2763  2.5576  0.3556
 4871TIP3    H236173   5.723   5.122   2.772  2.2779 -2.3280  1.2687
 4872TIP3   OH236174   6.080   5.682   2.208  0.0269 -0.1653  0.1410
 4872TIP3    H136175   6.124   5.604   2.174  2.7177  1.2085  0.2392
 4872TIP3    H236176   6.022   5.710   2.137  0.1764 -1.3780 -0.4829
 4873TIP3   OH236177   5.907   5.299   1.168  0.1010 -0.0497 -0.0683
 4873TIP3    H136178   5.987   5.256   1.139 -0.1069  0.5654 -1.6709
 4873TIP3    H236179   5.868   5.334   1.088 -1.0342  0.9065  0.8576
 4874TIP3   OH236180   4.622   2.612   7.495  0.1016  0.3194  0.5435
 4874TIP3    H136181   4.563   2.597   7.422  1.0447 -2.0462  0.1733
 4874TIP3    H236182   4.689   2.670   7.460 -1.5994  2.5693  0.8065
 4875TIP3   OH236183   6.289   0.343   0.664  0.2738 -0.1849 -0.0197
 4875TIP3    H136184   6.375   0.306   0.647  1.1353  1.7460 -0.0497
 4875TIP3    H236185   6.282   0.346   0.760  0.4713  0.1703 -0.0164
 4876TIP3   OH236186   6.472   0.607   6.723 -0.0082  0.7235  0.4238
 4876TIP3    H136187   6.558   0.585   6.758 -0.4667 -0.4750  0.8679
 4876TIP3    H236188   6.411   0.587   6.794 -0.6066  2.2634  0.3763
 4877TIP3   OH236189   6.735   5.850   1.137  0.1411  0.4039 -0.7227
 4877TIP3    H136190   6.807   5.910   1.115  0.4397 -0.6173 -2.8389
 4877TIP3    H236191   6.656   5.900   1.118  0.3603  0.5548 -1.2587
 4878TIP3   OH236192   3.108   1.857   2.534  0.1811 -0.7880  0.6932
 4878TIP3    H136193   3.102   1.840   2.628  2.9037  0.3670  1.1605
 4878TIP3    H236194   3.198   1.833   2.511 -0.5230 -1.3749 -1.7176
 4879TIP3   OH236195   3.243   1.206   7.773 -0.6712  0.1525 -0.4174
 4879TIP3    H136196   3.253   1.297   7.744 -1.6161  1.3643  2.5694
 4879TIP3    H236197   3.331   1.179   7.800 -0.1784 -0.2763 -2.3347
 4880TIP3   OH236198   5.101   5.538   7.654  0.3955 -0.0495  0.3066
 4880TIP3    H136199   5.172   5.575   7.601  0.5221 -0.5875  0.0873
 4880TIP3    H236200   5.140   5.461   7.696  0.4847  0.7273  1.7098
 4881TIP3   OH236201   1.305   5.049   1.051 -0.2597 -0.6664 -0.1644
 4881TIP3    H136202   1.215   5.045   1.017 -0.0999  1.4568 -0.9350
 4881TIP3    H236203   1.360   5.060   0.974  0.5923 -0.9010  0.3884
 4882TIP3   OH236204   1.892   4.010   0.527 -0.5742 -0.2042  0.0044
 4882TIP3    H136205   1.955   3.973   0.465 -2.0357 -2.3607 -0.2867
 4882TIP3    H236206   1.945   4.033   0.604  0.7659 -0.5689 -0.7737
 4883TIP3   OH236207   4.551   0.303   0.451  0.4755  0.1028 -0.0364
 4883TIP3    H136208   4.543   0.276   0.359  1.2470 -1.0121  0.2041
 4883TIP3    H236209   4.549   0.399   0.448  3.4955  0.2555 -1.5831
 4884TIP3   OH236210   5.194   6.792   2.445 -0.2553 -0.1545 -0.0286
 4884TIP3    H136211   5.261   6.857   2.466  0.4842 -0.5232 -1.1112
 4884TIP3    H236212   5.113   6.828   2.480  0.5457  0.1822  1.5463
 4885TIP3   OH236213   6.272   6.224   7.872  0.1093 -0.5061 -0.6270
 4885TIP3    H136214   6.249   6.218   7.965  0.7629  0.4418 -0.3991
 4885TIP3    H236215   6.365   6.245   7.871  0.1880 -0.8443 -1.5088
 4886TIP3   OH236216   5.454   4.310   8.606 -0.2055  0.7220  0.1757
 4886TIP3    H136217   5.546   4.294   8.629  0.3573  1.4328 -1.4377
 4886TIP3    H236218   5.417   4.223   8.594  0.2320  0.4238  0.8942
 4887TIP3   OH236219   1.865   3.500   2.313 -0.5839 -0.0785  0.0148
 4887TIP3    H136220   1.927   3.562   2.352 -0.2691 -1.3032  1.5825
 4887TIP3    H236221   1.920   3.438   2.265 -0.6984 -0.3212  0.1895
 4888TIP3   OH236222   5.377   3.966   7.329 -0.2069  0.0227  0.4649
 4888TIP3    H136223   5.295   4.015   7.336  0.9968  2.2485 -0.0451
 4888TIP3    H236224   5.436   4.010   7.391  1.1162 -0.3442 -0.4972
 4889TIP3   OH236225   5.864   2.870   0.732 -0.0908 -0.2602 -0.6331
 4889TIP3    H136226   5.869   2.964   0.752  1.9720 -0.0064 -1.9883
 4889TIP3    H236227   5.807   2.834   0.799 -1.3586  2.0389 -0.3757
 4890TIP3   OH236228   3.189   1.298   1.999  0.6987  0.1344  0.5603
 4890TIP3    H136229   3.284   1.302   1.994  0.6602 -0.6279 -1.2913
 4890TIP3    H236230   3.171   1.226   2.059  1.2478  0.7976  1.5719
 4891TIP3   OH236231   4.506   0.572   8.218  0.0016  0.0362 -0.1723
 4891TIP3    H136232   4.501   0.478   8.205 -0.0490  0.1530 -1.0930
 4891TIP3    H236233   4.415   0.602   8.217  0.0463  0.1709 -0.5777
 4892TIP3   OH236234   5.357   6.065   2.393  0.2281  0.3897 -0.2192
 4892TIP3    H136235   5.435   6.103   2.432  1.0773 -0.9232 -0.5669
 4892TIP3    H236236   5.357   6.096   2.303  0.6929 -0.0748 -0.3862
 4893TIP3   OH236237   6.381   5.999   7.727 -0.0362  0.3174 -0.1263
 4893TIP3    H136238   6.399   5.977   7.635 -0.6853 -1.1237  0.0663
 4893TIP3    H236239   6.286   5.990   7.735  0.2066 -1.5444  1.1498
 4894TIP3   OH236240   4.098   4.552   8.409  0.5353  0.5966  0.4053
 4894TIP3    H136241   4.156   4.478   8.425  1.8066  1.6314  0.7544
 4894TIP3    H236242   4.011   4.520   8.432  1.2730 -0.3120  2.1111
 4895TIP3   OH236243   6.052   2.374   0.221  0.2000 -0.0476 -0.1744
 4895TIP3    H136244   6.008   2.454   0.249  0.8560  0.5197 -0.6903
 4895TIP3    H236245   6.005   2.303   0.264  0.9914  0.7417  2.1211
 4896TIP3   OH236246   4.106   6.576   0.140 -0.4511 -0.0817 -0.4541
 4896TIP3    H136247   4.043   6.648   0.133 -0.8721 -0.5462 -1.7596
 4896TIP3    H236248   4.174   6.599   0.076 -1.2008 -1.4091 -1.7892
 4897TIP3   OH236249   2.455   1.360   8.712 -0.3514 -0.1934 -0.1532
 4897TIP3    H136250   2.421   1.297   8.775 -1.1566  1.9388  1.6904
 4897TIP3    H236251   2.515   1.415   8.762  0.0352  0.7432 -1.5800
 4898TIP3   OH236252   4.244   5.445   7.697 -0.6343  0.1354  0.0001
 4898TIP3    H136253   4.254   5.388   7.773 -0.8228  1.5308  1.1163
 4898TIP3    H236254   4.334   5.470   7.674 -0.6063  0.1055  0.0764
 4899TIP3   OH236255   4.567   2.764   1.780  0.2561 -0.1892  0.2434
 4899TIP3    H136256   4.596   2.836   1.836  1.1177 -0.5235  0.2462
 4899TIP3    H236257   4.481   2.740   1.814  1.4286 -1.4763  2.5231
 4900TIP3   OH236258   0.256   6.501   0.214 -0.7873  0.0770 -0.0084
 4900TIP3    H136259   0.272   6.429   0.153  0.1227  0.8919 -0.7681
 4900TIP3    H236260   0.174   6.539   0.185 -2.0858 -1.5392  1.3239
 4901TIP3   OH236261   4.703   5.566   0.460 -0.0623  0.1662  0.1029
 4901TIP3    H136262   4.732   5.648   0.500 -0.5824  0.8530 -0.8963
 4901TIP3    H236263   4.779   5.508   0.468  0.2015  0.6245  1.1170
 4902TIP3   OH236264   2.438   5.097   0.694 -0.0613  0.4876  0.6802
 4902TIP3    H136265   2.488   5.120   0.616  0.0236  0.8494  0.8394
 4902TIP3    H236266   2.466   5.008   0.716  1.0706  0.9662  1.2079
 4903TIP3   OH236267   0.836   0.058   1.300 -0.7703  0.7057  0.2490
 4903TIP3    H136268   0.839  -0.007   1.370 -1.2274 -1.5006 -1.6637
 4903TIP3    H236269   0.913   0.113   1.315  1.9417 -2.6724 -0.1849
 4904TIP3   OH236270   5.541   5.171   2.049  0.1870  0.1965  0.9086
 4904TIP3    H136271   5.503   5.087   2.072  0.6624 -0.0972  0.6227
 4904TIP3    H236272   5.478   5.236   2.083  0.3473 -0.2428  2.1037
 4905TIP3   OH236273   6.013   2.271   2.190 -0.2822 -0.2079  0.1740
 4905TIP3    H136274   6.031   2.266   2.284  0.2865  0.3730  0.1006
 4905TIP3    H236275   5.925   2.234   2.180 -1.1521  1.4520  1.1967
 4906TIP3   OH236276   3.619   5.880   2.284  0.0865 -0.3327  0.1891
 4906TIP3    H136277   3.596   5.788   2.277  1.5413 -0.7102 -0.0225
 4906TIP3    H236278   3.650   5.890   2.374  0.1526 -0.1107  0.1435
 4907TIP3   OH236279   3.263   3.937   1.210 -0.1053 -0.6834  0.1611
 4907TIP3    H136280   3.211   3.908   1.285  0.3982 -0.3917  0.6318
 4907TIP3    H236281   3.309   4.014   1.241 -0.1020 -0.3946 -0.5422
 4908TIP3   OH236282   4.086   3.520   0.595  0.0601  0.2060  0.6815
 4908TIP3    H136283   4.063   3.428   0.586  0.5215  0.1209  0.3332
 4908TIP3    H236284   4.022   3.555   0.657 -2.2709  0.4060 -1.6614
 4909TIP3   OH236285   3.188   3.146   7.752  0.1484 -0.2755 -0.0786
 4909TIP3    H136286   3.255   3.190   7.802  0.2417 -1.6973  1.1169
 4909TIP3    H236287   3.110   3.201   7.760  0.7548  0.5974 -0.1895
 4910TIP3   OH236288   5.337   3.508   2.200 -0.1982  0.2711  0.2106
 4910TIP3    H136289   5.350   3.490   2.293 -0.2943  0.4120  0.2512
 4910TIP3    H236290   5.317   3.423   2.161  3.8754 -0.6422 -0.3997
 4911TIP3   OH236291   6.203   2.567   2.211 -0.0139 -0.1666 -0.1249
 4911TIP3    H136292   6.164   2.635   2.267  1.2007 -0.7431  1.4879
 4911TIP3    H236293   6.248   2.616   2.143  1.3348  0.7541  1.3406
 4912TIP3   OH236294   2.861   5.560   7.943 -0.1117 -0.0182 -0.0230
 4912TIP3    H136295   2.908   5.636   7.978 -0.5292 -0.1689  0.9168
 4912TIP3    H236296   2.817   5.593   7.865  0.7646  0.3668 -0.3684
 4913TIP3   OH236297   6.845   4.461   6.915 -0.0219  0.1334  0.1666
 4913TIP3    H136298   6.794   4.403   6.971  0.1537  0.5862  0.8092
 4913TIP3    H236299   6.859   4.411   6.835  1.2817 -1.2554  1.2004
 4914TIP3   OH236300   5.080   0.581   0.140  0.0102  0.2896  0.4862
 4914TIP3    H136301   5.144   0.635   0.093 -0.3581  0.9138  0.6793
 4914TIP3    H236302   5.106   0.588   0.232  0.3695 -0.4363  0.4485
 4915TIP3   OH236303   0.040   0.413   1.297  0.3192  0.0145 -0.2697
 4915TIP3    H136304   0.098   0.337   1.288 -1.0114 -0.9801 -0.6840
 4915TIP3    H236305  -0.041   0.387   1.253  0.2892  2.2022 -1.6340
 4916TIP3   OH236306   4.314   2.745   0.332  1.0287 -0.5905 -0.2604
 4916TIP3    H136307   4.402   2.780   0.346  0.4877  1.0008 -0.6711
 4916TIP3    H236308   4.270   2.755   0.416  0.8934 -0.3744 -0.3588
 4917TIP3   OH236309   2.069   5.706   2.440 -0.0975 -0.3603  0.1280
 4917TIP3    H136310   2.148   5.653   2.435 -0.3260 -0.7524  0.6315
 4917TIP3    H236311   2.015   5.664   2.506 -0.9665 -0.4085 -0.5851
 4918TIP3   OH236312   5.769   3.870   1.944 -0.1454 -0.2597 -0.5791
 4918TIP3    H136313   5.756   3.785   1.901 -0.0270 -1.0235  0.8226
 4918TIP3    H236314   5.696   3.876   2.006  0.8453 -0.1907  0.6179
 4919TIP3   OH236315   2.753   6.744   7.721  0.8065  0.1251  0.0381
 4919TIP3    H136316   2.676   6.787   7.757 -0.2892 -1.4212 -0.3592
 4919TIP3    H236317   2.728   6.719   7.632  0.9687 -2.2907  0.6157
 4920TIP3   OH236318   3.562   5.808   3.356 -0.9084 -0.3570 -0.2782
 4920TIP3    H136319   3.559   5.722   3.398 -2.7991 -0.0688  0.2547
 4920TIP3    H236320   3.613   5.862   3.416 -1.2804 -0.6484  0.3105
 4921TIP3   OH236321   5.089   1.094   0.113 -0.1865 -0.4638  0.1957
 4921TIP3    H136322   5.143   1.060   0.184 -0.6126 -2.0496 -0.1827
 4921TIP3    H236323   5.103   1.189   0.115  0.5296 -0.5617  1.7835
 4922TIP3   OH236324   4.714   1.098   8.687 -0.0892  0.1668 -0.6616
 4922TIP3    H136325   4.645   1.125   8.628 -0.4660  1.0144  0.1414
 4922TIP3    H236326   4.701   1.004   8.699 -0.9250  0.2673 -0.7532
 4923TIP3   OH236327   2.679   2.996   2.813 -0.2547 -0.0489 -0.2106
 4923TIP3    H136328   2.664   3.047   2.733 -4.0284  0.1402  0.4169
 4923TIP3    H236329   2.716   3.059   2.875 -0.7586  0.8004 -0.7464
 4924TIP3   OH236330   4.425   0.861   0.516  0.5852  0.2264 -0.2461
 4924TIP3    H136331   4.507   0.904   0.491 -1.1257  3.5324 -0.6961
 4924TIP3    H236332   4.375   0.855   0.435  0.4497 -2.2309 -0.0754
 4925TIP3   OH236333   5.810   5.899   0.993  0.2026  0.3496  0.2662
 4925TIP3    H136334   5.867   5.922   0.919 -0.1613  1.5460  0.3305
 4925TIP3    H236335   5.723   5.927   0.965  0.3430  2.7916  1.9015
 4926TIP3   OH236336   0.565   1.863   8.412 -0.1155 -0.0441  0.4420
 4926TIP3    H136337   0.659   1.876   8.426 -0.2553  0.2403  1.1347
 4926TIP3    H236338   0.526   1.948   8.432 -0.6387 -0.4645  1.2573
 4927TIP3   OH236339   4.735   3.805   2.420 -0.0386  0.0056  1.0809
 4927TIP3    H136340   4.675   3.735   2.449 -2.4430  1.2564 -0.5803
 4927TIP3    H236341   4.680   3.882   2.412  1.1838  0.7103 -2.8513
 4928TIP3   OH236342   5.261   2.818   0.683 -0.3124 -0.2574  0.3725
 4928TIP3    H136343   5.326   2.764   0.638  0.8255 -0.0271  1.6564
 4928TIP3    H236344   5.291   2.908   0.667  0.4592 -0.1877  2.0100
 4929TIP3   OH236345   5.432   0.861   2.706  0.0298 -0.2507 -0.2646
 4929TIP3    H136346   5.503   0.822   2.757  0.3388  0.2128 -0.3345
 4929TIP3    H236347   5.454   0.954   2.702 -1.9720  0.3951  1.9707
 4930TIP3   OH236348   0.749   2.420   0.793 -0.0253  0.0714 -0.2321
 4930TIP3    H136349   0.700   2.450   0.869  0.5977  2.5006 -0.7042
 4930TIP3    H236350   0.682   2.401   0.727 -0.5528 -1.8657  0.7825
 4931TIP3   OH236351   4.885   3.485   0.571 -0.2013  0.4964 -0.1712
 4931TIP3    H136352   4.847   3.419   0.513 -0.3729  0.3652  0.0861
 4931TIP3    H236353   4.930   3.435   0.639 -0.6724  0.6316  0.2513
 4932TIP3   OH236354   0.482   2.898   0.134 -0.1646  0.0085  0.0885
 4932TIP3    H136355   0.395   2.914   0.172 -0.2914 -0.1372 -0.1368
 4932TIP3    H236356   0.491   2.964   0.065 -0.5686 -0.6762 -0.6458
 4933TIP3   OH236357   2.882   2.995   7.981  0.3067  0.1843 -0.8364
 4933TIP3    H136358   2.932   2.917   7.955  1.7708  0.2519  1.4860
 4933TIP3    H236359   2.909   3.062   7.918  2.2838 -0.1183 -0.4066
 4934TIP3   OH236360   4.396   1.983   8.653 -0.0460 -0.9430 -0.1954
 4934TIP3    H136361   4.314   1.939   8.678 -0.8219 -0.6551 -2.0865
 4934TIP3    H236362   4.369   2.070   8.625  1.0267 -0.5497 -0.0324
 4935TIP3   OH236363   4.140   4.991   7.437  0.3220 -0.3221 -0.1407
 4935TIP3    H136364   4.131   5.053   7.365 -0.4047  1.5043  1.4636
 4935TIP3    H236365   4.214   5.024   7.489 -1.4113  0.5092  1.9208
 4936TIP3   OH236366   1.424   6.162   8.023  0.1551  0.0287 -0.3097
 4936TIP3    H136367   1.516   6.153   8.000  0.2055  0.2063 -0.1739
 4936TIP3    H236368   1.379   6.099   7.967  0.4905 -0.9432  0.4773
 4937TIP3   OH236369   6.107   6.270   1.866  0.1578  0.0833  0.1579
 4937TIP3    H136370   6.141   6.338   1.808  1.4450 -1.1542 -0.6257
 4937TIP3    H236371   6.014   6.289   1.874 -0.2730 -0.1307 -3.0259
 4938TIP3   OH236372   1.341   2.199   3.038  0.2326 -0.2328 -0.1001
 4938TIP3    H136373   1.434   2.181   3.057  0.8441  0.2114 -2.3459
 4938TIP3    H236374   1.307   2.115   3.008  0.4026 -0.0230 -0.9224
 4939TIP3   OH236375   4.377   1.076   1.173 -0.0209  0.4720  0.5205
 4939TIP3    H136376   4.471   1.062   1.184  0.0364  0.4183 -0.0116
 4939TIP3    H236377   4.343   0.991   1.148 -0.1847  0.5252  0.5638
 4940TIP3   OH236378   0.936   5.250   0.065 -0.0828 -0.1076 -0.2316
 4940TIP3    H136379   0.908   5.163   0.036  1.4050 -0.7323  0.1341
 4940TIP3    H236380   0.895   5.310   0.003 -2.0879 -0.9521  0.1918
 4941TIP3   OH236381   3.412   1.828   7.327 -0.0074 -0.1366 -0.2382
 4941TIP3    H136382   3.337   1.773   7.302 -0.4800 -0.6621  2.0366
 4941TIP3    H236383   3.413   1.898   7.262  0.0152 -2.2712 -2.6687
 4942TIP3   OH236384   3.699   3.091   8.286 -0.4724 -0.0536 -0.3923
 4942TIP3    H136385   3.652   3.126   8.362  0.2478  0.5377 -0.2113
 4942TIP3    H236386   3.782   3.137   8.285  0.4876 -1.6959 -0.2006
 4943TIP3   OH236387   2.610   1.458   2.068  0.1520  0.1398  0.2289
 4943TIP3    H136388   2.693   1.413   2.050 -1.1430 -2.5325  0.4639
 4943TIP3    H236389   2.575   1.413   2.145 -2.0591  0.3899 -0.5678
 4944TIP3   OH236390   2.886   3.582   2.545  0.4289 -0.1069 -0.0821
 4944TIP3    H136391   2.967   3.591   2.595 -1.1072  1.2875  2.3847
 4944TIP3    H236392   2.864   3.671   2.518 -1.0265 -0.2116  0.6373
 4945TIP3   OH236393   1.720   5.919   2.314  0.6274 -0.8218 -0.5127
 4945TIP3    H136394   1.716   5.828   2.343 -0.6489 -0.5792  0.1700
 4945TIP3    H236395   1.810   5.946   2.329  0.6690 -1.5423  0.6661
 4946TIP3   OH236396   0.977   3.749   8.138  0.1851  0.5953 -0.7784
 4946TIP3    H136397   1.041   3.816   8.113  1.5725  0.6361  2.3926
 4946TIP3    H236398   0.991   3.678   8.076  3.3751  0.6205 -0.2563
 4947TIP3   OH236399   6.434   3.602   2.203  0.0914 -0.0076 -0.5120
 4947TIP3    H136400   6.463   3.684   2.162 -0.6597 -0.3068 -1.6823
 4947TIP3    H236401   6.502   3.539   2.180  0.1852  0.0567 -0.4162
 4948TIP3   OH236402   4.548   2.007   8.348  0.7685 -0.0092 -0.0591
 4948TIP3    H136403   4.463   1.965   8.357  0.8777 -0.5732 -1.3728
 4948TIP3    H236404   4.527   2.098   8.327  0.4668 -0.2170 -0.6992
 4949TIP3   OH236405   3.702   1.805   8.005  0.0588 -0.0222 -0.3909
 4949TIP3    H136406   3.710   1.896   8.032  0.8443 -0.5726  1.3001
 4949TIP3    H236407   3.682   1.757   8.085 -0.4843 -1.3401 -1.2749
 4950TIP3   OH236408   4.305   1.692   0.539 -0.0657 -0.7494  0.1466
 4950TIP3    H136409   4.220   1.676   0.497  0.6075 -0.2879 -1.4890
 4950TIP3    H236410   4.320   1.786   0.527  2.0735 -1.3005 -2.5270
 4951TIP3   OH236411   1.511   6.786   8.221 -0.0242 -0.3983  0.4650
 4951TIP3    H136412   1.436   6.747   8.176  1.6283 -0.1783 -2.7310
 4951TIP3    H236413   1.578   6.717   8.221  0.8761  0.4497  0.2377
 4952TIP3   OH236414   1.531   3.646   3.086  0.3687 -0.1597 -0.1055
 4952TIP3    H136415   1.493   3.681   3.166  0.0333 -0.3930 -0.1599
 4952TIP3    H236416   1.466   3.583   3.055  0.8594 -0.6625 -0.1239
 4953TIP3   OH236417   3.576   6.805   7.599 -0.2852  0.1858 -0.3793
 4953TIP3    H136418   3.671   6.813   7.595 -0.0884 -0.9872  0.9838
 4953TIP3    H236419   3.556   6.730   7.542 -0.2986 -0.0085 -0.1251
 4954TIP3   OH236420   1.084   1.169   1.260 -0.6116 -0.6693  0.2627
 4954TIP3    H136421   1.002   1.217   1.270  0.1868  0.9073 -0.4244
 4954TIP3    H236422   1.122   1.170   1.348 -0.1199  0.9220  0.0654
 4955TIP3   OH236423   2.647   0.016   7.310  0.2357 -0.1186  0.2888
 4955TIP3    H136424   2.558  -0.005   7.283 -0.1735 -1.9604  2.7087
 4955TIP3    H236425   2.636   0.057   7.396  1.6462  1.5892 -0.2852
 4956TIP3   OH236426   4.696   2.116   1.042 -0.2226  0.0393  0.1217
 4956TIP3    H136427   4.619   2.147   1.090  1.3037  2.6138  1.0772
 4956TIP3    H236428   4.666   2.108   0.951 -1.4446  1.7478  0.3356
 4957TIP3   OH236429   2.139   1.590   7.882  0.5618 -0.0078  0.3850
 4957TIP3    H136430   2.181   1.516   7.926  0.0660 -0.0310  0.8255
 4957TIP3    H236431   2.177   1.667   7.922 -0.6912 -0.0185  1.6728
 4958TIP3   OH236432   6.651   3.317   6.744  0.2473 -0.2640  0.2632
 4958TIP3    H136433   6.646   3.385   6.677 -0.2079 -2.1259 -1.6933
 4958TIP3    H236434   6.560   3.302   6.769  0.2260 -1.0146 -0.2467
 4959TIP3   OH236435   5.658   5.695   7.646  0.2149  0.2742  0.8362
 4959TIP3    H136436   5.603   5.742   7.708 -2.0201  0.0325 -0.8686
 4959TIP3    H236437   5.711   5.637   7.701 -3.0460 -1.3600  2.4944
 4960TIP3   OH236438   2.051   1.761   1.184  0.6798  0.2807 -0.0765
 4960TIP3    H136439   2.112   1.797   1.250  0.8538 -1.0733  0.5412
 4960TIP3    H236440   2.095   1.777   1.101  0.7551  1.4627  0.1637
 4961TIP3   OH236441   2.548   4.435   8.582 -0.0066  0.0593  0.0862
 4961TIP3    H136442   2.635   4.403   8.604 -0.6180 -0.1115  2.6457
 4961TIP3    H236443   2.497   4.355   8.566 -0.8722 -0.3560  3.8378
 4962TIP3   OH236444   5.513   0.088   7.393 -0.2184  0.1842 -0.1635
 4962TIP3    H136445   5.430   0.101   7.348 -0.6244  1.6440  0.9338
 4962TIP3    H236446   5.489   0.058   7.481  0.3120  1.8415  0.5894
 4963TIP3   OH236447   3.500   5.488   2.927 -0.5420  0.6066  0.1480
 4963TIP3    H136448   3.574   5.535   2.889 -1.1550  1.5574  0.1095
 4963TIP3    H236449   3.493   5.521   3.016  0.9162 -1.6511  1.2132
 4964TIP3   OH236450   5.190   6.397   1.981  0.0411 -0.6345  0.7739
 4964TIP3    H136451   5.157   6.396   1.891  0.2887 -0.9577  0.6840
 4964TIP3    H236452   5.245   6.475   1.985 -0.6014 -0.1748  0.8806
 4965TIP3   OH236453   1.944   1.116   2.460 -0.0452  0.1807  0.9653
 4965TIP3    H136454   1.953   1.021   2.467 -3.2281 -0.1692  1.9096
 4965TIP3    H236455   1.918   1.131   2.369  0.6055  0.1854  0.7755
 4966TIP3   OH236456   4.320   5.967   7.520  0.2711 -0.4273 -0.4165
 4966TIP3    H136457   4.321   6.035   7.453 -1.1896  0.8600  0.8220
 4966TIP3    H236458   4.397   5.913   7.499  0.3493  0.4118 -2.5938
 4967TIP3   OH236459   5.946   4.180   8.027 -0.2262 -0.3617  0.1379
 4967TIP3    H136460   6.035   4.215   8.022  0.1874 -0.8684  2.6694
 4967TIP3    H236461   5.891   4.258   8.034 -0.0903 -0.0239 -1.8587
 4968TIP3   OH236462   3.603   5.616   2.213  0.1464  0.0027 -0.4206
 4968TIP3    H136463   3.634   5.549   2.152  2.1273  0.2154  0.2604
 4968TIP3    H236464   3.580   5.568   2.292  1.1579  0.0643 -0.0787
 4969TIP3   OH236465   3.663   4.196   2.730 -0.6470 -0.0099 -0.3164
 4969TIP3    H136466   3.752   4.225   2.750 -0.3632 -0.8223 -0.3669
 4969TIP3    H236467   3.670   4.101   2.725 -1.1154  0.0184 -2.2023
 4970TIP3   OH236468   6.685   3.047   6.717 -0.0813 -0.2010 -0.0991
 4970TIP3    H136469   6.694   3.142   6.721  0.3748 -0.1148 -2.0526
 4970TIP3    H236470   6.754   3.013   6.775  0.2437  0.6512  0.0166
 4971TIP3   OH236471   2.857   1.965   2.493 -0.0327  0.3980  0.1019
 4971TIP3    H136472   2.946   1.958   2.527  0.4185  2.9731 -0.3900
 4971TIP3    H236473   2.814   1.884   2.523  2.3312 -0.7439  0.6403
 4972TIP3   OH236474   4.491   1.368   0.202  0.0212  0.3274  0.4166
 4972TIP3    H136475   4.469   1.320   0.123 -0.4493 -0.2857  0.9036
 4972TIP3    H236476   4.587   1.376   0.201 -0.0562  1.3544 -0.7822
 4973TIP3   OH236477   2.803   3.247   1.233  0.3804  0.1874  0.2766
 4973TIP3    H136478   2.802   3.252   1.138  0.9226 -4.9476 -0.2804
 4973TIP3    H236479   2.877   3.303   1.259  0.6050  1.2225 -2.3344
 4974TIP3   OH236480   2.273   1.246   1.658  0.2097 -0.1123  0.5314
 4974TIP3    H136481   2.337   1.282   1.597 -0.8393  0.4491 -0.2843
 4974TIP3    H236482   2.306   1.269   1.745  1.5983 -0.6875  0.1802
 4975TIP3   OH236483   0.725   1.496   0.501 -0.2934 -0.3810 -0.2794
 4975TIP3    H136484   0.629   1.489   0.497 -0.6409  3.0764 -0.4791
 4975TIP3    H236485   0.745   1.578   0.457  2.7071 -0.5239  0.6273
 4976TIP3   OH236486   6.548   3.575   1.736 -0.1080 -0.3339 -0.0313
 4976TIP3    H136487   6.637   3.553   1.764 -0.5493 -0.0874  1.7081
 4976TIP3    H236488   6.525   3.507   1.673  0.8880 -1.0886  0.3905
 4977TIP3   OH236489   4.068   2.452   7.376 -0.2084 -0.6588 -0.0625
 4977TIP3    H136490   4.127   2.401   7.321  1.7041  0.2126  1.0849
 4977TIP3    H236491   4.082   2.543   7.349 -0.2317 -0.3438  0.9476
 4978TIP3   OH236492   2.917   0.868   0.839  0.5567 -0.3373 -0.1729
 4978TIP3    H136493   2.870   0.921   0.775  1.0671 -1.4667 -1.5600
 4978TIP3    H236494   2.996   0.839   0.793  2.0866  0.5860  1.7146
 4979TIP3   OH236495   3.310   2.002   0.013  0.4252  0.2728  0.4906
 4979TIP3    H136496   3.245   2.072   0.007 -0.4769 -0.5261  0.5990
 4979TIP3    H236497   3.356   2.019   0.095 -0.8826 -0.1518  1.3399
 4980TIP3   OH236498   6.772   0.223   1.044  0.2240  0.1285  0.0486
 4980TIP3    H136499   6.830   0.276   0.989 -0.0594 -0.4094 -0.7961
 4980TIP3    H236500   6.696   0.279   1.060  0.3934  0.3595  0.0460
 4981TIP3   OH236501   2.978   4.133   7.153  0.0387 -0.0533 -0.0564
 4981TIP3    H136502   2.991   4.223   7.123 -1.5336  0.2722  0.1722
 4981TIP3    H236503   2.915   4.096   7.092  0.0447 -0.7440  0.3473
 4982TIP3   OH236504   5.049   3.287   2.084 -0.1637 -0.3322  0.5870
 4982TIP3    H136505   4.954   3.294   2.084 -0.1852 -0.6471 -0.1220
 4982TIP3    H236506   5.074   3.314   2.173 -1.0241 -1.8818  1.3410
 4983TIP3   OH236507   3.740   0.592   7.423  0.7239  0.5537  0.1178
 4983TIP3    H136508   3.715   0.607   7.514  1.0573 -0.4680  0.3910
 4983TIP3    H236509   3.692   0.658   7.374  2.0439  2.4108  1.2123
 4984TIP3   OH236510   4.142   6.295   7.833 -0.3452 -0.4840 -0.6457
 4984TIP3    H136511   4.110   6.285   7.744  0.0209  1.5026 -1.0449
 4984TIP3    H236512   4.216   6.234   7.839  0.4844  0.3196 -2.1734
 4985TIP3   OH236513   4.937   5.059   7.265  0.4634  0.1243  0.3545
 4985TIP3    H136514   4.928   4.975   7.311  1.2311 -0.8600 -1.2278
 4985TIP3    H236515   5.030   5.081   7.273  0.2933  0.7670  0.6387
 4986TIP3   OH236516   5.023   2.251   1.466 -0.6923  0.1828 -0.1093
 4986TIP3    H136517   5.011   2.164   1.504 -2.4646  0.7966  0.8600
 4986TIP3    H236518   5.061   2.304   1.537  0.0433  0.2925 -0.5775
 4987TIP3   OH236519   0.113   3.778   7.448  0.0689  0.0055  0.8627
 4987TIP3    H136520   0.166   3.800   7.524  2.1217 -2.4417  0.2779
 4987TIP3    H236521   0.109   3.682   7.449 -2.5711  0.0108 -0.3673
 4988TIP3   OH236522   0.784   5.650   0.390 -0.5314 -0.4106  0.6230
 4988TIP3    H136523   0.863   5.693   0.358 -0.7338 -0.0637  0.5838
 4988TIP3    H236524   0.811   5.606   0.470 -0.1656 -0.7644  0.3119
 4989TIP3   OH236525   2.921   6.067   0.748 -0.1864 -0.5410 -0.1967
 4989TIP3    H136526   2.962   5.993   0.793 -0.6021 -1.3729 -1.1315
 4989TIP3    H236527   2.880   6.118   0.817  0.0987 -1.1946  0.4720
 4990TIP3   OH236528   0.643   6.696   1.508  0.3547 -0.6678 -0.2231
 4990TIP3    H136529   0.715   6.745   1.547 -0.4163  1.1497 -0.9368
 4990TIP3    H236530   0.593   6.662   1.582 -0.4736  1.7927  0.4582
 4991TIP3   OH236531   4.356   3.023   0.678 -0.0628  0.0813  0.0897
 4991TIP3    H136532   4.362   3.112   0.713 -3.1932  0.1553  0.7038
 4991TIP3    H236533   4.337   3.035   0.585  1.5242 -0.0366 -0.2826
 4992TIP3   OH236534   1.653   2.463   1.824 -0.3951  0.1767 -0.5865
 4992TIP3    H136535   1.689   2.386   1.867 -0.4609 -0.6942 -2.0283
 4992TIP3    H236536   1.565   2.437   1.797 -0.1737  0.5109 -1.6822
 4993TIP3   OH236537   0.236   1.005   8.245  0.2796 -0.0227  0.2059
 4993TIP3    H136538   0.291   0.929   8.263 -0.9795 -0.9279  0.3447
 4993TIP3    H236539   0.215   1.041   8.331 -0.2305 -0.3313  0.2130
 4994TIP3   OH236540   1.612   2.569   7.797 -0.1003  0.0603 -0.2171
 4994TIP3    H136541   1.604   2.527   7.883  0.9576 -0.4705 -0.3637
 4994TIP3    H236542   1.607   2.497   7.734 -1.4710  0.5041 -0.6588
 4995TIP3   OH236543   4.959   5.524   0.079 -0.1031  0.0038 -0.6822
 4995TIP3    H136544   4.865   5.534   0.066 -0.2965  0.7817  1.1163
 4995TIP3    H236545   4.982   5.446   0.027 -1.8689 -0.6836 -0.5018
 4996TIP3   OH236546   5.122   5.613   0.279 -0.2530 -0.2580  0.0135
 4996TIP3    H136547   5.072   5.581   0.204  2.7588 -0.9087 -1.9429
 4996TIP3    H236548   5.141   5.535   0.330  1.8215 -0.7384 -1.3516
 4997TIP3   OH236549   2.189   5.987   7.534  1.0514  0.2174 -0.0371
 4997TIP3    H136550   2.160   5.962   7.446  0.0998 -1.7092  0.7501
 4997TIP3    H236551   2.196   5.904   7.580  4.1922  0.9514  0.9835
 4998TIP3   OH236552   2.943   6.831   0.942  0.3682 -0.0863 -0.1881
 4998TIP3    H136553   2.853   6.809   0.919  0.1555  1.0597 -0.5560
 4998TIP3    H236554   2.950   6.925   0.921  0.6862  0.6636  2.8297
 4999TIP3   OH236555   2.681   4.160   0.782 -0.3831  0.3928  0.5275
 4999TIP3    H136556   2.688   4.066   0.765 -1.3563  0.5717 -1.1489
 4999TIP3    H236557   2.756   4.198   0.736 -0.8761  0.5441 -0.1809
 5000TIP3   OH236558   1.979   1.602   7.233  0.0679 -0.0090 -0.2994
 5000TIP3    H136559   1.963   1.685   7.187  1.0087 -0.2802 -1.1273
 5000TIP3    H236560   1.923   1.539   7.188  0.4899 -0.1348 -0.6531
 5001TIP3   OH236561   1.809   3.359   7.571  0.3628 -0.5179  0.0015
 5001TIP3    H136562   1.724   3.348   7.527  0.7417  0.8150 -1.1545
 5001TIP3    H236563   1.866   3.295   7.529  0.2542 -0.5120 -0.1583
 5002TIP3   OH236564   4.620   5.809   8.631 -0.2731 -0.0606 -0.0536
 5002TIP3    H136565   4.661   5.727   8.660  0.2070  0.4763  0.8635
 5002TIP3    H236566   4.531   5.805   8.666 -0.2281 -0.1592  0.0508
 5003TIP3   OH236567   3.924   1.634   2.684 -0.4391  0.5321 -0.1900
 5003TIP3    H136568   3.996   1.592   2.638 -0.5314 -0.3028  0.4052
 5003TIP3    H236569   3.943   1.620   2.777 -0.9092  1.0785 -0.0043
 5004TIP3   OH236570   1.339   2.345   7.384  0.4604 -0.1913  0.0081
 5004TIP3    H136571   1.385   2.397   7.318  0.0493 -1.5903 -1.4609
 5004TIP3    H236572   1.261   2.313   7.339 -2.6316  2.8821  2.6691
 5005TIP3   OH236573   3.035   4.384   8.435 -0.1511 -0.6339  0.0952
 5005TIP3    H136574   3.124   4.420   8.436 -0.8737  1.2994  0.4146
 5005TIP3    H236575   3.045   4.294   8.406  1.7971 -0.1428 -0.8972
 5006TIP3   OH236576   2.050   3.919   1.954  0.1396  0.1519 -0.6237
 5006TIP3    H136577   2.012   3.873   1.879 -1.7552 -2.6333  1.7767
 5006TIP3    H236578   1.975   3.961   1.996  1.0324  0.9986  0.1526
 5007TIP3   OH236579   0.525   2.099   0.725  0.4013  0.2971  0.1192
 5007TIP3    H136580   0.611   2.094   0.768 -0.0660 -2.3904  0.9294
 5007TIP3    H236581   0.468   2.141   0.789  0.0764 -2.2812  1.6677
 5008TIP3   OH236582   4.049   1.410   7.606  0.7590 -0.0663  0.0487
 5008TIP3    H136583   4.007   1.325   7.621  0.3231 -0.1228 -1.3912
 5008TIP3    H236584   4.142   1.390   7.599  0.4767 -0.7895 -2.5143
 5009TIP3   OH236585   3.842   6.069   8.320 -0.3499 -0.2475 -0.2851
 5009TIP3    H136586   3.923   6.092   8.365  0.6649 -0.9695 -1.6656
 5009TIP3    H236587   3.823   6.146   8.265  0.3323 -0.6957 -1.1859
 5010TIP3   OH236588   5.269   4.141   0.149  0.2934 -0.7023  0.1671
 5010TIP3    H136589   5.237   4.075   0.210  0.3430  1.0297  2.2096
 5010TIP3    H236590   5.356   4.165   0.182  0.8420 -0.5409 -1.3106
 5011TIP3   OH236591   2.344   5.881   1.023  0.1801 -0.6585  0.3001
 5011TIP3    H136592   2.340   5.967   0.981 -0.9063 -0.8436 -0.0013
 5011TIP3    H236593   2.393   5.826   0.961  1.4277 -0.1207  0.7758
 5012TIP3   OH236594   4.574   4.465   0.214  0.3557 -0.1732  0.0669
 5012TIP3    H136595   4.663   4.463   0.248  1.5944  2.5468 -2.5194
 5012TIP3    H236596   4.585   4.482   0.120 -2.8742 -2.2403 -0.8314
 5013TIP3   OH236597   4.710   5.330   1.329  0.6296  0.4125 -0.3702
 5013TIP3    H136598   4.777   5.396   1.345  0.3766  0.3351  1.1126
 5013TIP3    H236599   4.745   5.251   1.370 -0.4048  0.3965  0.5060
 5014TIP3   OH236600   6.293   1.391   6.732 -0.0026  0.0361  0.1800
 5014TIP3    H136601   6.376   1.433   6.709 -0.7207  0.6686 -1.3752
 5014TIP3    H236602   6.295   1.308   6.685 -0.0983 -0.1208  0.4503
 5015TIP3   OH236603   1.621   5.915   8.582 -0.0253 -0.2531 -0.0562
 5015TIP3    H136604   1.661   5.831   8.604  1.5910  0.2802 -0.8601
 5015TIP3    H236605   1.587   5.948   8.666  1.3429 -0.6662  0.6921
 5016TIP3   OH236606   0.679   6.836   7.603  0.0736  0.3165 -0.2785
 5016TIP3    H136607   0.587   6.814   7.591  0.1880  0.1410 -0.8790
 5016TIP3    H236608   0.693   6.832   7.698 -0.2485 -0.8221 -0.2693
 5017TIP3   OH236609   0.957   2.021   8.132 -0.7239  0.4674  0.5939
 5017TIP3    H136610   1.029   2.059   8.181 -0.9068 -1.6124  2.6826
 5017TIP3    H236611   0.994   1.999   8.047  0.7171  0.7224  1.1330
 5018TIP3   OH236612   5.730   3.036   1.733  0.1613 -0.5789 -0.1445
 5018TIP3    H136613   5.730   3.077   1.819 -2.4385  0.9526 -0.7700
 5018TIP3    H236614   5.720   3.108   1.671  3.2712 -1.4915 -1.9258
 5019TIP3   OH236615   6.113   5.116   8.222 -0.4995  0.0920 -0.4769
 5019TIP3    H136616   6.206   5.132   8.240  0.1262 -3.8561  0.7366
 5019TIP3    H236617   6.066   5.167   8.289  1.0011 -0.4173  1.0324
 5020TIP3   OH236618   4.051   0.558   8.702  0.0530  0.0467  0.1223
 5020TIP3    H136619   3.982   0.621   8.680 -1.3370 -1.8599 -1.2606
 5020TIP3    H236620   4.086   0.529   8.617  0.6082 -1.0945  0.7155
 5021TIP3   OH236621   0.537   0.327   1.558  0.1641 -0.1838  0.1361
 5021TIP3    H136622   0.552   0.270   1.482  0.5425 -0.2348  0.2497
 5021TIP3    H236623   0.609   0.308   1.617  0.1881  0.2790  0.2588
 5022TIP3   OH236624   4.442   0.866   2.084  0.3378  0.4841 -0.6276
 5022TIP3    H136625   4.419   0.955   2.110  2.0973  1.0310 -0.7772
 5022TIP3    H236626   4.475   0.826   2.164  1.4901  0.6687 -0.9963
 5023TIP3   OH236627   2.351   2.052   1.730  0.0694 -0.1271 -0.2530
 5023TIP3    H136628   2.296   2.052   1.652  0.3453 -0.1126 -0.4479
 5023TIP3    H236629   2.425   2.109   1.708  0.3618 -0.4547 -0.1342
 5024TIP3   OH236630   3.957   0.702   2.202  0.3504 -0.7672 -0.3433
 5024TIP3    H136631   3.900   0.722   2.276  0.1001 -0.8604 -0.5103
 5024TIP3    H236632   3.898   0.694   2.127  0.9037  2.8074 -1.3163
 5025TIP3   OH236633   0.825   2.773   1.239 -0.0102 -0.4722 -0.0563
 5025TIP3    H136634   0.767   2.849   1.246  2.2174  1.3714 -0.2617
 5025TIP3    H236635   0.799   2.731   1.157 -1.5471 -0.2090  0.2533
 5026TIP3   OH236636   1.868   6.745   8.468 -0.3516 -0.2763  0.7076
 5026TIP3    H136637   1.938   6.794   8.424  0.6562 -2.5881 -0.4773
 5026TIP3    H236638   1.792   6.803   8.466  0.1931  0.4962 -2.4748
 5027TIP3   OH236639   1.676   5.806   3.170  0.4646  0.0405  0.1577
 5027TIP3    H136640   1.651   5.827   3.080 -1.8348 -1.3609  0.3828
 5027TIP3    H236641   1.702   5.890   3.208 -0.9149  1.1084 -1.1160
 5028TIP3   OH236642   6.478   5.740   1.334 -0.5347 -0.3166  0.3011
 5028TIP3    H136643   6.526   5.821   1.322  0.6152 -1.0460 -0.1660
 5028TIP3    H236644   6.456   5.738   1.428  0.7324 -0.1701  0.6173
 5029TIP3   OH236645   4.876   1.771   7.920 -0.1516  0.2044  0.1876
 5029TIP3    H136646   4.935   1.696   7.927 -0.3760 -0.0216 -0.3010
 5029TIP3    H236647   4.825   1.770   8.001 -1.6670 -1.4579 -0.7216
 5030TIP3   OH236648   1.781   5.046   8.377 -0.1128  0.3568  0.4141
 5030TIP3    H136649   1.851   5.110   8.388  1.9361 -1.1184 -2.5823
 5030TIP3    H236650   1.701   5.099   8.377  1.0642  2.3063  2.4065
 5031TIP3   OH236651   1.029   0.891   1.270  0.6668 -0.3926  0.1757
 5031TIP3    H136652   1.032   0.986   1.281 -0.1194 -0.4629  1.0770
 5031TIP3    H236653   1.063   0.876   1.182  1.1790  0.6913  0.1743
 5032TIP3   OH236654   5.144   0.997   1.646  0.3579 -0.0354 -0.3181
 5032TIP3    H136655   5.206   1.027   1.579  0.0617 -0.0563 -0.6047
 5032TIP3    H236656   5.193   1.002   1.728  0.8377 -0.3286 -0.5789
 5033TIP3   OH236657   2.730   1.030   0.686 -0.3756  0.2770 -0.0994
 5033TIP3    H136658   2.687   1.006   0.604  1.2844 -1.1746 -0.6160
 5033TIP3    H236659   2.663   1.019   0.753 -0.9833 -1.3650 -0.9235
 5034TIP3   OH236660   1.723   6.287   1.356 -0.4852 -0.2329 -0.2057
 5034TIP3    H136661   1.779   6.358   1.324  0.1880 -0.7447 -0.1950
 5034TIP3    H236662   1.636   6.325   1.361 -0.3062  0.3196 -1.1135
 5035TIP3   OH236663   3.433   1.862   6.838 -0.0409  0.6348 -0.1490
 5035TIP3    H136664   3.438   1.820   6.924  1.1002 -2.2477 -1.4681
 5035TIP3    H236665   3.516   1.909   6.830  0.2216  0.2096  0.0254
 5036TIP3   OH236666   1.213   4.182   0.835  0.1035  0.2390 -0.2473
 5036TIP3    H136667   1.186   4.114   0.897 -1.2387  0.4833 -0.5375
 5036TIP3    H236668   1.263   4.134   0.768 -2.3661 -0.8290 -1.4450
 5037TIP3   OH236669   1.596   2.892   1.705  0.1160  0.3029 -0.5228
 5037TIP3    H136670   1.521   2.909   1.648 -1.7575 -0.3421  1.5925
 5037TIP3    H236671   1.586   2.954   1.777  0.3055 -1.2540  0.9122
 5038TIP3   OH236672   1.383   0.863   2.185  0.2681 -0.1644  0.3594
 5038TIP3    H136673   1.348   0.781   2.150  0.7330 -0.0141 -0.4573
 5038TIP3    H236674   1.405   0.842   2.276  1.7796 -1.3782 -0.2562
 5039TIP3   OH236675   5.801   2.073   8.033 -0.0788 -0.4317  0.0348
 5039TIP3    H136676   5.761   2.080   7.946 -0.2400  0.8895  0.2009
 5039TIP3    H236677   5.729   2.046   8.090 -0.3787  0.4005  0.0574
 5040TIP3   OH236678   3.602   3.983   1.831  0.4358 -0.7783 -0.2839
 5040TIP3    H136679   3.566   4.014   1.748  2.0847  0.9215 -0.4094
 5040TIP3    H236680   3.612   3.888   1.818 -2.9472 -1.2432 -0.5620
 5041TIP3   OH236681   0.084   0.730   7.082  0.1036  0.0342  0.1257
 5041TIP3    H136682   0.086   0.760   6.992  0.5172  0.2606  0.2078
 5041TIP3    H236683   0.017   0.662   7.083 -1.6635  1.6726  0.1584
 5042TIP3   OH236684   3.447   6.416   2.108 -0.3379  0.1810 -0.4598
 5042TIP3    H136685   3.465   6.487   2.045 -0.7776  1.6301  0.9723
 5042TIP3    H236686   3.361   6.438   2.144  0.3861  0.0470  1.4610
 5043TIP3   OH236687   4.021   1.900   1.696  0.2249  0.3025 -0.1601
 5043TIP3    H136688   4.044   1.919   1.605 -1.1099 -1.7058 -0.9727
 5043TIP3    H236689   3.934   1.937   1.707  0.7017  1.2560  0.5908
 5044TIP3   OH236690   6.232   5.507   2.098  0.2382  0.3737  0.3315
 5044TIP3    H136691   6.301   5.570   2.073  0.5960  0.2436  0.9839
 5044TIP3    H236692   6.203   5.470   2.014  0.6386  0.7675  0.0121
 5045TIP3   OH236693   5.884   3.807   1.527  0.3172  0.2015  0.4291
 5045TIP3    H136694   5.811   3.795   1.466 -0.3875  0.5890  1.1747
 5045TIP3    H236695   5.959   3.827   1.472 -0.2889  0.4454 -0.3150
 5046TIP3   OH236696   0.705   2.502   8.607  0.2035  0.1540  1.0130
 5046TIP3    H136697   0.646   2.484   8.535  0.5263  0.5157  0.6537
 5046TIP3    H236698   0.650   2.545   8.673 -0.5220 -1.8696  1.7975
 5047TIP3   OH236699   5.974   2.243   1.110 -0.6013 -0.3009  0.3442
 5047TIP3    H136700   5.967   2.297   1.031 -1.6976 -0.9608 -0.0354
 5047TIP3    H236701   5.889   2.254   1.153 -0.0533 -0.0460  1.3720
 5048TIP3   OH236702   2.768   0.952   7.869  0.5126 -0.0804 -0.5338
 5048TIP3    H136703   2.804   0.891   7.806  0.1561  0.7673 -1.5953
 5048TIP3    H236704   2.681   0.918   7.890  0.4964 -0.1796 -0.7699
 5049TIP3   OH236705   6.073   6.784   3.018 -0.0579 -0.1692 -0.1015
 5049TIP3    H136706   6.118   6.830   3.090  0.8426 -1.2830  0.0818
 5049TIP3    H236707   6.095   6.835   2.940  2.4387 -1.2052 -0.1709
 5050TIP3   OH236708   3.914   5.356   8.117  0.0042  0.1919 -0.2399
 5050TIP3    H136709   3.848   5.399   8.062 -2.8483  1.4028  3.7214
 5050TIP3    H236710   3.963   5.428   8.156 -1.0332 -0.2565  2.0815
 5051TIP3   OH236711   4.782   4.399   1.327  0.2939 -0.0502 -0.2786
 5051TIP3    H136712   4.788   4.438   1.240 -0.9068  0.6228 -0.0802
 5051TIP3    H236713   4.843   4.450   1.381  0.5377 -0.0332 -0.5720
 5052TIP3   OH236714   3.234   5.119   7.829 -0.0504  0.8125  0.0987
 5052TIP3    H136715   3.161   5.066   7.861 -0.4553  1.0152 -0.4647
 5052TIP3    H236716   3.254   5.083   7.743  0.3344  0.9364  0.1337
 5053TIP3   OH236717   0.085   0.912   8.604 -0.1295 -0.5399 -0.3191
 5053TIP3    H136718   0.102   0.895   8.697 -1.4310 -1.3694 -0.1997
 5053TIP3    H236719  -0.003   0.876   8.589 -1.2759  2.2618 -1.1450
 5054TIP3   OH236720   5.838   5.734   8.379  0.4406  0.9261  0.8401
 5054TIP3    H136721   5.773   5.668   8.401  1.0362  0.2177  0.5123
 5054TIP3    H236722   5.823   5.753   8.286 -1.5573  3.3380  1.5378
 5055TIP3   OH236723   2.569   2.725   7.162  0.3697  0.4246 -0.2498
 5055TIP3    H136724   2.554   2.769   7.246 -1.3597  0.3401 -0.4787
 5055TIP3    H236725   2.506   2.766   7.102  2.9604  1.9844 -2.1207
 5056TIP3   OH236726   2.610   5.421   0.682 -0.2035 -0.0710 -0.2230
 5056TIP3    H136727   2.541   5.483   0.704  0.5442  0.5666  0.3710
 5056TIP3    H236728   2.615   5.362   0.757 -0.5344 -0.5179 -0.5466
 5057TIP3   OH236729   5.568   3.575   3.147  0.0893  0.4998 -0.8370
 5057TIP3    H136730   5.539   3.555   3.058  1.0681  0.7672 -1.2307
 5057TIP3    H236731   5.657   3.540   3.152  0.7515  2.1318 -0.5840
 5058TIP3   OH236732   5.452   3.927   2.501 -0.2553 -0.3795 -0.0322
 5058TIP3    H136733   5.389   3.869   2.543  0.7478 -0.5926  1.2591
 5058TIP3    H236734   5.473   3.884   2.418 -2.5043  0.1997 -0.9606
 5059TIP3   OH236735   2.676   5.934   1.674  0.2229 -1.0008  0.1420
 5059TIP3    H136736   2.755   5.958   1.625  0.1684 -0.0103  0.5247
 5059TIP3    H236737   2.704   5.934   1.765 -0.3972  0.0810  0.3393
 5060TIP3   OH236738   3.043   1.505   0.833 -0.6251  0.3621 -0.1513
 5060TIP3    H136739   2.993   1.424   0.844 -0.3118  0.3163  1.0139
 5060TIP3    H236740   2.989   1.572   0.873  1.5097 -0.1536  4.2155
 5061TIP3   OH236741   0.943   0.096   0.910  0.2684 -0.3451  0.2810
 5061TIP3    H136742   0.876   0.068   0.972  0.0116 -1.5156 -0.4992
 5061TIP3    H236743   1.016   0.125   0.966 -0.7754  0.7439  1.1287
 5062TIP3   OH236744   0.826   3.585   0.966 -0.8973  0.4115  0.5598
 5062TIP3    H136745   0.765   3.511   0.961 -0.0172 -0.3226  0.2380
 5062TIP3    H236746   0.881   3.575   0.888  0.0724  0.6339  1.2053
 5063TIP3   OH236747   2.161   1.518   1.571  0.3319 -0.0086 -0.4566
 5063TIP3    H136748   2.127   1.449   1.628  2.5012 -1.3592 -0.7056
 5063TIP3    H236749   2.132   1.600   1.613 -2.9616 -0.9790 -0.5667
 5064TIP3   OH236750   5.702   5.034   1.336 -0.0771  0.1020 -0.7252
 5064TIP3    H136751   5.653   5.085   1.401  0.5447  0.1005 -0.2347
 5064TIP3    H236752   5.793   5.041   1.366  0.1396 -0.4008 -1.2671
 5065TIP3   OH236753   0.939   3.959   2.065  0.6624  0.3784  0.3078
 5065TIP3    H136754   1.026   3.933   2.095  0.9331  1.0955  0.1467
 5065TIP3    H236755   0.921   4.041   2.111 -0.3231 -0.2267  1.0598
 5066TIP3   OH236756   6.626   4.120   1.077  0.2731  0.0457  0.1069
 5066TIP3    H136757   6.704   4.122   1.133  0.5345 -0.4913 -0.2413
 5066TIP3    H236758   6.654   4.162   0.996  1.0889 -2.7235 -1.1462
 5067TIP3   OH236759   1.959   0.949   8.449 -0.7606  0.4264 -0.1238
 5067TIP3    H136760   1.922   0.932   8.535  0.0923  0.8350  0.3390
 5067TIP3    H236761   2.024   1.019   8.464  0.3298 -0.3864 -0.8621
 5068TIP3   OH236762   0.831   2.608   2.051  0.4120 -0.3435 -0.4056
 5068TIP3    H136763   0.900   2.657   2.098 -0.8181  2.2027 -1.0482
 5068TIP3    H236764   0.754   2.617   2.107 -0.2038 -0.2874 -1.2527
 5069TIP3   OH236765   6.210   1.926   2.451  0.1630  0.5968  0.1822
 5069TIP3    H136766   6.152   2.000   2.463 -0.9031  0.3514 -2.6688
 5069TIP3    H236767   6.275   1.934   2.521 -1.0701  3.0313  1.1477
 5070TIP3   OH236768   3.991   5.800   1.706 -0.4403  0.0745  0.6118
 5070TIP3    H136769   4.025   5.801   1.617  0.4096  0.6296  0.9367
 5070TIP3    H236770   3.916   5.741   1.702 -0.3117 -0.0344 -0.4321
 5071TIP3   OH236771   0.969   5.970   7.425 -0.4542  0.7687  0.3740
 5071TIP3    H136772   0.893   6.014   7.463 -0.8174 -0.2072  0.8261
 5071TIP3    H236773   0.934   5.887   7.392 -0.1760  1.5970 -2.2130
 5072TIP3   OH236774   0.901   1.382   7.332 -0.1448  0.7541 -0.1840
 5072TIP3    H136775   0.934   1.451   7.390  0.4515  1.4571 -1.3226
 5072TIP3    H236776   0.833   1.425   7.281 -2.1382 -0.4021  1.3750
 5073TIP3   OH236777   4.448   2.789   7.663  0.6259  0.8244 -0.4625
 5073TIP3    H136778   4.520   2.812   7.722  0.7715 -0.1999 -0.2273
 5073TIP3    H236779   4.490   2.740   7.592 -0.0723 -1.5977  0.7175
 5074TIP3   OH236780   2.898   0.784   1.912 -0.1084  0.4493  0.4217
 5074TIP3    H136781   2.968   0.744   1.859 -0.7202 -2.4311  1.6492
 5074TIP3    H236782   2.872   0.861   1.861  1.1758 -0.6496 -2.0981
 5075TIP3   OH236783   0.620   2.464   1.051  0.1837  0.3681  0.1188
 5075TIP3    H136784   0.649   2.552   1.025 -0.2823 -0.0356 -1.8445
 5075TIP3    H236785   0.608   2.471   1.146  1.6997  1.9739  0.2589
 5076TIP3   OH236786   4.032   3.442   7.417 -0.2196 -0.0652  0.2658
 5076TIP3    H136787   4.059   3.350   7.413 -2.5485 -0.7593 -2.8934
 5076TIP3    H236788   3.940   3.441   7.391  0.1144  3.3111 -1.5081
 5077TIP3   OH236789   2.295   6.790   7.099  0.1254 -0.3136 -0.1995
 5077TIP3    H136790   2.341   6.772   7.182  0.2538 -1.1289 -0.4369
 5077TIP3    H236791   2.363   6.822   7.040 -0.4425  3.4132  0.8683
 5078TIP3   OH236792   0.023   3.087   1.430 -0.2117 -0.0518  0.2688
 5078TIP3    H136793   0.052   3.123   1.514 -0.9694  2.7066 -0.5453
 5078TIP3    H236794  -0.072   3.079   1.438 -0.2521 -0.0935 -0.2100
 5079TIP3   OH236795   3.855   0.588   2.651  0.1266 -0.0093 -0.1262
 5079TIP3    H136796   3.873   0.498   2.624  0.6587  0.4572 -1.3530
 5079TIP3    H236797   3.815   0.579   2.738 -0.1945 -1.4438 -0.4037
 5080TIP3   OH236798   1.999   3.720   0.708  0.1824  0.3689 -0.1159
 5080TIP3    H136799   2.077   3.666   0.710 -0.4422 -0.6236 -1.2286
 5080TIP3    H236800   2.031   3.810   0.720  1.4911 -0.0197 -0.5780
 5081TIP3   OH236801   5.990   3.811   1.148  0.0472  0.1430  0.2341
 5081TIP3    H136802   5.906   3.830   1.190  0.6253 -1.3330  2.2378
 5081TIP3    H236803   6.050   3.878   1.182 -0.0895  0.5782 -0.3823
 5082TIP3   OH236804   1.046   2.433   7.584  0.3850 -0.0736  0.5497
 5082TIP3    H136805   1.074   2.381   7.509  0.2351  0.6307 -0.0138
 5082TIP3    H236806   1.101   2.403   7.657  2.1203  0.7810 -0.3583
 5083TIP3   OH236807   0.821   2.454   7.791 -0.2586  0.3304  0.1181
 5083TIP3    H136808   0.890   2.435   7.727  0.8380 -0.9072  1.5796
 5083TIP3    H236809   0.744   2.407   7.758  0.3365 -0.4205 -0.2286
 5084TIP3   OH236810   0.194   0.751   2.496  0.6276 -0.0794  0.4343
 5084TIP3    H136811   0.281   0.744   2.535  0.6733 -1.3856  0.1493
 5084TIP3    H236812   0.139   0.788   2.566  1.5655  1.5995  0.3262
 5085TIP3   OH236813   2.110   6.642   1.484 -0.4404  0.1560  0.3716
 5085TIP3    H136814   2.144   6.697   1.555  0.6201  1.9250 -1.3948
 5085TIP3    H236815   2.052   6.700   1.434 -1.0152 -0.9790 -0.3270
 5086TIP3   OH236816   0.440   5.372   8.467 -0.1943  0.7621  0.0109
 5086TIP3    H136817   0.380   5.307   8.505  1.2724  0.7338  2.4968
 5086TIP3    H236818   0.386   5.450   8.454 -0.9595  0.5273  1.5420
 5087TIP3   OH236819   5.810   1.086   8.714  0.2483 -0.4257 -0.4418
 5087TIP3    H136820   5.903   1.070   8.699  0.0658 -1.4936 -0.5605
 5087TIP3    H236821   5.773   1.097   8.626  0.2502 -0.0912 -0.4003
 5088TIP3   OH236822   3.093   0.632   1.284  0.1599 -0.2382 -0.0803
 5088TIP3    H136823   3.167   0.572   1.286  0.4817  0.1720  1.7247
 5088TIP3    H236824   3.113   0.692   1.213  1.7982  0.1324  0.6437
 5089TIP3   OH236825   3.054   3.628   2.182  0.3806 -0.0348 -0.3649
 5089TIP3    H136826   3.115   3.582   2.240  0.4424  1.3767  0.7318
 5089TIP3    H236827   2.967   3.605   2.216  0.3841 -0.0717 -0.3810
 5090TIP3   OH236828   3.375   0.179   8.530 -0.0830 -0.3917 -0.3558
 5090TIP3    H136829   3.438   0.179   8.601  0.2532  0.0055 -0.6474
 5090TIP3    H236830   3.339   0.268   8.529 -0.3457 -0.4971 -0.4510
 5091TIP3   OH236831   0.990   6.840   7.925 -0.3394  0.1599 -0.1624
 5091TIP3    H136832   0.981   6.753   7.964 -1.4236  0.6630  0.7783
 5091TIP3    H236833   1.073   6.837   7.879 -0.7819 -1.6797 -0.9448
 5092TIP3   OH236834   2.013   3.565   2.551  0.4989  0.4503 -0.2619
 5092TIP3    H136835   1.990   3.652   2.584  0.0126 -0.2250  1.2844
 5092TIP3    H236836   2.100   3.548   2.586  0.6759  0.3908 -0.7279
 5093TIP3   OH236837   1.288   3.011   7.800 -0.2529 -0.0496 -0.5290
 5093TIP3    H136838   1.336   2.933   7.771 -1.4819 -0.8084 -0.6099
 5093TIP3    H236839   1.223   3.026   7.731  0.9559  1.9936 -1.2796
 5094TIP3   OH236840   6.790   3.048   0.124 -0.1516 -0.3278 -0.3697
 5094TIP3    H136841   6.711   3.038   0.176 -0.4755 -0.0688 -0.8110
 5094TIP3    H236842   6.818   2.958   0.105  0.3037 -0.4376  0.7449
 5095TIP3   OH236843   1.499   0.736   1.112 -0.1285  0.0552  0.0960
 5095TIP3    H136844   1.509   0.699   1.200  0.9790 -0.5875 -0.2794
 5095TIP3    H236845   1.545   0.675   1.055 -1.4116  0.1115 -1.0372
 5096TIP3   OH236846   5.227   6.254   8.226  0.4444  0.0186  0.2250
 5096TIP3    H136847   5.174   6.210   8.292 -0.4241  0.7216  0.0128
 5096TIP3    H236848   5.304   6.285   8.273  0.1025  0.0216  0.7882
 5097TIP3   OH236849   6.160   3.337   8.681 -0.1274 -0.4181  0.3687
 5097TIP3    H136850   6.231   3.362   8.739 -0.6956 -0.5454  1.1366
 5097TIP3    H236851   6.110   3.418   8.667 -0.0870 -0.4229  0.1884
 5098TIP3   OH236852   5.198   0.285   8.566 -0.2872  0.7797 -0.0897
 5098TIP3    H136853   5.131   0.217   8.575  1.0870 -0.9918 -2.1820
 5098TIP3    H236854   5.265   0.261   8.629  1.1081 -1.1313 -2.1206
 5099TIP3   OH236855   5.904   1.730   7.095 -0.1299 -0.4802  0.3982
 5099TIP3    H136856   5.844   1.800   7.120  1.1120  0.4011  1.0098
 5099TIP3    H236857   5.991   1.767   7.109  0.5895 -1.3549 -1.4792
 5100TIP3   OH236858   5.563   4.235   7.867 -0.0029  0.4770  0.2079
 5100TIP3    H136859   5.566   4.268   7.778 -1.8214 -0.6258 -0.3152
 5100TIP3    H236860   5.655   4.228   7.893  0.5991  0.2075 -1.8152
 5101TIP3   OH236861   4.153   6.471   7.063 -0.1940  0.1665 -0.3745
 5101TIP3    H136862   4.089   6.507   7.002 -1.3719  0.3186  0.9133
 5101TIP3    H236863   4.171   6.543   7.124 -1.3432 -0.8478  1.2513
 5102TIP3   OH236864   4.664   3.612   8.528  0.1050 -0.1461 -0.0582
 5102TIP3    H136865   4.673   3.532   8.476  2.3965 -0.0067  0.0422
 5102TIP3    H236866   4.740   3.613   8.585 -1.3586  0.6849  2.0179
 5103TIP3   OH236867   3.186   4.794   0.664 -0.0520 -0.0729 -0.2511
 5103TIP3    H136868   3.134   4.874   0.666  0.9747  0.5998  0.7393
 5103TIP3    H236869   3.194   4.768   0.755 -0.7318 -1.5781 -0.5855
 5104TIP3   OH236870   2.512   6.489   0.946 -0.3374 -0.0867  0.0131
 5104TIP3    H136871   2.544   6.510   1.034 -1.2123  1.1162  0.0853
 5104TIP3    H236872   2.418   6.506   0.951 -0.3839  0.0938 -1.1739
 5105TIP3   OH236873   2.513   4.487   1.596  0.4635  0.1428  0.0059
 5105TIP3    H136874   2.475   4.571   1.624 -1.8760 -1.2717  1.4254
 5105TIP3    H236875   2.554   4.506   1.512  0.8616  2.9041  0.7362
 5106TIP3   OH236876   6.024   0.613   2.061 -0.0374  0.6509  0.7193
 5106TIP3    H136877   6.101   0.638   2.111  0.5203  0.1544  0.1442
 5106TIP3    H236878   6.021   0.517   2.068 -1.1722  0.7305  1.5402
 5107TIP3   OH236879   2.448   1.810   0.234  0.7744 -0.2233 -0.0490
 5107TIP3    H136880   2.493   1.880   0.187 -2.7416  1.8467 -0.7530
 5107TIP3    H236881   2.464   1.829   0.327 -2.3702  3.5950 -0.0082
 5108TIP3   OH236882   3.649   1.470   0.480  0.0931 -0.0624  0.9134
 5108TIP3    H136883   3.738   1.489   0.452  0.0217 -2.8954 -1.6920
 5108TIP3    H236884   3.657   1.453   0.574  2.0091  0.9917  1.0057
 5109TIP3   OH236885   1.047   2.450   1.131  0.0101 -0.0656 -0.4818
 5109TIP3    H136886   1.071   2.376   1.187  2.9743  0.8841 -0.3564
 5109TIP3    H236887   1.064   2.528   1.185  0.2994  0.7961 -1.7783
 5110TIP3   OH236888   3.101   3.440   0.669  0.0637 -0.0678  0.0292
 5110TIP3    H136889   3.190   3.475   0.659 -0.2234  0.1877 -1.9401
 5110TIP3    H236890   3.061   3.497   0.734  0.8248  0.8613 -0.2836
 5111TIP3   OH236891   3.541   0.490   2.669  0.5714  0.6115 -0.2839
 5111TIP3    H136892   3.492   0.419   2.710  0.1802  1.0861  0.0834
 5111TIP3    H236893   3.623   0.495   2.719 -0.4443  2.0462  1.3352
 5112TIP3   OH236894   1.326   4.558   0.773  0.2636  0.0868 -0.5641
 5112TIP3    H136895   1.364   4.481   0.731  1.9347  0.5188  0.1023
 5112TIP3    H236896   1.350   4.631   0.716 -1.7615  0.1234 -1.4811
 5113TIP3   OH236897   1.528   5.939   1.311 -0.3880  0.1077 -0.3227
 5113TIP3    H136898   1.478   6.010   1.271 -2.4001 -1.4602 -0.7636
 5113TIP3    H236899   1.546   5.969   1.400 -0.2481  1.5916 -0.8245
 5114TIP3   OH236900   4.743   4.732   0.478  0.2860  0.9364 -0.1420
 5114TIP3    H136901   4.793   4.762   0.554 -1.3479 -0.7458  1.7117
 5114TIP3    H236902   4.715   4.643   0.501 -0.7365  0.5734 -2.5042
 5115TIP3   OH236903   5.129   5.035   0.149 -0.5856 -0.1568  0.3341
 5115TIP3    H136904   5.048   5.084   0.162 -0.8613 -0.4025 -0.4220
 5115TIP3    H236905   5.115   4.985   0.069  1.0994  1.5021 -1.0965
 5116TIP3   OH236906   3.543   6.213   1.089 -0.5376  0.1888 -0.4092
 5116TIP3    H136907   3.508   6.248   1.007 -0.7119  1.4877  0.1838
 5116TIP3    H236908   3.541   6.288   1.149  3.0272  0.3178 -0.2476
 5117TIP3   OH236909   4.418   5.653   1.056 -0.0701  0.0841  0.4259
 5117TIP3    H136910   4.424   5.670   1.150 -0.1191 -0.5002  0.5369
 5117TIP3    H236911   4.342   5.596   1.047 -0.6340  0.8822 -0.0768
 5118TIP3   OH236912   1.973   1.350   0.197  0.1185 -0.2090  0.3668
 5118TIP3    H136913   1.923   1.364   0.277 -1.8063 -1.0357 -0.6279
 5118TIP3    H236914   2.035   1.281   0.219 -0.6161 -0.6631  1.0676
 5119TIP3   OH236915   2.376   6.313   8.551  0.3651  0.1727 -0.3683
 5119TIP3    H136916   2.297   6.348   8.592  1.1850  1.9694 -0.2438
 5119TIP3    H236917   2.351   6.295   8.461 -0.3215  0.2344 -0.1916
 5120TIP3   OH236918   0.096   3.988   1.898  0.2337  0.6018 -0.2666
 5120TIP3    H136919   0.122   4.057   1.838 -1.7679  1.1921 -0.5046
 5120TIP3    H236920   0.170   3.926   1.897  2.4886  3.1032  0.6509
 5121TIP3   OH236921   3.969   0.118   2.919 -0.3426  0.2532 -0.2683
 5121TIP3    H136922   3.982   0.193   2.978  0.4236 -0.1702  0.1171
 5121TIP3    H236923   4.052   0.070   2.923 -0.7536 -0.5037 -0.6742
 5122TIP3   OH236924   3.496   2.579   8.658  0.4910 -0.6344  0.2531
 5122TIP3    H136925   3.499   2.656   8.600 -1.7588 -0.1040  0.7521
 5122TIP3    H236926   3.587   2.569   8.688  1.3953  0.1027 -1.9964
 5123TIP3   OH236927   3.248   3.201   7.485  0.7696  0.4456 -0.0275
 5123TIP3    H136928   3.338   3.177   7.464  0.6939  0.1574 -0.0265
 5123TIP3    H236929   3.244   3.199   7.581  0.1454 -1.9037 -0.0356
 5124TIP3   OH236930   3.658   4.699   1.974  0.2084  0.4707  0.5885
 5124TIP3    H136931   3.726   4.719   1.909  0.1248 -1.4184 -0.1299
 5124TIP3    H236932   3.703   4.705   2.058  0.9581  0.4495  0.1993
 5125TIP3   OH236933   1.862   1.607   7.479 -0.7808 -0.5730 -0.2059
 5125TIP3    H136934   1.909   1.600   7.396 -1.3976 -0.9629 -0.5351
 5125TIP3    H236935   1.777   1.645   7.455 -1.4545 -1.8613  0.0352
 5126TIP3   OH236936   4.542   6.740   8.602  0.2748 -0.1449  0.1810
 5126TIP3    H136937   4.571   6.718   8.691  0.1669  1.7108  0.7203
 5126TIP3    H236938   4.615   6.791   8.566 -0.2006  0.1701 -0.3424
 5127TIP3   OH236939   3.459   0.819   2.272 -0.3881  0.3575  0.6093
 5127TIP3    H136940   3.524   0.752   2.293  0.6459  1.0495 -0.3164
 5127TIP3    H236941   3.495   0.900   2.308 -0.0404  0.9999 -1.0860
 5128TIP3   OH236942   4.515   5.465   7.953 -0.5895  0.5312  0.6316
 5128TIP3    H136943   4.536   5.437   7.864 -2.3338  0.5485  0.1737
 5128TIP3    H236944   4.420   5.470   7.955 -0.5367  1.8903  2.1060
 5129TIP3   OH236945   3.523   2.844   8.493 -0.5566  0.4675  0.5157
 5129TIP3    H136946   3.502   2.782   8.423 -0.9476 -0.1810  1.1950
 5129TIP3    H236947   3.542   2.926   8.447 -1.3601  0.2064 -0.3235
 5130TIP3   OH236948   5.113   2.696   0.875 -0.3350 -0.4871 -0.2186
 5130TIP3    H136949   5.160   2.613   0.886 -0.1080 -1.1549 -4.3877
 5130TIP3    H236950   5.167   2.746   0.814 -2.6819  0.7334 -1.4470
 5131TIP3   OH236951   1.853   4.249   8.323  0.1973 -0.6470  0.7479
 5131TIP3    H136952   1.883   4.198   8.248 -1.1320 -0.1692 -0.1486
 5131TIP3    H236953   1.855   4.187   8.396  0.3963 -1.4471  0.0825
 5132TIP3   OH236954   3.801   0.559   2.948  0.0441 -1.0360 -0.4578
 5132TIP3    H136955   3.812   0.634   3.007 -1.3374 -1.9238  0.9923
 5132TIP3    H236956   3.769   0.488   3.004 -1.0525 -2.0007 -2.2102
 5133TIP3   OH236957   1.596   1.955   0.563  0.3370 -0.4187 -0.0562
 5133TIP3    H136958   1.514   1.932   0.520  1.5787 -0.0090 -2.8991
 5133TIP3    H236959   1.651   1.991   0.492  2.6061  0.2647  1.9109
 5134TIP3   OH236960   2.524   3.819   7.834  0.3538 -0.1771 -0.4819
 5134TIP3    H136961   2.521   3.733   7.792  2.9927 -0.9705  0.7403
 5134TIP3    H236962   2.536   3.880   7.762  2.2103 -1.2430 -1.1433
 5135TIP3   OH236963   3.661   2.062   8.043  0.1328 -0.7045  0.2204
 5135TIP3    H136964   3.574   2.043   8.079  0.4774 -0.0830  1.4301
 5135TIP3    H236965   3.660   2.157   8.028  0.5725 -0.7103  0.1545
 5136TIP3   OH236966   6.303   5.439   0.770  0.4171 -0.0517  0.1757
 5136TIP3    H136967   6.266   5.522   0.800 -1.0969 -1.2130  1.7431
 5136TIP3    H236968   6.358   5.409   0.842  1.4309 -0.1486 -0.6182
 5137TIP3   OH236969   4.090   5.886   1.967  0.1922  0.0650  0.0018
 5137TIP3    H136970   4.087   5.861   1.874  0.6763  3.5581 -1.0891
 5137TIP3    H236971   4.001   5.913   1.988  0.5354  1.3044 -0.1039
 5138TIP3   OH236972   2.381   0.100   8.707  0.6524 -0.4852  0.0911
 5138TIP3    H136973   2.423   0.129   8.626 -2.2342  1.9985 -0.7222
 5138TIP3    H236974   2.288   0.092   8.685  0.0947 -2.3014  2.5700
 5139TIP3   OH236975   4.033   0.559   0.263  0.0643  0.1649  0.1271
 5139TIP3    H136976   4.022   0.559   0.168 -1.7663  0.1202  0.3038
 5139TIP3    H236977   3.990   0.640   0.292 -0.8273 -0.6027  1.0341
 5140TIP3   OH236978   3.804   6.839   8.510 -0.4135  0.5297 -0.1679
 5140TIP3    H136979   3.828   6.903   8.443 -0.0011 -0.5024 -1.0473
 5140TIP3    H236980   3.733   6.788   8.469 -0.0634 -0.1996  0.1066
 5141TIP3   OH236981   0.916   3.936   8.461  0.4144 -0.2323 -0.2396
 5141TIP3    H136982   0.901   4.030   8.465  0.5153 -0.2245 -0.0300
 5141TIP3    H236983   0.845   3.898   8.513  0.7458 -0.2332  0.2187
 5142TIP3   OH236984   2.200   5.542   0.054 -0.2963 -0.0069  0.3734
 5142TIP3    H136985   2.219   5.619   0.108  1.0609  0.2483 -0.4248
 5142TIP3    H236986   2.280   5.490   0.055 -0.9269 -1.0144  0.2408
 5143TIP3   OH236987   4.957   5.564   0.606 -0.0244  0.4423  0.3226
 5143TIP3    H136988   5.007   5.499   0.557  0.7905  0.4736  1.0928
 5143TIP3    H236989   5.012   5.643   0.606 -0.7638  0.9739 -0.1431
 5144TIP3   OH236990   3.031   2.920   1.637  0.2421 -0.1855  0.1013
 5144TIP3    H136991   3.113   2.898   1.592  2.3249  2.7917  2.0363
 5144TIP3    H236992   2.994   2.991   1.585  0.7825  0.8170  1.0335
 5145TIP3   OH236993   5.395   0.017   1.685 -0.1865  0.6014 -0.0992
 5145TIP3    H136994   5.442   0.065   1.617 -0.7067  0.7901 -0.3320
 5145TIP3    H236995   5.422  -0.074   1.672 -1.2077  0.4390 -1.3746
 5146TIP3   OH236996   1.490   3.310   2.583  0.6079  0.3701 -0.4938
 5146TIP3    H136997   1.454   3.321   2.495 -2.8671  0.0938  0.7226
 5146TIP3    H236998   1.538   3.392   2.599 -0.3802  1.2916 -1.9334
 5147TIP3   OH236999   3.082   1.922   7.784  0.6757  0.2015 -0.2529
 5147TIP3    H137000   3.115   1.987   7.721  0.6559 -0.7783 -1.3112
 5147TIP3    H237001   3.033   1.860   7.730  1.1634 -1.0034  0.6520
 5148TIP3   OH237002   1.215   2.019   7.264 -0.6591  0.4248 -0.2886
 5148TIP3    H137003   1.126   1.986   7.275 -0.5279  0.2113  0.1549
 5148TIP3    H237004   1.259   1.953   7.211 -0.5184  0.0998  0.2334
 5149TIP3   OH237005   5.300   2.357   1.114 -0.0664 -0.2627  0.0188
 5149TIP3    H137006   5.388   2.394   1.118  0.7569 -2.0137 -1.0163
 5149TIP3    H237007   5.312   2.263   1.129 -1.8907 -0.4050  0.8912
 5150TIP3   OH237008   1.239   1.533   1.144  0.0727  0.7515 -0.0801
 5150TIP3    H137009   1.335   1.529   1.149  0.1135 -3.6602 -0.2183
 5150TIP3    H237010   1.212   1.573   1.226  1.9958  0.8124  0.5769
 5151TIP3   OH237011   0.608   3.699   7.788 -0.1457  0.0167  0.4908
 5151TIP3    H137012   0.694   3.738   7.798 -0.4957  0.9268  0.0090
 5151TIP3    H237013   0.569   3.704   7.876  0.5418 -1.0432  0.8768
 5152TIP3   OH237014   3.630   2.623   0.552  0.0700 -0.0833 -0.3773
 5152TIP3    H137015   3.621   2.534   0.586  0.9818  0.2446  0.8086
 5152TIP3    H237016   3.675   2.613   0.469  1.1264 -0.6693  0.2482
 5153TIP3   OH237017   5.016   3.218   2.476 -0.3818  0.0612 -0.0533
 5153TIP3    H137018   4.969   3.141   2.442  0.8516 -0.4138 -0.7511
 5153TIP3    H237019   5.033   3.197   2.568  0.3739 -0.7515 -0.3580
 5154TIP3   OH237020   2.467   0.754   2.468 -0.9714  0.2457 -0.2952
 5154TIP3    H137021   2.497   0.729   2.381  2.3445 -1.9597  1.2564
 5154TIP3    H237022   2.521   0.830   2.490 -1.1773  0.2632  0.1515
 5155TIP3   OH237023   1.527   0.175   8.083 -0.1752 -0.5470 -0.3006
 5155TIP3    H137024   1.527   0.248   8.144 -2.4203 -0.0890 -0.7929
 5155TIP3    H237025   1.539   0.098   8.138  0.1902  0.0244  0.4378
 5156TIP3   OH237026   6.375   0.587   7.000  0.1053 -0.1424 -0.6383
 5156TIP3    H137027   6.387   0.523   7.070 -1.9410 -0.0329 -0.1169
 5156TIP3    H237028   6.284   0.616   7.009 -0.3156 -0.2903 -3.4893
 5157TIP3   OH237029   1.624   5.463   7.524 -0.5471 -0.2437 -0.3417
 5157TIP3    H137030   1.676   5.384   7.511  0.0149 -0.0550  0.6172
 5157TIP3    H237031   1.662   5.527   7.463  0.9870  0.1654  0.9785
 5158TIP3   OH237032   2.303   2.293   7.420  0.4536 -0.2490 -0.0980
 5158TIP3    H137033   2.305   2.387   7.439 -2.3047 -0.3044  0.9289
 5158TIP3    H237034   2.275   2.287   7.328  0.0237 -0.0863  0.0250
 5159TIP3   OH237035   4.689   2.134   0.393 -0.2943  0.6552  0.0393
 5159TIP3    H137036   4.639   2.085   0.327 -0.4428 -0.3574  0.8883
 5159TIP3    H237037   4.637   2.212   0.409 -1.0198  0.1758  0.0492
 5160TIP3   OH237038   6.441   0.408   2.032  0.2382 -0.0273  0.0492
 5160TIP3    H137039   6.500   0.403   2.108  0.6861  0.8141 -0.2273
 5160TIP3    H237040   6.361   0.365   2.061  0.4144  0.2567  0.9962
 5161TIP3   OH237041   2.003   5.292   2.058 -0.3379 -0.1246 -0.2941
 5161TIP3    H137042   2.096   5.285   2.081 -0.8471 -0.5431  1.8030
 5161TIP3    H237043   1.984   5.386   2.066 -0.1351 -0.0574 -0.5866
 5162TIP3   OH237044   2.785   3.141   0.690 -0.3845 -0.6963 -1.1445
 5162TIP3    H137045   2.777   3.217   0.633  1.2351  0.4223  0.0214
 5162TIP3    H237046   2.879   3.127   0.698 -0.5843 -1.1868  0.7369
 5163TIP3   OH237047   1.105   6.764   3.014  0.1573  0.2122 -0.3430
 5163TIP3    H137048   1.025   6.816   3.018 -0.1756 -0.3584  1.1502
 5163TIP3    H237049   1.173   6.820   3.050  0.3284  0.4887 -1.0739
 5164TIP3   OH237050   1.571   2.960   2.639  0.2510  0.1748 -0.3416
 5164TIP3    H137051   1.607   3.031   2.693  0.1607 -0.5249  0.6760
 5164TIP3    H237052   1.487   2.940   2.680  0.7461 -1.2190  0.0388
 5165TIP3   OH237053   2.647   4.123   1.193 -0.6165  0.1152 -0.6134
 5165TIP3    H137054   2.578   4.092   1.136  0.3274  0.8426 -2.2154
 5165TIP3    H237055   2.728   4.093   1.152  0.0393 -1.3522  1.5985
 5166TIP3   OH237056   1.541   1.704   8.506  0.1682  0.3935  0.8429
 5166TIP3    H137057   1.621   1.659   8.481  0.6591  0.7305  1.7503
 5166TIP3    H237058   1.562   1.745   8.590 -0.9274  0.5616  1.0487
 5167TIP3   OH237059   2.324   2.468   2.061  0.1312 -0.0236 -0.2101
 5167TIP3    H137060   2.330   2.389   2.008 -1.0835  1.1144 -2.1826
 5167TIP3    H237061   2.235   2.501   2.045  0.9581  2.3236 -0.4016
 5168TIP3   OH237062   4.327   5.404   0.373 -0.7822  0.3464 -0.3163
 5168TIP3    H137063   4.244   5.449   0.362 -2.3262 -1.8668  1.2095
 5168TIP3    H237064   4.339   5.353   0.293 -3.8117 -3.4723  1.3540
 5169TIP3   OH237065   1.832   4.859   3.084  0.0259 -0.4380  0.2818
 5169TIP3    H137066   1.788   4.894   3.162 -0.2873 -0.9392  0.3315
 5169TIP3    H237067   1.887   4.932   3.053 -1.1817  0.3657 -0.0506
 5170TIP3   OH237068   0.271   2.932   0.952 -0.3015  0.0613  0.0008
 5170TIP3    H137069   0.303   2.845   0.976  2.3111  1.3612  1.8256
 5170TIP3    H237070   0.198   2.948   1.012 -0.1518 -0.5282  0.3539
 5171TIP3   OH237071   3.209   5.801   7.087  0.4551 -0.2062 -0.2380
 5171TIP3    H137072   3.285   5.820   7.032  0.9903 -0.7411  0.3004
 5171TIP3    H237073   3.244   5.798   7.176  0.4851 -3.7464 -0.2453
 5172TIP3   OH237074   3.737   5.925   0.599  0.4252 -0.7353  0.4558
 5172TIP3    H137075   3.729   5.894   0.689 -0.1032  1.1660  1.1026
 5172TIP3    H237076   3.649   5.919   0.563 -0.2306  1.9613  1.3295
 5173TIP3   OH237077   2.713   2.605   0.877  0.3225 -0.1191 -0.4832
 5173TIP3    H137078   2.741   2.613   0.786 -1.0954  1.1954 -0.8473
 5173TIP3    H237079   2.681   2.692   0.901 -1.7922 -1.0549  0.3962
 5174TIP3   OH237080   5.489   6.609   1.715  0.5336 -0.1247  0.2696
 5174TIP3    H137081   5.502   6.633   1.807  2.4342  1.2566 -0.3020
 5174TIP3    H237082   5.560   6.548   1.697  1.2796  0.9992 -0.7277
 5175TIP3   OH237083   2.174   1.306   3.095 -0.3486  0.4345  0.2228
 5175TIP3    H137084   2.085   1.271   3.090  0.9516 -3.2469  0.1245
 5175TIP3    H237085   2.171   1.385   3.041 -3.5938  0.6327  0.4873
 5176TIP3   OH237086   3.858   1.099   7.030 -0.1475 -1.1851  0.7662
 5176TIP3    H137087   3.889   1.033   7.092  0.1771 -3.3996 -1.5665
 5176TIP3    H237088   3.893   1.182   7.063  1.8102 -2.5474  2.3463
 5177TIP3   OH237089   0.740   3.355   8.577  0.0209  0.0136 -0.0816
 5177TIP3    H137090   0.754   3.305   8.658 -1.8561 -2.8689 -1.3926
 5177TIP3    H237091   0.663   3.409   8.596 -0.7738 -1.0910 -0.1036
 5178TIP3   OH237092   6.079   5.943   8.199  0.0994  0.2735  0.0348
 5178TIP3    H137093   6.143   5.877   8.174 -0.6718  0.3177 -2.2708
 5178TIP3    H237094   6.119   6.026   8.171  0.4583  0.6910  1.6662
 5179TIP3   OH237095   6.401   0.003   7.505 -0.3860 -0.4713  0.3610
 5179TIP3    H137096   6.403   0.069   7.574  0.1008  0.0899 -0.1669
 5179TIP3    H237097   6.480  -0.049   7.519 -0.0536 -0.0835 -0.0136
 5180TIP3   OH237098   5.656   4.011   8.060 -0.3518  0.5351 -0.3763
 5180TIP3    H137099   5.592   4.071   8.097  0.0114  0.7618 -0.1158
 5180TIP3    H237100   5.642   4.017   7.965  2.1157  3.8743 -0.6883
 5181TIP3   OH237101   1.874   3.358   2.029  0.8696 -0.3899 -0.1388
 5181TIP3    H137102   1.811   3.287   2.034  0.6754 -0.2301 -0.3114
 5181TIP3    H237103   1.823   3.437   2.045  0.8789 -0.1852 -1.0905
 5182TIP3   OH237104   3.802   5.385   2.370  0.3121  0.0453  0.2272
 5182TIP3    H137105   3.840   5.457   2.422 -0.0485  0.7353 -0.4418
 5182TIP3    H237106   3.852   5.385   2.289 -1.4152  1.3783 -0.9400
 5183TIP3   OH237107   2.555   5.476   0.083 -0.4192  0.2962  0.2200
 5183TIP3    H137108   2.517   5.560   0.058 -0.9018 -0.2806 -1.0883
 5183TIP3    H237109   2.645   5.480   0.051 -0.3085  0.4755  0.5489
 5184TIP3   OH237110   1.203   2.568   8.661  0.7111 -0.3533  0.0956
 5184TIP3    H137111   1.113   2.535   8.666  0.6964 -0.4712 -0.7528
 5184TIP3    H237112   1.218   2.583   8.568  1.3036  0.4397  0.3039
 5185TIP3   OH237113   5.517   0.930   7.601 -0.4926  0.4000 -0.0879
 5185TIP3    H137114   5.445   0.976   7.558 -1.7614 -0.7676  0.6969
 5185TIP3    H237115   5.569   1.000   7.641 -1.0022  1.2905 -0.9309
 5186TIP3   OH237116   2.152   0.868   0.109 -0.2915 -0.0383  0.6221
 5186TIP3    H137117   2.084   0.815   0.066 -0.9753  0.7765  0.6654
 5186TIP3    H237118   2.216   0.805   0.140  0.1159 -0.6813 -1.4133
 5187TIP3   OH237119   3.618   0.371   8.084  0.5677 -0.3542  0.2814
 5187TIP3    H137120   3.609   0.334   7.996 -0.1706 -1.1730  0.6843
 5187TIP3    H237121   3.567   0.312   8.140 -2.1935  2.1848  0.7129
 5188TIP3   OH237122   0.483   3.659   0.533  0.0866  0.2667 -0.0740
 5188TIP3    H137123   0.561   3.612   0.504  1.0661  1.4789  0.5077
 5188TIP3    H237124   0.487   3.655   0.629  0.5203  2.0100  0.0066
 5189TIP3   OH237125   1.625   5.476   8.469  0.0270 -0.2704 -1.0066
 5189TIP3    H137126   1.533   5.496   8.485  0.3747  0.6654 -0.0915
 5189TIP3    H237127   1.657   5.548   8.415 -0.2710 -1.6717 -3.1828
 5190TIP3   OH237128   1.319   0.537   7.367  0.1021 -0.1845 -0.1029
 5190TIP3    H137129   1.251   0.568   7.427  0.3918  0.2146  0.0227
 5190TIP3    H237130   1.283   0.457   7.329 -0.8633  0.5680 -0.8008
 5191TIP3   OH237131   4.589   4.814   8.133 -0.0813 -0.0907 -0.5983
 5191TIP3    H137132   4.639   4.887   8.097 -0.0490  0.7864  1.1106
 5191TIP3    H237133   4.652   4.742   8.138  0.4003  0.3313 -0.5365
 5192TIP3   OH237134   2.580   6.494   8.661  0.5810  0.4365  0.0762
 5192TIP3    H137135   2.529   6.570   8.633  1.6595  0.5455 -1.7901
 5192TIP3    H237136   2.537   6.419   8.620  2.0441  0.5728 -1.8689
 5193TIP3   OH237137   5.727   6.229   8.413  0.4247  0.6301  0.6481
 5193TIP3    H137138   5.757   6.319   8.405 -0.8788  0.9087 -2.2394
 5193TIP3    H237139   5.807   6.176   8.409  0.9802  1.5496 -1.4937
 5194TIP3   OH237140   2.653   1.803   0.569  0.6622 -0.3044  0.9465
 5194TIP3    H137141   2.715   1.735   0.542 -1.9770 -1.9926 -1.4968
 5194TIP3    H237142   2.679   1.881   0.520  2.3403 -0.1366  2.0128
 5195TIP3   OH237143   4.946   2.248   3.294 -0.1627  0.1026  0.3957
 5195TIP3    H137144   4.934   2.236   3.200  0.6419 -0.3601  0.3411
 5195TIP3    H237145   4.857   2.252   3.329 -0.4676 -0.2818 -0.3120
 5196TIP3   OH237146   3.190   2.982   8.643 -0.3389 -0.1826 -0.2777
 5196TIP3    H137147   3.278   3.020   8.638 -0.3933  0.2644  1.5901
 5196TIP3    H237148   3.186   2.920   8.570  0.6040  1.6474 -1.9493
 5197TIP3   OH237149   4.371   1.448   8.514 -0.6355  0.2817  0.2815
 5197TIP3    H137150   4.333   1.505   8.580 -2.8486  0.3376 -0.9562
 5197TIP3    H237151   4.297   1.401   8.476  0.9400 -2.3437  0.2050
 5198TIP3   OH237152   2.936   2.172   0.277 -0.7179 -0.2288 -0.1253
 5198TIP3    H137153   2.842   2.153   0.266 -0.2718 -1.6445 -1.9503
 5198TIP3    H237154   2.979   2.088   0.266  0.7859  0.3647  0.9278
 5199TIP3   OH237155   4.163   6.646   6.709  0.6255  0.0962  0.6071
 5199TIP3    H137156   4.186   6.732   6.743  0.4145  0.8035 -0.9463
 5199TIP3    H237157   4.246   6.598   6.705  0.9747  0.7219  0.1716
 5200TIP3   OH237158   3.782   1.151   0.102 -0.2012  0.0495  0.8554
 5200TIP3    H137159   3.868   1.171   0.138 -0.3166  0.1934  1.0496
 5200TIP3    H237160   3.796   1.070   0.052  0.0467  0.0744  0.8799
 5201TIP3   OH237161   3.799   1.686   1.396 -0.7511  0.2860 -0.3141
 5201TIP3    H137162   3.756   1.771   1.404  1.9255  1.5883  1.7440
 5201TIP3    H237163   3.758   1.633   1.465  0.1563  1.1918  0.9664
 5202TIP3   OH237164   6.809   4.890   0.463 -0.3709  0.2036  0.0486
 5202TIP3    H137165   6.808   4.944   0.384  1.4130  0.1463 -0.0667
 5202TIP3    H237166   6.866   4.816   0.441  2.1219  1.3584  2.0624
 5203TIP3   OH237167   3.045   3.186   0.581 -0.4737  0.1130 -0.6883
 5203TIP3    H137168   3.093   3.251   0.633 -0.4018 -0.1780 -0.3894
 5203TIP3    H237169   3.011   3.236   0.507 -2.0614  0.9078  0.5185
 5204TIP3   OH237170   6.624   4.874   7.613 -0.3249 -0.0197 -0.0881
 5204TIP3    H137171   6.649   4.821   7.689 -0.8438 -0.0971  0.0305
 5204TIP3    H237172   6.683   4.949   7.616 -0.4422  0.0553  0.4800
 5205TIP3   OH237173   1.968   3.719   1.549 -0.3816 -0.1086 -0.3284
 5205TIP3    H137174   1.992   3.807   1.577  0.6443 -0.7496  0.9345
 5205TIP3    H237175   2.048   3.683   1.510 -0.3685 -0.9457  0.4286
 5206TIP3   OH237176   2.663   3.708   2.817 -0.0158 -0.0684  0.2519
 5206TIP3    H137177   2.745   3.747   2.785 -0.1996  0.6222  0.6070
 5206TIP3    H237178   2.656   3.739   2.907 -0.2811 -0.7579  0.4711
 5207TIP3   OH237179   1.805   2.582   8.269  0.2126 -0.0934  0.3849
 5207TIP3    H137180   1.792   2.631   8.350 -1.4004 -1.0493  0.7561
 5207TIP3    H237181   1.722   2.537   8.255  0.6161 -0.3251 -1.5626
 5208TIP3   OH237182   4.856   3.115   1.443  0.0103  0.2985 -0.2445
 5208TIP3    H137183   4.915   3.166   1.387  0.9918 -0.1833  0.3119
 5208TIP3    H237184   4.893   3.026   1.439 -0.6551  0.0022  0.1682
 5209TIP3   OH237185   6.043   3.274   6.864 -0.1911 -0.2305  0.3332
 5209TIP3    H137186   6.087   3.322   6.935 -0.2200  0.9288 -0.4162
 5209TIP3    H237187   6.056   3.181   6.887  2.2406  0.0558  0.3963
 5210TIP3   OH237188   5.175   6.236   0.945 -1.1757  0.2303  0.3858
 5210TIP3    H137189   5.185   6.184   1.025  0.4526 -1.3791 -0.7811
 5210TIP3    H237190   5.098   6.198   0.901  1.1584 -2.8203 -1.4582
 5211TIP3   OH237191   0.525   1.607   8.432  0.6755 -0.2116 -0.5253
 5211TIP3    H137192   0.607   1.590   8.478  0.6127  1.2745  0.1932
 5211TIP3    H237193   0.516   1.703   8.433 -0.6332 -0.3013 -1.3494
 5212TIP3   OH237194   4.709   4.438   7.400 -0.5386  0.2125  0.6193
 5212TIP3    H137195   4.643   4.414   7.466 -0.6170  0.2990  0.5735
 5212TIP3    H237196   4.681   4.392   7.321 -0.8477  0.6706  0.4551
 5213TIP3   OH237197   0.437   4.032   2.368 -0.1819 -0.2394 -0.1282
 5213TIP3    H137198   0.405   4.090   2.437 -0.7325  1.3238 -1.6150
 5213TIP3    H237199   0.359   4.004   2.321  0.0017 -2.8008  0.9202
 5214TIP3   OH237200   0.826   4.958   7.608  0.0616 -0.1213 -0.1763
 5214TIP3    H137201   0.756   4.985   7.548 -1.0250  0.0012  1.1085
 5214TIP3    H237202   0.885   5.033   7.611 -1.2315  0.8993  0.8539
 5215TIP3   OH237203   2.119   1.272   0.521  0.0127  0.6215 -0.0293
 5215TIP3    H137204   2.068   1.193   0.541  0.3796  0.7488  1.4778
 5215TIP3    H237205   2.139   1.310   0.606  2.9879  0.3800 -0.5153
 5216TIP3   OH237206   2.010   1.665   2.892  0.2037  0.3849 -0.4973
 5216TIP3    H137207   2.088   1.619   2.923  1.9337  2.5689 -1.3398
 5216TIP3    H237208   2.002   1.741   2.950 -1.4516  0.0966 -0.3005
 5217TIP3   OH237209   2.179   2.292   0.167 -0.1127  0.4074 -0.3963
 5217TIP3    H137210   2.117   2.230   0.206  0.8217 -1.6908 -1.9763
 5217TIP3    H237211   2.154   2.294   0.074  2.3751 -0.9327 -1.1939
 5218TIP3   OH237212   5.300   4.400   2.417 -0.2848  0.0422  0.2944
 5218TIP3    H137213   5.209   4.424   2.433 -0.1324  0.2995  0.8073
 5218TIP3    H237214   5.321   4.337   2.486 -0.8471 -2.0694 -1.3882
 5219TIP3   OH237215   2.084   4.364   7.863 -0.2218 -0.3604 -0.1040
 5219TIP3    H137216   2.023   4.291   7.869 -0.3253 -0.3872 -1.2077
 5219TIP3    H237217   2.057   4.411   7.783  1.5861 -0.7495 -1.0021
 5220TIP3   OH237218   5.669   4.737   6.966  0.1543  0.0785 -0.5774
 5220TIP3    H137219   5.583   4.776   6.985 -0.2549 -0.7595 -0.6392
 5220TIP3    H237220   5.725   4.766   7.037 -0.4534 -0.1780  0.0175
 5221TIP3   OH237221   3.033   2.916   0.524  0.1215  0.4021  0.4195
 5221TIP3    H137222   3.032   2.999   0.572  0.2706  1.1202 -0.7979
 5221TIP3    H237223   3.030   2.941   0.432 -1.3830 -0.9846  0.0478
 5222TIP3   OH237224   1.792   3.305   1.767 -0.0001 -0.1363 -0.1474
 5222TIP3    H137225   1.835   3.356   1.836  0.1387 -0.1095 -0.2530
 5222TIP3    H237226   1.757   3.370   1.707 -1.5735 -0.1092  0.7524
 5223TIP3   OH237227   4.947   0.525   1.214  0.0259 -0.2441  0.5130
 5223TIP3    H137228   4.923   0.541   1.306 -1.0287 -2.7913  0.7690
 5223TIP3    H237229   4.884   0.577   1.164  1.1194  1.8256  1.1541
 5224TIP3   OH237230   0.362   5.119   0.223 -0.9805 -0.6264  0.8253
 5224TIP3    H137231   0.308   5.068   0.162 -0.6497 -0.6650  0.5627
 5224TIP3    H237232   0.415   5.175   0.166 -2.0681  0.7547  1.1196
 5225TIP3   OH237233   4.523   2.624   2.054 -0.0136 -0.1624 -0.4561
 5225TIP3    H137234   4.449   2.656   2.003 -2.3768 -2.6120  1.1733
 5225TIP3    H237235   4.578   2.578   1.990 -0.9714 -0.0290 -1.3962
 5226TIP3   OH237236   5.726   5.179   0.381 -0.4120  0.5701  0.2080
 5226TIP3    H137237   5.735   5.260   0.332  0.8321 -0.7711 -1.9544
 5226TIP3    H237238   5.813   5.139   0.378 -1.3416 -1.5787 -0.2300
 5227TIP3   OH237239   2.088   0.188   0.630  0.1625 -0.3741  0.4610
 5227TIP3    H137240   2.038   0.233   0.562  0.4234  0.5821  0.8703
 5227TIP3    H237241   2.049   0.101   0.635  0.5205 -0.6734 -1.3034
 5228TIP3   OH237242   2.715   1.140   8.079  0.1462  0.7928 -0.2068
 5228TIP3    H137243   2.798   1.187   8.088  1.0892 -1.0283  1.1204
 5228TIP3    H237244   2.733   1.069   8.019 -0.1113 -0.2945  0.9636
 5229TIP3   OH237245   1.294   3.551   2.987  0.9528 -0.1615 -0.4669
 5229TIP3    H137246   1.215   3.603   2.998  2.3354  1.9802  0.0372
 5229TIP3    H237247   1.263   3.465   2.958 -1.4858  0.7495 -0.7765
 5230TIP3   OH237248   4.260   4.255   1.244  0.4573 -0.0272 -0.3657
 5230TIP3    H137249   4.352   4.281   1.231  1.4794 -2.1920  1.7964
 5230TIP3    H237250   4.258   4.163   1.219 -0.7191 -0.4485  1.1668
 5231TIP3   OH237251   2.871   4.109   0.235  0.2975  0.1248  0.4249
 5231TIP3    H137252   2.909   4.133   0.151 -0.7476 -0.7969 -0.3512
 5231TIP3    H237253   2.944   4.111   0.297  1.2621 -0.0422 -0.6802
 5232TIP3   OH237254   3.280   2.461   1.264  0.4072 -0.4296  0.4768
 5232TIP3    H137255   3.342   2.396   1.232  0.3161 -0.5861  0.6188
 5232TIP3    H237256   3.243   2.422   1.344  0.1332 -0.3326  0.3973
 5233TIP3   OH237257   6.659   1.470   6.920  0.1255 -0.3415  0.5702
 5233TIP3    H137258   6.606   1.493   6.996 -2.2261  0.4175 -1.1808
 5233TIP3    H237259   6.749   1.489   6.946 -0.6835  0.6047  2.8841
 5234TIP3   OH237260   6.285   6.001   1.463 -0.3900 -0.3555  0.4218
 5234TIP3    H137261   6.238   5.938   1.519 -1.3564 -0.8717 -0.9353
 5234TIP3    H237262   6.216   6.048   1.416  0.4145 -0.5126 -0.9624
 5235TIP3   OH237263   1.701   0.011   1.961  0.4064  0.0719 -0.5000
 5235TIP3    H137264   1.691  -0.059   2.025  0.8897  0.3951 -0.0509
 5235TIP3    H237265   1.661  -0.022   1.881 -1.7087  0.2965  0.4079
 5236TIP3   OH237266   1.843   3.093   0.573  0.2669  0.3818 -0.6339
 5236TIP3    H137267   1.856   3.018   0.515  1.2410  0.2727 -0.2989
 5236TIP3    H237268   1.888   3.165   0.529  2.6876 -0.1230  0.8069
 5237TIP3   OH237269   4.251   5.628   2.087 -0.7014  0.0626 -0.0534
 5237TIP3    H137270   4.320   5.673   2.038  0.9828 -0.3781  1.7579
 5237TIP3    H237271   4.171   5.675   2.065  0.0416  0.2007 -2.7321
 5238TIP3   OH237272   3.811   5.458   1.162  0.3510 -0.6113 -0.2249
 5238TIP3    H137273   3.724   5.426   1.136  0.7470 -1.4086 -0.5887
 5238TIP3    H237274   3.801   5.553   1.162 -0.2639 -0.6496 -1.2190
 5239TIP3   OH237275   1.726   0.501   7.808  0.1259 -0.2451 -0.1347
 5239TIP3    H137276   1.668   0.425   7.805 -1.2836  0.8158 -1.4379
 5239TIP3    H237277   1.811   0.465   7.831 -0.7750 -2.0290  0.6038
 5240TIP3   OH237278   1.832   4.466   3.291 -0.2779 -0.0376  0.0549
 5240TIP3    H137279   1.770   4.537   3.273  0.8374  0.5989 -1.5481
 5240TIP3    H237280   1.912   4.511   3.319  0.7523 -0.5291 -1.8926
 5241TIP3   OH237281   0.662   6.397   6.974 -0.7427 -0.0471 -0.0852
 5241TIP3    H137282   0.572   6.425   6.992 -0.4108  0.7842  0.3347
 5241TIP3    H237283   0.709   6.477   6.951 -0.4027 -0.6524 -1.6351
 5242TIP3   OH237284   0.014   0.179   1.487 -0.4822  0.7261  0.2054
 5242TIP3    H137285   0.102   0.156   1.457 -0.5019  0.3918  0.4003
 5242TIP3    H237286   0.025   0.265   1.528 -0.6627  1.7557 -1.7512
 5243TIP3   OH237287   6.713   2.439   0.251 -0.3583  0.0252 -0.0608
 5243TIP3    H137288   6.661   2.514   0.280  1.3727  1.4166 -0.3859
 5243TIP3    H237289   6.649   2.379   0.211 -1.7972  1.2804  0.2671
 5244TIP3   OH237290   4.074   3.140   2.490 -0.0161  0.1607 -0.0190
 5244TIP3    H137291   4.095   3.152   2.583 -0.7516 -0.3280  0.2170
 5244TIP3    H237292   4.092   3.225   2.450  0.2640  0.3869  0.5805
 5245TIP3   OH237293   0.405   0.747   8.679 -0.3619 -0.3850  0.1600
 5245TIP3    H137294   0.325   0.784   8.715 -1.1047  0.1896 -1.9078
 5245TIP3    H237295   0.419   0.666   8.727 -1.1722  0.3811  1.7632
 5246TIP3   OH237296   5.901   3.691   0.331 -0.0696 -0.1481 -0.3165
 5246TIP3    H137297   5.842   3.641   0.274 -0.8745 -0.0551  0.4283
 5246TIP3    H237298   5.878   3.782   0.315 -0.4199 -0.1295  0.2841
 5247TIP3   OH237299   6.508   5.813   0.605 -0.5069 -0.1345  0.1663
 5247TIP3    H137300   6.571   5.884   0.620 -1.6057  1.0037 -0.3859
 5247TIP3    H237301   6.527   5.750   0.674  0.9230  0.3882  0.2968
 5248TIP3   OH237302   1.323   5.777   8.640  0.4446 -0.0657 -0.2114
 5248TIP3    H137303   1.294   5.778   8.731 -0.8503 -1.8367 -0.5513
 5248TIP3    H237304   1.341   5.869   8.619  3.3489  0.1958  2.5574
 5249TIP3   OH237305   1.342   2.796   1.038  0.6578  0.5431  0.5180
 5249TIP3    H137306   1.372   2.740   0.967  0.7293 -0.4710  1.3327
 5249TIP3    H237307   1.256   2.827   1.009  0.5598 -0.0911  0.1269
 5250TIP3   OH237308   2.055   4.257   1.711  0.3006  0.2692  0.0336
 5250TIP3    H137309   2.003   4.253   1.791  0.0768  0.3203 -0.1089
 5250TIP3    H237310   2.122   4.323   1.729  1.5084 -1.1108  0.9165
 5251TIP3   OH237311   4.426   5.212   8.503 -0.4576  0.4843  0.1355
 5251TIP3    H137312   4.367   5.186   8.432 -0.5853 -1.6863  0.9657
 5251TIP3    H237313   4.368   5.230   8.577 -0.1421 -2.2544  1.1379
 5252TIP3   OH237314   5.991   2.935   1.151 -0.0038  0.2524  0.3139
 5252TIP3    H137315   5.906   2.978   1.157 -0.4840 -0.3493 -1.5730
 5252TIP3    H237316   6.053   3.006   1.135 -0.2094  0.6328  1.1484
 5253TIP3   OH237317   1.870   4.201   7.859  0.4235 -0.3507  0.5649
 5253TIP3    H137318   1.875   4.135   7.929  1.2812 -1.7350 -0.7466
 5253TIP3    H237319   1.779   4.197   7.830  0.1989 -0.1517  1.2136
 5254TIP3   OH237320   1.692   0.668   8.530 -0.2258  0.6195 -0.3478
 5254TIP3    H137321   1.619   0.706   8.578 -0.3470  1.0920 -0.8968
 5254TIP3    H237322   1.683   0.702   8.441 -0.5619 -0.9835 -0.9621
 5255TIP3   OH237323   2.349   1.522   1.832 -0.5307 -0.3317 -0.3315
 5255TIP3    H137324   2.364   1.543   1.924  2.3968 -2.2539 -0.2443
 5255TIP3    H237325   2.322   1.605   1.792  0.7404  1.1705  1.7521
 5256TIP3   OH237326   0.191   6.258   7.530 -0.2603  0.0606 -0.3956
 5256TIP3    H137327   0.223   6.257   7.440 -1.1017  1.5846 -0.7678
 5256TIP3    H237328   0.106   6.214   7.526 -0.2329  0.0011 -0.3219
 5257TIP3   OH237329   0.827   4.465   7.880 -0.4078  0.2254 -0.6209
 5257TIP3    H137330   0.848   4.488   7.789  0.4183 -1.1602 -0.8206
 5257TIP3    H237331   0.742   4.422   7.874 -1.2923  1.8650 -0.4355
 5258TIP3   OH237332   3.803   0.689   8.660 -0.3333 -0.1032  0.1621
 5258TIP3    H137333   3.759   0.713   8.741  1.9258 -0.3568  1.5386
 5258TIP3    H237334   3.779   0.598   8.645  0.3987 -0.5079  1.3763
 5259TIP3   OH237335   2.532   5.479   2.091 -0.0212 -0.1341  0.3506
 5259TIP3    H137336   2.562   5.443   2.174 -1.5949  1.9699  1.9542
 5259TIP3    H237337   2.602   5.538   2.064  0.2653 -0.4188  0.4744
 5260TIP3   OH237338   4.074   5.765   1.429 -0.1294  0.0718 -0.2799
 5260TIP3    H137339   4.139   5.697   1.413  0.8156  1.0422 -0.7032
 5260TIP3    H237340   4.049   5.794   1.341  0.9658  1.6248 -0.1163
 5261TIP3   OH237341   3.064   5.737   1.752 -0.2421 -0.1646  0.3180
 5261TIP3    H137342   3.108   5.801   1.807  0.3869 -0.8625  0.6493
 5261TIP3    H237343   3.006   5.789   1.696  1.6917  0.9130 -0.8315
 5262TIP3   OH237344   0.226   4.900   2.186  0.0254  0.0105 -0.8463
 5262TIP3    H137345   0.291   4.970   2.178  0.5894 -0.2926  0.7844
 5262TIP3    H237346   0.217   4.865   2.097 -1.5128  3.1910 -2.0882
 5263TIP3   OH237347   3.808   4.645   8.195 -0.2797  0.0558 -0.3857
 5263TIP3    H137348   3.822   4.653   8.101 -0.1358  0.4659 -0.3320
 5263TIP3    H237349   3.829   4.731   8.230  1.0505 -0.4879  0.1995
 5264TIP3   OH237350   4.046   4.659   1.376 -0.3443 -0.0317 -0.2365
 5264TIP3    H137351   4.092   4.618   1.450  1.4985  1.0331 -0.7183
 5264TIP3    H237352   4.044   4.591   1.309  1.0870  0.0414 -0.3978
 5265TIP3   OH237353   0.067   1.199   0.795  0.2712  0.0256 -0.5656
 5265TIP3    H137354   0.125   1.184   0.720 -0.5860  1.3214 -1.5171
 5265TIP3    H237355   0.073   1.293   0.813 -1.0154  0.0732 -0.2540
 5266TIP3   OH237356   3.829   6.380   8.403  0.1332 -0.6135 -0.1265
 5266TIP3    H137357   3.777   6.300   8.415 -0.7041  0.0828  1.1863
 5266TIP3    H237358   3.874   6.392   8.486  0.0266  0.4229 -0.1971
 5267TIP3   OH237359   2.673   0.630   0.527  0.5642 -0.5452 -0.2459
 5267TIP3    H137360   2.759   0.588   0.518  0.7042 -0.5096  0.7974
 5267TIP3    H237361   2.651   0.620   0.620 -2.4218 -4.2448 -1.0526
 5268TIP3   OH237362   5.966   0.025   6.920 -0.2745  0.4648  0.5643
 5268TIP3    H137363   5.980   0.068   6.835 -0.4398 -0.0598  0.2700
 5268TIP3    H237364   6.055   0.003   6.950 -0.2759 -0.4195 -0.0368
 5269TIP3   OH237365   0.429   6.189   1.140 -0.1453 -0.4463 -0.5406
 5269TIP3    H137366   0.465   6.105   1.109 -1.6042 -0.9991 -0.8271
 5269TIP3    H237367   0.462   6.254   1.078 -0.2226 -1.0371 -1.2126
 5270TIP3   OH237368   3.247   1.496   7.731  0.4350  0.0727  0.4280
 5270TIP3    H137369   3.229   1.530   7.818  0.2798  2.7432 -0.5712
 5270TIP3    H237370   3.320   1.549   7.698 -0.5353  0.2148 -1.6602
 5271TIP3   OH237371   3.540   2.785   1.698  0.4448 -0.3036  0.4854
 5271TIP3    H137372   3.537   2.880   1.707 -1.1110  0.0423 -2.3923
 5271TIP3    H237373   3.614   2.769   1.640 -1.2247 -0.4048 -1.7905
 5272TIP3   OH237374   4.494   5.756   2.009  0.0245 -0.5348 -0.6127
 5272TIP3    H137375   4.553   5.826   2.036 -2.0742  2.4276 -2.9492
 5272TIP3    H237376   4.551   5.682   1.990  2.5537  0.9888  0.5411
 5273TIP3   OH237377   6.025   1.151   2.190 -0.0917 -0.5244  0.2564
 5273TIP3    H137378   5.938   1.191   2.194 -1.1013 -2.6737  1.2935
 5273TIP3    H237379   6.065   1.172   2.274  0.8881  1.3248 -0.5917
 5274TIP3   OH237380   6.319   2.121   2.934 -0.8832  0.2458 -0.1682
 5274TIP3    H137381   6.285   2.134   3.023  0.4340 -1.7424  0.6939
 5274TIP3    H237382   6.241   2.113   2.879 -1.7218  1.2510  0.8311
 5275TIP3   OH237383   0.287   6.139   7.822  0.2035 -0.3919 -0.3374
 5275TIP3    H137384   0.241   6.056   7.811 -1.8022  0.2993  1.9095
 5275TIP3    H237385   0.264   6.190   7.743 -1.1838 -0.8459 -0.2529
 5276TIP3   OH237386   3.512   2.801   1.982 -0.1485  0.3901  0.0169
 5276TIP3    H137387   3.517   2.894   2.004  0.1682  0.5658 -0.7804
 5276TIP3    H237388   3.499   2.799   1.887  1.6172 -0.3975 -0.2460
 5277TIP3   OH237389   4.082   5.533   0.281 -0.1425 -0.4232  0.2796
 5277TIP3    H137390   4.071   5.472   0.208  0.7941  0.6544 -0.8014
 5277TIP3    H237391   4.034   5.611   0.255  1.4926  0.5520  0.0699
 5278TIP3   OH237392   1.650   1.755   7.396  0.6082  0.0941  0.1582
 5278TIP3    H137393   1.593   1.761   7.319 -1.2490 -2.1756  1.2272
 5278TIP3    H237394   1.601   1.799   7.465 -0.0505 -2.0614  1.1452
 5279TIP3   OH237395   3.151   1.307   0.120 -0.3032  0.4402 -0.8933
 5279TIP3    H137396   3.086   1.297   0.190 -0.6022  1.1844 -1.0532
 5279TIP3    H237397   3.217   1.242   0.140 -0.8550  0.0004 -0.4442
 5280TIP3   OH237398   5.237   2.555   8.173  0.0481 -0.5356 -0.6742
 5280TIP3    H137399   5.187   2.630   8.203  0.0082 -1.2548  1.1610
 5280TIP3    H237400   5.319   2.592   8.139 -0.0068  0.3327  0.1255
 5281TIP3   OH237401   4.269   0.318   2.808 -0.2418  0.7310 -0.1819
 5281TIP3    H137402   4.190   0.369   2.830 -0.3189  0.1973  0.8559
 5281TIP3    H237403   4.339   0.363   2.856 -0.4702 -0.6693  1.5770
 5282TIP3   OH237404   6.820   3.689   8.039  0.2113 -0.7109  0.0389
 5282TIP3    H137405   6.850   3.598   8.034 -0.3767 -0.9083  0.0075
 5282TIP3    H237406   6.726   3.682   8.053  0.4002 -0.1236  1.8498
 5283TIP3   OH237407   0.186   3.600   1.887  0.5236 -0.4901  0.6932
 5283TIP3    H137408   0.247   3.607   1.813  0.8785  1.4942  1.1134
 5283TIP3    H237409   0.229   3.541   1.949  2.2420  1.1450  1.1463
 5284TIP3   OH237410   0.512   1.101   2.325 -0.1366 -0.1890  0.2923
 5284TIP3    H137411   0.499   1.021   2.377  1.7334 -0.5566  0.2774
 5284TIP3    H237412   0.559   1.071   2.248 -0.9419  0.7014 -0.5657
 5285TIP3   OH237413   1.458   6.378   1.404 -0.6502  0.0494  0.0183
 5285TIP3    H137414   1.412   6.441   1.459 -1.1377 -0.5355  0.3003
 5285TIP3    H237415   1.435   6.403   1.314 -0.3631  0.6234  0.0999
 5286TIP3   OH237416   2.208   0.224   7.959  0.3366 -0.1199  0.1619
 5286TIP3    H137417   2.258   0.223   8.040 -0.2116 -0.3852  0.5098
 5286TIP3    H237418   2.230   0.307   7.917  0.8161 -0.0963  0.4618
 5287TIP3   OH237419   2.482   6.614   7.966  0.4577  0.4270  0.0677
 5287TIP3    H137420   2.467   6.655   7.880  1.0659 -1.5722 -1.0665
 5287TIP3    H237421   2.413   6.547   7.972  3.0175 -2.5960 -1.0469
 5288TIP3   OH237422   5.719   1.911   8.691  0.1815 -0.1762  0.0143
 5288TIP3    H137423   5.799   1.892   8.740  0.3402 -0.4179 -0.3360
 5288TIP3    H237424   5.747   1.971   8.622 -0.3541  1.5642  1.2434
 5289TIP3   OH237425   2.807   3.062   1.900  0.0753 -0.3752  0.0627
 5289TIP3    H137426   2.852   3.063   1.985 -0.6559 -0.8981  0.4603
 5289TIP3    H237427   2.746   2.988   1.906 -0.6958  0.2012 -0.5465
 5290TIP3   OH237428   4.249   1.115   0.072  0.0546  0.0323  0.3613
 5290TIP3    H137429   4.252   1.019   0.073 -1.0623 -0.0205  1.5248
 5290TIP3    H237430   4.309   1.140   0.001  0.2788 -1.5174 -0.0415
 5291TIP3   OH237431   6.234   2.089   8.643  0.2924  0.0640 -0.4215
 5291TIP3    H137432   6.250   2.170   8.692 -0.2930 -0.5687  0.8463
 5291TIP3    H237433   6.282   2.101   8.561 -1.9047  2.7851 -1.4385
 5292TIP3   OH237434   2.227   6.535   2.113 -0.2820  0.7000  0.2664
 5292TIP3    H137435   2.184   6.618   2.093 -0.9057 -0.0991 -2.0457
 5292TIP3    H237436   2.156   6.473   2.125  0.1498 -0.1274 -1.1902
 5293TIP3   OH237437   4.582   4.403   7.637  0.5057 -0.0232 -0.1992
 5293TIP3    H137438   4.541   4.489   7.640  0.0788 -0.1692 -1.2791
 5293TIP3    H237439   4.669   4.416   7.673  0.2766  0.7612  0.0816
 5294TIP3   OH237440   5.855   5.944   7.777 -0.1503 -0.0435  0.1547
 5294TIP3    H137441   5.793   5.945   7.704 -0.0065 -1.3580 -0.0089
 5294TIP3    H237442   5.839   6.026   7.823 -0.4181  0.6826 -1.2053
 5295TIP3   OH237443   2.077   2.741   0.220  0.7935 -0.3717 -0.0977
 5295TIP3    H137444   1.997   2.694   0.197  2.2203 -3.4002  0.6793
 5295TIP3    H237445   2.135   2.729   0.145  0.9270  0.9333 -0.2331
 5296TIP3   OH237446   0.908   5.787   1.547  0.0240  0.0337 -0.0586
 5296TIP3    H137447   0.967   5.827   1.483 -1.1671 -0.6623 -1.6620
 5296TIP3    H237448   0.821   5.821   1.525 -0.4934 -0.6444  0.8358
 5297TIP3   OH237449   3.268   6.577   0.747  0.0870  0.0566  0.1201
 5297TIP3    H137450   3.241   6.661   0.710 -0.8892 -0.5718 -0.6757
 5297TIP3    H237451   3.280   6.594   0.840  1.2627  1.3807 -0.2463
 5298TIP3   OH237452   3.175   0.759   8.628 -0.2735 -0.2461 -0.1706
 5298TIP3    H137453   3.267   0.754   8.602 -0.4844 -0.9022 -0.8185
 5298TIP3    H237454   3.130   0.793   8.550 -0.5402  0.4197  0.2585
 5299TIP3   OH237455   6.365   1.314   1.311 -0.6580 -0.3082 -0.6763
 5299TIP3    H137456   6.423   1.328   1.386 -1.9046 -0.4282  0.3401
 5299TIP3    H237457   6.284   1.357   1.335 -0.2267  2.2563 -3.1854
 5300TIP3   OH237458   3.034   4.285   0.089  0.0956  0.1327 -0.0594
 5300TIP3    H137459   3.026   4.380   0.074  1.1988  0.0224 -1.6905
 5300TIP3    H237460   3.128   4.272   0.104  1.0768 -1.2082 -5.2474
 5301TIP3   OH237461   6.485   1.092   2.501 -0.0682 -0.0759  0.0691
 5301TIP3    H137462   6.523   1.167   2.455 -0.1809 -0.8351 -1.3113
 5301TIP3    H237463   6.559   1.052   2.547 -0.1349  1.2659  1.4120
 5302TIP3   OH237464   1.801   0.145   7.741  0.6024  0.4090 -0.5486
 5302TIP3    H137465   1.888   0.107   7.757 -0.2650 -2.0107 -1.1700
 5302TIP3    H237466   1.787   0.203   7.816  1.9290 -0.7098  0.6371
 5303TIP3   OH237467   0.861   2.481   1.428  0.0333  0.0262 -0.3325
 5303TIP3    H137468   0.944   2.437   1.408 -0.4229 -0.0919 -2.0601
 5303TIP3    H237469   0.867   2.565   1.384 -0.8449 -0.0734 -0.6618
 5304TIP3   OH237470   2.354   4.691   7.269 -0.0640 -0.5172  0.2489
 5304TIP3    H137471   2.297   4.765   7.247  2.8471  1.8587  0.0248
 5304TIP3    H237472   2.419   4.729   7.329  1.6429 -2.8726  0.0077
 5305TIP3   OH237473   1.504   4.907   2.198  0.3581  0.6721  0.4572
 5305TIP3    H137474   1.435   4.868   2.252 -0.3282  1.7518  0.3800
 5305TIP3    H237475   1.467   4.989   2.167  0.8561  0.2219 -1.4359
 5306TIP3   OH237476   2.760   0.295   8.585  0.5291 -0.3659  0.4767
 5306TIP3    H137477   2.854   0.299   8.566  0.2070  0.2396 -1.0966
 5306TIP3    H237478   2.730   0.386   8.578 -0.0059 -0.3876  2.0250
 5307TIP3   OH237479   0.374   3.430   7.720 -0.3349 -0.1516 -0.3647
 5307TIP3    H137480   0.339   3.378   7.648  1.8794 -0.9544 -0.9539
 5307TIP3    H237481   0.333   3.394   7.798 -2.2523  0.2762 -1.1212
 5308TIP3   OH237482   5.439   6.177   0.760  0.8115  0.1455  0.3217
 5308TIP3    H137483   5.348   6.190   0.787  0.7822  1.1084 -0.2380
 5308TIP3    H237484   5.479   6.263   0.766  1.0824  0.2042 -1.6920
 5309TIP3   OH237485   6.480   3.243   2.872  0.2322 -0.1139  0.1416
 5309TIP3    H137486   6.413   3.288   2.821  0.1895 -1.1317 -0.7423
 5309TIP3    H237487   6.475   3.152   2.844  2.4306 -0.1141 -0.4858
 5310TIP3   OH237488   2.750   3.292   1.727 -0.3880 -0.6711 -0.2419
 5310TIP3    H137489   2.821   3.338   1.770 -1.4995 -0.1529  1.1112
 5310TIP3    H237490   2.756   3.202   1.759 -0.0691 -0.7451 -0.5031
 5311TIP3   OH237491   6.110   3.284   1.894 -0.1792 -0.0518 -0.1535
 5311TIP3    H137492   6.111   3.191   1.916  0.3513 -0.1316 -0.5039
 5311TIP3    H237493   6.118   3.329   1.978 -0.9269 -0.3119  0.0659
 5312TIP3   OH237494   3.690   5.291   7.521  0.0275 -0.3535 -0.1572
 5312TIP3    H137495   3.665   5.260   7.434  1.8156 -0.0658 -0.8210
 5312TIP3    H237496   3.666   5.220   7.580  0.4577 -1.3344 -1.1349
 5313TIP3   OH237497   3.481   0.254   0.800  0.3462  0.4506  0.5796
 5313TIP3    H137498   3.545   0.285   0.736 -0.1473 -0.6198 -0.4817
 5313TIP3    H237499   3.414   0.322   0.802 -1.0847 -0.6937 -2.2357
 5314TIP3   OH237500   0.726   6.287   7.617 -0.7154 -0.1698  0.3717
 5314TIP3    H137501   0.724   6.199   7.581  1.0780 -0.2023  0.3005
 5314TIP3    H237502   0.794   6.285   7.685  1.5657  1.8478 -1.6532
 5315TIP3   OH237503   6.178   3.099   7.990  0.4107 -0.0826 -0.0782
 5315TIP3    H137504   6.242   3.073   8.055  0.6389  0.7263  0.0379
 5315TIP3    H237505   6.210   3.184   7.958 -0.3380  0.1015 -0.3605
 5316TIP3   OH237506   0.110   0.669   1.099  0.1741 -0.5070  0.3153
 5316TIP3    H137507   0.129   0.651   1.191  1.6319  0.6839  0.2857
 5316TIP3    H237508   0.189   0.713   1.066  0.5861 -2.7775 -2.0911
 5317TIP3   OH237509   6.513   1.776   7.746  0.2041  0.4955 -0.1188
 5317TIP3    H137510   6.581   1.766   7.680  0.5840  0.9065  0.1958
 5317TIP3    H237511   6.561   1.784   7.829 -0.1860  1.3902  0.0399
 5318TIP3   OH237512   1.147   2.005   1.491 -0.1759 -0.1026 -0.3312
 5318TIP3    H137513   1.176   1.955   1.567 -0.2775  0.0274 -0.2052
 5318TIP3    H237514   1.060   1.972   1.471  1.0931 -2.5019 -2.4597
 5319TIP3   OH237515   3.133   1.230   8.499  0.5146  0.1453  0.1568
 5319TIP3    H137516   3.203   1.197   8.554  1.5941  0.6267 -0.8811
 5319TIP3    H237517   3.130   1.170   8.424 -0.3254  0.0160  0.2764
 5320TIP3   OH237518   0.466   2.240   1.935 -0.3244  0.5626 -0.2277
 5320TIP3    H137519   0.456   2.261   1.842 -0.3189  2.2133  0.1142
 5320TIP3    H237520   0.437   2.319   1.981 -0.5620 -0.3107  1.1928
 5321TIP3   OH237521   4.321   2.395   1.379 -0.2845 -0.2595 -0.5311
 5321TIP3    H137522   4.345   2.484   1.405 -1.7751  0.2148 -0.6587
 5321TIP3    H237523   4.227   2.400   1.361 -0.4910 -1.9759 -0.1029
 5322TIP3   OH237524   6.532   1.260   2.070 -0.1228  0.5040 -0.1855
 5322TIP3    H137525   6.438   1.262   2.049 -0.3459  1.7324  0.7883
 5322TIP3    H237526   6.540   1.314   2.148  1.3928  0.2845 -0.1593
 5323TIP3   OH237527   3.675   3.599   2.025  0.4344  0.6626  0.0844
 5323TIP3    H137528   3.620   3.631   2.097  1.4696  0.5590  0.9497
 5323TIP3    H237529   3.649   3.508   2.014  2.1234 -0.1765  2.2345
 5324TIP3   OH237530   6.189   5.417   8.292 -0.3355 -0.4075  0.1822
 5324TIP3    H137531   6.118   5.427   8.229 -0.7142 -1.9820  0.3176
 5324TIP3    H237532   6.181   5.493   8.349 -0.4976  0.6110 -1.1632
 5325TIP3   OH237533   3.090   4.561   1.950 -0.0385  0.5107 -0.7464
 5325TIP3    H137534   3.032   4.633   1.977  1.6362  1.1306  1.5431
 5325TIP3    H237535   3.050   4.483   1.989 -0.8698  0.4662 -1.6627
 5326TIP3   OH237536   6.199   0.817   2.385 -0.4663 -0.0147 -0.1599
 5326TIP3    H137537   6.121   0.869   2.404 -0.6279 -0.0841 -0.6111
 5326TIP3    H237538   6.229   0.787   2.470 -1.8169 -1.2426 -0.0698
 5327TIP3   OH237539   4.498   0.525   8.500  0.0977 -0.3458 -0.1563
 5327TIP3    H137540   4.582   0.551   8.537  0.8184 -0.6440 -1.5220
 5327TIP3    H237541   4.497   0.563   8.412 -1.6216  0.4560  0.1567
 5328TIP3   OH237542   5.180   5.282   0.678 -0.2962  0.3334 -0.4163
 5328TIP3    H137543   5.108   5.287   0.740  0.1616  0.6527  0.0994
 5328TIP3    H237544   5.225   5.200   0.699  0.6143  1.0466  0.5400
 5329TIP3   OH237545   0.342   5.751   0.226  0.2736  0.5340  0.3620
 5329TIP3    H137546   0.264   5.715   0.268  1.1839 -0.3376  1.3589
 5329TIP3    H237547   0.393   5.787   0.297  0.8717  0.9537 -0.2659
 5330TIP3   OH237548   3.614   1.627   1.210  0.0958 -0.1696 -0.5417
 5330TIP3    H137549   3.608   1.532   1.222 -1.0684  0.0267  0.5965
 5330TIP3    H237550   3.686   1.654   1.267 -1.3313 -0.0551  1.2899
 5331TIP3   OH237551   3.992   1.610   1.694  0.1971  0.2748  0.0462
 5331TIP3    H137552   4.087   1.614   1.696  0.2431  0.6696 -1.5720
 5331TIP3    H237553   3.964   1.699   1.718  0.1177 -0.4211  2.8927
 5332TIP3   OH237554   5.550   1.021   2.095 -0.5680 -0.0257 -0.1565
 5332TIP3    H137555   5.503   0.948   2.056 -1.0939 -1.0688  2.2973
 5332TIP3    H237556   5.483   1.088   2.111 -0.4236  0.2398 -0.6391
 5333TIP3   OH237557   3.879   6.099   0.966  0.0534  0.0583  0.3906
 5333TIP3    H137558   3.842   6.130   0.884 -1.9846 -0.8372  0.8950
 5333TIP3    H237559   3.918   6.014   0.944 -1.0524 -0.4842  0.4163
 5334TIP3   OH237560   1.815   6.015   7.518  0.0598  0.0749  0.7719
 5334TIP3    H137561   1.729   5.974   7.504 -0.3138  0.5016  1.7323
 5334TIP3    H237562   1.877   5.953   7.481 -0.2538 -2.7048  4.3205
 5335TIP3   OH237563   5.839   6.321   1.856  0.2343  0.2971  0.4901
 5335TIP3    H137564   5.744   6.309   1.861  0.1951  0.3952  0.0122
 5335TIP3    H237565   5.853   6.413   1.877  0.1425  0.5032 -0.3242
 5336TIP3   OH237566   4.206   5.322   0.640 -0.1006 -0.6866  0.4539
 5336TIP3    H137567   4.182   5.406   0.680  0.8747 -0.2377  0.1274
 5336TIP3    H237568   4.219   5.342   0.547  0.0657 -1.2110  0.3593
 5337TIP3   OH237569   2.246   3.620   0.747  0.2439 -0.1924  0.5764
 5337TIP3    H137570   2.335   3.586   0.744  0.3072 -0.0429  0.7668
 5337TIP3    H237571   2.226   3.626   0.841  1.2995  3.0911  0.7232
 5338TIP3   OH237572   2.480   0.264   1.297 -0.0625  0.2471  0.0337
 5338TIP3    H137573   2.427   0.300   1.227 -0.7253 -1.1598 -0.2240
 5338TIP3    H237574   2.455   0.171   1.301  2.8692 -0.6677 -0.5704
 5339TIP3   OH237575   4.735   6.665   3.186 -0.0309  0.5093  0.2574
 5339TIP3    H137576   4.673   6.611   3.137  1.1241  0.2317 -0.9477
 5339TIP3    H237577   4.681   6.735   3.222 -1.4438 -1.0059  1.2555
 5340TIP3   OH237578   6.473   0.070   8.255  0.2644 -0.0148 -0.0097
 5340TIP3    H137579   6.530   0.130   8.206  0.2523  0.6503  0.7574
 5340TIP3    H237580   6.384   0.100   8.236  0.1895 -0.6961 -0.7576
 5341TIP3   OH237581   4.486   1.983   0.248  0.5897  0.3665 -0.5170
 5341TIP3    H137582   4.468   1.898   0.289  1.3085 -0.0940 -1.1372
 5341TIP3    H237583   4.474   1.968   0.155  1.0958  0.8509 -0.6658
 5342TIP3   OH237584   0.148   5.508   0.302  0.1327  0.2462  0.0325
 5342TIP3    H137585   0.080   5.520   0.369 -0.5656 -1.7077 -0.2537
 5342TIP3    H237586   0.229   5.494   0.352  0.5530  3.2062  0.3752
 5343TIP3   OH237587   3.053   6.023   0.305  0.0582  0.2249  0.2690
 5343TIP3    H137588   3.072   5.955   0.370 -0.0559 -0.0121  0.0540
 5343TIP3    H237589   3.028   6.100   0.358 -1.5559 -0.4125  0.4982
 5344TIP3   OH237590   5.279   4.882   0.375 -0.3353 -0.6015 -0.2775
 5344TIP3    H137591   5.240   4.815   0.320  1.7134 -1.5013 -0.7454
 5344TIP3    H237592   5.254   4.965   0.334 -1.1230 -1.1509 -0.9300
 5345TIP3   OH237593   0.123   1.110   7.142  0.0627  0.0139 -0.0282
 5345TIP3    H137594   0.081   1.028   7.118  1.4755 -1.0792  1.0460
 5345TIP3    H237595   0.188   1.085   7.208 -0.3305  2.1645  1.2682
 5346TIP3   OH237596   1.111   6.293   0.899  0.4287 -0.0345 -0.1090
 5346TIP3    H137597   1.127   6.221   0.838 -0.9899 -0.9960  0.6045
 5346TIP3    H237598   1.041   6.344   0.859 -1.8409 -1.7225  1.4612
 5347TIP3   OH237599   3.073   4.081   2.394 -0.3428 -0.4301  0.3712
 5347TIP3    H137600   3.041   4.036   2.472 -0.8675 -1.5651 -0.4769
 5347TIP3    H237601   3.054   4.021   2.321  0.7584  0.2962 -0.5538
 5348TIP3   OH237602   3.585   0.129   1.906 -0.4343  0.2806 -0.6001
 5348TIP3    H137603   3.678   0.119   1.887 -0.4781  1.2671 -1.4076
 5348TIP3    H237604   3.582   0.170   1.992 -0.0415  2.3887 -1.5395
 5349TIP3   OH237605   2.834   0.721   7.211 -0.1437 -0.6715 -0.2587
 5349TIP3    H137606   2.887   0.734   7.133 -1.1713  1.4664 -0.6495
 5349TIP3    H237607   2.890   0.748   7.284  0.2915 -1.2461 -0.3721
 5350TIP3   OH237608   6.010   0.342   8.413  0.0071 -0.0902  0.3316
 5350TIP3    H137609   6.020   0.290   8.333  0.3687  0.5103 -0.0201
 5350TIP3    H237610   5.928   0.390   8.400  0.6327  0.8673 -0.1870
 5351TIP3   OH237611   4.861   2.492   1.788  0.1169  0.0343  0.7038
 5351TIP3    H137612   4.841   2.563   1.849 -1.1363  1.6736 -1.5013
 5351TIP3    H237613   4.780   2.477   1.741  1.5446  0.3282 -2.0296
 5352TIP3   OH237614   0.357   2.537   7.621  0.2080  0.1137  0.0636
 5352TIP3    H137615   0.382   2.582   7.540  0.0939  0.4337  0.2068
 5352TIP3    H237616   0.425   2.471   7.633  0.0633 -0.1333 -0.4517
 5353TIP3   OH237617   1.296   3.994   1.100  0.3055 -0.2171  0.7193
 5353TIP3    H137618   1.260   4.072   1.143 -0.3779 -0.7082  1.0475
 5353TIP3    H237619   1.315   3.934   1.172  0.4345 -0.5181  0.4333
 5354TIP3   OH237620   0.040   2.991   6.912 -0.0931 -0.6083  0.5485
 5354TIP3    H137621   0.042   2.949   6.998  1.4347  0.2797  0.9961
 5354TIP3    H237622   0.113   2.951   6.864 -2.0817 -2.5015 -1.0970
 5355TIP3   OH237623   2.539   5.253   0.471 -0.5444  0.4311  0.5761
 5355TIP3    H137624   2.617   5.228   0.423 -0.0311 -0.9918  2.0587
 5355TIP3    H237625   2.568   5.319   0.533  0.0548 -1.6010  2.6082
 5356TIP3   OH237626   2.317   5.300   1.209 -0.4402 -0.2146 -0.0877
 5356TIP3    H137627   2.222   5.290   1.197 -0.5842 -0.2914  1.0129
 5356TIP3    H237628   2.326   5.343   1.294  0.5284 -0.9038  0.1718
 5357TIP3   OH237629   4.485   5.246   8.155  0.2891  0.1196  0.5866
 5357TIP3    H137630   4.564   5.197   8.133  1.9463  2.3887  1.0734
 5357TIP3    H237631   4.466   5.298   8.076 -0.8686 -0.5064  0.4164
 5358TIP3   OH237632   6.630   0.920   0.642 -0.4275  0.3136 -0.2204
 5358TIP3    H137633   6.673   0.838   0.619 -0.5466  0.1919 -0.0139
 5358TIP3    H237634   6.613   0.963   0.558  0.6534  0.6568 -0.2706
 5359TIP3   OH237635   1.250   4.262   1.520 -0.3288  0.2277  0.6528
 5359TIP3    H137636   1.306   4.206   1.466 -0.4402  1.3426 -0.6971
 5359TIP3    H237637   1.249   4.220   1.605 -2.3906 -3.1674 -0.8599
 5360TIP3   OH237638   6.430   3.033   2.040 -0.1038  0.0200  0.2567
 5360TIP3    H137639   6.403   3.121   2.068  0.3833  0.7034 -1.3219
 5360TIP3    H237640   6.391   2.975   2.105 -0.9887  1.3434  0.9671
 5361TIP3   OH237641   2.295   6.350   1.332 -0.1962  0.3289 -0.2270
 5361TIP3    H137642   2.232   6.282   1.356  0.4766  0.1908  1.2730
 5361TIP3    H237643   2.241   6.421   1.297 -1.0616 -0.2764 -0.1573
 5362TIP3   OH237644   1.071   4.602   2.402  0.2794 -0.4104 -0.1203
 5362TIP3    H137645   1.035   4.595   2.313 -0.9810 -2.2697  0.4798
 5362TIP3    H237646   0.994   4.612   2.458  0.8043 -2.2905  1.0063
 5363TIP3   OH237647   2.091   5.029   2.004  0.1739  0.5539 -0.0404
 5363TIP3    H137648   2.133   5.081   2.072 -0.7271 -1.0132  1.7860
 5363TIP3    H237649   2.161   4.972   1.972  0.0065 -0.5206  1.4416
 5364TIP3   OH237650   2.805   1.070   7.218  0.4701 -0.0446  0.5669
 5364TIP3    H137651   2.865   1.136   7.253  1.1906 -0.1932 -0.3583
 5364TIP3    H237652   2.724   1.118   7.200  1.0793  0.6565 -0.3536
 5365TIP3   OH237653   0.975   1.629   7.493  0.3284  0.2329 -0.1811
 5365TIP3    H137654   1.016   1.714   7.481  1.2231 -0.0757  0.6098
 5365TIP3    H237655   1.040   1.576   7.539 -0.9874 -0.2041  1.3074
 5366TIP3   OH237656   0.192   6.507   7.677 -0.4467  0.1169  0.6511
 5366TIP3    H137657   0.214   6.421   7.640  1.4610  1.2270 -0.9495
 5366TIP3    H237658   0.201   6.568   7.604  1.1259  2.0909  2.3806
 5367TIP3   OH237659   5.627   3.222   8.493 -0.4204  0.3083  0.0794
 5367TIP3    H137660   5.624   3.191   8.583 -0.6742  1.0192  0.3235
 5367TIP3    H237661   5.718   3.250   8.480 -0.0922 -0.8889 -0.2704
 5368TIP3   OH237662   2.547   2.829   7.798 -0.1013 -0.3619  0.5162
 5368TIP3    H137663   2.545   2.784   7.883 -1.4444  0.8042  1.1558
 5368TIP3    H237664   2.594   2.769   7.740 -1.2015 -2.2755  1.4885
 5369TIP3   OH237665   4.590   2.289   2.259 -0.2649 -0.0778  0.5573
 5369TIP3    H137666   4.631   2.244   2.186 -0.0926  1.0397 -0.0621
 5369TIP3    H237667   4.499   2.301   2.231  0.2839  2.2639 -0.4756
 5370TIP3   OH237668   5.668   4.680   2.049 -0.2431 -0.0248  0.4052
 5370TIP3    H137669   5.713   4.619   1.991  0.6740 -0.1409  1.2051
 5370TIP3    H237670   5.638   4.751   1.991 -0.9564 -1.0092 -0.4596
 5371TIP3   OH237671   2.519   0.684   1.208 -0.2023  0.1786 -0.0833
 5371TIP3    H137672   2.525   0.779   1.192 -2.1827  0.5598  1.0314
 5371TIP3    H237673   2.604   0.650   1.183  0.7546  2.3375 -0.0037
 5372TIP3   OH237674   4.850   6.427   0.706  0.2285  0.1713  0.2777
 5372TIP3    H137675   4.837   6.493   0.774 -2.4007  2.1763 -1.9400
 5372TIP3    H237676   4.935   6.448   0.668 -0.4558  2.2088 -0.2253
 5373TIP3   OH237677   6.276   3.611   1.318 -0.1907  0.5105  0.5178
 5373TIP3    H137678   6.267   3.540   1.254  0.4650  1.0713 -0.2177
 5373TIP3    H237679   6.354   3.589   1.368 -1.5589 -0.7287  2.1962
 5374TIP3   OH237680   5.439   4.013   1.822  0.2220 -0.4672  0.3054
 5374TIP3    H137681   5.434   4.074   1.748  2.3324  2.0613  2.0350
 5374TIP3    H237682   5.350   4.008   1.856 -0.2642  0.5436 -0.7666
 5375TIP3   OH237683   5.880   0.503   0.649  0.7745 -0.1455 -0.1419
 5375TIP3    H137684   5.843   0.547   0.725  1.3936 -0.2661  0.2366
 5375TIP3    H237685   5.969   0.539   0.641  0.9825 -0.6923 -0.3413
 5376TIP3   OH237686   2.126   2.990   0.314  0.4026  0.0639  0.0865
 5376TIP3    H137687   2.112   2.899   0.289 -0.3981  0.2837 -0.2924
 5376TIP3    H237688   2.044   3.034   0.294  0.9647  0.9904 -0.2615
 5377TIP3   OH237689   1.819   0.531   1.375  0.4485 -0.5406 -0.1605
 5377TIP3    H137690   1.888   0.523   1.441  1.7343 -3.1025 -1.6477
 5377TIP3    H237691   1.861   0.580   1.303  0.1312 -0.5776 -0.3703
 5378TIP3   OH237692   6.457   6.077   2.887 -0.0658 -0.5180 -0.3208
 5378TIP3    H137693   6.416   5.992   2.869  0.5490 -0.7018 -0.8963
 5378TIP3    H237694   6.549   6.063   2.867  0.3736 -0.2184  1.3359
 5379TIP3   OH237695   6.641   5.592   2.944 -0.0262 -0.2474  0.0065
 5379TIP3    H137696   6.554   5.620   2.972 -0.4404  1.4500 -2.5860
 5379TIP3    H237697   6.701   5.643   2.998 -0.6467 -0.3630  0.8284
 5380TIP3   OH237698   3.798   0.753   7.927 -0.3331 -0.4650 -0.1632
 5380TIP3    H137699   3.744   0.824   7.960  2.0854  1.3966  0.1141
 5380TIP3    H237700   3.804   0.691   8.000 -1.7099 -0.5384 -0.0859
 5381TIP3   OH237701   5.614   1.017   1.206 -0.0091 -0.1783  0.3711
 5381TIP3    H137702   5.577   1.105   1.197  0.1530 -0.0683  0.7717
 5381TIP3    H237703   5.708   1.028   1.195  0.0627 -0.2266  0.9065
 5382TIP3   OH237704   1.134   2.328   8.268 -0.5626 -0.2473  0.2569
 5382TIP3    H137705   1.055   2.324   8.322 -0.8922  2.7256  0.1656
 5382TIP3    H237706   1.115   2.396   8.204  1.3736 -0.8621 -1.0445
 5383TIP3   OH237707   3.542   2.179   0.433 -0.0851 -0.1266  0.2660
 5383TIP3    H137708   3.503   2.262   0.461 -0.5642  0.2620 -1.4121
 5383TIP3    H237709   3.503   2.113   0.490 -2.1004  0.4433 -0.3732
 5384TIP3   OH237710   4.840   1.448   2.991  0.1539 -0.4846  0.1865
 5384TIP3    H137711   4.811   1.383   2.927 -0.0768 -0.5383  0.3460
 5384TIP3    H237712   4.925   1.416   3.022  2.1588  1.3380 -2.7807
 5385TIP3   OH237713   5.132   1.711   7.688  0.2921 -0.1544  0.2079
 5385TIP3    H137714   5.111   1.802   7.712  1.2442 -0.0536  0.7074
 5385TIP3    H237715   5.047   1.670   7.675 -0.1958  0.4489  1.3383
 5386TIP3   OH237716   0.453   0.531   0.122 -0.4086  0.4592 -0.1216
 5386TIP3    H137717   0.495   0.513   0.206 -0.5340  1.2472  0.1186
 5386TIP3    H237718   0.497   0.472   0.060 -0.3831 -0.1990  0.5055
 5387TIP3   OH237719   5.775   4.900   7.512 -0.0674  0.0575  0.0165
 5387TIP3    H137720   5.824   4.921   7.432 -0.1980 -0.4524 -0.2002
 5387TIP3    H237721   5.691   4.944   7.501 -0.5532 -1.0259 -0.6911
 5388TIP3   OH237722   4.866   4.869   0.692  0.0470  0.3952  0.3183
 5388TIP3    H137723   4.917   4.910   0.621  0.3456 -0.3046  0.1235
 5388TIP3    H237724   4.931   4.826   0.747 -0.3956 -2.2204 -1.0156
 5389TIP3   OH237725   0.574   1.985   1.052 -0.0138  0.6197 -0.3413
 5389TIP3    H137726   0.575   2.058   0.989  1.8640  1.3071  0.3926
 5389TIP3    H237727   0.481   1.966   1.066 -0.5059  1.4127 -2.1937
 5390TIP3   OH237728   4.424   6.122   0.615  0.4296  0.2417  0.4927
 5390TIP3    H137729   4.361   6.065   0.570 -0.5487  1.5212  0.1576
 5390TIP3    H237730   4.439   6.079   0.699 -1.9804  0.5306  1.1666
 5391TIP3   OH237731   2.160   2.533   1.465  0.4891  0.0182  0.0313
 5391TIP3    H137732   2.082   2.510   1.516  0.1245  1.6580  0.2584
 5391TIP3    H237733   2.126   2.555   1.378  0.5664  1.4795  0.3415
 5392TIP3   OH237734   4.337   6.330   8.335  0.3332 -0.3482 -0.2916
 5392TIP3    H137735   4.335   6.272   8.259 -0.0110 -0.2489 -0.3596
 5392TIP3    H237736   4.302   6.413   8.302  0.1878 -0.3030 -0.0235
 5393TIP3   OH237737   3.555   3.220   8.069  0.0554  0.1046 -0.7263
 5393TIP3    H137738   3.565   3.142   8.015  2.7556  0.1447 -0.4004
 5393TIP3    H237739   3.615   3.206   8.142 -1.3091  1.3840  0.7277
 5394TIP3   OH237740   1.720   0.476   0.557 -0.3481 -0.2931  0.2950
 5394TIP3    H137741   1.701   0.566   0.585  2.3996  0.1619  0.9251
 5394TIP3    H237742   1.688   0.472   0.467 -0.8733  1.1857  0.3829
 5395TIP3   OH237743   0.590   1.070   0.821 -0.1614  0.7735 -0.4513
 5395TIP3    H137744   0.676   1.043   0.853 -0.8181  1.0766  1.6828
 5395TIP3    H237745   0.609   1.123   0.743  1.4731 -0.4671 -0.9624
 5396TIP3   OH237746   4.261   3.882   2.299 -0.1231 -0.0146  0.0567
 5396TIP3    H137747   4.322   3.947   2.266 -0.6661  1.0177  1.0380
 5396TIP3    H237748   4.317   3.812   2.334  0.5020  0.8420  0.8038
 5397TIP3   OH237749   5.779   2.164   2.086  0.5581  0.0606 -0.2960
 5397TIP3    H137750   5.796   2.173   1.992  0.3743 -4.1262 -0.9326
 5397TIP3    H237751   5.685   2.176   2.094  0.6360  0.9100 -0.5324
 5398TIP3   OH237752   1.264   4.834   2.400 -0.2788  0.7292  0.1150
 5398TIP3    H137753   1.236   4.906   2.456 -1.6344 -0.4428  0.9942
 5398TIP3    H237754   1.183   4.790   2.374  0.1997  1.4975 -3.2490
 5399TIP3   OH237755   0.803   2.742   8.307  0.0147  0.6043  0.0498
 5399TIP3    H137756   0.857   2.807   8.353 -0.7032  1.4198 -0.2417
 5399TIP3    H237757   0.762   2.791   8.236 -0.4222 -0.2077 -0.2710
 5400TIP3   OH237758   6.368   2.618   8.476  0.1212  0.4776 -0.4277
 5400TIP3    H137759   6.342   2.574   8.395 -1.4220 -1.6801  1.1201
 5400TIP3    H237760   6.285   2.647   8.516  0.8038  1.1089  0.6034
 5401TIP3   OH237761   0.624   3.420   0.369  0.0219  0.3731  0.1061
 5401TIP3    H137762   0.644   3.507   0.334  0.0124  0.0724 -0.6523
 5401TIP3    H237763   0.710   3.382   0.389  0.0174  0.6282  0.6199
 5402TIP3   OH237764   0.028   1.455   0.907 -0.0436 -0.6092  0.4324
 5402TIP3    H137765   0.001   1.427   0.994  0.5066 -0.0816  0.7754
 5402TIP3    H237766  -0.029   1.530   0.886  0.9451  0.3244  1.0386
 5403TIP3   OH237767   3.619   5.899   7.562 -0.0369 -0.1758  0.3850
 5403TIP3    H137768   3.550   5.956   7.597  0.3215  1.0202 -0.7673
 5403TIP3    H237769   3.605   5.900   7.467  0.8931 -0.8167  0.2280
 5404TIP3   OH237770   5.806   3.338   2.819 -0.4832 -0.5915  0.1258
 5404TIP3    H137771   5.764   3.329   2.905 -0.6050 -0.8690  0.0379
 5404TIP3    H237772   5.774   3.422   2.786 -1.7991 -1.2778 -0.3931
 5405TIP3   OH237773   4.037   2.141   7.200  0.2653  0.4195 -0.6658
 5405TIP3    H137774   3.962   2.180   7.244  0.2622 -0.3775  0.0534
 5405TIP3    H237775   4.104   2.209   7.201 -0.7776  1.5504 -2.3065
 5406TIP3   OH237776   1.098   0.443   2.304  0.1496  0.5567 -0.1218
 5406TIP3    H137777   1.148   0.368   2.271 -0.6743 -1.1596  2.2280
 5406TIP3    H237778   1.162   0.495   2.353  0.4826  0.7395 -0.7459
 5407TIP3   OH237779   0.955   6.710   8.620  0.0974  0.2849  0.0920
 5407TIP3    H137780   0.885   6.654   8.653 -0.3475 -1.3324 -3.2012
 5407TIP3    H237781   1.031   6.688   8.674 -0.1916 -3.2549 -0.6871
 5408TIP3   OH237782   3.911   1.570   3.307  0.5409  0.3380  0.2562
 5408TIP3    H137783   3.874   1.509   3.243 -0.0533  1.4633 -0.5153
 5408TIP3    H237784   3.997   1.593   3.271  1.2232 -0.8328  1.0887
 5409TIP3   OH237785   5.131   3.656   0.574 -0.4288  0.2174 -0.0497
 5409TIP3    H137786   5.048   3.640   0.530 -0.0937  1.4518 -1.2253
 5409TIP3    H237787   5.140   3.751   0.575  0.7318  0.1274  0.5161
 5410TIP3   OH237788   5.608   5.352   7.764  0.0648  0.1233 -0.6288
 5410TIP3    H137789   5.545   5.304   7.819  0.3634  1.3818  0.8783
 5410TIP3    H237790   5.622   5.294   7.689  0.4585 -2.2084  1.1057
 5411TIP3   OH237791   5.920   5.684   0.814 -0.0351 -0.5230 -0.0814
 5411TIP3    H137792   5.944   5.593   0.797 -0.9015 -0.9166  0.7192
 5411TIP3    H237793   5.833   5.694   0.777  0.4505  0.2871 -1.0630
 5412TIP3   OH237794   3.244   1.664   2.194 -0.3382 -0.7278 -0.0099
 5412TIP3    H137795   3.154   1.637   2.208 -0.7219  1.0295  1.2931
 5412TIP3    H237796   3.243   1.759   2.208  1.3594 -0.3694 -1.8954
 5413TIP3   OH237797   6.104   3.025   6.941 -0.0919  0.5967  0.3659
 5413TIP3    H137798   6.191   3.004   6.975 -0.2537  0.0501  0.4524
 5413TIP3    H237799   6.077   2.947   6.893 -1.3664 -0.0446  2.0277
 5414TIP3   OH237800   3.820   0.406   1.125 -0.5597  0.2056 -0.2187
 5414TIP3    H137801   3.866   0.438   1.048 -0.4777 -1.1532 -0.7576
 5414TIP3    H237802   3.889   0.374   1.182 -0.7914 -3.0049 -1.5593
 5415TIP3   OH237803   2.402   0.732   1.788  0.0973  0.1941  0.5657
 5415TIP3    H137804   2.322   0.770   1.753 -0.7874  0.2282  2.5252
 5415TIP3    H237805   2.429   0.668   1.722 -0.9825  0.8621 -0.5708
 5416TIP3   OH237806   4.311   2.890   0.993 -0.5688  0.0167  0.3512
 5416TIP3    H137807   4.277   2.942   1.066  0.3432  0.9098  0.1687
 5416TIP3    H237808   4.235   2.842   0.960 -1.2335  0.4927  1.1576
 5417TIP3   OH237809   3.324   4.753   6.839 -0.4791 -0.0573  0.7138
 5417TIP3    H137810   3.298   4.832   6.792 -2.2055 -0.6762  0.5584
 5417TIP3    H237811   3.309   4.773   6.931 -2.8776 -0.8222  0.5527
 5418TIP3   OH237812   5.935   0.492   7.874  0.1956 -0.5032  0.1510
 5418TIP3    H137813   5.965   0.496   7.965  0.4862  0.3675  0.0319
 5418TIP3    H237814   5.994   0.429   7.832 -0.2320 -1.2587  0.6597
 5419TIP3   OH237815   3.303   6.712   0.988  0.0373  0.0089  0.4751
 5419TIP3    H137816   3.238   6.678   1.050  1.2372  0.9268  2.3304
 5419TIP3    H237817   3.275   6.801   0.970 -1.2548 -0.7736 -1.7491
 5420TIP3   OH237818   5.567   5.747   7.244 -0.8532 -0.2035 -0.0312
 5420TIP3    H137819   5.569   5.658   7.280 -2.4200 -0.1882  0.1850
 5420TIP3    H237820   5.508   5.741   7.169  1.4898  0.0164 -2.0053
 5421TIP3   OH237821   3.448   3.763   7.245 -0.4884  0.5292  0.1591
 5421TIP3    H137822   3.419   3.851   7.219 -0.6799 -0.0924 -1.8959
 5421TIP3    H237823   3.543   3.767   7.238 -0.4334  0.8170  0.9641
 5422TIP3   OH237824   3.456   2.330   8.500  0.0234  0.8005 -0.5941
 5422TIP3    H137825   3.364   2.302   8.492  0.1409 -0.1643  0.9789
 5422TIP3    H237826   3.455   2.397   8.568  0.9688 -2.4548  2.9700
 5423TIP3   OH237827   6.531   6.280   1.593 -0.0893 -0.3950 -0.1514
 5423TIP3    H137828   6.482   6.258   1.514 -1.6397  1.6788  0.1429
 5423TIP3    H237829   6.530   6.376   1.596  1.1427 -0.3917  1.6528
 5424TIP3   OH237830   3.484   6.208   2.341 -0.2171  0.2459 -0.4276
 5424TIP3    H137831   3.421   6.248   2.401 -2.2061  0.5880 -2.5872
 5424TIP3    H237832   3.525   6.282   2.296 -0.1270 -0.0337 -0.8106
 5425TIP3   OH237833   1.095   6.141   0.015 -0.9270 -0.3502  0.1104
 5425TIP3    H137834   1.043   6.215  -0.016 -1.4995 -0.4109  0.8872
 5425TIP3    H237835   1.111   6.089  -0.063 -0.6036  0.5355 -0.4270
 5426TIP3   OH237836   2.472   4.158   8.283 -0.2360  0.0598  0.6858
 5426TIP3    H137837   2.469   4.088   8.218 -0.9348  1.0320 -0.3651
 5426TIP3    H237838   2.436   4.235   8.238  1.2173  1.3161  1.5405
 5427TIP3   OH237839   1.501   0.171   1.843  0.7011  0.0794  0.1309
 5427TIP3    H137840   1.575   0.152   1.900  0.4197  0.1839  0.5361
 5427TIP3    H237841   1.539   0.179   1.755  1.0035 -1.0345  0.1487
 5428TIP3   OH237842   3.265   6.289   8.478  0.7823  0.0477 -0.5284
 5428TIP3    H137843   3.190   6.234   8.455 -0.8305  0.7032  2.6821
 5428TIP3    H237844   3.290   6.331   8.395 -2.2613 -0.3711 -1.7901
 5429TIP3   OH237845   0.915   0.648   7.350  0.8113 -0.2313 -0.3240
 5429TIP3    H137846   0.920   0.622   7.258 -2.5566  0.5133 -0.8380
 5429TIP3    H237847   0.942   0.740   7.350 -0.5310  0.1874 -0.8661
 5430TIP3   OH237848   2.822   4.088   7.784 -0.4909  0.4512  0.0730
 5430TIP3    H137849   2.751   4.052   7.731 -0.5069  0.9196 -0.2325
 5430TIP3    H237850   2.835   4.177   7.750  0.5691  0.2059 -0.2089
 5431TIP3   OH237851   3.637   1.801   7.718 -0.2197  0.5836 -0.0657
 5431TIP3    H137852   3.621   1.805   7.812 -0.8927  1.5448 -0.2083
 5431TIP3    H237853   3.611   1.712   7.692 -0.5306  0.4920  0.5583
 5432TIP3   OH237854   0.065   2.754   2.941 -0.3333 -0.0449  0.0426
 5432TIP3    H137855   0.010   2.743   2.863 -1.7691 -0.6251  1.1052
 5432TIP3    H237856   0.142   2.699   2.924 -0.4656  0.0918 -1.0890
 5433TIP3   OH237857   2.986   4.374   2.137  0.3918 -0.4530  0.0473
 5433TIP3    H137858   3.063   4.330   2.172 -1.2386 -0.9204  3.4282
 5433TIP3    H237859   2.923   4.303   2.124 -0.8832  0.3338  1.5964
 5434TIP3   OH237860   4.376   4.144   8.694 -0.0167  0.5226  0.0875
 5434TIP3    H137861   4.319   4.075   8.727  2.6550 -2.7351 -1.5002
 5434TIP3    H237862   4.423   4.175   8.772 -1.5242  0.8990  0.8896
 5435TIP3   OH237863   3.735   4.298   3.052 -0.5686 -0.4510 -0.5206
 5435TIP3    H137864   3.679   4.225   3.022 -0.7143  0.0249 -1.4664
 5435TIP3    H237865   3.811   4.294   2.994  0.4336 -1.1294  0.8017
 5436TIP3   OH237866   1.886   1.533   1.172 -0.1443  1.0182  0.3120
 5436TIP3    H137867   1.941   1.611   1.164  3.0129 -1.0561  0.1570
 5436TIP3    H237868   1.889   1.511   1.265 -0.1126  0.4722  0.1832
 5437TIP3   OH237869   1.029   4.988   1.715  0.8631 -0.5645 -0.0682
 5437TIP3    H137870   0.954   4.981   1.655  0.3222  0.6970  0.4336
 5437TIP3    H237871   1.099   5.023   1.660 -0.1171  2.2692  0.3565
 5438TIP3   OH237872   1.466   2.560   1.126 -0.3465  0.6388  0.0382
 5438TIP3    H137873   1.460   2.652   1.101 -1.1551  0.3986 -0.6864
 5438TIP3    H237874   1.524   2.521   1.061 -0.7007  0.4581 -0.1692
 5439TIP3   OH237875   4.741   1.945   1.350  0.0275  0.6952 -0.1571
 5439TIP3    H137876   4.806   1.980   1.290  0.5052  0.4084  0.1879
 5439TIP3    H237877   4.669   1.917   1.294  0.6727 -0.0270 -0.6459
 5440TIP3   OH237878   4.150   0.473   2.486 -0.2433  0.0812 -0.2529
 5440TIP3    H137879   4.186   0.545   2.539  0.5703 -0.5202  0.0333
 5440TIP3    H237880   4.220   0.453   2.424 -0.5954 -0.2485 -0.5441
 5441TIP3   OH237881   2.122   3.919   1.012 -0.2075  0.0380 -0.4333
 5441TIP3    H137882   2.155   4.006   1.034  1.2629 -0.0375 -2.1271
 5441TIP3    H237883   2.136   3.868   1.092  0.3182  0.9753  0.0976
 5442TIP3   OH237884   0.539   5.282   0.102 -0.4761 -0.4801 -0.0413
 5442TIP3    H137885   0.569   5.372   0.105 -2.4117  0.2876 -1.7345
 5442TIP3    H237886   0.616   5.232   0.075  0.6556  0.5949  1.0549
 5443TIP3   OH237887   2.199   6.524   8.588 -0.0620 -0.3285 -0.1636
 5443TIP3    H137888   2.126   6.536   8.649 -0.5777 -0.9895 -0.6333
 5443TIP3    H237889   2.251   6.604   8.596 -1.6740  0.8468 -0.9326
 5444TIP3   OH237890   3.061   3.801   0.378  0.7507  0.4284 -0.1353
 5444TIP3    H137891   3.149   3.832   0.357  1.7147 -1.6738  0.5190
 5444TIP3    H237892   3.004   3.843   0.314  2.2977  1.4089 -0.9112
 5445TIP3   OH237893   4.592   6.543   0.081  0.4870 -0.3189 -0.3794
 5445TIP3    H137894   4.664   6.501   0.128  0.2724 -0.4059 -0.1296
 5445TIP3    H237895   4.542   6.471   0.044  0.2601 -0.2779 -0.1567
 5446TIP3   OH237896   4.510   1.430   7.615  0.1491  0.0210 -0.3236
 5446TIP3    H137897   4.439   1.368   7.598 -0.3458  1.0417 -2.2707
 5446TIP3    H237898   4.472   1.494   7.675 -0.3619  0.1771 -0.8040
 5447TIP3   OH237899   0.050   2.949   1.117 -0.6175  0.3155 -0.0510
 5447TIP3    H137900   0.058   2.903   1.200  1.3995  0.7838  0.0783
 5447TIP3    H237901  -0.030   3.000   1.125  0.5575  1.9756  2.4946
 5448TIP3   OH237902   5.357   5.529   1.010  1.0066  0.2255  0.4462
 5448TIP3    H137903   5.305   5.553   1.087 -1.5022  1.2552 -1.4766
 5448TIP3    H237904   5.426   5.596   1.006  0.2385  1.0644  0.9292
 5449TIP3   OH237905   0.020   6.818   0.363  0.2568  0.3920 -0.6738
 5449TIP3    H137906  -0.043   6.759   0.322 -1.4923  1.8734 -0.2315
 5449TIP3    H237907   0.066   6.763   0.427 -1.2045 -0.5280 -0.3772
 5450TIP3   OH237908   2.130   5.160   2.740 -0.3935 -0.2429 -0.1881
 5450TIP3    H137909   2.225   5.168   2.733 -0.4103 -0.5886 -1.0060
 5450TIP3    H237910   2.097   5.250   2.737 -0.1131 -0.1458 -0.3399
 5451TIP3   OH237911   0.062   2.675   7.969  0.1471  0.1361 -0.3195
 5451TIP3    H137912   0.016   2.718   8.042  0.7429 -1.3236  0.9738
 5451TIP3    H237913   0.017   2.592   7.958  1.4956 -0.6571 -0.0472
 5452TIP3   OH237914   5.876   2.603   7.734 -0.4854  0.2563 -1.0185
 5452TIP3    H137915   5.952   2.661   7.740 -1.6018  1.7340 -0.6345
 5452TIP3    H237916   5.809   2.644   7.788 -1.8378 -0.5658 -1.9903
 5453TIP3   OH237917   5.770   5.847   7.375 -0.1518  0.0176 -0.3254
 5453TIP3    H137918   5.807   5.761   7.398  0.3166  0.1953 -0.4124
 5453TIP3    H237919   5.694   5.826   7.320 -1.2044 -0.4127  1.2150
 5454TIP3   OH237920   2.687   6.741   0.971 -0.4476  0.3628 -0.1332
 5454TIP3    H137921   2.640   6.704   0.896 -0.6104  0.9962 -0.3506
 5454TIP3    H237922   2.640   6.822   0.991 -0.2318  0.3457  0.4752
 5455TIP3   OH237923   6.361   3.256   0.624 -0.0559  0.0326  0.3131
 5455TIP3    H137924   6.355   3.215   0.538  0.1028 -0.6127  0.6050
 5455TIP3    H237925   6.450   3.290   0.630 -0.0492  0.0253  0.2479
 5456TIP3   OH237926   3.852   5.842   8.050  0.5696 -0.0188 -0.2517
 5456TIP3    H137927   3.764   5.869   8.023 -0.2489 -0.4959  1.7235
 5456TIP3    H237928   3.870   5.893   8.129  1.8847 -0.2584 -0.3685
 5457TIP3   OH237929   6.735   5.266   8.190 -0.0346 -0.0653  0.0042
 5457TIP3    H137930   6.796   5.192   8.186 -3.3598 -3.0994 -2.2378
 5457TIP3    H237931   6.704   5.267   8.280  1.1128 -0.4609  0.4205
 5458TIP3   OH237932   4.634   5.355   1.690 -0.4776 -0.0989  0.3008
 5458TIP3    H137933   4.559   5.367   1.749 -2.4717  1.7191 -2.3615
 5458TIP3    H237934   4.603   5.293   1.624  1.3955 -1.4457  0.6189
 5459TIP3   OH237935   4.963   2.032   1.099 -0.9487 -0.0092 -0.2623
 5459TIP3    H137936   4.873   2.066   1.103 -0.7443  0.4256  1.1355
 5459TIP3    H237937   5.018   2.109   1.115 -0.3329 -0.3353 -0.7865
 5460TIP3   OH237938   1.329   6.008   2.065  0.0843  0.2034  0.6744
 5460TIP3    H137939   1.294   6.049   1.987  2.3004  1.6921  0.3606
 5460TIP3    H237940   1.347   6.080   2.125  2.3105 -0.4300  0.8681
 5461TIP3   OH237941   5.919   2.077   0.136  0.0938  0.8279 -0.2586
 5461TIP3    H137942   5.856   2.148   0.135  0.4919  1.1914  0.1866
 5461TIP3    H237943   5.918   2.044   0.226 -2.1303 -1.5978 -1.0441
 5462TIP3   OH237944   5.034   1.784   1.477 -0.0825  0.2950  0.1692
 5462TIP3    H137945   4.945   1.756   1.457  0.5401 -0.6190 -1.6349
 5462TIP3    H237946   5.075   1.795   1.391  1.3193  1.4701  0.9468
 5463TIP3   OH237947   4.051   6.258   8.152  0.7408  0.7313 -0.1703
 5463TIP3    H137948   4.048   6.263   8.247 -0.5970 -0.7446 -0.1030
 5463TIP3    H237949   4.133   6.211   8.133  0.9870  0.9889  0.2421
 5464TIP3   OH237950   2.096   6.264   8.716 -0.4548 -0.5484  0.4857
 5464TIP3    H137951   2.098   6.321   8.794 -0.2998 -0.2956  0.2975
 5464TIP3    H237952   2.015   6.214   8.726 -0.2073 -0.8490  1.0429
 5465TIP3   OH237953   5.549   5.376   8.093  0.3794 -0.3648 -0.6597
 5465TIP3    H137954   5.469   5.342   8.054  0.8556  0.1857 -2.1710
 5465TIP3    H237955   5.520   5.421   8.172 -0.6978 -0.8179 -0.7786
 5466TIP3   OH237956   6.284   3.354   2.691  0.4715 -0.0140 -0.4948
 5466TIP3    H137957   6.260   3.445   2.711  1.0118 -0.1211  0.7267
 5466TIP3    H237958   6.202   3.312   2.666 -0.2572  0.2027  1.3602
 5467TIP3   OH237959   0.810   4.179   1.365 -0.5965  0.1073 -0.0119
 5467TIP3    H137960   0.728   4.130   1.367 -0.3716 -0.2756 -0.0830
 5467TIP3    H237961   0.793   4.251   1.303 -0.9213  0.1132  0.0805
 5468TIP3   OH237962   5.429   3.303   1.466 -0.1843  0.3279 -0.1500
 5468TIP3    H137963   5.429   3.285   1.372  0.6209  1.1195 -0.3232
 5468TIP3    H237964   5.409   3.396   1.472  0.0143  0.3386  0.4440
 5469TIP3   OH237965   5.618   1.037   0.682  0.4483  0.7595  0.0082
 5469TIP3    H137966   5.687   1.077   0.736 -0.8247  3.4974 -0.2667
 5469TIP3    H237967   5.563   0.990   0.745  4.1746 -4.6638 -0.0083
 5470TIP3   OH237968   5.833   4.997   0.151 -0.3826  0.4949 -0.0293
 5470TIP3    H137969   5.860   5.059   0.218 -0.1897 -0.7222  1.0560
 5470TIP3    H237970   5.801   4.921   0.199 -1.9960  0.2988 -1.3103
 5471TIP3   OH237971   0.701   4.234   1.900  0.8332  0.0984 -0.7329
 5471TIP3    H137972   0.644   4.208   1.972  1.1352  0.4981 -0.3492
 5471TIP3    H237973   0.652   4.210   1.821  0.8383 -1.0545 -0.4009
 5472TIP3   OH237974   1.027   5.691   0.722 -0.2754 -0.0627 -0.2698
 5472TIP3    H137975   1.078   5.631   0.777 -0.3646  0.9546  0.9645
 5472TIP3    H237976   0.942   5.649   0.713  0.3017 -1.1108 -1.1953
 5473TIP3   OH237977   4.985   0.622   2.072 -0.4592  0.7446 -0.3446
 5473TIP3    H137978   4.997   0.620   2.167 -0.1858  0.9719 -0.3726
 5473TIP3    H237979   4.906   0.570   2.057 -0.1767  0.2188 -0.0483
 5474TIP3   OH237980   5.833   6.041   1.807  0.1218  0.1103  0.0935
 5474TIP3    H137981   5.865   6.130   1.820  0.2256  0.0249  0.4326
 5474TIP3    H237982   5.913   5.987   1.806 -0.0295 -0.1424  1.2496
 5475TIP3   OH237983   2.791   6.418   0.451 -0.4216 -0.4999 -0.2679
 5475TIP3    H137984   2.847   6.348   0.484  4.2302  2.2973 -1.2940
 5475TIP3    H237985   2.787   6.482   0.523  2.7555  1.8492 -1.9324
 5476TIP3   OH237986   5.185   0.189   0.194 -0.7389 -0.1844  0.1125
 5476TIP3    H137987   5.210   0.096   0.199 -0.0555 -0.1636 -2.1283
 5476TIP3    H237988   5.262   0.233   0.159 -1.9583  0.7852 -1.4578
 5477TIP3   OH237989   5.219   4.160   0.623  0.9400 -0.1265  0.1023
 5477TIP3    H137990   5.233   4.247   0.661  1.0205 -0.4393  0.8011
 5477TIP3    H237991   5.279   4.157   0.548  0.1007  0.8462 -0.6407
 5478TIP3   OH237992   0.311   3.314   7.954 -0.9703 -0.1961  0.3113
 5478TIP3    H137993   0.298   3.330   8.047  0.9142  0.3267  0.5316
 5478TIP3    H237994   0.248   3.246   7.932 -2.0969  0.3312  1.7416
 5479TIP3   OH237995   0.703   0.202   0.250 -0.7056 -0.6216 -0.5792
 5479TIP3    H137996   0.663   0.145   0.316  0.3219 -0.3127  0.3388
 5479TIP3    H237997   0.740   0.141   0.185 -1.3036 -0.9361 -0.6399
 5480TIP3   OH237998   3.332   3.367   1.995  0.0087 -0.3041  0.2474
 5480TIP3    H137999   3.330   3.428   1.922 -0.2443 -0.7092 -0.0883
 5480TIP3    H238000   3.241   3.341   2.007  0.2185 -1.3239 -0.2196
 5481TIP3   OH238001   1.857   1.960   8.131 -0.8237 -0.7430  0.0494
 5481TIP3    H138002   1.880   1.868   8.144  1.8478 -0.3567 -1.2354
 5481TIP3    H238003   1.904   2.006   8.200 -0.5760 -0.1917 -0.4782
 5482TIP3   OH238004   4.430   0.361   1.670 -0.2999  0.1650  0.0944
 5482TIP3    H138005   4.474   0.307   1.736 -0.9983  0.6548  0.9784
 5482TIP3    H238006   4.413   0.301   1.597  1.6623 -0.0818 -0.2160
 5483TIP3   OH238007   0.583   4.609   7.593  0.0716 -0.3728  0.3544
 5483TIP3    H138008   0.494   4.607   7.558 -0.7233  1.5744  2.0091
 5483TIP3    H238009   0.571   4.617   7.688  1.8000  3.5526  0.4657
 5484TIP3   OH238010   6.654   1.273   0.688 -0.0551 -0.0308 -0.0198
 5484TIP3    H138011   6.589   1.216   0.729  0.6994 -0.8989  0.0009
 5484TIP3    H238012   6.738   1.230   0.705  0.8283  2.3035  2.0669
 5485TIP3   OH238013   0.034   1.823   0.246 -0.4425 -0.2553  0.7495
 5485TIP3    H138014  -0.055   1.788   0.241  0.2499 -2.0142 -0.2244
 5485TIP3    H238015   0.025   1.914   0.218 -2.0235 -0.1794  1.3673
 5486TIP3   OH238016   2.190   2.447   1.734  0.5590  0.1422 -0.3037
 5486TIP3    H138017   2.131   2.499   1.788 -0.2563 -0.7497 -0.3148
 5486TIP3    H238018   2.154   2.358   1.737  2.8031 -0.8143  1.0635
 5487TIP3   OH238019   0.201   1.475   1.909 -0.7254 -0.2007 -0.4948
 5487TIP3    H138020   0.118   1.522   1.899 -0.9498 -0.6118 -0.5585
 5487TIP3    H238021   0.187   1.418   1.984 -0.7217 -0.7502 -0.9105
 5488TIP3   OH238022   1.203   6.835   2.236  0.1693 -0.7102 -0.0712
 5488TIP3    H138023   1.245   6.901   2.291 -0.0156 -0.8630  0.2573
 5488TIP3    H238024   1.166   6.772   2.298 -1.8650  0.2015 -0.2834
 5489TIP3   OH238025   2.138   6.107   8.088  0.4120  0.4247 -0.2285
 5489TIP3    H138026   2.061   6.054   8.108  0.8005  0.1727  0.6438
 5489TIP3    H238027   2.210   6.044   8.082  0.5234  0.6304 -1.2727
 5490TIP3   OH238028   0.740   1.970   7.702  0.1945  0.4082  0.1035
 5490TIP3    H138029   0.714   2.043   7.646 -0.1332  0.2037 -0.0115
 5490TIP3    H238030   0.692   1.895   7.667  1.1045 -0.0276 -0.2604
 5491TIP3   OH238031   0.259   3.015   0.303 -0.2541  0.4193  0.6342
 5491TIP3    H138032   0.307   3.083   0.350 -0.0115  0.7281 -0.0426
 5491TIP3    H238033   0.207   2.971   0.370 -1.2755  1.9965  0.9332
 5492TIP3   OH238034   6.631   2.811   1.007  0.0451  0.2783  0.3377
 5492TIP3    H138035   6.595   2.845   1.089 -0.7449  2.8701 -0.9757
 5492TIP3    H238036   6.554   2.783   0.958  0.5603 -1.8451  0.6451
 5493TIP3   OH238037   0.265   5.400   6.973 -0.1860 -0.1510  0.6023
 5493TIP3    H138038   0.263   5.414   7.068  0.8389  0.3547  0.5635
 5493TIP3    H238039   0.186   5.444   6.941 -0.1784  0.2822  1.1522
 5494TIP3   OH238040   2.396   5.169   2.614  0.0017  0.3404  0.8990
 5494TIP3    H138041   2.454   5.093   2.608 -2.5045 -1.6059 -1.4021
 5494TIP3    H238042   2.454   5.243   2.629  2.8420 -1.6815  0.6233
 5495TIP3   OH238043   5.181   6.714   8.259 -0.0039  0.1205  0.6024
 5495TIP3    H138044   5.252   6.656   8.232 -1.3641 -0.7693 -1.2366
 5495TIP3    H238045   5.152   6.679   8.344  0.6378 -0.5131  0.5666
 5496TIP3   OH238046   6.196   4.798   2.225 -0.2752 -0.0695 -0.1917
 5496TIP3    H138047   6.135   4.864   2.191 -0.2628 -1.0521 -2.2794
 5496TIP3    H238048   6.140   4.737   2.275 -0.4209  0.9512  0.9477
 5497TIP3   OH238049   5.471   6.520   1.058 -0.0232 -0.1817  0.6163
 5497TIP3    H138050   5.380   6.551   1.048  0.4269  1.2866  0.8179
 5497TIP3    H238051   5.484   6.461   0.983 -1.3769 -1.0567  1.0240
 5498TIP3   OH238052   4.405   4.477   7.204 -0.2935 -0.1015 -0.3871
 5498TIP3    H138053   4.361   4.546   7.154  1.7182  1.5788 -0.0237
 5498TIP3    H238054   4.344   4.456   7.274 -1.1180  1.0795 -0.7127
 5499TIP3   OH238055   6.714   0.064   1.286 -0.2212  0.6166  0.3059
 5499TIP3    H138056   6.739   0.109   1.366  0.2732  1.4657 -0.3030
 5499TIP3    H238057   6.758   0.113   1.216 -1.3599  0.4547 -0.5637
 5500TIP3   OH238058   4.633   4.315   7.162  0.5384  0.2268  0.1020
 5500TIP3    H138059   4.567   4.384   7.169  0.9415  0.5757  0.5589
 5500TIP3    H238060   4.666   4.323   7.072 -0.5121 -0.4049 -0.3648
 5501TIP3   OH238061   6.427   3.117   1.421 -0.3112 -0.1391  0.3480
 5501TIP3    H138062   6.411   3.144   1.511 -0.1025 -1.6064  0.8559
 5501TIP3    H238063   6.345   3.137   1.375 -0.6662 -0.0128  1.0221
 5502TIP3   OH238064   4.216   5.043   1.553 -0.2577  0.4465  0.6405
 5502TIP3    H138065   4.273   4.968   1.538  0.9876  1.2869  1.0550
 5502TIP3    H238066   4.162   5.018   1.628 -1.0141 -0.6590 -0.2352
 5503TIP3   OH238067   2.004   3.660   7.564 -0.1904 -0.4786 -0.2654
 5503TIP3    H138068   2.006   3.641   7.658  0.5316  2.6102  0.4612
 5503TIP3    H238069   2.091   3.696   7.545 -0.4775 -0.6413 -2.0456
 5504TIP3   OH238070   1.852   1.853   7.134  0.8018 -0.2503  0.1357
 5504TIP3    H138071   1.874   1.830   7.043  0.5421 -1.6992  0.4213
 5504TIP3    H238072   1.910   1.927   7.154  0.1055  0.8219 -1.5505
 5505TIP3   OH238073   4.917   5.310   2.155  0.0385  0.0756  0.0444
 5505TIP3    H138074   4.963   5.225   2.152  0.9837  0.5807 -0.3667
 5505TIP3    H238075   4.846   5.301   2.092 -0.4032 -0.6998  0.6314
 5506TIP3   OH238076   1.276   4.491   2.077 -0.0480 -0.5189 -0.1083
 5506TIP3    H138077   1.343   4.448   2.023  0.8638  0.9863 -0.2291
 5506TIP3    H238078   1.325   4.539   2.143 -0.7880  2.6156 -1.6576
 5507TIP3   OH238079   1.120   3.675   1.089 -0.0388  0.5256  0.3392
 5507TIP3    H138080   1.183   3.640   1.025  0.5710  1.7512  0.2407
 5507TIP3    H238081   1.080   3.597   1.127  1.2730 -0.2877  0.1366
 5508TIP3   OH238082   6.644   5.523   8.084  0.3435  0.2117  0.2138
 5508TIP3    H138083   6.552   5.506   8.103  0.2716  1.2920  0.8959
 5508TIP3    H238084   6.691   5.451   8.125  0.0772  1.6208  3.2374
 5509TIP3   OH238085   4.877   1.385   8.291 -0.2124 -0.5148  0.1217
 5509TIP3    H138086   4.798   1.422   8.331 -0.0219  0.2150 -0.1665
 5509TIP3    H238087   4.870   1.291   8.308 -0.5980 -0.3311  1.0634
 5510TIP3   OH238088   5.985   1.310   6.903 -0.3838 -0.6052  0.0033
 5510TIP3    H138089   6.032   1.278   6.826  0.1689 -0.5208  0.2985
 5510TIP3    H238090   5.893   1.300   6.881 -0.2370 -0.1901 -0.8369
 5511TIP3   OH238091   1.902   5.957   0.250 -0.2070 -0.4727  0.6044
 5511TIP3    H138092   1.927   6.018   0.320 -0.4946  1.0257 -0.5575
 5511TIP3    H238093   1.828   5.908   0.287 -1.5640  1.5596  0.7754
 5512TIP3   OH238094   5.885   0.575   0.339  0.0540  0.2274 -0.6718
 5512TIP3    H138095   5.837   0.577   0.256 -0.1076 -2.4579 -0.7078
 5512TIP3    H238096   5.955   0.512   0.325  2.0159  2.0557  0.2867
 5513TIP3   OH238097   1.035   3.030   1.776 -0.0726 -0.3990  0.1530
 5513TIP3    H138098   1.065   2.940   1.790 -0.5512 -1.0572 -2.6286
 5513TIP3    H238099   1.022   3.037   1.682 -1.9751  2.0011  0.5120
 5514TIP3   OH238100   3.160   0.386   8.662  0.0118 -0.2372 -0.9869
 5514TIP3    H138101   3.074   0.410   8.695  0.3798 -1.3644  0.9488
 5514TIP3    H238102   3.215   0.462   8.681 -0.0994 -0.3340 -0.2467
 5515TIP3   OH238103   3.607   1.793   8.561 -0.0685  0.3949 -0.2519
 5515TIP3    H138104   3.556   1.863   8.519  0.4725  1.0773  0.1961
 5515TIP3    H238105   3.549   1.761   8.631 -0.6640 -0.2192 -1.0161
 5516TIP3   OH238106   3.305   6.789   0.136 -0.2749  0.1258 -0.1740
 5516TIP3    H138107   3.279   6.872   0.095  1.7672  0.3050 -1.2607
 5516TIP3    H238108   3.332   6.814   0.224  0.9893  0.7890 -0.7147
 5517TIP3   OH238109   5.141   2.834   8.724 -0.6575 -0.4663  0.3877
 5517TIP3    H138110   5.074   2.878   8.672  0.0167 -0.3382 -0.3981
 5517TIP3    H238111   5.212   2.897   8.729 -1.1311 -0.0265  2.4582
 5518TIP3   OH238112   2.396   2.871   0.072 -0.1376  0.4800  0.0424
 5518TIP3    H138113   2.347   2.796   0.038 -0.8969  0.1591  1.7290
 5518TIP3    H238114   2.488   2.848   0.059 -0.3670  0.4138 -1.7721
 5519TIP3   OH238115   5.210   5.134   2.092 -0.3515  0.2706  0.0702
 5519TIP3    H138116   5.216   5.041   2.070  1.0149  0.4356 -0.3840
 5519TIP3    H238117   5.191   5.177   2.008 -0.1695  0.4687  0.1294
 5520TIP3   OH238118   3.074   6.544   8.669  0.5708  0.0292 -0.3941
 5520TIP3    H138119   3.018   6.467   8.666  1.5404 -0.6767 -1.9114
 5520TIP3    H238120   3.082   6.571   8.578  2.1240  0.4958 -0.1568
 5521TIP3   OH238121   4.286   1.936   0.937  0.0998  0.0402 -0.0939
 5521TIP3    H138122   4.208   1.881   0.934 -0.2382  0.3488  1.8142
 5521TIP3    H238123   4.253   2.025   0.922  0.3614 -0.0188 -1.1032
 5522TIP3   OH238124   2.218   6.809   1.992  0.0464  0.1887 -0.1089
 5522TIP3    H138125   2.127   6.813   1.960  0.1312  0.3621 -0.3302
 5522TIP3    H238126   2.211   6.834   2.085  0.0773  1.9698 -0.5443
 5523TIP3   OH238127   6.303   1.287   7.581 -0.3905 -0.2630  0.3426
 5523TIP3    H138128   6.302   1.342   7.659 -0.7560  1.5636 -0.8842
 5523TIP3    H238129   6.364   1.330   7.522 -0.9918 -0.9549 -0.8273
 5524TIP3   OH238130   1.470   4.368   0.606  0.1426 -0.0746 -0.2958
 5524TIP3    H138131   1.520   4.381   0.686  0.5674 -2.3681 -0.1397
 5524TIP3    H238132   1.516   4.299   0.559  0.0812  1.4051 -2.7209
 5525TIP3   OH238133   3.760   0.440   8.579 -0.3455 -0.6701 -0.2212
 5525TIP3    H138134   3.767   0.439   8.674  0.0325  3.2207 -0.0660
 5525TIP3    H238135   3.846   0.411   8.548 -0.2127 -1.2063  0.6222
 5526TIP3   OH238136   2.162   2.523   0.377 -0.4997  0.3379 -0.3444
 5526TIP3    H138137   2.136   2.611   0.351 -0.6607  0.3822 -0.0431
 5526TIP3    H238138   2.092   2.466   0.344 -0.1294  0.2647 -0.9933
 5527TIP3   OH238139   2.424   3.954   2.158  0.6060  0.5368  0.2057
 5527TIP3    H138140   2.375   3.880   2.195  0.0525  0.5925 -0.3999
 5527TIP3    H238141   2.404   3.952   2.064  0.7834  1.3013  0.1426
 5528TIP3   OH238142   5.093   1.667   7.017  0.1023  0.1703 -0.9554
 5528TIP3    H138143   5.083   1.592   6.958  1.5456 -0.6427 -0.2407
 5528TIP3    H238144   5.176   1.650   7.063 -1.4586  0.1122  2.1452
 5529TIP3   OH238145   6.691   0.308   0.716  0.5571  0.4738 -0.3865
 5529TIP3    H138146   6.785   0.294   0.727  0.3156 -1.0627 -0.0140
 5529TIP3    H238147   6.672   0.386   0.768  1.2531 -0.5614  1.5436
 5530TIP3   OH238148   3.604   3.318   2.012  0.2342 -0.0336 -0.4106
 5530TIP3    H138149   3.509   3.312   2.027  0.2910  0.1830  0.0467
 5530TIP3    H238150   3.626   3.234   1.972 -0.2022  0.0353 -0.8046
 5531TIP3   OH238151   5.848   4.484   1.484 -0.0531 -0.0651 -0.5714
 5531TIP3    H138152   5.790   4.525   1.548 -0.6739  0.3724 -1.4023
 5531TIP3    H238153   5.899   4.421   1.535 -1.0448 -0.2408  0.2231
 5532TIP3   OH238154   1.681   2.410   1.015  0.8990  0.1018 -0.8439
 5532TIP3    H138155   1.758   2.394   1.069 -0.0728 -0.6418  0.3852
 5532TIP3    H238156   1.671   2.330   0.963 -1.7096 -2.0660  2.4877
 5533TIP3   OH238157   2.587   0.777   1.980 -0.2347  0.4679 -0.0323
 5533TIP3    H138158   2.674   0.767   1.942 -0.2731 -0.3547  0.0857
 5533TIP3    H238159   2.526   0.753   1.911 -0.2724 -2.7856  0.9879
 5534TIP3   OH238160   4.085   4.768   2.279 -0.3152  0.3394  0.3145
 5534TIP3    H138161   4.168   4.721   2.267 -0.5145  0.4987 -2.3929
 5534TIP3    H238162   4.057   4.746   2.368  1.0548 -2.2775  0.1975
 5535TIP3   OH238163   2.918   4.876   8.259  0.2306 -1.0447  0.5645
 5535TIP3    H138164   2.877   4.881   8.345 -0.1455  0.4941  0.3178
 5535TIP3    H238165   2.847   4.851   8.200  0.7322 -3.3551  0.8133
 5536TIP3   OH238166   0.184   5.398   8.261 -0.4261 -0.4552 -0.0024
 5536TIP3    H138167   0.164   5.304   8.258 -2.1700 -0.1246  0.2081
 5536TIP3    H238168   0.160   5.425   8.349 -0.0095  0.2149 -0.0874
 5537TIP3   OH238169   3.431   6.320   1.541  0.1145  0.2529 -0.0464
 5537TIP3    H138170   3.461   6.380   1.608  0.0788  0.4007 -0.1630
 5537TIP3    H238171   3.510   6.271   1.515  0.3147  0.8183 -0.5353
 5538TIP3   OH238172   4.078   3.154   0.627  0.2076 -0.0344  0.1640
 5538TIP3    H138173   4.036   3.068   0.625 -1.1332  0.5603  1.2621
 5538TIP3    H238174   4.089   3.173   0.720  1.4148  0.5659 -0.0823
 5539TIP3   OH238175   2.671   0.264   1.859  0.6879  0.2650  0.3856
 5539TIP3    H138176   2.714   0.323   1.797  2.6473 -0.6810  0.7731
 5539TIP3    H238177   2.627   0.323   1.921  0.6063  1.2603 -0.5923
 5540TIP3   OH238178   6.362   0.786   2.618  0.6786  0.3118 -0.5306
 5540TIP3    H138179   6.417   0.862   2.597 -1.0039  1.3626 -1.3577
 5540TIP3    H238180   6.330   0.803   2.706  0.3305  0.5567 -0.7022
 5541TIP3   OH238181   3.288   1.506   8.066  0.1341 -0.3371  0.7054
 5541TIP3    H138182   3.299   1.468   8.154  2.6443 -0.3959  0.4364
 5541TIP3    H238183   3.361   1.470   8.016 -0.2332  1.1019 -0.9208
 5542TIP3   OH238184   6.400   2.184   8.373  0.6797  0.4094 -0.1306
 5542TIP3    H138185   6.443   2.102   8.348 -0.2505  0.3132 -1.4944
 5542TIP3    H238186   6.447   2.213   8.452 -1.8013 -3.7588  3.2928
 5543TIP3   OH238187   4.296   4.673   2.643  0.3993  0.1778 -0.5983
 5543TIP3    H138188   4.219   4.707   2.598 -0.5419 -1.6736 -0.4749
 5543TIP3    H238189   4.289   4.578   2.635  1.5197 -0.1231  1.2922
 5544TIP3   OH238190   1.843   0.224   8.024 -0.7349 -0.5718 -0.3792
 5544TIP3    H138191   1.780   0.271   8.078 -1.1921 -0.2061 -1.1972
 5544TIP3    H238192   1.813   0.133   8.026  0.3085 -0.9240  1.4245
 5545TIP3   OH238193   4.290   0.411   7.674 -0.2471  0.0073 -0.6232
 5545TIP3    H138194   4.318   0.438   7.762 -0.2152 -1.0076 -0.3103
 5545TIP3    H238195   4.222   0.473   7.650  0.9602  1.3941 -0.6218
 5546TIP3   OH238196   4.763   3.367   2.421  0.0945  0.1615 -0.9767
 5546TIP3    H138197   4.751   3.441   2.481 -2.2246 -1.5446  0.8494
 5546TIP3    H238198   4.858   3.363   2.406  0.4062  2.5811  0.0193
 5547TIP3   OH238199   2.159   5.349   2.415 -0.5444 -0.2643  0.8168
 5547TIP3    H138200   2.159   5.341   2.510 -0.1281  1.4085  0.9843
 5547TIP3    H238201   2.224   5.416   2.396 -2.0476  0.9184 -0.4792
 5548TIP3   OH238202   0.189   0.831   0.112 -0.5794  0.0791 -0.4079
 5548TIP3    H138203   0.206   0.879   0.193  1.5236 -0.8550 -0.2417
 5548TIP3    H238204   0.185   0.739   0.138  0.7135 -0.2963 -1.4024
 5549TIP3   OH238205   6.165   0.318   2.774 -0.3462 -0.0338  0.0746
 5549TIP3    H138206   6.227   0.250   2.747 -0.7887 -0.3612 -0.1283
 5549TIP3    H238207   6.083   0.294   2.732 -0.8253 -0.0632  0.9905
 5550TIP3   OH238208   0.992   5.286   1.570 -0.2939 -0.0124 -0.0932
 5550TIP3    H138209   1.076   5.306   1.611  0.8426 -0.8845 -1.8501
 5550TIP3    H238210   0.947   5.230   1.634  0.2621  0.7831  1.0325
 5551TIP3   OH238211   2.505   0.514   7.958  0.2761  0.0615  0.4829
 5551TIP3    H138212   2.517   0.426   7.992  0.5180  0.2941  1.0171
 5551TIP3    H238213   2.588   0.559   7.978  0.2155  0.3652  0.0797
 5552TIP3   OH238214   3.963   4.076   0.818  0.3536  0.1381  0.4736
 5552TIP3    H138215   4.053   4.059   0.848  1.0186  0.4488 -1.2260
 5552TIP3    H238216   3.909   4.021   0.874  1.6051 -0.1833  1.4398
 5553TIP3   OH238217   1.608   5.929   2.006 -0.0816 -0.1269 -0.1850
 5553TIP3    H138218   1.646   5.929   2.094  0.4502 -0.6585 -0.4098
 5553TIP3    H238219   1.514   5.933   2.020  0.0398  1.8792  0.3876
 5554TIP3   OH238220   3.166   1.893   0.835 -0.4177 -0.3084 -0.3112
 5554TIP3    H138221   3.168   1.988   0.845 -0.6838 -0.2798 -0.5145
 5554TIP3    H238222   3.155   1.860   0.924  0.4459 -0.1797 -0.1473
 5555TIP3   OH238223   6.813   4.283   2.548 -0.0679 -0.2418 -0.7939
 5555TIP3    H138224   6.858   4.362   2.579 -0.7945 -0.1559  0.0848
 5555TIP3    H238225   6.777   4.243   2.627  0.9704 -1.9074 -1.1145
 5556TIP3   OH238226   6.417   4.896   8.456 -0.2293 -0.0718 -0.8251
 5556TIP3    H138227   6.347   4.873   8.396 -0.0513 -1.0490 -0.6682
 5556TIP3    H238228   6.392   4.857   8.540 -0.8806  1.9498  0.0036
 5557TIP3   OH238229   1.444   1.702   1.567 -0.2764 -0.1382  0.6600
 5557TIP3    H138230   1.512   1.667   1.624  3.1909 -0.1066 -3.0513
 5557TIP3    H238231   1.392   1.626   1.541  0.6629 -0.8149  0.7337
 5558TIP3   OH238232   1.891   6.270   0.834  0.3003 -0.4866  0.3693
 5558TIP3    H138233   1.833   6.194   0.831  0.3269 -0.5718  1.4018
 5558TIP3    H238234   1.841   6.336   0.882  0.2706  0.1621 -0.5395
 5559TIP3   OH238235   0.628   3.125   8.417  0.7301 -0.2293 -0.1449
 5559TIP3    H138236   0.706   3.180   8.418  0.8402 -0.3325 -1.7827
 5559TIP3    H238237   0.626   3.087   8.329 -1.2901 -0.0564 -0.2076
 5560TIP3   OH238238   3.416   4.761   1.448  0.1767 -0.4354  0.0849
 5560TIP3    H138239   3.453   4.768   1.361  1.1357 -0.0674  0.5085
 5560TIP3    H238240   3.485   4.793   1.506 -1.3323  1.7423  0.8087
 5561TIP3   OH238241   1.095   1.321   1.912 -0.0354  0.3344 -0.0578
 5561TIP3    H138242   1.009   1.357   1.891 -0.5144 -0.9136 -0.3105
 5561TIP3    H238243   1.087   1.228   1.894  1.8124  0.3938 -1.5157
 5562TIP3   OH238244   4.055   2.659   1.604 -0.1875 -0.1522  0.0453
 5562TIP3    H138245   4.111   2.660   1.526 -0.2364 -2.1988 -0.0763
 5562TIP3    H238246   3.974   2.701   1.577  0.4511  0.7714 -0.4659
 5563TIP3   OH238247   5.279   3.079   0.648  0.4003  0.0980  0.2398
 5563TIP3    H138248   5.338   3.152   0.628 -0.1087  0.0024 -1.8535
 5563TIP3    H238249   5.257   3.091   0.741  2.3675  1.0795  0.6463
 5564TIP3   OH238250   5.183   2.487   1.711 -0.1375  0.1369 -0.6081
 5564TIP3    H138251   5.101   2.488   1.761  1.0829 -1.1087  1.5764
 5564TIP3    H238252   5.202   2.579   1.695 -0.9697  0.5483  0.5951
 5565TIP3   OH238253   6.648   2.604   7.165 -0.4318  0.3082 -0.0910
 5565TIP3    H138254   6.680   2.541   7.230 -0.5396  1.6832  1.3761
 5565TIP3    H238255   6.616   2.550   7.092  2.6570 -1.2212 -0.4646
 5566TIP3   OH238256   1.683   0.321   2.785 -0.1933  0.0635  0.3972
 5566TIP3    H138257   1.775   0.343   2.776 -0.0471  1.1910  3.5209
 5566TIP3    H238258   1.682   0.235   2.826 -0.5371 -0.0311  0.1995
 5567TIP3   OH238259   3.106   2.493   8.131  0.2806 -0.2091 -0.2568
 5567TIP3    H138260   3.021   2.466   8.095  0.2757 -1.5394  0.6991
 5567TIP3    H238261   3.086   2.571   8.184 -0.1372  0.1693 -0.9536
 5568TIP3   OH238262   2.921   6.005   1.276  0.6202 -0.0771 -0.0696
 5568TIP3    H138263   2.976   6.016   1.198  0.4193 -1.1229 -0.3737
 5568TIP3    H238264   2.849   6.067   1.263  1.7836  1.4185  0.4083
 5569TIP3   OH238265   0.248   1.485   0.726 -0.3493  0.6405 -0.1238
 5569TIP3    H138266   0.193   1.443   0.660 -0.7622  1.4806 -0.3355
 5569TIP3    H238267   0.186   1.511   0.795 -0.0484  0.5629  0.1750
 5570TIP3   OH238268   2.178   3.156   0.529  0.7196  0.0507  0.3267
 5570TIP3    H138269   2.116   3.214   0.484  0.1222 -0.1582  0.8717
 5570TIP3    H238270   2.202   3.091   0.463  1.8179  1.2053 -0.4642
 5571TIP3   OH238271   4.711   0.385   1.603  0.3322  0.0431 -0.1407
 5571TIP3    H138272   4.663   0.395   1.521 -0.5702 -0.3476  0.3283
 5571TIP3    H238273   4.658   0.431   1.668 -0.1573 -1.5647  0.6575
 5572TIP3   OH238274   0.025   0.177   2.041  0.2004 -0.0384  0.3788
 5572TIP3    H138275   0.072   0.105   1.998 -0.5645  0.2448 -0.9809
 5572TIP3    H238276  -0.058   0.138   2.067  0.2385  0.0689  0.6619
 5573TIP3   OH238277   3.968   1.941   6.972  0.0022 -0.5694 -0.4800
 5573TIP3    H138278   4.008   1.900   6.895 -0.6633 -0.9027 -0.6596
 5573TIP3    H238279   3.957   2.032   6.946  0.1900 -0.5820 -0.6122
 5574TIP3   OH238280   1.970   1.723   7.732 -0.0723  0.1807  0.6709
 5574TIP3    H138281   1.934   1.675   7.658 -0.2500  1.8317 -0.3388
 5574TIP3    H238282   2.031   1.660   7.773 -1.9401 -1.6681  0.7696
 5575TIP3   OH238283   5.427   3.929   0.540 -0.0315  0.3055  0.4996
 5575TIP3    H138284   5.394   3.845   0.572  0.3490  0.1572  0.5159
 5575TIP3    H238285   5.483   3.960   0.611  0.0501  0.4388  0.3762
 5576TIP3   OH238286   4.677   2.851   7.817 -0.2078  0.3851  0.1737
 5576TIP3    H138287   4.712   2.939   7.833  1.9097 -0.6771  1.9379
 5576TIP3    H238288   4.752   2.802   7.783 -1.4211 -0.7062 -1.0507
 5577TIP3   OH238289   3.805   4.215   2.387 -0.2546  0.3429  0.0676
 5577TIP3    H138290   3.812   4.140   2.446 -0.8219  0.0202 -0.2674
 5577TIP3    H238291   3.785   4.177   2.302 -1.2909  0.9154  0.0368
 5578TIP3   OH238292   2.732   2.438   1.335  0.1640 -0.2231 -0.0578
 5578TIP3    H138293   2.675   2.509   1.308  2.2801  1.8194  0.5009
 5578TIP3    H238294   2.806   2.442   1.274  0.6010 -1.6126  0.3327
 5579TIP3   OH238295   1.746   4.190   3.243  0.1515  0.0947  0.4964
 5579TIP3    H138296   1.779   4.277   3.266 -0.5835  0.1825  1.2466
 5579TIP3    H238297   1.817   4.151   3.192  1.4817  0.2389  2.1529
 5580TIP3   OH238298   1.945   4.398   1.334 -0.3735 -0.6142 -0.6035
 5580TIP3    H138299   1.931   4.447   1.253 -0.6032 -0.6048 -0.5579
 5580TIP3    H238300   2.038   4.411   1.354 -0.9910  2.1373  0.9335
 5581TIP3   OH238301   0.522   4.840   8.052  0.5546  0.4619 -0.0934
 5581TIP3    H138302   0.545   4.881   7.969  1.3151  0.8227  0.2848
 5581TIP3    H238303   0.539   4.747   8.038 -1.2070  0.2288 -0.9630
 5582TIP3   OH238304   4.498   5.284   7.427 -0.0939  0.1765  0.2536
 5582TIP3    H138305   4.452   5.364   7.400 -1.4846 -0.2141  1.3191
 5582TIP3    H238306   4.534   5.248   7.346  0.0808  1.5780 -0.3196
 5583TIP3   OH238307   1.487   5.194   1.566  0.2948  0.3816  0.3921
 5583TIP3    H138308   1.577   5.201   1.597  0.2199 -0.0468  0.7219
 5583TIP3    H238309   1.437   5.255   1.621  0.1518 -0.4196  1.1827
 5584TIP3   OH238310   5.230   4.113   8.530  1.0131  0.3963  0.2265
 5584TIP3    H138311   5.284   4.035   8.522 -0.5119 -0.6562 -0.1344
 5584TIP3    H238312   5.201   4.113   8.621  0.2259 -0.0093 -0.0183
 5585TIP3   OH238313   0.929   5.779   2.775 -0.2781  0.1871 -0.5126
 5585TIP3    H138314   1.023   5.760   2.771 -0.3299  0.0098 -0.9830
 5585TIP3    H238315   0.921   5.843   2.846  0.1588 -0.0231 -0.2679
 5586TIP3   OH238316   5.601   2.788   2.197  0.4505 -0.5199  0.1743
 5586TIP3    H138317   5.669   2.758   2.136  0.7640  1.7679 -0.6708
 5586TIP3    H238318   5.645   2.795   2.281 -0.0270 -3.8809  0.8502
 5587TIP3   OH238319   5.567   4.692   0.229 -0.5601 -0.5669 -0.2162
 5587TIP3    H138320   5.541   4.732   0.145 -2.1646 -0.4657  0.3001
 5587TIP3    H238321   5.486   4.659   0.266 -0.1247  0.7080  2.0144
 5588TIP3   OH238322   5.363   0.949   1.336 -0.3506 -0.5502 -0.3651
 5588TIP3    H138323   5.449   0.961   1.294 -1.0211  0.1211 -1.6106
 5588TIP3    H238324   5.358   1.019   1.401 -0.0604 -0.4322 -0.4677
 5589TIP3   OH238325   1.461   1.372   1.515  0.5082  0.3052  0.4861
 5589TIP3    H138326   1.385   1.420   1.481 -0.4817 -1.4990  0.0001
 5589TIP3    H238327   1.521   1.367   1.440  0.7939  1.1113  0.6567
 5590TIP3   OH238328   5.649   2.975   7.368  0.0070  0.2840 -0.6048
 5590TIP3    H138329   5.695   2.998   7.287 -0.3015 -0.3505 -0.9702
 5590TIP3    H238330   5.667   2.882   7.381  0.2438  0.4305  0.1905
 5591TIP3   OH238331   2.971   1.946   3.054  0.5263  0.2764 -0.2699
 5591TIP3    H138332   2.935   1.909   3.134  0.2691  1.5381  0.2079
 5591TIP3    H238333   2.897   1.948   2.993  0.5988 -0.1916 -0.3818
 5592TIP3   OH238334   0.888   4.327   0.215 -0.0951 -0.2238 -0.0947
 5592TIP3    H138335   0.932   4.406   0.247 -1.5906  0.1658  1.1251
 5592TIP3    H238336   0.798   4.335   0.246 -1.0202 -1.0772 -2.3446
 5593TIP3   OH238337   5.665   6.710   2.583 -0.2502  0.4403  0.5118
 5593TIP3    H138338   5.586   6.656   2.582  0.7168 -1.0449 -1.0386
 5593TIP3    H238339   5.697   6.704   2.673 -0.8301 -0.5465  0.6688
 5594TIP3   OH238340   5.752   2.392   7.572 -0.5141  0.4044 -0.0302
 5594TIP3    H138341   5.748   2.430   7.484  0.2017  1.9344  0.5607
 5594TIP3    H238342   5.781   2.464   7.628  0.8590 -1.0210  1.1745
 5595TIP3   OH238343   4.115   3.641   2.754 -0.3546 -0.1923 -0.0985
 5595TIP3    H138344   4.091   3.587   2.829 -0.9968  0.5291  0.2270
 5595TIP3    H238345   4.086   3.591   2.677 -1.8195  0.1106  0.2368
 5596TIP3   OH238346   1.846   6.815   0.953  0.3249 -0.4081 -0.4240
 5596TIP3    H138347   1.809   6.751   0.893 -0.3105 -1.7788  1.3385
 5596TIP3    H238348   1.804   6.898   0.930  0.2986 -0.8385 -2.0036
 5597TIP3   OH238349   1.271   5.405   0.338  0.4701  0.3155 -0.1012
 5597TIP3    H138350   1.275   5.447   0.424  0.2165  0.4444 -0.1521
 5597TIP3    H238351   1.335   5.334   0.343  1.4665  1.1790 -0.2693
 5598TIP3   OH238352   4.962   6.271   1.538 -0.4041 -0.1491  0.2302
 5598TIP3    H138353   4.919   6.188   1.559 -2.8682  0.9697 -0.0416
 5598TIP3    H238354   5.003   6.256   1.453 -0.2749 -1.2614  0.4707
 5599TIP3   OH238355   4.453   1.235   8.659 -0.6028 -0.0173 -0.4104
 5599TIP3    H138356   4.432   1.317   8.616  1.1781  0.7394  0.0939
 5599TIP3    H238357   4.489   1.180   8.590 -0.1000  0.2884 -0.3935
 5600TIP3   OH238358   0.681   4.943   1.234  0.2747  0.1437  0.7435
 5600TIP3    H138359   0.766   4.981   1.256  0.8054 -0.1996 -0.6250
 5600TIP3    H238360   0.691   4.850   1.251  0.5783 -0.0746 -0.5361
 5601TIP3   OH238361   2.283   3.263   7.557  0.5806 -0.0958  0.6189
 5601TIP3    H138362   2.337   3.318   7.499  0.8622  0.3569  1.2880
 5601TIP3    H238363   2.311   3.174   7.538  0.1033 -0.0213 -0.5032
 5602TIP3   OH238364   5.874   1.827   8.010 -0.5305  0.0998 -0.2704
 5602TIP3    H138365   5.848   1.794   7.923 -1.8473 -0.8841  0.4613
 5602TIP3    H238366   5.844   1.918   8.010 -2.7743 -0.5716 -0.0107
 5603TIP3   OH238367   6.143   2.738   3.116  0.6549 -0.5904  0.5459
 5603TIP3    H138368   6.121   2.655   3.158  2.4011 -0.7863  1.1709
 5603TIP3    H238369   6.235   2.753   3.139  1.5345 -0.3676 -2.6609
 5604TIP3   OH238370   5.765   3.904   1.260  0.1006  0.5738 -0.4797
 5604TIP3    H138371   5.678   3.879   1.227  0.4273 -1.7203  0.2396
 5604TIP3    H238372   5.769   3.999   1.247 -2.7077  0.8279 -0.0763
 5605TIP3   OH238373   6.802   4.670   0.868  0.2767  0.3206  0.1498
 5605TIP3    H138374   6.876   4.725   0.841  1.8903 -2.5122 -1.6696
 5605TIP3    H238375   6.740   4.674   0.795  0.9505 -1.0898 -0.5432
 5606TIP3   OH238376   1.373   1.086   8.612  0.0399  0.0744 -0.6842
 5606TIP3    H138377   1.404   1.064   8.524  0.8524  0.3960 -0.4797
 5606TIP3    H238378   1.315   1.161   8.599  1.0393  0.8345 -0.8217
 5607TIP3   OH238379   1.414   4.446   1.398 -0.3671  0.2859 -0.4067
 5607TIP3    H138380   1.382   4.529   1.363  1.3441  0.9061 -0.5583
 5607TIP3    H238381   1.345   4.419   1.460 -1.8216  0.8517 -1.7143
 5608TIP3   OH238382   4.165   2.057   1.191 -0.0070 -0.3864  0.4372
 5608TIP3    H138383   4.138   1.967   1.208 -0.2659 -0.2508  0.7688
 5608TIP3    H238384   4.252   2.049   1.152  0.3727 -0.7483  1.3198
 5609TIP3   OH238385   1.989   2.125   8.306 -0.3256  0.5108  0.4218
 5609TIP3    H138386   2.077   2.089   8.298 -1.2982 -2.1293  0.7314
 5609TIP3    H238387   1.992   2.207   8.257  1.8122 -0.4316 -1.1812
 5610TIP3   OH238388   2.294   2.137   3.102  0.6433 -0.0287 -0.2772
 5610TIP3    H138389   2.265   2.048   3.081  0.5572  0.1427 -0.9217
 5610TIP3    H238390   2.231   2.194   3.057  0.9162  0.3566 -0.1808
 5611TIP3   OH238391   5.597   2.422   0.363  0.0157 -0.6411 -0.1160
 5611TIP3    H138392   5.519   2.385   0.404  1.3222 -1.9738  1.2838
 5611TIP3    H238393   5.563   2.491   0.305 -2.2179 -1.5207  0.0378
 5612TIP3   OH238394   0.516   1.697   7.795  0.1007  0.4788  0.2865
 5612TIP3    H138395   0.586   1.689   7.730 -0.2773  3.5745 -0.6796
 5612TIP3    H238396   0.557   1.745   7.868 -0.3358 -0.0491  0.8846
 5613TIP3   OH238397   0.497   2.988   0.820 -0.1379 -0.2518  0.2626
 5613TIP3    H138398   0.489   2.997   0.726 -1.9309 -1.0156  0.3018
 5613TIP3    H238399   0.413   2.952   0.848  0.1062  0.5971  2.2396
 5614TIP3   OH238400   6.291   6.444   3.245 -0.0594 -0.3641 -0.0635
 5614TIP3    H138401   6.213   6.467   3.194 -0.6103 -1.3008  0.3140
 5614TIP3    H238402   6.286   6.348   3.252  1.4372 -0.4954 -0.5167
 5615TIP3   OH238403   3.042   6.110   2.386 -0.6187  0.2943 -0.2127
 5615TIP3    H138404   3.020   6.063   2.467 -0.6249  1.2694  0.3773
 5615TIP3    H238405   3.078   6.194   2.417  3.1052 -0.7860 -1.0688
 5616TIP3   OH238406   6.305   2.434   7.975  0.3574  0.5910  0.0337
 5616TIP3    H138407   6.323   2.442   8.069  0.0859 -0.2967  0.1717
 5616TIP3    H238408   6.230   2.375   7.970 -0.2323  1.3906 -0.7033
 5617TIP3   OH238409   0.791   0.970   0.467 -0.0046 -0.2063  0.3018
 5617TIP3    H138410   0.716   0.973   0.409 -1.9495 -3.0475  2.4101
 5617TIP3    H238411   0.857   0.919   0.420  0.1895  1.2104 -1.0348
 5618TIP3   OH238412   1.121   6.729   0.762  0.1747 -0.9204 -0.2839
 5618TIP3    H138413   1.035   6.766   0.739 -0.0253 -1.5740 -0.6032
 5618TIP3    H238414   1.104   6.672   0.837  0.3741 -0.8609 -0.1935
 5619TIP3   OH238415   4.946   4.045   7.570 -0.6751  0.2606  0.0692
 5619TIP3    H138416   4.980   4.099   7.642 -1.0796  1.7210 -0.7893
 5619TIP3    H238417   5.006   4.061   7.497 -0.5301 -0.8515 -0.0694
 5620TIP3   OH238418   4.818   4.100   7.245 -0.1094 -0.1615 -0.9721
 5620TIP3    H138419   4.763   4.168   7.205 -0.7208 -0.4708 -0.6577
 5620TIP3    H238420   4.759   4.052   7.303  0.4995 -0.4841 -0.6175
 5621TIP3   OH238421   3.927   2.231   0.566  0.3158 -0.1929 -0.2737
 5621TIP3    H138422   3.896   2.214   0.655  2.4462 -1.8762  0.2456
 5621TIP3    H238423   3.979   2.311   0.573  0.3353 -0.2277 -0.0142
 5622TIP3   OH238424   1.604   0.251   1.415 -0.9957  0.5353  0.2572
 5622TIP3    H138425   1.610   0.209   1.329  0.4076  0.7863  0.2060
 5622TIP3    H238426   1.548   0.193   1.467 -1.1167 -0.0821 -0.5503
 5623TIP3   OH238427   2.869   4.051   8.647 -0.1269  0.3768 -0.2747
 5623TIP3    H138428   2.934   4.054   8.577 -1.1707 -3.1037 -1.5875
 5623TIP3    H238429   2.785   4.056   8.601 -0.8380 -2.2385  0.6094
 5624TIP3   OH238430   1.376   5.638   7.191 -0.1122 -0.4926  0.2563
 5624TIP3    H138431   1.386   5.683   7.275 -0.7140 -1.9184  1.1300
 5624TIP3    H238432   1.373   5.709   7.126  1.1192  0.5979  1.3395
 5625TIP3   OH238433   4.623   0.982   1.825 -0.0215 -1.0339 -0.4952
 5625TIP3    H138434   4.552   0.927   1.857 -0.2897 -0.4053  0.0263
 5625TIP3    H238435   4.616   0.978   1.729 -1.0087 -0.6710 -0.4498
 5626TIP3   OH238436   6.238   1.961   0.204  0.4325 -0.6195  0.3741
 5626TIP3    H138437   6.256   2.032   0.265 -1.5263  0.4762 -0.2124
 5626TIP3    H238438   6.288   1.887   0.237  0.6362  0.3644  2.4173
 5627TIP3   OH238439   4.186   1.316   1.965 -0.2746  0.3058  0.1491
 5627TIP3    H138440   4.141   1.398   1.985 -0.0919  0.0851  1.5693
 5627TIP3    H238441   4.274   1.327   2.001  0.1141 -0.0898 -0.6612
 5628TIP3   OH238442   1.221   2.594   7.133  1.1360  0.0092  0.1198
 5628TIP3    H138443   1.174   2.515   7.107  0.8881 -1.0778  3.3687
 5628TIP3    H238444   1.312   2.567   7.139  1.0601 -0.0338  1.1920
 5629TIP3   OH238445   2.035   5.621   1.822  0.7272  0.2851 -0.0156
 5629TIP3    H138446   2.023   5.657   1.910 -0.1733  0.1852 -0.0866
 5629TIP3    H238447   2.072   5.693   1.771  1.5554  0.2453  0.5174
 5630TIP3   OH238448   6.705   2.116   8.642  0.2783  0.3702  0.3364
 5630TIP3    H138449   6.652   2.156   8.710 -1.1171  1.2087 -1.1919
 5630TIP3    H238450   6.716   2.184   8.576  1.4860 -0.4601 -0.3645
 5631TIP3   OH238451   2.344   1.547   6.721  0.2568 -0.0974  0.7621
 5631TIP3    H138452   2.403   1.560   6.647  2.1833  2.6548  2.6053
 5631TIP3    H238453   2.387   1.481   6.775 -0.0552 -0.5063  0.5194
 5632TIP3   OH238454   1.039   4.863   0.534  0.1771 -0.3163 -0.1838
 5632TIP3    H138455   1.103   4.911   0.481 -0.7903  0.2654 -0.8522
 5632TIP3    H238456   1.061   4.771   0.520  0.1867 -0.1653 -1.3083
 5633TIP3   OH238457   0.824   1.419   1.850 -0.0417 -0.1767  0.3739
 5633TIP3    H138458   0.770   1.481   1.801 -0.0766  0.3887  1.1007
 5633TIP3    H238459   0.762   1.376   1.910  0.2051  0.0395  0.7901
 5634TIP3   OH238460   3.728   5.834   8.443 -0.2377  0.6541 -0.3692
 5634TIP3    H138461   3.737   5.912   8.387 -0.3053  0.6761 -0.3491
 5634TIP3    H238462   3.761   5.762   8.389 -0.5338  0.6362 -0.5300
 5635TIP3   OH238463   1.451   4.718   1.569 -0.4336  0.2799  0.5211
 5635TIP3    H138464   1.357   4.736   1.562  0.0101  2.3524 -1.0634
 5635TIP3    H238465   1.456   4.627   1.598 -2.9228 -0.4982 -1.1606
 5636TIP3   OH238466   4.307   3.362   0.394 -0.6577  0.2343  0.0239
 5636TIP3    H138467   4.262   3.353   0.310 -0.4888 -0.7119  0.0328
 5636TIP3    H238468   4.355   3.445   0.387 -2.0947  1.0955 -0.1247
 5637TIP3   OH238469   0.886   1.844   1.358 -0.4390 -0.3430  0.0860
 5637TIP3    H138470   0.885   1.918   1.297 -0.4545 -1.0248 -0.7673
 5637TIP3    H238471   0.916   1.770   1.305 -0.9813 -1.0697  0.7669
 5638TIP3   OH238472   5.450   0.300   0.661  0.2208  0.1203  0.9329
 5638TIP3    H138473   5.495   0.375   0.623 -2.4649  1.5102  0.2612
 5638TIP3    H238474   5.470   0.305   0.754 -1.0036  2.5666  1.1343
 5639TIP3   OH238475   4.144   5.782   7.695 -0.4556  0.4001  1.0075
 5639TIP3    H138476   4.206   5.710   7.684 -2.1355 -0.7726 -1.8944
 5639TIP3    H238477   4.164   5.843   7.623 -2.0904  0.3927  0.5058
 5640TIP3   OH238478   5.662   0.753   2.821  0.0914 -0.3635 -0.1455
 5640TIP3    H138479   5.645   0.688   2.753  0.9569  0.3853 -1.0969
 5640TIP3    H238480   5.731   0.714   2.875 -0.0768 -0.6420 -0.1315
 5641TIP3   OH238481   6.795   3.182   8.219 -0.1156  0.5308 -0.3904
 5641TIP3    H138482   6.709   3.223   8.206 -0.6233  0.2275  1.6780
 5641TIP3    H238483   6.803   3.120   8.147 -1.1205  1.3720 -1.2623
 5642TIP3   OH238484   2.905   4.331   7.713 -0.3654  0.5772  0.2499
 5642TIP3    H138485   2.900   4.386   7.791  1.4290  0.5986  0.3904
 5642TIP3    H238486   2.851   4.376   7.648 -3.5056 -0.4103  1.9724
 5643TIP3   OH238487   2.720   1.776   8.555 -0.8069  0.3678  0.1554
 5643TIP3    H138488   2.739   1.741   8.642  1.4118  1.0236 -0.0009
 5643TIP3    H238489   2.746   1.868   8.560 -0.2285  0.3108 -1.3057
 5644TIP3   OH238490   5.484   3.886   2.059  0.4644  0.1070 -0.3749
 5644TIP3    H138491   5.487   3.963   2.003  1.0406  0.8980  0.7199
 5644TIP3    H238492   5.443   3.818   2.004 -2.7793  1.9312 -0.4928
 5645TIP3   OH238493   6.538   5.553   1.705  0.1371  0.0551 -0.0214
 5645TIP3    H138494   6.592   5.562   1.784  0.8912  0.5991 -0.5811
 5645TIP3    H238495   6.550   5.462   1.679  1.8822  0.4797 -0.8697
 5646TIP3   OH238496   3.093   0.658   1.704  0.4604 -0.2530  0.6720
 5646TIP3    H138497   3.069   0.723   1.638 -0.3611 -0.5678  0.6480
 5646TIP3    H238498   3.189   0.654   1.701  0.4345 -2.2593 -2.4735
 5647TIP3   OH238499   1.816   0.011   0.433  0.1831  0.3224 -0.2182
 5647TIP3    H138500   1.740   0.063   0.459 -0.0532  0.5901 -1.3880
 5647TIP3    H238501   1.877   0.074   0.395  1.6756  0.3494  2.0264
 5648TIP3   OH238502   4.877   3.146   8.240  0.5124  0.2475 -0.1589
 5648TIP3    H138503   4.837   3.156   8.326  1.9800 -2.2045  0.9182
 5648TIP3    H238504   4.822   3.198   8.182 -1.1769  1.0888  2.0467
 5649TIP3   OH238505   3.783   5.248   0.211 -0.1953 -0.0456  0.2065
 5649TIP3    H138506   3.760   5.272   0.301 -0.4816 -1.9603  0.6818
 5649TIP3    H238507   3.731   5.308   0.157 -3.0412 -1.3161  1.3075
 5650TIP3   OH238508   1.266   4.795   7.919 -0.2011 -0.6286 -0.1080
 5650TIP3    H138509   1.235   4.869   7.971  1.0693  0.1597 -0.4054
 5650TIP3    H238510   1.212   4.797   7.840  0.8052  0.9653 -0.8035
 5651TIP3   OH238511   5.678   5.289   1.842  0.0843  0.0675  0.2012
 5651TIP3    H138512   5.614   5.250   1.901 -0.4956  1.0170  0.2282
 5651TIP3    H238513   5.626   5.333   1.775  0.6242  2.2424  1.1196
 5652TIP3   OH238514   3.901   3.180   7.388 -0.0658  0.0136 -0.0690
 5652TIP3    H138515   3.814   3.190   7.349 -0.4708 -0.2090  0.7418
 5652TIP3    H238516   3.942   3.110   7.339 -0.2997  0.2039 -0.5431
 5653TIP3   OH238517   3.189   1.427   7.256 -0.3168 -0.3187 -0.4602
 5653TIP3    H138518   3.207   1.335   7.241  1.3514 -0.3102  1.1293
 5653TIP3    H238519   3.119   1.449   7.194 -0.1446 -2.4081 -1.4568
 5654TIP3   OH238520   0.280   2.026   8.704  0.0271 -0.2733  0.1217
 5654TIP3    H138521   0.315   2.081   8.635  1.3572 -0.1125  0.8905
 5654TIP3    H238522   0.356   2.001   8.757 -0.6896 -1.9210  0.4620
 5655TIP3   OH238523   4.518   4.622   2.257 -0.1242 -0.3570  0.7449
 5655TIP3    H138524   4.449   4.685   2.280 -0.2826  0.0748 -0.8252
 5655TIP3    H238525   4.507   4.552   2.321 -2.3504 -0.5151  0.3004
 5656TIP3   OH238526   1.785   2.329   1.359  0.1485 -0.0560  0.3754
 5656TIP3    H138527   1.843   2.390   1.406  0.2219  0.3199 -0.1927
 5656TIP3    H238528   1.697   2.363   1.376  0.1994  0.3109 -0.0756
 5657TIP3   OH238529   4.005   4.332   0.487  0.0964  0.0711  0.0446
 5657TIP3    H138530   3.979   4.249   0.527  1.6754 -0.3822  0.1713
 5657TIP3    H238531   4.081   4.311   0.434 -0.5644  1.1067 -1.4013
 5658TIP3   OH238532   0.317   0.647   8.059 -0.3230  0.3079 -0.2761
 5658TIP3    H138533   0.383   0.693   8.110  0.8015  0.3560 -1.7026
 5658TIP3    H238534   0.361   0.624   7.978 -1.5466 -1.2706 -0.5422
 5659TIP3   OH238535   3.461   0.922   2.695 -0.0933  0.2391 -0.0021
 5659TIP3    H138536   3.397   0.990   2.716 -1.0114 -0.9886  1.3932
 5659TIP3    H238537   3.507   0.906   2.777  0.2429 -0.6841 -0.3581
 5660TIP3   OH238538   1.596   2.334   7.604 -0.1687 -0.2906  0.0027
 5660TIP3    H138539   1.531   2.275   7.643 -0.2114 -1.5243 -1.8150
 5660TIP3    H238540   1.680   2.300   7.636 -0.3203  0.4075  1.1851
 5661TIP3   OH238541   5.215   3.803   2.155 -0.3988  0.2321  0.5031
 5661TIP3    H138542   5.235   3.710   2.144 -0.1357  0.4793 -1.4388
 5661TIP3    H238543   5.130   3.804   2.198  1.0664 -0.8460  3.6735
 5662TIP3   OH238544   3.829   1.673   0.633 -0.8348  0.0413  0.3093
 5662TIP3    H138545   3.736   1.684   0.616 -0.8733  2.6204  1.6879
 5662TIP3    H238546   3.842   1.707   0.722  1.5496  0.6797 -0.1959
 5663TIP3   OH238547   6.606   2.930   3.028 -0.1140  0.0882 -0.2196
 5663TIP3    H138548   6.644   3.016   3.011  0.2037  0.0092  0.0771
 5663TIP3    H238549   6.651   2.899   3.106  0.1642 -0.5775 -0.6306
 5664TIP3   OH238550   4.326   5.408   2.241 -0.1728  0.0502  0.1359
 5664TIP3    H138551   4.329   5.482   2.181 -1.7587 -0.9309 -1.2456
 5664TIP3    H238552   4.262   5.432   2.307 -1.4385 -0.4104 -0.8674
 5665TIP3   OH238553   6.235   5.497   0.130  0.1668 -0.4577 -0.3964
 5665TIP3    H138554   6.317   5.508   0.178  0.1387 -0.9553 -0.2232
 5665TIP3    H238555   6.261   5.496   0.038  0.2722  0.0702 -0.3759
 5666TIP3   OH238556   3.192   4.642   0.394  0.0228  0.0217  0.3356
 5666TIP3    H138557   3.198   4.695   0.473 -1.9980  1.0658 -0.1538
 5666TIP3    H238558   3.245   4.690   0.329  1.0753 -0.4526  0.8142
 5667TIP3   OH238559   3.451   1.149   7.460  0.7237  0.2167  0.1217
 5667TIP3    H138560   3.364   1.123   7.489  1.0241  0.0501  0.9021
 5667TIP3    H238561   3.465   1.235   7.501  1.4548 -0.3607  1.1439
 5668TIP3   OH238562   6.427   6.074   2.395 -0.8346 -0.5957 -0.3300
 5668TIP3    H138563   6.448   6.129   2.319 -3.0655 -0.0546 -0.6464
 5668TIP3    H238564   6.511   6.059   2.438  0.2972  0.3105 -2.0811
 5669TIP3   OH238565   6.680   4.510   2.402 -0.3497  0.1526  0.0332
 5669TIP3    H138566   6.721   4.495   2.487 -0.3455  1.6627  0.3258
 5669TIP3    H238567   6.720   4.591   2.370 -1.9519  0.8079 -0.3975
 5670TIP3   OH238568   5.635   1.493   0.473  0.2470 -0.0423 -0.0914
 5670TIP3    H138569   5.639   1.405   0.436  1.6624  0.0245 -0.1384
 5670TIP3    H238570   5.665   1.482   0.564 -3.4325 -0.2604  1.2842
 5671TIP3   OH238571   4.378   4.178   1.974  1.2515  0.0453 -1.0243
 5671TIP3    H138572   4.376   4.131   2.058 -2.6940  0.3047 -0.7627
 5671TIP3    H238573   4.358   4.111   1.909  1.3780  0.3476 -1.3744
 5672TIP3   OH238574   2.439   5.708   0.024 -0.9232  0.4594 -0.1628
 5672TIP3    H138575   2.392   5.769   0.080 -0.7911  0.7925 -0.4097
 5672TIP3    H238576   2.486   5.764  -0.038 -0.2382  0.1313  0.0504
 5673TIP3   OH238577   1.945   1.487   6.996  0.6533  0.0025 -0.0992
 5673TIP3    H138578   2.034   1.461   7.016  1.0296  0.3093 -1.2641
 5673TIP3    H238579   1.903   1.407   6.965  1.2842  0.3451 -1.9576
 5674TIP3   OH238580   3.001   2.446   1.836 -0.4357 -0.4584  0.2057
 5674TIP3    H138581   2.971   2.445   1.745 -1.0774 -1.6962  0.4244
 5674TIP3    H238582   3.006   2.354   1.861  3.2503 -0.4003  0.2890
 5675TIP3   OH238583   1.330   3.425   0.732 -0.5946  0.0571  0.1083
 5675TIP3    H138584   1.297   3.387   0.814 -1.0496 -0.1835 -0.1867
 5675TIP3    H238585   1.386   3.356   0.695 -2.5877 -0.9419 -1.1706
 5676TIP3   OH238586   5.037   1.110   8.544 -0.0682  0.3897  0.5271
 5676TIP3    H138587   5.028   1.205   8.536 -3.3345  0.0665 -1.0409
 5676TIP3    H238588   4.995   1.090   8.628 -0.6932  0.2433  0.1888
 5677TIP3   OH238589   0.839   2.511   1.733 -0.2027 -0.3237  0.5964
 5677TIP3    H138590   0.928   2.518   1.767  0.1865  3.3104 -0.6686
 5677TIP3    H238591   0.851   2.497   1.639 -0.9019  0.7288  0.3360
 5678TIP3   OH238592   3.008   3.249   2.597 -0.4269 -0.4064  0.1537
 5678TIP3    H138593   3.026   3.184   2.664 -2.2649 -1.5474 -0.3676
 5678TIP3    H238594   3.091   3.260   2.551  0.2501 -1.4038  1.0846
 5679TIP3   OH238595   2.232   0.057   0.359 -0.1305 -0.4892  0.1893
 5679TIP3    H138596   2.312   0.008   0.343  1.2311  1.7087 -0.2247
 5679TIP3    H238597   2.263   0.145   0.382 -2.4420  0.4941 -0.2468
 5680TIP3   OH238598   4.168   2.142   8.268  0.2225  0.2909  0.5190
 5680TIP3    H138599   4.139   2.065   8.318 -0.7841  0.9136  0.9302
 5680TIP3    H238600   4.093   2.166   8.214 -0.2287  2.1505  1.8557
 5681TIP3   OH238601   5.342   5.092   7.001 -0.0515 -0.0722  1.0085
 5681TIP3    H138602   5.386   5.130   6.925 -1.9455  1.3537  0.5367
 5681TIP3    H238603   5.312   5.168   7.052 -1.0336 -0.9703  1.8231
 5682TIP3   OH238604   2.639   0.147   0.425 -0.2655 -0.8214 -0.5650
 5682TIP3    H138605   2.598   0.154   0.339  0.4552  1.3020 -0.8215
 5682TIP3    H238606   2.729   0.120   0.406 -0.1299 -0.4351 -0.4827
 5683TIP3   OH238607   0.847   3.971   7.022  0.4426  0.0400  0.4571
 5683TIP3    H138608   0.829   4.063   7.004  0.2555 -0.1480 -0.3654
 5683TIP3    H238609   0.928   3.952   6.974 -1.1775 -1.0069 -2.0438
 5684TIP3   OH238610   4.653   2.725   0.928  0.4141 -0.1580  0.5755
 5684TIP3    H138611   4.562   2.741   0.901  0.0430  1.8293  2.7269
 5684TIP3    H238612   4.690   2.672   0.857 -2.0816 -0.0515 -0.9165
 5685TIP3   OH238613   1.582   1.270   1.004  0.3818 -0.4675  0.4019
 5685TIP3    H138614   1.583   1.364   0.986  0.2851 -0.8651 -1.8622
 5685TIP3    H238615   1.491   1.244   0.995  0.3157 -0.7059  1.5938
 5686TIP3   OH238616   4.644   0.617   0.082 -0.1294  0.2460  1.3221
 5686TIP3    H138617   4.632   0.698   0.033 -1.7089 -1.1775 -0.8078
 5686TIP3    H238618   4.732   0.588   0.059 -0.1849  0.5046  0.7654
 5687TIP3   OH238619   2.687   3.684   2.046 -0.6209  0.1650  0.3205
 5687TIP3    H138620   2.606   3.637   2.028 -0.5108  0.3270 -0.6903
 5687TIP3    H238621   2.705   3.732   1.965  0.6675 -0.1501  0.3956
 5688TIP3   OH238622   4.753   0.027   2.815 -0.0118  0.3342  0.3660
 5688TIP3    H138623   4.819   0.031   2.746  0.2779 -2.0444  0.4264
 5688TIP3    H238624   4.799  -0.006   2.892 -1.0837 -0.6607  0.6184
 5689TIP3   OH238625   0.182   5.851   7.707 -0.1815 -0.4369 -0.2283
 5689TIP3    H138626   0.129   5.795   7.649  0.2772 -0.5922 -0.5102
 5689TIP3    H238627   0.177   5.808   7.792  0.5575 -1.2014 -0.5462
 5690TIP3   OH238628   2.883   1.185   1.587 -0.0191  0.5126  0.2599
 5690TIP3    H138629   2.846   1.110   1.634  0.4889 -0.1189 -0.3303
 5690TIP3    H238630   2.904   1.248   1.656  1.4509 -0.7115  0.9937
 5691TIP3   OH238631   3.930   4.315   2.811 -0.0692 -0.5076 -0.6684
 5691TIP3    H138632   3.949   4.349   2.723 -0.2308  1.6114  0.0520
 5691TIP3    H238633   4.015   4.305   2.852  0.0634 -2.2854 -1.2821
 5692TIP3   OH238634   4.110   5.170   7.223 -0.2541 -0.1475 -0.3506
 5692TIP3    H138635   4.048   5.102   7.196 -0.1467 -0.4473  0.1310
 5692TIP3    H238636   4.107   5.235   7.153 -0.4447 -0.5957 -0.7623
 5693TIP3   OH238637   0.706   0.574   0.288  0.5261  0.2804  0.0530
 5693TIP3    H138638   0.757   0.504   0.328  0.9092 -0.0726 -0.9948
 5693TIP3    H238639   0.721   0.563   0.194 -0.1890  1.1766 -0.1821
 5694TIP3   OH238640   1.274   0.802   1.556 -0.2023  0.0184  0.3257
 5694TIP3    H138641   1.323   0.766   1.630  0.0280  2.6624  1.5771
 5694TIP3    H238642   1.184   0.772   1.570  0.6071 -3.7966 -1.2881
 5695TIP3   OH238643   3.162   3.573   8.000 -0.0783  0.6836  0.0086
 5695TIP3    H138644   3.250   3.541   8.018  0.4377  1.7936 -0.4405
 5695TIP3    H238645   3.163   3.595   7.907 -0.1710  2.6133  0.4183
 5696TIP3   OH238646   3.373   3.976   2.538  0.1010  0.2167 -0.2510
 5696TIP3    H138647   3.345   4.026   2.615  1.3986 -1.6468  1.5573
 5696TIP3    H238648   3.297   3.923   2.514 -0.8177  1.8927 -1.3134
 5697TIP3   OH238649   0.181   2.155   7.744 -0.0780 -0.2301  0.0423
 5697TIP3    H138650   0.090   2.158   7.773 -0.3022 -2.5317 -0.3164
 5697TIP3    H238651   0.179   2.182   7.652 -0.6315 -1.7094 -0.3990
 5698TIP3   OH238652   3.972   2.140   2.479 -0.0406 -0.2627  0.4796
 5698TIP3    H138653   4.050   2.174   2.435 -0.6452  1.2387  0.5139
 5698TIP3    H238654   3.988   2.157   2.572  0.3173 -1.5118  0.6609
 5699TIP3   OH238655   1.066   2.288   1.377  0.3529  0.0348  0.6357
 5699TIP3    H138656   1.021   2.208   1.403 -0.2652  0.0427 -0.3596
 5699TIP3    H238657   1.159   2.263   1.373  0.2633 -0.3937  1.1856
 5700TIP3   OH238658   5.420   3.391   0.353  0.6869  0.0504  0.1932
 5700TIP3    H138659   5.409   3.352   0.440  2.0677  0.0972  0.4161
 5700TIP3    H238660   5.336   3.431   0.333 -0.7075 -2.7378  0.0894
 5701TIP3   OH238661   4.679   3.396   8.341  0.1029  0.1031  0.1283
 5701TIP3    H138662   4.703   3.437   8.258 -3.8658  0.5608 -0.9618
 5701TIP3    H238663   4.612   3.332   8.319 -0.4449 -0.4259  2.9131
 5702TIP3   OH238664   2.877   3.065   8.414  1.2699 -0.1845  0.1109
 5702TIP3    H138665   2.950   3.071   8.475  1.6868 -1.1627 -0.2662
 5702TIP3    H238666   2.913   3.097   8.331  1.1893 -0.3721  0.0019
 5703TIP3   OH238667   1.424   3.004   8.081  0.4112 -0.0913  0.0715
 5703TIP3    H138668   1.336   3.033   8.104  0.9289 -0.2025  2.3645
 5703TIP3    H238669   1.422   2.994   7.985 -2.0663 -0.2130  0.0963
 5704TIP3   OH238670   6.128   3.343   0.759  0.2267  0.6188  0.0396
 5704TIP3    H138671   6.139   3.438   0.769 -1.2023  0.7793  0.3223
 5704TIP3    H238672   6.206   3.315   0.711  0.4134  2.0235 -0.5421
 5705TIP3   OH238673   4.716   4.576   8.169  0.1287 -0.1341  0.5357
 5705TIP3    H138674   4.706   4.493   8.121  0.9025 -0.9816  1.8003
 5705TIP3    H238675   4.801   4.570   8.212  0.0451  1.1788  0.9437
 5706TIP3   OH238676   3.508   2.850   7.718  0.1011 -0.6683 -0.4374
 5706TIP3    H138677   3.456   2.778   7.682 -0.5049  0.2319 -1.3897
 5706TIP3    H238678   3.530   2.904   7.643  2.1312 -0.8152 -0.0099
 5707TIP3   OH238679   2.883   6.562   7.021  0.2508  0.2957  0.0420
 5707TIP3    H138680   2.866   6.614   7.099  0.5925 -0.7701  0.8409
 5707TIP3    H238681   2.944   6.616   6.969  0.3736  0.8161  0.7137
 5708TIP3   OH238682   3.293   5.653   1.591  0.1859  0.0760 -0.4301
 5708TIP3    H138683   3.212   5.698   1.617  0.6957  1.1878 -0.6931
 5708TIP3    H238684   3.359   5.722   1.589  1.7502 -1.1817  2.2038
 5709TIP3   OH238685   3.413   6.496   7.902  0.5239  0.1045 -0.0654
 5709TIP3    H138686   3.468   6.564   7.864  0.6045  0.1848  0.1899
 5709TIP3    H238687   3.329   6.540   7.919 -0.2078 -0.4307 -2.0057
 5710TIP3   OH238688   3.801   4.704   0.586 -0.4221  0.2808 -0.2855
 5710TIP3    H138689   3.712   4.686   0.556 -0.3282  0.6863 -0.8321
 5710TIP3    H238690   3.821   4.791   0.551  1.1608 -0.8632 -2.4815
 5711TIP3   OH238691   6.762   6.135   7.020  0.4752  0.5331 -0.4956
 5711TIP3    H138692   6.710   6.132   7.100  0.5002  2.4523 -0.3514
 5711TIP3    H238693   6.847   6.099   7.045  0.1413  0.1043  0.0397
 5712TIP3   OH238694   6.379   4.713   8.700 -0.2053  0.8047 -0.5106
 5712TIP3    H138695   6.313   4.782   8.708 -0.8471  0.1063  0.5393
 5712TIP3    H238696   6.365   4.658   8.777 -0.0757 -0.8147 -1.5962
 5713TIP3   OH238697   6.187   4.785   6.694  0.5742  0.1392  0.1898
 5713TIP3    H138698   6.261   4.778   6.755  1.5557 -1.5582 -1.1286
 5713TIP3    H238699   6.198   4.711   6.634 -1.9064  0.1588 -0.3843
 5714TIP3   OH238700   0.697   5.816   2.183  0.3206 -0.2819 -0.4676
 5714TIP3    H138701   0.780   5.854   2.214  0.2998  0.7805 -1.6383
 5714TIP3    H238702   0.698   5.726   2.217  1.8663 -0.2383 -0.3055
 5715TIP3   OH238703   4.524   4.963   1.812 -0.2222  0.2521 -0.5612
 5715TIP3    H138704   4.538   4.924   1.899 -2.3057  0.6884  0.0201
 5715TIP3    H238705   4.583   4.914   1.755 -0.6133 -1.7811  0.6630
 5716TIP3   OH238706   2.350   5.515   7.865  0.3890  0.0679 -0.0413
 5716TIP3    H138707   2.267   5.507   7.913 -0.1834  0.4169 -0.9407
 5716TIP3    H238708   2.346   5.446   7.800  0.0355  1.1316 -1.1782
 5717TIP3   OH238709   1.469   5.274   2.264 -0.4909  0.3475 -0.6520
 5717TIP3    H138710   1.440   5.355   2.307  1.1239  1.1367 -0.9668
 5717TIP3    H238711   1.394   5.216   2.270 -1.3750  1.5314  0.4523
 5718TIP3   OH238712   1.211   5.910   0.144  0.0176 -0.0039 -0.0415
 5718TIP3    H138713   1.199   5.999   0.110  1.0536 -0.1750 -0.9206
 5718TIP3    H238714   1.289   5.917   0.200 -0.6435 -0.1050  0.9147
 5719TIP3   OH238715   0.227   3.707   0.404  0.2503  0.7358 -0.1305
 5719TIP3    H138716   0.163   3.747   0.463 -0.0310 -0.5781  0.5003
 5719TIP3    H238717   0.306   3.698   0.457  0.1606  0.0482 -0.0943
 5720TIP3   OH238718   1.220   5.062   1.997  0.8329 -0.0311  0.2937
 5720TIP3    H138719   1.309   5.052   1.963  0.4419 -2.1899 -0.2456
 5720TIP3    H238720   1.231   5.068   2.092  1.5230 -1.2876  0.3161
 5721TIP3   OH238721   6.279   1.367   0.389 -0.0661 -0.2962 -0.1096
 5721TIP3    H138722   6.198   1.353   0.339 -0.8831 -0.4971  1.2216
 5721TIP3    H238723   6.259   1.334   0.476  1.7023 -0.9873  0.0650
 5722TIP3   OH238724   4.421   4.840   8.334  0.2941  0.5435 -0.1071
 5722TIP3    H138725   4.487   4.832   8.265  0.1639 -0.0919 -0.1683
 5722TIP3    H238726   4.383   4.927   8.322 -0.9052 -0.1740 -1.9030
 5723TIP3   OH238727   3.022   4.117   8.346  0.4035  0.3777  0.3639
 5723TIP3    H138728   2.930   4.127   8.369  0.6209  0.7477  1.1088
 5723TIP3    H238729   3.025   4.039   8.291 -0.1315 -0.6608  1.7409
 5724TIP3   OH238730   6.521   0.467   7.657 -0.0064 -0.0525  0.5418
 5724TIP3    H138731   6.479   0.492   7.575 -0.3248  2.5314  1.4120
 5724TIP3    H238732   6.612   0.496   7.648  0.0354 -0.0379  0.9788
 5725TIP3   OH238733   0.532   2.774   0.635  0.0037  0.4207 -0.4986
 5725TIP3    H138734   0.441   2.792   0.612  0.2350  0.0718 -1.7756
 5725TIP3    H238735   0.531   2.683   0.665 -0.4262  1.1021  1.7261
 5726TIP3   OH238736   2.632   1.357   0.400  0.1651  0.0397  0.1111
 5726TIP3    H138737   2.706   1.377   0.457 -0.0311  0.8252  0.1041
 5726TIP3    H238738   2.555   1.389   0.448 -0.0187  0.5582 -0.5096
 5727TIP3   OH238739   2.911   2.698   8.353  0.2873 -0.1750 -0.4513
 5727TIP3    H138740   2.895   2.662   8.440 -0.8840  1.2481 -0.0403
 5727TIP3    H238741   2.846   2.656   8.296 -0.0176  0.0953 -0.3035
 5728TIP3   OH238742   1.127   0.328   7.496 -0.9888  0.2441  0.5412
 5728TIP3    H138743   1.168   0.322   7.410 -2.1102  0.1194 -0.0044
 5728TIP3    H238744   1.137   0.241   7.534 -1.2123  0.0657  0.1926
 5729TIP3   OH238745   2.513   3.065   2.428  0.4042  0.3654  0.0957
 5729TIP3    H138746   2.438   3.102   2.381  0.9376  0.5862 -0.5951
 5729TIP3    H238747   2.537   2.987   2.377  0.9948  0.6105 -0.0111
 5730TIP3   OH238748   0.564   4.839   1.554 -0.3749 -0.2122  0.5700
 5730TIP3    H138749   0.510   4.798   1.486  1.7619 -1.9272 -0.2186
 5730TIP3    H238750   0.556   4.781   1.630 -0.6761  0.2679  0.9134
 5731TIP3   OH238751   1.951   6.462   0.629 -0.2367 -0.1170  0.4679
 5731TIP3    H138752   1.931   6.417   0.712 -2.9982  0.5723  0.2893
 5731TIP3    H238753   1.865   6.476   0.589  0.7212  2.8753 -0.7697
 5732TIP3   OH238754   2.850   3.353   2.837 -0.0955  0.1543  0.4454
 5732TIP3    H138755   2.839   3.361   2.742 -1.6931 -0.3115  0.5586
 5732TIP3    H238756   2.944   3.348   2.849  0.1032 -2.7497 -1.3921
 5733TIP3   OH238757   3.636   5.396   2.581 -0.1610  0.3414 -0.5656
 5733TIP3    H138758   3.593   5.460   2.524  0.0267 -1.0905 -2.3917
 5733TIP3    H238759   3.697   5.349   2.524  2.4930  1.0102  1.5364
 5734TIP3   OH238760   0.629   4.223   2.278  0.1044 -0.0788  0.3471
 5734TIP3    H138761   0.667   4.263   2.356 -0.7261 -1.1660  1.3518
 5734TIP3    H238762   0.598   4.137   2.308  1.7360 -1.4730 -1.6766
 5735TIP3   OH238763   6.034   3.578   8.688  0.1524 -0.4501 -0.4992
 5735TIP3    H138764   5.965   3.637   8.657  0.4488 -1.1661 -2.6972
 5735TIP3    H238765   6.110   3.634   8.701 -0.2256  0.0083 -0.2462
 5736TIP3   OH238766   6.726   6.593   2.288 -0.1868  0.2507  0.5598
 5736TIP3    H138767   6.811   6.565   2.321 -0.6597  0.9096  2.5171
 5736TIP3    H238768   6.743   6.623   2.199  0.9316 -2.8892 -0.4009
 5737TIP3   OH238769   5.720   1.142   1.481  0.2355  0.0646  0.1191
 5737TIP3    H138770   5.654   1.129   1.549  1.6105  0.5498  1.6240
 5737TIP3    H238771   5.674   1.188   1.411 -0.9117  0.8517  1.3428
 5738TIP3   OH238772   5.051   4.789   0.874 -0.4407  0.0093  0.2944
 5738TIP3    H138773   5.020   4.840   0.949 -0.2212 -1.8888  1.7685
 5738TIP3    H238774   5.141   4.818   0.860 -0.7511  0.9544  0.2280
 5739TIP3   OH238775   2.192   1.152   0.176 -0.3612 -0.3549  0.3212
 5739TIP3    H138776   2.280   1.156   0.214  1.6197 -0.2423 -3.7561
 5739TIP3    H238777   2.181   1.061   0.149 -0.0963  0.2269 -1.9390
 5740TIP3   OH238778   6.825   4.648   1.356 -0.2307 -0.1978 -0.1436
 5740TIP3    H138779   6.855   4.677   1.442 -2.6684 -1.6249  1.3206
 5740TIP3    H238780   6.871   4.704   1.294  2.4550  0.1576  1.9968
 5741TIP3   OH238781   1.370   3.059   7.359  0.6326  0.4189  0.0775
 5741TIP3    H138782   1.280   3.046   7.330  0.4783 -0.8493  1.0284
 5741TIP3    H238783   1.424   3.029   7.286  0.2800  0.2143 -0.0985
 5742TIP3   OH238784   4.457   3.078   0.143  0.7956  0.2809 -0.3113
 5742TIP3    H138785   4.399   3.042   0.076 -1.7168 -1.3040  2.4233
 5742TIP3    H238786   4.531   3.017   0.146  0.5599 -0.0529 -1.1374
 5743TIP3   OH238787   0.779   4.596   2.238  0.5363 -0.5478  0.1132
 5743TIP3    H138788   0.851   4.578   2.178 -0.5250 -1.0264 -1.0458
 5743TIP3    H238789   0.822   4.611   2.323  1.8610 -3.4250  0.0597
 5744TIP3   OH238790   4.323   4.802   1.510  0.0536  1.1145  0.2788
 5744TIP3    H138791   4.272   4.743   1.565 -0.4560  1.3127  0.0171
 5744TIP3    H238792   4.352   4.748   1.437  0.7861  0.8334  0.7613
 5745TIP3   OH238793   3.366   3.416   8.176 -0.2562 -0.5970 -0.1075
 5745TIP3    H138794   3.444   3.380   8.133 -0.6039 -1.0753 -0.3501
 5745TIP3    H238795   3.319   3.339   8.208  0.0511 -0.2554  1.2648
 5746TIP3   OH238796   4.270   3.094   6.933 -0.1926  0.8721  0.7114
 5746TIP3    H138797   4.200   3.122   6.874 -1.2286  1.2590  2.0699
 5746TIP3    H238798   4.350   3.131   6.896 -0.6779  0.4337 -0.8678
 5747TIP3   OH238799   2.103   0.727   0.697 -0.1192  0.3808  0.0973
 5747TIP3    H138800   2.098   0.797   0.632  0.7618  0.2108 -0.1689
 5747TIP3    H238801   2.139   0.652   0.649  1.1992  0.4488  0.9228
 5748TIP3   OH238802   3.440   4.251   7.604 -0.2336  0.5881  1.0134
 5748TIP3    H138803   3.360   4.229   7.652  0.1712  0.1050  1.4719
 5748TIP3    H238804   3.442   4.189   7.532 -1.0009  1.5076  0.1616
 5749TIP3   OH238805   6.640   1.445   1.873 -0.0652  0.1637 -0.0677
 5749TIP3    H138806   6.623   1.354   1.850 -2.9487  0.6964 -0.4506
 5749TIP3    H238807   6.695   1.478   1.801  0.0957 -0.9947 -0.4939
 5750TIP3   OH238808   5.462   4.552   0.005  0.0090 -0.0843 -0.1670
 5750TIP3    H138809   5.462   4.552   0.101 -1.3247  1.5022 -0.1112
 5750TIP3    H238810   5.439   4.463  -0.020  0.9155 -0.6562  0.9674
 5751TIP3   OH238811   4.929   2.277   0.269 -0.2352  0.4221 -0.2310
 5751TIP3    H138812   4.848   2.258   0.316  0.2159 -2.0081 -0.2581
 5751TIP3    H238813   4.901   2.303   0.182 -0.9967  0.1976 -0.0595
 5752TIP3   OH238814   5.789   3.926   0.270  0.1189 -0.1881 -0.1610
 5752TIP3    H138815   5.695   3.927   0.251 -0.4668  0.9630  2.3792
 5752TIP3    H238816   5.807   4.011   0.310  1.8857 -0.9881  0.8981
 5753TIP3   OH238817   5.871   2.572   0.311  0.2240 -0.0032 -0.6745
 5753TIP3    H138818   5.849   2.628   0.385  2.1571 -1.5618  1.2027
 5753TIP3    H238819   5.878   2.484   0.348  0.6692 -0.9519 -2.8374
 5754TIP3   OH238820   1.704   4.461   2.256  0.2794 -0.1458  0.1848
 5754TIP3    H138821   1.628   4.459   2.196  0.4318 -1.0479  0.0151
 5754TIP3    H238822   1.779   4.449   2.198  0.4261 -1.0645  0.5609
 5755TIP3   OH238823   2.491   3.727   8.410  0.2343  0.4442 -0.9117
 5755TIP3    H138824   2.569   3.754   8.361 -1.5206  2.3776 -2.8267
 5755TIP3    H238825   2.473   3.800   8.469  1.0063 -0.9058  1.1155
 5756TIP3   OH238826   2.005   4.872   0.109  0.1793 -0.1803 -0.0033
 5756TIP3    H138827   2.085   4.921   0.128  1.1975 -1.4165 -0.9627
 5756TIP3    H238828   2.014   4.791   0.159 -0.0560 -0.7115 -0.8038
 5757TIP3   OH238829   2.580   4.335   0.993  0.4199  0.0477  0.3964
 5757TIP3    H138830   2.591   4.260   0.935  1.3675  0.5912 -0.1376
 5757TIP3    H238831   2.649   4.326   1.058 -1.7450 -1.5925  2.6550
 5758TIP3   OH238832   4.821   5.292   7.195  0.2673  0.1356 -0.2759
 5758TIP3    H138833   4.879   5.222   7.226  0.7420  0.7741  0.3152
 5758TIP3    H238834   4.743   5.246   7.164  0.8296 -0.6997 -0.4998
 5759TIP3   OH238835   3.661   1.859   7.457 -0.2361  0.2814 -0.3582
 5759TIP3    H138836   3.581   1.834   7.410  0.9095 -1.3132 -1.5676
 5759TIP3    H238837   3.642   1.837   7.549 -2.0038  2.1542 -0.1912
 5760TIP3   OH238838   3.480   5.021   8.036 -0.2329 -0.6398 -0.1029
 5760TIP3    H138839   3.500   5.074   8.113  0.3083 -1.4472  0.3193
 5760TIP3    H238840   3.405   5.065   7.996 -1.7093 -1.2133  1.8819
 5761TIP3   OH238841   0.414   2.150   2.406  0.5747  0.0526  0.2004
 5761TIP3    H138842   0.417   2.055   2.412  1.4131  0.0968  0.7794
 5761TIP3    H238843   0.503   2.178   2.428  0.1955  0.9915  0.6063
 5762TIP3   OH238844   0.996   1.869   0.485 -0.1267  0.0224 -0.0096
 5762TIP3    H138845   1.026   1.951   0.525  1.5565  0.3176 -1.7128
 5762TIP3    H238846   0.902   1.866   0.505 -0.2013  2.2688  0.2915
 5763TIP3   OH238847   3.102   5.889   2.961 -0.2352 -0.3831  0.4373
 5763TIP3    H138848   3.108   5.976   3.000 -1.7966  0.0068 -0.1034
 5763TIP3    H238849   3.096   5.906   2.867  0.5494 -1.1394  0.2456
 5764TIP3   OH238850   5.502   2.339   7.030 -0.4299  0.5340  0.0385
 5764TIP3    H138851   5.566   2.287   7.079 -1.4364 -1.0759 -0.3092
 5764TIP3    H238852   5.424   2.340   7.085 -0.5423  1.4356 -0.1117
 5765TIP3   OH238853   6.647   6.128   0.100  0.0578  0.0122 -0.0265
 5765TIP3    H138854   6.693   6.044   0.102  0.2375  0.0841 -0.7802
 5765TIP3    H238855   6.710   6.190   0.138  0.2741 -0.0294 -0.3188
 5766TIP3   OH238856   1.029   2.148   0.536  0.1815  0.0039  0.4613
 5766TIP3    H138857   1.070   2.156   0.622 -3.3031  0.0491  2.2699
 5766TIP3    H238858   1.028   2.238   0.502  0.7623  0.1291  0.7609
 5767TIP3   OH238859   2.192   2.731   1.677 -0.7442 -0.2658  0.1758
 5767TIP3    H138860   2.115   2.744   1.621  0.0157 -1.4430 -1.2084
 5767TIP3    H238861   2.156   2.701   1.760 -1.7697 -1.8304 -0.7881
 5768TIP3   OH238862   5.240   4.145   1.295  0.2896  0.3903  0.1670
 5768TIP3    H138863   5.335   4.133   1.298  0.2214 -0.0281  0.9032
 5768TIP3    H238864   5.227   4.223   1.241  1.0354  0.2963 -0.1577
 5769TIP3   OH238865   3.337   2.445   7.977 -0.0925  0.0684 -0.2164
 5769TIP3    H138866   3.252   2.447   8.020  0.6308 -0.9790  1.3455
 5769TIP3    H238867   3.401   2.442   8.048  1.2422  0.2194 -1.3481
 5770TIP3   OH238868   1.339   2.934   1.583  0.3372  0.5251  0.2005
 5770TIP3    H138869   1.314   3.003   1.522  0.5850 -0.2911 -0.8588
 5770TIP3    H238870   1.267   2.871   1.579  0.6186  0.1927  0.3118
 5771TIP3   OH238871   6.467   1.501   7.994 -0.0143  0.9462 -0.2440
 5771TIP3    H138872   6.531   1.566   8.023  2.4362 -1.1146 -0.6824
 5771TIP3    H238873   6.461   1.439   8.067 -1.3028  0.9239 -0.3438
 5772TIP3   OH238874   5.694   0.262   8.007 -0.5712 -0.2939  0.2824
 5772TIP3    H138875   5.682   0.227   7.918  1.9384  1.0871 -0.6964
 5772TIP3    H238876   5.610   0.301   8.029 -1.2459 -0.6374 -1.5143
 5773TIP3   OH238877   1.466   0.487   7.087  0.1177 -0.0942 -0.3640
 5773TIP3    H138878   1.399   0.494   7.155 -1.4335  0.1254 -1.8514
 5773TIP3    H238879   1.509   0.573   7.089  0.0440 -0.0604  0.2734
 5774TIP3   OH238880   0.307   1.644   8.244 -0.2708  0.7099  0.6605
 5774TIP3    H138881   0.379   1.624   8.303 -0.3317 -0.4617  0.3512
 5774TIP3    H238882   0.263   1.561   8.229  1.0811  0.4509 -2.8400
 5775TIP3   OH238883   4.409   2.522   2.470 -0.0827  0.4722  0.0611
 5775TIP3    H138884   4.463   2.447   2.496 -2.4602 -0.6955  2.1021
 5775TIP3    H238885   4.413   2.581   2.545  0.2005  1.4791 -0.7307
 5776TIP3   OH238886   3.727   6.388   1.646  0.1758  0.2074 -0.1761
 5776TIP3    H138887   3.688   6.469   1.614  1.3795 -0.2663 -3.2793
 5776TIP3    H238888   3.799   6.371   1.585  1.3510 -2.0786  1.6753
 5777TIP3   OH238889   2.736   6.516   7.994 -0.3952 -0.2181  0.1355
 5777TIP3    H138890   2.651   6.554   8.014  0.1030  0.4880  1.0182
 5777TIP3    H238891   2.736   6.507   7.899 -0.3069  2.7623 -0.2672
 5778TIP3   OH238892   2.931   1.268   0.951  0.5859 -0.1654  0.5343
 5778TIP3    H138893   2.852   1.309   0.984  0.2923  0.0910 -0.4676
 5778TIP3    H238894   2.994   1.275   1.023  0.5154  1.9331  0.4310
 5779TIP3   OH238895   3.113   0.236   0.342 -0.1622  0.3467  0.0058
 5779TIP3    H138896   3.044   0.173   0.321 -1.0650  1.5991 -0.9606
 5779TIP3    H238897   3.170   0.237   0.265 -0.3503  0.9434 -0.1329
 5780TIP3   OH238898   1.157   2.164   7.648  0.9172  0.1219 -0.4636
 5780TIP3    H138899   1.250   2.153   7.667  0.8631  1.8234  1.0643
 5780TIP3    H238900   1.154   2.185   7.555  1.9561 -0.8112 -0.7306
 5781TIP3   OH238901   3.076   4.922   0.054  0.9625  0.2149  0.6356
 5781TIP3    H138902   3.122   4.996   0.015 -0.0427  0.8976  0.7052
 5781TIP3    H238903   3.046   4.954   0.139  1.3324 -0.5919  1.0906
 5782TIP3   OH238904   1.820   2.033   1.745  0.1999  0.4260 -0.3699
 5782TIP3    H138905   1.780   2.016   1.660 -0.2457 -1.5198  0.1734
 5782TIP3    H238906   1.751   2.075   1.796  0.0368  0.4191 -0.5834
 5783TIP3   OH238907   1.278   1.967   2.915 -0.4501  0.5352 -0.0953
 5783TIP3    H138908   1.348   1.944   2.855 -1.1784  0.9162 -1.1309
 5783TIP3    H238909   1.273   1.894   2.976  0.7351  0.4408 -0.1041
 5784TIP3   OH238910   1.643   4.720   2.363 -0.0404 -0.5448  0.2439
 5784TIP3    H138911   1.675   4.641   2.321  2.0069  0.2274  0.2160
 5784TIP3    H238912   1.633   4.783   2.292  1.3380  0.1161  0.6050
 5785TIP3   OH238913   1.228   0.720   0.086  0.0893 -0.3294  0.0334
 5785TIP3    H138914   1.170   0.764   0.024  0.0836 -1.4528 -0.7840
 5785TIP3    H238915   1.315   0.726   0.045 -0.1551 -2.4732 -0.9207
 5786TIP3   OH238916   1.339   3.552   1.803  0.0541 -0.0287  0.3056
 5786TIP3    H138917   1.362   3.485   1.739  0.0810 -0.2957  0.5946
 5786TIP3    H238918   1.281   3.508   1.864  2.2573 -0.6168  2.1355
 5787TIP3   OH238919   3.484   6.729   2.493  0.6737 -0.0363  0.4692
 5787TIP3    H138920   3.412   6.696   2.547  0.0012  2.0682  0.9309
 5787TIP3    H238921   3.523   6.799   2.544  2.7142 -0.7263 -0.0451
 5788TIP3   OH238922   6.194   5.970   1.057 -0.0978  0.4001  0.4651
 5788TIP3    H138923   6.150   6.020   1.124 -3.1477 -2.1121  0.5835
 5788TIP3    H238924   6.132   5.968   0.983  0.7795 -1.3186 -0.3052
 5789TIP3   OH238925   4.834   3.775   8.227 -0.3605 -0.2827 -0.4500
 5789TIP3    H138926   4.812   3.862   8.262  0.7317 -0.1743  0.0045
 5789TIP3    H238927   4.860   3.724   8.304  2.0169 -0.0575 -1.0141
 5790TIP3   OH238928   3.083   4.149   0.399  0.3507  0.5601 -0.5437
 5790TIP3    H138929   3.068   4.209   0.473 -0.3967  0.5520 -0.6740
 5790TIP3    H238930   3.164   4.104   0.420  0.7248  1.3516 -0.2588
 5791TIP3   OH238931   6.359   3.369   0.124 -0.0196 -0.3032 -0.2169
 5791TIP3    H138932   6.430   3.318   0.086 -0.0172 -0.2982 -0.2192
 5791TIP3    H238933   6.388   3.460   0.117 -0.3224 -0.2540 -0.8314
 5792TIP3   OH238934   5.523   5.336   1.185  0.1998 -0.3604 -0.4772
 5792TIP3    H138935   5.561   5.256   1.149 -0.3911 -0.0093 -1.9448
 5792TIP3    H238936   5.503   5.390   1.109 -0.4860  0.7093  0.4215
 5793TIP3   OH238937   5.105   5.173   2.439 -0.0750 -0.2230 -0.0099
 5793TIP3    H138938   5.188   5.158   2.394 -0.5605 -1.4510 -0.5536
 5793TIP3    H238939   5.130   5.199   2.528  0.8887  1.5536 -0.7525
 5794TIP3   OH238940   1.770   5.581   1.718 -0.5618 -0.6146  0.0561
 5794TIP3    H138941   1.721   5.661   1.736 -1.7674 -1.1664 -0.6862
 5794TIP3    H238942   1.862   5.608   1.724 -0.9246  0.9815 -0.8456
 5795TIP3   OH238943   4.484   5.366   0.865 -0.4019  0.2773  0.1481
 5795TIP3    H138944   4.506   5.328   0.950 -0.6450  1.1529  0.6128
 5795TIP3    H238945   4.559   5.346   0.809 -0.5494 -0.9369  0.3512
 5796TIP3   OH238946   5.717   2.285   0.133 -0.0958  0.0461  0.9165
 5796TIP3    H138947   5.662   2.328   0.067  1.0557  1.4182  0.8016
 5796TIP3    H238948   5.712   2.344   0.209  0.9807  0.0484  0.9981
 5797TIP3   OH238949   5.658   4.517   0.483  0.3307  0.1336 -0.4995
 5797TIP3    H138950   5.567   4.492   0.498  0.3594 -0.1739 -0.8286
 5797TIP3    H238951   5.664   4.605   0.519 -0.8326  1.3126 -2.9068
 5798TIP3   OH238952   1.822   1.193   1.523  0.1201 -0.1385 -0.2277
 5798TIP3    H138953   1.731   1.194   1.552  0.9903 -0.6577  2.9494
 5798TIP3    H238954   1.844   1.100   1.518  0.8916 -0.0112  0.6132
 5799TIP3   OH238955   0.540   1.262   2.838  0.2782  0.0104  0.5685
 5799TIP3    H138956   0.451   1.294   2.825  0.5578  0.8008  0.5382
 5799TIP3    H238957   0.568   1.302   2.920  0.9181  0.5099  0.1228
 5800TIP3   OH238958   3.348   4.525   2.911 -0.0842  0.0836 -0.0531
 5800TIP3    H138959   3.364   4.579   2.834 -1.0620 -0.4625 -0.6620
 5800TIP3    H238960   3.435   4.497   2.939  0.3145  0.6294 -0.7101
 5801TIP3   OH238961   1.780   3.496   0.576 -0.1032  0.2485 -0.1210
 5801TIP3    H138962   1.697   3.467   0.539 -0.1785  0.4360 -0.0995
 5801TIP3    H238963   1.841   3.496   0.502 -0.5096  1.6688 -0.4992
 5802TIP3   OH238964   2.545   3.063   0.319  0.6111 -0.1224 -0.3637
 5802TIP3    H138965   2.524   3.101   0.405 -0.8039 -2.4605  0.4250
 5802TIP3    H238966   2.480   3.100   0.259  0.2705 -0.0685  0.0332
 5803TIP3   OH238967   4.693   0.347   0.935  0.4692  0.3789  0.3212
 5803TIP3    H138968   4.767   0.318   0.987 -0.2405 -0.9420  0.6497
 5803TIP3    H238969   4.617   0.337   0.993 -0.1271  0.4710 -0.4202
 5804TIP3   OH238970   0.795   5.026   1.567 -0.8984  0.0690  0.0186
 5804TIP3    H138971   0.739   4.957   1.532 -1.6500  0.6262  0.0882
 5804TIP3    H238972   0.738   5.075   1.627  0.2497 -0.6328  1.7533
 5805TIP3   OH238973   1.009   2.479   2.782  0.1923  0.1466  0.5574
 5805TIP3    H138974   0.917   2.465   2.763  0.6545 -0.5806 -1.3452
 5805TIP3    H238975   1.017   2.574   2.792 -0.7206  0.2335  0.5429
 5806TIP3   OH238976   6.507   0.766   7.532 -0.2614 -0.2897 -0.3540
 5806TIP3    H138977   6.437   0.742   7.471 -0.4492 -1.3959  0.2638
 5806TIP3    H238978   6.579   0.707   7.510 -0.2889 -0.6172  0.4104
 5807TIP3   OH238979   5.604   2.452   2.309  0.3814 -0.4516 -0.2086
 5807TIP3    H138980   5.659   2.531   2.315  1.1862 -0.9852 -0.3415
 5807TIP3    H238981   5.617   2.421   2.219  0.6709 -1.1561  0.0713
 5808TIP3   OH238982   2.119   4.990   8.142 -0.1179 -0.0437  0.1088
 5808TIP3    H138983   2.131   4.896   8.151  0.7113 -0.4355 -3.4850
 5808TIP3    H238984   2.136   5.025   8.229  2.0969 -3.0010  1.0245
 5809TIP3   OH238985   6.641   2.697   2.598  0.3061  0.1618  0.0272
 5809TIP3    H138986   6.584   2.662   2.530 -1.3172  1.0532  0.8502
 5809TIP3    H238987   6.653   2.624   2.659 -0.4530  0.1218  0.1386
 5810TIP3   OH238988   5.455   4.156   8.202  0.6044 -0.4126  0.7670
 5810TIP3    H138989   5.519   4.114   8.261  1.2988 -0.7215 -0.1872
 5810TIP3    H238990   5.423   4.231   8.252  1.5862 -0.3472  1.3349
 5811TIP3   OH238991   2.776   5.800   0.835  0.3606 -0.1080 -0.2326
 5811TIP3    H138992   2.833   5.755   0.897  2.1963 -0.0927 -1.8110
 5811TIP3    H238993   2.746   5.878   0.883  2.4668  0.3961  0.3734
 5812TIP3   OH238994   2.196   5.845   7.278  0.1493  0.2847 -0.0159
 5812TIP3    H138995   2.281   5.876   7.311  0.1278  0.0800  0.2301
 5812TIP3    H238996   2.210   5.833   7.184  1.2836 -2.5756  0.4136
 5813TIP3   OH238997   4.220   0.438   8.501 -0.0372  0.3867 -0.2949
 5813TIP3    H138998   4.251   0.395   8.581 -3.3984  1.3668  1.7312
 5813TIP3    H238999   4.282   0.510   8.487  3.2492 -2.3739 -1.3679
 5814TIP3   OH239000   5.404   3.339   7.570  0.4294 -0.3686  0.1422
 5814TIP3    H139001   5.493   3.369   7.589  0.6147 -0.8104 -0.0271
 5814TIP3    H239002   5.399   3.339   7.474 -0.0990  0.6633  0.1552
 5815TIP3   OH239003   3.746   0.782   8.324 -0.8022 -0.5544 -0.2403
 5815TIP3    H139004   3.763   0.728   8.246 -1.2768 -2.3572  0.8351
 5815TIP3    H239005   3.770   0.725   8.397 -2.1272  0.4244  0.9920
 5816TIP3   OH239006   1.559   0.544   1.333  0.1214 -0.6263 -0.4151
 5816TIP3    H139007   1.542   0.456   1.301  0.8670 -0.9367  0.0305
 5816TIP3    H239008   1.640   0.537   1.382  0.2831  0.3467 -0.5189
 5817TIP3   OH239009   3.431   4.767   8.161 -0.2171 -0.7763 -0.2517
 5817TIP3    H139010   3.400   4.704   8.096  1.0160  0.3345 -1.9689
 5817TIP3    H239011   3.412   4.853   8.124  1.5371 -0.1056  0.2852
 5818TIP3   OH239012   5.528   3.725   2.300  0.1042 -0.5033 -0.0678
 5818TIP3    H139013   5.460   3.658   2.311  0.2245 -0.3938  1.5672
 5818TIP3    H239014   5.508   3.765   2.216 -0.8412 -1.6125 -0.4003
 5819TIP3   OH239015   0.490   1.988   2.047  0.0854 -0.3659  0.0035
 5819TIP3    H139016   0.493   2.083   2.033  0.5576 -0.3765  0.0379
 5819TIP3    H239017   0.403   1.973   2.086  0.7623  0.3094  1.9111
 5820TIP3   OH239018   0.693   0.610   1.816  0.0783 -0.1325  0.0066
 5820TIP3    H139019   0.769   0.655   1.779 -1.8283  1.5975 -2.1201
 5820TIP3    H239020   0.653   0.674   1.874 -1.0125 -0.1809 -0.6815
 5821TIP3   OH239021   4.069   1.673   8.472 -0.7694 -0.9337 -0.3505
 5821TIP3    H139022   3.980   1.642   8.460 -0.5846 -1.3618 -0.6284
 5821TIP3    H239023   4.122   1.594   8.478 -0.0893 -0.7230 -2.5608
 5822TIP3   OH239024   6.124   0.827   0.184 -0.1601 -0.0153  0.3946
 5822TIP3    H139025   6.092   0.904   0.136  1.1824 -0.1831 -0.8266
 5822TIP3    H239026   6.190   0.788   0.126 -0.8408 -2.1295  0.9592
 5823TIP3   OH239027   1.168   5.355   2.364 -0.1777  0.3322  0.1776
 5823TIP3    H139028   1.163   5.420   2.294 -0.9422  0.4145  0.2959
 5823TIP3    H239029   1.108   5.387   2.431  0.6942  0.3597  0.9675
 5824TIP3   OH239030   6.403   1.238   8.128  0.3432  0.3904  0.1133
 5824TIP3    H139031   6.456   1.168   8.165 -0.7658 -1.0813 -0.9613
 5824TIP3    H239032   6.345   1.264   8.199  0.0973 -0.4761  0.2395
 5825TIP3   OH239033   2.883   1.550   8.406  0.6492 -0.2149 -0.0612
 5825TIP3    H139034   2.917   1.496   8.478  0.7963 -0.2839 -0.1811
 5825TIP3    H239035   2.871   1.637   8.445  0.9635 -0.1899 -0.0128
 5826TIP3   OH239036   0.932   0.256   7.959  0.4149  0.0925  1.1412
 5826TIP3    H139037   0.929   0.164   7.933 -0.2997  0.2865  0.5051
 5826TIP3    H239038   1.024   0.280   7.950  0.3861 -0.1848 -0.0518
 5827TIP3   OH239039   3.738   3.497   2.315  0.2168 -0.6276  0.0735
 5827TIP3    H139040   3.652   3.518   2.277  0.2040  0.8782  0.8439
 5827TIP3    H239041   3.800   3.519   2.245  0.0747  0.2398  0.1993
 5828TIP3   OH239042   0.203   6.256   1.294  0.3253 -0.4879  0.1728
 5828TIP3    H139043   0.183   6.193   1.363  0.5202 -0.1051  0.5831
 5828TIP3    H239044   0.286   6.227   1.258 -0.1349 -1.1145 -0.4051
 5829TIP3   OH239045   1.176   1.751   1.325  0.4032 -0.1573 -0.3417
 5829TIP3    H139046   1.117   1.785   1.258  0.7924  0.2540 -0.4797
 5829TIP3    H239047   1.264   1.776   1.296  0.5724  0.0889  0.3496
 5830TIP3   OH239048   4.156   4.320   8.561  0.0916 -0.4162 -0.2857
 5830TIP3    H139049   4.148   4.288   8.651  0.0559  0.8645  0.1907
 5830TIP3    H239050   4.167   4.241   8.508  0.5938 -1.1564  0.8919
 5831TIP3   OH239051   2.491   5.705   7.705  0.4818 -0.0037  0.5249
 5831TIP3    H139052   2.467   5.677   7.616  2.2165 -0.1804  0.0874
 5831TIP3    H239053   2.431   5.656   7.762 -2.4227  1.9712 -0.5641
 5832TIP3   OH239054   2.769   6.162   0.961 -0.0497  0.1539 -0.0921
 5832TIP3    H139055   2.779   6.233   1.025  1.3923 -1.1784  1.2503
 5832TIP3    H239056   2.732   6.089   1.012 -1.7266 -0.0308 -1.4892
 5833TIP3   OH239057   6.399   4.627   7.984 -0.1636  0.4044  0.0591
 5833TIP3    H139058   6.470   4.581   7.939  0.2150 -0.9537  1.9036
 5833TIP3    H239059   6.319   4.593   7.945  0.1627 -0.1113 -0.1683
 5834TIP3   OH239060   6.255   1.260   2.056  0.2732  0.0629  0.1269
 5834TIP3    H139061   6.230   1.219   2.139 -0.7317 -0.4012 -0.3838
 5834TIP3    H239062   6.172   1.295   2.021  0.4907 -0.6539 -1.1676
 5835TIP3   OH239063   6.375   5.738   0.374  0.1457 -0.3325  0.2301
 5835TIP3    H139064   6.413   5.654   0.348 -1.9397 -1.6150  1.0749
 5835TIP3    H239065   6.421   5.760   0.455 -0.0052 -1.2416  0.5864
 5836TIP3   OH239066   6.405   0.496   7.399  0.1286 -0.5755  0.6966
 5836TIP3    H139067   6.337   0.561   7.380  0.1995 -0.5929  0.3812
 5836TIP3    H239068   6.429   0.460   7.314  0.6766 -0.4261  0.7797
 5837TIP3   OH239069   2.441   2.166   7.163 -0.5774 -0.1647  0.0289
 5837TIP3    H139070   2.359   2.149   7.209  0.2270 -1.4163  1.0939
 5837TIP3    H239071   2.443   2.261   7.152 -0.6650  0.2842  2.9974
 5838TIP3   OH239072   6.815   4.929   7.229 -0.1038  0.1021  0.1749
 5838TIP3    H139073   6.863   4.853   7.196 -0.2566  0.8503 -2.0041
 5838TIP3    H239074   6.881   4.979   7.277 -0.1138 -1.5764  2.0507
 5839TIP3   OH239075   5.828   4.669   8.050  0.4229  0.0813 -0.0195
 5839TIP3    H139076   5.742   4.693   8.084 -0.0483 -0.2953 -0.8929
 5839TIP3    H239077   5.883   4.745   8.067  0.5472 -0.4984  2.5819
 5840TIP3   OH239078   1.542   5.999   0.104  0.4127 -0.4455 -0.0075
 5840TIP3    H139079   1.499   6.078   0.137 -0.0878 -0.3686 -0.7983
 5840TIP3    H239080   1.517   5.931   0.166 -1.7399 -0.6223 -0.9467
 5841TIP3   OH239081   4.889   1.237   0.556  0.5235 -0.2526 -0.4435
 5841TIP3    H139082   4.814   1.283   0.595  0.6055 -1.5061  1.3196
 5841TIP3    H239083   4.851   1.188   0.483  0.1191  1.1712 -1.2172
 5842TIP3   OH239084   3.301   2.629   7.245 -0.2725  0.3463 -0.1402
 5842TIP3    H139085   3.240   2.698   7.271  1.2675  2.4075 -1.6479
 5842TIP3    H239086   3.274   2.606   7.156  0.4319  0.4869 -0.4013
 5843TIP3   OH239087   5.073   3.438   2.308  0.4714 -0.1760 -0.4398
 5843TIP3    H139088   5.094   3.513   2.364 -0.7787  0.1970 -0.4366
 5843TIP3    H239089   5.056   3.367   2.370 -2.2037  0.5667 -0.2151
 5844TIP3   OH239090   3.417   0.763   7.592 -0.7386  0.5044 -0.1678
 5844TIP3    H139091   3.467   0.703   7.648 -1.0816 -0.1963 -0.5904
 5844TIP3    H239092   3.338   0.714   7.569 -1.3853  1.4105  0.0796
 5845TIP3   OH239093   0.650   0.167   2.340 -0.0396 -0.3019 -0.2984
 5845TIP3    H139094   0.724   0.202   2.291  0.5377 -0.7205  0.2555
 5845TIP3    H239095   0.684   0.086   2.380 -0.3555  0.2287  1.1198
 5846TIP3   OH239096   2.067   1.254   8.301 -0.7734 -0.1781  0.3510
 5846TIP3    H139097   2.133   1.322   8.315 -0.5413 -0.4096  0.3848
 5846TIP3    H239098   1.993   1.281   8.356 -2.4746  2.4084 -2.8595
 5847TIP3   OH239099   5.693   4.761   2.995 -0.3741 -0.2487  0.0247
 5847TIP3    H139100   5.763   4.705   2.961  0.4555  0.5768  0.3299
 5847TIP3    H239101   5.677   4.728   3.083  0.4955  0.3107  0.4102
 5848TIP3   OH239102   3.562   0.485   8.388 -0.2027  0.0692 -0.0784
 5848TIP3    H139103   3.578   0.457   8.298 -0.0112 -1.3214  0.3733
 5848TIP3    H239104   3.631   0.444   8.440  1.7271  3.4300  0.3369
 5849TIP3   OH239105   2.145   5.093   7.683 -0.0233  0.3829 -0.4889
 5849TIP3    H139106   2.062   5.077   7.728 -0.3160  0.6496 -0.9255
 5849TIP3    H239107   2.164   5.010   7.639  0.2858  0.1078  0.1525
 5850TIP3   OH239108   5.021   4.698   2.601 -0.6418 -0.3709 -0.2728
 5850TIP3    H139109   5.040   4.621   2.548  1.2295 -0.5087  0.5280
 5850TIP3    H239110   4.998   4.663   2.687  1.0504 -0.0515  0.3383
 5851TIP3   OH239111   4.063   5.658   0.850  0.3974  0.5080 -0.3063
 5851TIP3    H139112   4.144   5.610   0.831 -0.2805  0.0604 -2.3513
 5851TIP3    H239113   3.994   5.604   0.809 -0.7448  1.6606  0.0516
 5852TIP3   OH239114   2.503   3.830   2.512 -0.1323 -0.5349 -0.0503
 5852TIP3    H139115   2.516   3.762   2.578  0.6896 -1.3671 -1.0536
 5852TIP3    H239116   2.528   3.790   2.430  0.9177  1.1455 -0.6074
 5853TIP3   OH239117   3.905   6.141   0.137 -0.0465 -0.1535  0.5091
 5853TIP3    H139118   3.893   6.089   0.216  0.2495 -2.0928 -0.6543
 5853TIP3    H239119   3.828   6.121   0.084  1.0743 -1.1066 -0.8335
 5854TIP3   OH239120   1.918   4.009   8.512  0.1190 -0.1899 -0.4177
 5854TIP3    H139121   1.920   3.927   8.561 -1.2127 -0.5097 -0.8428
 5854TIP3    H239122   1.992   4.003   8.452 -0.5677 -1.5596 -1.1642
 5855TIP3   OH239123   4.739   3.355   2.076  0.5317 -0.7744  0.6388
 5855TIP3    H139124   4.720   3.267   2.107  1.9296 -1.5372 -0.5450
 5855TIP3    H239125   4.759   3.344   1.983 -1.0516  1.0629  0.0052
 5856TIP3   OH239126   5.355   1.607   7.026 -0.1577  0.2531 -0.3633
 5856TIP3    H139127   5.354   1.587   6.932 -2.2516  1.1783 -0.5981
 5856TIP3    H239128   5.332   1.524   7.068 -1.9689  0.4579 -0.8817
 5857TIP3   OH239129   4.882   1.208   2.178 -0.2283 -0.3683 -0.5229
 5857TIP3    H139130   4.896   1.272   2.248 -0.3776 -0.5780 -0.2956
 5857TIP3    H239131   4.923   1.128   2.212  0.3722 -0.2712 -1.0038
 5858TIP3   OH239132   4.083   1.641   1.409 -0.1609 -0.8906 -0.1064
 5858TIP3    H139133   4.082   1.647   1.504  1.6633 -0.4098 -0.0840
 5858TIP3    H239134   3.990   1.642   1.384 -0.7197 -2.4408  1.7152
 5859TIP3   OH239135   3.367   0.623   1.767  0.0544  0.6202 -0.4457
 5859TIP3    H139136   3.391   0.715   1.753  0.4338  0.2883 -2.1587
 5859TIP3    H239137   3.441   0.573   1.731 -1.2827 -0.3721 -1.9263
 5860TIP3   OH239138   5.773   1.078   7.595  0.9135  0.3857 -0.1427
 5860TIP3    H139139   5.813   1.023   7.661  1.1954  1.4026  0.5594
 5860TIP3    H239140   5.832   1.153   7.587  1.1915  0.0210 -1.9603
 5861TIP3   OH239141   1.204   2.806   8.183  0.1373 -0.0784 -0.4395
 5861TIP3    H139142   1.239   2.818   8.095  1.7567  1.8338  0.3939
 5861TIP3    H239143   1.208   2.893   8.223  0.1818 -1.0242  1.7705
 5862TIP3   OH239144   1.256   2.648   0.201 -0.3749  1.0920 -0.0148
 5862TIP3    H139145   1.163   2.659   0.182 -1.1715 -1.2763  2.0634
 5862TIP3    H239146   1.285   2.579   0.141 -0.7600 -0.3006  1.3483
 5863TIP3   OH239147   3.558   4.888   8.367 -0.1150 -0.2393 -0.1843
 5863TIP3    H139148   3.518   4.848   8.290  0.7789  0.9571 -1.3111
 5863TIP3    H239149   3.486   4.898   8.430 -1.7785  2.2070 -2.2835
 5864TIP3   OH239150   5.986   4.607   0.562 -0.1260 -0.9824 -1.0424
 5864TIP3    H139151   6.007   4.699   0.578  0.3243 -0.8926 -2.0410
 5864TIP3    H239152   6.023   4.590   0.475  1.1152 -2.5028 -0.2664
 5865TIP3   OH239153   1.782   2.652   0.046  0.5935 -0.0238 -0.1024
 5865TIP3    H139154   1.791   2.742   0.014  2.1753  0.2038  0.8726
 5865TIP3    H239155   1.752   2.602  -0.030 -0.5229  1.3476 -0.6076
 5866TIP3   OH239156   1.389   5.721   1.588 -0.6982 -0.0060 -0.5637
 5866TIP3    H139157   1.373   5.642   1.537  0.8678  0.3099 -1.6133
 5866TIP3    H239158   1.434   5.780   1.528  1.2313  0.4020  1.1782
 5867TIP3   OH239159   4.919   2.855   0.737  0.2872  0.6821 -0.4426
 5867TIP3    H139160   4.966   2.912   0.677  1.7098  3.2949  2.8156
 5867TIP3    H239161   4.987   2.820   0.795 -0.8677 -2.5738 -0.8471
 5868TIP3   OH239162   1.609   0.674   1.756 -0.7839  0.1152 -0.8768
 5868TIP3    H139163   1.604   0.648   1.847  0.4354  1.3092 -0.4349
 5868TIP3    H239164   1.568   0.602   1.708 -1.4349 -0.5319  0.5912
 5869TIP3   OH239165   6.122   0.176   1.254 -0.0968  0.2920 -0.1760
 5869TIP3    H139166   6.108   0.259   1.300  0.9336 -1.1782  3.1258
 5869TIP3    H239167   6.212   0.181   1.221  1.0122 -0.4106  2.4602
 5870TIP3   OH239168   5.994   6.676   1.620  0.3875 -0.3157 -0.3154
 5870TIP3    H139169   6.011   6.613   1.550  0.9662 -0.4576 -0.0515
 5870TIP3    H239170   5.959   6.753   1.575  0.1429 -0.6411 -0.6899
 5871TIP3   OH239171   5.182   1.137   2.600  0.3336 -0.3801  0.1990
 5871TIP3    H139172   5.153   1.211   2.654 -0.3706  1.6976 -2.8100
 5871TIP3    H239173   5.271   1.118   2.631 -0.9415 -1.2095  3.8638
 5872TIP3   OH239174   5.296   2.288   7.215 -0.2094  0.1238  0.1585
 5872TIP3    H139175   5.243   2.367   7.224 -1.8885 -1.1190  2.0395
 5872TIP3    H239176   5.232   2.217   7.208  1.1378 -1.4128  2.1602
 5873TIP3   OH239177   4.721   2.976   1.208  0.3884 -0.2427  0.1723
 5873TIP3    H139178   4.763   3.019   1.283  0.7825 -0.6763  0.2056
 5873TIP3    H239179   4.714   2.884   1.234 -1.3735 -0.0460  0.5110
 5874TIP3   OH239180   4.784   5.219   7.509  0.2381 -0.0236  0.7419
 5874TIP3    H139181   4.824   5.189   7.428 -0.4297 -1.6909  0.9952
 5874TIP3    H239182   4.690   5.211   7.495  0.1202 -1.0972  1.9222
 5875TIP3   OH239183   4.406   6.518   0.897 -0.0140  0.7900 -0.0195
 5875TIP3    H139184   4.430   6.490   0.809  1.4959 -1.7458  1.0751
 5875TIP3    H239185   4.312   6.538   0.891 -0.0558  0.1827 -2.0733
 5876TIP3   OH239186   2.462   5.735   0.557  0.3911 -0.2953 -0.3297
 5876TIP3    H139187   2.507   5.690   0.485 -0.7915  0.6294 -1.7009
 5876TIP3    H239188   2.442   5.822   0.522 -0.7312 -0.0187  0.9292
 5877TIP3   OH239189   5.373   2.961   8.003 -0.2630 -0.3303  0.0836
 5877TIP3    H139190   5.309   3.032   7.994 -0.1068 -0.2032 -0.0206
 5877TIP3    H239191   5.340   2.892   7.946 -0.0546 -0.0828 -0.3388
 5878TIP3   OH239192   3.172   6.451   1.344  0.2842 -0.4731  0.4072
 5878TIP3    H139193   3.236   6.521   1.357 -1.0406  1.0299 -0.7940
 5878TIP3    H239194   3.088   6.490   1.365 -0.5588 -1.5242 -0.8172
 5879TIP3   OH239195   3.209   2.021   2.263  0.0032 -0.2930 -0.1512
 5879TIP3    H139196   3.291   2.016   2.312 -0.9001 -0.3043  1.4170
 5879TIP3    H239197   3.204   2.111   2.234  0.7779 -0.3976 -0.6471
 5880TIP3   OH239198   5.558   1.866   0.932 -0.0600 -0.1212  0.0006
 5880TIP3    H139199   5.541   1.827   0.846  0.3732 -0.7293  0.1807
 5880TIP3    H239200   5.490   1.829   0.989  1.4701 -2.1870  0.6138
 5881TIP3   OH239201   5.009   1.128   1.940  0.0452  0.0229 -0.2839
 5881TIP3    H139202   4.960   1.170   2.010 -1.4980 -0.9187 -0.7404
 5881TIP3    H239203   4.963   1.045   1.926  2.0267 -1.0950 -0.4821
 5882TIP3   OH239204   0.588   3.213   7.972  0.1417  0.0085  0.7293
 5882TIP3    H139205   0.620   3.155   7.903  0.3470  0.6353  0.2808
 5882TIP3    H239206   0.500   3.237   7.945  0.2138  0.2376  0.6943
 5883TIP3   OH239207   2.527   6.542   1.239  0.0693 -0.0617  0.4487
 5883TIP3    H139208   2.593   6.611   1.245 -0.2192  0.3146 -0.5299
 5883TIP3    H239209   2.457   6.570   1.299  1.3697 -1.1738  2.6199
 5884TIP3   OH239210   3.324   5.359   8.585  0.6103 -0.0545  0.3030
 5884TIP3    H139211   3.416   5.343   8.561  0.5012  1.8579 -1.7262
 5884TIP3    H239212   3.274   5.324   8.512 -0.1826  0.1769  0.7264
 5885TIP3   OH239213   0.852   2.835   1.514 -0.3743  0.8827  0.2991
 5885TIP3    H139214   0.861   2.796   1.427  0.8469  0.4095  0.6137
 5885TIP3    H239215   0.771   2.797   1.549  0.8000 -1.4949  0.6200
 5886TIP3   OH239216   0.278   6.437   2.132 -0.0907  0.4704 -0.3623
 5886TIP3    H139217   0.215   6.448   2.204  0.9846  1.2808  0.4864
 5886TIP3    H239218   0.226   6.399   2.061 -1.0243 -1.0579  1.0767
 5887TIP3   OH239219   0.680   5.985   8.095 -0.3663 -0.0428 -0.1953
 5887TIP3    H139220   0.718   6.010   8.179  1.1171 -1.4166 -0.3989
 5887TIP3    H239221   0.634   5.903   8.113 -1.6824  0.6408 -0.3530
 5888TIP3   OH239222   5.950   4.068   1.991 -0.6197 -0.4227 -0.0017
 5888TIP3    H139223   6.012   3.999   2.013 -1.1013  0.0375  3.4783
 5888TIP3    H239224   5.872   4.022   1.960  0.8520 -1.0629 -3.0838
 5889TIP3   OH239225   0.790   2.129   0.788 -1.1630 -0.2398 -0.2356
 5889TIP3    H139226   0.865   2.093   0.837 -0.5008  0.2408 -0.8740
 5889TIP3    H239227   0.803   2.224   0.792 -1.9160 -0.1422 -0.0884
 5890TIP3   OH239228   2.759   4.303   1.395  0.3919  0.3827 -0.0359
 5890TIP3    H139229   2.735   4.263   1.311 -0.6182  0.8373  0.0234
 5890TIP3    H239230   2.730   4.393   1.387  1.4602  0.7795  0.3343
 5891TIP3   OH239231   0.056   1.424   7.675 -0.4527 -0.5205  0.1090
 5891TIP3    H139232   0.114   1.497   7.697 -0.5380  0.2441 -1.9872
 5891TIP3    H239233  -0.033   1.461   7.682 -0.4734 -0.1251 -1.7369
 5892TIP3   OH239234   1.386   2.916   2.212 -0.1487  0.2732  0.2205
 5892TIP3    H139235   1.391   2.840   2.155  0.7487  0.3246  0.2132
 5892TIP3    H239236   1.439   2.892   2.288 -0.0460  0.8033  0.3215
 5893TIP3   OH239237   0.326   3.832   8.355  0.2042 -0.5803 -0.3851
 5893TIP3    H139238   0.281   3.832   8.270  0.7597  0.0916 -0.6948
 5893TIP3    H239239   0.255   3.831   8.420 -0.2351 -0.5834 -0.8587
 5894TIP3   OH239240   4.827   5.363   7.828 -0.5392  0.5469  0.7140
 5894TIP3    H139241   4.849   5.279   7.789 -3.1445 -0.0642  0.3867
 5894TIP3    H239242   4.886   5.425   7.787  1.5963 -1.1119  1.1228
 5895TIP3   OH239243   2.293   0.077   8.295 -0.4039 -0.0773  0.3600
 5895TIP3    H139244   2.346   0.120   8.227 -0.0125 -0.7901  0.2060
 5895TIP3    H239245   2.278   0.146   8.360  2.1902 -0.2743  1.2811
 5896TIP3   OH239246   5.244   0.557   1.785 -0.4412 -0.1943  0.0969
 5896TIP3    H139247   5.317   0.521   1.733 -0.2879 -0.0697  0.2239
 5896TIP3    H239248   5.166   0.534   1.735 -0.3271 -0.4799  0.0424
 5897TIP3   OH239249   6.311   5.840   2.861 -0.1113 -1.0383  0.1874
 5897TIP3    H139250   6.320   5.768   2.924 -1.2337  0.1416  1.8068
 5897TIP3    H239251   6.237   5.814   2.806 -1.3013 -0.6566  1.5359
 5898TIP3   OH239252   6.459   1.818   1.348  0.1230  0.0126  0.3962
 5898TIP3    H139253   6.372   1.825   1.388  0.3355 -1.4914  1.2187
 5898TIP3    H239254   6.456   1.736   1.298  1.2964 -0.4956  1.1126
 5899TIP3   OH239255   2.272   4.785   8.126  0.5160  0.7811 -1.0278
 5899TIP3    H139256   2.347   4.806   8.183 -0.0606  0.1871 -0.0207
 5899TIP3    H239257   2.293   4.698   8.090  0.5537  0.8512 -1.1780
 5900TIP3   OH239258   1.254   6.043   7.849 -0.2572 -0.3021 -0.6567
 5900TIP3    H139259   1.292   6.100   7.783  1.8619  1.4799  1.8610
 5900TIP3    H239260   1.161   6.042   7.830 -0.0149  1.9511 -2.3306
 5901TIP3   OH239261   4.689   2.288   8.573  0.0244 -0.4360  0.4824
 5901TIP3    H139262   4.608   2.321   8.610  0.3324 -0.7194  1.4441
 5901TIP3    H239263   4.728   2.363   8.529  0.9341  0.6788  3.0040
 5902TIP3   OH239264   2.816   2.020   8.591 -0.3873 -0.1944 -0.2958
 5902TIP3    H139265   2.905   2.026   8.556  0.0153 -0.9292  0.5875
 5902TIP3    H239266   2.810   2.093   8.652  0.1976 -1.1205  0.9049
 5903TIP3   OH239267   3.048   1.605   1.331  0.3040  0.4784  0.0400
 5903TIP3    H139268   3.009   1.643   1.410 -0.2508  0.7859 -0.3709
 5903TIP3    H239269   3.136   1.579   1.358 -0.3979 -0.8512  1.1887
 5904TIP3   OH239270   4.477   3.563   1.913  0.8107  0.3905  0.4175
 5904TIP3    H139271   4.485   3.643   1.862  1.6311 -0.0934 -0.2411
 5904TIP3    H239272   4.429   3.589   1.992 -1.2890  0.9885 -0.9672
 5905TIP3   OH239273   2.639   1.835   1.012 -0.5206  0.5136  0.8326
 5905TIP3    H139274   2.589   1.784   0.948 -2.4275  1.7313  1.2572
 5905TIP3    H239275   2.644   1.778   1.089 -0.6876  0.1161  0.5532
 5906TIP3   OH239276   4.653   6.193   8.346 -0.1286 -0.3183 -0.2261
 5906TIP3    H139277   4.703   6.166   8.423 -0.2626 -0.5184 -0.2112
 5906TIP3    H239278   4.567   6.154   8.357 -0.6393  0.8756  0.2655
 5907TIP3   OH239279   4.250   6.189   3.717  0.7122  0.2339  0.2196
 5907TIP3    H139280   4.252   6.221   3.626  1.1695 -0.9168 -0.1983
 5907TIP3    H239281   4.314   6.118   3.718  0.7056  0.2296  1.4548
 5908TIP3   OH239282   0.813   2.559   0.426 -0.0189  0.8852  0.5844
 5908TIP3    H139283   0.767   2.618   0.366  1.4096  0.6672 -0.7888
 5908TIP3    H239284   0.844   2.616   0.496  0.7240  1.6896 -0.3570
 5909TIP3   OH239285   2.039   0.379   0.031  0.4981 -0.1010 -0.7890
 5909TIP3    H139286   2.084   0.446   0.082 -0.9232 -0.3051  0.8174
 5909TIP3    H239287   2.105   0.349  -0.032  1.9302  1.0488  0.0858
 5910TIP3   OH239288   0.732   5.346   1.402 -0.3720  0.3668  0.2702
 5910TIP3    H139289   0.794   5.366   1.332 -1.6080 -1.8409 -1.5924
 5910TIP3    H239290   0.786   5.339   1.480  1.4013  0.6806 -0.8674
 5911TIP3   OH239291   5.624   4.643   3.294 -0.4442  0.1252  0.0280
 5911TIP3    H139292   5.577   4.564   3.266 -1.1746  0.2547  0.8294
 5911TIP3    H239293   5.567   4.715   3.268 -0.4011  0.3159  0.4465
 5912TIP3   OH239294   5.375   0.041   0.480  0.9447  0.2560  0.4033
 5912TIP3    H139295   5.298   0.067   0.530 -0.2865 -1.9341 -0.2444
 5912TIP3    H239296   5.399   0.119   0.430  0.0640  1.4127  1.7319
 5913TIP3   OH239297   1.409   0.009   8.490  0.4233 -0.4501  0.1886
 5913TIP3    H139298   1.411  -0.083   8.518  1.3605 -0.1956  1.0043
 5913TIP3    H239299   1.426   0.005   8.396  0.8211 -1.0956  0.2769
 5914TIP3   OH239300   2.800   6.191   0.260  0.1062 -0.8055 -0.4307
 5914TIP3    H139301   2.782   6.275   0.302  0.6374 -0.1939 -1.3901
 5914TIP3    H239302   2.833   6.135   0.330  2.6103  0.6981 -0.3219
 5915TIP3   OH239303   4.937   5.947   0.423  0.2391  0.1714  0.0813
 5915TIP3    H139304   4.872   5.985   0.482 -0.3391 -1.3149  0.4316
 5915TIP3    H239305   4.887   5.925   0.344  0.1821 -1.4421  0.5416
 5916TIP3   OH239306   5.548   6.771   1.189 -0.4673  0.0160 -0.6517
 5916TIP3    H139307   5.549   6.676   1.190 -0.8305 -0.0049  1.1899
 5916TIP3    H239308   5.582   6.796   1.275 -0.2429  1.5570 -1.1579
 5917TIP3   OH239309   6.804   3.493   1.858 -0.6014  0.7660 -0.1000
 5917TIP3    H139310   6.821   3.400   1.874 -1.0470  0.6061 -0.5335
 5917TIP3    H239311   6.889   3.535   1.869  0.1110  0.0032 -2.1760
 5918TIP3   OH239312   4.975   3.647   8.430 -0.3952  0.2455 -0.3020
 5918TIP3    H139313   4.946   3.572   8.482 -0.2005  0.7090  0.4867
 5918TIP3    H239314   5.027   3.700   8.491 -0.5886  1.0617 -0.8347
 5919TIP3   OH239315   5.844   1.977   2.739 -0.1517  0.1519 -0.2240
 5919TIP3    H139316   5.810   1.945   2.655  1.2910  0.3781 -0.9230
 5919TIP3    H239317   5.813   2.067   2.745  0.1776  0.3062 -0.7761
 5920TIP3   OH239318   2.790   0.373   8.146  0.3729  0.1625  0.1393
 5920TIP3    H139319   2.709   0.325   8.125  0.8524 -0.6329  0.0861
 5920TIP3    H239320   2.848   0.308   8.184  0.6797  0.9188  1.0034
 5921TIP3   OH239321   4.039   1.107   8.565 -0.9948  0.0582  0.1190
 5921TIP3    H139322   4.079   1.088   8.650 -0.9791  2.2128  0.6673
 5921TIP3    H239323   3.957   1.058   8.565 -1.1814  0.3259  1.5700
 5922TIP3   OH239324   6.395   2.739   6.827  0.1785  0.1665 -0.4470
 5922TIP3    H139325   6.438   2.785   6.754  3.1154 -0.5377  0.6795
 5922TIP3    H239326   6.349   2.666   6.785  1.2656  0.1491 -1.7003
 5923TIP3   OH239327   1.930   3.949   1.315  0.1034  0.2904  0.5880
 5923TIP3    H139328   1.948   4.022   1.374 -0.2487 -0.7750  2.0702
 5923TIP3    H239329   1.979   3.876   1.352 -0.2328 -0.4454 -0.3789
 5924TIP3   OH239330   6.228   2.652   0.405 -0.2781 -0.2894 -0.0103
 5924TIP3    H139331   6.141   2.621   0.381 -1.4767  1.6167  1.6384
 5924TIP3    H239332   6.223   2.747   0.400  1.8005 -0.1262 -0.0977
 5925TIP3   OH239333   1.912   4.608   7.764 -0.8387 -0.4049  0.0684
 5925TIP3    H139334   1.855   4.681   7.743  0.0414  0.8129  1.7030
 5925TIP3    H239335   1.903   4.597   7.859  0.5315 -1.1364  0.1358
 5926TIP3   OH239336   4.704   5.713   3.031  0.0208 -0.4831 -0.3958
 5926TIP3    H139337   4.759   5.653   3.081 -0.8312 -1.9638 -1.1967
 5926TIP3    H239338   4.760   5.790   3.017  0.8441 -0.7059  1.3539
 5927TIP3   OH239339   3.335   4.262   1.011  0.0282  0.0666 -0.1915
 5927TIP3    H139340   3.339   4.275   0.916  2.2117 -1.3057 -0.3749
 5927TIP3    H239341   3.363   4.345   1.048  0.0784  0.3247 -0.7953
 5928TIP3   OH239342   5.209   0.971   2.109  0.2387  0.1668  0.0864
 5928TIP3    H139343   5.195   0.884   2.072  0.3108  0.0760  0.2732
 5928TIP3    H239344   5.187   1.031   2.038  0.3445 -0.0078 -0.0950
 5929TIP3   OH239345   3.238   5.074   2.314  0.5996 -0.2536 -0.5889
 5929TIP3    H139346   3.308   5.131   2.347  0.7578 -0.8996  0.2360
 5929TIP3    H239347   3.264   4.986   2.343 -0.5048 -0.5166 -0.3640
 5930TIP3   OH239348   5.987   0.245   2.558 -0.1251 -0.0351  0.3748
 5930TIP3    H139349   6.009   0.326   2.513  0.9838 -0.6749 -0.2891
 5930TIP3    H239350   5.914   0.208   2.509 -0.6874  0.5888  0.7299
 5931TIP3   OH239351   6.492   3.615   0.042 -0.5204  0.2583  0.0452
 5931TIP3    H139352   6.424   3.644  -0.018 -0.5697  1.7686  0.7782
 5931TIP3    H239353   6.555   3.569  -0.013 -0.5832  1.5715 -1.1729
 5932TIP3   OH239354   2.604   5.819   1.399 -0.2532 -0.0605  0.1615
 5932TIP3    H139355   2.636   5.909   1.395  1.6251 -0.7248 -0.7007
 5932TIP3    H239356   2.605   5.797   1.493  0.1156  0.5364  0.2992
 5933TIP3   OH239357   0.437   3.803   2.098 -0.0915  0.5898 -0.1946
 5933TIP3    H139358   0.348   3.781   2.129 -0.1466 -0.0515 -0.7839
 5933TIP3    H239359   0.427   3.886   2.052 -0.0272  1.5257  1.3838
 5934TIP3   OH239360   5.716   5.801   2.440  0.1561 -0.1260  0.5058
 5934TIP3    H139361   5.661   5.879   2.437  1.1955  0.6360 -2.2258
 5934TIP3    H239362   5.787   5.825   2.499 -0.1683  0.5578  0.6348
 5935TIP3   OH239363   5.269   3.378   0.595  0.7107  0.4840  0.2186
 5935TIP3    H139364   5.178   3.371   0.624 -0.3123  1.3361 -2.4910
 5935TIP3    H239365   5.309   3.438   0.658 -0.7807  0.6492  1.0732
 5936TIP3   OH239366   3.854   4.918   0.361  0.1874 -1.0009  0.0366
 5936TIP3    H139367   3.886   4.845   0.308  1.7835  0.7356 -1.5345
 5936TIP3    H239368   3.933   4.958   0.398 -0.7778 -1.0936  2.3530
 5937TIP3   OH239369   4.920   3.007   6.989 -0.2001  0.2674 -0.4302
 5937TIP3    H139370   4.945   2.924   7.028 -1.8772  0.6430  1.6463
 5937TIP3    H239371   5.002   3.057   6.983  1.0503 -1.8841 -2.8788
 5938TIP3   OH239372   6.676   1.712   7.993  0.9223 -0.0355  0.2959
 5938TIP3    H139373   6.771   1.714   8.002  0.8162  0.5425  1.4596
 5938TIP3    H239374   6.643   1.745   8.076 -0.3005  0.0850 -0.2121
 5939TIP3   OH239375   0.839   1.998   2.740 -0.3679  0.3512  0.1074
 5939TIP3    H139376   0.905   2.032   2.801  0.8972  0.2934 -1.1582
 5939TIP3    H239377   0.768   2.061   2.744 -0.3294  0.3507  1.6269
 5940TIP3   OH239378   4.070   0.569   2.820 -0.5003 -0.1439  0.1630
 5940TIP3    H139379   3.985   0.567   2.777  0.5066 -0.4213 -1.9214
 5940TIP3    H239380   4.132   0.592   2.751  1.3181 -1.4168  1.2779
 5941TIP3   OH239381   6.096   6.007   0.436 -0.7212 -0.1915  0.0899
 5941TIP3    H139382   6.089   6.099   0.409 -1.7934 -0.0155  0.9177
 5941TIP3    H239383   6.110   5.959   0.354 -1.4434  0.5815 -0.5030
 5942TIP3   OH239384   3.289   1.377   0.922 -0.2581 -0.3813 -0.2617
 5942TIP3    H139385   3.334   1.450   0.964  0.8181 -1.1888  0.0427
 5942TIP3    H239386   3.206   1.414   0.891 -0.1009  0.7547  0.6117
 5943TIP3   OH239387   1.984   1.406   1.731  0.0288 -0.4047 -0.0014
 5943TIP3    H139388   1.980   1.462   1.808  0.7214  0.1061 -0.3269
 5943TIP3    H239389   1.921   1.336   1.749  0.9966 -0.9313  1.5209
 5944TIP3   OH239390   2.307   1.230   1.136  0.2776 -0.3922  0.3589
 5944TIP3    H139391   2.359   1.265   1.064  0.4222 -0.4764  0.4222
 5944TIP3    H239392   2.294   1.138   1.114 -1.0645 -0.0543 -0.3777
 5945TIP3   OH239393   4.872   4.693   1.479 -0.2321  0.5276  0.3568
 5945TIP3    H139394   4.853   4.611   1.523 -0.0161 -0.7641 -1.8454
 5945TIP3    H239395   4.821   4.691   1.398 -0.2348  2.5775  0.2341
 5946TIP3   OH239396   6.052   1.880   3.004 -0.3200  0.3106  0.1398
 5946TIP3    H139397   5.964   1.903   3.035 -0.3996 -1.2162  1.1115
 5946TIP3    H239398   6.049   1.786   2.988  1.5299 -0.0494  1.5789
 5947TIP3   OH239399   6.781   4.596   7.584 -0.4061  0.0013 -0.7629
 5947TIP3    H139400   6.845   4.585   7.513 -1.6440  0.9610 -2.0684
 5947TIP3    H239401   6.711   4.535   7.562 -1.0291  0.6689 -0.6337
 5948TIP3   OH239402   0.669   3.194   1.767 -0.0756 -0.3561  0.1423
 5948TIP3    H139403   0.700   3.166   1.681  0.9649 -0.3992  0.5178
 5948TIP3    H239404   0.720   3.142   1.830 -2.2624 -1.8725  0.8127
 5949TIP3   OH239405   6.680   5.244   0.884 -0.0411 -0.4368 -0.2066
 5949TIP3    H139406   6.706   5.156   0.858  0.9385 -0.0305 -0.6431
 5949TIP3    H239407   6.645   5.284   0.804  1.1583  0.1490 -0.4711
 5950TIP3   OH239408   3.772   2.317   0.202  0.5114 -0.0749 -0.2844
 5950TIP3    H139409   3.841   2.261   0.237  0.6099  0.4066  0.3127
 5950TIP3    H239410   3.691   2.267   0.217  0.4613  0.4677  1.4158
 5951TIP3   OH239411   6.830   3.418   7.980 -0.9217  0.4116  0.2016
 5951TIP3    H139412   6.837   3.428   7.885  0.6159 -1.8214 -0.0112
 5951TIP3    H239413   6.759   3.355   7.993 -1.0931  0.6685  0.5373
 5952TIP3   OH239414   4.696   5.056   8.049  0.3918 -0.2320 -0.3697
 5952TIP3    H139415   4.743   5.124   8.096 -2.1487  2.3725 -1.3359
 5952TIP3    H239416   4.740   5.049   7.965  0.3272  0.6626 -0.4818
 5953TIP3   OH239417   4.641   5.235   8.660 -0.4301  0.7599  0.5513
 5953TIP3    H139418   4.633   5.140   8.670 -0.4776  0.8450  1.4968
 5953TIP3    H239419   4.589   5.256   8.583  0.6585 -0.1302 -0.4546
 5954TIP3   OH239420   5.111   3.777   2.967 -0.7880 -0.7954 -0.1484
 5954TIP3    H139421   5.127   3.861   3.011 -2.0477  0.7421 -2.4240
 5954TIP3    H239422   5.198   3.745   2.944 -0.2687 -0.2595  0.9858
 5955TIP3   OH239423   1.581   3.212   0.643  0.3027 -0.0570  0.0515
 5955TIP3    H139424   1.673   3.190   0.659  0.9011 -0.3193 -3.1973
 5955TIP3    H239425   1.532   3.136   0.676  1.4358 -0.8872 -0.1310
 5956TIP3   OH239426   1.541   4.376   0.862  0.2378 -0.3889 -1.1350
 5956TIP3    H139427   1.480   4.370   0.935 -1.4334  1.3156 -2.2816
 5956TIP3    H239428   1.627   4.383   0.903 -0.6263  0.4164  0.6760
 5957TIP3   OH239429   0.579   4.494   1.084  0.5419  0.0628 -0.0396
 5957TIP3    H139430   0.550   4.424   1.026  0.5317  0.3768 -0.4170
 5957TIP3    H239431   0.663   4.522   1.048  0.1886  0.7563 -0.3419
 5958TIP3   OH239432   4.142   3.075   2.778 -0.3234  0.4363 -0.5563
 5958TIP3    H139433   4.090   3.133   2.833  2.6954  1.1712  1.8062
 5958TIP3    H239434   4.161   2.999   2.834  1.5495  0.4658 -1.0731
 5959TIP3   OH239435   0.768   0.055   0.007 -0.1578 -0.4546  0.1089
 5959TIP3    H139436   0.674   0.037  -0.002 -0.4639  1.4823 -1.0481
 5959TIP3    H239437   0.797   0.078  -0.081  0.7875  1.6277  0.8912
 5960TIP3   OH239438   4.787   1.324   1.426 -0.2332 -0.3012  0.8848
 5960TIP3    H139439   4.708   1.378   1.426 -0.5153 -0.6330 -1.2347
 5960TIP3    H239440   4.818   1.327   1.516 -0.8936  2.4512  1.1172
 5961TIP3   OH239441   3.687   2.485   7.620  0.2517 -0.0933  0.6322
 5961TIP3    H139442   3.701   2.553   7.686 -0.8273  1.4654 -0.6655
 5961TIP3    H239443   3.601   2.448   7.642 -0.9213  1.6126 -0.8038
 5962TIP3   OH239444   4.214   2.289   2.537  0.7820 -0.0483  0.0652
 5962TIP3    H139445   4.242   2.352   2.470  0.4595  0.0435  0.0150
 5962TIP3    H239446   4.195   2.343   2.614 -1.4724  0.1676 -0.5862
 5963TIP3   OH239447   5.371   1.351   0.313 -0.0894 -0.5361 -0.4329
 5963TIP3    H139448   5.378   1.276   0.254 -1.7108 -0.5527 -0.6347
 5963TIP3    H239449   5.362   1.313   0.400 -0.9050 -0.5829 -0.5345
 5964TIP3   OH239450   2.494   2.230   2.046 -0.0579  0.0462 -0.1324
 5964TIP3    H139451   2.557   2.158   2.037  0.1663  0.3438 -1.0318
 5964TIP3    H239452   2.494   2.250   2.140  1.8106  0.5875 -0.1979
 5965TIP3   OH239453   3.758   4.696   2.235 -0.0742 -0.3447  0.1448
 5965TIP3    H139454   3.755   4.603   2.257 -0.4728 -0.6874 -1.2392
 5965TIP3    H239455   3.843   4.707   2.192  0.6487  0.2833  1.6632
 5966TIP3   OH239456   3.449   4.794   1.829 -0.5210 -0.0708  0.5110
 5966TIP3    H139457   3.512   4.825   1.764 -1.9455  2.0408  0.0182
 5966TIP3    H239458   3.503   4.756   1.898  1.3490  1.9619  0.2966
 5967TIP3   OH239459   6.086   4.202   1.397 -0.8968  0.1287  0.1790
 5967TIP3    H139460   6.115   4.115   1.425  0.8646  1.2126  1.9375
 5967TIP3    H239461   6.116   4.210   1.307  1.4502 -0.0805  0.8810
 5968TIP3   OH239462   5.739   0.251   7.475  0.0255  0.1193 -0.0025
 5968TIP3    H139463   5.746   0.319   7.408 -1.2082  0.1219 -0.1645
 5968TIP3    H239464   5.654   0.209   7.457  0.2859 -0.7603  0.7420
 5969TIP3   OH239465   5.328   2.911   2.161  0.2540  0.1904 -0.2076
 5969TIP3    H139466   5.378   2.834   2.136 -2.4987 -1.2891 -1.6950
 5969TIP3    H239467   5.372   2.983   2.116  1.4906 -0.8865 -0.8019
 5970TIP3   OH239468   4.588   6.093   2.885  0.5507  0.1087 -0.4478
 5970TIP3    H139469   4.572   6.009   2.926 -1.3452 -0.0390 -1.3583
 5970TIP3    H239470   4.671   6.123   2.922 -0.1390 -0.8162  2.0721
 5971TIP3   OH239471   4.364   1.230   7.042  0.1580 -0.2235 -0.0144
 5971TIP3    H139472   4.408   1.305   7.003  0.2860 -1.1491 -1.7329
 5971TIP3    H239473   4.433   1.186   7.093  0.2495  0.4270  0.4310
 5972TIP3   OH239474   1.649   5.324   2.039 -0.1966  0.3409 -0.5157
 5972TIP3    H139475   1.575   5.289   2.088  0.7059  0.6602  1.1477
 5972TIP3    H239476   1.676   5.401   2.088  0.2433  1.1795 -1.9982
 5973TIP3   OH239477   4.215   4.158   0.335 -0.4260  0.4236  0.0324
 5973TIP3    H139478   4.177   4.072   0.356 -0.7991  1.1199  2.3988
 5973TIP3    H239479   4.294   4.164   0.388  0.3620  1.0346 -1.1443
 5974TIP3   OH239480   5.343   0.864   0.582  0.6570 -0.1045  0.1538
 5974TIP3    H139481   5.250   0.852   0.562  0.3435  0.6034  1.1254
 5974TIP3    H239482   5.384   0.873   0.496 -0.5055  1.8657 -0.2547
 5975TIP3   OH239483   4.471   6.723   0.278 -0.0122 -0.0939 -0.2304
 5975TIP3    H139484   4.552   6.754   0.318  0.3942  0.5588 -1.4927
 5975TIP3    H239485   4.498   6.646   0.227 -0.5455 -1.0007  0.8130
 5976TIP3   OH239486   6.648   5.337   2.876 -0.2849 -0.0009  0.7517
 5976TIP3    H139487   6.740   5.313   2.876 -0.7712 -2.0490  0.1615
 5976TIP3    H239488   6.647   5.427   2.908  1.8525 -0.1145  1.3036
 5977TIP3   OH239489   3.160   6.570   8.007  0.0425 -0.0655  0.6414
 5977TIP3    H139490   3.111   6.498   8.046 -0.9539 -0.7574 -1.7283
 5977TIP3    H239491   3.112   6.649   8.033 -0.3331 -0.4559  1.1486
 5978TIP3   OH239492   2.650   3.616   1.187 -0.6369 -0.1542  0.3361
 5978TIP3    H139493   2.615   3.655   1.107 -1.8989  0.3488  1.0964
 5978TIP3    H239494   2.742   3.644   1.189 -1.1747  1.7926  0.2169
 5979TIP3   OH239495   0.310   6.776   8.143  0.1138  0.7189  0.7437
 5979TIP3    H139496   0.403   6.776   8.167  0.3032  2.3655  0.1322
 5979TIP3    H239497   0.271   6.844   8.198 -0.0449  2.3549 -1.2750
 5980TIP3   OH239498   3.364   3.764   0.348 -0.9220  0.3714 -0.0195
 5980TIP3    H139499   3.359   3.839   0.407 -1.3930  0.1544  0.2235
 5980TIP3    H239500   3.422   3.792   0.277 -1.5788  1.1865 -0.2507
 5981TIP3   OH239501   6.359   5.438   1.048  0.1048  0.0669 -0.6248
 5981TIP3    H139502   6.453   5.451   1.056  0.2016 -1.3045  1.5123
 5981TIP3    H239503   6.321   5.509   1.100  0.1090 -0.7230  0.5057
 5982TIP3   OH239504   3.741   1.576   1.886 -0.4660 -0.1535  0.2175
 5982TIP3    H139505   3.687   1.628   1.827 -0.4438  0.3745  0.6627
 5982TIP3    H239506   3.754   1.493   1.839 -0.7366  0.1295 -0.3683
 5983TIP3   OH239507   0.495   6.727   3.023 -0.1810  0.1656 -0.3865
 5983TIP3    H139508   0.537   6.802   3.063  1.7674 -0.5446 -0.9500
 5983TIP3    H239509   0.530   6.651   3.070  1.6223 -0.6391 -2.8194
 5984TIP3   OH239510   3.022   3.914   2.198  0.1703 -0.2668  0.0197
 5984TIP3    H139511   3.034   3.829   2.241 -1.5330 -0.8459 -0.5449
 5984TIP3    H239512   2.991   3.892   2.110  0.4636  0.9445 -0.4016
 5985TIP3   OH239513   2.767   0.581   8.580  0.1551  0.0794  0.7434
 5985TIP3    H139514   2.847   0.553   8.626  0.7895 -0.8442 -0.8326
 5985TIP3    H239515   2.722   0.638   8.642  1.4215 -0.3851  2.1428
 5986TIP3   OH239516   3.474   4.147   1.237 -0.0911 -0.6392 -0.0098
 5986TIP3    H139517   3.466   4.241   1.255  1.6160 -0.4005 -0.2964
 5986TIP3    H239518   3.448   4.138   1.145 -0.1901 -0.4382 -0.0022
 5987TIP3   OH239519   1.223   1.345   7.330  0.7695  0.7067  0.5555
 5987TIP3    H139520   1.275   1.425   7.334  1.1819  0.4583  0.1869
 5987TIP3    H239521   1.287   1.275   7.323  0.3728  0.4395 -0.5108
 5988TIP3   OH239522   0.137   6.577   8.244  0.1186  0.0828  0.0169
 5988TIP3    H139523   0.187   6.649   8.281 -1.1226  0.2705  1.4524
 5988TIP3    H239524   0.158   6.502   8.301 -1.1433  0.1545  0.6082
 5989TIP3   OH239525   3.694   1.268   2.185  0.3403 -0.2177 -0.0221
 5989TIP3    H139526   3.761   1.205   2.159  0.6478 -0.1591  0.6185
 5989TIP3    H239527   3.615   1.238   2.140  0.5568 -0.8772  0.0254
 5990TIP3   OH239528   3.392   2.692   0.666  0.7412  0.4719  0.6306
 5990TIP3    H139529   3.470   2.682   0.611 -0.3105  1.7147 -1.1987
 5990TIP3    H239530   3.320   2.704   0.604 -0.6794  0.9873  2.2846
 5991TIP3   OH239531   3.648   5.443   0.055  0.7722  0.2422 -0.0926
 5991TIP3    H139532   3.603   5.382  -0.003  2.9075 -1.4518 -0.0704
 5991TIP3    H239533   3.580   5.507   0.079 -1.0616 -1.0180 -1.6137
 5992TIP3   OH239534   1.458   3.889   2.362  0.1721 -0.4639 -0.1581
 5992TIP3    H139535   1.509   3.961   2.325  0.2687 -0.4632 -0.0255
 5992TIP3    H239536   1.501   3.810   2.330 -1.3707 -0.5163 -2.3480
 5993TIP3   OH239537   0.773   3.739   2.090 -0.5936  0.1644 -0.3568
 5993TIP3    H139538   0.802   3.827   2.064  1.5840 -0.3425  0.1869
 5993TIP3    H239539   0.829   3.680   2.040  0.3955 -0.8631  1.8721
 5994TIP3   OH239540   2.319   3.005   1.657 -0.4738 -0.2080 -0.1190
 5994TIP3    H139541   2.267   3.027   1.734 -0.4918 -1.6557  0.3074
 5994TIP3    H239542   2.321   2.909   1.655  0.8950 -0.1996 -0.9923
 5995TIP3   OH239543   5.528   5.177   8.383 -0.1347  0.3931  0.0100
 5995TIP3    H139544   5.491   5.164   8.296 -2.2874  0.1601  0.9157
 5995TIP3    H239545   5.492   5.106   8.435  2.1279 -0.2310  0.8426
 5996TIP3   OH239546   0.124   1.883   7.710  0.8442 -0.3522 -0.4296
 5996TIP3    H139547   0.130   1.897   7.616  3.3436 -0.9778 -0.4485
 5996TIP3    H239548   0.164   1.962   7.748  1.0862 -0.7008  0.0485
 5997TIP3   OH239549   5.952   6.131   1.119 -0.1310  0.7138  0.1202
 5997TIP3    H139550   5.912   6.204   1.070  0.7173 -0.4394 -2.4908
 5997TIP3    H239551   5.898   6.055   1.096  1.6357 -0.2814 -0.9797
 5998TIP3   OH239552   5.593   3.011   2.435  0.0334  0.5628  0.3135
 5998TIP3    H139553   5.513   3.063   2.424  0.2144  0.7744 -0.0448
 5998TIP3    H239554   5.641   3.025   2.353 -0.7556 -1.6360 -0.5789
 5999TIP3   OH239555   1.456   4.741   1.921 -0.3725 -0.5481 -0.9108
 5999TIP3    H139556   1.489   4.805   1.858 -0.0271  0.1438 -0.0543
 5999TIP3    H239557   1.520   4.743   1.993 -1.7111  0.0616  0.3231
 6000TIP3   OH239558   6.693   2.722   3.230 -0.2001  0.1656 -0.2095
 6000TIP3    H139559   6.742   2.671   3.166 -1.5177 -1.1855 -0.2160
 6000TIP3    H239560   6.675   2.660   3.301 -1.9608  0.5469 -0.2665
 6001TIP3   OH239561   5.260   2.535   0.433  0.3772 -0.0055 -0.4344
 6001TIP3    H139562   5.185   2.582   0.397 -0.9265 -0.6301  1.3129
 6001TIP3    H239563   5.251   2.445   0.399  0.2182 -0.1320 -0.0587
 6002TIP3   OH239564   4.343   3.342   0.690  0.0239  0.8549  0.0746
 6002TIP3    H139565   4.365   3.360   0.598 -1.3617  2.5364  0.0144
 6002TIP3    H239566   4.255   3.303   0.686 -0.3200  1.5443  0.7158
 6003TIP3   OH239567   4.880   6.606   0.913  0.2660 -0.1024 -0.5434
 6003TIP3    H139568   4.875   6.627   1.006  0.5060  1.2501 -0.8135
 6003TIP3    H239569   4.905   6.688   0.871 -1.0644 -0.3501 -1.9457
 6004TIP3   OH239570   4.074   2.657   7.665  0.0785  0.3742  0.0205
 6004TIP3    H139571   4.080   2.655   7.570 -0.9237 -0.7878 -0.0619
 6004TIP3    H239572   4.089   2.748   7.689 -0.8345  0.9179 -1.3494
 6005TIP3   OH239573   4.311   0.918   1.569 -0.5099  0.0697  0.1690
 6005TIP3    H139574   4.306   0.873   1.654 -1.5360 -1.6532 -0.7337
 6005TIP3    H239575   4.404   0.929   1.553 -0.2127 -1.6466  0.5177
 6006TIP3   OH239576   4.590   0.161   0.202 -0.1576 -0.4054  0.1030
 6006TIP3    H139577   4.656   0.155   0.133 -0.3750 -0.2267 -0.1177
 6006TIP3    H239578   4.608   0.086   0.259  0.0101 -0.5579 -0.1527
 6007TIP3   OH239579   0.093   4.107   1.550  0.0505 -0.5501 -0.2702
 6007TIP3    H139580   0.000   4.122   1.571  0.2580  1.5945 -0.6018
 6007TIP3    H239581   0.096   4.018   1.516 -1.6339 -1.2097  1.1216
 6008TIP3   OH239582   6.032   5.167   2.960  0.0441  0.4377  0.1518
 6008TIP3    H139583   6.053   5.240   2.902 -0.5887  1.1359  0.7816
 6008TIP3    H239584   6.090   5.097   2.932 -0.5280  0.6224 -1.5857
 6009TIP3   OH239585   1.262   2.856   8.652 -0.2452  0.2263  0.1208
 6009TIP3    H139586   1.235   2.764   8.655  1.0037 -0.1573 -0.0188
 6009TIP3    H239587   1.337   2.857   8.593  1.3988  0.9057  2.1124
 6010TIP3   OH239588   4.520   0.881   3.229 -0.3376 -0.3611 -0.8676
 6010TIP3    H139589   4.490   0.971   3.236 -2.3349 -1.1236  1.8706
 6010TIP3    H239590   4.442   0.831   3.208  0.3105 -1.7088 -0.1972
 6011TIP3   OH239591   4.784   5.945   1.923  0.6310 -0.3562  0.0550
 6011TIP3    H139592   4.736   6.026   1.939 -0.8230 -1.4371  1.4671
 6011TIP3    H239593   4.855   5.947   1.988  0.5396 -0.2421  0.1523
 6012TIP3   OH239594   3.617   4.886   1.620 -0.7065  0.3939  0.1057
 6012TIP3    H139595   3.696   4.852   1.579 -0.6108  0.2460  0.4057
 6012TIP3    H239596   3.643   4.971   1.656 -0.5521  0.1290  0.6251
 6013TIP3   OH239597   4.062   3.231   8.612 -0.1100 -0.0432 -0.2046
 6013TIP3    H139598   3.996   3.293   8.582 -1.0392 -1.2003 -0.6399
 6013TIP3    H239599   4.139   3.250   8.558  0.0308  1.5096  0.5097
 6014TIP3   OH239600   4.482   3.810   7.365  0.5536  0.1695 -0.8650
 6014TIP3    H139601   4.512   3.719   7.363 -0.8425 -0.4115  1.1615
 6014TIP3    H239602   4.559   3.860   7.391  0.9669 -0.6584 -0.4429
 6015TIP3   OH239603   2.184   3.052   1.256 -0.7297 -0.0445 -0.0859
 6015TIP3    H139604   2.255   3.089   1.308 -0.5603 -0.6091  0.0964
 6015TIP3    H239605   2.178   2.961   1.285  1.8683 -1.5545 -3.5758
 6016TIP3   OH239606   3.675   5.948   1.826  0.4275  0.6764 -0.3445
 6016TIP3    H139607   3.690   6.037   1.859 -0.3651  0.6993 -0.0159
 6016TIP3    H239608   3.758   5.922   1.789  0.8564  1.3199  0.1377
 6017TIP3   OH239609   1.846   0.506   1.871  0.2738  0.3997 -0.5735
 6017TIP3    H139610   1.819   0.596   1.890 -1.1562 -0.5502  2.4963
 6017TIP3    H239611   1.770   0.453   1.896  1.9362 -1.8168 -0.0070
 6018TIP3   OH239612   5.928   2.865   8.186 -0.0859 -0.5329  0.3830
 6018TIP3    H139613   6.008   2.868   8.238  0.0725  0.0341  0.1109
 6018TIP3    H239614   5.863   2.911   8.240 -0.3813 -1.4698  0.8495
 6019TIP3   OH239615   0.395   5.542   7.899  0.1933 -0.1351  0.3900
 6019TIP3    H139616   0.451   5.616   7.923  1.8397 -0.8478 -1.0495
 6019TIP3    H239617   0.395   5.542   7.803 -0.2213 -1.6541  0.3599
 6020TIP3   OH239618   5.775   1.961   2.261  0.1893 -0.4487 -0.1674
 6020TIP3    H139619   5.782   2.030   2.194 -1.2077  1.4003  1.4546
 6020TIP3    H239620   5.853   1.908   2.248  2.2345  2.3820 -0.5630
 6021TIP3   OH239621   6.354   4.257   2.481 -0.0120 -0.0741  0.6383
 6021TIP3    H139622   6.370   4.323   2.414 -0.1793  0.0081  0.6777
 6021TIP3    H239623   6.338   4.308   2.561 -0.4126 -0.1554  0.6115
 6022TIP3   OH239624   3.807   0.578   8.119  0.3872  0.1443 -0.2672
 6022TIP3    H139625   3.884   0.536   8.159 -0.7488 -2.6109 -0.7465
 6022TIP3    H239626   3.746   0.506   8.103 -1.9131  2.0922 -0.8441
 6023TIP3   OH239627   5.194   5.262   7.680 -0.1799  0.6611 -0.7944
 6023TIP3    H139628   5.179   5.169   7.700  0.2524  0.4081 -1.5902
 6023TIP3    H239629   5.275   5.262   7.630  1.2526  1.7365  1.3580
 6024TIP3   OH239630   0.065   4.558   7.347  0.2158  0.4884 -0.3153
 6024TIP3    H139631   0.124   4.492   7.310 -0.1703  0.1303 -0.2915
 6024TIP3    H239632   0.027   4.602   7.271 -0.3514 -0.0474 -0.3450
 6025TIP3   OH239633   0.263   4.504   0.937  0.0775 -0.2360  0.1909
 6025TIP3    H139634   0.284   4.550   1.018 -2.2591  1.1914  0.0824
 6025TIP3    H239635   0.228   4.420   0.966 -0.7619  0.2738  0.7009
 6026TIP3   OH239636   3.346   2.768   2.376 -0.2800 -0.0453 -0.8585
 6026TIP3    H139637   3.426   2.813   2.351  0.3790 -1.1531 -0.8131
 6026TIP3    H239638   3.340   2.781   2.471  0.0354 -0.2550 -0.8095
 6027TIP3   OH239639   2.294   2.171   2.732  0.0789 -0.0285 -0.2023
 6027TIP3    H139640   2.353   2.185   2.806  1.2412  0.8025 -1.2631
 6027TIP3    H239641   2.217   2.128   2.771  0.8101  0.0663  1.4160
 6028TIP3   OH239642   2.454   5.919   7.348 -0.0538  0.3996  0.9448
 6028TIP3    H139643   2.491   5.885   7.429  0.6651 -0.6766  0.1983
 6028TIP3    H239644   2.530   5.933   7.291 -0.6247 -0.1579  0.0045
 6029TIP3   OH239645   2.938   5.808   7.225 -0.0595  0.4566  0.0047
 6029TIP3    H139646   2.941   5.779   7.134 -1.1406 -0.4094  0.2259
 6029TIP3    H239647   2.953   5.728   7.276  0.8605  0.9871  0.6000
 6030TIP3   OH239648   1.065   4.538   0.464  0.1101 -0.5357 -0.3167
 6030TIP3    H139649   1.048   4.462   0.519 -0.4831  1.1666  2.0139
 6030TIP3    H239650   1.149   4.519   0.423  1.6309 -1.1208  2.7610
 6031TIP3   OH239651   4.102   4.473   1.162 -0.0710  0.2715 -0.0923
 6031TIP3    H139652   4.153   4.413   1.217 -2.5279  0.0123  2.1038
 6031TIP3    H239653   4.063   4.418   1.095  0.8631  0.1303 -0.5304
 6032TIP3   OH239654   0.919   0.725   1.765  0.1976 -0.0496  0.0014
 6032TIP3    H139655   0.943   0.723   1.673  2.0874 -1.0994  0.4559
 6032TIP3    H239656   0.972   0.795   1.803  0.4190 -0.4770  0.5070
 6033TIP3   OH239657   4.779   6.811   0.339  0.2506 -1.1685 -0.5822
 6033TIP3    H139658   4.810   6.794   0.428 -0.8818  1.3010  0.3807
 6033TIP3    H239659   4.826   6.889   0.311  0.9554 -2.1756 -2.4133
 6034TIP3   OH239660   3.092   6.658   8.336  0.2971  0.5129  0.0928
 6034TIP3    H139661   3.019   6.694   8.286  0.1727 -0.2739 -0.3090
 6034TIP3    H239662   3.124   6.731   8.389  0.8279  1.5703 -1.5911
 6035TIP3   OH239663   5.241   3.445   1.136 -0.4084  0.2021 -0.2509
 6035TIP3    H139664   5.326   3.413   1.107 -1.3304 -1.5759 -1.2019
 6035TIP3    H239665   5.247   3.447   1.232  0.2419 -1.3697 -0.2297
 6036TIP3   OH239666   5.893   1.418   1.994  0.3485 -0.0356 -0.2030
 6036TIP3    H139667   5.926   1.382   1.912  0.2393  1.9657 -1.1977
 6036TIP3    H239668   5.964   1.473   2.026  0.0339 -0.0576  0.5531
 6037TIP3   OH239669   5.533   6.792   0.103 -0.1624  0.0933  0.0881
 6037TIP3    H139670   5.517   6.700   0.087 -1.5002  0.3254 -0.0029
 6037TIP3    H239671   5.602   6.794   0.169  0.5871 -0.9408 -0.6309
 6038TIP3   OH239672   5.676   5.460   1.555  0.3246  0.1346  0.2593
 6038TIP3    H139673   5.697   5.487   1.465 -0.0048 -0.8502 -0.1279
 6038TIP3    H239674   5.619   5.384   1.544 -0.3771  0.5014  1.3109
 6039TIP3   OH239675   3.393   3.090   2.087  0.6763 -0.0360  0.6884
 6039TIP3    H139676   3.325   3.148   2.052 -0.7507 -1.8209  0.3259
 6039TIP3    H239677   3.450   3.147   2.137  1.4096  2.2768 -2.4743
 6040TIP3   OH239678   2.739   5.985   0.487  0.4489 -0.0788 -0.0180
 6040TIP3    H139679   2.687   5.997   0.567  0.7636 -0.0366  0.1809
 6040TIP3    H239680   2.682   5.935   0.429 -0.1664  0.7575 -0.1519
 6041TIP3   OH239681   0.335   6.736   2.780 -0.0527 -0.0752  0.4791
 6041TIP3    H139682   0.243   6.718   2.766 -0.7304  2.4616  1.0577
 6041TIP3    H239683   0.371   6.656   2.819 -1.6718 -1.5570 -0.9251
 6042TIP3   OH239684   3.793   1.467   3.068  0.9593  0.4146  0.0783
 6042TIP3    H139685   3.867   1.518   3.035  0.9292 -0.6413 -1.7405
 6042TIP3    H239686   3.718   1.525   3.059  1.4117  1.2161  1.2038
 6043TIP3   OH239687   0.859   0.986   0.918 -0.2598  0.0540  0.0817
 6043TIP3    H139688   0.864   1.081   0.932  0.0157  0.3261 -1.6383
 6043TIP3    H239689   0.937   0.951   0.962  1.8994  1.1217 -2.6128
 6044TIP3   OH239690   4.406   2.512   1.135  0.1230  0.0707  0.2937
 6044TIP3    H139691   4.441   2.568   1.205  0.3556  1.3915 -0.8230
 6044TIP3    H239692   4.484   2.484   1.087 -0.0603 -0.5706  0.3715
 6045TIP3   OH239693   0.798   5.530   2.737 -0.8234 -0.0612 -0.2432
 6045TIP3    H139694   0.703   5.539   2.725 -0.8748  0.2375  0.3315
 6045TIP3    H239695   0.825   5.612   2.778 -0.9326 -1.4841  3.0473
 6046TIP3   OH239696   6.093   4.978   1.182 -0.9494 -0.0304 -0.2137
 6046TIP3    H139697   6.041   4.937   1.113 -1.9654 -0.7304  0.9460
 6046TIP3    H239698   6.105   5.068   1.151 -1.0219 -0.4299 -1.4895
 6047TIP3   OH239699   1.676   1.315   7.312 -0.4038 -0.5159 -0.2290
 6047TIP3    H139700   1.653   1.223   7.324 -1.1486 -0.2361  0.5759
 6047TIP3    H239701   1.658   1.332   7.220  0.0362 -1.2530 -0.4575
 6048TIP3   OH239702   6.665   3.491   2.090 -0.0403  0.3420 -0.1423
 6048TIP3    H139703   6.697   3.402   2.101 -1.5308 -0.1269  0.6815
 6048TIP3    H239704   6.707   3.522   2.010  0.0246 -1.3179 -0.7872
 6049TIP3   OH239705   1.050   4.508   1.284  0.4527 -0.5880 -0.7642
 6049TIP3    H139706   1.012   4.428   1.246 -1.4525 -0.3708  0.5424
 6049TIP3    H239707   0.980   4.573   1.279  1.2294  0.3699  0.2034
 6050TIP3   OH239708   6.574   0.436   1.105 -0.0859  0.0235 -1.3299
 6050TIP3    H139709   6.495   0.450   1.052 -0.7891  1.3877  0.0058
 6050TIP3    H239710   6.616   0.522   1.108 -0.8038  0.3521  1.3957
 6051TIP3   OH239711   4.398   3.531   8.654  0.1311  0.1113 -0.7540
 6051TIP3    H139712   4.422   3.438   8.649  0.3336  0.1986 -1.4459
 6051TIP3    H239713   4.451   3.573   8.586 -0.7299  0.5727 -1.1521
 6052TIP3   OH239714   6.612   5.476   6.765  0.2933  0.2151  0.4103
 6052TIP3    H139715   6.565   5.406   6.720  0.4937 -0.6697  1.5293
 6052TIP3    H239716   6.549   5.547   6.772 -0.6895 -0.7024  1.2918
 6053TIP3   OH239717   0.834   3.002   2.212 -0.1572 -0.1293 -0.0520
 6053TIP3    H139718   0.925   2.981   2.233  0.7035  0.2544 -2.9129
 6053TIP3    H239719   0.787   2.919   2.220  0.7529 -0.6525  0.0136
 6054TIP3   OH239720   4.477   3.070   1.296  0.1597 -0.4929 -0.0075
 6054TIP3    H139721   4.568   3.049   1.276  0.4841  0.4777  0.3957
 6054TIP3    H239722   4.444   2.992   1.341  0.5188 -1.2023 -0.9449
 6055TIP3   OH239723   2.669   2.691   3.009 -0.3551  0.0114 -0.5276
 6055TIP3    H139724   2.717   2.657   3.084 -1.9177 -1.0881  0.0134
 6055TIP3    H239725   2.728   2.677   2.935 -0.3358 -2.6100 -0.1009
 6056TIP3   OH239726   0.124   3.914   1.366 -0.3458 -0.2285  0.3025
 6056TIP3    H139727   0.209   3.877   1.392 -0.0815 -0.1015 -0.3783
 6056TIP3    H239728   0.079   3.841   1.324 -0.8726 -0.5026  1.3043
 6057TIP3   OH239729   4.864   2.251   0.749  0.2110 -0.0763  0.0541
 6057TIP3    H139730   4.906   2.288   0.671 -1.3731 -0.2355 -0.9216
 6057TIP3    H239731   4.878   2.157   0.740  0.0090 -0.0963 -0.0541
 6058TIP3   OH239732   0.329   1.082   2.565  0.0441  0.8992  0.2854
 6058TIP3    H139733   0.313   1.000   2.612 -0.1615  0.2602 -0.8552
 6058TIP3    H239734   0.286   1.149   2.619 -0.1734  0.2004  1.0054
 6059TIP3   OH239735   1.077   5.207   0.376 -0.2677  0.1039  0.1717
 6059TIP3    H139736   1.146   5.259   0.335 -1.1945  1.4765  0.2718
 6059TIP3    H239737   1.006   5.207   0.313 -1.6462  2.0945  1.6061
 6060TIP3   OH239738   4.619   1.580   3.102 -0.6580 -0.2065 -0.0052
 6060TIP3    H139739   4.673   1.509   3.066 -0.5792 -0.2828  0.2669
 6060TIP3    H239740   4.646   1.657   3.052 -1.0801 -0.4554 -0.6332
 6061TIP3   OH239741   0.248   3.282   1.080 -0.3919 -0.6067 -0.1959
 6061TIP3    H139742   0.266   3.226   1.156 -0.3788  0.5569  0.6819
 6061TIP3    H239743   0.158   3.311   1.092 -0.0530  0.4117 -0.0707
 6062TIP3   OH239744   1.947   0.516   1.608  0.3423  0.4514  0.1108
 6062TIP3    H139745   2.001   0.443   1.580 -0.1321  0.2496 -0.2950
 6062TIP3    H239746   1.945   0.509   1.704 -0.0297 -0.3140  0.0572
 6063TIP3   OH239747   4.048   3.571   1.464 -0.3512  0.2083  0.2659
 6063TIP3    H139748   4.061   3.630   1.390 -1.6679 -0.8019 -0.8304
 6063TIP3    H239749   4.092   3.614   1.537 -0.8995  2.3339 -0.5685
 6064TIP3   OH239750   4.558   2.056   7.808 -0.4952 -0.4946  0.4673
 6064TIP3    H139751   4.477   2.026   7.848 -0.2869  0.8573  2.0098
 6064TIP3    H239752   4.545   2.150   7.793 -0.0047 -0.6725 -1.3191
 6065TIP3   OH239753   1.360   6.460   7.967  0.3627 -0.1483  0.1982
 6065TIP3    H139754   1.337   6.435   8.057  0.8218 -1.0993  0.0640
 6065TIP3    H239755   1.368   6.376   7.921  0.8618  0.3077 -0.5481
 6066TIP3   OH239756   4.379   5.136   2.116  0.5353 -0.9808 -0.6045
 6066TIP3    H139757   4.415   5.128   2.205 -1.8190  0.5715  0.6091
 6066TIP3    H239758   4.335   5.052   2.101  0.8821 -1.2299 -0.2545
 6067TIP3   OH239759   1.598   0.159   1.165 -0.5288  0.0018  0.6520
 6067TIP3    H139760   1.685   0.194   1.148 -0.1932 -1.9991 -2.3808
 6067TIP3    H239761   1.538   0.227   1.135  0.0548 -0.0197 -0.6116
 6068TIP3   OH239762   1.288   4.594   0.162  0.4446 -0.1227  0.2085
 6068TIP3    H139763   1.289   4.584   0.257 -1.7933 -0.7728  0.1986
 6068TIP3    H239764   1.327   4.681   0.147 -1.9833  1.3718  1.9601
 6069TIP3   OH239765   5.153   5.942   7.533 -0.1410  0.5749  0.4525
 6069TIP3    H139766   5.192   5.904   7.612 -1.1392  0.1957  0.7864
 6069TIP3    H239767   5.093   6.010   7.566 -0.4013  0.5665  0.0097
 6070TIP3   OH239768   2.618   1.756   1.966  0.7144  0.1653 -0.1165
 6070TIP3    H139769   2.672   1.677   1.956 -0.9207 -0.7109 -3.3022
 6070TIP3    H239770   2.540   1.725   2.013 -0.1230 -0.3272 -1.7399
 6071TIP3   OH239771   2.712   4.484   0.214 -0.1689 -0.2095 -0.3435
 6071TIP3    H139772   2.633   4.431   0.206 -1.2576  1.0200  1.6443
 6071TIP3    H239773   2.755   4.452   0.293  1.6441 -1.1836 -1.6461
 6072TIP3   OH239774   1.343   1.375   2.016 -0.8281 -0.0681 -0.1983
 6072TIP3    H139775   1.248   1.379   2.004 -1.3593 -3.0207  2.0485
 6072TIP3    H239776   1.367   1.287   1.988  1.1113  0.3036  0.2010
 6073TIP3   OH239777   3.000   6.122   7.912 -0.4600  0.0955 -0.2319
 6073TIP3    H139778   3.018   6.091   7.823 -1.1719  1.1763 -0.7639
 6073TIP3    H239779   3.000   6.042   7.965 -0.7973 -0.6554 -1.3283
 6074TIP3   OH239780   5.766   1.210   0.825 -0.2601 -0.5078  0.8313
 6074TIP3    H139781   5.837   1.232   0.765  0.2442 -1.1119  1.1950
 6074TIP3    H239782   5.703   1.282   0.816  1.3552  1.1455  2.0122
 6075TIP3   OH239783   1.856   4.176   1.876 -0.0088 -0.1717  0.2651
 6075TIP3    H139784   1.827   4.160   1.966 -1.6509 -0.5483 -0.3053
 6075TIP3    H239785   1.800   4.121   1.822 -0.5119  1.6282 -1.1535
 6076TIP3   OH239786   1.120   2.749   1.600  1.0886 -0.3174  0.0473
 6076TIP3    H139787   1.038   2.797   1.593  0.5541 -0.6761  2.7889
 6076TIP3    H239788   1.094   2.657   1.598  1.4230 -0.4316  0.6538
 6077TIP3   OH239789   2.623   3.086   7.733  0.0611  0.4918  0.2739
 6077TIP3    H139790   2.625   2.991   7.738 -0.3132  0.4933  0.5655
 6077TIP3    H239791   2.536   3.110   7.766 -0.0485  0.9050 -0.2829
 6078TIP3   OH239792   3.581   3.271   3.050 -0.5880 -0.3428  0.3610
 6078TIP3    H139793   3.568   3.295   3.142 -1.0974  0.7348  0.0227
 6078TIP3    H239794   3.506   3.309   3.005  0.5225  0.6354 -0.7351
 6079TIP3   OH239795   0.269   0.207   1.763  0.3234 -0.1491 -0.0340
 6079TIP3    H139796   0.339   0.270   1.779  1.5917 -0.9372 -2.1287
 6079TIP3    H239797   0.266   0.153   1.842  1.8955  0.0751  0.1975
 6080TIP3   OH239798   1.343   2.152   6.820  0.3358  0.0551  0.4725
 6080TIP3    H139799   1.386   2.099   6.753 -2.0219 -1.4905  0.0703
 6080TIP3    H239800   1.339   2.240   6.783  1.1961 -0.2482 -0.3781
 6081TIP3   OH239801   0.396   2.183   1.338  0.6760 -0.1858 -0.8574
 6081TIP3    H139802   0.332   2.211   1.273 -1.4153 -0.2664  1.0642
 6081TIP3    H239803   0.382   2.088   1.346 -0.0823  0.0216  0.6509
 6082TIP3   OH239804   5.094   0.271   2.537  0.4387  0.1105  0.2103
 6082TIP3    H139805   5.095   0.352   2.589  1.9815  0.6615 -0.6168
 6082TIP3    H239806   5.124   0.298   2.450  1.5351 -1.4475  0.0631
 6083TIP3   OH239807   1.913   2.219   2.623 -0.6080 -0.2477 -0.1895
 6083TIP3    H139808   1.970   2.165   2.678  0.5315  2.0307  1.0019
 6083TIP3    H239809   1.839   2.241   2.680 -1.8421 -1.6785 -1.1486
 6084TIP3   OH239810   0.664   2.831   8.058 -0.4574  0.2587  0.0468
 6084TIP3    H139811   0.634   2.740   8.068 -1.6533  0.5493 -0.6644
 6084TIP3    H239812   0.635   2.857   7.970  1.5937  0.7232 -0.5421
 6085TIP3   OH239813   6.698   1.360   8.545 -0.2207  0.3644 -0.1161
 6085TIP3    H139814   6.693   1.293   8.612  0.7685  1.0292  0.6511
 6085TIP3    H239815   6.702   1.442   8.593  2.3709  0.7708 -0.8753
 6086TIP3   OH239816   1.572   3.966   7.243  0.7976  0.0035 -0.4501
 6086TIP3    H139817   1.500   3.918   7.202  0.5019 -0.3994  0.5128
 6086TIP3    H239818   1.531   4.016   7.313  1.2838  0.7381 -0.6760
 6087TIP3   OH239819   1.001   1.964   7.805  0.1039 -0.2637 -0.2174
 6087TIP3    H139820   1.059   2.039   7.791  0.2516 -0.0399  1.3573
 6087TIP3    H239821   0.946   1.962   7.727 -0.0097  1.5979 -0.2511
 6088TIP3   OH239822   2.688   2.348   0.969 -0.1597 -0.1294  0.3869
 6088TIP3    H139823   2.692   2.434   0.927 -0.0745  0.2575  1.1633
 6088TIP3    H239824   2.595   2.336   0.987 -0.0065  0.5792  1.8059
 6089TIP3   OH239825   2.966   0.174   7.519 -0.6643  0.5806 -0.2365
 6089TIP3    H139826   2.874   0.164   7.547 -0.0496 -0.3694  1.6544
 6089TIP3    H239827   2.991   0.087   7.489 -0.3269  0.7975 -0.5828
 6090TIP3   OH239828   3.039   5.187   1.810  0.0695 -0.1662 -0.0092
 6090TIP3    H139829   3.110   5.128   1.787 -0.3231 -0.3671 -0.7596
 6090TIP3    H239830   3.024   5.239   1.731  0.2354  0.7666  0.5512
 6091TIP3   OH239831   1.258   0.666   0.969  0.2240 -0.5082  0.1274
 6091TIP3    H139832   1.331   0.626   0.921  0.6340  0.6429 -0.2414
 6091TIP3    H239833   1.298   0.705   1.046 -0.2137 -1.0262  0.6260
 6092TIP3   OH239834   1.325   5.685   2.037 -0.6891 -0.6781  0.8474
 6092TIP3    H139835   1.284   5.668   1.952  1.2562 -2.3255  0.1434
 6092TIP3    H239836   1.311   5.779   2.053 -0.9804 -0.3029 -1.3635
 6093TIP3   OH239837   2.478   3.949   8.070 -0.2423  0.2505 -0.1430
 6093TIP3    H139838   2.383   3.957   8.056  0.0918  0.4912 -2.5734
 6093TIP3    H239839   2.508   3.892   8.000  1.1299 -1.8674  2.0292
 6094TIP3   OH239840   4.549   0.002   1.645  0.5598  0.1490  0.5140
 6094TIP3    H139841   4.480   0.002   1.712  1.0515  0.3931  1.0285
 6094TIP3    H239842   4.514   0.057   1.575 -0.4121 -0.9796  0.0767
 6095TIP3   OH239843   5.788   3.925   2.434 -0.5446 -0.2953  0.4196
 6095TIP3    H139844   5.881   3.905   2.427 -0.2821  1.2903 -1.3053
 6095TIP3    H239845   5.744   3.846   2.402  0.2720 -0.3220 -0.6900
 6096TIP3   OH239846   6.332   1.640   8.334 -0.6191 -0.5660  1.0983
 6096TIP3    H139847   6.396   1.569   8.338 -0.7330 -0.7365  0.1473
 6096TIP3    H239848   6.253   1.600   8.297  0.1971  0.6045 -2.2580
 6097TIP3   OH239849   6.207   0.411   8.158  0.3166 -0.2766  0.6347
 6097TIP3    H139850   6.237   0.459   8.235 -0.6963  0.3476  0.6520
 6097TIP3    H239851   6.196   0.478   8.091  3.0637 -1.0355 -0.7025
 6098TIP3   OH239852   2.070   3.608   0.434 -0.6843 -0.3996  0.1837
 6098TIP3    H139853   2.051   3.646   0.520  1.9012 -0.7762  0.9878
 6098TIP3    H239854   2.054   3.515   0.445  0.3730 -0.5499  0.4957
 6099TIP3   OH239855   5.174   2.476   1.318 -0.3715  0.4170 -0.2250
 6099TIP3    H139856   5.104   2.422   1.354 -0.4317  0.1483 -0.7450
 6099TIP3    H239857   5.196   2.435   1.235 -0.2411  1.0446 -0.5047
 6100TIP3   OH239858   1.090   2.549   8.117 -0.3231 -0.5195 -0.5126
 6100TIP3    H139859   1.072   2.572   8.026 -0.1838 -0.8625 -0.6289
 6100TIP3    H239860   1.140   2.623   8.151  0.0248 -0.5972 -0.8492
 6101TIP3   OH239861   1.376   1.769   7.649  0.1697  0.1258 -0.6271
 6101TIP3    H139862   1.430   1.693   7.669  0.9294  0.4181 -1.4397
 6101TIP3    H239863   1.344   1.800   7.733  2.0917  0.5103  0.0169
 6102TIP3   OH239864   1.288   5.546   2.640  0.0157 -0.1544  0.3176
 6102TIP3    H139865   1.217   5.524   2.700  0.6891  1.6323  1.8767
 6102TIP3    H239866   1.244   5.574   2.559 -1.0695  0.7963  1.2084
 6103TIP3   OH239867   1.810   0.509   0.956  0.0688  0.6925 -0.4887
 6103TIP3    H139868   1.893   0.478   0.991 -0.6785  0.8148  1.5274
 6103TIP3    H239869   1.815   0.604   0.961  0.6888  0.8192 -2.6217
 6104TIP3   OH239870   4.049   0.072   2.609 -0.1383  0.3365  0.3868
 6104TIP3    H139871   3.998   0.127   2.550  0.9539  0.2436 -0.6756
 6104TIP3    H239872   4.140   0.094   2.590  0.2534  0.5812  2.3166
 6105TIP3   OH239873   5.091   6.490   0.116 -0.3153 -0.4877  0.1807
 6105TIP3    H139874   5.038   6.560   0.079  0.4585 -0.1486 -0.3159
 6105TIP3    H239875   5.124   6.443   0.039  1.1022  0.0696  0.4218
 6106TIP3   OH239876   4.963   6.342   8.363 -0.2431 -0.0440 -0.1261
 6106TIP3    H139877   5.042   6.397   8.372 -0.1841 -0.0889 -0.3406
 6106TIP3    H239878   4.893   6.395   8.401 -0.1665  0.1362 -0.2322
 6107TIP3   OH239879   0.664   2.031   0.460 -0.3078  0.4509  0.0000
 6107TIP3    H139880   0.576   1.995   0.465 -0.1612 -0.1883 -1.5289
 6107TIP3    H239881   0.696   2.030   0.550 -1.3474 -0.6018  0.3735
 6108TIP3   OH239882   2.822   4.782   1.444  0.1054  0.1480  0.1134
 6108TIP3    H139883   2.835   4.871   1.476 -1.5865  0.4725  0.0073
 6108TIP3    H239884   2.902   4.736   1.468  0.8080  1.5577  0.6237
 6109TIP3   OH239885   3.900   3.563   7.810  0.2040 -0.0335 -0.6469
 6109TIP3    H139886   3.968   3.568   7.876 -0.2398 -1.8352  0.0047
 6109TIP3    H239887   3.819   3.552   7.860 -0.7570  2.9104 -1.3598
 6110TIP3   OH239888   6.400   3.841   0.824  0.6794  0.1765  0.0039
 6110TIP3    H139889   6.337   3.846   0.752  0.4824  0.7628  0.2133
 6110TIP3    H239890   6.454   3.764   0.803 -0.4100 -0.6260  0.0723
 6111TIP3   OH239891   3.796   6.450   7.009  0.1631 -0.6266 -0.5567
 6111TIP3    H139892   3.853   6.452   6.932 -1.0790 -0.2902 -1.4973
 6111TIP3    H239893   3.807   6.536   7.049 -0.2772 -0.2631 -1.1963
 6112TIP3   OH239894   0.232   1.634   1.607  0.1150 -0.3770 -0.3612
 6112TIP3    H139895   0.288   1.564   1.575  0.0712 -0.7642  0.3689
 6112TIP3    H239896   0.168   1.589   1.663 -0.3613  0.1635 -0.4613
 6113TIP3   OH239897   2.693   3.914   8.277 -0.1674  0.7700 -0.5940
 6113TIP3    H139898   2.730   3.998   8.306 -0.2536  0.9516 -1.0112
 6113TIP3    H239899   2.670   3.928   8.185 -0.9728  0.5550 -0.4343
 6114TIP3   OH239900   3.325   0.547   8.076 -0.2021  0.2940 -0.1723
 6114TIP3    H139901   3.396   0.600   8.113  0.8593 -2.0244  1.3633
 6114TIP3    H239902   3.356   0.525   7.988  0.3093  0.4689 -0.0439
 6115TIP3   OH239903   5.905   5.157   1.809  0.1963  0.4937  0.8821
 6115TIP3    H139904   5.836   5.223   1.812 -0.9931 -0.6579 -0.1047
 6115TIP3    H239905   5.882   5.095   1.878  0.7806  0.5990  1.1763
 6116TIP3   OH239906   0.806   6.751   0.743 -0.6750 -0.1477  0.6023
 6116TIP3    H139907   0.819   6.825   0.801 -1.4879 -1.4019  2.5010
 6116TIP3    H239908   0.711   6.741   0.738 -0.6162 -0.2957 -0.6871
 6117TIP3   OH239909   2.292   4.357   2.761 -0.1529  0.4917  0.1510
 6117TIP3    H139910   2.222   4.294   2.742  1.1087 -0.9204  0.0521
 6117TIP3    H239911   2.369   4.321   2.718  0.7093  1.9280  0.4206
 6118TIP3   OH239912   3.727   3.975   2.119  0.0038 -0.1649  0.4004
 6118TIP3    H139913   3.720   3.966   2.024 -0.6571 -3.6389  0.6522
 6118TIP3    H239914   3.819   3.957   2.138  0.1660  0.6642  0.4477
 6119TIP3   OH239915   4.207   6.560   7.985  0.1043 -0.0862  0.1292
 6119TIP3    H139916   4.295   6.538   7.954 -0.8151  0.0626 -2.9823
 6119TIP3    H239917   4.199   6.655   7.969 -0.8624 -0.2440 -0.4110
 6120TIP3   OH239918   2.543   4.237   7.724  0.2309  0.2585  0.6179
 6120TIP3    H139919   2.453   4.220   7.751 -0.4722  0.1859 -1.6018
 6120TIP3    H239920   2.579   4.150   7.706  0.8936  0.2610  1.7849
 6121TIP3   OH239921   5.317   4.580   8.353  0.3395  0.1999  0.3335
 6121TIP3    H139922   5.282   4.625   8.276  2.0105  2.4592  0.8140
 6121TIP3    H239923   5.409   4.564   8.331  0.5242 -0.2467  1.3970
 6122TIP3   OH239924   3.303   5.252   1.249 -0.8050  0.7510 -0.5362
 6122TIP3    H139925   3.244   5.221   1.180 -2.5508 -0.0952  1.2406
 6122TIP3    H239926   3.262   5.334   1.279 -0.1643  1.0105 -0.3666
 6123TIP3   OH239927   1.158   2.359   3.201 -0.1456  0.6852 -0.2151
 6123TIP3    H139928   1.228   2.299   3.229 -0.2494  0.4328 -0.4898
 6123TIP3    H239929   1.195   2.446   3.214 -0.5018  0.6185  1.5623
 6124TIP3   OH239930   1.228   4.945   2.856  0.1894  0.3565  0.3068
 6124TIP3    H139931   1.150   4.916   2.903  0.4820  0.7877  1.0776
 6124TIP3    H239932   1.240   5.036   2.883  1.1002  0.2180  0.4149
 6125TIP3   OH239933   0.485   1.667   0.827  0.1862  0.5322 -0.4269
 6125TIP3    H139934   0.514   1.579   0.804 -0.5934  0.4277 -1.0115
 6125TIP3    H239935   0.460   1.660   0.920  0.5012  0.2357 -0.3635
 6126TIP3   OH239936   0.657   5.958   1.646 -0.5492  0.0864  0.2048
 6126TIP3    H139937   0.567   5.969   1.616 -1.1665 -1.6053  1.2603
 6126TIP3    H239938   0.649   5.928   1.737  1.1488  1.8147  0.9945
 6127TIP3   OH239939   3.310   4.292   0.122 -0.4083 -0.3648  0.2241
 6127TIP3    H139940   3.377   4.241   0.075  0.6124  1.8295 -0.8830
 6127TIP3    H239941   3.320   4.381   0.088 -2.3404  0.5303  1.7899
 6128TIP3   OH239942   0.440   6.431   1.652  0.2707 -0.4676  0.0422
 6128TIP3    H139943   0.371   6.369   1.675 -0.5531  0.0374 -0.9840
 6128TIP3    H239944   0.479   6.394   1.572  1.5106 -0.9781  0.8520
 6129TIP3   OH239945   4.789   6.311   0.474  0.4841 -0.3301  0.0908
 6129TIP3    H139946   4.800   6.363   0.554  0.3979 -0.0763 -0.0619
 6129TIP3    H239947   4.837   6.359   0.407  1.2350 -0.9542  0.1570
 6130TIP3   OH239948   0.841   0.869   8.645 -0.0643 -0.3430 -0.2970
 6130TIP3    H139949   0.934   0.874   8.624  0.1153  3.1645  0.7077
 6130TIP3    H239950   0.798   0.921   8.577 -0.7014  1.8354  1.6438
 6131TIP3   OH239951   0.622   3.696   1.395 -0.1756 -0.5488 -0.4390
 6131TIP3    H139952   0.655   3.786   1.388  0.2083 -0.8083 -2.7805
 6131TIP3    H239953   0.697   3.646   1.427  0.4510 -0.4328 -1.6586
 6132TIP3   OH239954   0.597   5.215   7.726  0.0921 -0.1381 -0.0401
 6132TIP3    H139955   0.532   5.148   7.705 -0.9137  0.5395  0.7915
 6132TIP3    H239956   0.616   5.258   7.643  0.3396 -1.0758 -0.4831
 6133TIP3   OH239957   0.096   1.245   1.673  0.3077  0.8756  0.1156
 6133TIP3    H139958   0.163   1.303   1.710  0.3275  0.5214  0.6511
 6133TIP3    H239959   0.136   1.158   1.677  0.5063  0.8807 -1.2164
 6134TIP3   OH239960   1.603   0.847   8.315 -0.0750  0.3969 -0.8759
 6134TIP3    H139961   1.594   0.796   8.234  0.1560 -0.5132 -0.3439
 6134TIP3    H239962   1.514   0.878   8.333 -0.4314 -0.7268 -0.6383
 6135TIP3   OH239963   4.988   5.965   2.097 -0.0303  0.3981  0.5223
 6135TIP3    H139964   5.063   5.916   2.130 -0.7044  0.5627  2.4570
 6135TIP3    H239965   5.018   6.056   2.095  0.0950  0.3551  0.4340
 6136TIP3   OH239966   2.879   1.794   0.119  0.1210  0.0688 -0.7309
 6136TIP3    H139967   2.943   1.838   0.175 -1.3715  1.5204 -0.0868
 6136TIP3    H239968   2.873   1.705   0.154  1.0509  0.2033 -0.1973
 6137TIP3   OH239969   2.464   3.083   8.565  0.2312  0.4650 -0.2016
 6137TIP3    H139970   2.524   3.118   8.631 -0.1773  3.8723 -1.4169
 6137TIP3    H239971   2.521   3.039   8.501  0.8563 -0.7376  1.1330
 6138TIP3   OH239972   3.133   4.608   6.980 -0.2988  0.0580 -0.3279
 6138TIP3    H139973   3.197   4.638   6.915  0.2818 -1.4030 -0.4621
 6138TIP3    H239974   3.069   4.679   6.984  0.3171  0.7272 -1.5761
 6139TIP3   OH239975   6.462   0.099   3.292  0.2269  0.4080  0.4862
 6139TIP3    H139976   6.526   0.164   3.263 -0.0128 -0.2846 -1.7928
 6139TIP3    H239977   6.511   0.017   3.297 -0.0746  0.2283  0.5290
 6140TIP3   OH239978   1.181   5.333   8.193 -0.9118 -0.0331  0.6635
 6140TIP3    H139979   1.234   5.270   8.145 -2.2334 -1.0863  0.5257
 6140TIP3    H239980   1.113   5.359   8.131 -2.7580 -1.5566  1.9371
 6141TIP3   OH239981   0.993   5.551   1.641 -0.1137 -0.1578 -0.0285
 6141TIP3    H139982   0.945   5.620   1.596 -1.7744 -1.4044 -0.2514
 6141TIP3    H239983   1.000   5.480   1.577 -0.4981 -1.0825  0.9239
 6142TIP3   OH239984   5.722   0.047   8.331  0.4597  0.2687  1.3604
 6142TIP3    H139985   5.683  -0.004   8.260 -1.2338 -0.0368  2.4548
 6142TIP3    H239986   5.656   0.112   8.354  1.8784  1.8555  1.1889
 6143TIP3   OH239987   0.455   5.044   7.555  0.0772 -0.0541  0.0211
 6143TIP3    H139988   0.395   4.977   7.588 -0.1813 -0.0083 -0.3578
 6143TIP3    H239989   0.514   4.997   7.497 -1.3544  0.3438 -1.8784
 6144TIP3   OH239990   1.078   3.754   0.550 -0.2521 -0.1575 -0.1443
 6144TIP3    H139991   1.044   3.805   0.476 -1.6170 -0.3253  0.3404
 6144TIP3    H239992   1.137   3.815   0.595  0.5978 -0.0567 -1.3519
 6145TIP3   OH239993   3.360   3.881   8.369  0.1989 -0.1981 -0.3443
 6145TIP3    H139994   3.296   3.919   8.429 -0.9501 -0.1287 -1.5709
 6145TIP3    H239995   3.352   3.786   8.383  0.8172 -0.1384  0.4718
 6146TIP3   OH239996   1.273   4.383   1.051  0.3575  0.0934 -0.1130
 6146TIP3    H139997   1.228   4.429   0.980  1.7894  0.5901 -0.7282
 6146TIP3    H239998   1.294   4.452   1.114 -0.2675 -0.2370  0.4752
 6147TIP3   OH239999   5.246   6.487   0.843 -0.3550  0.0274  0.0592
 6147TIP3    H140000   5.210   6.413   0.892 -0.9865  0.2216 -0.1028
 6147TIP3    H240001   5.245   6.560   0.905 -1.1072  0.2608 -0.2166
 6148TIP3   OH240002   4.714   2.911   0.063  0.5416  0.4831 -0.3163
 6148TIP3    H140003   4.756   2.826   0.077  0.4036  0.3283 -0.8077
 6148TIP3    H240004   4.781   2.975   0.086  0.8365  0.2381 -0.4874
 6149TIP3   OH240005   2.041   5.924   6.956 -0.5880 -0.2012  0.3654
 6149TIP3    H140006   1.971   5.990   6.959 -0.0339  0.3482  1.4103
 6149TIP3    H240007   2.011   5.854   7.014  0.1124  0.4371  1.5260
 6150TIP3   OH240008   3.795   0.735   6.906  0.0296 -0.2340  0.1955
 6150TIP3    H140009   3.832   0.810   6.861  1.7190 -0.1427  1.6109
 6150TIP3    H240010   3.791   0.666   6.840 -0.3247  0.7317 -0.7974
 6151TIP3   OH240011   1.223   3.259   0.954 -0.5681  0.4643  0.1261
 6151TIP3    H140012   1.137   3.240   0.915 -0.3238  2.0615 -1.2808
 6151TIP3    H240013   1.203   3.291   1.042 -1.5846  2.5661 -0.8176
 6152TIP3   OH240014   5.133   3.430   7.966  0.5967 -0.0958  0.1938
 6152TIP3    H140015   5.088   3.457   7.886 -0.5485 -2.2988 -0.0046
 6152TIP3    H240016   5.201   3.371   7.935  0.4611 -0.5760  0.7949
 6153TIP3   OH240017   4.357   6.837   2.064  0.5028 -0.3548  0.0899
 6153TIP3    H140018   4.404   6.755   2.050  1.8668  0.5225 -0.7268
 6153TIP3    H240019   4.417   6.891   2.116  1.6559  1.7524 -3.1151
 6154TIP3   OH240020   3.573   5.264   8.564 -0.3415  0.0772  0.5576
 6154TIP3    H140021   3.568   5.176   8.601 -0.5664  0.2514  0.9446
 6154TIP3    H240022   3.657   5.266   8.518 -1.0174 -0.8740 -0.8028
 6155TIP3   OH240023   3.748   6.554   7.632 -0.0564  0.5252 -0.3448
 6155TIP3    H140024   3.673   6.588   7.583  0.7333  1.0090 -1.2628
 6155TIP3    H240025   3.730   6.461   7.643 -0.3207  0.4274 -1.4673
 6156TIP3   OH240026   1.873   0.759   8.259  0.6111  0.0058 -0.7194
 6156TIP3    H140027   1.783   0.783   8.237  1.2735  0.6869 -2.8554
 6156TIP3    H240028   1.908   0.836   8.306  0.2261 -0.1096 -0.2311
 6157TIP3   OH240029   2.014   3.348   8.281  0.2340 -0.3832 -0.1218
 6157TIP3    H140030   1.939   3.408   8.273 -0.3934 -1.1198  0.1128
 6157TIP3    H240031   2.068   3.367   8.205  0.8022  1.4927  0.6949
 6158TIP3   OH240032   5.693   6.102   2.149 -0.3376  0.0134  0.8801
 6158TIP3    H140033   5.704   6.168   2.217 -0.5982  1.5506 -0.5196
 6158TIP3    H240034   5.781   6.087   2.115 -0.5688  1.4061 -0.3841
 6159TIP3   OH240035   1.949   0.269   0.311  1.0413  0.1030  0.1260
 6159TIP3    H140036   2.023   0.322   0.282  1.2861 -0.2908  0.0215
 6159TIP3    H240037   1.872   0.314   0.276  1.2276  0.5406  0.2748
 6160TIP3   OH240038   5.318   3.670   8.364 -0.2627  0.2450  0.1968
 6160TIP3    H140039   5.244   3.617   8.334  1.5544 -1.5110 -1.4638
 6160TIP3    H240040   5.366   3.691   8.285  2.2942 -0.7185  1.3828
 6161TIP3   OH240041   5.134   6.131   0.558  0.1654 -0.2304 -0.1530
 6161TIP3    H140042   5.116   6.149   0.466  0.3333 -0.0613 -0.1537
 6161TIP3    H240043   5.089   6.048   0.576 -0.0053 -0.1791 -0.3427
 6162TIP3   OH240044   4.415   0.127   8.030 -0.7310 -0.3610 -0.1359
 6162TIP3    H140045   4.477   0.056   8.018 -0.8949 -0.5819  0.3192
 6162TIP3    H240046   4.464   0.194   8.079 -0.3996  0.0873 -1.0482
 6163TIP3   OH240047   3.928   1.220   1.510 -0.1185  0.2255  0.1545
 6163TIP3    H140048   3.960   1.220   1.601 -0.1258 -1.9892  0.2228
 6163TIP3    H240049   3.961   1.138   1.473 -1.7189  0.1443 -1.2421
 6164TIP3   OH240050   4.480   3.830   1.781  0.3421  0.1228  0.1410
 6164TIP3    H140051   4.409   3.893   1.767  1.2651  0.7758 -2.0320
 6164TIP3    H240052   4.550   3.880   1.822  0.8617  0.4161 -1.0595
 6165TIP3   OH240053   5.352   0.644   0.288 -0.1207  0.2010  0.0980
 6165TIP3    H140054   5.421   0.610   0.231 -0.0010 -0.1541  0.4485
 6165TIP3    H240055   5.310   0.713   0.237 -1.8797 -1.9366 -1.5999
 6166TIP3   OH240056   2.237   4.192   2.244 -0.0212  0.6395 -0.4825
 6166TIP3    H140057   2.282   4.139   2.179  1.3699 -0.3901  1.2108
 6166TIP3    H240058   2.306   4.248   2.282 -0.1561 -0.6161  1.8308
 6167TIP3   OH240059   3.479   1.130   2.074 -0.3288 -0.3940  0.0286
 6167TIP3    H140060   3.495   1.083   1.992 -0.3819 -0.9966  0.3528
 6167TIP3    H240061   3.399   1.090   2.109 -0.8821  0.5605 -0.1267
 6168TIP3   OH240062   2.721   0.519   1.558 -0.1319 -0.1181 -0.3663
 6168TIP3    H140063   2.689   0.606   1.533  2.1144  1.5856  2.1836
 6168TIP3    H240064   2.774   0.534   1.636  1.3909 -3.6435 -0.5412
 6169TIP3   OH240065   2.992   5.194   7.559 -0.0907 -0.3032  0.5071
 6169TIP3    H140066   3.059   5.127   7.547 -1.1439 -1.2830 -0.0884
 6169TIP3    H240067   2.995   5.245   7.478 -1.3543 -1.5700 -0.3883
 6170TIP3   OH240068   2.257   1.829   8.361  0.0777 -0.0999  0.7236
 6170TIP3    H140069   2.318   1.799   8.294  0.8526  2.1676  0.3340
 6170TIP3    H240070   2.278   1.776   8.438 -0.2283 -2.1181 -0.5148
 6171TIP3   OH240071   1.749   2.669   1.695 -0.1096  0.5203  0.5526
 6171TIP3    H140072   1.705   2.598   1.743  1.5179 -1.5198 -0.7808
 6171TIP3    H240073   1.688   2.743   1.701 -1.4329 -0.6203  2.9026
 6172TIP3   OH240074   5.981   2.326   7.396  0.3146 -0.6189  0.3354
 6172TIP3    H140075   5.921   2.298   7.465 -1.6611  0.7724 -0.7046
 6172TIP3    H240076   6.054   2.367   7.443 -1.3861  1.0845  1.6576
 6173TIP3   OH240077   3.162   2.107   1.692  0.0402 -0.3825 -0.7358
 6173TIP3    H140078   3.215   2.028   1.682  1.0940  0.1363  0.3942
 6173TIP3    H240079   3.149   2.114   1.787  0.6926  1.2383 -0.7324
 6174TIP3   OH240080   6.280   3.539   7.476  0.5927  0.3655  0.2410
 6174TIP3    H140081   6.312   3.593   7.404 -1.2950  2.6243  0.9743
 6174TIP3    H240082   6.353   3.481   7.497  2.0133  1.2690 -1.9040
 6175TIP3   OH240083   0.950   1.155   0.206 -0.6055 -0.6632  0.4604
 6175TIP3    H140084   0.990   1.121   0.286  0.4362 -0.0827  0.2061
 6175TIP3    H240085   1.019   1.149   0.140 -0.8296  0.6194  0.0772
 6176TIP3   OH240086   3.093   4.541   0.876  0.0686  0.0568  0.0889
 6176TIP3    H140087   3.112   4.473   0.940  1.8151 -0.5638 -1.0177
 6176TIP3    H240088   3.142   4.618   0.907 -1.2808  0.6025  0.9246
 6177TIP3   OH240089   1.439   0.089   1.583  0.5103  0.9048 -0.8159
 6177TIP3    H140090   1.461   0.002   1.551  0.3543  1.0357 -1.2880
 6177TIP3    H240091   1.387   0.073   1.662 -0.1912  0.5552 -1.3348
 6178TIP3   OH240092   2.144   1.301   0.780  0.2973 -0.2069  0.4958
 6178TIP3    H140093   2.107   1.371   0.834  0.6426  0.9166 -0.6645
 6178TIP3    H240094   2.082   1.228   0.788 -1.0882  0.9015  0.2154
 6179TIP3   OH240095   1.613   5.503   0.551  0.6150 -0.1409  0.9298
 6179TIP3    H140096   1.638   5.477   0.463 -1.5007 -0.0377  0.2220
 6179TIP3    H240097   1.694   5.499   0.602  1.8693 -0.3236 -0.9712
 6180TIP3   OH240098   1.482   3.224   1.903 -0.1673  0.3584 -0.2054
 6180TIP3    H140099   1.413   3.173   1.946 -0.3787  1.5027  0.8721
 6180TIP3    H240100   1.563   3.179   1.926 -0.3528  0.4526  0.6585
 6181TIP3   OH240101   6.329   4.850   2.595 -0.2092  0.6038 -0.2432
 6181TIP3    H140102   6.294   4.939   2.598  1.8591  1.4783  2.8591
 6181TIP3    H240103   6.255   4.794   2.616 -0.7473  2.0620  2.2186
 6182TIP3   OH240104   0.138   2.824   2.131  0.4399  0.1882  0.3568
 6182TIP3    H140105   0.051   2.853   2.160  0.0860  0.5699 -0.9936
 6182TIP3    H240106   0.120   2.747   2.077  0.3435  2.8136 -3.7762
 6183TIP3   OH240107   6.225   0.603   7.952  0.0760 -0.5264 -0.5022
 6183TIP3    H140108   6.303   0.651   7.925  0.1632 -1.4539 -2.0662
 6183TIP3    H240109   6.152   0.659   7.927  0.2070 -0.0115  0.2304
 6184TIP3   OH240110   3.684   0.481   0.123  0.0479  0.1406  0.1561
 6184TIP3    H140111   3.719   0.465   0.210  1.1309 -0.6309 -0.3911
 6184TIP3    H240112   3.636   0.563   0.130  2.0321  1.2770  0.9432
 6185TIP3   OH240113   6.748   0.611   6.794  0.4754 -0.8205 -0.6478
 6185TIP3    H140114   6.798   0.691   6.776 -0.5398 -0.3987 -1.7748
 6185TIP3    H240115   6.810   0.540   6.781  1.3799 -0.2238  0.3090
 6186TIP3   OH240116   5.118   3.456   8.246  0.4156  0.4846  0.8170
 6186TIP3    H140117   5.037   3.504   8.259  1.5422  2.3855  1.2042
 6186TIP3    H240118   5.118   3.435   8.153 -0.1041  1.2853  0.6199
 6187TIP3   OH240119   5.738   5.800   0.228 -0.0669 -0.1152  0.4338
 6187TIP3    H140120   5.818   5.797   0.175 -0.0814 -2.8620  0.4159
 6187TIP3    H240121   5.667   5.791   0.164 -0.3561  1.1040  0.5620
 6188TIP3   OH240122   5.705   6.398   1.269  0.1091  0.0868 -0.0892
 6188TIP3    H140123   5.665   6.479   1.301 -0.1593 -0.0291 -0.1220
 6188TIP3    H240124   5.652   6.375   1.192  2.7235  2.1491 -2.7147
 6189TIP3   OH240125   1.728   4.836   0.720 -0.8075  0.7392  0.1272
 6189TIP3    H140126   1.742   4.758   0.665 -1.9332  0.0950  0.7097
 6189TIP3    H240127   1.669   4.805   0.789 -0.4992  1.8825  0.9102
 6190TIP3   OH240128   6.798   4.421   0.979  0.2487  0.3185  0.3885
 6190TIP3    H140129   6.818   4.499   0.928  0.6492  1.6377  2.4697
 6190TIP3    H240130   6.779   4.354   0.913 -0.9651  2.3513 -1.4601
 6191TIP3   OH240131   4.510   0.866   0.804  0.0451  0.4113  0.1608
 6191TIP3    H140132   4.423   0.893   0.833  0.1858  0.2349  0.7521
 6191TIP3    H240133   4.501   0.856   0.709 -0.7126 -0.1021  0.2767
 6192TIP3   OH240134   3.289   1.078   2.269  0.5933  0.0801  0.8447
 6192TIP3    H140135   3.209   1.107   2.312 -0.6972 -1.7609 -0.2219
 6192TIP3    H240136   3.284   0.983   2.270  1.6197 -0.0494 -1.3572
 6193TIP3   OH240137   1.840   3.729   1.130 -0.3311  0.0555 -0.1165
 6193TIP3    H140138   1.835   3.806   1.186  1.8613  0.1758 -0.0032
 6193TIP3    H240139   1.927   3.692   1.147 -0.3957 -1.0657 -1.9148
 6194TIP3   OH240140   3.322   4.538   2.415 -0.3677  0.4403  0.0142
 6194TIP3    H140141   3.320   4.560   2.322  1.2266 -0.5788 -0.2944
 6194TIP3    H240142   3.281   4.452   2.420  0.5909 -0.0140  0.0891
 6195TIP3   OH240143   3.603   2.350   1.931 -0.2169  0.1566 -0.3713
 6195TIP3    H140144   3.566   2.324   2.015 -1.8029 -1.6610 -1.5415
 6195TIP3    H240145   3.637   2.438   1.945 -1.8690  0.5236  1.7296
 6196TIP3   OH240146   3.335   1.928   1.187  0.1998 -0.1437  0.2213
 6196TIP3    H140147   3.423   1.942   1.153  0.2240 -1.8422 -0.5424
 6196TIP3    H240148   3.305   2.014   1.215  1.4993  0.7330 -0.9888
 6197TIP3   OH240149   5.817   6.130   0.674 -0.0797  0.1796  0.0741
 6197TIP3    H140150   5.791   6.090   0.592  0.9696  1.2320 -0.8033
 6197TIP3    H240151   5.891   6.077   0.705 -0.7932 -0.5167  0.6109
 6198TIP3   OH240152   1.994   1.767   0.675 -0.3143 -0.3029 -0.3642
 6198TIP3    H140153   1.923   1.793   0.734 -1.6421 -1.0581 -1.5771
 6198TIP3    H240154   2.068   1.749   0.733 -0.7512  1.5682  0.8560
 6199TIP3   OH240155   3.326   2.100   7.527  0.4167  0.0240  0.2519
 6199TIP3    H140156   3.231   2.103   7.515  0.6537  2.3082 -1.7300
 6199TIP3    H240157   3.344   2.009   7.551 -2.0430 -1.0434 -1.5135
 6200TIP3   OH240158   3.919   1.452   0.329  0.4398  0.2322 -0.0295
 6200TIP3    H140159   3.946   1.450   0.421  0.7629 -0.9310 -0.1294
 6200TIP3    H240160   3.975   1.388   0.287 -0.4650 -0.0552 -0.8271
 6201TIP3   OH240161   1.970   3.462   7.774  0.0663 -0.4034 -0.4353
 6201TIP3    H140162   1.910   3.502   7.836  0.1639  0.1662 -0.6988
 6201TIP3    H240163   1.914   3.410   7.716  0.0444 -1.4902  0.5307
 6202TIP3   OH240164   2.677   6.713   0.207 -0.1195  0.6972 -0.1304
 6202TIP3    H140165   2.651   6.804   0.224  0.8821  0.9143  0.3653
 6202TIP3    H240166   2.595   6.664   0.205 -0.6252  1.4941  0.3575
 6203TIP3   OH240167   3.258   6.437   0.266  0.3216 -0.0348  0.1453
 6203TIP3    H140168   3.262   6.346   0.237 -0.0835 -0.8553  2.4880
 6203TIP3    H240169   3.314   6.440   0.343 -1.9796  0.9441  1.8908
 6204TIP3   OH240170   6.166   3.872   7.845  0.0609 -0.5236  0.0695
 6204TIP3    H140171   6.181   3.793   7.792  1.3923 -0.5406  0.4328
 6204TIP3    H240172   6.094   3.917   7.801  1.1369 -0.5139 -1.8090
 6205TIP3   OH240173   3.774   0.087   8.016  0.3754  0.2283 -0.0954
 6205TIP3    H140174   3.682   0.105   8.034  0.3501  0.7509 -0.7280
 6205TIP3    H240175   3.778   0.068   7.923  1.1647  2.0403 -0.4804
 6206TIP3   OH240176   0.177   0.515   2.045 -0.3903  0.3044 -0.2006
 6206TIP3    H140177   0.184   0.524   2.140 -1.7691  1.6108 -0.1772
 6206TIP3    H240178   0.206   0.426   2.026 -0.9467 -0.2754  1.5473
 6207TIP3   OH240179   0.538   3.692   8.066 -0.5116 -0.8545  0.0582
 6207TIP3    H140180   0.604   3.753   8.100 -0.3742 -0.7000 -0.4799
 6207TIP3    H240181   0.508   3.644   8.143  0.4785 -1.1639  0.2649
 6208TIP3   OH240182   3.742   2.005   1.719 -0.0839 -0.1081  0.4222
 6208TIP3    H140183   3.755   2.094   1.685  0.0518 -0.7655 -1.3615
 6208TIP3    H240184   3.691   2.017   1.799  1.0941  1.6619  0.9668
 6209TIP3   OH240185   1.000   2.277   2.569 -0.4200  0.0935  0.3930
 6209TIP3    H140186   1.015   2.330   2.491 -0.3466 -1.7348 -0.8842
 6209TIP3    H240187   0.920   2.312   2.607  1.3662  3.3356  1.5793
 6210TIP3   OH240188   5.524   0.809   8.368  0.2900  0.2730 -0.5224
 6210TIP3    H140189   5.486   0.897   8.368  1.4643  0.8029 -0.9403
 6210TIP3    H240190   5.610   0.820   8.409  0.8561 -0.4836 -1.4618
 6211TIP3   OH240191   6.307   1.361   2.434 -0.1420  0.2299 -0.4253
 6211TIP3    H140192   6.343   1.381   2.520  0.1554  0.2994 -0.5679
 6211TIP3    H240193   6.245   1.290   2.450  0.2566 -0.0727 -0.2262
 6212TIP3   OH240194   3.477   1.337   1.220  0.4309 -0.2187 -0.1166
 6212TIP3    H140195   3.490   1.252   1.178 -1.7452 -1.0221  0.7218
 6212TIP3    H240196   3.392   1.367   1.188  0.6125  1.0717  0.5621
 6213TIP3   OH240197   5.218   6.655   1.030 -0.4763 -0.6594 -0.0108
 6213TIP3    H140198   5.231   6.733   1.083  2.3552 -0.6418 -0.6007
 6213TIP3    H240199   5.137   6.616   1.064 -1.6562  2.1609  0.6675
 6214TIP3   OH240200   5.771   0.831   8.506 -0.2788 -0.2458 -0.1299
 6214TIP3    H140201   5.844   0.843   8.445 -0.9274  0.2718 -0.8226
 6214TIP3    H240202   5.810   0.845   8.593  0.6857 -1.1240 -0.3915
 6215TIP3   OH240203   6.189   1.718   2.714  0.3213  0.1980  0.5175
 6215TIP3    H140204   6.246   1.675   2.651  0.6007  0.6840  0.4297
 6215TIP3    H240205   6.190   1.811   2.688 -0.2769  0.2615  0.6910
 6216TIP3   OH240206   3.940   6.132   1.248 -0.4664  0.3016  0.2547
 6216TIP3    H140207   3.902   6.090   1.171  1.4503  2.0112 -1.7529
 6216TIP3    H240208   3.881   6.204   1.268  1.0859  2.4741 -2.3724
 6217TIP3   OH240209   4.856   2.709   1.949 -0.1218  0.0833 -0.3887
 6217TIP3    H140210   4.950   2.729   1.957  0.5453 -1.2062 -3.4275
 6217TIP3    H240211   4.815   2.794   1.936  1.4297  0.4779 -4.0403
 6218TIP3   OH240212   2.834   3.017   1.392 -0.4525 -0.0343 -0.1277
 6218TIP3    H140213   2.837   3.044   1.300  2.4976 -2.5361 -0.9273
 6218TIP3    H240214   2.857   3.096   1.441  0.3337  0.7881 -1.7214
 6219TIP3   OH240215   3.432   0.187   7.598  0.1123  0.3885  0.1598
 6219TIP3    H140216   3.360   0.159   7.541  0.8076 -0.1770 -0.4745
 6219TIP3    H240217   3.503   0.127   7.576  0.6212  0.6173  1.1375
 6220TIP3   OH240218   0.685   6.826   8.442 -0.3728 -0.2166  0.4477
 6220TIP3    H140219   0.753   6.776   8.397 -0.7900  0.2529 -0.7761
 6220TIP3    H240220   0.624   6.761   8.476  0.6749 -0.6406  1.5666
 6221TIP3   OH240221   4.747   6.693   1.558 -0.0258 -0.2655  0.7048
 6221TIP3    H140222   4.690   6.763   1.591  0.0705 -0.3067  0.9642
 6221TIP3    H240223   4.769   6.642   1.636  0.6129 -0.0749  0.6549
 6222TIP3   OH240224   5.923   1.000   1.331 -0.1348  0.3338  0.2780
 6222TIP3    H140225   5.974   0.960   1.401  0.3959  1.8022  0.7844
 6222TIP3    H240226   5.853   1.047   1.376  0.2588  1.3595 -0.1417
 6223TIP3   OH240227   3.748   0.918   0.706 -0.5177  0.3470  0.1259
 6223TIP3    H140228   3.744   0.861   0.628 -0.1892 -0.4732  0.6978
 6223TIP3    H240229   3.725   0.860   0.779 -0.9197  1.1365  0.6331
 6224TIP3   OH240230   1.208   1.056   0.116  0.4732  0.2795  0.6200
 6224TIP3    H140231   1.296   1.072   0.084  0.1713 -0.6387 -0.7466
 6224TIP3    H240232   1.219   0.997   0.190  0.8861 -1.8795 -1.0872
 6225TIP3   OH240233   0.558   5.655   6.949 -0.5179 -0.3065 -0.0067
 6225TIP3    H140234   0.582   5.735   6.996 -0.8604  0.1580 -0.6109
 6225TIP3    H240235   0.568   5.678   6.857  0.4912 -1.3065 -0.1808
 6226TIP3   OH240236   4.581   0.088   2.183  0.5903  0.0984  0.5546
 6226TIP3    H140237   4.586   0.072   2.277 -0.3529  1.9546  0.9650
 6226TIP3    H240238   4.670   0.115   2.159  0.6218  0.5428  1.1295
 6227TIP3   OH240239   1.207   5.652   1.792  0.3557 -0.2566  0.1008
 6227TIP3    H140240   1.132   5.613   1.746  0.7758 -2.3324  1.0216
 6227TIP3    H240241   1.249   5.708   1.727 -0.0577 -1.7360 -1.5261
 6228TIP3   OH240242   5.532   5.733   8.460 -0.6947  0.4713 -0.2099
 6228TIP3    H140243   5.482   5.676   8.402 -2.5284  0.2792  1.4508
 6228TIP3    H240244   5.528   5.819   8.419  0.2555 -0.1148 -1.6270
 6229TIP3   OH240245   6.243   0.495   8.429  0.5122 -0.1510  0.6929
 6229TIP3    H140246   6.310   0.430   8.448  0.7781  0.2804  1.2791
 6229TIP3    H240247   6.162   0.445   8.421  1.3139 -1.1777 -3.5060
 6230TIP3   OH240248   6.296   4.370   2.093  0.2974 -0.0390 -0.1266
 6230TIP3    H140249   6.326   4.323   2.015 -0.0604  0.1730 -0.3945
 6230TIP3    H240250   6.377   4.390   2.141  0.3656 -2.8447  1.1445
 6231TIP3   OH240251   2.703   6.005   7.252  0.2509  0.2295  0.8992
 6231TIP3    H140252   2.771   5.939   7.264  0.7651  0.5972  0.0856
 6231TIP3    H240253   2.719   6.041   7.165 -1.7275 -0.5102  0.1680
 6232TIP3   OH240254   1.279   3.674   7.974 -0.5823 -0.5762  0.1468
 6232TIP3    H140255   1.319   3.691   7.888 -0.3741 -1.0054  0.1589
 6232TIP3    H240256   1.332   3.724   8.036 -0.5464 -0.5121  0.0652
 6233TIP3   OH240257   6.769   0.076   8.571 -0.0631  0.2332 -0.1430
 6233TIP3    H140258   6.682   0.040   8.588 -0.9841  2.6568  0.7634
 6233TIP3    H240259   6.813   0.074   8.656  0.7922 -0.9262 -0.5860
 6234TIP3   OH240260   5.353   5.235   0.379  0.4291  0.0803 -0.5128
 6234TIP3    H140261   5.358   5.205   0.470 -0.6090  0.0984 -0.4321
 6234TIP3    H240262   5.291   5.308   0.381  1.3457  0.8846 -1.0426
 6235TIP3   OH240263   1.496   2.131   0.823 -0.5320 -0.6418 -0.1893
 6235TIP3    H140264   1.428   2.083   0.776 -0.6401  0.5298 -1.3017
 6235TIP3    H240265   1.498   2.217   0.781  1.4899 -0.5642 -0.0602
 6236TIP3   OH240266   0.706   4.546   1.791  0.0968 -0.4263  0.3851
 6236TIP3    H140267   0.648   4.474   1.765 -0.4732  0.4298 -0.8148
 6236TIP3    H240268   0.735   4.522   1.879 -3.0932 -0.2858  1.6273
 6237TIP3   OH240269   3.386   2.408   0.480  0.4777 -0.2726 -0.4480
 6237TIP3    H140270   3.294   2.383   0.478  0.2446  0.1520  1.9879
 6237TIP3    H240271   3.391   2.487   0.426 -1.0229  0.8513  0.9622
 6238TIP3   OH240272   1.381   4.237   8.145 -0.6040 -0.2322 -0.5229
 6238TIP3    H140273   1.345   4.324   8.125 -2.8364 -1.2260 -1.1157
 6238TIP3    H240274   1.329   4.206   8.219  0.8097 -0.7452  0.3122
 6239TIP3   OH240275   6.662   4.923   8.141  0.3941 -0.0954  0.2041
 6239TIP3    H140276   6.648   4.842   8.190  2.2554 -0.0999  0.7940
 6239TIP3    H240277   6.584   4.975   8.158  0.4677 -0.5776  2.2553
 6240TIP3   OH240278   3.987   2.193   2.790  0.0467  0.4806  0.3557
 6240TIP3    H140279   3.901   2.226   2.816  0.0841  1.6651 -0.9192
 6240TIP3    H240280   4.046   2.267   2.804  0.2035  0.9039 -2.1974
 6241TIP3   OH240281   5.739   5.520   8.608  0.1446 -0.3589  0.7548
 6241TIP3    H140282   5.725   5.526   8.702  0.0372 -3.0155  0.9995
 6241TIP3    H240283   5.665   5.567   8.569 -0.9285 -0.9249  2.0253
 6242TIP3   OH240284   0.667   0.683   7.605  0.2142  0.3016 -0.1750
 6242TIP3    H140285   0.616   0.750   7.559  0.5615  1.4922  1.1010
 6242TIP3    H240286   0.758   0.714   7.599  0.3859 -0.0776  0.3896
 6243TIP3   OH240287   6.450   5.251   7.298 -0.0929 -0.7383 -0.0869
 6243TIP3    H140288   6.542   5.277   7.300 -0.0703 -0.8522  0.7239
 6243TIP3    H240289   6.410   5.311   7.234  0.5267 -0.6602 -0.4126
 6244TIP3   OH240290   0.040   3.200   1.668 -0.4651  0.2078 -0.3947
 6244TIP3    H140291  -0.020   3.134   1.704 -0.4794 -0.0780 -0.9440
 6244TIP3    H240292  -0.017   3.275   1.650  0.0507  1.9750  3.9144
 6245TIP3   OH240293   0.134   5.511   8.011  0.1385 -0.9301  0.0040
 6245TIP3    H140294   0.208   5.488   7.955  0.1225 -0.5050 -0.1937
 6245TIP3    H240295   0.160   5.482   8.098  1.7119  1.6168  0.4773
 6246TIP3   OH240296   0.151   5.867   2.221  0.1316  0.3708  0.3709
 6246TIP3    H140297   0.204   5.796   2.185 -0.2543  0.8642 -1.2597
 6246TIP3    H240298   0.178   5.873   2.312  0.9319 -1.1573  0.2667
 6247TIP3   OH240299   3.642   3.424   0.963  0.5588 -0.2311  0.2601
 6247TIP3    H140300   3.555   3.384   0.962  1.2234 -1.7717 -1.0088
 6247TIP3    H240301   3.658   3.446   1.054 -0.0550 -2.5074  0.9773
 6248TIP3   OH240302   3.662   3.013   0.220  0.5156  1.0493 -0.1018
 6248TIP3    H140303   3.704   3.045   0.140  1.0030 -1.0787 -0.7622
 6248TIP3    H240304   3.727   2.955   0.259 -0.5231  0.4241  0.7345
 6249TIP3   OH240305   2.487   4.254   0.137  0.6786  0.6069 -0.0299
 6249TIP3    H140306   2.460   4.264   0.045 -0.8808 -0.2423  0.3152
 6249TIP3    H240307   2.580   4.230   0.131  0.2535 -0.8581 -1.4650
 6250TIP3   OH240308   2.771   2.168   2.670  0.2918 -0.0741 -0.7267
 6250TIP3    H140309   2.720   2.120   2.606 -1.3608 -1.5820  1.5734
 6250TIP3    H240310   2.709   2.231   2.708  0.5852 -0.7192  0.8861
 6251TIP3   OH240311   3.965   4.589   2.068  0.0082 -0.0058  0.8720
 6251TIP3    H140312   4.018   4.527   2.119  1.7686 -1.4647 -2.4437
 6251TIP3    H240313   3.930   4.537   1.996 -1.3172  2.1828 -0.1659
 6252TIP3   OH240314   2.488   2.197   2.904 -0.2422  0.3849 -0.4709
 6252TIP3    H140315   2.567   2.216   2.954 -0.3275  1.2073 -0.6286
 6252TIP3    H240316   2.420   2.183   2.970 -0.7991  3.3449 -0.2713
 6253TIP3   OH240317   6.213   2.858   8.251 -0.1457  0.2065  0.1303
 6253TIP3    H140318   6.257   2.837   8.334  1.1558  0.4802 -0.4540
 6253TIP3    H240319   6.284   2.890   8.195 -1.0068  0.0513 -1.0748
 6254TIP3   OH240320   1.877   1.971   7.825 -0.4539 -0.2311 -0.0838
 6254TIP3    H140321   1.893   1.967   7.919 -0.2371  0.0514 -0.1070
 6254TIP3    H240322   1.921   1.894   7.789  1.4866  0.8898 -0.2323
 6255TIP3   OH240323   1.087   1.495   0.044  0.0122 -0.1304 -0.3037
 6255TIP3    H140324   1.145   1.510  -0.030  1.9348 -1.8087  0.7655
 6255TIP3    H240325   1.106   1.567   0.104  0.9597 -0.6299  0.0082
 6256TIP3   OH240326   0.879   4.035   1.805  0.2304  0.4536 -0.5775
 6256TIP3    H140327   0.810   4.099   1.823 -0.7273 -0.7962  0.4174
 6256TIP3    H240328   0.914   4.013   1.891  1.4946  0.6285 -1.0234
 6257TIP3   OH240329   1.687   2.532   8.551  0.0843 -0.3612  0.0793
 6257TIP3    H140330   1.640   2.505   8.472  2.2458 -0.4706 -1.2529
 6257TIP3    H240331   1.714   2.622   8.532  0.6468 -0.4045  0.6674
 6258TIP3   OH240332   3.668   6.755   0.186  0.5100  0.1716  0.5666
 6258TIP3    H140333   3.758   6.730   0.204  0.0117 -0.2647  2.6974
 6258TIP3    H240334   3.665   6.850   0.201  1.3069  0.8580 -2.8271
 6259TIP3   OH240335   2.549   6.352   2.128 -0.2745  0.2760  0.3975
 6259TIP3    H140336   2.474   6.352   2.187  1.2789  0.7305  2.5257
 6259TIP3    H240337   2.620   6.390   2.180  1.1523  0.9905 -1.9083
 6260TIP3   OH240338   3.008   4.887   1.686 -0.2254 -0.0436 -0.0875
 6260TIP3    H140339   2.964   4.814   1.730 -1.0848  0.2889 -0.3771
 6260TIP3    H240340   3.088   4.902   1.737 -0.3581 -0.7703  0.3427
 6261TIP3   OH240341   0.585   1.092   8.091 -0.2805 -0.5001 -0.0033
 6261TIP3    H140342   0.518   1.150   8.128 -0.9326  0.1084 -1.9636
 6261TIP3    H240343   0.561   1.005   8.121 -1.0319 -0.0938  0.6169
 6262TIP3   OH240344   0.115   4.405   1.288  0.1501 -0.8992  0.0506
 6262TIP3    H140345   0.025   4.431   1.306  0.5155 -0.7755  1.8387
 6262TIP3    H240346   0.127   4.424   1.195 -1.1477  0.6747  0.1635
 6263TIP3   OH240347   3.103   3.109   2.807 -0.6215  0.2004  0.1525
 6263TIP3    H140348   3.112   3.186   2.863  0.0762  0.4230 -0.2533
 6263TIP3    H240349   3.168   3.047   2.841 -0.8924 -0.0566  0.2132
 6264TIP3   OH240350   6.265   0.797   8.224 -0.1632 -0.1880  0.2974
 6264TIP3    H140351   6.272   0.858   8.151 -1.3642 -1.7776 -1.2357
 6264TIP3    H240352   6.306   0.717   8.192  1.6467 -0.1655  2.3618
 6265TIP3   OH240353   4.023   1.188   1.777 -0.1153 -1.0012  0.5544
 6265TIP3    H140354   3.959   1.249   1.813  1.5797  0.6187  0.9181
 6265TIP3    H240355   4.098   1.193   1.836  1.1151 -1.3933 -0.9057
 6266TIP3   OH240356   2.146   2.583   8.372 -0.0280  0.7858 -0.2437
 6266TIP3    H140357   2.116   2.672   8.391 -0.3312  0.7712 -0.6328
 6266TIP3    H240358   2.107   2.530   8.442 -0.0457  0.9242 -0.1465
 6267TIP3   OH240359   6.478   3.586   2.483  0.2391  0.2112  0.0844
 6267TIP3    H140360   6.469   3.600   2.389  2.0952 -2.7414 -0.6806
 6267TIP3    H240361   6.395   3.544   2.509 -0.0274  0.4582 -0.3554
 6268TIP3   OH240362   6.323   4.723   8.267  0.2792 -0.8365  0.0346
 6268TIP3    H140363   6.238   4.680   8.272 -0.8764  1.0470 -1.6850
 6268TIP3    H240364   6.338   4.735   8.173 -0.0287  3.2355  0.2990
 6269TIP3   OH240365   6.266   0.348   8.702 -0.1305  0.0278 -0.4229
 6269TIP3    H140366   6.308   0.292   8.637  0.5473  0.8637 -0.7252
 6269TIP3    H240367   6.174   0.324   8.699 -0.1465  0.1874 -1.8498
 6270TIP3   OH240368   3.687   1.897   0.417 -0.1949 -0.2820 -0.3400
 6270TIP3    H140369   3.661   1.989   0.413  1.1889  0.1020 -2.1460
 6270TIP3    H240370   3.640   1.861   0.492 -2.1337  1.4524 -0.6591
 6271TIP3   OH240371   5.154   3.780   1.462 -0.0238  0.3518  0.2978
 6271TIP3    H140372   5.123   3.832   1.388 -1.3561  0.4536  0.8938
 6271TIP3    H240373   5.074   3.743   1.500  0.8372 -1.6842  0.2289
 6272TIP3   OH240374   0.653   1.167   0.294  0.0463  0.0064  0.1228
 6272TIP3    H140375   0.747   1.182   0.301 -0.1256  0.8424  0.9600
 6272TIP3    H240376   0.640   1.129   0.208  1.0564  0.7172 -0.3545
 6273TIP3   OH240377   3.812   1.454   1.556  0.4549 -0.3012  0.4539
 6273TIP3    H140378   3.889   1.497   1.593  1.4968 -0.1295 -1.7358
 6273TIP3    H240379   3.846   1.370   1.523 -0.4886 -0.5959  0.2129
 6274TIP3   OH240380   3.924   3.617   0.794 -0.4234 -0.5867  0.1524
 6274TIP3    H140381   3.845   3.645   0.750  0.0928 -0.9788 -1.0583
 6274TIP3    H240382   3.905   3.528   0.825 -0.8645 -0.2247  0.9451
 6275TIP3   OH240383   4.438   2.366   1.872 -0.2951 -0.5370  0.0182
 6275TIP3    H140384   4.488   2.430   1.821  0.8738 -1.4809 -0.0651
 6275TIP3    H240385   4.346   2.386   1.852  0.0898 -1.1785 -2.8563
 6276TIP3   OH240386   5.626   0.575   1.784  0.1726  0.1757  0.2172
 6276TIP3    H140387   5.714   0.546   1.805  0.0172 -0.3015  0.2204
 6276TIP3    H240388   5.579   0.572   1.868  0.3460  1.1498  0.3660
 6277TIP3   OH240389   3.006   1.501   2.250  0.0879 -0.1792 -0.2559
 6277TIP3    H140390   2.953   1.494   2.170 -0.8444 -0.6028  0.3835
 6277TIP3    H240391   2.946   1.479   2.321  1.1807 -0.8597  0.4860
 6278TIP3   OH240392   5.555   2.633   8.493  0.8805  0.1924 -0.2410
 6278TIP3    H140393   5.637   2.637   8.444  0.6323 -0.0619 -0.6828
 6278TIP3    H240394   5.520   2.722   8.488  0.5644  0.0308 -1.0382
 6279TIP3   OH240395   1.615   1.501   1.684  0.3214 -0.6191  0.1522
 6279TIP3    H140396   1.652   1.421   1.722 -0.1083 -1.8853 -1.9207
 6279TIP3    H240397   1.539   1.470   1.633  0.0973  1.1101 -0.6254
 6280TIP3   OH240398   3.186   4.251   7.743 -0.1272  0.0120  0.0346
 6280TIP3    H140399   3.112   4.241   7.682  0.1009  0.3180 -0.2955
 6280TIP3    H240400   3.149   4.228   7.829 -0.3689 -0.7400 -0.2624
 6281TIP3   OH240401   0.467   4.210   2.058 -0.0597 -0.5304 -0.1734
 6281TIP3    H140402   0.372   4.211   2.067 -0.2081 -0.8395 -1.5015
 6281TIP3    H240403   0.500   4.209   2.149 -1.2574  1.4752  0.3281
 6282TIP3   OH240404   2.397   6.410   2.368  0.2985 -0.2012 -0.3380
 6282TIP3    H140405   2.467   6.411   2.433  0.0345  0.4998 -0.0564
 6282TIP3    H240406   2.338   6.480   2.394  0.1493  0.0516 -1.2929
 6283TIP3   OH240407   3.366   3.207   8.684 -0.1881  0.4194  0.0879
 6283TIP3    H140408   3.302   3.265   8.727 -0.0215 -0.1923  1.2106
 6283TIP3    H240409   3.427   3.184   8.754 -0.4258 -1.3479 -0.2441
 6284TIP3   OH240410   6.840   1.492   1.685 -0.4307 -0.2273  0.3748
 6284TIP3    H140411   6.831   1.398   1.702 -3.2216 -0.0046  0.5976
 6284TIP3    H240412   6.809   1.504   1.595  0.2655  0.4573  0.2106
 6285TIP3   OH240413   4.641   3.128   2.410  0.0171 -0.3742  0.1998
 6285TIP3    H140414   4.684   3.213   2.411 -0.2080 -0.2156 -1.3956
 6285TIP3    H240415   4.577   3.133   2.481  0.4633  0.5205  0.5613
 6286TIP3   OH240416   3.785   6.796   7.409  0.1784  0.1619 -0.1201
 6286TIP3    H140417   3.839   6.871   7.435  0.1254 -0.3328  1.5846
 6286TIP3    H240418   3.839   6.719   7.431 -0.4425 -0.3048 -0.2019
 6287TIP3   OH240419   0.254   5.250   7.670  0.5053 -0.0886 -0.6580
 6287TIP3    H140420   0.303   5.206   7.601  0.4957  0.9855 -1.3513
 6287TIP3    H240421   0.268   5.343   7.656  0.4100  0.1633  0.7205
 6288TIP3   OH240422   0.765   1.150   6.745  0.2590  0.5902 -0.1090
 6288TIP3    H140423   0.687   1.104   6.776  1.2134 -0.9242  0.1377
 6288TIP3    H240424   0.744   1.242   6.757 -1.4621  0.2217  0.0288
 6289TIP3   OH240425   4.480   6.626   1.146  0.5992 -0.0388  0.0577
 6289TIP3    H140426   4.574   6.605   1.145  0.9190  1.2773  0.7136
 6289TIP3    H240427   4.446   6.584   1.066  1.0912 -3.1844  1.3454
 6290TIP3   OH240428   1.465   0.499   6.826  0.2802  0.2418  0.1678
 6290TIP3    H140429   1.557   0.503   6.800  0.2679  0.9694  0.2199
 6290TIP3    H240430   1.468   0.480   6.920  0.3513 -0.7818 -0.0315
 6291TIP3   OH240431   3.207   3.774   2.416 -0.0332 -0.3167  0.6740
 6291TIP3    H140432   3.209   3.680   2.401  2.5204  0.0857 -2.5675
 6291TIP3    H240433   3.214   3.813   2.329 -1.1983  2.9270  1.8730
 6292TIP3   OH240434   0.152   3.548   8.709 -0.3309  0.0451 -0.2893
 6292TIP3    H140435   0.081   3.520   8.767 -1.4747  0.1881 -1.5756
 6292TIP3    H240436   0.186   3.627   8.750 -1.6910  0.6303 -0.2435
 6293TIP3   OH240437   3.037   1.776   2.786 -0.2476  0.1150 -0.6320
 6293TIP3    H140438   2.954   1.820   2.807 -0.9816 -1.2966 -0.3962
 6293TIP3    H240439   3.048   1.712   2.856  2.4842  2.0675  0.8741
 6294TIP3   OH240440   4.439   6.437   7.887  0.1085  0.4017 -0.3266
 6294TIP3    H140441   4.415   6.445   7.795 -1.7869 -1.3573 -0.0555
 6294TIP3    H240442   4.453   6.343   7.899 -3.7372 -0.0773  2.0121
 6295TIP3   OH240443   3.083   2.040   8.501  0.2525 -0.5861 -0.0215
 6295TIP3    H140444   3.128   2.111   8.455  1.6782 -2.8088 -2.2907
 6295TIP3    H240445   3.071   2.074   8.590 -0.7525  3.1292 -1.3524
 6296TIP3   OH240446   6.699   5.823   1.917 -0.9546  0.0546  0.6328
 6296TIP3    H140447   6.728   5.902   1.963  1.3371  0.0944 -0.7550
 6296TIP3    H240448   6.613   5.846   1.883 -1.3343  1.1196  2.1615
 6297TIP3   OH240449   1.341   2.614   0.832  0.2311  0.1198 -0.1619
 6297TIP3    H140450   1.435   2.602   0.817  0.0006 -0.9508 -0.9139
 6297TIP3    H240451   1.318   2.543   0.892 -0.3193 -0.4085 -0.9765
 6298TIP3   OH240452   5.079   2.712   7.831  1.0805 -0.0284  0.0634
 6298TIP3    H140453   5.174   2.707   7.820  0.9366 -1.9277 -0.6656
 6298TIP3    H240454   5.052   2.622   7.850 -0.2982  0.9055  3.1148
 6299TIP3   OH240455   2.630   2.175   7.445 -0.0760 -0.2680  0.2747
 6299TIP3    H140456   2.589   2.171   7.359  2.1012 -1.2227 -0.7969
 6299TIP3    H240457   2.627   2.268   7.468 -2.9803 -0.3041  0.4291
 6300TIP3   OH240458   3.625   6.002   1.431 -0.5982 -0.5806  0.1118
 6300TIP3    H140459   3.617   6.097   1.419 -1.8620 -0.6032  0.7114
 6300TIP3    H240460   3.702   5.992   1.489 -1.5216  0.2054  1.5350
 6301TIP3   OH240461   5.814   4.531   1.861  0.1793 -0.5728  0.1925
 6301TIP3    H140462   5.776   4.449   1.830  0.9480 -0.9129  0.1212
 6301TIP3    H240463   5.896   4.505   1.904 -0.7724 -0.1063  2.4043
 6302TIP3   OH240464   0.131   1.262   1.194 -0.3774  0.0583  0.3320
 6302TIP3    H140465   0.036   1.252   1.196 -0.4490  0.3961 -0.6849
 6302TIP3    H240466   0.163   1.181   1.154 -0.2975  0.2104  0.0796
 6303TIP3   OH240467   6.110   3.779   2.236 -0.0877 -0.0985  0.0444
 6303TIP3    H140468   6.157   3.790   2.319  0.6185 -0.9613 -0.2263
 6303TIP3    H240469   6.164   3.824   2.171  1.0792 -2.1314 -0.4856
 6304TIP3   OH240470   4.967   2.712   0.482  0.0150  0.0172 -0.3336
 6304TIP3    H140471   4.949   2.803   0.458  1.6309  0.4987  0.1492
 6304TIP3    H240472   4.982   2.714   0.576  0.3887 -0.6832 -0.3684
 6305TIP3   OH240473   6.660   5.798   8.526  0.1477  0.6474  0.4994
 6305TIP3    H140474   6.611   5.751   8.458  1.4768 -1.7889  1.1284
 6305TIP3    H240475   6.701   5.871   8.479  1.4252 -1.2224 -1.4773
 6306TIP3   OH240476   0.705   2.283   8.285 -0.2391 -0.2901 -0.0199
 6306TIP3    H140477   0.753   2.325   8.213 -0.4529 -1.8269 -1.1142
 6306TIP3    H240478   0.640   2.229   8.241 -1.1541 -0.3680  1.3906
 6307TIP3   OH240479   4.339   0.410   7.960 -0.6043 -0.1831 -0.4178
 6307TIP3    H140480   4.434   0.405   7.948  0.1334  0.7311  3.5307
 6307TIP3    H240481   4.314   0.323   7.989  0.1269  0.7041  3.4583
 6308TIP3   OH240482   0.044   2.396   2.596 -0.2356  0.5055  0.3603
 6308TIP3    H140483   0.126   2.393   2.645 -0.4023  0.0531  0.6143
 6308TIP3    H240484   0.035   2.309   2.558 -0.6192  0.5416  0.3619
 6309TIP3   OH240485   6.098   4.019   3.014 -0.1075  0.2981  0.6237
 6309TIP3    H140486   6.157   4.072   2.960 -0.8694  0.5496  0.0143
 6309TIP3    H240487   6.087   3.938   2.966  0.0056  0.1119  0.9069
 6310TIP3   OH240488   5.494   4.491   2.177 -0.5822 -0.0893  0.3352
 6310TIP3    H140489   5.569   4.525   2.127 -2.1221 -0.2220 -2.2370
 6310TIP3    H240490   5.457   4.568   2.220 -0.5764  0.4551 -0.6195
 6311TIP3   OH240491   5.363   6.222   2.154 -0.5808 -0.7179  0.1667
 6311TIP3    H140492   5.298   6.262   2.096  0.4250  0.2563 -0.3181
 6311TIP3    H240493   5.382   6.291   2.218  1.0992 -0.4381 -0.6076
 6312TIP3   OH240494   5.029   6.585   7.172  0.0658 -0.2637 -0.0264
 6312TIP3    H140495   4.957   6.528   7.201  0.3584 -0.6605 -0.0602
 6312TIP3    H240496   5.040   6.564   7.079  1.4271 -1.5792  0.3764
 6313TIP3   OH240497   3.756   6.654   1.765 -0.5378  0.1034 -0.0807
 6313TIP3    H140498   3.769   6.744   1.794 -0.9439 -0.1478  0.9163
 6313TIP3    H240499   3.819   6.603   1.816  0.1811 -0.1040 -1.1471
 6314TIP3   OH240500   4.240   2.111   7.825  0.3777 -0.4324 -0.2793
 6314TIP3    H140501   4.145   2.104   7.827  0.3011 -0.0560 -1.5986
 6314TIP3    H240502   4.258   2.205   7.824  0.6254 -0.4366 -2.7227
 6315TIP3   OH240503   2.868   6.701   8.184  0.4968 -0.3247  0.0799
 6315TIP3    H140504   2.878   6.607   8.174  1.4627 -0.3869  1.3160
 6315TIP3    H240505   2.778   6.719   8.159  0.2370 -1.6062  0.0279
 6316TIP3   OH240506   1.741   1.786   1.225 -0.4997 -0.4263  0.2938
 6316TIP3    H140507   1.781   1.701   1.206  1.4137  0.4735  0.0893
 6316TIP3    H240508   1.801   1.827   1.287 -0.6875  1.3046 -0.6246
 6317TIP3   OH240509   5.572   4.978   0.442 -0.7650  0.0754 -0.0443
 6317TIP3    H140510   5.485   4.977   0.402 -0.4697 -1.0146 -0.6862
 6317TIP3    H240511   5.610   5.061   0.414 -1.7692  0.8089  0.6667
 6318TIP3   OH240512   0.512   4.845   8.677  0.2368 -0.1923  0.3125
 6318TIP3    H140513   0.553   4.776   8.730 -1.3538 -1.3687  0.1190
 6318TIP3    H240514   0.536   4.823   8.587 -0.7161 -0.8472  0.2041
 6319TIP3   OH240515   0.410   0.113   2.259 -0.4287 -0.0186  0.2612
 6319TIP3    H140516   0.499   0.125   2.293 -0.1443 -0.2084 -0.3984
 6319TIP3    H240517   0.397   0.018   2.259 -0.8610  0.0324  0.9172
 6320TIP3   OH240518   4.751   5.944   2.590 -0.0261 -0.0199 -0.0784
 6320TIP3    H140519   4.816   5.939   2.519 -0.9299  1.5241 -1.0700
 6320TIP3    H240520   4.778   5.876   2.651  0.9448 -1.2515 -1.7728
 6321TIP3   OH240521   6.105   5.257   2.180  0.1020  0.7483  0.7719
 6321TIP3    H140522   6.030   5.301   2.140  0.2847  1.4780  1.2278
 6321TIP3    H240523   6.182   5.304   2.148  0.4143 -0.2159  0.0229
 6322TIP3   OH240524   0.855   3.103   7.603  0.1079 -0.3646  0.5314
 6322TIP3    H140525   0.768   3.081   7.634 -0.3087 -2.1123 -1.5716
 6322TIP3    H240526   0.841   3.145   7.518  1.2762 -0.4988  0.2422
 6323TIP3   OH240527   0.661   5.338   2.119  0.2657  0.3746 -0.0160
 6323TIP3    H140528   0.734   5.293   2.161  0.4220 -0.5689 -1.2387
 6323TIP3    H240529   0.586   5.280   2.132 -0.4280  1.5731  1.6722
 6324TIP3   OH240530   0.345   4.817   7.702 -0.5112 -0.3086 -0.0142
 6324TIP3    H140531   0.312   4.770   7.779  0.7204 -1.1067  0.0642
 6324TIP3    H240532   0.310   4.768   7.627  0.5566 -1.2242  0.0675
 6325TIP3   OH240533   0.290   5.618   8.453  0.5991 -0.1356  0.4253
 6325TIP3    H140534   0.295   5.695   8.510  1.9168 -0.3727  0.6535
 6325TIP3    H240535   0.222   5.563   8.493  0.8243  0.1480  1.2099
 6326TIP3   OH240536   5.006   6.337   7.462  0.0299 -0.0852 -0.0412
 6326TIP3    H140537   4.997   6.264   7.524 -1.1476  1.0611  1.1998
 6326TIP3    H240538   4.943   6.318   7.393 -0.0895 -0.3741  0.1462
 6327TIP3   OH240539   6.057   4.970   1.635  0.2496  0.6360  0.2294
 6327TIP3    H140540   5.986   5.000   1.692 -0.0238 -2.2253  1.5785
 6327TIP3    H240541   6.119   4.928   1.694  2.1094  1.2879 -1.1599
 6328TIP3   OH240542   0.094   0.423   0.933  0.0127  0.1502  0.1030
 6328TIP3    H140543   0.081   0.498   0.991  2.0945 -0.7752  1.8928
 6328TIP3    H240544   0.186   0.429   0.906  0.1407 -1.5792  0.0498
 6329TIP3   OH240545   3.561   4.438   1.381 -0.1178 -0.2210 -0.0667
 6329TIP3    H140546   3.515   4.403   1.457  0.0536 -1.7197 -0.6267
 6329TIP3    H240547   3.651   4.409   1.392  0.5340  1.8098  0.4825
 6330TIP3   OH240548   0.017   2.047   1.610 -0.1258  0.3527  0.1455
 6330TIP3    H140549   0.041   1.989   1.538 -1.4310  0.1405 -0.1432
 6330TIP3    H240550   0.025   1.992   1.688 -0.1156  0.1498  0.0035
 6331TIP3   OH240551   5.530   1.886   2.154 -0.0561 -0.7047 -0.2184
 6331TIP3    H140552   5.461   1.835   2.196 -0.4987  1.5452  2.0221
 6331TIP3    H240553   5.605   1.878   2.214  0.5077 -0.3014 -0.8512
 6332TIP3   OH240554   4.684   1.441   2.680  0.4133 -0.2083  0.1614
 6332TIP3    H140555   4.754   1.384   2.710  2.9506  2.4172 -0.3508
 6332TIP3    H240556   4.713   1.474   2.595 -1.5571  0.7992 -0.1992
 6333TIP3   OH240557   4.237   6.259   3.435  0.3050 -0.4655 -0.6889
 6333TIP3    H140558   4.231   6.167   3.409  1.8427 -1.3782  1.8523
 6333TIP3    H240559   4.317   6.291   3.392 -0.3878 -0.1715 -1.8126
 6334TIP3   OH240560   2.822   4.150   2.059  0.4901 -0.0665  0.3102
 6334TIP3    H140561   2.906   4.123   2.021 -0.0797 -2.8809  0.8157
 6334TIP3    H240562   2.791   4.073   2.106 -2.5393  0.7946 -0.0563
 6335TIP3   OH240563   2.525   2.274   2.323  0.0679 -0.4073 -0.2488
 6335TIP3    H140564   2.498   2.318   2.403 -1.8230 -0.3773 -0.8663
 6335TIP3    H240565   2.565   2.343   2.269  3.2873 -0.7903  1.3842
 6336TIP3   OH240566   6.561   3.565   2.935  0.0122  0.4830 -0.0314
 6336TIP3    H140567   6.544   3.634   2.999  0.1425  0.4540  0.0368
 6336TIP3    H240568   6.588   3.490   2.988  1.6879  0.9226 -0.1775
 6337TIP3   OH240569   3.267   0.801   2.072 -0.0312  0.1196  0.3785
 6337TIP3    H140570   3.218   0.719   2.084  1.1960 -0.8695 -0.9661
 6337TIP3    H240571   3.340   0.794   2.134  0.0419  0.2293  0.3033
 6338TIP3   OH240572   1.491   5.144   7.848 -0.2537 -1.0071 -0.1651
 6338TIP3    H140573   1.464   5.117   7.760 -1.6462 -2.1215  0.5542
 6338TIP3    H240574   1.527   5.232   7.837 -0.1482 -1.2362 -1.8808
 6339TIP3   OH240575   4.580   6.288   0.960  0.3911 -1.0048  0.0935
 6339TIP3    H140576   4.519   6.238   0.905 -0.0098 -1.4735  0.9368
 6339TIP3    H240577   4.540   6.375   0.966 -1.1645 -1.7611  2.0210
 6340TIP3   OH240578   6.763   5.822   0.096  0.3709 -0.3062 -0.0067
 6340TIP3    H140579   6.695   5.786   0.153 -0.0470  1.0631  0.4036
 6340TIP3    H240580   6.716   5.847   0.016  0.4011  0.4721  0.2070
 6341TIP3   OH240581   6.835   6.132   1.460 -0.2428  0.1375 -0.1949
 6341TIP3    H140582   6.874   6.053   1.498 -1.6523 -0.3360  0.3242
 6341TIP3    H240583   6.741   6.116   1.462 -0.5035  1.3927 -1.0862
 6342TIP3   OH240584   3.810   4.944   8.240  0.1966  0.6928  0.0791
 6342TIP3    H140585   3.720   4.928   8.269  0.0449 -0.2715 -0.8188
 6342TIP3    H240586   3.856   4.975   8.318 -0.6068 -0.0592  0.8800
 6343TIP3   OH240587   3.525   4.102   8.694 -0.4816  0.2211  0.1884
 6343TIP3    H140588   3.508   4.095   8.600 -1.2146  0.6371  0.2812
 6343TIP3    H240589   3.610   4.146   8.700 -0.0809 -0.4678 -0.2793
 6344TIP3   OH240590   5.660   4.796   0.607  0.5642 -0.0055 -0.0677
 6344TIP3    H140591   5.733   4.826   0.660 -0.2717 -0.1040  1.1891
 6344TIP3    H240592   5.621   4.876   0.572 -1.1189  0.4424  2.5444
 6345TIP3   OH240593   4.178   0.248   0.604  0.7223 -0.0381  0.2101
 6345TIP3    H140594   4.159   0.322   0.546 -0.2182 -1.2778 -1.1293
 6345TIP3    H240595   4.234   0.190   0.552 -0.5086 -1.3976  0.3412
 6346TIP3   OH240596   3.759   3.965   7.483  0.3572 -0.0673  0.3360
 6346TIP3    H140597   3.805   3.958   7.399  0.3571 -0.9546  0.4060
 6346TIP3    H240598   3.667   3.981   7.459  0.3373 -0.4337  0.1677
 6347TIP3   OH240599   4.771   3.289   0.405  0.2394  0.0504 -0.0352
 6347TIP3    H140600   4.754   3.307   0.313  0.6837  0.7003  0.0022
 6347TIP3    H240601   4.718   3.212   0.425  0.7532 -0.5858 -1.0402
 6348TIP3   OH240602   6.366   4.637   0.583  0.0344  0.1540  0.1199
 6348TIP3    H140603   6.370   4.551   0.541  0.8461  0.7281 -1.0405
 6348TIP3    H240604   6.296   4.629   0.648 -3.1448 -0.0729 -3.0069
 6349TIP3   OH240605   4.326   6.472   1.675 -0.3169 -0.0899  0.1075
 6349TIP3    H140606   4.389   6.507   1.611  2.3755 -0.1025  2.5252
 6349TIP3    H240607   4.289   6.395   1.632  0.3050  0.6711 -1.9367
 6350TIP3   OH240608   2.936   5.261   2.165 -0.5421 -0.7508  0.3374
 6350TIP3    H140609   3.010   5.315   2.136  0.2775 -2.5969 -1.2182
 6350TIP3    H240610   2.924   5.283   2.257  1.2254  0.4002  0.3347
 6351TIP3   OH240611   6.026   2.173   8.417 -0.2410 -0.1331  0.2686
 6351TIP3    H140612   6.105   2.140   8.373  0.4666  0.6129  0.9283
 6351TIP3    H240613   6.054   2.256   8.456 -2.0721  1.5571 -1.7470
 6352TIP3   OH240614   4.579   1.172   7.963  0.0959  0.2613 -0.7258
 6352TIP3    H140615   4.533   1.249   7.996  0.7965  0.7730 -0.9282
 6352TIP3    H240616   4.509   1.111   7.937 -0.4600  0.8841 -0.7036
 6353TIP3   OH240617   5.129   1.499   2.434  0.2511 -0.2214  0.4244
 6353TIP3    H140618   5.065   1.429   2.426 -0.8132  0.6587  0.9263
 6353TIP3    H240619   5.175   1.500   2.350 -0.7046 -0.5876 -0.1184
 6354TIP3   OH240620   4.530   3.291   0.878  0.2018 -0.1333 -0.3288
 6354TIP3    H140621   4.464   3.303   0.809  0.7193 -1.4317 -1.0697
 6354TIP3    H240622   4.487   3.235   0.942  0.1029  0.1614 -0.1386
 6355TIP3   OH240623   0.927   0.743   1.496 -0.4133  0.0821 -0.1590
 6355TIP3    H140624   0.840   0.778   1.512 -0.1867  1.0527 -0.9174
 6355TIP3    H240625   0.954   0.782   1.413  0.4688 -0.7480 -0.2882
 6356TIP3   OH240626   0.253   0.865   7.235  0.2582 -0.0908  0.2352
 6356TIP3    H140627   0.197   0.816   7.175  1.1056  1.3788 -1.8904
 6356TIP3    H240628   0.240   0.824   7.320 -2.4959 -1.0376 -0.5605
 6357TIP3   OH240629   5.368   1.588   6.759 -0.2640  0.0236  0.5872
 6357TIP3    H140630   5.455   1.613   6.729  0.3430 -1.8452  0.6201
 6357TIP3    H240631   5.350   1.506   6.712 -1.5406 -0.1769  1.3876
 6358TIP3   OH240632   3.723   6.711   1.507  0.2047  0.0018  0.9639
 6358TIP3    H140633   3.627   6.707   1.506  0.1565  0.7676  1.7143
 6358TIP3    H240634   3.746   6.703   1.599  0.8979 -0.5789  0.7485
 6359TIP3   OH240635   5.702   0.170   1.035  0.3590 -0.7566 -0.4728
 6359TIP3    H140636   5.691   0.077   1.055 -0.1296 -0.4806  0.6123
 6359TIP3    H240637   5.616   0.197   1.001 -0.9764  0.2137  3.1680
 6360TIP3   OH240638   0.908   3.303   0.438  0.3146  0.0081  0.2625
 6360TIP3    H140639   0.974   3.364   0.403  0.2972  0.8818  1.6662
 6360TIP3    H240640   0.954   3.220   0.446  0.3890 -0.1581 -1.5448
 6361TIP3   OH240641   4.690   1.332   7.459  0.5502  0.3308 -0.2389
 6361TIP3    H140642   4.635   1.327   7.381 -0.8244  3.1911  0.4006
 6361TIP3    H240643   4.630   1.351   7.530  2.0175  0.1166  1.1213
 6362TIP3   OH240644   4.282   4.256   7.739  0.0201 -0.3690 -0.4432
 6362TIP3    H140645   4.285   4.201   7.660  0.5962 -1.4553  0.3047
 6362TIP3    H240646   4.366   4.239   7.782 -0.6408 -0.4519  0.8358
 6363TIP3   OH240647   5.628   0.810   0.517  0.9245 -0.3207 -0.0343
 6363TIP3    H140648   5.593   0.853   0.594 -0.4071  0.9978 -1.3171
 6363TIP3    H240649   5.710   0.856   0.499  1.1302 -0.4888  0.4506
 6364TIP3   OH240650   0.569   4.319   0.038 -0.4322  0.0921  0.0064
 6364TIP3    H140651   0.598   4.232   0.012  0.0804  0.3520 -0.3026
 6364TIP3    H240652   0.565   4.316   0.134  0.0636 -0.1226  0.0222
 6365TIP3   OH240653   0.082   2.091   0.601 -0.2352 -0.3406 -0.3474
 6365TIP3    H140654   0.133   2.114   0.524  0.5743 -2.6151 -0.5784
 6365TIP3    H240655   0.029   2.016   0.574 -1.8745  0.4315  0.6005
 6366TIP3   OH240656   3.788   4.061   1.563 -0.0383  0.3273 -0.3073
 6366TIP3    H140657   3.803   4.093   1.474 -0.7240 -0.2417 -0.6382
 6366TIP3    H240658   3.692   4.057   1.571  0.0294 -0.2226  0.2375
 6367TIP3   OH240659   6.101   4.631   1.229 -0.0455  0.4752  0.1721
 6367TIP3    H140660   6.189   4.593   1.225 -0.5029 -0.5091 -1.2481
 6367TIP3    H240661   6.106   4.695   1.300  1.7239  0.2105  0.3335
 6368TIP3   OH240662   1.291   2.655   8.424 -0.2837 -0.9265  0.2663
 6368TIP3    H140663   1.311   2.747   8.411 -2.3808 -0.3147  0.9152
 6368TIP3    H240664   1.252   2.626   8.341 -1.0698 -0.7779  0.5745
 6369TIP3   OH240665   2.528   1.222   1.349  0.3148 -0.0309 -0.1677
 6369TIP3    H140666   2.517   1.128   1.366  0.1410  0.2191  1.2528
 6369TIP3    H240667   2.449   1.247   1.302  0.1423 -0.5121 -0.1445
 6370TIP3   OH240668   0.054   0.397   1.685  0.4189  0.0050 -0.2552
 6370TIP3    H140669   0.127   0.340   1.713  0.1045 -0.4499 -0.3482
 6370TIP3    H240670  -0.013   0.382   1.751  1.5941  2.9778  1.8350
 6371TIP3   OH240671   5.740   6.757   0.281 -0.1113 -0.1640  0.1827
 6371TIP3    H140672   5.821   6.707   0.267  0.1654 -0.0824  1.3649
 6371TIP3    H240673   5.694   6.708   0.349  0.0488  1.0535  1.1905
 6372TIP3   OH240674   0.680   5.567   8.165  0.0512 -0.0788  0.2972
 6372TIP3    H140675   0.670   5.610   8.080 -1.1525  2.0616  1.4158
 6372TIP3    H240676   0.637   5.627   8.227  1.3568 -1.2764  2.4999
 6373TIP3   OH240677   5.482   2.895   1.741 -0.0838 -0.0059 -0.2957
 6373TIP3    H140678   5.565   2.926   1.778  0.1817 -0.6372 -0.3514
 6373TIP3    H240679   5.477   2.937   1.655 -0.1639  0.5864 -0.0040
 6374TIP3   OH240680   1.557   1.277   8.482 -0.0164 -0.0664  0.4950
 6374TIP3    H140681   1.608   1.199   8.461  0.7979  0.8242 -1.0334
 6374TIP3    H240682   1.530   1.311   8.397 -1.6790  0.4735  1.2110
 6375TIP3   OH240683   4.184   3.374   7.735 -0.3913  0.0745 -0.0845
 6375TIP3    H140684   4.177   3.461   7.696  0.5189 -0.7581 -2.2430
 6375TIP3    H240685   4.180   3.313   7.661  0.4143 -1.6587  1.2164
 6376TIP3   OH240686   6.801   4.057   8.501  0.0399 -0.0439 -0.1671
 6376TIP3    H140687   6.736   4.113   8.543  0.4392 -0.2085  0.7029
 6376TIP3    H240688   6.761   4.032   8.418  0.4489  2.7085 -1.3034
 6377TIP3   OH240689   5.525   5.217   0.617 -0.3472 -0.2478  0.2083
 6377TIP3    H140690   5.470   5.139   0.619 -0.5522 -0.0921  1.1490
 6377TIP3    H240691   5.578   5.207   0.538 -0.2542 -1.4222  0.4011
 6378TIP3   OH240692   3.209   2.153   1.345  0.2309 -0.1407  0.3993
 6378TIP3    H140693   3.164   2.092   1.404 -0.6534  0.6730  0.5985
 6378TIP3    H240694   3.296   2.165   1.384  0.0083 -0.3923  0.9843
 6379TIP3   OH240695   1.868   5.792   2.013  0.4732  0.5317  0.5480
 6379TIP3    H140696   1.788   5.835   1.982  0.2867 -0.6330 -0.7298
 6379TIP3    H240697   1.838   5.709   2.050  0.8889  1.1287  2.3069
 6380TIP3   OH240698   3.989   5.404   2.134 -0.2376  0.3791 -0.1820
 6380TIP3    H140699   3.964   5.494   2.112 -2.2209 -0.2537 -0.7888
 6380TIP3    H240700   4.045   5.377   2.063 -0.3089  0.8723 -0.4344
 6381TIP3   OH240701   6.778   2.356   7.283  0.2143  0.4256 -0.1245
 6381TIP3    H140702   6.762   2.377   7.191 -1.4647 -0.3308 -0.0442
 6381TIP3    H240703   6.843   2.420   7.311 -1.7868  2.9885 -0.9160
 6382TIP3   OH240704   0.321   1.578   0.220 -0.0690  0.3495 -0.1155
 6382TIP3    H140705   0.228   1.556   0.207 -0.1548 -0.1563  1.1420
 6382TIP3    H240706   0.362   1.559   0.136 -0.7400 -1.4692 -0.0908
 6383TIP3   OH240707   0.285   0.381   2.421  0.7977  0.3680 -0.3845
 6383TIP3    H140708   0.331   0.316   2.369 -1.8702 -0.2772 -2.1626
 6383TIP3    H240709   0.274   0.456   2.363 -1.8293 -0.1824 -0.7387
 6384TIP3   OH240710   4.717   3.794   0.130  0.0536  0.6440 -0.1848
 6384TIP3    H140711   4.810   3.784   0.112  0.3062  2.6873 -0.2713
 6384TIP3    H240712   4.692   3.872   0.082 -1.5485  0.5391  0.4173
 6385TIP3   OH240713   6.751   3.241   6.987 -0.1656 -0.4573 -0.5667
 6385TIP3    H140714   6.747   3.298   6.910  1.1246  0.1815 -0.1891
 6385TIP3    H240715   6.781   3.157   6.954 -1.1675 -0.6628 -0.9875
 6386TIP3   OH240716   5.702   5.613   0.451  0.4989 -0.7277  0.0168
 6386TIP3    H140717   5.738   5.658   0.375  0.1387 -0.1630  0.1764
 6386TIP3    H240718   5.612   5.591   0.425 -0.6213  1.9784  1.2516
 6387TIP3   OH240719   5.098   1.994   7.744  0.8901  0.0869 -0.3288
 6387TIP3    H140720   5.161   2.022   7.677  1.5204 -1.0091 -0.2126
 6387TIP3    H240721   5.128   2.037   7.824  0.4629  0.9517 -0.6216
 6388TIP3   OH240722   2.121   5.086   1.358  0.0251  0.2340 -0.3728
 6388TIP3    H140723   2.142   5.158   1.417 -0.6502 -1.1180  1.6227
 6388TIP3    H240724   2.025   5.083   1.358  0.0450 -1.2441  0.3752
 6389TIP3   OH240725   0.239   2.508   1.305  0.3273  1.3552 -0.8310
 6389TIP3    H140726   0.204   2.560   1.233 -0.7666  2.2289  0.3012
 6389TIP3    H240727   0.203   2.420   1.290 -0.7436  1.7781 -0.7813
 6390TIP3   OH240728   0.485   3.831   7.264 -0.4825  0.0109 -0.2793
 6390TIP3    H140729   0.580   3.815   7.258 -0.1464 -0.0543  3.2735
 6390TIP3    H240730   0.469   3.898   7.199  1.9128 -0.3062 -1.3284
 6391TIP3   OH240731   0.704   5.466   1.710 -0.0514  0.0079  0.5066
 6391TIP3    H140732   0.682   5.495   1.799  0.8313  0.5094  0.5707
 6391TIP3    H240733   0.790   5.502   1.694 -0.9536  1.5003 -1.2773
 6392TIP3   OH240734   4.194   4.974   0.222  0.0877 -0.1707 -0.2040
 6392TIP3    H140735   4.100   4.971   0.201 -0.2856 -0.1766  1.3349
 6392TIP3    H240736   4.199   5.025   0.303  1.2392 -1.4286  0.5695
 6393TIP3   OH240737   0.641   6.060   8.641  0.0457 -0.2277 -0.2837
 6393TIP3    H140738   0.701   6.072   8.567 -0.7936 -1.0530 -1.1260
 6393TIP3    H240739   0.555   6.053   8.601 -0.6185  0.8065  0.9025
 6394TIP3   OH240740   3.289   3.918   1.527  0.6954 -0.2568  0.3035
 6394TIP3    H140741   3.215   3.943   1.583  0.9821 -1.6601  1.3601
 6394TIP3    H240742   3.254   3.846   1.473  0.8058  0.2116 -0.3997
 6395TIP3   OH240743   3.524   5.723   0.616  0.5358  0.3083  0.2743
 6395TIP3    H140744   3.442   5.766   0.591  1.1806  2.0031  0.9201
 6395TIP3    H240745   3.500   5.664   0.687 -0.3202 -0.1782 -0.4014
 6396TIP3   OH240746   0.501   2.452   1.354  0.3713  0.1319 -0.8362
 6396TIP3    H140747   0.480   2.486   1.441  2.3131  1.8817 -0.9600
 6396TIP3    H240748   0.418   2.450   1.307 -0.3541  1.4408  0.3268
 6397TIP3   OH240749   2.525   6.410   0.192  0.3229  0.5646 -0.1178
 6397TIP3    H140750   2.469   6.342   0.154  1.0275  0.2618 -0.6525
 6397TIP3    H240751   2.553   6.463   0.117  0.2948  1.0601  0.2158
 6398TIP3   OH240752   0.446   3.551   8.304 -0.4930 -0.3112 -0.2755
 6398TIP3    H140753   0.386   3.479   8.286 -0.6779  0.4639 -3.1401
 6398TIP3    H240754   0.390   3.629   8.307  0.0040  0.0371  0.3024
 6399TIP3   OH240755   5.555   1.167   8.188  0.4223  0.5167 -0.1806
 6399TIP3    H140756   5.527   1.123   8.108  0.2797  0.3461 -0.0383
 6399TIP3    H240757   5.647   1.189   8.173  1.6187 -2.8855  1.0337
 6400TIP3   OH240758   3.972   0.720   1.646  0.0425  0.0453 -0.3557
 6400TIP3    H140759   4.016   0.636   1.661  0.3495  0.5304  1.7192
 6400TIP3    H240760   4.003   0.777   1.716 -0.8891  1.6349 -1.1653
 6401TIP3   OH240761   1.925   6.012   7.778 -0.2254  1.2093  0.4470
 6401TIP3    H140762   1.926   6.025   7.683 -0.6749  1.0579  0.4212
 6401TIP3    H240763   1.944   5.919   7.790 -0.0635  1.2493  0.5139
 6402TIP3   OH240764   6.182   5.454   2.561  0.3403  0.0359 -0.1052
 6402TIP3    H140765   6.092   5.486   2.563  0.7132  1.1274 -0.4789
 6402TIP3    H240766   6.236   5.532   2.549  1.3997 -0.4980  0.9188
 6403TIP3   OH240767   3.586   0.310   7.804  0.1851  0.0022  0.3620
 6403TIP3    H140768   3.540   0.280   7.726  1.2172 -1.4973  0.2812
 6403TIP3    H240769   3.679   0.309   7.778  0.5360 -0.4661  1.5791
 6404TIP3   OH240770   3.709   4.502   2.685 -0.4310  0.2371  0.2588
 6404TIP3    H140771   3.727   4.563   2.756  1.0602  0.5908 -0.3791
 6404TIP3    H240772   3.791   4.456   2.671 -0.4159  0.7797 -1.7871
 6405TIP3   OH240773   5.794   5.925   0.464 -0.1390  0.4604 -0.4336
 6405TIP3    H140774   5.888   5.933   0.449  0.0659 -0.7412  0.1460
 6405TIP3    H240775   5.762   5.873   0.391 -0.2421  0.3228 -0.2924
 6406TIP3   OH240776   3.996   5.199   2.841  0.0629  0.5893  0.8146
 6406TIP3    H140777   4.005   5.291   2.865  1.0407  0.4240  1.1029
 6406TIP3    H240778   4.077   5.177   2.796  1.3140 -0.9634  3.5479
 6407TIP3   OH240779   0.036   4.079   0.589  0.1170  0.6847  0.8056
 6407TIP3    H140780   0.014   3.993   0.554  1.9150  0.0634  1.0531
 6407TIP3    H240781   0.096   4.116   0.523  0.7403  0.9823  1.5255
 6408TIP3   OH240782   3.730   4.773   8.582 -0.3515 -0.2335  0.1173
 6408TIP3    H140783   3.759   4.684   8.604  0.7145  0.0107 -0.2430
 6408TIP3    H240784   3.669   4.760   8.509 -1.7254 -0.8058  1.3003
 6409TIP3   OH240785   1.604   3.873   1.459 -0.1307  0.6053  0.9356
 6409TIP3    H140786   1.521   3.881   1.411 -0.3114  0.1211  1.1662
 6409TIP3    H240787   1.669   3.909   1.400 -0.6434  1.9639  1.1538
 6410TIP3   OH240788   3.598   0.649   3.261 -0.1725  0.2272 -0.4151
 6410TIP3    H140789   3.653   0.571   3.258  0.4683  0.5880  0.9228
 6410TIP3    H240790   3.659   0.722   3.248 -0.0522  0.7073  2.1480
 6411TIP3   OH240791   0.979   6.623   0.192  0.0852 -0.4832 -0.2943
 6411TIP3    H140792   1.041   6.658   0.127  0.8830 -3.0069 -1.0084
 6411TIP3    H240793   1.010   6.659   0.276 -0.5956  2.3327 -1.1329
 6412TIP3   OH240794   3.678   1.971   6.808  0.0038 -0.1099  0.5827
 6412TIP3    H140795   3.762   2.007   6.836  1.0797 -0.7988 -1.5362
 6412TIP3    H240796   3.701   1.896   6.754 -1.8558  0.9012 -1.8053
 6413TIP3   OH240797   3.407   3.520   0.650  0.0355  0.7105 -0.4316
 6413TIP3    H140798   3.496   3.499   0.679 -0.6704 -0.0971  1.2992
 6413TIP3    H240799   3.412   3.610   0.618  1.0544  1.4412  1.6602
 6414TIP3   OH240800   3.629   0.228   2.412  0.5139 -0.0638  0.0001
 6414TIP3    H140801   3.551   0.173   2.416 -0.8248  1.7688  0.4728
 6414TIP3    H240802   3.650   0.246   2.504  0.5083  0.7888 -0.1655
 6415TIP3   OH240803   0.483   1.352   0.795 -0.6186 -0.1445  0.5739
 6415TIP3    H140804   0.393   1.376   0.772 -0.2822 -0.5892 -1.3651
 6415TIP3    H240805   0.479   1.259   0.813 -0.4080 -0.3696 -0.4634
 6416TIP3   OH240806   5.310   5.170   1.148 -0.1696  0.5854  0.0589
 6416TIP3    H140807   5.358   5.102   1.196  0.0179  1.3440  0.9737
 6416TIP3    H240808   5.352   5.252   1.173 -0.5978  1.0782 -0.7838
 6417TIP3   OH240809   1.648   6.733   1.129 -0.2279 -0.0709 -0.0831
 6417TIP3    H140810   1.591   6.808   1.147  0.4203  0.2996  0.4370
 6417TIP3    H240811   1.723   6.770   1.084 -0.1550 -0.4905 -0.3128
 6418TIP3   OH240812   2.988   1.321   0.352  0.0533  0.4314 -0.7094
 6418TIP3    H140813   2.942   1.358   0.427 -1.8307  0.8100 -1.9570
 6418TIP3    H240814   2.962   1.229   0.351  1.7545 -0.1012  0.2515
 6419TIP3   OH240815   4.576   2.513   8.148  0.8025  0.3408  0.4543
 6419TIP3    H140816   4.641   2.515   8.079  1.0568  0.6098  0.6965
 6419TIP3    H240817   4.523   2.436   8.130 -0.5163  1.5831 -1.3065
 6420TIP3   OH240818   0.696   5.572   1.953  0.1903  0.9612  0.0206
 6420TIP3    H140819   0.785   5.608   1.948  0.1079  1.5712  2.2341
 6420TIP3    H240820   0.699   5.512   2.027 -0.7112 -0.7383 -1.2441
 6421TIP3   OH240821   1.797   1.202   8.051 -0.0115 -0.2570 -0.0979
 6421TIP3    H140822   1.773   1.180   7.961  3.2065 -0.2728 -1.1096
 6421TIP3    H240823   1.853   1.130   8.079  1.6020  1.2074  0.6913
 6422TIP3   OH240824   4.087   6.634   1.319 -0.6257  0.4019 -0.4702
 6422TIP3    H140825   4.125   6.550   1.296  2.2973  0.4799  3.0616
 6422TIP3    H240826   3.995   6.615   1.338 -0.1844 -1.8922 -0.4083
 6423TIP3   OH240827   5.417   0.758   7.208  0.2296  0.0809 -0.2514
 6423TIP3    H140828   5.411   0.793   7.119  4.1144 -0.1691 -0.7813
 6423TIP3    H240829   5.437   0.665   7.195  0.5270 -0.0247  0.8928
 6424TIP3   OH240830   2.048   5.946   1.641 -0.0146 -0.3557  0.0429
 6424TIP3    H140831   2.091   5.886   1.580 -0.2225 -2.0889  1.5067
 6424TIP3    H240832   1.957   5.947   1.613  0.0214 -0.5878 -0.0855
 6425TIP3   OH240833   0.573   6.015   7.795 -0.1844 -0.0984 -0.1614
 6425TIP3    H140834   0.481   6.043   7.803 -0.1686 -0.1129  0.0800
 6425TIP3    H240835   0.587   5.959   7.871  0.0988  0.1062 -0.0618
 6426TIP3   OH240836   4.751   0.710   1.137 -0.0309  0.2548 -0.4021
 6426TIP3    H140837   4.679   0.744   1.085  0.0963 -0.3609 -1.0014
 6426TIP3    H240838   4.769   0.778   1.201 -0.6427  0.7357 -0.7327
 6427TIP3   OH240839   0.870   5.144   8.194  0.1774 -0.1117 -0.1747
 6427TIP3    H140840   0.804   5.136   8.125 -0.6290  1.4284  0.3577
 6427TIP3    H240841   0.843   5.222   8.243  1.4164 -0.4692  1.1351
 6428TIP3   OH240842   3.889   0.820   2.468 -0.6152 -0.3024  0.5665
 6428TIP3    H140843   3.932   0.903   2.490  0.7333 -1.0554  0.8716
 6428TIP3    H240844   3.926   0.757   2.529 -1.1061 -1.2803 -0.1201
 6429TIP3   OH240845   4.567   1.150   8.432  0.1395  0.1743  0.0707
 6429TIP3    H140846   4.654   1.121   8.403  0.0248  0.0447 -0.1443
 6429TIP3    H240847   4.513   1.149   8.353 -0.4643 -1.2570  0.4704
 6430TIP3   OH240848   4.031   0.711   0.742  0.2802 -0.0442  0.0837
 6430TIP3    H140849   4.118   0.686   0.710  0.2742  1.9310 -1.6741
 6430TIP3    H240850   4.029   0.806   0.736 -2.5997 -0.0826 -1.6885
 6431TIP3   OH240851   6.240   0.588   2.266  0.4319 -0.3921 -0.6842
 6431TIP3    H140852   6.224   0.674   2.306  0.8381  0.0060 -1.3551
 6431TIP3    H240853   6.317   0.554   2.311  0.7371 -0.0582 -0.9473
 6432TIP3   OH240854   0.903   5.140   2.004 -0.3421  0.7026  0.5553
 6432TIP3    H140855   0.931   5.126   2.095 -0.8392  1.3670  0.8183
 6432TIP3    H240856   0.950   5.219   1.976 -2.0908  1.9996  1.0941
 6433TIP3   OH240857   4.007   4.590   0.745  0.2640  0.3072  0.2790
 6433TIP3    H140858   3.939   4.608   0.810 -0.3743 -0.7044 -0.0788
 6433TIP3    H240859   3.967   4.616   0.662  0.6262  0.4724  0.1575
 6434TIP3   OH240860   3.476   4.088   2.060 -0.9828  0.2971  0.1613
 6434TIP3    H140861   3.536   4.053   2.126 -1.3350 -0.0598  0.2924
 6434TIP3    H240862   3.521   4.074   1.977 -0.0171  1.7688  0.3809
 6435TIP3   OH240863   4.336   4.426   8.205 -0.6525 -0.0757 -0.1186
 6435TIP3    H140864   4.300   4.366   8.140  0.1797  0.2751 -0.9266
 6435TIP3    H240865   4.417   4.385   8.233 -0.9480 -0.1648  0.6299
 6436TIP3   OH240866   3.727   5.641   1.797 -0.8131 -0.1177 -0.3863
 6436TIP3    H140867   3.798   5.591   1.758  0.2671  0.7593  0.4174
 6436TIP3    H240868   3.647   5.599   1.763  0.0613 -0.6137 -1.9175
 6437TIP3   OH240869   5.532   4.289   7.562  0.2153  0.1289  0.1736
 6437TIP3    H140870   5.449   4.299   7.515  0.0236  0.6577  0.6146
 6437TIP3    H240871   5.599   4.296   7.494 -0.0277  1.6079  0.0593
 6438TIP3   OH240872   2.108   6.753   8.182 -0.8804  0.1589 -0.5108
 6438TIP3    H140873   2.035   6.813   8.196 -1.0238 -0.4149  1.4803
 6438TIP3    H240874   2.181   6.791   8.232 -0.4276 -0.3580 -0.7645
 6439TIP3   OH240875   5.185   3.152   1.538  0.1590  0.1776 -0.4933
 6439TIP3    H140876   5.146   3.156   1.451 -0.0794 -1.6623 -0.5258
 6439TIP3    H240877   5.262   3.208   1.533  1.2763 -1.3775 -2.5411
 6440TIP3   OH240878   2.821   3.847   0.193  0.1190 -0.1385  0.0527
 6440TIP3    H140879   2.819   3.829   0.099  1.0197  0.0365 -0.0141
 6440TIP3    H240880   2.803   3.941   0.200  0.9895  0.0407 -0.0234
 6441TIP3   OH240881   5.258   4.875   1.934  0.0928  0.0499 -0.7677
 6441TIP3    H140882   5.259   4.779   1.930  3.3940 -0.0588 -0.7126
 6441TIP3    H240883   5.214   4.901   1.853  0.1667 -1.5284 -1.3600
 6442TIP3   OH240884   3.263   6.333   0.599  0.5374  0.3330  0.2822
 6442TIP3    H140885   3.265   6.410   0.656  0.6470  0.3519  0.2551
 6442TIP3    H240886   3.332   6.350   0.534  1.7416 -0.5444  1.2748
 6443TIP3   OH240887   3.077   2.118   1.055  0.2076 -0.5314 -0.2467
 6443TIP3    H140888   2.990   2.094   1.022 -0.4435 -0.0351  1.0381
 6443TIP3    H240889   3.071   2.106   1.150  1.5173 -0.3920 -0.1248
 6444TIP3   OH240890   6.764   0.188   7.909 -0.0519  0.3079 -0.2401
 6444TIP3    H140891   6.769   0.235   7.825 -1.7009  0.1850 -0.4374
 6444TIP3    H240892   6.695   0.123   7.895  0.5714 -0.5936  0.8021
 6445TIP3   OH240893   5.601   1.425   1.921 -0.3518 -0.0512  0.2855
 6445TIP3    H140894   5.612   1.448   1.829 -0.6534 -1.4379 -0.1222
 6445TIP3    H240895   5.688   1.396   1.949 -0.0160  1.3216  0.7461
 6446TIP3   OH240896   3.088   4.195   7.999  0.6626 -0.2464 -0.9446
 6446TIP3    H140897   3.013   4.147   8.033  2.2086 -1.8569  0.4131
 6446TIP3    H240898   3.093   4.273   8.053  1.4334 -1.4082  0.7530
 6447TIP3   OH240899   6.250   4.773   1.440 -0.6164  0.1146  0.0759
 6447TIP3    H140900   6.282   4.713   1.508 -0.2329 -0.1218 -0.3093
 6447TIP3    H240901   6.330   4.803   1.396 -0.9140 -0.5231 -0.9399
 6448TIP3   OH240902   1.727   6.568   2.370 -0.2596  0.0478  0.4056
 6448TIP3    H140903   1.818   6.578   2.343 -0.6746 -0.3408 -1.2624
 6448TIP3    H240904   1.712   6.473   2.369 -0.4538  0.0455  1.5729
 6449TIP3   OH240905   1.858   1.702   8.215  0.0740  0.1910 -0.4921
 6449TIP3    H140906   1.889   1.625   8.167  0.3826 -0.1369  0.2190
 6449TIP3    H240907   1.796   1.667   8.279  0.5243  0.4696  0.1137
 6450TIP3   OH240908   1.886   3.847   7.002  0.4388 -0.0765  0.2059
 6450TIP3    H140909   1.804   3.860   6.955 -0.1077 -0.1909  1.1085
 6450TIP3    H240910   1.891   3.920   7.063 -0.4134 -1.5513  2.1337
 6451TIP3   OH240911   3.334   1.901   1.934  0.4317 -0.0230 -0.5448
 6451TIP3    H140912   3.338   1.877   1.842 -0.9205  2.2130 -1.2569
 6451TIP3    H240913   3.260   1.851   1.969  1.8498 -2.0289 -0.2068
 6452TIP3   OH240914   5.788   2.938   2.627  0.0963  0.2163  0.5708
 6452TIP3    H140915   5.845   2.901   2.560  0.1719 -0.7764  1.1626
 6452TIP3    H240916   5.722   2.988   2.578 -0.3573 -1.1720 -0.3043
 6453TIP3   OH240917   2.739   4.173   8.377 -0.8624 -0.3243 -0.6415
 6453TIP3    H140918   2.645   4.161   8.359 -0.8427  0.3132 -1.1856
 6453TIP3    H240919   2.753   4.267   8.371  0.0350 -0.5123 -1.6380
 6454TIP3   OH240920   2.985   3.569   0.168  0.5116 -0.0867  0.3131
 6454TIP3    H140921   2.998   3.626   0.244 -1.5723 -1.4832  1.8251
 6454TIP3    H240922   2.929   3.620   0.110  0.1451  0.0917  0.8165
 6455TIP3   OH240923   1.468   1.955   1.933 -0.2545 -0.3052 -0.1823
 6455TIP3    H140924   1.504   1.878   1.889  0.9678 -0.4300  0.9593
 6455TIP3    H240925   1.398   1.920   1.989  0.0092 -0.5368  0.0077
 6456TIP3   OH240926   5.609   1.674   0.282  0.3764  0.3282  0.1053
 6456TIP3    H140927   5.633   1.611   0.350  0.1263 -0.9933 -0.9926
 6456TIP3    H240928   5.575   1.749   0.331 -1.5239 -1.2823  1.4382
 6457TIP3   OH240929   5.460   4.932   2.134  0.5828 -0.1542 -0.0747
 6457TIP3    H140930   5.470   4.876   2.211 -0.8974  2.1615  1.9439
 6457TIP3    H240931   5.387   4.892   2.085  1.7731 -1.8516 -0.5852
 6458TIP3   OH240932   6.328   0.812   0.019  0.5199  1.1791 -0.1371
 6458TIP3    H140933   6.331   0.813  -0.076 -0.5158  0.5018 -0.1887
 6458TIP3    H240934   6.364   0.897   0.045  1.0442  1.2725 -1.1114
 6459TIP3   OH240935   2.953   1.166   2.195 -0.1778  0.0754 -0.0289
 6459TIP3    H140936   2.870   1.119   2.200  0.7563 -1.5895  0.3657
 6459TIP3    H240937   2.964   1.205   2.282  0.1839 -1.0281  0.4369
 6460TIP3   OH240938   3.381   1.002   0.141  0.2708  0.3520 -0.4030
 6460TIP3    H140939   3.439   1.061   0.189 -0.2253  1.0894 -0.6913
 6460TIP3    H240940   3.432   0.923   0.128 -0.3973 -0.9798  3.6563
 6461TIP3   OH240941   3.237   2.379   1.624 -0.3185  0.0491  0.0485
 6461TIP3    H140942   3.318   2.398   1.671 -1.4344 -0.2414  2.2088
 6461TIP3    H240943   3.224   2.285   1.635 -0.0462 -0.2521 -1.8625
 6462TIP3   OH240944   2.364   5.659   1.273  0.5592 -0.6851  0.0962
 6462TIP3    H140945   2.350   5.585   1.213 -0.7457 -1.1604  0.9268
 6462TIP3    H240946   2.419   5.720   1.224  1.8518 -2.2938 -0.5342
 6463TIP3   OH240947   3.458   1.435   0.297  0.3359  0.0342 -0.4712
 6463TIP3    H140948   3.372   1.467   0.325 -0.0858  0.8194 -2.4969
 6463TIP3    H240949   3.516   1.455   0.371 -0.7435  1.6824 -0.0118
 6464TIP3   OH240950   3.351   1.176   8.655 -0.1774  0.7896  0.3832
 6464TIP3    H140951   3.355   1.132   8.740  0.7230  0.5061  0.2099
 6464TIP3    H240952   3.411   1.126   8.600  0.4292  1.8857  0.0190
 6465TIP3   OH240953   1.749   3.993   1.670  0.2918 -0.4623 -0.2954
 6465TIP3    H140954   1.817   4.037   1.619 -1.4603  2.4732 -0.3481
 6465TIP3    H240955   1.693   3.952   1.604  0.4823 -0.4766 -0.4495
 6466TIP3   OH240956   1.420   1.847   0.886 -0.1877  0.3144  0.0510
 6466TIP3    H140957   1.433   1.871   0.795  0.0448  0.0616  0.0178
 6466TIP3    H240958   1.487   1.897   0.934 -0.1880  0.3033  0.0629
 6467TIP3   OH240959   2.627   5.937   2.709 -0.5010 -0.3313  0.4048
 6467TIP3    H140960   2.578   5.898   2.637 -0.0999  0.8944 -0.5677
 6467TIP3    H240961   2.566   5.999   2.749 -0.2045  0.2209  0.0300
 6468TIP3   OH240962   4.225   6.013   3.309 -0.3667  0.0580  0.1576
 6468TIP3    H140963   4.268   5.949   3.253 -0.6719  0.2016 -0.2538
 6468TIP3    H240964   4.137   5.978   3.324 -1.3049  1.3280 -1.8305
 6469TIP3   OH240965   3.175   1.245   2.764  0.2936  0.1017  0.5693
 6469TIP3    H140966   3.203   1.157   2.787 -1.4962 -0.3326  1.1856
 6469TIP3    H240967   3.226   1.302   2.822  1.7596 -0.4613 -0.1090
 6470TIP3   OH240968   6.223   1.738   1.486  0.0169  0.0717 -0.0649
 6470TIP3    H140969   6.138   1.715   1.524  0.3794  2.0612  2.2038
 6470TIP3    H240970   6.286   1.684   1.533  0.1464 -0.3593 -0.7243
 6471TIP3   OH240971   6.200   6.695   0.692 -0.1925  0.3267  0.1006
 6471TIP3    H140972   6.147   6.742   0.756 -0.8451  0.4776 -0.5267
 6471TIP3    H240973   6.263   6.645   0.744 -0.4400  0.7622  0.8326
 6472TIP3   OH240974   6.732   1.770   7.519  0.0979  0.8147 -0.3465
 6472TIP3    H140975   6.729   1.689   7.467  1.5617  1.4570 -1.5084
 6472TIP3    H240976   6.822   1.802   7.508  0.4206  1.1275  2.4260
 6473TIP3   OH240977   3.787   2.085   7.358  0.0163 -0.1666 -0.4549
 6473TIP3    H140978   3.787   2.166   7.410  0.1123  0.7588 -1.8302
 6473TIP3    H240979   3.716   2.033   7.395 -0.7318  0.9923 -0.1925
 6474TIP3   OH240980   3.132   5.969   7.676 -0.8937 -0.2824  0.0576
 6474TIP3    H140981   3.145   5.883   7.715  0.2254  0.5383  1.6213
 6474TIP3    H240982   3.218   6.010   7.679 -0.8500  0.0665 -2.8965
 6475TIP3   OH240983   5.860   2.233   1.486 -0.0864 -0.5931 -0.2998
 6475TIP3    H140984   5.809   2.207   1.409 -1.4941  1.0693 -0.0092
 6475TIP3    H240985   5.834   2.324   1.501  1.2539 -0.4328  1.2866
 6476TIP3   OH240986   2.708   3.378   8.097  0.4286 -0.0308 -0.2607
 6476TIP3    H140987   2.652   3.388   8.020  2.2214  1.0461 -1.5119
 6476TIP3    H240988   2.724   3.284   8.104  0.4582 -0.1164 -1.3811
 6477TIP3   OH240989   0.082   2.559   2.011  0.1889  0.2736  0.3904
 6477TIP3    H140990   0.086   2.535   1.918  1.8401  1.6736  0.0594
 6477TIP3    H240991   0.149   2.504   2.052 -0.8350 -0.6528  0.8453
 6478TIP3   OH240992   2.965   4.748   7.773  0.1019  0.1553 -0.4242
 6478TIP3    H140993   2.948   4.661   7.810 -2.3364  0.5591 -0.4541
 6478TIP3    H240994   2.997   4.800   7.847 -1.6472  0.0891  0.4401
 6479TIP3   OH240995   6.433   2.347   0.620  0.7642 -0.0538 -0.5338
 6479TIP3    H140996   6.446   2.408   0.693  1.6979 -0.2467 -0.5296
 6479TIP3    H240997   6.345   2.310   0.635  0.0388  1.5070 -0.7014
 6480TIP3   OH240998   0.685   5.049   8.689 -0.2911  0.2067 -0.4349
 6480TIP3    H140999   0.632   4.975   8.720 -0.5844  0.8213  0.6019
 6480TIP3    H241000   0.760   5.008   8.645 -0.5167 -0.7062 -0.0024
 6481TIP3   OH241001   0.995   6.631   8.085 -0.2554  0.5157 -0.0554
 6481TIP3    H141002   0.928   6.664   8.145 -1.4255 -0.9282 -0.5205
 6481TIP3    H241003   0.985   6.536   8.087  1.8908  0.2350 -0.0454
 6482TIP3   OH241004   6.472   5.684   2.178 -0.0019 -0.2327 -0.1309
 6482TIP3    H141005   6.493   5.675   2.085  1.7255 -2.3105  0.3929
 6482TIP3    H241006   6.545   5.733   2.215 -1.4010  1.9595 -0.0260
 6483TIP3   OH241007   2.054   6.619   3.036  0.0323 -0.1024 -0.4958
 6483TIP3    H141008   2.023   6.601   3.125  0.9053  3.3813  0.7018
 6483TIP3    H241009   2.128   6.559   3.024  1.9314  1.3576  2.5000
 6484TIP3   OH241010   3.102   1.201   2.435  0.0933  0.0430  0.2328
 6484TIP3    H141011   3.055   1.154   2.504  0.2047 -1.0984 -0.4452
 6484TIP3    H241012   3.134   1.281   2.477 -1.2411  0.1563  1.0701
 6485TIP3   OH241013   3.450   5.140   2.953 -0.1368  0.0716  0.2849
 6485TIP3    H141014   3.545   5.144   2.946 -0.2608  0.3834 -2.1188
 6485TIP3    H241015   3.433   5.106   3.041  2.2118 -1.6242  0.1469
 6486TIP3   OH241016   3.881   0.687   1.241 -0.1153 -0.2897 -0.0807
 6486TIP3    H141017   3.853   0.670   1.151  0.0298  0.1638 -0.2112
 6486TIP3    H241018   3.958   0.631   1.252  0.0924 -0.0647 -0.3644
 6487TIP3   OH241019   6.430   4.689   2.136  0.5471  0.3090 -0.5288
 6487TIP3    H141020   6.496   4.745   2.176  1.0241 -0.5633 -0.0550
 6487TIP3    H241021   6.346   4.724   2.166  0.7207  2.0026 -1.8896
 6488TIP3   OH241022   6.598   2.091   0.386 -0.2498  0.2674  0.1212
 6488TIP3    H141023   6.643   2.037   0.452 -1.5642  1.2919  1.9547
 6488TIP3    H241024   6.590   2.034   0.310  1.0534 -1.0971  0.9381
 6489TIP3   OH241025   3.829   3.211   6.972 -0.8520  0.4200 -0.1271
 6489TIP3    H141026   3.779   3.208   7.053  0.3560  1.7917  0.7017
 6489TIP3    H241027   3.792   3.284   6.923 -0.6414  0.4854 -0.1899
 6490TIP3   OH241028   2.460   1.799   8.180 -0.4968 -0.4508  0.5804
 6490TIP3    H141029   2.480   1.892   8.166 -0.4621 -0.5322  0.0389
 6490TIP3    H241030   2.487   1.757   8.098  2.7238 -1.4939  2.0478
 6491TIP3   OH241031   1.837   2.176   7.645  0.2577 -0.0405 -0.1636
 6491TIP3    H141032   1.857   2.137   7.560 -1.6264  0.9569 -1.1294
 6491TIP3    H241033   1.869   2.113   7.709  0.6748 -1.3639 -1.6237
 6492TIP3   OH241034   2.645   0.946   2.444 -0.0105  0.5443 -0.4061
 6492TIP3    H141035   2.652   0.959   2.350 -3.3024  0.1312 -0.8110
 6492TIP3    H241036   2.710   1.006   2.482  1.1604  0.9450 -2.8728
 6493TIP3   OH241037   6.525   3.377   0.944  0.3039 -0.3959 -0.3465
 6493TIP3    H141038   6.452   3.438   0.956  1.4729  1.0019 -0.0267
 6493TIP3    H241039   6.530   3.365   0.849  0.9699  1.2516 -0.5685
 6494TIP3   OH241040   2.984   1.208   8.062 -0.3164 -0.1818  1.2390
 6494TIP3    H141041   3.051   1.140   8.058 -1.4573 -1.4660  2.6722
 6494TIP3    H241042   3.009   1.263   8.136  0.7448  1.1994 -0.0722
 6495TIP3   OH241043   6.635   5.085   2.638 -0.3326 -0.0327  0.1832
 6495TIP3    H141044   6.673   5.062   2.554  1.1926  0.1326  0.7965
 6495TIP3    H241045   6.705   5.131   2.684 -1.5929  1.1532  0.9999
 6496TIP3   OH241046   5.681   6.665   0.907 -0.5267  0.7821  0.1810
 6496TIP3    H141047   5.611   6.620   0.954  0.2044  0.4341  0.9621
 6496TIP3    H241048   5.636   6.717   0.841 -1.4964  0.2804  0.4292
 6497TIP3   OH241049   2.554   1.186   0.998 -0.1165  0.3690 -0.1522
 6497TIP3    H141050   2.615   1.257   1.016 -0.2185  0.8778 -1.6639
 6497TIP3    H241051   2.519   1.206   0.911 -2.5754  0.1961  0.7356
 6498TIP3   OH241052   5.232   2.129   3.321 -0.1822  0.7504 -0.5787
 6498TIP3    H141053   5.213   2.041   3.353 -0.8607  0.4020 -1.8790
 6498TIP3    H241054   5.150   2.177   3.331 -0.6470  0.4087 -2.4556
 6499TIP3   OH241055   3.278   6.317   2.567 -0.1042  0.0432 -0.1385
 6499TIP3    H141056   3.296   6.293   2.658  2.0460 -1.2275 -0.8345
 6499TIP3    H241057   3.185   6.340   2.566 -0.1381  0.2872  2.4013
 6500TIP3   OH241058   6.481   5.870   1.762  0.0658 -0.1220  0.2150
 6500TIP3    H141059   6.436   5.838   1.684 -2.2902 -1.4358  1.9657
 6500TIP3    H241060   6.446   5.958   1.776  0.9751  0.3739 -0.5125
 6501TIP3   OH241061   3.467   6.571   0.068  0.1216 -0.4411 -0.2064
 6501TIP3    H141062   3.526   6.634   0.109 -0.2972 -1.5188  2.2013
 6501TIP3    H241063   3.382   6.614   0.067  0.5498  0.5164 -2.2938
 6502TIP3   OH241064   5.933   1.600   7.353 -0.5156 -0.4645  0.6584
 6502TIP3    H141065   6.028   1.601   7.342 -0.4574  0.3986  1.0717
 6502TIP3    H241066   5.913   1.688   7.386 -1.5746 -0.2973 -0.3837
 6503TIP3   OH241067   4.024   2.524   0.572  0.3171  0.2334 -0.5476
 6503TIP3    H141068   4.083   2.598   0.587  0.7669 -0.3182  0.5328
 6503TIP3    H241069   3.955   2.559   0.516  0.0775  1.6840  0.6071
 6504TIP3   OH241070   0.098   1.646   2.365 -0.0435  0.1659 -0.2243
 6504TIP3    H141071   0.160   1.615   2.299 -1.3734  0.7023 -1.7693
 6504TIP3    H241072   0.078   1.568   2.417 -1.3834 -1.0519 -2.4358
 6505TIP3   OH241073   2.862   6.707   7.270 -0.5044  0.2587 -1.0102
 6505TIP3    H141074   2.945   6.749   7.294 -1.2523  1.2159 -0.0171
 6505TIP3    H241075   2.797   6.749   7.325 -1.7012 -0.3287 -1.9315
 6506TIP3   OH241076   6.804   6.443   7.822 -0.2589 -0.0833 -0.3816
 6506TIP3    H141077   6.852   6.437   7.905 -0.1491 -4.6013 -0.5636
 6506TIP3    H241078   6.871   6.463   7.757  0.2031  0.2814  0.1973
 6507TIP3   OH241079   0.010   5.465   1.170  0.5881  0.1709 -0.6649
 6507TIP3    H141080   0.053   5.432   1.249  0.4424 -0.1092 -0.7019
 6507TIP3    H241081   0.074   5.525   1.131  0.1749  1.3327  0.3596
 6508TIP3   OH241082   1.287   1.389   2.684  0.1522  0.2323  0.2875
 6508TIP3    H141083   1.369   1.354   2.650  0.8641  0.6574  1.5212
 6508TIP3    H241084   1.219   1.342   2.636  1.1100 -0.4522 -0.4228
 6509TIP3   OH241085   3.287   3.828   1.875 -0.0945  0.3543  0.3498
 6509TIP3    H141086   3.234   3.812   1.797 -1.1517 -1.3881  1.3336
 6509TIP3    H241087   3.375   3.798   1.852 -0.3993 -0.1532 -0.1760
 6510TIP3   OH241088   5.354   6.120   3.592 -0.5583 -0.0699  0.4148
 6510TIP3    H141089   5.401   6.122   3.676  1.3941  0.3954 -0.6137
 6510TIP3    H241090   5.423   6.106   3.527 -2.1595 -1.6105 -1.0439
 6511TIP3   OH241091   1.719   3.193   1.154  0.5288 -0.1473 -0.0596
 6511TIP3    H141092   1.691   3.275   1.195 -1.2343 -0.9884  0.5204
 6511TIP3    H241093   1.780   3.154   1.218  0.2917  0.0702  0.3046
 6512TIP3   OH241094   1.534   1.244   2.644 -0.7262  1.1058  0.3171
 6512TIP3    H141095   1.540   1.236   2.739  0.6145  1.0999  0.2514
 6512TIP3    H241096   1.589   1.173   2.611  0.2712  2.1952 -0.4299
 6513TIP3   OH241097   6.827   0.989   0.938  0.0186 -0.1051  0.2102
 6513TIP3    H141098   6.839   1.070   0.889  1.2053 -0.8941 -0.8577
 6513TIP3    H241099   6.902   0.985   0.996  0.1119 -0.5846  0.0549
 6514TIP3   OH241100   3.938   5.358   0.456 -0.1023  0.4822 -0.6887
 6514TIP3    H141101   3.966   5.267   0.443 -0.3115  0.0893  1.3672
 6514TIP3    H241102   4.000   5.410   0.405  2.0659 -0.6182  0.7057
 6515TIP3   OH241103   5.571   6.297   1.940  0.0368 -0.3557 -0.5686
 6515TIP3    H141104   5.569   6.228   2.007 -1.3460  0.1802 -0.0146
 6515TIP3    H241105   5.490   6.346   1.954  1.3285  1.8952 -0.4053
 6516TIP3   OH241106   4.971   3.485   7.746 -0.1884 -0.0192  0.2923
 6516TIP3    H141107   4.953   3.472   7.653  1.2788  0.2698 -0.0620
 6516TIP3    H241108   4.921   3.563   7.769 -0.8239 -0.2833 -0.1663
 6517TIP3   OH241109   3.568   5.640   7.958 -0.3750 -0.3263  0.8053
 6517TIP3    H141110   3.582   5.727   7.922  1.2188 -0.8386  0.0948
 6517TIP3    H241111   3.506   5.653   8.030  0.2923  1.4675  1.0983
 6518TIP3   OH241112   0.580   0.032   0.402 -0.1249  0.0497  0.6747
 6518TIP3    H141113   0.494  -0.010   0.401 -0.4800  0.7668  0.5886
 6518TIP3    H241114   0.641  -0.039   0.425 -0.5157 -0.8494 -0.9083
 6519TIP3   OH241115   4.384   4.815   2.408  0.0736 -0.2313 -0.3416
 6519TIP3    H141116   4.422   4.902   2.398 -0.0454 -0.3743 -2.3702
 6519TIP3    H241117   4.428   4.778   2.484  1.1755  1.0523 -0.3266
 6520TIP3   OH241118   6.312   6.600   7.789 -0.0758 -0.1216  0.8698
 6520TIP3    H141119   6.288   6.569   7.876 -0.7112  0.6607  0.9825
 6520TIP3    H241120   6.391   6.549   7.767 -1.5372 -2.4414  0.6750
 6521TIP3   OH241121   3.667   1.014   1.532  0.2126 -0.3745  0.1630
 6521TIP3    H141122   3.745   1.070   1.544 -0.0550  0.0248  0.0636
 6521TIP3    H241123   3.700   0.937   1.486  0.2928  0.4801 -1.2803
 6522TIP3   OH241124   6.096   1.641   7.996  0.4709  0.1204 -0.4643
 6522TIP3    H141125   6.169   1.698   7.972 -0.1505  1.0181 -0.2803
 6522TIP3    H241126   6.018   1.695   7.981 -0.0923 -0.4109  0.4867
 6523TIP3   OH241127   5.234   6.359   2.563 -0.0795 -0.8004 -0.0543
 6523TIP3    H141128   5.283   6.428   2.608  0.0988 -1.1295  0.2626
 6523TIP3    H241129   5.207   6.299   2.633  1.1796 -1.9387 -0.5068
 6524TIP3   OH241130   3.111   4.093   1.041 -0.1561  0.1337 -0.6053
 6524TIP3    H141131   3.155   4.009   1.054  1.1272  0.6096 -1.6868
 6524TIP3    H241132   3.182   4.157   1.034 -1.0189  1.0095 -1.9210
 6525TIP3   OH241133   0.013   1.189   7.850  0.3584 -0.0659 -0.3479
 6525TIP3    H141134   0.049   1.243   7.780  1.3775 -1.3665 -0.8817
 6525TIP3    H241135   0.074   1.200   7.923  0.0975  0.1521 -0.1583
 6526TIP3   OH241136   1.829   0.405   2.496  0.2432 -0.3193  0.3729
 6526TIP3    H141137   1.877   0.487   2.491  0.3132 -0.4164 -2.0777
 6526TIP3    H241138   1.887   0.345   2.543  1.2663  0.3822  0.0391
 6527TIP3   OH241139   0.293   3.975   8.702 -0.4247  0.1323  0.0713
 6527TIP3    H141140   0.225   4.032   8.737 -0.1307  0.6010 -0.1038
 6527TIP3    H241141   0.248   3.919   8.638 -0.5753  0.7023 -0.3270
 6528TIP3   OH241142   5.867   2.310   0.443  1.4911 -0.0356 -0.6185
 6528TIP3    H141143   5.882   2.254   0.519  0.5038 -1.3168 -1.3409
 6528TIP3    H241144   5.772   2.314   0.434  1.5606  1.0867 -1.0968
 6529TIP3   OH241145   6.644   5.102   8.593 -0.0680  0.2262  0.2106
 6529TIP3    H141146   6.593   5.031   8.554  0.9687 -0.0336 -0.7228
 6529TIP3    H241147   6.630   5.092   8.687 -1.0690 -0.3301  0.0258
 6530TIP3   OH241148   3.940   0.804   0.356 -0.0923  0.6521 -0.2795
 6530TIP3    H141149   3.850   0.825   0.380 -0.2064  0.6024 -0.6516
 6530TIP3    H241150   3.991   0.879   0.387 -0.1769  0.4126  0.4583
 6531TIP3   OH241151   3.267   3.479   2.308 -0.2296  0.4738 -0.1341
 6531TIP3    H141152   3.304   3.413   2.367  0.0950 -1.6998 -2.6131
 6531TIP3    H241153   3.340   3.539   2.291  1.0108 -1.3500 -1.6300
 6532TIP3   OH241154   6.581   1.085   8.441 -0.2029 -0.4552  0.4098
 6532TIP3    H141155   6.551   1.011   8.389  1.9937 -1.0648 -0.1201
 6532TIP3    H241156   6.625   1.046   8.516 -0.2563  0.3378  0.8664
 6533TIP3   OH241157   0.757   2.259   1.866  0.0452  0.3091  0.8096
 6533TIP3    H141158   0.783   2.351   1.875  0.0489  0.0893  4.0780
 6533TIP3    H241159   0.676   2.253   1.917 -0.8905 -1.1933 -0.7643
 6534TIP3   OH241160   2.738   0.030   8.655 -0.1747  0.1882 -0.2061
 6534TIP3    H141161   2.698  -0.012   8.579  0.2323 -0.3304 -0.1344
 6534TIP3    H241162   2.724   0.124   8.640  0.2272  0.1208 -1.1185
 6535TIP3   OH241163   5.548   3.156   0.704 -0.7802 -0.2054  0.1126
 6535TIP3    H141164   5.579   3.228   0.759 -2.3660 -0.1106  0.9653
 6535TIP3    H241165   5.577   3.077   0.750 -0.5776 -0.1165  0.1393
 6536TIP3   OH241166   4.896   1.090   1.634 -0.1183  0.3416 -0.4452
 6536TIP3    H141167   4.992   1.080   1.630  0.1957  2.3567  0.6133
 6536TIP3    H241168   4.865   1.051   1.553  1.7272  0.7946 -1.4375
 6537TIP3   OH241169   1.297   2.154   2.149  0.1859  0.1094  0.1034
 6537TIP3    H141170   1.358   2.177   2.219 -1.3595 -1.0412  1.9306
 6537TIP3    H241171   1.315   2.061   2.132  1.1272  0.5667 -1.7208
 6538TIP3   OH241172   4.108   3.251   1.792  0.8358  0.1089  0.1577
 6538TIP3    H141173   4.098   3.224   1.701 -0.2986 -0.2248  0.3728
 6538TIP3    H241174   4.070   3.179   1.843  0.3863  0.8228  0.8547
 6539TIP3   OH241175   3.233   0.116   8.146 -0.7806 -0.7496 -0.1507
 6539TIP3    H141176   3.277   0.103   8.062  0.3848  1.0818  0.1388
 6539TIP3    H241177   3.272   0.050   8.204 -1.4838 -1.9249 -0.9544
 6540TIP3   OH241178   4.445   1.638   7.792 -0.7228 -0.3230 -0.0579
 6540TIP3    H141179   4.370   1.676   7.746 -0.3806  0.0561 -0.3091
 6540TIP3    H241180   4.514   1.704   7.784  0.0040 -1.1465 -0.8272
 6541TIP3   OH241181   6.128   2.971   0.642  0.1720  0.2526 -0.1054
 6541TIP3    H141182   6.048   2.922   0.663 -0.0582  0.3511 -0.7201
 6541TIP3    H241183   6.181   2.965   0.721 -0.0306 -0.6429 -0.0243
 6542TIP3   OH241184   2.632   5.073   1.352 -0.0750  0.2159 -0.1448
 6542TIP3    H141185   2.568   5.005   1.371 -0.4397  1.2601  3.0971
 6542TIP3    H241186   2.715   5.039   1.385 -0.0429  0.8804  0.4942
 6543TIP3   OH241187   4.146   1.848   1.933 -0.5952 -0.3981  0.5147
 6543TIP3    H141188   4.058   1.850   1.969 -0.8038 -1.1681  0.0792
 6543TIP3    H241189   4.135   1.866   1.839 -0.3016 -0.5900  0.4400
 6544TIP3   OH241190   0.440   6.704   2.254 -0.1555 -0.0296  0.0124
 6544TIP3    H141191   0.425   6.650   2.177  0.4791 -0.6856  0.3395
 6544TIP3    H241192   0.519   6.667   2.294  0.6357  1.4967 -0.0737
 6545TIP3   OH241193   0.968   4.627   8.723 -0.0139  0.2237  0.0710
 6545TIP3    H141194   0.979   4.630   8.818 -0.6846 -0.5213  0.1852
 6545TIP3    H241195   1.041   4.679   8.688  1.0369 -0.6130  0.9427
 6546TIP3   OH241196   0.987   6.328   1.499 -0.1698  0.0717 -0.2731
 6546TIP3    H141197   0.943   6.250   1.532 -4.0789  2.4001  0.6314
 6546TIP3    H241198   1.015   6.375   1.577 -0.7638  1.0277 -0.6113
 6547TIP3   OH241199   6.359   1.392   2.717 -0.2216 -0.5315 -0.1852
 6547TIP3    H141200   6.311   1.427   2.793 -0.8082  0.8328 -1.1294
 6547TIP3    H241201   6.451   1.394   2.744 -0.5903 -2.6753  1.4632
 6548TIP3   OH241202   2.148   5.193   8.702  0.2093 -0.6969  0.0991
 6548TIP3    H141203   2.056   5.195   8.726  0.1486  1.6332 -0.1388
 6548TIP3    H241204   2.160   5.268   8.644  2.0900 -1.4194 -0.5357
 6549TIP3   OH241205   3.673   1.546   2.169 -0.5652  0.0412  0.6517
 6549TIP3    H141206   3.691   1.554   2.075 -0.3944  0.6328  0.7313
 6549TIP3    H241207   3.663   1.452   2.183 -0.4937 -0.0616  0.0573
 6550TIP3   OH241208   1.226   6.011   8.535  0.8165 -0.4040  0.3022
 6550TIP3    H141209   1.205   5.983   8.446 -0.3210 -2.0919  1.0495
 6550TIP3    H241210   1.302   6.069   8.525  0.7542 -0.6112 -1.7387
 6551TIP3   OH241211   0.943   4.197   7.277  0.2298  0.1508 -0.3508
 6551TIP3    H141212   0.985   4.119   7.241  2.1936 -1.8185  5.1520
 6551TIP3    H241213   0.854   4.169   7.297  0.5486 -0.2905  0.4697
 6552TIP3   OH241214   4.566   5.489   0.225  0.4913  0.1494  0.5944
 6552TIP3    H141215   4.624   5.476   0.300  0.6630  0.8946  0.5988
 6552TIP3    H241216   4.478   5.491   0.263  0.5398 -0.0140  0.7137
 6553TIP3   OH241217   3.611   1.914   1.123  0.3800  0.0609 -0.0848
 6553TIP3    H141218   3.628   1.820   1.112  0.4668 -0.0400  0.8486
 6553TIP3    H241219   3.650   1.935   1.207  1.2795  1.1636 -0.7510
 6554TIP3   OH241220   3.838   3.052   7.925  0.3287  0.2819 -0.7831
 6554TIP3    H141221   3.758   3.007   7.898  0.2108  0.7142 -1.1649
 6554TIP3    H241222   3.868   3.098   7.847  0.6440  0.5724 -0.4969
 6555TIP3   OH241223   0.010   1.376   2.450 -0.2226  0.2412 -0.2696
 6555TIP3    H141224   0.102   1.359   2.474  0.5076  1.1293 -2.2122
 6555TIP3    H241225  -0.030   1.409   2.531  1.4643  0.8805  0.3523
 6556TIP3   OH241226   0.289   3.298   1.850  0.0335  0.2529  0.3939
 6556TIP3    H141227   0.343   3.305   1.771 -0.5515  0.6650  0.0228
 6556TIP3    H241228   0.204   3.270   1.818  0.3748 -1.7991  1.1173
 6557TIP3   OH241229   2.015   5.594   8.570 -0.1208  0.0232  0.0030
 6557TIP3    H141230   2.098   5.601   8.617 -0.2854  1.6258  0.1198
 6557TIP3    H241231   1.971   5.518   8.608  0.8028 -0.1527  0.7386
 6558TIP3   OH241232   4.002   6.801   8.066 -0.2961 -0.8793 -0.2823
 6558TIP3    H141233   3.974   6.726   8.119 -0.7177 -0.4030  0.1789
 6558TIP3    H241234   3.920   6.839   8.033 -0.0580 -0.9298 -0.9516
 6559TIP3   OH241235   5.606   6.121   2.501  0.0931 -0.3076 -0.1935
 6559TIP3    H141236   5.594   6.153   2.590  0.4223  1.6990 -0.8201
 6559TIP3    H241237   5.678   6.173   2.466 -0.3629 -0.7004 -1.7922
 6560TIP3   OH241238   6.383   0.100   1.464  0.9905 -0.0434  0.0180
 6560TIP3    H141239   6.371   0.006   1.480 -0.7644  0.4338  1.8152
 6560TIP3    H241240   6.438   0.129   1.537 -0.3954  0.7042  0.8088
 6561TIP3   OH241241   2.002   3.366   1.490 -0.1453 -0.3432 -0.5808
 6561TIP3    H141242   2.090   3.393   1.515 -0.1280  2.2272 -2.9501
 6561TIP3    H241243   1.957   3.350   1.573  1.3702  2.4218  0.9296
 6562TIP3   OH241244   5.949   3.581   0.703 -0.1684 -0.2284 -0.1726
 6562TIP3    H141245   5.995   3.654   0.744  1.6802 -2.8785  2.8202
 6562TIP3    H241246   5.860   3.615   0.688 -0.5281  1.5874  4.5422
 6563TIP3   OH241247   1.157   4.074   1.730  0.1874 -0.0046 -0.1871
 6563TIP3    H141248   1.066   4.062   1.705  0.3993 -0.4596 -0.7525
 6563TIP3    H241249   1.190   3.986   1.747  0.0254  0.2846  1.8454
 6564TIP3   OH241250   4.623   5.462   8.432 -0.3398 -0.5392  0.0776
 6564TIP3    H141251   4.563   5.390   8.451  0.7300 -1.5967 -0.4761
 6564TIP3    H241252   4.633   5.461   8.337 -0.7403  0.7169  0.0016
 6565TIP3   OH241253   3.620   3.553   8.460 -0.5484 -0.0928  0.4960
 6565TIP3    H141254   3.626   3.647   8.479 -0.0821 -0.0214  0.0084
 6565TIP3    H241255   3.532   3.543   8.422 -0.0048  0.4330 -0.9682
 6566TIP3   OH241256   4.150   4.897   1.761 -0.2948  0.2799  0.3393
 6566TIP3    H141257   4.057   4.875   1.763 -0.1643 -0.2515  1.7512
 6566TIP3    H241258   4.191   4.839   1.825  1.1109  0.1445 -0.6129
 6567TIP3   OH241259   5.362   2.708   1.609  0.3028 -0.1611  0.3052
 6567TIP3    H141260   5.423   2.750   1.669  1.8709  0.5240 -1.6630
 6567TIP3    H241261   5.413   2.691   1.530 -1.7899 -0.4925 -1.0717
 6568TIP3   OH241262   3.475   5.910   0.920  0.0390 -0.0516  0.0867
 6568TIP3    H141263   3.472   5.887   1.012  1.8575  1.7329  0.6550
 6568TIP3    H241264   3.553   5.867   0.885  1.2780  1.9021  0.2586
 6569TIP3   OH241265   3.243   6.603   2.338  0.7667 -0.5602  0.0655
 6569TIP3    H141266   3.265   6.551   2.414  0.4358  0.4101  0.8439
 6569TIP3    H241267   3.301   6.680   2.344  1.8651 -1.2039 -1.5244
 6570TIP3   OH241268   2.477   3.724   1.446  0.5103 -0.3193  0.0007
 6570TIP3    H141269   2.429   3.807   1.442 -0.5199 -0.8782  0.1616
 6570TIP3    H241270   2.530   3.722   1.366 -0.9930 -0.3897 -1.0482
 6571TIP3   OH241271   5.723   4.935   8.519 -0.2563 -0.2068  0.2851
 6571TIP3    H141272   5.771   4.856   8.498  0.6794  0.3575  0.2700
 6571TIP3    H241273   5.634   4.918   8.489 -0.2348 -1.5038  0.8902
 6572TIP3   OH241274   2.555   2.402   2.728 -0.9288  0.4618 -0.0890
 6572TIP3    H141275   2.516   2.355   2.801 -0.9076 -2.9028 -2.0329
 6572TIP3    H241276   2.646   2.416   2.755 -0.8224 -1.0348  0.4508
 6573TIP3   OH241277   2.709   4.563   1.309 -0.3991 -0.0376 -0.1639
 6573TIP3    H141278   2.752   4.643   1.340 -0.1754  1.1830 -3.2584
 6573TIP3    H241279   2.618   4.589   1.295 -0.0432  0.1554 -2.4683
 6574TIP3   OH241280   1.307   3.089   2.496  0.3911 -0.2690  0.6109
 6574TIP3    H141281   1.352   3.059   2.418 -1.9772 -0.9488 -0.6000
 6574TIP3    H241282   1.330   3.026   2.564  1.5930 -0.3096  0.1700
 6575TIP3   OH241283   6.008   3.304   0.341  0.0572 -0.0939 -0.0265
 6575TIP3    H141284   5.954   3.236   0.380  0.1375 -0.6630 -0.8865
 6575TIP3    H241285   6.030   3.362   0.414  0.0441 -1.0222  0.7289
 6576TIP3   OH241286   3.363   0.161   2.535  0.4514  0.0900  0.0222
 6576TIP3    H141287   3.295   0.110   2.491 -0.9445  0.0380  2.0902
 6576TIP3    H241288   3.316   0.236   2.573  1.7173  0.5650  0.7201
 6577TIP3   OH241289   1.888   1.317   8.499  0.0935  0.1314  0.2558
 6577TIP3    H141290   1.819   1.285   8.557 -0.4508 -0.5384 -0.7335
 6577TIP3    H241291   1.957   1.347   8.558 -0.4857 -0.4374  1.2465
 6578TIP3   OH241292   4.846   5.636   8.439  0.3985  0.2644 -0.6504
 6578TIP3    H141293   4.780   5.567   8.434  1.0787 -0.5632  0.9574
 6578TIP3    H241294   4.842   5.680   8.354 -1.8063 -0.1206 -0.7908
 6579TIP3   OH241295   2.483   3.707   6.960 -0.0653 -0.7621  0.8371
 6579TIP3    H141296   2.496   3.653   7.038 -1.4317 -0.8939  1.0020
 6579TIP3    H241297   2.391   3.733   6.965  0.7353  2.2916  1.2040
 6580TIP3   OH241298   5.730   1.514   8.719  0.1140  0.3449  0.8035
 6580TIP3    H141299   5.765   1.440   8.769 -2.5199 -1.0905  0.6583
 6580TIP3    H241300   5.697   1.574   8.786 -0.5709 -0.0922  0.8600
 6581TIP3   OH241301   4.770   3.089   2.174 -0.0339  0.4622  0.1672
 6581TIP3    H141302   4.734   3.104   2.262 -1.2022  4.1944 -0.7322
 6581TIP3    H241303   4.723   3.012   2.142  1.3388 -1.8117  3.1234
 6582TIP3   OH241304   3.157   5.655   0.046 -0.2566  0.9700 -0.5040
 6582TIP3    H141305   3.096   5.585   0.068  0.2852  0.8400  0.6592
 6582TIP3    H241306   3.108   5.736   0.060 -0.2410  0.8628  0.1784
 6583TIP3   OH241307   4.548   5.810   1.571  0.2834  0.3605  0.3183
 6583TIP3    H141308   4.494   5.884   1.600 -0.5234 -0.1278  0.0928
 6583TIP3    H241309   4.488   5.736   1.567  1.1130 -0.3455  0.6547
 6584TIP3   OH241310   4.503   3.675   8.225  0.2295 -0.2541 -0.3320
 6584TIP3    H141311   4.550   3.709   8.302 -0.6490 -0.3762  0.2762
 6584TIP3    H241312   4.569   3.625   8.177  0.3403 -1.9224  1.4354
 6585TIP3   OH241313   1.699   6.581   8.187 -0.5557  1.1173 -0.5955
 6585TIP3    H141314   1.780   6.630   8.173  0.2433 -0.3082 -1.2108
 6585TIP3    H241315   1.727   6.496   8.221 -1.9505  1.3483  1.3309
 6586TIP3   OH241316   6.078   6.808   2.159  0.2320 -0.0869 -0.5109
 6586TIP3    H141317   6.173   6.796   2.157  0.2937  0.4293 -1.9274
 6586TIP3    H241318   6.061   6.849   2.243  1.2556 -0.2691 -0.1982
 6587TIP3   OH241319   3.856   4.356   1.330 -0.3348 -0.2928  0.1421
 6587TIP3    H141320   3.945   4.324   1.345 -0.8754 -1.2316  1.5403
 6587TIP3    H241321   3.833   4.324   1.242  0.5376 -0.4215 -0.0446
 6588TIP3   OH241322   3.588   1.121   0.894 -0.1254  0.4454 -0.0764
 6588TIP3    H141323   3.512   1.133   0.951  0.3580 -0.0448  0.6825
 6588TIP3    H241324   3.561   1.055   0.830 -0.0181 -0.4405  0.7824
 6589TIP3   OH241325   5.106   3.256   0.163 -0.1929 -0.0041 -0.4396
 6589TIP3    H141326   5.109   3.161   0.166 -0.7622  0.0046  2.1716
 6589TIP3    H241327   5.018   3.277   0.131 -0.4113 -0.3424 -0.0533
 6590TIP3   OH241328   2.189   6.843   1.680 -0.1966 -0.6876  0.0063
 6590TIP3    H141329   2.270   6.856   1.728 -0.5709  1.9770  0.0993
 6590TIP3    H241330   2.132   6.794   1.740 -0.0299  0.9750  1.6131
 6591TIP3   OH241331   1.161   4.771   8.578 -0.5387  0.8011 -0.2622
 6591TIP3    H141332   1.196   4.848   8.531  0.1801  0.5133 -0.2104
 6591TIP3    H241333   1.196   4.696   8.530 -1.1153  0.5016 -0.2190
 6592TIP3   OH241334   5.093   2.800   8.149  0.7557  0.2212 -0.1965
 6592TIP3    H141335   5.134   2.886   8.160  0.0780  0.5866 -0.4708
 6592TIP3    H241336   5.112   2.776   8.058  1.5032 -0.2283  0.0641
 6593TIP3   OH241337   5.530   5.822   7.887  0.2395  0.3320  0.5209
 6593TIP3    H141338   5.494   5.735   7.903  0.6241  0.0210 -0.2805
 6593TIP3    H241339   5.608   5.826   7.943  1.3985 -0.6345 -0.9389
 6594TIP3   OH241340   6.516   0.183   1.696 -0.6127  0.4460  0.0452
 6594TIP3    H141341   6.573   0.255   1.725 -0.8028  0.8293 -0.5123
 6594TIP3    H241342   6.455   0.171   1.768 -0.1403  0.3649  0.4414
 6595TIP3   OH241343   2.506   4.747   3.253  0.7016  0.6093  0.1618
 6595TIP3    H141344   2.461   4.829   3.274 -0.5910 -0.0115 -0.1387
 6595TIP3    H241345   2.546   4.763   3.168  1.6482  1.3827  0.7169
 6596TIP3   OH241346   2.275   1.783   2.592 -0.0293 -0.3142  0.1210
 6596TIP3    H141347   2.264   1.688   2.595  2.1448 -0.6600 -0.7537
 6596TIP3    H241348   2.186   1.819   2.598 -1.0433 -2.4410 -1.3520
 6597TIP3   OH241349   2.849   1.088   0.265 -0.2822  0.1013 -0.0589
 6597TIP3    H141350   2.828   1.041   0.184  0.6776 -1.8379  0.7569
 6597TIP3    H241351   2.780   1.063   0.326  1.1953 -1.7965  0.9276
 6598TIP3   OH241352   1.571   6.147   2.281 -0.0684 -0.1603 -0.0784
 6598TIP3    H141353   1.603   6.058   2.297 -1.0877 -0.6589 -0.7498
 6598TIP3    H241354   1.480   6.145   2.308 -0.7053  0.0797 -2.0471
 6599TIP3   OH241355   6.205   6.473   1.710 -0.2868  0.1173 -0.1489
 6599TIP3    H141356   6.193   6.564   1.685 -1.1102  0.6118  1.8638
 6599TIP3    H241357   6.239   6.431   1.631  0.1636  2.1517 -1.1093
 6600TIP3   OH241358   5.300   0.488   1.388  0.0027 -0.1695 -0.0232
 6600TIP3    H141359   5.219   0.441   1.404  0.5448 -1.8585 -1.8631
 6600TIP3    H241360   5.356   0.467   1.464 -0.6398 -0.4446  0.3801
 6601TIP3   OH241361   4.955   6.107   8.251 -0.1023  0.6011  0.6071
 6601TIP3    H141362   4.891   6.104   8.179  1.1070 -0.1145 -0.4750
 6601TIP3    H241363   4.951   6.198   8.282 -2.5378  0.2931  1.4588
 6602TIP3   OH241364   6.186   3.436   7.057  0.5802  0.0368  0.0295
 6602TIP3    H141365   6.179   3.491   7.134  0.1094  0.5747 -0.3870
 6602TIP3    H241366   6.241   3.485   6.997  2.1106 -0.9919  0.5292
 6603TIP3   OH241367   3.020   4.403   7.149 -0.6562 -0.5827 -0.7320
 6603TIP3    H141368   2.952   4.467   7.169  0.4608  0.4207  0.0440
 6603TIP3    H241369   3.069   4.442   7.077  0.9333  0.2089  0.6995
 6604TIP3   OH241370   6.591   1.457   2.882 -0.1272 -0.2080  0.5291
 6604TIP3    H141371   6.574   1.546   2.851 -1.9406 -0.2597  1.2431
 6604TIP3    H241372   6.633   1.469   2.967  0.3311 -0.0440  0.2821
 6605TIP3   OH241373   5.541   2.434   0.691  0.0970  0.1804  0.1114
 6605TIP3    H141374   5.526   2.509   0.635  1.7544  1.3489  1.1249
 6605TIP3    H241375   5.454   2.396   0.705 -0.9418  2.4647  0.3141
 6606TIP3   OH241376   1.085   0.139   1.389 -0.2765  0.1251  0.2983
 6606TIP3    H141377   1.091   0.232   1.412 -1.5995 -0.3357  2.8441
 6606TIP3    H241378   1.038   0.099   1.462 -1.7223 -2.1985 -1.7495
 6607TIP3   OH241379   0.444   3.583   1.223  0.3022 -0.0589 -0.0081
 6607TIP3    H141380   0.415   3.509   1.277  0.6256 -0.1125  0.0933
 6607TIP3    H241381   0.520   3.618   1.269  0.1805  0.3085 -0.0828
 6608TIP3   OH241382   3.147   3.996   0.100  0.3163 -0.4162 -0.1275
 6608TIP3    H141383   3.200   4.048   0.160 -0.0877 -0.6124  0.4086
 6608TIP3    H241384   3.086   4.058   0.061 -0.0158 -0.4440  0.3420
 6609TIP3   OH241385   0.154   4.415   1.628 -0.0523  0.1476  0.3612
 6609TIP3    H141386   0.241   4.393   1.662 -0.6334  0.1820  1.9866
 6609TIP3    H241387   0.128   4.339   1.576  0.4026 -0.4450  0.9897
 6610TIP3   OH241388   0.042   5.501   0.819  0.1190 -0.2681 -0.0068
 6610TIP3    H141389   0.033   5.589   0.856 -0.4620 -1.3115  2.5866
 6610TIP3    H241390  -0.028   5.495   0.755 -0.5692  0.7821  0.6082
 6611TIP3   OH241391   0.109   0.535   8.290  0.4628  0.1286 -0.4854
 6611TIP3    H141392   0.158   0.612   8.319 -1.6599  1.0027  1.0409
 6611TIP3    H241393   0.070   0.562   8.208 -0.5253  0.8378  0.1958
 6612TIP3   OH241394   4.761   1.309   1.725  0.2905  0.5254 -0.8726
 6612TIP3    H141395   4.753   1.214   1.740  0.8255  0.3117 -1.8776
 6612TIP3    H241396   4.676   1.335   1.691 -0.7014  0.8846  1.6381
 6613TIP3   OH241397   2.272   0.328   8.553  0.0230 -0.8018  0.2358
 6613TIP3    H141398   2.361   0.299   8.534  0.7425  1.2575  0.2876
 6613TIP3    H241399   2.236   0.355   8.469  0.5753  1.2697  0.6149
 6614TIP3   OH241400   5.894   0.056   1.175 -0.7112  0.1676 -0.0663
 6614TIP3    H141401   5.839   0.105   1.114  1.1167  1.4417 -0.7803
 6614TIP3    H241402   5.978   0.101   1.172  0.0409 -1.0073  1.8616
 6615TIP3   OH241403   0.776   5.436   8.632  0.1333  0.4808 -0.2892
 6615TIP3    H141404   0.706   5.498   8.651  0.6831  1.2108 -0.5682
 6615TIP3    H241405   0.817   5.471   8.553  0.8417  0.1004 -0.0956
 6616TIP3   OH241406   0.589   4.645   0.408 -0.0120 -0.3309 -0.1573
 6616TIP3    H141407   0.648   4.714   0.438 -1.3487  0.1484  1.4938
 6616TIP3    H241408   0.551   4.680   0.328  0.3395  0.2525 -0.0749
 6617TIP3   OH241409   4.318   1.652   2.021 -0.9463  0.6335 -0.2474
 6617TIP3    H141410   4.279   1.739   2.034 -2.0444 -0.2050  3.2308
 6617TIP3    H241411   4.249   1.601   1.978 -1.2171  0.8634 -0.0887
 6618TIP3   OH241412   4.115   1.220   6.919 -0.2477  0.0898 -0.4525
 6618TIP3    H141413   4.070   1.142   6.952  1.2231 -0.9785 -0.8644
 6618TIP3    H241414   4.201   1.217   6.961  0.3466  0.6947 -1.5736
 6619TIP3   OH241415   0.975   1.875   7.326 -0.5820 -0.2529 -0.0288
 6619TIP3    H141416   0.984   1.829   7.243 -0.5680 -0.4199  0.0659
 6619TIP3    H241417   0.894   1.925   7.318 -0.0534  0.5616 -0.5488
 6620TIP3   OH241418   5.723   2.236   2.440 -0.0063 -0.6669 -0.1678
 6620TIP3    H141419   5.669   2.284   2.378  1.2949  0.8489 -0.1879
 6620TIP3    H241420   5.750   2.302   2.504 -0.1753 -1.9049  1.2163
 6621TIP3   OH241421   0.576   5.829   0.381 -0.2446  0.4353  0.2834
 6621TIP3    H141422   0.601   5.903   0.326 -1.8659  0.1731 -0.8557
 6621TIP3    H241423   0.652   5.771   0.378  0.7034  1.6195  0.4758
 6622TIP3   OH241424   0.901   5.935   2.498  0.1325  0.1048 -0.5548
 6622TIP3    H141425   0.850   5.862   2.533 -0.1512  1.2745  1.6418
 6622TIP3    H241426   0.874   6.010   2.550  0.6922  1.7283 -2.5010
 6623TIP3   OH241427   0.241   2.864   0.683  0.0915  0.2724 -1.0640
 6623TIP3    H141428   0.205   2.876   0.771  0.4671 -0.5025 -0.7922
 6623TIP3    H241429   0.210   2.940   0.633 -0.0991  0.7371 -0.2554
 6624TIP3   OH241430   4.171   3.673   0.949  0.3764 -0.2675  0.1448
 6624TIP3    H141431   4.241   3.680   0.884  0.7941  0.4318  0.6629
 6624TIP3    H241432   4.091   3.687   0.899  0.6720 -0.0884 -0.2836
 6625TIP3   OH241433   2.498   1.581   0.913 -0.0959  0.0581  0.4484
 6625TIP3    H141434   2.487   1.671   0.880 -0.1090  0.1609  0.7293
 6625TIP3    H241435   2.521   1.530   0.836 -2.9887 -0.2695 -0.3052
 6626TIP3   OH241436   1.690   2.189   8.175 -0.1968  0.0251 -0.2641
 6626TIP3    H141437   1.700   2.096   8.154 -1.0073  0.2226 -1.7080
 6626TIP3    H241438   1.754   2.233   8.118  2.4326  0.2338  2.5993
 6627TIP3   OH241439   1.654   2.173   1.909  0.1124  0.1878  0.1316
 6627TIP3    H141440   1.594   2.105   1.942 -1.2436  0.1281 -2.2435
 6627TIP3    H241441   1.642   2.247   1.969 -1.2659 -0.3382  0.5458
 6628TIP3   OH241442   3.336   4.832   2.397  0.1341  0.2008  0.2515
 6628TIP3    H141443   3.304   4.744   2.413 -0.3442 -0.0339 -1.7985
 6628TIP3    H241444   3.431   4.822   2.386  0.3040  0.2032  1.5061
 6629TIP3   OH241445   3.135   3.086   0.174  0.4276 -0.0697  0.4095
 6629TIP3    H141446   3.140   3.075   0.079  0.9535  2.4580  0.0704
 6629TIP3    H241447   3.216   3.046   0.207  0.4319 -0.6072 -0.2192
 6630TIP3   OH241448   5.047   0.397   7.949 -0.1530  0.4826  0.5260
 6630TIP3    H141449   5.078   0.478   7.907  0.9007  0.0735  0.4928
 6630TIP3    H241450   5.006   0.427   8.031 -0.1143  1.0770  0.3334
 6631TIP3   OH241451   1.470   2.720   8.138  0.0589  0.4146 -0.0973
 6631TIP3    H141452   1.408   2.788   8.167 -0.6855 -0.6494  0.8750
 6631TIP3    H241453   1.437   2.693   8.052  1.0816  2.1240 -1.0861
 6632TIP3   OH241454   4.531   3.148   1.867  0.1186 -0.3376  0.6386
 6632TIP3    H141455   4.543   3.103   1.784  0.7951 -0.5530  0.8503
 6632TIP3    H241456   4.536   3.241   1.844  3.2341 -0.3465  0.7885
 6633TIP3   OH241457   5.927   5.152   1.412 -0.3281 -0.5844 -0.5884
 6633TIP3    H141458   5.910   5.216   1.342 -0.8333 -0.7379 -0.6115
 6633TIP3    H241459   5.926   5.204   1.492 -1.3791 -0.6429 -0.5426
 6634TIP3   OH241460   1.272   1.056   1.446  0.1920 -0.1973 -0.0772
 6634TIP3    H141461   1.326   1.054   1.367  0.5789  0.5143  0.1592
 6634TIP3    H241462   1.283   0.969   1.485  0.9642 -0.1502 -0.1729
 6635TIP3   OH241463   5.635   5.900   1.711 -0.7716 -0.1564  0.1017
 6635TIP3    H141464   5.632   5.935   1.622 -0.8222  0.2234  0.2512
 6635TIP3    H241465   5.690   5.962   1.759  1.1972 -1.5735 -0.2067
 6636TIP3   OH241466   2.652   5.975   7.532 -0.3376  0.3866 -0.2484
 6636TIP3    H141467   2.733   5.973   7.582 -0.8884 -0.3282  0.6587
 6636TIP3    H241468   2.678   5.997   7.443  0.8765 -0.1114 -0.0260
 6637TIP3   OH241469   2.436   2.633   1.814  0.1705  0.4347 -0.2426
 6637TIP3    H141470   2.418   2.605   1.904 -2.2467  0.4389 -0.6550
 6637TIP3    H241471   2.501   2.702   1.823 -0.3065  0.7058  1.5584
 6638TIP3   OH241472   4.981   5.967   7.852 -0.1768  0.1158  0.2348
 6638TIP3    H141473   5.049   5.900   7.848  1.2295  1.2848  2.5073
 6638TIP3    H241474   5.026   6.048   7.825 -0.8546  0.7724  1.0476
 6639TIP3   OH241475   4.218   3.308   8.042 -0.2493 -0.3759 -0.4408
 6639TIP3    H141476   4.132   3.282   8.075 -1.2062  2.6725 -0.1690
 6639TIP3    H241477   4.204   3.326   7.949  0.3395 -0.7503 -0.6064
 6640TIP3   OH241478   6.577   2.690   2.290 -0.7260 -0.4053 -0.1025
 6640TIP3    H141479   6.621   2.656   2.212  0.4459 -2.9914  1.5779
 6640TIP3    H241480   6.617   2.775   2.305  0.4743 -0.7559 -1.1824
 6641TIP3   OH241481   5.443   3.823   8.156 -0.5373  0.8296  0.1552
 6641TIP3    H141482   5.374   3.887   8.139  1.4034  3.0393  0.0765
 6641TIP3    H241483   5.521   3.861   8.115  0.9364 -1.0722  1.0610
 6642TIP3   OH241484   6.250   5.560   7.267  0.1111 -0.3450  0.4382
 6642TIP3    H141485   6.271   5.510   7.188  0.2862  0.6346 -0.1474
 6642TIP3    H241486   6.162   5.594   7.251 -1.2087 -2.7006  1.9997
 6643TIP3   OH241487   0.669   0.092   8.139  0.0709  0.4598  0.1272
 6643TIP3    H141488   0.647   0.102   8.047  3.0216 -0.6953 -0.8247
 6643TIP3    H241489   0.644   0.003   8.161 -1.9120  1.1583  0.9242
 6644TIP3   OH241490   2.307   1.580   1.360  0.0144 -0.0779  0.0949
 6644TIP3    H141491   2.387   1.618   1.396 -1.0669  1.6968  0.7599
 6644TIP3    H241492   2.259   1.547   1.437  0.7081 -2.5316 -0.4188
 6645TIP3   OH241493   4.313   1.428   8.188  0.4228 -0.2798  0.0865
 6645TIP3    H141494   4.357   1.453   8.270  0.3669  2.5088 -0.6273
 6645TIP3    H241495   4.379   1.443   8.120  0.5327 -2.7529 -0.4644
 6646TIP3   OH241496   3.023   2.428   0.792 -0.2924 -0.1791 -0.0287
 6646TIP3    H141497   3.071   2.468   0.865 -0.1082  0.6784 -0.6068
 6646TIP3    H241498   2.934   2.416   0.825  0.1766 -1.3406  0.8940
 6647TIP3   OH241499   2.381   3.862   0.215 -0.1863 -0.0481 -0.1277
 6647TIP3    H141500   2.456   3.846   0.158 -0.2506 -1.3149  0.1110
 6647TIP3    H241501   2.317   3.797   0.189 -0.5422 -0.0913  0.8183
 6648TIP3   OH241502   1.064   2.976   2.403  0.2022 -0.6556  0.8064
 6648TIP3    H141503   1.002   2.931   2.462 -0.1924 -0.6206  0.4218
 6648TIP3    H241504   1.133   3.007   2.461  0.2110 -1.2971  1.1532
 6649TIP3   OH241505   6.645   0.369   2.246  0.3912  0.0921 -0.2760
 6649TIP3    H141506   6.638   0.277   2.272 -1.2107  0.5254  0.9467
 6649TIP3    H241507   6.702   0.409   2.311 -0.9444  0.4588  0.7289
 6650TIP3   OH241508   0.300   4.016   6.865  0.0463  0.0414  0.4503
 6650TIP3    H141509   0.215   4.060   6.864  0.5671  1.0660  0.2721
 6650TIP3    H241510   0.288   3.940   6.809 -0.8473 -0.0052  0.6890
 6651TIP3   OH241511   6.225   0.600   1.065  0.5195  0.3297 -0.1060
 6651TIP3    H141512   6.292   0.664   1.090 -0.0078  0.3259  1.4604
 6651TIP3    H241513   6.180   0.579   1.147 -0.5629 -0.6366 -0.9037
 6652TIP3   OH241514   0.707   1.885   1.542  0.0376 -0.2888 -0.5670
 6652TIP3    H141515   0.770   1.870   1.472  1.6212 -0.6326  0.8668
 6652TIP3    H241516   0.720   1.977   1.567 -0.4069 -0.2084 -0.6229
 6653TIP3   OH241517   1.464   0.820   8.661  0.3626  0.2967 -0.1826
 6653TIP3    H141518   1.416   0.757   8.608  0.2109  0.2142  0.0496
 6653TIP3    H241519   1.429   0.905   8.636  0.0454  0.2313  0.0368
 6654TIP3   OH241520   5.965   2.739   0.514  0.1986  0.3273 -0.1543
 6654TIP3    H141521   5.931   2.784   0.591 -2.4064 -0.6850 -0.6183
 6654TIP3    H241522   6.015   2.665   0.549 -1.1314 -0.2436  0.6114
 6655TIP3   OH241523   0.563   5.216   0.997 -0.0236 -0.2537  0.0982
 6655TIP3    H141524   0.497   5.253   1.056 -0.4127 -0.6508 -0.0770
 6655TIP3    H241525   0.513   5.161   0.938  0.4849 -0.6514  0.0312
 6656TIP3   OH241526   2.831   5.287   7.782 -1.1329  0.1562 -0.7978
 6656TIP3    H141527   2.902   5.261   7.723 -1.0416 -1.1227 -0.1703
 6656TIP3    H241528   2.854   5.375   7.810  0.3129 -0.3012 -0.4692
 6657TIP3   OH241529   1.286   0.616   1.317 -0.0137  0.2980 -0.1165
 6657TIP3    H141530   1.373   0.580   1.335  0.0667 -0.4155 -1.7353
 6657TIP3    H241531   1.288   0.704   1.354  1.9289  0.8513 -1.3593
 6658TIP3   OH241532   1.440   5.217   0.461  0.2730  0.1368  0.0198
 6658TIP3    H141533   1.491   5.147   0.501  1.5018  0.6693 -0.5531
 6658TIP3    H241534   1.372   5.239   0.525  0.2889 -1.1104  0.4749
 6659TIP3   OH241535   2.474   1.829   0.800  0.0251  0.2800 -0.2416
 6659TIP3    H141536   2.542   1.836   0.733 -0.9506 -0.0382 -1.3008
 6659TIP3    H241537   2.393   1.821   0.750 -0.7126 -0.1153  0.9907
 6660TIP3   OH241538   1.763   0.258   0.085  0.3319  0.4045  0.1645
 6660TIP3    H141539   1.834   0.280   0.025  0.6285  1.4215  0.8626
 6660TIP3    H241540   1.784   0.168   0.114  1.4095  0.7216  0.4374
 6661TIP3   OH241541   1.820   3.522   0.945 -0.1567 -0.5140  0.2323
 6661TIP3    H141542   1.905   3.479   0.958  0.7463  0.2665 -2.5253
 6661TIP3    H241543   1.825   3.601   0.999  2.2740  1.1964 -2.2156
 6662TIP3   OH241544   4.091   5.761   1.159  0.4714  0.6051 -0.3587
 6662TIP3    H141545   4.156   5.814   1.115  2.1138 -0.3467  0.8217
 6662TIP3    H241546   4.105   5.672   1.127  2.0416 -0.2159  2.2705
 6663TIP3   OH241547   1.103   3.948   7.261  0.4559 -0.3535  0.4004
 6663TIP3    H141548   1.131   3.974   7.173  0.3330 -2.0375 -0.1623
 6663TIP3    H241549   1.176   3.975   7.317  1.9752 -2.0497 -0.6433
 6664TIP3   OH241550   0.247   2.664   0.124 -0.2255 -0.0616  0.0938
 6664TIP3    H141551   0.219   2.573   0.111 -0.4670  0.1230 -0.7743
 6664TIP3    H241552   0.337   2.657   0.156 -0.8085 -0.6355  1.6885
 6665TIP3   OH241553   3.057   5.527   2.391 -0.3550 -0.0386  0.3687
 6665TIP3    H141554   3.094   5.456   2.444 -0.3193  1.0982  1.9561
 6665TIP3    H241555   3.083   5.607   2.437 -2.0400  0.9221 -0.2574
 6666TIP3   OH241556   4.591   2.010   2.415 -0.8036  0.4584 -0.9045
 6666TIP3    H141557   4.668   1.990   2.363 -0.5494 -0.1650 -0.3019
 6666TIP3    H241558   4.518   2.005   2.353 -0.3722  1.0328 -1.4713
 6667TIP3   OH241559   4.031   6.222   7.090 -0.1486  0.2217  0.5095
 6667TIP3    H141560   3.977   6.211   7.011 -1.4924  1.7045  1.1680
 6667TIP3    H241561   4.073   6.307   7.078 -1.6308  1.2262  2.0639
 6668TIP3   OH241562   1.052   4.306   0.612 -0.0104 -0.2167 -0.5928
 6668TIP3    H141563   1.126   4.306   0.674 -1.2047 -0.6249  0.8995
 6668TIP3    H241564   1.002   4.228   0.635 -0.7103 -0.1479 -1.8285
 6669TIP3   OH241565   1.017   0.123   2.079  0.0706 -0.5209  0.0147
 6669TIP3    H141566   0.982   0.052   2.026 -2.5650 -0.2833  1.2969
 6669TIP3    H241567   1.069   0.080   2.146 -0.7622 -1.1906  0.2414
 6670TIP3   OH241568   6.503   5.757   0.045 -0.2467 -0.2852 -0.3245
 6670TIP3    H141569   6.414   5.770   0.011 -0.3948  1.3977  0.5619
 6670TIP3    H241570   6.558   5.755  -0.033 -0.7495  1.8277 -0.8060
 6671TIP3   OH241571   5.445   6.038   7.743 -0.3108 -0.2764 -0.3418
 6671TIP3    H141572   5.464   5.960   7.794 -0.7602 -0.5038 -0.5147
 6671TIP3    H241573   5.518   6.044   7.681  1.2856  1.0864  1.5261
 6672TIP3   OH241574   3.153   0.009   0.604  0.3985  0.4301 -0.0673
 6672TIP3    H141575   3.091   0.062   0.654 -2.0934 -0.3736 -2.0431
 6672TIP3    H241576   3.217   0.072   0.570 -1.6442  2.0239 -1.1881
 6673TIP3   OH241577   0.772   6.418   1.233 -0.5655  0.4090  0.0097
 6673TIP3    H141578   0.800   6.441   1.144 -3.2760  1.6072 -0.6279
 6673TIP3    H241579   0.826   6.471   1.290  1.1431 -0.2906 -0.8776
 6674TIP3   OH241580   5.514   3.494   8.568  0.5254 -0.4773  0.0621
 6674TIP3    H141581   5.477   3.423   8.516 -4.1286  1.2458  0.5090
 6674TIP3    H241582   5.530   3.456   8.654  1.0205 -1.6084 -0.5107
 6675TIP3   OH241583   0.231   4.868   0.064 -0.1065 -0.6545 -0.1337
 6675TIP3    H141584   0.210   4.801  -0.000  0.2769 -0.8090 -0.0994
 6675TIP3    H241585   0.148   4.886   0.108 -0.0654 -1.6376  0.3625
 6676TIP3   OH241586   5.125   0.296   1.178  0.4818 -0.3318 -0.0227
 6676TIP3    H141587   5.085   0.375   1.213 -0.1101 -1.5926  2.3250
 6676TIP3    H241588   5.219   0.314   1.179  0.4371 -0.0462  1.6327
 6677TIP3   OH241589   4.606   4.019   8.062 -0.3857 -0.0458  0.1877
 6677TIP3    H141590   4.598   3.934   8.106 -1.5003 -0.5391 -0.8832
 6677TIP3    H241591   4.646   3.998   7.978 -1.6943  0.2861 -0.5547
 6678TIP3   OH241592   5.213   2.769   1.347  0.3080 -0.4866  0.2496
 6678TIP3    H141593   5.206   2.792   1.440 -0.1623 -0.4499  0.2061
 6678TIP3    H241594   5.238   2.676   1.347 -0.5234 -0.7140  0.4098
 6679TIP3   OH241595   3.447   2.058   0.652  0.2715  0.2038 -0.3994
 6679TIP3    H141596   3.356   2.058   0.683  0.1147 -0.4319 -0.8367
 6679TIP3    H241597   3.497   2.029   0.728  0.0522  0.1102 -0.2880
 6680TIP3   OH241598   0.671   5.832   2.681 -0.3220  0.6131  0.1754
 6680TIP3    H141599   0.657   5.926   2.677  1.6704  0.9186 -0.9353
 6680TIP3    H241600   0.760   5.822   2.715 -0.4768 -0.8685  0.2356
 6681TIP3   OH241601   3.527   6.167   2.019  0.4627  0.6141  0.1474
 6681TIP3    H141602   3.462   6.222   2.063  0.8614  0.0716  1.4796
 6681TIP3    H241603   3.588   6.229   1.980  0.2450  1.1280  0.6088
 6682TIP3   OH241604   0.736   6.493   8.684 -0.1612 -0.3736 -0.3519
 6682TIP3    H141605   0.681   6.544   8.743  0.7284  1.2492 -0.8762
 6682TIP3    H241606   0.687   6.490   8.602  0.3457  0.7589 -0.7079
 6683TIP3   OH241607   5.299   1.622   8.206 -0.3196  0.8940  0.8501
 6683TIP3    H141608   5.278   1.626   8.113 -0.2686 -4.7757  0.2275
 6683TIP3    H241609   5.218   1.646   8.251 -1.4122  0.4660 -0.8022
 6684TIP3   OH241610   4.208   6.048   1.006 -0.4995 -0.6111 -0.1507
 6684TIP3    H141611   4.259   6.066   1.085 -1.1096 -0.5671  0.2447
 6684TIP3    H241612   4.133   6.107   1.012 -2.8579 -3.4777  1.4474
 6685TIP3   OH241613   0.430   1.373   2.283 -0.0495  0.4575 -0.3597
 6685TIP3    H141614   0.464   1.333   2.203  0.3381  1.0243 -0.4878
 6685TIP3    H241615   0.420   1.301   2.344  0.4377  0.1366 -0.6502
 6686TIP3   OH241616   5.019   0.067   1.785 -0.0788  0.3918 -0.1392
 6686TIP3    H141617   5.084   0.106   1.843  0.1562  0.4595 -0.4417
 6686TIP3    H241618   5.044  -0.026   1.780  0.4879  0.5700 -0.8883
 6687TIP3   OH241619   2.642   5.238   1.714  0.3026 -0.2511  0.5578
 6687TIP3    H141620   2.692   5.281   1.783  1.9302  1.6072 -1.5828
 6687TIP3    H241621   2.569   5.196   1.759  1.7125  0.1369  3.4384
 6688TIP3   OH241622   5.959   3.143   8.667  0.8623 -0.0357  0.0063
 6688TIP3    H141623   5.921   3.170   8.583 -0.2473  0.3333  0.6097
 6688TIP3    H241624   6.035   3.199   8.678  1.0446 -0.1158 -0.7699
 6689TIP3   OH241625   6.164   2.657   1.543 -0.2596  0.0622 -0.1603
 6689TIP3    H141626   6.086   2.647   1.488 -0.0277  0.9376 -0.6622
 6689TIP3    H241627   6.144   2.732   1.599  0.7797  1.2249 -1.2955
 6690TIP3   OH241628   4.761   1.875   0.231  0.5335  0.6340  0.5281
 6690TIP3    H141629   4.708   1.805   0.193  1.4407 -0.1281  0.6170
 6690TIP3    H241630   4.728   1.955   0.191 -0.0166  0.0730 -0.1641
 6691TIP3   OH241631   3.829   2.597   0.352  0.0088 -0.3158 -0.8252
 6691TIP3    H141632   3.820   2.510   0.315 -0.8533 -0.2186 -0.8739
 6691TIP3    H241633   3.857   2.652   0.279 -0.2396 -0.4018 -0.9848
 6692TIP3   OH241634   4.793   1.483   0.316  0.0236 -0.8399 -0.2962
 6692TIP3    H141635   4.776   1.423   0.244  0.9355 -1.9696  0.3877
 6692TIP3    H241636   4.863   1.541   0.283 -1.3559  0.3617 -1.2135
 6693TIP3   OH241637   6.690   6.044   2.081 -0.3325 -0.5377  0.2819
 6693TIP3    H141638   6.722   6.123   2.037 -2.7541 -0.3369 -1.3266
 6693TIP3    H241639   6.595   6.050   2.073 -0.7409 -2.1036  2.8921
 6694TIP3   OH241640   0.244   1.875   2.071 -0.1338 -0.3428  0.0461
 6694TIP3    H141641   0.243   1.792   2.118 -0.0239 -1.0810 -1.2000
 6694TIP3    H241642   0.151   1.897   2.058 -0.1643 -0.0402  0.7506
 6695TIP3   OH241643   3.614   2.589   2.100 -0.5779 -0.4528  0.7423
 6695TIP3    H141644   3.698   2.587   2.054  0.8356 -1.8472  3.1181
 6695TIP3    H241645   3.572   2.669   2.071  0.0648 -1.2983 -2.9996
 6696TIP3   OH241646   2.307   2.851   2.073  0.6379  0.1943 -0.0211
 6696TIP3    H141647   2.287   2.937   2.035  0.2191  0.3865  0.6297
 6696TIP3    H241648   2.374   2.815   2.014  1.0640  1.1023 -0.1196
 6697TIP3   OH241649   2.866   2.263   7.803  0.1920  0.0828  0.7349
 6697TIP3    H141650   2.842   2.188   7.748  0.9684  0.9803 -0.8933
 6697TIP3    H241651   2.903   2.327   7.742 -1.2870  2.1986  1.9181
 6698TIP3   OH241652   1.178   3.801   1.751  0.0679  0.2288  0.4085
 6698TIP3    H141653   1.217   3.713   1.753  1.3547  0.7848  0.6812
 6698TIP3    H241654   1.088   3.786   1.723  0.2810 -1.1749  0.3748
 6699TIP3   OH241655   2.958   4.895   7.327  0.3462  0.2060 -0.4810
 6699TIP3    H141656   3.031   4.919   7.269 -1.5811  1.1038 -2.6944
 6699TIP3    H241657   2.884   4.881   7.267 -0.8961 -2.5674  1.4852
 6700TIP3   OH241658   6.453   4.578   1.885 -0.3389 -0.3041  0.0367
 6700TIP3    H141659   6.458   4.663   1.840 -0.0539 -0.5742 -0.4499
 6700TIP3    H241660   6.362   4.571   1.914 -0.0019  0.9027  1.5276
 6701TIP3   OH241661   6.073   0.872   7.601  0.1872  0.2015  0.1444
 6701TIP3    H141662   6.042   0.962   7.597 -1.7486 -0.4381 -1.5560
 6701TIP3    H241663   6.013   0.829   7.662 -2.0069 -0.8702 -2.5400
 6702TIP3   OH241664   1.569   3.350   0.402  0.1174  0.3443 -0.3934
 6702TIP3    H141665   1.476   3.370   0.389 -0.2583 -1.3996 -0.5517
 6702TIP3    H241666   1.571   3.295   0.480  0.8265 -0.9759 -1.3179
 6703TIP3   OH241667   2.973   4.985   2.069 -0.3657  0.2735  0.2672
 6703TIP3    H141668   2.957   5.079   2.073 -0.2293  0.3780 -1.0614
 6703TIP3    H241669   3.068   4.977   2.059 -0.2698 -0.0602  1.3026
 6704TIP3   OH241670   4.876   6.437   7.869  0.0801  0.1332 -0.0512
 6704TIP3    H141671   4.916   6.416   7.953  0.2314  1.3506  0.1978
 6704TIP3    H241672   4.783   6.419   7.882 -0.1577  1.8393  0.9327
 6705TIP3   OH241673   5.877   5.730   1.225  0.1020 -0.2875 -0.4870
 6705TIP3    H141674   5.844   5.781   1.150 -1.0919 -0.6816 -0.2586
 6705TIP3    H241675   5.809   5.664   1.241  0.9990 -1.1099  0.0633
 6706TIP3   OH241676   2.025   6.067   1.885 -0.8514 -0.1557  0.2873
 6706TIP3    H141677   2.041   6.036   1.796 -0.3824 -0.3565  0.4386
 6706TIP3    H241678   1.933   6.096   1.884 -0.9521 -0.4723 -0.1665
 6707TIP3   OH241679   3.030   1.323   1.215 -0.3057  0.1944  0.2512
 6707TIP3    H141680   3.049   1.415   1.235 -1.5407  0.2346  1.3463
 6707TIP3    H241681   2.976   1.293   1.288  0.7168 -1.6438  0.3006
 6708TIP3   OH241682   4.774   3.960   6.971  0.4786 -0.3390  0.2695
 6708TIP3    H141683   4.826   3.944   7.050  0.8167 -0.6213 -0.0067
 6708TIP3    H241684   4.825   4.023   6.921  0.9734 -1.2369 -0.3914
 6709TIP3   OH241685   0.477   6.394   7.538  0.2236  0.4714  0.0271
 6709TIP3    H141686   0.485   6.407   7.443  0.7473 -0.7685 -0.1137
 6709TIP3    H241687   0.565   6.370   7.566  0.4091  2.1750  1.0814
 6710TIP3   OH241688   1.533   2.444   1.360 -0.4696  0.2758 -0.1763
 6710TIP3    H141689   1.459   2.395   1.397 -0.9795  1.5450  0.5081
 6710TIP3    H241690   1.496   2.487   1.282 -0.9915  2.4036  1.1755
 6711TIP3   OH241691   2.855   1.641   0.499  0.4986  0.3118  0.1345
 6711TIP3    H141692   2.868   1.563   0.553  2.8194  0.2727 -0.3566
 6711TIP3    H241693   2.891   1.617   0.414 -3.3191  0.2746 -1.6718
 6712TIP3   OH241694   5.435   3.014   8.695  0.3361 -0.5322 -0.1790
 6712TIP3    H141695   5.397   3.097   8.664  1.7928 -0.0826 -0.8417
 6712TIP3    H241696   5.512   3.040   8.745  0.9241 -1.4920 -0.5632
 6713TIP3   OH241697   1.334   2.654   7.898 -0.5282 -0.4686  0.4220
 6713TIP3    H141698   1.395   2.654   7.825 -1.6259 -0.1159 -0.5328
 6713TIP3    H241699   1.261   2.709   7.868 -0.0800  1.4380  2.5898
 6714TIP3   OH241700   4.395   3.964   7.803  0.0921  0.4761 -0.1141
 6714TIP3    H141701   4.371   3.892   7.745  0.2595  0.2452  0.1029
 6714TIP3    H241702   4.455   4.018   7.752 -0.9172  1.0902 -0.6868
 6715TIP3   OH241703   3.309   0.445   7.509  0.8492 -1.1273  0.1674
 6715TIP3    H141704   3.352   0.384   7.568  1.8026 -0.9570 -0.3330
 6715TIP3    H241705   3.364   0.445   7.430  0.5875 -0.0094 -0.0299
 6716TIP3   OH241706   2.049   2.079   2.813 -0.2229 -0.0713  0.4267
 6716TIP3    H141707   2.024   1.988   2.800 -0.4446 -0.1202  1.1331
 6716TIP3    H241708   2.018   2.100   2.902 -1.3008  1.0551 -0.1752
 6717TIP3   OH241709   0.776   4.488   8.250  0.7000  0.1580 -0.3355
 6717TIP3    H141710   0.829   4.455   8.178  0.8546  2.7626 -1.5255
 6717TIP3    H241711   0.691   4.507   8.211  0.6319  1.1708  0.2642
 6718TIP3   OH241712   1.271   1.683   0.185  0.4764  0.0477  0.1475
 6718TIP3    H141713   1.276   1.757   0.125  1.0751  0.1297  0.2955
 6718TIP3    H241714   1.356   1.681   0.228  0.1807 -0.2359  0.7314
 6719TIP3   OH241715   5.177   5.717   8.312  0.5847  0.2198  0.1513
 6719TIP3    H141716   5.120   5.712   8.389  1.6076 -1.1025  0.8664
 6719TIP3    H241717   5.197   5.811   8.304  1.7687  0.2490  2.5248
 6720TIP3   OH241718   2.816   2.591   8.597  0.6751 -0.4773 -0.2732
 6720TIP3    H141719   2.841   2.533   8.670 -1.2332  0.1315  0.9540
 6720TIP3    H241720   2.728   2.562   8.573 -0.3102  1.8158  0.3306
 6721TIP3   OH241721   2.451   3.291   1.037 -0.5675  0.6025  1.0872
 6721TIP3    H141722   2.431   3.211   0.989 -1.1812  1.1989  0.3192
 6721TIP3    H241723   2.524   3.268   1.094  0.6728  0.0604 -0.6531
 6722TIP3   OH241724   3.945   3.443   1.206  0.4178  0.4443 -0.1608
 6722TIP3    H141725   3.850   3.451   1.209 -0.0426 -3.2886  0.5851
 6722TIP3    H241726   3.977   3.501   1.274 -1.3119  1.6389 -0.3106
 6723TIP3   OH241727   4.858   2.444   1.217 -0.3828 -0.3568 -0.6513
 6723TIP3    H141728   4.902   2.516   1.172  0.9800 -2.0466 -2.1884
 6723TIP3    H241729   4.903   2.365   1.186 -2.4045 -1.9612  0.2468
 6724TIP3   OH241730   0.328   0.152   2.965 -0.9765  0.1343  0.4359
 6724TIP3    H141731   0.311   0.239   3.002  0.3120  1.3035 -1.4994
 6724TIP3    H241732   0.242   0.112   2.956 -1.6255  1.3196  1.1202
 6725TIP3   OH241733   4.193   3.860   7.982 -0.3396 -0.3541  0.3350
 6725TIP3    H141734   4.249   3.901   7.917  0.5380 -2.1000 -0.0631
 6725TIP3    H241735   4.212   3.907   8.063 -0.0122  0.5710 -0.2575
 6726TIP3   OH241736   4.310   5.097   8.295  0.0987  0.0888 -0.4260
 6726TIP3    H141737   4.363   5.137   8.227  0.5498 -1.4232 -0.9870
 6726TIP3    H241738   4.220   5.100   8.261  0.1820  0.2455 -0.6323
 6727TIP3   OH241739   0.451   3.332   1.649  0.0875  0.4212 -0.2366
 6727TIP3    H141740   0.534   3.304   1.687  0.5096  0.0693 -1.3788
 6727TIP3    H241741   0.466   3.330   1.555 -1.3863 -0.1524 -0.4779
 6728TIP3   OH241742   2.022   5.557   1.200 -0.4283  0.1454 -0.3782
 6728TIP3    H141743   2.081   5.632   1.191 -2.3230  2.0080  1.7231
 6728TIP3    H241744   1.985   5.545   1.112  0.5446  1.0806 -0.9416
 6729TIP3   OH241745   4.570   1.841   1.166  0.3249  0.3686 -0.5481
 6729TIP3    H141746   4.554   1.781   1.093 -0.5707 -0.6550  0.4390
 6729TIP3    H241747   4.492   1.896   1.170  0.6458  0.8360 -0.7524
 6730TIP3   OH241748   5.947   0.458   1.081  0.0254 -0.1416  0.3471
 6730TIP3    H141749   5.942   0.384   1.020 -0.8800  0.2833 -0.1100
 6730TIP3    H241750   6.012   0.517   1.042  0.4891 -0.5247  0.5312
 6731TIP3   OH241751   3.541   6.205   8.198  0.3143 -0.2043 -0.1800
 6731TIP3    H141752   3.561   6.201   8.104 -0.0783 -1.4160 -0.2220
 6731TIP3    H241753   3.455   6.248   8.202  0.2560 -0.3016 -0.3854
 6732TIP3   OH241754   4.075   3.870   1.866 -0.0730  0.2055  1.2843
 6732TIP3    H141755   4.050   3.867   1.958 -0.5081 -1.0483  1.1515
 6732TIP3    H241756   4.050   3.958   1.837 -0.8161  0.2872  2.1291
 6733TIP3   OH241757   2.268   2.200   0.788  0.5580 -0.1160 -0.3335
 6733TIP3    H141758   2.276   2.139   0.714  0.1181  0.7700 -1.1265
 6733TIP3    H241759   2.214   2.271   0.754  0.7732  0.5468  0.6951
 6734TIP3   OH241760   1.892   1.968   0.095 -0.8912  0.2868 -0.3356
 6734TIP3    H141761   1.907   1.887   0.046 -1.3967 -1.1737  1.7774
 6734TIP3    H241762   1.868   2.033   0.028  1.3035 -0.7807 -2.2868
 6735TIP3   OH241763   4.629   0.462   1.217  0.2309  0.3504 -0.0711
 6735TIP3    H141764   4.615   0.496   1.305  4.2838  0.3476  0.8050
 6735TIP3    H241765   4.671   0.535   1.170  2.0587 -0.9204 -0.5398
 6736TIP3   OH241766   4.403   2.769   0.770  0.4769  0.7768  0.0480
 6736TIP3    H141767   4.431   2.850   0.726  1.5818  0.8552  0.8602
 6736TIP3    H241768   4.376   2.797   0.857 -1.6484  0.6062 -0.4948
 6737TIP3   OH241769   6.506   0.196   7.674  0.6770  0.4154  0.3180
 6737TIP3    H141770   6.459   0.158   7.749  1.6030  0.0923  0.7527
 6737TIP3    H241771   6.507   0.290   7.692 -0.0021  0.4581  0.1779
 6738TIP3   OH241772   0.617   3.245   7.210 -0.0981 -0.6533  0.3616
 6738TIP3    H141773   0.654   3.312   7.153 -0.9519  0.0104  0.5733
 6738TIP3    H241774   0.677   3.241   7.285  0.2343 -0.4933  0.1018
 6739TIP3   OH241775   5.263   6.426   1.462 -0.2145  0.6787 -0.6960
 6739TIP3    H141776   5.192   6.410   1.400 -1.1381  0.2510  0.4368
 6739TIP3    H241777   5.265   6.522   1.471  0.7768  0.8579 -2.2992
 6740TIP3   OH241778   3.623   3.206   7.711  0.2416 -0.0520 -0.0460
 6740TIP3    H141779   3.614   3.133   7.650 -0.5324  0.1427 -0.1815
 6740TIP3    H241780   3.713   3.199   7.744  0.3063 -0.8237 -0.3545
 6741TIP3   OH241781   2.968   3.436   7.644 -0.1317  0.4453  0.2836
 6741TIP3    H141782   2.929   3.495   7.580 -1.5029 -0.9968 -0.2917
 6741TIP3    H241783   3.042   3.485   7.680  0.2141  1.6065 -1.8199
 6742TIP3   OH241784   2.624   2.955   8.379 -0.1703  0.2274  0.4334
 6742TIP3    H141785   2.586   3.034   8.341 -1.1247 -0.1270  0.6048
 6742TIP3    H241786   2.717   2.973   8.385 -0.2458  0.9738 -0.4185
 6743TIP3   OH241787   2.771   0.159   1.233 -0.8603  0.1226 -0.8304
 6743TIP3    H141788   2.818   0.226   1.283 -1.9456  0.0595  0.3018
 6743TIP3    H241789   2.680   0.169   1.258 -1.2331 -0.8956 -1.6958
 6744TIP3   OH241790   0.311   3.295   0.143 -0.5160 -0.2583 -0.3115
 6744TIP3    H141791   0.350   3.268   0.226  1.4395  1.0032 -0.7697
 6744TIP3    H241792   0.225   3.329   0.167 -0.1191 -0.2210  1.1543
 6745TIP3   OH241793   5.871   3.313   0.696  0.1468 -0.5057 -0.0664
 6745TIP3    H141794   5.967   3.313   0.705  0.2879 -2.0633 -1.2062
 6745TIP3    H241795   5.852   3.390   0.644  0.9153 -0.8025 -0.8118
 6746TIP3   OH241796   5.618   3.981   0.843 -0.0967 -0.0160  0.4012
 6746TIP3    H141797   5.523   3.975   0.836 -0.3198 -0.3106  2.7868
 6746TIP3    H241798   5.634   4.064   0.887  0.8693  0.6402 -1.0987
 6747TIP3   OH241799   6.504   2.924   2.761  0.5336  0.1936 -0.4315
 6747TIP3    H141800   6.569   2.859   2.734 -0.2819 -1.0957  0.5683
 6747TIP3    H241801   6.496   2.912   2.856  0.3086  1.7357 -0.2269
 6748TIP3   OH241802   4.458   4.939   0.511  0.7630  0.1719  0.0623
 6748TIP3    H141803   4.470   4.886   0.432 -0.0927 -0.1470  0.1306
 6748TIP3    H241804   4.367   4.921   0.538  0.7743  0.9339  0.6336
 6749TIP3   OH241805   1.233   5.145   7.197  0.0991 -0.5397  0.1614
 6749TIP3    H141806   1.186   5.185   7.271  1.1353  0.0854  0.5138
 6749TIP3    H241807   1.275   5.220   7.153  0.2136 -1.0073 -0.5310
 6750TIP3   OH241808   6.598   4.709   8.304 -0.5915 -0.3261  0.1001
 6750TIP3    H141809   6.506   4.720   8.327 -0.6329 -1.2543  0.4086
 6750TIP3    H241810   6.618   4.618   8.324 -0.4673 -1.0941 -2.9344
 6751TIP3   OH241811   2.428   4.812   8.398 -0.0017  0.5393  1.0877
 6751TIP3    H141812   2.397   4.863   8.473 -2.8231  0.1482  0.3025
 6751TIP3    H241813   2.371   4.735   8.396  1.3369 -0.4742 -0.2990
 6752TIP3   OH241814   0.531   3.770   1.694  0.1308  0.2817 -0.2614
 6752TIP3    H141815   0.626   3.762   1.701 -0.0145 -0.5726  0.9884
 6752TIP3    H241816   0.499   3.679   1.690 -0.6328  0.5572 -0.9004
 6753TIP3   OH241817   1.658   1.338   1.305  0.3145  0.0721  0.4462
 6753TIP3    H141818   1.742   1.357   1.264 -1.6533  1.2047 -3.6401
 6753TIP3    H241819   1.644   1.245   1.289 -0.4052  0.4899 -1.6643
 6754TIP3   OH241820   0.850   3.180   0.044  0.4733 -0.9941 -0.7534
 6754TIP3    H141821   0.911   3.155  -0.026  0.1787 -0.1720 -1.3155
 6754TIP3    H241822   0.846   3.103   0.101  1.2311 -1.4332 -1.2762
 6755TIP3   OH241823   1.247   3.249   0.439 -0.3837 -0.0973  0.2003
 6755TIP3    H141824   1.277   3.327   0.393  1.0482  0.3625  1.8197
 6755TIP3    H241825   1.231   3.278   0.528  1.3431 -1.8687  1.1527
 6756TIP3   OH241826   4.050   6.328   0.972  0.4889 -0.0403 -0.3817
 6756TIP3    H141827   4.055   6.375   0.889 -1.2896  2.7073  0.9165
 6756TIP3    H241828   3.988   6.257   0.955  1.4144 -0.5625 -1.7810
 6757TIP3   OH241829   5.350   2.028   8.244 -0.3901  0.1147 -0.1860
 6757TIP3    H141830   5.288   1.993   8.309 -0.3924  0.4175 -0.0201
 6757TIP3    H241831   5.294   2.073   8.180 -0.3737 -0.0108 -0.2890
 6758TIP3   OH241832   5.110   4.604   2.218 -0.5482  0.5389 -0.0429
 6758TIP3    H141833   5.038   4.635   2.163  0.6454  1.1473 -1.3335
 6758TIP3    H241834   5.070   4.588   2.303 -2.3622  0.0697 -0.9297
 6759TIP3   OH241835   0.682   6.216   0.458  0.4872 -0.2164  0.1905
 6759TIP3    H141836   0.769   6.210   0.498  0.7660 -1.7434 -0.6102
 6759TIP3    H241837   0.698   6.251   0.370  0.3958 -1.2145 -0.2358
 6760TIP3   OH241838   1.194   6.460   8.512 -0.0739 -0.7840  0.1197
 6760TIP3    H141839   1.254   6.386   8.508  2.2040  0.9192  0.7672
 6760TIP3    H241840   1.205   6.505   8.428  0.1725 -0.0382  0.5356
 6761TIP3   OH241841   0.213   5.730   1.424 -0.1880 -0.4026 -0.6991
 6761TIP3    H141842   0.162   5.770   1.495 -0.4125 -1.2184 -0.3870
 6761TIP3    H241843   0.195   5.785   1.348 -1.2556 -0.4538 -0.5088
 6762TIP3   OH241844   2.604   3.387   1.361 -0.1337  0.2954  0.1748
 6762TIP3    H141845   2.678   3.349   1.315  1.2271  0.5036  2.0478
 6762TIP3    H241846   2.573   3.457   1.303 -0.0735 -0.9731 -1.4574
 6763TIP3   OH241847   5.486   0.705   1.503  0.3336  0.0240 -0.1365
 6763TIP3    H141848   5.482   0.722   1.597  1.6981  1.0166 -0.2357
 6763TIP3    H241849   5.568   0.745   1.475 -0.4376  0.4566 -1.8980
 6764TIP3   OH241850   0.326   3.455   2.079  0.0272  0.4557 -0.3383
 6764TIP3    H141851   0.345   3.382   2.020 -0.1151 -0.8218  1.1382
 6764TIP3    H241852   0.410   3.501   2.087  0.1983  0.2773 -1.0458
 6765TIP3   OH241853   6.355   1.468   0.846 -0.3917 -0.4423 -0.7060
 6765TIP3    H141854   6.413   1.542   0.862 -0.7579 -0.0963 -0.9770
 6765TIP3    H241855   6.364   1.413   0.924 -0.7872  0.3256 -0.1116
 6766TIP3   OH241856   3.228   1.481   2.426  0.0574  0.1876 -0.2689
 6766TIP3    H141857   3.302   1.527   2.385  1.5546 -2.8114 -1.2384
 6766TIP3    H241858   3.156   1.491   2.364  0.7142  0.1964 -1.0451
 6767TIP3   OH241859   3.241   4.246   2.105  0.2620 -0.2199 -0.3728
 6767TIP3    H141860   3.326   4.210   2.078  0.6856  0.3293  0.1929
 6767TIP3    H241861   3.252   4.265   2.198 -0.1105  0.9102 -0.5489
 6768TIP3   OH241862   0.260   4.559   0.186  0.4280 -0.7248  0.2718
 6768TIP3    H141863   0.228   4.640   0.146  1.5879  0.4919  1.6576
 6768TIP3    H241864   0.355   4.570   0.189  0.6664 -2.4586 -0.1242
 6769TIP3   OH241865   1.791   2.188   0.377  0.4790 -0.2381  0.1231
 6769TIP3    H141866   1.793   2.254   0.446 -0.0855 -0.5887  0.4855
 6769TIP3    H241867   1.730   2.222   0.312 -2.0995 -1.6523  1.6451
 6770TIP3   OH241868   5.116   6.395   0.612  0.8587  0.2521 -0.2185
 6770TIP3    H141869   5.152   6.413   0.698  0.9677 -1.2589  0.0707
 6770TIP3    H241870   5.147   6.308   0.590 -1.3307 -0.4987 -0.6294
 6771TIP3   OH241871   3.083   0.817   7.336  0.3684  0.1811  0.0780
 6771TIP3    H141872   3.052   0.892   7.286 -0.6826  0.0211  0.4700
 6771TIP3    H241873   3.178   0.817   7.322  0.2334  0.8096 -0.9733
 6772TIP3   OH241874   5.043   5.139   8.255 -0.5653  0.5496 -0.2472
 6772TIP3    H141875   5.015   5.048   8.240 -0.9480  0.5017  0.7263
 6772TIP3    H241876   4.971   5.192   8.221 -0.1965  0.5132 -1.1263
 6773TIP3   OH241877   4.781   0.553   8.119  0.6032 -0.0906 -0.4158
 6773TIP3    H141878   4.744   0.641   8.112 -0.0988 -0.2325  1.1400
 6773TIP3    H241879   4.875   0.568   8.133  0.9026  0.3129 -2.5014
 6774TIP3   OH241880   1.335   6.152   8.282  0.1427  0.0161 -0.0741
 6774TIP3    H141881   1.367   6.146   8.192 -0.6792 -0.6054 -0.3297
 6774TIP3    H241882   1.282   6.232   8.284 -1.0101 -0.7164 -0.5276
 6775TIP3   OH241883   5.198   0.264   7.757 -0.3980  0.1068 -0.2325
 6775TIP3    H141884   5.132   0.303   7.814 -1.0949  0.3590 -1.1864
 6775TIP3    H241885   5.278   0.264   7.809 -0.6810  1.6288  0.2520
 6776TIP3   OH241886   4.860   0.188   7.943 -0.2178 -0.3406 -0.5340
 6776TIP3    H141887   4.898   0.108   7.980 -0.1228  0.6725  1.7310
 6776TIP3    H241888   4.929   0.254   7.955 -1.8675  1.0980  1.9078
 6777TIP3   OH241889   2.539   1.023   0.468  0.0086  0.0021  0.2979
 6777TIP3    H141890   2.488   1.081   0.411  0.0713 -0.0262  0.2137
 6777TIP3    H241891   2.476   0.993   0.534 -0.0582  0.0513  0.2564
 6778TIP3   OH241892   0.968   2.426   8.694  0.3546  0.2359  0.0890
 6778TIP3    H141893   0.875   2.440   8.709  0.5360 -0.1184  1.8490
 6778TIP3    H241894   0.973   2.378   8.612 -0.8912  1.5930 -0.8228
 6779TIP3   OH241895   2.426   5.229   7.061  0.5312  0.5459 -0.1710
 6779TIP3    H141896   2.366   5.303   7.066  0.6172  0.5463  1.0719
 6779TIP3    H241897   2.513   5.270   7.063  0.6125  0.3818  2.1809
 6780TIP3   OH241898   1.661   0.887   0.110  0.0414  0.1484 -0.1866
 6780TIP3    H141899   1.582   0.873   0.058 -0.1981 -0.6968  0.3890
 6780TIP3    H241900   1.630   0.935   0.188  0.0285 -0.5099  0.2170
 6781TIP3   OH241901   4.919   5.269   8.675 -0.2683  0.6499 -0.6471
 6781TIP3    H141902   4.824   5.267   8.690 -0.6978  1.3100 -2.9130
 6781TIP3    H241903   4.949   5.182   8.699 -1.2639  0.7112  0.9960
 6782TIP3   OH241904   0.054   1.455   8.324  0.0355 -0.0560 -0.6275
 6782TIP3    H141905   0.044   1.369   8.365  3.3458 -1.1679 -1.8172
 6782TIP3    H241906   0.070   1.514   8.397 -1.3856 -0.5731  0.1422
 6783TIP3   OH241907   0.194   4.463   8.588  0.3053  0.3586  0.3304
 6783TIP3    H141908   0.176   4.508   8.505 -0.8924  3.0277  1.8932
 6783TIP3    H241909   0.290   4.467   8.596  0.5899 -1.2906 -1.5450
 6784TIP3   OH241910   3.568   3.172   8.510  0.4305  0.0013  0.5327
 6784TIP3    H141911   3.491   3.200   8.560  0.7281 -0.1072  1.0481
 6784TIP3    H241912   3.641   3.179   8.571  0.7083 -0.6824  0.2837
 6785TIP3   OH241913   4.069   2.888   7.853  0.4467  0.3062  0.0200
 6785TIP3    H141914   4.136   2.930   7.800 -0.0283  0.1653 -0.7093
 6785TIP3    H241915   4.007   2.958   7.874 -0.4400 -0.0350 -1.3472
 6786TIP3   OH241916   2.358   0.678   0.214 -0.1527 -0.0414 -0.2880
 6786TIP3    H141917   2.399   0.633   0.141 -0.8068 -0.2842 -0.5181
 6786TIP3    H241918   2.430   0.716   0.263  0.2410  1.8500 -2.1640
 6787TIP3   OH241919   6.280   0.035   7.801 -0.5200 -0.8322 -0.0980
 6787TIP3    H141920   6.302  -0.050   7.762 -0.3216 -0.1555 -1.5193
 6787TIP3    H241921   6.202   0.017   7.853 -0.6355 -1.8332 -0.5811
 6788TIP3   OH241922   6.729   4.813   1.943 -0.1677 -0.0221 -0.3864
 6788TIP3    H141923   6.688   4.832   1.859 -3.0158 -0.9733  0.6776
 6788TIP3    H241924   6.743   4.898   1.983  3.1188  0.6109 -2.5112
 6789TIP3   OH241925   4.660   5.544   1.961  0.3761 -1.0227  0.2187
 6789TIP3    H141926   4.705   5.545   1.876 -0.1617 -2.2709 -0.1044
 6789TIP3    H241927   4.649   5.451   1.981 -0.8406 -0.7375  0.9500
 6790TIP3   OH241928   2.158   3.357   1.917 -0.2772 -0.0858  0.2711
 6790TIP3    H141929   2.076   3.376   1.962 -0.3134  0.0318  0.1545
 6790TIP3    H241930   2.222   3.349   1.987  0.0786  2.0598  0.2725
 6791TIP3   OH241931   6.371   2.554   2.514  0.0603  0.9124  0.0703
 6791TIP3    H141932   6.384   2.463   2.544  2.2500  1.3535  0.6885
 6791TIP3    H241933   6.400   2.553   2.423  0.7249  1.0871  0.2688
 6792TIP3   OH241934   5.136   2.992   0.221 -0.4771  0.4615 -0.5009
 6792TIP3    H141935   5.120   2.973   0.314  0.9503  1.4173 -0.0162
 6792TIP3    H241936   5.139   2.907   0.179 -0.0436 -0.0650  0.5527
 6793TIP3   OH241937   0.052   0.205   8.169 -0.2062 -0.3267  0.0547
 6793TIP3    H141938  -0.006   0.199   8.093 -1.0238 -3.8884  0.8000
 6793TIP3    H241939   0.134   0.240   8.134 -0.9992 -0.5431 -2.1815
 6794TIP3   OH241940   3.770   1.333   1.271 -0.0931  0.6534  0.4105
 6794TIP3    H141941   3.687   1.343   1.318  0.1274 -0.7835  1.1484
 6794TIP3    H241942   3.831   1.298   1.337  1.1807  1.9211 -0.0498
 6795TIP3   OH241943   6.697   2.943   1.576 -0.3074 -0.3088  0.0528
 6795TIP3    H141944   6.615   2.899   1.556 -2.1823  2.6006  0.6709
 6795TIP3    H241945   6.725   2.904   1.660 -0.0480 -2.5108 -0.9833
 6796TIP3   OH241946   4.955   2.966   2.327 -0.1138 -0.0185 -0.2880
 6796TIP3    H141947   4.910   2.996   2.248 -1.5569 -2.1888 -0.3663
 6796TIP3    H241948   4.908   2.887   2.354  2.0528 -0.9303  1.1671
 6797TIP3   OH241949   4.601   4.317   1.714  0.0926 -0.0753 -0.8142
 6797TIP3    H141950   4.649   4.249   1.761  0.4758 -1.3787 -2.9744
 6797TIP3    H241951   4.571   4.275   1.633 -0.1125  2.1753 -2.0021
 6798TIP3   OH241952   0.813   5.068   2.900 -0.1486 -0.6835 -0.3859
 6798TIP3    H141953   0.732   5.073   2.951  0.4555  0.0171  0.5332
 6798TIP3    H241954   0.865   5.002   2.945 -0.1291 -1.0099 -0.8784
 6799TIP3   OH241955   2.348   1.438   0.482 -0.1841  0.3477 -0.2580
 6799TIP3    H141956   2.265   1.390   0.486 -0.3985  0.6788 -0.6462
 6799TIP3    H241957   2.341   1.490   0.402 -0.1456  1.3680  0.3810
 6800TIP3   OH241958   6.196   5.221   1.094 -0.4676 -0.6153 -0.5456
 6800TIP3    H141959   6.278   5.175   1.078 -0.0670 -0.7739  1.6077
 6800TIP3    H241960   6.205   5.303   1.046  0.4974 -1.0736 -1.1898
 6801TIP3   OH241961   4.437   4.760   0.303 -0.4775  0.9811  0.2381
 6801TIP3    H141962   4.480   4.675   0.309 -1.1475  0.5537 -0.7475
 6801TIP3    H241963   4.373   4.750   0.232  0.7481  2.8587 -1.2301
 6802TIP3   OH241964   3.548   4.555   8.297 -0.2504 -0.4340 -0.3846
 6802TIP3    H141965   3.493   4.626   8.264 -2.7952 -2.6433 -1.2355
 6802TIP3    H241966   3.637   4.584   8.277 -1.1077  2.6045 -0.4248
 6803TIP3   OH241967   3.384   2.906   7.278  0.0540  0.1678  0.1211
 6803TIP3    H141968   3.435   2.987   7.286  0.4580 -0.1396  0.7660
 6803TIP3    H241969   3.390   2.883   7.186  0.4506  0.5383  0.0503
 6804TIP3   OH241970   2.276   1.767   1.721 -0.0259  0.6867  0.9706
 6804TIP3    H141971   2.304   1.856   1.740 -0.9587  1.4893 -1.1500
 6804TIP3    H241972   2.260   1.766   1.627 -0.3118 -1.6492  0.9887
 6805TIP3   OH241973   5.059   0.541   8.198 -0.3792 -0.1841 -0.1430
 6805TIP3    H141974   5.113   0.618   8.182 -2.3861  1.2939 -0.0914
 6805TIP3    H241975   5.071   0.521   8.291 -1.9432  1.8008  0.5399
 6806TIP3   OH241976   1.123   1.653   6.881 -0.0240  0.4388 -0.6732
 6806TIP3    H141977   1.050   1.593   6.898  1.3073 -1.4603 -1.2962
 6806TIP3    H241978   1.166   1.662   6.966 -0.1415  0.3768 -0.6068
 6807TIP3   OH241979   6.176   3.050   7.689  0.0305  0.5989 -0.1302
 6807TIP3    H141980   6.167   3.050   7.785 -1.8069  0.4055 -0.2543
 6807TIP3    H241981   6.250   3.108   7.672 -0.9989  2.5141  1.3477
 6808TIP3   OH241982   6.697   6.816   0.924  0.5631  0.1254  0.0852
 6808TIP3    H141983   6.728   6.884   0.984  2.2195 -1.3218  0.9398
 6808TIP3    H241984   6.612   6.849   0.894  0.1060  1.3548  2.4649
 6809TIP3   OH241985   6.558   2.915   7.862 -0.0037 -0.6496  0.1478
 6809TIP3    H141986   6.543   2.923   7.768 -1.3393  1.6157  0.4888
 6809TIP3    H241987   6.514   2.833   7.886 -0.0448 -1.0235 -1.1061
 6810TIP3   OH241988   2.057   3.510   8.707  0.2393 -0.2065  0.2029
 6810TIP3    H141989   2.080   3.578   8.770 -0.1354  0.0022  0.1154
 6810TIP3    H241990   2.141   3.475   8.678  0.5575  1.6158 -1.2815
 6811TIP3   OH241991   3.574   3.421   0.285 -0.2514  0.0454  0.8892
 6811TIP3    H141992   3.587   3.336   0.328 -2.2984 -0.7243  0.1082
 6811TIP3    H241993   3.500   3.460   0.331 -0.1277  0.8594  0.4173
 6812TIP3   OH241994   6.711   0.223   8.361 -0.0491 -0.2320 -0.1419
 6812TIP3    H141995   6.778   0.225   8.292  0.6923  1.1705  0.5683
 6812TIP3    H241996   6.742   0.158   8.423 -0.4013 -1.0484 -0.8020
 6813TIP3   OH241997   5.363   2.710   7.794 -0.8296 -0.0274  0.1648
 6813TIP3    H141998   5.409   2.776   7.742 -0.3838  1.1545  1.9920
 6813TIP3    H241999   5.420   2.633   7.792 -1.1567 -0.2692 -1.6393
 6814TIP3   OH242000   5.764   4.825   2.650  0.2891  0.4422 -0.2549
 6814TIP3    H142001   5.841   4.882   2.642  1.6060 -1.3565 -1.2879
 6814TIP3    H242002   5.796   4.749   2.698 -0.8416 -0.3506 -0.7166
 6815TIP3   OH242003   3.285   2.265   2.239 -0.2533  0.0109 -0.2050
 6815TIP3    H142004   3.269   2.360   2.239 -0.8058 -0.0647  0.5517
 6815TIP3    H242005   3.379   2.257   2.255 -0.3428  0.4334  0.6092
 6816TIP3   OH242006   1.518   3.488   7.769  0.3090  0.7021 -0.0997
 6816TIP3    H142007   1.447   3.442   7.725  2.5805 -0.2702 -3.0891
 6816TIP3    H242008   1.572   3.418   7.807  0.5010  1.3261  0.8298
 6817TIP3   OH242009   3.550   3.690   8.140 -0.0343  0.4894  0.0610
 6817TIP3    H142010   3.590   3.750   8.203  1.8228 -0.7857  0.1732
 6817TIP3    H242011   3.495   3.632   8.192 -1.5606  1.7899 -0.0070
 6818TIP3   OH242012   0.304   1.822   2.755 -0.6769  0.0345  0.5645
 6818TIP3    H142013   0.399   1.813   2.761 -0.3629  1.5493 -1.4185
 6818TIP3    H242014   0.289   1.916   2.745 -2.1976 -0.3751 -1.5972
 6819TIP3   OH242015   3.345   1.866   0.296 -0.3980  0.6793  0.7515
 6819TIP3    H142016   3.328   1.800   0.363  1.3720  0.8859  1.4643
 6819TIP3    H242017   3.441   1.872   0.292 -0.3940  0.1873 -2.3127
 6820TIP3   OH242018   0.577   6.004   2.020  0.7838  0.1008  0.9549
 6820TIP3    H142019   0.546   5.953   1.946  2.6435 -0.8895  0.8058
 6820TIP3    H242020   0.629   5.942   2.072  0.3333  1.0182  2.5783
 6821TIP3   OH242021   6.608   6.718   7.610 -0.2622  0.0059  0.2544
 6821TIP3    H142022   6.588   6.656   7.680 -0.6293  0.0175  0.1669
 6821TIP3    H242023   6.693   6.755   7.633 -0.3433 -0.0519  0.6513
 6822TIP3   OH242024   6.263   6.428   1.443 -0.7029 -0.3733  0.2484
 6822TIP3    H142025   6.250   6.346   1.396  2.6416 -0.1621 -1.3183
 6822TIP3    H242026   6.271   6.495   1.375  0.8689  0.5233  1.2363
 6823TIP3   OH242027   4.438   3.852   0.945 -0.5237 -0.2827 -0.2106
 6823TIP3    H142028   4.528   3.883   0.956 -0.5897  0.0327 -0.5619
 6823TIP3    H242029   4.447   3.758   0.928 -0.4043 -0.8326  2.4464
 6824TIP3   OH242030   6.156   0.724   0.440 -0.0211  0.0326  0.1448
 6824TIP3    H142031   6.230   0.664   0.432  1.2078  1.3812  0.9884
 6824TIP3    H242032   6.142   0.757   0.351  1.2473  0.7148  0.1773
 6825TIP3   OH242033   4.981   5.214   0.882  0.4512 -0.4121  0.1283
 6825TIP3    H142034   4.938   5.283   0.932  0.2400 -0.8864  0.6190
 6825TIP3    H242035   4.920   5.192   0.812  0.3372 -0.3820  0.2180
 6826TIP3   OH242036   6.427   2.979   1.776  0.5731 -0.1267 -0.1407
 6826TIP3    H142037   6.440   2.885   1.769 -0.8432 -0.2393 -1.9155
 6826TIP3    H242038   6.433   2.997   1.870 -0.5056 -2.2070  0.3820
 6827TIP3   OH242039   0.181   5.748   1.950  0.4683 -0.4597  0.3764
 6827TIP3    H142040   0.220   5.670   1.991  2.7552  0.5390  0.2301
 6827TIP3    H242041   0.121   5.712   1.884  1.3792 -2.1239  0.3804
 6828TIP3   OH242042   3.660   2.180   7.116  0.0550  0.2078 -0.3421
 6828TIP3    H142043   3.744   2.148   7.149  0.1447  0.7425 -0.0357
 6828TIP3    H242044   3.598   2.165   7.187  0.4677  2.3572  0.5474
 6829TIP3   OH242045   3.084   4.504   1.181 -0.0408  0.7389 -0.2920
 6829TIP3    H142046   3.041   4.587   1.160 -1.9692 -0.3267 -0.8186
 6829TIP3    H242047   3.095   4.507   1.276 -2.0949  0.7427 -0.0076
 6830TIP3   OH242048   1.327   6.542   1.591 -1.0041  0.0519  0.2252
 6830TIP3    H142049   1.283   6.622   1.617  1.7226  1.8978 -0.4126
 6830TIP3    H242050   1.311   6.481   1.663 -1.9646  1.6282  1.4034
 6831TIP3   OH242051   0.568   0.059   0.892 -0.7953  0.1469 -0.2515
 6831TIP3    H142052   0.483   0.023   0.865 -0.7900  0.4011 -0.6079
 6831TIP3    H242053   0.602  -0.006   0.953 -2.6069  1.4730  2.3702
 6832TIP3   OH242054   2.873   2.172   8.249  0.7664  0.6218  0.4063
 6832TIP3    H142055   2.893   2.202   8.338  1.0803  1.0477  0.1944
 6832TIP3    H242056   2.822   2.092   8.262 -2.3890  2.5726  1.0189
 6833TIP3   OH242057   1.930   2.396   1.125  0.3010 -0.3909  0.0333
 6833TIP3    H142058   1.888   2.363   1.204  1.6340  1.7945  1.7578
 6833TIP3    H242059   1.994   2.329   1.102 -2.4743 -2.7814 -1.4423
 6834TIP3   OH242060   5.672   2.052   7.795 -0.2295  0.1942 -0.3821
 6834TIP3    H142061   5.697   1.973   7.746 -0.3110 -0.8249  1.1633
 6834TIP3    H242062   5.591   2.082   7.752 -1.4157 -1.8305  0.3271
 6835TIP3   OH242063   2.535   5.313   1.475 -0.4722 -0.1686  0.1825
 6835TIP3    H142064   2.585   5.249   1.425  1.0584  0.2709  1.0910
 6835TIP3    H242065   2.552   5.291   1.566 -2.6990 -0.5543  0.5609
 6836TIP3   OH242066   1.579   3.876   2.952 -0.1068 -0.0740  0.7973
 6836TIP3    H142067   1.560   3.799   3.005 -0.4737 -0.4738  0.1035
 6836TIP3    H242068   1.562   3.848   2.862  1.0127  0.4317  0.4117
 6837TIP3   OH242069   2.916   6.533   1.393  0.0070 -0.3401  0.3058
 6837TIP3    H142070   2.833   6.576   1.372  1.0597  1.6778 -0.0041
 6837TIP3    H242071   2.894   6.473   1.465 -1.9079 -0.7177 -0.5196
 6838TIP3   OH242072   6.291   2.193   0.938 -0.2183  0.6287 -0.3299
 6838TIP3    H142073   6.216   2.187   0.998  0.7042  0.2400  0.8122
 6838TIP3    H242074   6.252   2.216   0.853 -1.7587 -0.7744 -0.0441
 6839TIP3   OH242075   5.207   5.007   7.769 -0.1044 -0.1662 -0.3759
 6839TIP3    H142076   5.146   4.993   7.841  1.2640  0.9227  1.0665
 6839TIP3    H242077   5.206   4.925   7.720 -0.9945 -0.9745  0.9403
 6840TIP3   OH242078   0.473   6.355   7.246 -0.3170  0.4486 -0.8547
 6840TIP3    H142079   0.512   6.312   7.170  0.7680  1.8014 -1.1057
 6840TIP3    H242080   0.380   6.331   7.242 -0.0810 -0.3478 -2.0092
 6841TIP3   OH242081   4.820   3.642   2.098 -0.1104 -0.5546 -1.2950
 6841TIP3    H142082   4.807   3.661   2.005 -1.0627 -0.0635 -1.0750
 6841TIP3    H242083   4.804   3.548   2.106 -2.5505 -0.1798 -1.2310
 6842TIP3   OH242084   0.125   2.388   1.801 -0.0397  0.1395  0.0282
 6842TIP3    H142085   0.036   2.353   1.793  0.3450 -0.5084 -2.0029
 6842TIP3    H242086   0.182   2.311   1.795  0.6696  0.4923  1.7689
 6843TIP3   OH242087   5.399   5.604   1.443  0.2904  0.3075  0.7268
 6843TIP3    H142088   5.491   5.615   1.419  0.5051 -0.8116  0.9897
 6843TIP3    H242089   5.396   5.520   1.489 -0.5701  1.1297  2.2524
 6844TIP3   OH242090   4.890   2.256   7.729  0.1824 -0.4829 -0.1398
 6844TIP3    H142091   4.928   2.340   7.751 -0.2377 -0.1701 -0.5795
 6844TIP3    H242092   4.956   2.214   7.673  2.4778 -2.4128  3.6255
 6845TIP3   OH242093   2.148   5.214   7.976  0.2920  0.0182 -0.4379
 6845TIP3    H142094   2.144   5.309   7.961  1.8901  0.5067  1.8277
 6845TIP3    H242095   2.059   5.191   8.004 -0.0092  0.9189 -0.6124
 6846TIP3   OH242096   1.050   5.294   8.460 -0.0297  0.1058 -0.0718
 6846TIP3    H142097   1.003   5.376   8.471 -1.1224 -0.4884 -0.1525
 6846TIP3    H242098   1.111   5.310   8.388 -0.6854  0.6512 -0.5129
 6847TIP3   OH242099   1.681   3.260   2.979  0.3945 -0.9590  0.6596
 6847TIP3    H142100   1.727   3.208   2.914  0.9202  0.4507 -0.1483
 6847TIP3    H242101   1.601   3.211   2.997 -0.1661 -1.0409 -1.6700
 6848TIP3   OH242102   0.248   6.153   0.257 -0.7501 -0.0752  0.7324
 6848TIP3    H142103   0.208   6.067   0.240  0.7984 -0.6827 -0.0683
 6848TIP3    H242104   0.175   6.210   0.277 -1.9038 -1.4022  0.4649
 6849TIP3   OH242105   5.972   3.124   2.436  0.2430 -0.4095  0.0276
 6849TIP3    H142106   5.935   3.167   2.513  0.3486 -0.7632  0.2760
 6849TIP3    H242107   5.964   3.030   2.454 -1.7314 -0.5768 -1.3147
 6850TIP3   OH242108   6.665   3.009   7.367  0.7074  0.2047  0.1686
 6850TIP3    H142109   6.570   3.010   7.370  0.6977  1.1239 -0.1310
 6850TIP3    H242110   6.691   3.042   7.453  0.7563 -0.0215  0.2409
 6851TIP3   OH242111   5.085   4.088   2.430  0.0119 -1.2806  0.1127
 6851TIP3    H142112   5.171   4.105   2.392 -0.1366 -0.8665 -0.0363
 6851TIP3    H242113   5.026   4.149   2.386 -0.3090 -1.3683  0.4146
 6852TIP3   OH242114   2.738   4.296   8.725 -1.1152 -0.3706 -0.3305
 6852TIP3    H142115   2.809   4.234   8.709 -0.1847  0.9955 -1.8137
 6852TIP3    H242116   2.767   4.346   8.802 -1.2250 -0.8833  0.0429
 6853TIP3   OH242117   6.162   0.019   2.528 -0.0252 -0.5410  0.0079
 6853TIP3    H142118   6.256   0.027   2.542 -0.0715 -0.3770  0.2243
 6853TIP3    H242119   6.128   0.108   2.534 -0.0084 -0.4171 -1.4802
 6854TIP3   OH242120   2.305   6.436   3.049 -0.8099  0.2708 -0.4504
 6854TIP3    H142121   2.396   6.405   3.052 -0.8325  0.2772  1.4393
 6854TIP3    H242122   2.252   6.356   3.056 -1.0031  0.2170 -2.0540
 6855TIP3   OH242123   4.572   5.980   2.184  0.7428  0.7059 -0.1554
 6855TIP3    H142124   4.482   5.949   2.194  0.7355  1.0683  1.0521
 6855TIP3    H242125   4.570   6.070   2.218  1.7898  0.3216  0.9800
 6856TIP3   OH242126   6.066   5.687   1.744 -0.1250 -0.4162 -0.4237
 6856TIP3    H142127   6.128   5.636   1.797 -0.0233  0.4955  0.3586
 6856TIP3    H242128   6.011   5.620   1.702  0.8583 -1.2125 -0.4928
 6857TIP3   OH242129   0.739   0.619   0.020 -0.2019 -0.4915 -0.0798
 6857TIP3    H142130   0.660   0.587  -0.023 -0.0578  0.1580 -0.8554
 6857TIP3    H242131   0.750   0.708  -0.014  0.6568 -0.4493  0.2931
 6858TIP3   OH242132   0.009   2.804   7.114 -1.0132 -0.2425  0.4305
 6858TIP3    H142133   0.094   2.801   7.157 -0.8413  1.0642  0.2204
 6858TIP3    H242134  -0.043   2.738   7.160  0.1642 -1.2328  0.4052
 6859TIP3   OH242135   6.719   5.826   2.263 -0.3560  0.7831 -0.4711
 6859TIP3    H142136   6.743   5.874   2.183  0.2410  1.6951  0.2336
 6859TIP3    H242137   6.796   5.834   2.319 -0.0898 -1.3462 -0.4488
 6860TIP3   OH242138   5.552   5.675   0.016 -0.3349  0.0205  0.6764
 6860TIP3    H142139   5.486   5.606   0.016 -0.4782  0.0664 -1.5760
 6860TIP3    H242140   5.527   5.732  -0.057  1.5546  0.6849  0.4898
 6861TIP3   OH242141   4.818   0.321   0.513 -0.2141 -0.6506  0.8764
 6861TIP3    H142142   4.802   0.415   0.520 -0.8200 -0.6194 -0.6375
 6861TIP3    H242143   4.733   0.283   0.492  0.2444 -1.3978  0.3242
 6862TIP3   OH242144   0.397   3.820   1.094  0.3646 -0.1526  0.5896
 6862TIP3    H142145   0.418   3.796   1.003  3.5006 -0.8900  1.3962
 6862TIP3    H242146   0.388   3.736   1.139  0.7045  0.2034  1.3231
 6863TIP3   OH242147   3.962   5.895   7.482 -0.2225  0.4592  0.0511
 6863TIP3    H142148   4.040   5.900   7.426 -0.1311 -1.0699 -0.0063
 6863TIP3    H242149   3.893   5.936   7.430  0.6063  2.2687  0.2873
 6864TIP3   OH242150   5.991   1.421   6.632  0.7063 -0.1910  0.5208
 6864TIP3    H142151   5.973   1.437   6.725  0.4790  0.9873  0.2909
 6864TIP3    H242152   6.085   1.437   6.623  0.3882  1.8400  0.1791
 6865TIP3   OH242153   4.826   6.760   6.893  0.2632 -0.7566 -0.2717
 6865TIP3    H142154   4.904   6.706   6.894  0.9742  0.2548  0.1886
 6865TIP3    H242155   4.764   6.711   6.838  1.4717 -1.1945 -1.3002
 6866TIP3   OH242156   2.461   3.214   0.526  0.0486  0.2710 -0.1703
 6866TIP3    H142157   2.454   3.289   0.467  2.1020  1.5766  1.0664
 6866TIP3    H242158   2.377   3.210   0.571 -0.8109  0.5206 -1.6958
 6867TIP3   OH242159   1.363   3.910   8.176  0.0016 -0.3973  0.2829
 6867TIP3    H142160   1.312   3.960   8.112 -0.3488  0.0772  0.9216
 6867TIP3    H242161   1.315   3.922   8.258  1.2986  0.2934  0.9616
 6868TIP3   OH242162   4.036   4.467   8.129 -0.0191  0.4717 -0.2613
 6868TIP3    H142163   4.128   4.466   8.157 -0.2063  3.3197  0.7736
 6868TIP3    H242164   3.994   4.530   8.188 -1.8213  2.0939 -3.0389
 6869TIP3   OH242165   4.036   0.999   1.033 -0.4668 -0.5272  0.1073
 6869TIP3    H142166   3.967   0.978   1.096  0.9372 -0.0426  1.8786
 6869TIP3    H242167   4.117   0.971   1.075  0.6687  1.1137 -0.8462
 6870TIP3   OH242168   6.738   0.718   1.415 -0.5897  0.3357 -0.1680
 6870TIP3    H142169   6.826   0.755   1.411 -0.7670  0.8128  0.2538
 6870TIP3    H242170   6.717   0.697   1.324  0.4063 -0.8645 -0.1391
 6871TIP3   OH242171   6.669   0.882   8.683  0.1681 -0.0626  0.3232
 6871TIP3    H142172   6.654   0.896   8.776 -1.7128  0.5254 -0.0422
 6871TIP3    H242173   6.664   0.787   8.672 -0.4834 -0.0743  0.6860
 6872TIP3   OH242174   0.380   4.877   1.933 -0.2699  0.1495 -0.2742
 6872TIP3    H142175   0.448   4.828   1.978  0.4783 -0.3052 -1.8443
 6872TIP3    H242176   0.410   4.968   1.936 -0.8628  0.3339  1.2104
 6873TIP3   OH242177   3.317   2.223   0.242 -0.0130  0.6432  0.0830
 6873TIP3    H142178   3.247   2.245   0.304 -0.1963  1.6675 -0.4586
 6873TIP3    H242179   3.393   2.203   0.298 -1.3220 -3.0514  0.7858
 6874TIP3   OH242180   5.767   5.230   8.568  0.1532  0.1416  0.0459
 6874TIP3    H142181   5.723   5.299   8.617 -0.7661  0.0807 -0.6568
 6874TIP3    H242182   5.708   5.155   8.573  0.8975 -0.4379  0.3681
 6875TIP3   OH242183   3.160   4.620   2.606  0.0073  0.2742 -0.4077
 6875TIP3    H142184   3.217   4.594   2.534  0.4087  0.0334 -0.0091
 6875TIP3    H242185   3.071   4.601   2.575  0.2068 -0.2817 -0.6511
 6876TIP3   OH242186   0.111   5.131   8.240  0.0934  0.5010  0.0315
 6876TIP3    H142187   0.103   5.070   8.313 -0.1565  0.8864  0.3289
 6876TIP3    H242188   0.188   5.101   8.192 -0.1422 -0.1683  0.0581
 6877TIP3   OH242189   5.486   5.072   2.482 -0.6207  0.1587 -0.2213
 6877TIP3    H142190   5.458   5.141   2.422 -1.4414  1.1059  1.2055
 6877TIP3    H242191   5.411   5.013   2.486 -0.6835  0.2596  0.0991
 6878TIP3   OH242192   3.288   1.859   1.657 -0.4809  0.1952  0.6873
 6878TIP3    H142193   3.346   1.824   1.589 -0.9722  0.1094  0.3081
 6878TIP3    H242194   3.208   1.807   1.650 -1.4263  1.6748 -0.2104
 6879TIP3   OH242195   2.659   5.601   0.405  0.4949 -0.4131 -0.7409
 6879TIP3    H142196   2.695   5.660   0.339  0.4117 -0.0171 -0.4382
 6879TIP3    H242197   2.705   5.519   0.392 -1.7391 -1.4049 -3.4447
 6880TIP3   OH242198   0.197   5.870   2.483  0.8088  0.1901  0.1413
 6880TIP3    H142199   0.119   5.865   2.538  1.6954 -0.9756  1.3564
 6880TIP3    H242200   0.226   5.780   2.474  0.6734  0.3408 -2.3333
 6881TIP3   OH242201   0.122   1.704   8.030 -0.1594  0.2066  0.0124
 6881TIP3    H142202   0.208   1.709   8.073  0.4066  1.0088 -1.1419
 6881TIP3    H242203   0.135   1.642   7.958 -1.1138 -1.1705  0.9838
 6882TIP3   OH242204   3.936   6.750   0.028 -0.4466  0.0961  0.3664
 6882TIP3    H142205   3.879   6.734  -0.047  2.9906 -0.5695 -2.3754
 6882TIP3    H242206   3.954   6.844   0.026  0.3967 -0.0664 -0.3111
 6883TIP3   OH242207   4.770   3.720   1.187 -0.0101 -0.3435  0.4636
 6883TIP3    H142208   4.719   3.641   1.204 -0.6252  0.1006  0.7227
 6883TIP3    H242209   4.840   3.719   1.252  1.0695 -1.5882 -0.6626
 6884TIP3   OH242210   0.106   2.160   7.467 -0.0745  0.0781  0.1521
 6884TIP3    H142211   0.165   2.193   7.400  1.0426 -0.3409  0.8977
 6884TIP3    H242212   0.104   2.066   7.453  0.4509 -0.0586  0.8970
 6885TIP3   OH242213   5.419   0.218   0.042 -0.1278 -0.2865  0.3452
 6885TIP3    H142214   5.429   0.125   0.063  0.6563 -0.3922 -0.4011
 6885TIP3    H242215   5.508   0.253   0.045 -0.4179  0.4356  0.6064
 6886TIP3   OH242216   1.048   5.191   2.864  0.3313  1.2873 -0.4649
 6886TIP3    H142217   0.987   5.153   2.927  1.7682  0.6384  0.6013
 6886TIP3    H242218   1.018   5.159   2.779  0.6422 -1.1466  0.2688
 6887TIP3   OH242219   1.436   2.193   0.386  0.3122  0.1025  0.4167
 6887TIP3    H142220   1.490   2.245   0.327 -0.7058  1.3340  0.5154
 6887TIP3    H242221   1.475   2.205   0.472 -0.2385  1.2192  0.5338
 6888TIP3   OH242222   5.118   4.936   8.624 -0.7130 -0.2027  0.1516
 6888TIP3    H142223   5.139   4.998   8.555 -3.8414 -0.4142 -1.1608
 6888TIP3    H242224   5.178   4.862   8.609 -1.2502 -0.2048 -2.3190
 6889TIP3   OH242225   3.535   0.276   2.166 -0.3823  0.4936  0.7081
 6889TIP3    H142226   3.556   0.184   2.184 -1.4486 -0.0782 -0.7617
 6889TIP3    H242227   3.604   0.325   2.210  2.3818 -1.1435 -1.4214
 6890TIP3   OH242228   0.751   6.021   7.591 -0.0754 -0.1166 -0.6194
 6890TIP3    H142229   0.696   6.027   7.669 -1.8871 -0.7513 -1.7835
 6890TIP3    H242230   0.727   5.936   7.553  3.1656 -1.3740 -0.1689
 6891TIP3   OH242231   3.769   4.736   2.894 -0.1539  0.1255 -0.5143
 6891TIP3    H142232   3.851   4.739   2.944  0.3140  1.5024 -1.3135
 6891TIP3    H242233   3.706   4.694   2.953  1.3052 -1.7440 -0.1915
 6892TIP3   OH242234   4.713   4.524   1.899 -0.6159 -0.2794 -0.5207
 6892TIP3    H142235   4.683   4.463   1.833 -1.3191 -0.1617 -0.3170
 6892TIP3    H242236   4.698   4.479   1.982  1.0022 -0.7531 -0.4497
 6893TIP3   OH242237   2.192   5.667   0.891  0.4698  0.5348 -0.4767
 6893TIP3    H142238   2.238   5.625   0.964  1.8750  1.7837 -0.5896
 6893TIP3    H242239   2.143   5.738   0.932 -1.6198 -0.8694 -0.3356
 6894TIP3   OH242240   1.281   0.135   0.888  0.4614  0.1524 -0.0592
 6894TIP3    H142241   1.239   0.062   0.844  1.2198 -0.1324 -0.3207
 6894TIP3    H242242   1.246   0.133   0.978 -1.1901  0.8158 -0.6391
 6895TIP3   OH242243   3.559   3.948   1.472  0.4841  0.2925 -0.1655
 6895TIP3    H142244   3.465   3.958   1.453  0.5801  2.5904  0.3276
 6895TIP3    H242245   3.586   3.874   1.417 -1.5797 -0.3715 -0.3904
 6896TIP3   OH242246   1.425   0.333   2.910  0.0548 -0.0878 -0.2832
 6896TIP3    H142247   1.354   0.376   2.862  1.1826  1.3104 -0.7448
 6896TIP3    H242248   1.504   0.378   2.881  0.9380 -0.3348  1.6318
 6897TIP3   OH242249   2.115   4.188   0.132 -0.0482 -0.6708  0.4053
 6897TIP3    H142250   2.111   4.245   0.209 -2.3434 -0.1236 -0.0336
 6897TIP3    H242251   2.188   4.222   0.080 -0.1467  0.6477  1.0940
 6898TIP3   OH242252   0.431   1.485   1.491  0.3117  0.4214 -0.4902
 6898TIP3    H142253   0.490   1.553   1.459 -1.7682  2.2680 -0.6666
 6898TIP3    H242254   0.393   1.447   1.412  0.6321 -0.1778 -0.3598
 6899TIP3   OH242255   4.946   1.255   0.833  0.4697 -0.0666 -0.0518
 6899TIP3    H142256   5.024   1.199   0.838 -0.1068 -0.8746  0.2652
 6899TIP3    H242257   4.893   1.216   0.763 -0.3966 -0.5429  0.8393
 6900TIP3   OH242258   3.683   3.474   0.653  0.3872  0.1503  0.1937
 6900TIP3    H142259   3.687   3.431   0.738 -0.5857  1.8621  1.1354
 6900TIP3    H242260   3.739   3.420   0.597  2.0235 -0.3488  2.1938
 6901TIP3   OH242261   5.044   1.656   0.345 -0.1494  0.4175 -0.2683
 6901TIP3    H142262   5.007   1.742   0.365  0.8118  0.6882  0.4208
 6901TIP3    H242263   5.083   1.665   0.258 -0.1935  0.6318 -0.2657
 6902TIP3   OH242264   5.142   4.636   0.083  0.2349 -0.0040 -0.0379
 6902TIP3    H142265   5.187   4.667   0.004  0.1205 -1.4040 -0.6730
 6902TIP3    H242266   5.065   4.590   0.050 -1.1401  1.4379  0.9927
 6903TIP3   OH242267   0.624   2.012   2.518  0.3916  0.5113  0.0699
 6903TIP3    H142268   0.705   1.967   2.542  0.5417 -0.2449 -1.6711
 6903TIP3    H242269   0.566   1.942   2.488 -0.2437  1.2337 -0.4272
 6904TIP3   OH242270   0.751   1.731   0.957 -0.4563  0.3348 -0.0446
 6904TIP3    H142271   0.659   1.756   0.967 -0.7142 -0.0060 -1.3532
 6904TIP3    H242272   0.752   1.674   0.879  0.9356  0.7628 -0.3630
 6905TIP3   OH242273   3.784   1.444   7.805  0.0781  0.3138 -0.6123
 6905TIP3    H142274   3.864   1.496   7.818  0.5063  0.0094 -1.8361
 6905TIP3    H242275   3.814   1.368   7.755 -0.9564  0.0864 -0.8949
 6906TIP3   OH242276   2.812   6.599   0.644 -0.2426  0.0002  0.1377
 6906TIP3    H142277   2.848   6.576   0.730  0.5281 -2.4956 -0.7546
 6906TIP3    H242278   2.775   6.687   0.656 -0.7044 -0.4850  3.1720
 6907TIP3   OH242279   1.484   6.033   3.062  0.0521 -0.5705 -0.6508
 6907TIP3    H142280   1.451   6.062   3.147 -1.0780 -2.2953 -0.4516
 6907TIP3    H242281   1.432   6.083   2.998  0.3593  0.1508 -0.3524
 6908TIP3   OH242282   1.184   3.886   8.379  0.0912 -0.6397  0.2017
 6908TIP3    H142283   1.089   3.896   8.372  0.0329 -1.9640 -1.8064
 6908TIP3    H242284   1.199   3.791   8.378  1.4799 -0.4516 -0.9588
 6909TIP3   OH242285   6.682   3.035   7.628  0.3893 -0.2186  0.3070
 6909TIP3    H142286   6.764   3.086   7.624 -0.1278  0.5787 -1.5798
 6909TIP3    H242287   6.710   2.946   7.648  1.8675 -0.1463 -1.1631
 6910TIP3   OH242288   3.756   2.351   8.432  0.4038  0.0284  0.0946
 6910TIP3    H142289   3.786   2.333   8.521  1.2813 -1.5647 -0.4850
 6910TIP3    H242290   3.662   2.334   8.434 -0.1870  2.7920  1.3507
 6911TIP3   OH242291   6.641   1.773   1.602  0.5042 -0.3804 -0.3043
 6911TIP3    H142292   6.721   1.812   1.566 -0.1183 -0.1513 -1.4601
 6911TIP3    H242293   6.641   1.683   1.571 -0.0772 -0.1595 -0.9508
 6912TIP3   OH242294   5.392   1.784   7.376  0.2878  0.6498  0.1536
 6912TIP3    H142295   5.323   1.829   7.424  1.6029  0.1794  2.6803
 6912TIP3    H242296   5.416   1.844   7.305 -2.0526  1.1902 -0.2504
 6913TIP3   OH242297   1.881   5.361   7.711 -0.1767  0.1321 -0.0241
 6913TIP3    H142298   1.863   5.337   7.620 -1.0331  1.8249 -0.3360
 6913TIP3    H242299   1.903   5.278   7.754  0.8622 -0.6141 -1.8934
 6914TIP3   OH242300   0.569   1.845   2.846 -0.4617  0.0649  0.2516
 6914TIP3    H142301   0.589   1.760   2.806 -1.6159  0.2057 -0.6673
 6914TIP3    H242302   0.628   1.850   2.921  3.2191  0.6372 -2.4040
 6915TIP3   OH242303   3.686   5.302   0.814  0.5763  0.2386  0.1763
 6915TIP3    H142304   3.598   5.332   0.839  0.8961  1.4848 -0.1467
 6915TIP3    H242305   3.728   5.281   0.898  0.2274  0.3680  0.3883
 6916TIP3   OH242306   2.973   4.747   3.167  0.0102  0.3541 -0.0049
 6916TIP3    H142307   2.902   4.739   3.231 -0.1285  1.9286  0.0680
 6916TIP3    H242308   2.941   4.700   3.089 -0.4743 -0.2170  0.5339
 6917TIP3   OH242309   1.890   4.752   8.480 -0.3091  0.0189 -0.4785
 6917TIP3    H142310   1.795   4.743   8.487 -0.0982 -2.0756  0.8262
 6917TIP3    H242311   1.908   4.743   8.387 -1.3502 -0.2196 -0.6756
 6918TIP3   OH242312   4.494   0.053   2.763 -0.4656 -0.1394  0.1274
 6918TIP3    H142313   4.587   0.064   2.782 -0.3748  1.0936 -0.8738
 6918TIP3    H242314   4.461  -0.002   2.834  1.1584 -1.2002  0.1014
 6919TIP3   OH242315   1.788   6.494   8.540  0.4340  0.0161  0.0715
 6919TIP3    H142316   1.787   6.459   8.450  0.6213  1.0707 -0.3594
 6919TIP3    H242317   1.818   6.585   8.530  0.3607  0.1781  1.1942
 6920TIP3   OH242318   4.826   3.602   0.820 -0.1872 -0.2044  0.0454
 6920TIP3    H142319   4.910   3.608   0.865  0.5469 -4.3405 -0.3323
 6920TIP3    H242320   4.848   3.577   0.731 -1.8125  0.7686 -0.6789
 6921TIP3   OH242321   4.450   2.182   1.159  0.5549  0.1764 -0.1356
 6921TIP3    H142322   4.458   2.177   1.254 -1.7382 -1.2917  0.0550
 6921TIP3    H242323   4.396   2.260   1.144  0.9155  0.4068 -0.2493
 6922TIP3   OH242324   1.772   6.643   0.254 -0.1239 -0.6240  0.5808
 6922TIP3    H142325   1.757   6.552   0.278  1.4345 -0.6805  1.4782
 6922TIP3    H242326   1.776   6.690   0.337 -0.3251  0.1725  0.1532
 6923TIP3   OH242327   3.173   1.115   7.456 -0.0032  0.5319  0.6751
 6923TIP3    H142328   3.163   1.204   7.424 -0.1241  0.6019  0.9065
 6923TIP3    H242329   3.146   1.060   7.382  1.3017  0.6574  0.0798
 6924TIP3   OH242330   3.272   3.199   8.281  0.0817  0.1231 -0.5033
 6924TIP3    H142331   3.179   3.181   8.271 -0.3048  0.3320  2.1631
 6924TIP3    H242332   3.288   3.196   8.375  2.4879  1.5250 -0.7784
 6925TIP3   OH242333   2.350   0.540   1.371 -0.4465  0.3049 -0.1628
 6925TIP3    H142334   2.402   0.599   1.316  0.6228 -0.4942 -0.0427
 6925TIP3    H242335   2.389   0.454   1.358 -2.1252 -0.4444 -0.5045
 6926TIP3   OH242336   6.028   6.486   7.692  0.1317 -0.1191  0.0719
 6926TIP3    H142337   5.951   6.540   7.675 -0.1096 -0.0809  1.1800
 6926TIP3    H242338   6.081   6.537   7.753  0.0925 -0.9389  0.8253
 6927TIP3   OH242339   3.241   5.524   0.308  0.5720  0.6226  0.8002
 6927TIP3    H142340   3.163   5.580   0.296  1.0630  1.3252  0.8324
 6927TIP3    H242341   3.310   5.570   0.260  0.7940 -0.3896  0.1267
 6928TIP3   OH242342   0.195   0.679   1.369 -0.2821  0.2993  0.1038
 6928TIP3    H142343   0.174   0.586   1.364 -0.5437  0.3563  0.1306
 6928TIP3    H242344   0.165   0.706   1.456  0.4255  0.2540  0.3696
 6929TIP3   OH242345   6.435   3.177   6.826  0.4828 -0.6231 -0.2657
 6929TIP3    H142346   6.368   3.131   6.878 -0.0464 -0.3358 -0.6751
 6929TIP3    H242347   6.511   3.119   6.828  0.5990 -0.4623  1.1087
 6930TIP3   OH242348   4.555   3.652   0.284  0.3430 -0.2859  0.1017
 6930TIP3    H142349   4.590   3.731   0.243 -0.6723  0.0164 -0.2229
 6930TIP3    H242350   4.460   3.659   0.273 -0.3399  1.0699  4.6862
 6931TIP3   OH242351   6.728   2.684   1.347  0.0013 -0.6484  0.3918
 6931TIP3    H142352   6.695   2.598   1.371 -1.9006  0.0084  0.3119
 6931TIP3    H242353   6.656   2.744   1.368  1.3426  0.9537  0.6425
 6932TIP3   OH242354   0.885   2.954   7.867  0.4815  0.1872 -0.5511
 6932TIP3    H142355   0.865   3.003   7.787  0.1165  1.1006  0.0703
 6932TIP3    H242356   0.805   2.904   7.884  1.5430 -2.3039 -2.2888
 6933TIP3   OH242357   5.128   1.338   1.799 -0.3722  0.0673  0.0961
 6933TIP3    H142358   5.215   1.310   1.826  0.8588  0.2814 -3.1060
 6933TIP3    H242359   5.069   1.268   1.827  1.5845 -2.4656 -1.7012
 6934TIP3   OH242360   5.924   2.765   1.432  0.9650 -0.4610 -0.2387
 6934TIP3    H142361   5.927   2.820   1.510  0.4999 -0.6255 -0.0975
 6934TIP3    H242362   5.943   2.824   1.359 -3.9378  1.0627 -0.6824
 6935TIP3   OH242363   6.658   5.017   1.749  0.3316 -0.0225 -0.0759
 6935TIP3    H142364   6.672   5.017   1.654 -0.3294 -1.5844 -0.1961
 6935TIP3    H242365   6.745   5.031   1.787  0.3316  2.8219 -0.8877
 6936TIP3   OH242366   1.640   0.204   0.525 -0.2558  0.5539  0.4151
 6936TIP3    H142367   1.688   0.286   0.535 -0.9411  1.1272 -0.8003
 6936TIP3    H242368   1.593   0.193   0.607  1.4027  0.3084  1.3840
 6937TIP3   OH242369   2.627   3.693   1.657 -0.3358 -0.0640 -0.0546
 6937TIP3    H142370   2.614   3.603   1.686 -1.9286 -0.1664 -1.0403
 6937TIP3    H242371   2.563   3.707   1.588 -0.0989  1.8232  0.0432
 6938TIP3   OH242372   5.099   5.330   1.697 -0.5940 -0.7523  0.7607
 6938TIP3    H142373   5.017   5.367   1.666  0.3427 -0.2202 -1.2378
 6938TIP3    H242374   5.153   5.406   1.719 -0.2832 -1.0749  1.1275
 6939TIP3   OH242375   6.460   4.071   2.298  0.1324  0.4919  0.1925
 6939TIP3    H142376   6.397   4.118   2.352 -1.6676  0.0714 -1.4632
 6939TIP3    H242377   6.525   4.137   2.273 -1.2303  1.6466 -0.4194
 6940TIP3   OH242378   1.695   5.799   7.851 -0.4184 -0.1508  0.1910
 6940TIP3    H142379   1.644   5.798   7.932 -1.2095 -1.0202 -0.3005
 6940TIP3    H242380   1.652   5.866   7.798 -0.7396 -0.5205 -0.0217
 6941TIP3   OH242381   4.583   2.854   2.251  0.7135 -0.1855 -0.2016
 6941TIP3    H142382   4.667   2.862   2.295  0.6003  1.0586 -0.1789
 6941TIP3    H242383   4.588   2.771   2.203  1.4763 -0.7192  0.7738
 6942TIP3   OH242384   1.007   2.738   2.241  0.0778 -0.2007 -0.3056
 6942TIP3    H142385   1.005   2.706   2.331  2.6473 -1.8665 -0.7537
 6942TIP3    H242386   1.053   2.822   2.247 -1.7033  0.7910  0.1524
 6943TIP3   OH242387   0.129   5.112   1.853 -0.0894 -0.7622  0.4012
 6943TIP3    H142388   0.141   5.207   1.860  2.1236 -0.9278 -0.3283
 6943TIP3    H242389   0.207   5.082   1.806 -1.7919 -2.6882 -1.3904
 6944TIP3   OH242390   1.041   2.430   0.459  0.0345  0.6798 -0.2699
 6944TIP3    H142391   0.967   2.490   0.449  1.5088  2.6655  0.2390
 6944TIP3    H242392   1.059   2.399   0.370  0.3598  2.4292 -0.8482
 6945TIP3   OH242393   0.026   1.768   2.777 -0.5526 -0.2001 -0.2003
 6945TIP3    H142394   0.073   1.728   2.851  0.6383 -1.2456 -1.4617
 6945TIP3    H242395   0.094   1.811   2.726 -1.1904 -0.3770 -1.2333
 6946TIP3   OH242396   3.032   5.693   7.583  0.0519  0.0331 -0.5972
 6946TIP3    H142397   3.027   5.657   7.494 -1.3280 -0.9075 -0.1814
 6946TIP3    H242398   2.947   5.734   7.597  1.2263  2.6430 -0.6575
 6947TIP3   OH242399   3.608   2.820   1.032  0.0271  0.0438 -0.3647
 6947TIP3    H142400   3.544   2.781   1.091 -0.4765  0.7904 -0.4084
 6947TIP3    H242401   3.561   2.891   0.989  1.0908  1.0926  0.1486
 6948TIP3   OH242402   4.731   5.002   2.028 -0.6377  0.0348 -0.8318
 6948TIP3    H142403   4.816   5.001   2.073 -0.2375 -1.1648 -1.5681
 6948TIP3    H242404   4.683   4.929   2.065 -1.6502  1.1182  0.0751
 6949TIP3   OH242405   4.152   4.054   2.498  0.0487  0.3474 -0.2480
 6949TIP3    H142406   4.241   4.071   2.531  0.6006 -1.9006 -0.4509
 6949TIP3    H242407   4.164   3.995   2.424 -1.6678 -1.1538  0.5877
 6950TIP3   OH242408   0.551   3.092   8.674  0.2722  0.3944  0.2688
 6950TIP3    H142409   0.594   3.072   8.591  0.0731  0.4000  0.1652
 6950TIP3    H242410   0.583   3.179   8.698 -0.4959  0.8513 -0.3381
 6951TIP3   OH242411   6.450   1.371   7.375  0.1817 -0.1164 -0.4808
 6951TIP3    H142412   6.383   1.409   7.317 -0.6139  1.1130  1.1349
 6951TIP3    H242413   6.525   1.429   7.365 -0.2251  0.5596  0.2524
 6952TIP3   OH242414   5.499   6.500   8.446  0.3806  0.4084  0.3355
 6952TIP3    H142415   5.503   6.405   8.435  1.7784  0.4462  0.3447
 6952TIP3    H242416   5.489   6.512   8.541  1.7077  0.2843  0.4990
 6953TIP3   OH242417   1.451   5.792   0.300 -0.7120  0.0075 -0.4466
 6953TIP3    H142418   1.482   5.723   0.242 -0.6907  0.4817 -1.0098
 6953TIP3    H242419   1.425   5.746   0.380  0.5025 -0.5111 -0.3193
 6954TIP3   OH242420   2.395   3.136   8.033 -0.5076  0.2166  0.0038
 6954TIP3    H142421   2.344   3.178   8.103 -0.2377 -0.3723  0.5623
 6954TIP3    H242422   2.401   3.044   8.059 -0.3836 -0.0041 -0.7875
 6955TIP3   OH242423   6.057   5.373   0.413  0.0343  0.3542  0.4097
 6955TIP3    H142424   6.062   5.432   0.337 -1.3675  0.6226  0.4978
 6955TIP3    H242425   6.136   5.393   0.463  0.6325  0.6759 -0.6137
 6956TIP3   OH242426   6.636   2.048   7.575 -0.3506 -0.3048 -0.0217
 6956TIP3    H142427   6.622   2.100   7.655  3.9136 -0.3600  1.0089
 6956TIP3    H242428   6.654   1.960   7.608 -0.9318 -0.9087 -1.2761
 6957TIP3   OH242429   2.761   6.608   1.993 -0.9545 -0.1833  0.1427
 6957TIP3    H142430   2.791   6.576   2.079  1.8626 -1.1167 -1.0538
 6957TIP3    H242431   2.767   6.704   2.000  1.3399 -0.2842  0.4164
 6958TIP3   OH242432   3.612   5.154   2.366  0.4327 -0.8044 -0.1261
 6958TIP3    H142433   3.566   5.084   2.319  0.8852 -1.9685  1.0898
 6958TIP3    H242434   3.693   5.166   2.317  0.1677 -0.8288 -0.5820
 6959TIP3   OH242435   0.198   2.245   1.174 -0.5579 -0.1865  0.3252
 6959TIP3    H142436   0.192   2.311   1.106 -0.0279 -0.2077  0.2564
 6959TIP3    H242437   0.118   2.193   1.164 -0.4446 -0.2397 -0.3302
 6960TIP3   OH242438   5.225   2.433   8.574 -0.2265  0.5005  0.3154
 6960TIP3    H142439   5.241   2.501   8.509  0.1710  0.2907  0.1938
 6960TIP3    H242440   5.167   2.371   8.530 -0.6245  0.7762  0.4409
 6961TIP3   OH242441   5.047   3.015   0.483 -0.4085  0.0128 -0.0251
 6961TIP3    H142442   5.118   3.032   0.544  0.0173 -2.1365  0.1869
 6961TIP3    H242443   4.979   3.079   0.505  1.4673  2.2343 -0.3550
 6962TIP3   OH242444   4.379   0.434   2.330 -0.0188 -0.4777  0.0885
 6962TIP3    H142445   4.364   0.483   2.249  2.2577  0.6977  0.2997
 6962TIP3    H242446   4.376   0.342   2.304  0.0908 -0.1302 -1.2118
 6963TIP3   OH242447   3.682   6.826   0.525 -0.2968 -0.0377  0.3476
 6963TIP3    H142448   3.649   6.798   0.439 -0.4006  0.1745  0.3178
 6963TIP3    H242449   3.611   6.879   0.562 -0.6242 -0.8794  0.9613
 6964TIP3   OH242450   1.604   2.151   7.347  0.1284  0.3335 -0.0912
 6964TIP3    H142451   1.551   2.076   7.374  2.6283 -1.5136  0.1210
 6964TIP3    H242452   1.567   2.226   7.393 -2.6718 -0.6725 -0.5442
 6965TIP3   OH242453   6.232   6.581   1.992 -0.0531  0.0657  0.3188
 6965TIP3    H142454   6.206   6.513   1.930  2.3775 -1.4322  0.7726
 6965TIP3    H242455   6.180   6.563   2.070 -0.1775 -0.6725  0.0762
 6966TIP3   OH242456   5.066   0.048   8.503 -0.1992  0.2749 -0.1070
 6966TIP3    H142457   4.977   0.026   8.531 -1.2018  3.3810 -0.4729
 6966TIP3    H242458   5.060   0.060   8.409  1.0393 -1.0190 -0.3952
 6967TIP3   OH242459   6.056   2.472   0.572 -0.2518 -0.1946  0.0870
 6967TIP3    H142460   6.007   2.429   0.503  4.3634 -0.1218 -3.7832
 6967TIP3    H242461   6.106   2.401   0.614 -0.0043  0.2582  0.5772
 6968TIP3   OH242462   4.044   6.719   0.408  0.5252 -0.3673 -0.0713
 6968TIP3    H142463   4.006   6.806   0.395 -1.3133 -1.0334  0.5243
 6968TIP3    H242464   4.112   6.712   0.341 -1.3529  0.3813 -2.1739
 6969TIP3   OH242465   6.045   0.484   2.450  0.8922  0.7208 -0.1657
 6969TIP3    H142466   6.098   0.510   2.374  1.8064 -0.2847  0.1175
 6969TIP3    H242467   6.093   0.518   2.525 -0.0726  1.8163 -0.0185
 6970TIP3   OH242468   4.594   3.417   1.671 -0.0364 -0.1898 -0.0268
 6970TIP3    H142469   4.596   3.466   1.753 -0.4247 -0.4949  0.1695
 6970TIP3    H242470   4.602   3.483   1.602  0.5829  0.0413  0.2588
 6971TIP3   OH242471   1.948   1.258   2.748 -0.4870 -0.2123 -0.9347
 6971TIP3    H142472   1.894   1.335   2.728  1.6555  0.7674 -3.5705
 6971TIP3    H242473   1.934   1.199   2.674  0.1279 -1.0685 -0.3835
 6972TIP3   OH242474   3.970   2.059   7.574 -0.0194 -0.1478 -0.1339
 6972TIP3    H142475   3.939   2.149   7.560 -1.6460 -0.6156  0.1781
 6972TIP3    H242476   3.996   2.057   7.666  0.0239  0.0016 -0.1421
 6973TIP3   OH242477   5.075   3.923   1.240 -0.6646  0.3343 -0.0278
 6973TIP3    H142478   4.996   3.962   1.202 -0.6300 -1.3468 -1.9948
 6973TIP3    H242479   5.132   3.998   1.257 -1.4805  1.3544 -1.5149
 6974TIP3   OH242480   5.166   2.172   1.844 -0.2454  0.1845 -0.1156
 6974TIP3    H142481   5.247   2.223   1.839 -0.2277  0.1638 -0.0339
 6974TIP3    H242482   5.167   2.118   1.765 -0.8955  1.2640 -0.8938
 6975TIP3   OH242483   0.834   3.498   1.440  0.5824 -0.3336 -0.2378
 6975TIP3    H142484   0.875   3.500   1.526 -0.2626 -0.0819  0.1667
 6975TIP3    H242485   0.798   3.409   1.433  0.7956 -0.4073 -0.4018
 6976TIP3   OH242486   0.567   6.656   8.182  0.0296 -0.4625  0.1108
 6976TIP3    H142487   0.597   6.618   8.099 -2.0235 -0.2486 -0.8057
 6976TIP3    H242488   0.513   6.587   8.221 -2.4146  0.8056 -0.7973
 6977TIP3   OH242489   5.229   1.894   0.870  0.1315  0.2111  0.3212
 6977TIP3    H142490   5.153   1.837   0.859  0.4460 -0.2149  0.3518
 6977TIP3    H242491   5.281   1.852   0.939  1.0811 -0.2354 -0.6334
 6978TIP3   OH242492   0.443   3.358   2.378 -0.4338  0.6412 -0.0629
 6978TIP3    H142493   0.497   3.280   2.384  0.0471  0.7832 -1.8605
 6978TIP3    H242494   0.358   3.326   2.346 -0.8299  0.6564  0.9299
 6979TIP3   OH242495   1.665   4.010   1.170  0.8974  0.2748 -0.0830
 6979TIP3    H142496   1.591   3.975   1.121  0.4530  0.3825  0.4955
 6979TIP3    H242497   1.661   4.105   1.154  0.9214  0.2772 -0.0734
 6980TIP3   OH242498   2.271   0.493   7.866  0.1044 -0.4440  0.5892
 6980TIP3    H142499   2.289   0.538   7.783  0.4875 -0.5056  0.6356
 6980TIP3    H242500   2.354   0.497   7.913  0.2652 -1.5656  0.4192
 6981TIP3   OH242501   5.687   0.599   7.897 -0.4564 -0.3149  0.2460
 6981TIP3    H142502   5.779   0.587   7.877  0.2228  2.9064  0.8889
 6981TIP3    H242503   5.674   0.553   7.981  0.0644 -2.2176 -0.6606
 6982TIP3   OH242504   5.619   1.525   1.129 -0.2213 -0.6788  0.4494
 6982TIP3    H142505   5.667   1.570   1.060 -1.7749  0.3782 -0.0064
 6982TIP3    H242506   5.675   1.532   1.207  1.5818 -1.9486 -0.6584
 6983TIP3   OH242507   5.239   6.453   7.302  0.2807 -0.4072 -0.2875
 6983TIP3    H142508   5.173   6.512   7.267 -0.4238 -1.0671 -0.0913
 6983TIP3    H242509   5.322   6.491   7.273 -0.1457  0.7337 -0.0702
 6984TIP3   OH242510   3.380   2.976   0.228  0.0511 -0.1505 -0.3541
 6984TIP3    H142511   3.363   3.000   0.319  0.4063  3.4088 -1.0728
 6984TIP3    H242512   3.475   2.984   0.218 -0.0888  0.5818 -1.2707
 6985TIP3   OH242513   6.361   1.131   0.772 -0.4031 -0.0917 -0.2008
 6985TIP3    H142514   6.281   1.083   0.792 -0.6489  0.2561 -0.3436
 6985TIP3    H242515   6.432   1.071   0.797 -0.6982 -0.0577  0.7691
 6986TIP3   OH242516   3.555   1.717   0.587  0.2347  0.1210 -0.4481
 6986TIP3    H142517   3.553   1.654   0.514  0.7395  0.8665 -1.1308
 6986TIP3    H242518   3.474   1.701   0.635 -0.9611  0.7253 -2.1562
 6987TIP3   OH242519   6.545   5.126   7.759  0.0166  0.7387  0.2122
 6987TIP3    H142520   6.511   5.187   7.826  0.6520  0.9553  0.3438
 6987TIP3    H242521   6.603   5.068   7.808 -1.5093 -0.7767  0.3216
 6988TIP3   OH242522   5.947   4.936   8.103  0.0962  0.0443 -0.4490
 6988TIP3    H142523   5.969   4.954   8.012 -0.1771 -0.3920 -0.6086
 6988TIP3    H242524   6.018   4.976   8.154  1.2565 -1.3079 -0.9363
 6989TIP3   OH242525   5.794   2.451   8.130  0.1352 -0.4513  0.8534
 6989TIP3    H142526   5.767   2.492   8.212 -1.0992  0.3143  0.0935
 6989TIP3    H242527   5.722   2.393   8.106  0.7513 -1.1344  0.6090
 6990TIP3   OH242528   3.998   0.591   8.378 -0.6925 -0.6571  0.2241
 6990TIP3    H142529   4.064   0.525   8.396 -1.2950 -0.8119  2.0477
 6990TIP3    H242530   4.032   0.672   8.417 -1.2553 -0.5920  0.6092
 6991TIP3   OH242531   3.697   2.675   7.808  0.7244  0.9501 -0.1225
 6991TIP3    H142532   3.741   2.688   7.892  0.6957 -0.6678  0.1836
 6991TIP3    H242533   3.622   2.734   7.811 -0.5130 -0.5880  1.9524
 6992TIP3   OH242534   1.945   1.495   2.005 -0.3596  0.2282 -0.4354
 6992TIP3    H142535   1.992   1.579   2.010 -0.8611  0.4494  1.0851
 6992TIP3    H242536   1.906   1.484   2.091 -1.0700 -1.1489 -0.8979
 6993TIP3   OH242537   6.216   6.524   8.017 -0.3725 -0.5279 -0.3588
 6993TIP3    H142538   6.243   6.536   8.108 -0.7444  0.9207 -0.4070
 6993TIP3    H242539   6.121   6.535   8.019 -0.3764 -0.4384 -0.9210
 6994TIP3   OH242540   4.227   0.847   1.175 -0.5157 -0.0637  0.5298
 6994TIP3    H142541   4.245   0.835   1.268 -1.2844  0.4365  0.7490
 6994TIP3    H242542   4.175   0.770   1.151  0.3789 -0.6171  0.3054
 6995TIP3   OH242543   0.641   1.406   2.070  0.7766  0.1479  0.3568
 6995TIP3    H142544   0.594   1.437   1.993 -2.3736 -0.6674  1.8037
 6995TIP3    H242545   0.662   1.485   2.119 -0.3477  0.4693  0.3377
 6996TIP3   OH242546   1.628   0.442   1.601 -0.6753  0.6703 -0.3888
 6996TIP3    H142547   1.700   0.483   1.554  0.0240 -1.0279 -0.8867
 6996TIP3    H242548   1.596   0.374   1.541 -1.3360  0.0337  0.6512
 6997TIP3   OH242549   0.611   1.634   2.289 -0.2722 -0.2325 -0.2069
 6997TIP3    H142550   0.657   1.639   2.373 -1.2101 -1.3497  0.3963
 6997TIP3    H242551   0.569   1.548   2.289 -1.2107  0.1906 -1.3461
 6998TIP3   OH242552   1.620   4.079   0.030  0.2713 -0.5276  0.0331
 6998TIP3    H142553   1.710   4.096   0.058  0.6583  0.3583 -1.6454
 6998TIP3    H242554   1.593   4.003   0.082  1.5938 -0.1425  1.3476
 6999TIP3   OH242555   1.432   1.690   8.271  0.7682 -0.0180 -0.3340
 6999TIP3    H142556   1.475   1.670   8.354 -0.4920  1.3186  0.6942
 6999TIP3    H242557   1.411   1.784   8.277  0.0757 -0.0454 -1.8964
 7000TIP3   OH242558   1.752   1.357   7.653 -0.8746 -0.0401  0.6047
 7000TIP3    H142559   1.822   1.404   7.606 -0.1176 -0.0369  1.6860
 7000TIP3    H242560   1.680   1.353   7.591  0.3981 -0.8580 -0.8946
 7001TIP3   OH242561   6.657   1.859   8.538  0.0920 -0.2900  0.3424
 7001TIP3    H142562   6.690   1.899   8.457 -0.6348 -0.2215  0.0696
 7001TIP3    H242563   6.650   1.931   8.600 -0.7251 -0.0785  0.0110
 7002TIP3   OH242564   6.105   5.516   1.483  0.4026 -0.5085  0.0118
 7002TIP3    H142565   6.108   5.589   1.421  0.8208 -0.4799  0.0611
 7002TIP3    H242566   6.163   5.450   1.444 -0.8379 -1.2745 -0.5990
 7003TIP3   OH242567   2.974   1.893   0.605  0.2524 -0.7895  0.6336
 7003TIP3    H142568   2.927   1.814   0.577 -0.4699 -0.2632  0.3197
 7003TIP3    H242569   3.029   1.864   0.678 -0.1309 -1.5407  0.6360
 7004TIP3   OH242570   0.201   1.559   1.189 -0.4770  0.0018 -0.3161
 7004TIP3    H142571   0.189   1.465   1.197  2.2320 -0.4251 -0.2555
 7004TIP3    H242572   0.115   1.596   1.208 -1.1365 -2.3408  1.8865
 7005TIP3   OH242573   0.847   0.326   2.193 -0.5913  0.1598  0.1109
 7005TIP3    H142574   0.869   0.419   2.188 -2.0527  0.4842 -0.6819
 7005TIP3    H242575   0.923   0.281   2.157  0.3858  0.9873  1.0541
 7006TIP3   OH242576   2.823   1.094   2.569 -0.0780  0.1484  0.5421
 7006TIP3    H142577   2.813   1.113   2.662  0.1583 -2.2494  1.1201
 7006TIP3    H242578   2.912   1.060   2.561  0.5870  2.0368 -0.9443
 7007TIP3   OH242579   0.328   2.657   1.803  0.2696 -0.4823 -0.2689
 7007TIP3    H142580   0.365   2.601   1.872  3.6432 -0.5050 -1.9169
 7007TIP3    H242581   0.336   2.746   1.838 -0.6474 -0.6398  0.4103
 7008TIP3   OH242582   1.786   5.974   1.628  0.2295  0.9912  0.0470
 7008TIP3    H142583   1.704   6.024   1.627  0.7197  1.8839 -2.9745
 7008TIP3    H242584   1.763   5.893   1.676 -2.1691  1.5555  0.0073
 7009TIP3   OH242585   3.997   0.101   7.023 -0.0216  0.5072  0.0067
 7009TIP3    H142586   4.088   0.075   7.010  0.1275  1.5339 -1.1688
 7009TIP3    H242587   3.947   0.023   7.002  0.4663  0.7662 -2.4127
 7010TIP3   OH242588   5.855   0.762   8.116  0.0361  0.0568 -0.2608
 7010TIP3    H142589   5.769   0.802   8.108 -0.0440 -0.0425  0.1100
 7010TIP3    H242590   5.838   0.668   8.110 -0.2418 -0.1582  2.6535
 7011TIP3   OH242591   4.023   6.551   0.674  0.2621 -0.1324 -0.0659
 7011TIP3    H142592   4.103   6.601   0.692 -1.4522  2.5402  0.7242
 7011TIP3    H242593   4.028   6.529   0.581  1.6126  0.5342 -0.1745
 7012TIP3   OH242594   6.726   6.658   1.217  0.0646  0.4430  0.0957
 7012TIP3    H142595   6.711   6.746   1.253  1.3275  0.5042  0.5220
 7012TIP3    H242596   6.777   6.613   1.285 -0.0892 -0.4402 -0.3619
 7013TIP3   OH242597   2.705   2.605   8.155  0.1795  0.0776 -0.2797
 7013TIP3    H142598   2.748   2.522   8.136  2.0577  1.0553 -0.5845
 7013TIP3    H242599   2.641   2.615   8.085  0.5688 -0.6936 -0.7665
 7014TIP3   OH242600   5.271   4.901   2.497  0.3750 -0.3433  0.0609
 7014TIP3    H142601   5.250   4.978   2.549  2.5121  1.3715 -1.4273
 7014TIP3    H242602   5.190   4.880   2.451 -0.1430  1.3248  0.1556
 7015TIP3   OH242603   4.570   5.807   0.255  1.0390 -0.2593 -0.4101
 7015TIP3    H142604   4.619   5.801   0.173 -1.2683 -1.8553 -1.8266
 7015TIP3    H242605   4.603   5.735   0.308  1.5131 -0.1518 -0.5558
 7016TIP3   OH242606   4.555   2.296   2.543 -0.0341 -0.4959  0.1624
 7016TIP3    H142607   4.567   2.210   2.584 -0.8748 -1.4088 -1.3612
 7016TIP3    H242608   4.564   2.278   2.449 -1.3838  0.8579 -0.2601
 7017TIP3   OH242609   5.792   1.259   7.929  0.5359 -0.2198 -0.1321
 7017TIP3    H142610   5.772   1.342   7.885  1.2556  0.2848  0.4758
 7017TIP3    H242611   5.818   1.285   8.018  0.1102 -1.1487  0.2786
 7018TIP3   OH242612   6.502   6.216   6.901 -0.0266 -0.2844  0.2492
 7018TIP3    H142613   6.587   6.184   6.931  0.2619  0.2873  0.0665
 7018TIP3    H242614   6.439   6.156   6.939  0.4408 -0.5048  0.6918
 7019TIP3   OH242615   2.545   1.669   7.055  0.0237 -0.3610 -0.3829
 7019TIP3    H142616   2.556   1.733   7.125  0.4289  0.3910 -1.1205
 7019TIP3    H242617   2.459   1.689   7.016  0.5380  0.3182 -1.1885
 7020TIP3   OH242618   4.930   4.706   2.040 -0.0783 -0.2843 -0.2089
 7020TIP3    H142619   4.840   4.739   2.031 -0.1496 -0.1533  0.8224
 7020TIP3    H242620   4.954   4.677   1.952 -1.3428 -0.8379 -0.3954
 7021TIP3   OH242621   4.966   5.902   0.698 -0.5388 -0.2199  0.0987
 7021TIP3    H142622   4.874   5.878   0.707 -0.1033 -1.9342  0.3566
 7021TIP3    H242623   5.000   5.842   0.631  0.0066  1.5845 -1.3319
 7022TIP3   OH242624   6.834   2.895   0.826  0.4686  0.3138 -0.0411
 7022TIP3    H142625   6.850   2.989   0.828 -0.0726  0.4361 -0.9442
 7022TIP3    H242626   6.804   2.874   0.915 -0.2567  1.1546 -0.0782
 7023TIP3   OH242627   4.114   1.093   8.013 -0.4154  0.0928  0.2886
 7023TIP3    H142628   4.088   1.009   8.051 -0.6511 -0.8881 -1.8825
 7023TIP3    H242629   4.060   1.158   8.058 -2.3369 -1.2519  0.0493
 7024TIP3   OH242630   1.069   1.824   8.566 -0.5844 -0.2299 -0.1034
 7024TIP3    H142631   1.079   1.741   8.518 -0.1703 -0.3491  0.1771
 7024TIP3    H242632   1.158   1.845   8.595 -0.9011 -0.4906  1.1489
 7025TIP3   OH242633   5.234   6.731   8.686 -0.0632  0.7696 -0.5447
 7025TIP3    H142634   5.176   6.798   8.650  0.5103  2.4190  1.4236
 7025TIP3    H242635   5.246   6.756   8.778  2.6035 -0.2948 -0.5157
 7026TIP3   OH242636   4.807   6.294   1.172 -0.8807  0.3359 -0.6272
 7026TIP3    H142637   4.790   6.307   1.079 -0.3453 -1.2251 -0.9758
 7026TIP3    H242638   4.763   6.212   1.193  1.0428 -0.6366 -0.1247
 7027TIP3   OH242639   0.209   4.277   2.063  0.0197  0.6186 -0.0350
 7027TIP3    H142640   0.189   4.297   2.155  0.9123  0.2016  0.2669
 7027TIP3    H242641   0.145   4.327   2.013 -1.0439  0.1892  0.8399
 7028TIP3   OH242642   0.782   1.506   0.779 -0.4595 -0.0334  0.5016
 7028TIP3    H142643   0.721   1.435   0.798 -0.3673 -0.8275 -1.8277
 7028TIP3    H242644   0.785   1.509   0.683  2.1807  0.8349  0.5515
 7029TIP3   OH242645   6.666   2.944   0.478  0.2462  0.1841  0.4443
 7029TIP3    H142646   6.648   2.863   0.527  2.6337 -1.5458 -1.2820
 7029TIP3    H242647   6.648   2.922   0.387  1.6814  1.3124 -0.1599
 7030TIP3   OH242648   4.490   3.806   8.619  0.0144 -0.4732 -0.3045
 7030TIP3    H142649   4.579   3.772   8.630  0.3275  0.7547  1.4344
 7030TIP3    H242650   4.436   3.750   8.675 -0.2674 -0.9699 -1.0539
 7031TIP3   OH242651   5.272   0.757   8.233  0.3070  0.4965 -0.0416
 7031TIP3    H142652   5.239   0.836   8.276  0.6579  0.0043  1.1749
 7031TIP3    H242653   5.367   0.761   8.243  0.2682 -0.6576  1.1472
 7032TIP3   OH242654   1.669   6.629   7.845  0.0603  0.4769  0.6830
 7032TIP3    H142655   1.619   6.562   7.799 -1.5768  1.0239  1.6038
 7032TIP3    H242656   1.604   6.693   7.874  1.4739  2.0294  0.5960
 7033TIP3   OH242657   5.357   6.621   1.980  0.7392  0.2692 -0.3606
 7033TIP3    H142658   5.341   6.712   2.004  0.6900  0.2648 -0.3755
 7033TIP3    H242659   5.452   6.612   1.976  0.8820 -0.2996  2.1114
 7034TIP3   OH242660   6.736   0.606   7.362  0.0441 -0.8310 -0.5655
 7034TIP3    H142661   6.774   0.521   7.386 -0.6404 -1.5411 -1.8617
 7034TIP3    H242662   6.748   0.611   7.267  1.1043  1.0672 -0.3741
 7035TIP3   OH242663   1.642   5.401   0.020 -0.4898  0.0856  0.1707
 7035TIP3    H142664   1.652   5.483  -0.028 -0.8368  0.2766  0.4197
 7035TIP3    H242665   1.693   5.337  -0.030 -0.5344  0.3657 -0.2364
 7036TIP3   OH242666   6.201   5.319   2.811 -0.1070  0.5051 -0.3195
 7036TIP3    H142667   6.222   5.374   2.735  2.8054  0.3085  0.2273
 7036TIP3    H242668   6.277   5.261   2.820 -2.5155 -2.9474 -0.2123
 7037TIP3   OH242669   5.354   3.865   7.045  0.2024 -0.4369  0.7055
 7037TIP3    H142670   5.419   3.907   6.989  0.5858 -2.0850 -0.1353
 7037TIP3    H242671   5.365   3.908   7.130  0.8355  0.8594 -0.0030
 7038TIP3   OH242672   4.862   3.258   0.068 -0.1303 -0.1837  0.4871
 7038TIP3    H142673   4.844   3.202  -0.008 -0.0108  1.2878 -0.6681
 7038TIP3    H242674   4.791   3.322   0.068 -0.5425 -0.5955  2.0854
 7039TIP3   OH242675   0.105   0.809   0.713 -0.5638 -0.3693 -0.1563
 7039TIP3    H142676   0.081   0.869   0.783  2.6232 -0.2212  0.9919
 7039TIP3    H242677   0.200   0.819   0.705 -0.3516 -2.9685 -2.0959
 7040TIP3   OH242678   0.295   0.248   2.052  0.2282 -0.0529  0.2202
 7040TIP3    H142679   0.360   0.191   2.092  0.6617  0.1223 -0.2210
 7040TIP3    H242680   0.211   0.203   2.066  0.2201  0.5407  2.2600
 7041TIP3   OH242681   2.255   1.534   1.052  0.2834  0.1598 -0.1469
 7041TIP3    H142682   2.261   1.542   1.147  1.3354 -0.7059 -0.1220
 7041TIP3    H242683   2.341   1.563   1.020  0.6715 -1.4661 -0.6719
 7042TIP3   OH242684   1.991   6.019   0.985 -0.3427  0.4780  0.6501
 7042TIP3    H142685   2.053   6.088   1.008 -0.7114  1.2353 -0.5726
 7042TIP3    H242686   1.914   6.037   1.038  0.2855 -0.2351  1.8776
 7043TIP3   OH242687   6.460   2.620   0.116  0.2390  0.1933 -0.4719
 7043TIP3    H142688   6.373   2.647   0.089  0.8590  0.9722 -1.7930
 7043TIP3    H242689   6.477   2.668   0.197  0.7563  2.8083 -2.0145
 7044TIP3   OH242690   0.581   2.664   2.761 -0.3109  0.0462  0.2665
 7044TIP3    H142691   0.650   2.725   2.736  0.2447 -1.0244 -0.9182
 7044TIP3    H242692   0.530   2.651   2.681 -1.1401 -0.1300  0.8117
 7045TIP3   OH242693   0.396   1.903   1.365 -0.1157 -0.7214 -0.2024
 7045TIP3    H142694   0.402   1.888   1.271  2.1615  0.9253 -0.4130
 7045TIP3    H242695   0.471   1.855   1.401  1.4165  1.7524  0.2017
 7046TIP3   OH242696   3.545   0.112   7.318 -0.3002 -0.3304  0.3154
 7046TIP3    H142697   3.548   0.029   7.271 -2.7862 -0.9604  1.1332
 7046TIP3    H242698   3.465   0.107   7.371  0.1255  2.0946  1.3168
 7047TIP3   OH242699   5.784   2.633   2.401 -0.0616  0.7984  0.4705
 7047TIP3    H142700   5.803   2.579   2.478 -1.8058 -0.3698  0.1471
 7047TIP3    H242701   5.845   2.706   2.407  1.1538 -0.2734  1.9138
 7048TIP3   OH242702   1.794   2.685   1.033 -0.0704  0.6432  0.1387
 7048TIP3    H142703   1.773   2.681   1.126 -0.7016  0.4110 -0.0100
 7048TIP3    H242704   1.755   2.606   0.996  3.4520 -1.3607  0.2927
 7049TIP3   OH242705   4.336   4.537   1.037  0.3981 -0.2877 -0.0695
 7049TIP3    H142706   4.243   4.533   1.061  0.5318 -1.5175  0.2941
 7049TIP3    H242707   4.362   4.446   1.027  1.9415 -0.0250  1.2489
 7050TIP3   OH242708   2.255   6.246   2.205  0.1958 -0.1432 -0.2279
 7050TIP3    H142709   2.173   6.285   2.173  1.4650  1.3454 -1.8475
 7050TIP3    H242710   2.278   6.300   2.281 -0.1107 -0.3035 -0.0191
 7051TIP3   OH242711   2.264   3.674   7.575 -0.9021  0.2559 -0.0214
 7051TIP3    H142712   2.338   3.617   7.592 -1.4981 -0.8255 -0.9368
 7051TIP3    H242713   2.300   3.745   7.521 -0.9891 -1.6875 -2.8275
 7052TIP3   OH242714   3.178   6.404   1.686  0.1329  0.3104 -0.2900
 7052TIP3    H142715   3.122   6.481   1.699 -0.8547  0.3292 -3.6261
 7052TIP3    H242716   3.146   6.340   1.750 -0.8345  1.7473  0.7352
 7053TIP3   OH242717   1.000   3.282   2.383  0.1556 -0.4295  0.0117
 7053TIP3    H142718   1.052   3.323   2.453 -0.5502 -1.0365  0.9101
 7053TIP3    H242719   1.039   3.196   2.371  0.0157 -0.4829 -0.0600
 7054TIP3   OH242720   6.049   5.292   0.053 -0.1399 -0.1552 -0.0940
 7054TIP3    H142721   6.138   5.303   0.086  0.8051 -0.4101 -2.3426
 7054TIP3    H242722   6.059   5.234  -0.023 -2.0996  0.5116 -0.9259
 7055TIP3   OH242723   1.403   6.684   0.614  0.6021  0.1291  0.0270
 7055TIP3    H142724   1.406   6.749   0.544  1.4684  0.0314 -0.0374
 7055TIP3    H242725   1.317   6.694   0.653 -0.4101 -0.6645 -1.8631
 7056TIP3   OH242726   2.556   0.444   0.143  0.2295 -0.5791 -0.6035
 7056TIP3    H142727   2.641   0.486   0.143  0.0262 -0.0208  1.9785
 7056TIP3    H242728   2.554   0.392   0.224 -2.0548 -0.1541 -0.3107
 7057TIP3   OH242729   5.498   4.276   1.963 -0.0738  0.0051 -0.4662
 7057TIP3    H142730   5.592   4.292   1.972 -0.1342 -0.4697  1.2776
 7057TIP3    H242731   5.493   4.210   1.893  0.8531  0.2247 -0.7678
 7058TIP3   OH242732   0.987   4.327   1.584 -0.1778 -0.5095  0.4418
 7058TIP3    H142733   1.077   4.347   1.557 -0.5361  1.6728  0.6653
 7058TIP3    H242734   0.947   4.288   1.506  0.6893 -0.6471  0.0459
 7059TIP3   OH242735   2.878   1.383   2.027 -0.8360  0.6750  0.3771
 7059TIP3    H142736   2.905   1.307   2.078 -1.5531  0.3829  0.3265
 7059TIP3    H242737   2.923   1.373   1.943 -0.6119  0.5230  0.5142
 7060TIP3   OH242738   2.736   2.354   0.648  0.5237 -0.5194 -0.1023
 7060TIP3    H142739   2.668   2.419   0.629  1.3412  0.4739  0.2715
 7060TIP3    H242740   2.705   2.310   0.726  0.5873  0.3533  0.4301
 7061TIP3   OH242741   3.771   1.279   1.875 -0.5169 -0.5920  0.1854
 7061TIP3    H142742   3.678   1.270   1.855 -0.9345  1.2589  1.0823
 7061TIP3    H242743   3.788   1.208   1.937 -1.4698 -0.6386  0.4147
 7062TIP3   OH242744   5.310   0.046   7.600 -0.9340 -0.1826  0.2756
 7062TIP3    H142745   5.256   0.083   7.670 -0.0084  1.8693 -0.0184
 7062TIP3    H242746   5.276   0.086   7.520 -0.7203 -0.9897 -0.2286
 7063TIP3   OH242747   6.158   0.573   2.676 -0.3671  0.0506 -0.4673
 7063TIP3    H142748   6.175   0.504   2.740 -0.3596  1.1152  0.7171
 7063TIP3    H242749   6.244   0.610   2.658 -0.5136  0.5220 -0.1994
 7064LIG     O142750   4.123   0.634   6.362  0.1013  0.2402 -0.0400
 7064LIG     O242751   4.107   1.028   6.119  0.1759 -0.1463 -0.4907
 7064LIG     N142752   4.069   0.835   6.013  0.1612  0.4497  0.1184
 7064LIG     N242753   4.036   0.496   6.108  0.2346 -0.2648 -0.3877
 7064LIG     N342754   4.109   0.837   6.248 -0.6457  0.8008  0.2366
 7064LIG     N442755   4.019   0.613   5.917  0.5251  0.2917 -0.4063
 7064LIG     C142756   4.061   0.625   6.142  0.6584 -0.2238 -0.1911
 7064LIG     C242757   4.056   0.695   6.019 -0.6002 -0.0712  0.4389
 7064LIG     C342758   4.096   0.693   6.258 -0.0098  0.1917  0.0237
 7064LIG     C442759   4.097   0.908   6.124  0.1842  0.1670  0.2785
 7064LIG     C542760   4.004   0.493   5.973 -0.0002  1.0910  0.0990
 7064LIG     C642761   4.060   0.910   5.892 -0.1080 -0.3408  0.6104
 7064LIG     C742762   4.043   0.388   6.208  0.1819 -0.3181  0.3097
 7064LIG     C842763   4.134   0.902   6.376  0.6872 -0.6784 -1.0071
 7064LIG     H142764   3.966   0.402   5.926 -0.2622  2.0899 -1.6872
 7064LIG     H242765   4.155   0.920   5.836 -0.4187 -1.3497 -0.1154
 7064LIG     H342766   4.017   1.012   5.899 -0.3087 -0.3692 -0.2325
 7064LIG     H442767   3.990   0.860   5.822  0.9563 -0.6000 -0.3070
 7064LIG     H542768   4.010   0.288   6.170  0.0717 -0.4352  0.7089
 7064LIG     H642769   3.982   0.408   6.299  1.1401 -2.2072  1.4291
 7064LIG     H742770   4.148   0.386   6.243  0.3654 -0.3955 -0.2301
 7064LIG     H842771   4.047   0.908   6.444 -0.2631  1.1682 -2.3091
 7064LIG     H942772   4.175   1.005   6.380  0.2937 -0.5192 -1.1175
 7064LIG    H1042773   4.213   0.844   6.430 -1.3221  0.4243  3.5608
   6.84503   6.84503   8.72580
