Title
42782
    1SAPS     N    1   6.617   6.721   6.859  0.1575 -0.4046  0.2131
    1SAPS   HN1    2   6.695   6.658   6.832 -0.3749 -0.7927 -0.4615
    1SAPS   HN2    3   6.539   6.669   6.904  1.1577 -1.8162  0.3795
    1SAPS   HN3    4   6.571   6.762   6.775 -0.3592 -2.6773 -0.6907
    1SAPS   C12    5   6.664   6.841   6.932 -0.8782  0.6188 -0.2967
    1SAPS  H12A    6   6.581   6.910   6.930 -2.3328 -1.0551 -0.6610
    1SAPS   C13    7   6.703   6.804   7.080  0.1064  0.0289  0.6233
    1SAPS  O13A    8   6.726   6.682   7.112 -0.5352  0.5250 -0.3053
    1SAPS  O13B    9   6.731   6.897   7.160  0.3770 -0.4935 -0.6954
    1SAPS   C11   10   6.779   6.914   6.853 -0.1963  0.6298 -0.5881
    1SAPS  H11A   11   6.822   6.995   6.915 -0.9458  0.4174  0.2258
    1SAPS  H11B   12   6.730   6.950   6.760 -0.0280 -0.1741 -1.0016
    1SAPS     P   13   7.016   6.871   6.765  0.2389 -0.7163 -0.4780
    1SAPS   O13   14   7.048   7.000   6.831 -0.2452  0.3329 -0.3418
    1SAPS   O14   15   7.122   6.767   6.776  0.2968  0.3034 -0.8405
    1SAPS   O12   16   6.879   6.817   6.823  0.0294  0.4616  0.1179
    1SAPS   O11   17   6.994   6.906   6.613 -0.0430 -0.0654 -0.3931
    1SAPS    C1   18   6.921   6.825   6.521 -0.4158 -0.0319  0.2505
    1SAPS    HA   19   6.903   6.717   6.542 -0.0469 -0.6251 -2.0834
    1SAPS    HB   20   6.819   6.863   6.503 -0.4364 -0.4105 -0.5121
    1SAPS    C2   21   7.001   6.830   6.386  0.3777 -0.4456 -0.2312
    1SAPS    HS   22   6.955   6.754   6.319 -4.4536  2.0245 -0.1900
    1SAPS   O21   23   7.143   6.803   6.414  0.9010 -0.1616  0.3090
    1SAPS   C21   24   7.166   6.681   6.445  0.1614  0.1525 -0.2714
    1SAPS   O22   25   7.088   6.587   6.440 -0.2805  0.4984 -0.9389
    1SAPS   C22   26   7.318   6.668   6.480  0.1136 -0.3032 -0.0103
    1SAPS   H2R   27   7.376   6.741   6.421 -1.1958 -0.7634 -1.9581
    1SAPS   H2S   28   7.326   6.697   6.588 -0.7926 -0.4629  0.1100
    1SAPS    C3   29   7.001   6.975   6.323 -0.1365 -0.0292  0.7274
    1SAPS    HX   30   7.043   7.051   6.393  2.3300  0.6639 -1.3179
    1SAPS    HY   31   6.892   6.989   6.314  0.2601  1.9532 -2.5269
    1SAPS   O31   32   7.067   6.973   6.195 -0.5923 -0.1878 -0.2469
    1SAPS   C31   33   7.143   7.075   6.169 -0.2901 -0.3761 -0.0453
    1SAPS   O32   34   7.155   7.177   6.236  0.1882 -0.0172 -0.2958
    1SAPS   C32   35   7.216   7.050   6.033 -0.2568 -0.1314  0.3804
    1SAPS   H2X   36   7.149   7.028   5.947 -0.8815  1.1088  0.5245
    1SAPS   H2Y   37   7.277   6.957   6.046  0.2418 -0.0028 -0.9641
    1SAPS   C23   38   7.385   6.533   6.476  0.5200 -0.2504 -0.2355
    1SAPS   H3R   39   7.348   6.465   6.556  0.1330 -0.7977 -0.8685
    1SAPS   H3S   40   7.490   6.544   6.512  1.0616 -0.9538 -1.5115
    1SAPS   C24   41   7.374   6.464   6.335 -0.9574 -0.5505  0.3782
    1SAPS   H4R   42   7.269   6.429   6.319 -0.8110 -1.2144  0.8016
    1SAPS   H4S   43   7.440   6.375   6.348 -0.1909 -0.5944 -2.8162
    1SAPS   C25   44   7.437   6.544   6.225 -0.1161  0.1200 -0.2232
    1SAPS   H5R   45   7.413   6.651   6.223  0.8683  0.3602 -2.5606
    1SAPS   C26   46   7.528   6.496   6.135  0.8346  0.5139 -1.0572
    1SAPS   H6R   47   7.573   6.563   6.060  0.0509  0.1062 -1.9283
    1SAPS   C27   48   7.585   6.357   6.116 -0.4336  0.6444  0.7423
    1SAPS   H7R   49   7.641   6.332   6.208 -0.4854 -0.6072  0.4475
    1SAPS   H7S   50   7.660   6.363   6.035 -1.4701  0.2995 -0.2800
    1SAPS   C28   51   7.485   6.252   6.088  0.3045 -0.0535  0.1292
    1SAPS   H8R   52   7.418   6.227   6.173  2.3813 -1.5612  1.4301
    1SAPS   C29   53   7.453   6.205   5.967  0.5775 -0.0078  0.1345
    1SAPS   H9R   54   7.362   6.142   5.961 -0.5340  1.4555  0.9094
    1SAPS  C210   55   7.505   6.234   5.835  0.2819  0.2768  0.0552
    1SAPS  H10R   56   7.450   6.164   5.768 -0.8965  2.0369 -0.9045
    1SAPS  H10S   57   7.610   6.200   5.823 -0.1793 -1.5801  0.9827
    1SAPS  C211   58   7.500   6.370   5.767 -0.2899 -0.0234 -0.4437
    1SAPS  H11R   59   7.555   6.449   5.821  2.0401 -1.5715 -0.4444
    1SAPS  C212   60   7.443   6.394   5.646 -0.3496  0.2697 -0.3531
    1SAPS  H12R   61   7.450   6.490   5.593  1.2736 -0.9177 -2.4401
    1SAPS  C213   62   7.379   6.285   5.556 -0.5295  0.5838 -0.3226
    1SAPS  H13R   63   7.323   6.208   5.613 -0.4415  0.6668 -0.1221
    1SAPS  H13S   64   7.465   6.223   5.524 -0.5392 -0.2279  1.1375
    1SAPS  C214   65   7.306   6.319   5.428 -0.2420 -0.0067 -0.4001
    1SAPS  H14R   66   7.210   6.371   5.435 -1.2970 -1.5854 -2.1173
    1SAPS  C215   67   7.336   6.294   5.302  0.1250 -0.4375  0.7520
    1SAPS  H15R   68   7.278   6.341   5.222  0.4687 -2.6249 -0.8720
    1SAPS  C216   69   7.463   6.238   5.254  0.0172 -0.5359  0.5421
    1SAPS  H16R   70   7.470   6.127   5.255  2.3448 -0.4591 -1.0961
    1SAPS  H16S   71   7.548   6.272   5.316  0.3964 -0.3696 -0.0683
    1SAPS  C217   72   7.497   6.293   5.114  0.0087 -0.5401 -0.4873
    1SAPS  H17R   73   7.601   6.262   5.089 -1.0332 -2.3167 -3.0567
    1SAPS  H17S   74   7.513   6.403   5.116  1.7467 -0.7189 -1.8401
    1SAPS  C218   75   7.406   6.248   5.002  0.4332  0.6969  0.2512
    1SAPS  H18R   76   7.301   6.283   5.006  0.4453  1.1195 -1.8929
    1SAPS  H18S   77   7.410   6.137   4.996  2.6475  0.8059 -2.0820
    1SAPS  C219   78   7.466   6.295   4.867 -0.0868 -0.2086 -0.3252
    1SAPS  H19R   79   7.409   6.237   4.792 -1.9954 -0.4679  1.2313
    1SAPS  H19S   80   7.575   6.273   4.860 -0.0969 -0.7631  0.9508
    1SAPS  C220   81   7.445   6.444   4.841  0.2268 -0.1289  0.2389
    1SAPS  H20R   82   7.341   6.473   4.818 -0.6141 -2.5838  0.5909
    1SAPS  H20S   83   7.493   6.481   4.748 -0.6066  1.1289  0.2942
    1SAPS  H20T   84   7.485   6.513   4.919  0.7991 -0.4460  0.2372
    1SAPS   C33   85   7.303   7.173   5.996  0.0847  0.3211  0.7065
    1SAPS   H3X   86   7.372   7.183   6.083 -0.2314 -0.7766  1.0891
    1SAPS   H3Y   87   7.234   7.260   5.990  1.6889  1.5370 -1.5327
    1SAPS   C34   88   7.381   7.164   5.867  0.6191 -0.2166  0.3700
    1SAPS   H4X   89   7.464   7.093   5.887  0.5484  0.0995  1.8858
    1SAPS   H4Y   90   7.429   7.263   5.857 -2.9296  1.6846  0.5143
    1SAPS   C35   91   7.297   7.133   5.738  0.6990 -0.6864 -0.3344
    1SAPS   H5X   92   7.194   7.175   5.735  0.5356 -1.1054 -2.2751
    1SAPS   H5Y   93   7.293   7.023   5.755  1.9182 -0.6541  0.1983
    1SAPS   C36   94   7.367   7.181   5.612  0.1431  0.0544  0.0928
    1SAPS   H6X   95   7.473   7.151   5.627 -0.0635  0.7038  3.7076
    1SAPS   H6Y   96   7.373   7.292   5.606  0.3520  0.0529  0.2627
    1SAPS   C37   97   7.304   7.121   5.485  0.5349 -0.1428 -0.2104
    1SAPS   H7X   98   7.195   7.109   5.503  0.8631 -0.1358  1.9515
    1SAPS   H7Y   99   7.353   7.024   5.465 -0.5922 -1.3677  2.5115
    1SAPS   C38  100   7.313   7.215   5.361  0.0972  0.0448 -0.4907
    1SAPS   H8X  101   7.418   7.250   5.347 -0.3457  0.8780 -1.8917
    1SAPS   H8Y  102   7.250   7.305   5.374  1.6796  1.1579 -0.2566
    1SAPS   C39  103   7.284   7.148   5.229  0.1392 -0.5270  0.4266
    1SAPS   H9X  104   7.365   7.080   5.196  0.0629 -1.5393  2.2259
    1SAPS   H9Y  105   7.269   7.230   5.155  2.2203  0.7425  1.3269
    1SAPS  C310  106   7.157   7.061   5.229 -0.1477  0.0827  0.3681
    1SAPS  H10X  107   7.158   6.983   5.308  0.5332 -0.9600 -0.6334
    1SAPS  H10Y  108   7.155   7.006   5.133  0.5100  1.5876 -0.5426
    1SAPS  C311  109   7.024   7.142   5.236  0.4983  0.4463  0.4740
    1SAPS  H11X  110   7.033   7.235   5.296 -0.6453  1.7404 -1.2346
    1SAPS  H11Y  111   6.948   7.079   5.287 -2.0571  0.9649 -2.3804
    1SAPS  C312  112   6.969   7.197   5.109 -0.3219 -0.4442 -0.2333
    1SAPS  H12X  113   6.900   7.128   5.055 -1.2827  0.2274  0.1030
    1SAPS  H12Y  114   7.049   7.206   5.033 -1.0083 -1.2108 -1.0826
    1SAPS  C313  115   6.880   7.330   5.132 -0.4405 -0.1969 -0.3653
    1SAPS  H13X  116   6.810   7.322   5.218 -2.2209 -3.1074 -1.9307
    1SAPS  H13Y  117   6.812   7.343   5.045 -0.7771 -2.7144 -0.5544
    1SAPS  C314  118   6.967   7.455   5.130 -0.1467 -0.1829 -0.1138
    1SAPS  H14X  119   7.026   7.467   5.036  0.3496 -0.4836  0.1589
    1SAPS  H14Y  120   7.047   7.455   5.207  0.9626  2.2969 -1.1174
    1SAPS  C315  121   6.889   7.585   5.169 -0.6027 -0.2087  1.0604
    1SAPS  H15X  122   6.827   7.563   5.258  0.4967 -1.0087  1.6538
    1SAPS  H15Y  123   6.817   7.594   5.085  0.4313 -2.5232 -0.1800
    1SAPS  C316  124   6.984   7.704   5.195  0.1477 -0.7094 -0.4173
    1SAPS  H16X  125   7.020   7.742   5.097  1.1176  2.6962  1.1271
    1SAPS  H16Y  126   7.071   7.680   5.259  0.9880  1.1140 -0.8255
    1SAPS  C317  127   6.911   7.816   5.271  0.1575 -0.0643 -0.1941
    1SAPS  H17X  128   6.820   7.840   5.211 -0.2907 -2.5276 -0.6366
    1SAPS  H17Y  129   6.981   7.901   5.277  1.3944 -0.9429 -1.4479
    1SAPS  C318  130   6.878   7.786   5.418  0.3396  0.2856 -0.2668
    1SAPS  H18X  131   6.795   7.712   5.426 -0.5845  1.2659 -0.5479
    1SAPS  H18Y  132   6.850   7.875   5.478  0.7551  1.0624 -1.2088
    1SAPS  H18Z  133   6.966   7.742   5.469  0.5303 -0.1600 -0.9668
    2SAPS     N  134   2.449   1.486   6.515 -0.8361 -1.2081  0.4992
    2SAPS   HN1  135   2.425   1.584   6.488 -1.2987 -2.3154 -3.8294
    2SAPS   HN2  136   2.423   1.474   6.615 -1.1316 -0.2642  0.5411
    2SAPS   HN3  137   2.548   1.457   6.502 -1.4987 -2.8329 -1.2740
    2SAPS   C12  138   2.385   1.392   6.420  0.5469 -0.4845 -0.1730
    2SAPS  H12A  139   2.433   1.418   6.327  3.4021  0.2743  1.4180
    2SAPS   C13  140   2.400   1.239   6.467  0.5352 -0.2287 -0.0510
    2SAPS  O13A  141   2.466   1.226   6.576 -0.3725 -0.0853  0.1141
    2SAPS  O13B  142   2.402   1.161   6.369 -0.3778  0.1779  0.2096
    2SAPS   C11  143   2.231   1.426   6.421  0.4323 -0.3070  0.0598
    2SAPS  H11A  144   2.178   1.428   6.519 -1.7438 -1.2667 -1.0213
    2SAPS  H11B  145   2.191   1.345   6.356  0.5744  2.0252 -3.1690
    2SAPS     P  146   2.046   1.603   6.343  0.0834 -0.1708 -0.3966
    2SAPS   O13  147   1.958   1.494   6.291  0.1154  0.0416 -0.1240
    2SAPS   O14  148   2.007   1.649   6.479  0.4627 -0.3841 -0.2062
    2SAPS   O12  149   2.194   1.544   6.342  0.5354  0.1657 -0.5268
    2SAPS   O11  150   2.039   1.733   6.238 -0.9684  0.0916  0.1997
    2SAPS    C1  151   2.071   1.703   6.105  0.0153  0.3342 -0.1906
    2SAPS    HA  152   2.049   1.598   6.074 -0.2120  0.0086  1.0271
    2SAPS    HB  153   1.993   1.760   6.052 -0.1404  0.8704  0.6015
    2SAPS    C2  154   2.218   1.737   6.073  0.1222 -0.2472 -0.1174
    2SAPS    HS  155   2.275   1.700   6.161 -2.1638  1.1736  2.1145
    2SAPS   O21  156   2.229   1.877   6.062  0.4604 -0.3354 -0.7289
    2SAPS   C21  157   2.269   1.949   6.170  0.1098  0.7377 -0.6754
    2SAPS   O22  158   2.306   1.899   6.277 -0.0131  0.3370 -0.2416
    2SAPS   C22  159   2.276   2.094   6.136  0.5685  0.1075  0.0434
    2SAPS   H2R  160   2.197   2.111   6.061  0.6326 -1.8219 -0.5072
    2SAPS   H2S  161   2.248   2.147   6.230  0.1345  0.5237 -0.3198
    2SAPS    C3  162   2.270   1.666   5.938 -0.0368 -0.8560  0.1008
    2SAPS    HX  163   2.372   1.705   5.916 -1.1523  1.7827 -0.6462
    2SAPS    HY  164   2.198   1.710   5.866 -0.8242  1.6001  2.2400
    2SAPS   O31  165   2.255   1.526   5.935 -0.7136  0.2418 -0.6623
    2SAPS   C31  166   2.351   1.453   6.005  0.4958  0.1588  0.0473
    2SAPS   O32  167   2.452   1.498   6.055 -0.4849  0.2012  0.0260
    2SAPS   C32  168   2.305   1.311   5.997  0.3876  0.2952 -0.4331
    2SAPS   H2X  169   2.195   1.309   5.980  0.4587 -1.2276 -0.9757
    2SAPS   H2Y  170   2.313   1.266   6.098  2.3732  1.0238 -0.2234
    2SAPS   C23  171   2.412   2.133   6.073  0.0752  0.5832 -0.3523
    2SAPS   H3R  172   2.486   2.147   6.155  1.3080  0.5974 -1.4368
    2SAPS   H3S  173   2.413   2.224   6.010  0.4450  2.0145  1.6078
    2SAPS   C24  174   2.486   2.026   5.986 -0.8458  0.0843 -0.0932
    2SAPS   H4R  175   2.405   1.990   5.919 -1.4733  1.6390 -0.2089
    2SAPS   H4S  176   2.506   1.946   6.060 -1.6233  0.5970  0.6933
    2SAPS   C25  177   2.616   2.060   5.922 -0.2540  0.3276 -0.1988
    2SAPS   H5R  178   2.703   2.030   5.983 -0.4896  0.4657  0.2035
    2SAPS   C26  179   2.646   2.103   5.797 -0.0107 -0.4925  0.6571
    2SAPS   H6R  180   2.754   2.120   5.783  0.6329  0.8962  5.4568
    2SAPS   C27  181   2.553   2.138   5.675 -0.9285  0.0152  0.9387
    2SAPS   H7R  182   2.559   2.245   5.646  0.7449 -0.8038 -2.2128
    2SAPS   H7S  183   2.444   2.123   5.691 -0.9787  0.3975  0.9696
    2SAPS   C28  184   2.598   2.069   5.545 -0.9270 -0.5831 -0.0288
    2SAPS   H8R  185   2.667   1.984   5.557 -0.7583 -0.5010 -0.4106
    2SAPS   C29  186   2.557   2.097   5.419 -0.5186  0.3488  0.3902
    2SAPS   H9R  187   2.606   2.049   5.333 -0.2544  1.9323 -0.3835
    2SAPS  C210  188   2.473   2.218   5.377 -0.0097  0.3526 -0.2213
    2SAPS  H10R  189   2.431   2.270   5.465 -0.8215 -2.9708  1.5133
    2SAPS  H10S  190   2.379   2.190   5.324 -1.3330  0.8125  1.7901
    2SAPS  C211  191   2.549   2.322   5.306  0.0978  0.8659  0.7132
    2SAPS  H11R  192   2.652   2.336   5.341  1.1391 -2.4728 -0.6183
    2SAPS  C212  193   2.512   2.394   5.198  0.3374 -0.0174 -0.4512
    2SAPS  H12R  194   2.574   2.468   5.146  0.1892 -0.0075 -0.6174
    2SAPS  C213  195   2.371   2.397   5.139  0.5174  0.0908 -0.2571
    2SAPS  H13R  196   2.351   2.497   5.095 -0.4554  1.1824  2.4247
    2SAPS  H13S  197   2.307   2.400   5.230  1.3203  1.9993  0.2929
    2SAPS  C214  198   2.342   2.288   5.048 -0.8510 -0.2893 -0.1763
    2SAPS  H14R  199   2.388   2.194   5.079  0.5514  0.1350 -0.9070
    2SAPS  C215  200   2.284   2.292   4.923 -0.3868  0.4590  0.0724
    2SAPS  H15R  201   2.254   2.196   4.878 -2.1632  1.0749 -0.1398
    2SAPS  C216  202   2.229   2.412   4.863 -0.3369  0.0638 -0.1065
    2SAPS  H16R  203   2.299   2.494   4.887  1.4702 -1.5678  0.4067
    2SAPS  H16S  204   2.133   2.431   4.916 -1.6457 -3.2096 -1.0167
    2SAPS  C217  205   2.207   2.414   4.708  0.1980  0.5365  0.1058
    2SAPS  H17R  206   2.123   2.342   4.699  1.8539 -1.5273  0.3320
    2SAPS  H17S  207   2.293   2.366   4.657  0.3931 -1.2333  1.9972
    2SAPS  C218  208   2.180   2.546   4.637 -0.6063 -0.0478  0.1707
    2SAPS  H18R  209   2.251   2.622   4.675 -1.8968  1.8596 -1.0211
    2SAPS  H18S  210   2.081   2.577   4.676 -0.3946 -0.4219  1.0112
    2SAPS  C219  211   2.179   2.547   4.485 -0.1958  0.6550  0.8022
    2SAPS  H19R  212   2.274   2.496   4.459 -1.4935 -1.1744 -0.5643
    2SAPS  H19S  213   2.170   2.652   4.452 -1.2920  0.3061 -0.0514
    2SAPS  C220  214   2.062   2.469   4.429  0.9036  0.5922  1.0221
    2SAPS  H20R  215   2.057   2.456   4.319 -0.1499 -0.5230  1.1924
    2SAPS  H20S  216   1.968   2.517   4.461 -1.0938 -1.7569 -0.8778
    2SAPS  H20T  217   2.053   2.365   4.468  1.1512  0.3258  0.3805
    2SAPS   C33  218   2.391   1.244   5.884 -0.1333  0.3783  0.6575
    2SAPS   H3X  219   2.387   1.313   5.797 -1.2131  0.0264  0.4175
    2SAPS   H3Y  220   2.339   1.149   5.859  0.8899 -0.1548  0.4993
    2SAPS   C34  221   2.529   1.195   5.924  0.3007  0.4032 -0.1922
    2SAPS   H4X  222   2.526   1.108   5.992  0.3265  1.0095  0.5946
    2SAPS   H4Y  223   2.583   1.277   5.977  0.8214  1.3712 -2.1005
    2SAPS   C35  224   2.624   1.173   5.802  0.4644  0.2401 -0.2099
    2SAPS   H5X  225   2.732   1.186   5.828  0.2968  0.4772  0.3756
    2SAPS   H5Y  226   2.597   1.248   5.726 -1.2163  0.7524  0.8425
    2SAPS   C36  227   2.605   1.034   5.742 -0.1270  0.1699  0.0638
    2SAPS   H6X  228   2.500   1.000   5.737  0.7905 -2.8968 -0.8453
    2SAPS   H6Y  229   2.643   0.958   5.813 -2.1331 -0.9406  0.0128
    2SAPS   C37  230   2.682   1.013   5.608 -0.2306  0.2605 -0.1145
    2SAPS   H7X  231   2.787   1.036   5.637 -0.6403  0.2388  1.4430
    2SAPS   H7Y  232   2.644   1.091   5.538  1.3391  0.4198 -0.8423
    2SAPS   C38  233   2.646   0.873   5.557 -0.4596 -0.2641  0.1367
    2SAPS   H8X  234   2.550   0.888   5.503 -0.4958  0.5034  0.4038
    2SAPS   H8Y  235   2.643   0.803   5.643 -2.9308  1.7564  1.8260
    2SAPS   C39  236   2.747   0.828   5.445 -0.1184  0.0140  0.3418
    2SAPS   H9X  237   2.706   0.734   5.404  0.0589 -0.0770  0.3736
    2SAPS   H9Y  238   2.851   0.810   5.480 -0.0396 -0.8175 -0.3050
    2SAPS  C310  239   2.755   0.936   5.332 -0.1932 -0.4621 -0.6806
    2SAPS  H10X  240   2.799   1.027   5.380  1.1602 -0.3153 -2.1375
    2SAPS  H10Y  241   2.652   0.966   5.305 -0.7956 -1.2737  0.6226
    2SAPS  C311  242   2.855   0.893   5.216 -0.4467 -0.1442  0.3251
    2SAPS  H11X  243   2.806   0.813   5.156 -0.1828  0.6145 -0.9442
    2SAPS  H11Y  244   2.944   0.843   5.259 -0.1223  0.0455 -0.1178
    2SAPS  C312  245   2.906   0.998   5.113  0.4758  0.1444  0.0371
    2SAPS  H12X  246   2.948   1.081   5.175  1.5553  0.2748 -0.8280
    2SAPS  H12Y  247   2.814   1.035   5.064 -0.7039 -1.8264  0.6690
    2SAPS  C313  248   3.006   0.963   5.004  0.0238 -0.0733 -0.0236
    2SAPS  H13X  249   3.089   0.914   5.059 -1.9681 -1.0610  2.2349
    2SAPS  H13Y  250   3.057   1.057   4.974  3.7613 -1.8744  0.0482
    2SAPS  C314  251   2.949   0.882   4.884  0.0774  0.6813 -0.3817
    2SAPS  H14X  252   2.870   0.943   4.836  0.7734  2.7484  0.9372
    2SAPS  H14Y  253   2.911   0.787   4.927 -0.1330 -0.2965 -2.5861
    2SAPS  C315  254   3.052   0.844   4.774 -0.6522 -0.3507  0.2809
    2SAPS  H15X  255   3.141   0.794   4.819 -2.6274 -1.3968  3.3196
    2SAPS  H15Y  256   3.094   0.937   4.729 -1.6608  1.6943  3.2670
    2SAPS  C316  257   2.996   0.755   4.661  0.0239  0.0996 -0.3424
    2SAPS  H16X  258   2.940   0.827   4.598  1.1508  1.7990  0.5167
    2SAPS  H16Y  259   2.923   0.679   4.695 -0.7905  0.9534 -0.1427
    2SAPS  C317  260   3.112   0.687   4.587  0.2945 -0.3834  0.3407
    2SAPS  H17X  261   3.159   0.610   4.652  1.1665 -0.8626 -0.8062
    2SAPS  H17Y  262   3.183   0.764   4.549 -1.4185 -0.2803 -2.9934
    2SAPS  C318  263   3.060   0.624   4.460 -1.1850 -0.3199  0.5308
    2SAPS  H18X  264   2.990   0.538   4.470 -2.6273  0.8681  1.0555
    2SAPS  H18Y  265   3.141   0.586   4.394  0.1897  0.1232  1.8935
    2SAPS  H18Z  266   3.010   0.703   4.399  2.1314  1.2478 -0.3723
    3SAPS     N  267   4.404   0.944   7.168  0.0827  0.4512 -0.3308
    3SAPS   HN1  268   4.304   0.948   7.197  1.0108  3.1309  3.3134
    3SAPS   HN2  269   4.465   1.000   7.232  1.9590 -0.8141 -0.9156
    3SAPS   HN3  270   4.410   0.993   7.077  0.2842  1.9324  0.4460
    3SAPS   C12  271   4.446   0.800   7.174 -0.8030  0.3576 -0.4187
    3SAPS  H12A  272   4.523   0.779   7.101  0.8134  1.5958  0.8625
    3SAPS   C13  273   4.501   0.756   7.316 -0.1879 -0.4900  0.2547
    3SAPS  O13A  274   4.461   0.822   7.418 -0.7169 -0.5985  0.7493
    3SAPS  O13B  275   4.530   0.640   7.324  0.7155  0.4303 -0.5245
    3SAPS   C11  276   4.316   0.719   7.142  0.0206  0.3699  0.5042
    3SAPS  H11A  277   4.248   0.741   7.227 -0.8703 -1.2363  0.2510
    3SAPS  H11B  278   4.336   0.610   7.143 -1.6962  0.0337  1.9618
    3SAPS     P  279   4.296   0.719   6.886  0.3888 -0.2989  0.5393
    3SAPS   O13  280   4.277   0.574   6.873  0.3844  0.0946  0.1428
    3SAPS   O14  281   4.230   0.812   6.790  0.6088  0.0259  0.5442
    3SAPS   O12  282   4.241   0.761   7.032 -0.1350 -0.0428 -0.1847
    3SAPS   O11  283   4.445   0.757   6.887 -0.0890  0.1936 -0.8074
    3SAPS    C1  284   4.515   0.842   6.797 -0.5773  0.4969  0.6992
    3SAPS    HA  285   4.447   0.906   6.736 -0.1916  0.2462 -0.0119
    3SAPS    HB  286   4.574   0.915   6.856 -0.3912 -0.6532  1.9931
    3SAPS    C2  287   4.617   0.774   6.697  0.6028  0.0562  0.2378
    3SAPS    HS  288   4.674   0.858   6.653 -1.4542  1.0688 -0.6522
    3SAPS   O21  289   4.540   0.702   6.596  0.0935 -0.2348 -0.0390
    3SAPS   C21  290   4.490   0.783   6.505  0.5026  0.2537  0.3278
    3SAPS   O22  291   4.507   0.903   6.498  0.1170 -0.3624  0.1551
    3SAPS   C22  292   4.403   0.711   6.403  0.1629  0.3210  0.6466
    3SAPS   H2R  293   4.371   0.762   6.310 -0.7833  0.7734  1.2065
    3SAPS   H2S  294   4.459   0.618   6.379 -0.3357  0.0925  0.3527
    3SAPS    C3  295   4.702   0.657   6.757  0.4296 -0.4263  0.2369
    3SAPS    HX  296   4.647   0.565   6.786  1.2446 -1.2638 -0.8357
    3SAPS    HY  297   4.745   0.697   6.852  0.8409 -0.2598 -0.0177
    3SAPS   O31  298   4.808   0.620   6.667  0.0490  0.1690  0.0904
    3SAPS   C31  299   4.798   0.499   6.592 -0.6000  0.0553 -0.6851
    3SAPS   O32  300   4.706   0.429   6.607  0.1043  0.5005  0.2200
    3SAPS   C32  301   4.922   0.481   6.510  0.1216 -0.5836 -0.0680
    3SAPS   H2X  302   5.008   0.502   6.576 -1.1809 -0.2052  1.5565
    3SAPS   H2Y  303   4.918   0.546   6.420 -1.7015  1.6103  1.5041
    3SAPS   C23  304   4.272   0.662   6.470 -0.1867 -0.3999 -0.6468
    3SAPS   H3R  305   4.191   0.737   6.469  0.0437 -0.1381 -0.0261
    3SAPS   H3S  306   4.303   0.648   6.576  0.5680 -1.4549 -0.9875
    3SAPS   C24  307   4.224   0.528   6.408 -0.1434  0.2150  1.7843
    3SAPS   H4R  308   4.214   0.552   6.300 -0.5480  1.2284  2.0379
    3SAPS   H4S  309   4.119   0.509   6.439 -1.2695 -0.0087 -1.6992
    3SAPS   C25  310   4.312   0.410   6.446  0.5873  1.3731 -0.2818
    3SAPS   H5R  311   4.332   0.413   6.554  0.0587 -0.2676 -0.1239
    3SAPS   C26  312   4.365   0.311   6.376 -0.0102  0.0919 -0.0677
    3SAPS   H6R  313   4.447   0.257   6.426  0.8290  2.9226  1.8218
    3SAPS   C27  314   4.354   0.301   6.230 -0.0001  0.0460  0.3113
    3SAPS   H7R  315   4.311   0.392   6.183  0.1487 -0.7349 -1.4074
    3SAPS   H7S  316   4.286   0.218   6.202 -0.4152 -0.4735  2.5877
    3SAPS   C28  317   4.486   0.256   6.173 -0.1863  0.1103 -0.5285
    3SAPS   H8R  318   4.509   0.148   6.183  2.2227  0.5089 -1.1382
    3SAPS   C29  319   4.575   0.323   6.101 -0.3328  0.0852  0.1143
    3SAPS   H9R  320   4.671   0.272   6.084 -0.9876 -0.5156 -2.1847
    3SAPS  C210  321   4.572   0.465   6.047  0.3578 -0.9271  0.5363
    3SAPS  H10R  322   4.578   0.530   6.137 -1.8246  0.3070 -0.1364
    3SAPS  H10S  323   4.464   0.477   6.025  0.6817  1.1759 -0.1125
    3SAPS  C211  324   4.660   0.510   5.932  1.0323  0.5145  0.1091
    3SAPS  H11R  325   4.746   0.572   5.962  1.9148 -0.8437  0.4962
    3SAPS  C212  326   4.650   0.479   5.796  0.7284  0.5031 -0.3242
    3SAPS  H12R  327   4.730   0.528   5.738  2.5055 -1.0567  0.6812
    3SAPS  C213  328   4.537   0.388   5.730 -0.5036 -0.0728 -0.4676
    3SAPS  H13R  329   4.449   0.448   5.700  1.1933  2.0239 -1.5443
    3SAPS  H13S  330   4.509   0.306   5.799 -0.1044  0.3086  0.1554
    3SAPS  C214  331   4.601   0.315   5.610 -0.2336  0.2958 -0.2838
    3SAPS  H14R  332   4.691   0.260   5.638  0.2471  0.7489 -0.9033
    3SAPS  C215  333   4.564   0.317   5.479  0.1810 -0.7062  0.4432
    3SAPS  H15R  334   4.624   0.261   5.405  0.4115  0.5321 -0.3243
    3SAPS  C216  335   4.442   0.385   5.419  0.3307 -0.5829 -0.3423
    3SAPS  H16R  336   4.466   0.486   5.379  0.4913  0.3714  1.9900
    3SAPS  H16S  337   4.373   0.418   5.500  0.0455  0.1270 -0.8644
    3SAPS  C217  338   4.360   0.303   5.320 -0.8377  0.6724 -0.5497
    3SAPS  H17R  339   4.256   0.342   5.318 -1.1397  0.1418  1.8590
    3SAPS  H17S  340   4.356   0.195   5.343 -1.5109  0.4018 -1.8677
    3SAPS  C218  341   4.442   0.309   5.187  0.1204 -0.0254  0.4306
    3SAPS  H18R  342   4.547   0.282   5.214 -0.8738 -1.1366  3.6088
    3SAPS  H18S  343   4.446   0.416   5.157 -1.0748  0.2379  1.1780
    3SAPS  C219  344   4.386   0.222   5.082  0.1041  0.2626  0.5058
    3SAPS  H19R  345   4.378   0.115   5.112 -0.8557 -0.3023 -1.5514
    3SAPS  H19S  346   4.284   0.257   5.053 -0.0177 -0.2175  0.3531
    3SAPS  C220  347   4.480   0.226   4.958  0.9325  0.0747 -0.0701
    3SAPS  H20R  348   4.473   0.328   4.913 -0.7064 -0.7301 -1.8142
    3SAPS  H20S  349   4.458   0.158   4.873  3.5460  0.2924 -1.0103
    3SAPS  H20T  350   4.584   0.212   4.993  0.7800  0.7255  0.6804
    3SAPS   C33  351   4.926   0.337   6.458  1.1776  0.8780  0.2653
    3SAPS   H3X  352   4.833   0.311   6.403  1.9969  0.0503 -0.7678
    3SAPS   H3Y  353   4.930   0.266   6.543  0.8928 -0.5052 -0.8323
    3SAPS   C34  354   5.058   0.306   6.390  0.2306  0.9449 -0.4216
    3SAPS   H4X  355   5.069   0.195   6.387 -1.3362  0.7689 -1.2987
    3SAPS   H4Y  356   5.146   0.350   6.440 -0.0162  0.8169  0.1273
    3SAPS   C35  357   5.051   0.363   6.244 -0.3550 -0.3746  0.2210
    3SAPS   H5X  358   4.945   0.356   6.212 -0.5413  1.6909  0.2443
    3SAPS   H5Y  359   5.068   0.472   6.238 -0.0367 -0.3347  1.6775
    3SAPS   C36  360   5.138   0.289   6.140 -0.8241 -0.4249 -0.8021
    3SAPS   H6X  361   5.130   0.182   6.169 -0.4292 -0.5400 -1.1140
    3SAPS   H6Y  362   5.244   0.318   6.155 -1.1434 -0.4175  1.8712
    3SAPS   C37  363   5.088   0.302   5.998  0.9293 -0.1176 -0.0129
    3SAPS   H7X  364   4.979   0.281   6.003  1.3248 -2.2005  0.5893
    3SAPS   H7Y  365   5.134   0.218   5.941  1.0263 -0.4574  0.5650
    3SAPS   C38  366   5.123   0.434   5.932 -0.4979 -0.2382  0.2910
    3SAPS   H8X  367   5.227   0.465   5.955 -0.0720 -0.5691 -1.0703
    3SAPS   H8Y  368   5.048   0.514   5.950  1.2251  1.6342 -0.5218
    3SAPS   C39  369   5.127   0.415   5.780 -0.2025 -0.0882  0.1725
    3SAPS   H9X  370   5.212   0.346   5.761 -0.5864 -0.3060 -0.7928
    3SAPS   H9Y  371   5.151   0.514   5.737 -0.0727 -0.8110 -1.4717
    3SAPS  C310  372   5.010   0.345   5.715 -0.2538 -0.6723 -0.5957
    3SAPS  H10X  373   4.911   0.393   5.731  0.3918  0.3776  0.3920
    3SAPS  H10Y  374   4.998   0.246   5.764 -0.4954  0.5887  2.0612
    3SAPS  C311  375   5.027   0.322   5.563  0.0336  0.8542  0.6220
    3SAPS  H11X  376   4.936   0.266   5.533 -0.7151  0.4908  3.2978
    3SAPS  H11Y  377   5.111   0.257   5.529 -2.8470 -0.9181 -3.9496
    3SAPS  C312  378   5.038   0.446   5.468 -0.7817  0.1529 -0.8997
    3SAPS  H12X  379   5.086   0.525   5.529 -0.0352  0.8323 -2.3254
    3SAPS  H12Y  380   4.933   0.476   5.448 -1.5062 -2.6116 -1.7539
    3SAPS  C313  381   5.113   0.404   5.344  0.1995 -0.2642  0.2011
    3SAPS  H13X  382   5.080   0.305   5.306  0.6645 -0.6138  0.6948
    3SAPS  H13Y  383   5.222   0.390   5.363 -0.3141 -2.6008  1.9014
    3SAPS  C314  384   5.086   0.506   5.230 -0.7154  0.3094 -0.2883
    3SAPS  H14X  385   5.131   0.605   5.255 -0.2589 -0.2348  1.2152
    3SAPS  H14Y  386   4.977   0.507   5.212 -0.3729  0.5767 -2.7267
    3SAPS  C315  387   5.151   0.447   5.104  0.0049  0.2736 -0.1262
    3SAPS  H15X  388   5.094   0.357   5.070  0.0811  0.1359  0.1080
    3SAPS  H15Y  389   5.261   0.434   5.116  0.2108  1.5606 -0.5146
    3SAPS  C316  390   5.127   0.553   4.993  0.2531 -0.0891  0.3311
    3SAPS  H16X  391   5.146   0.658   5.026 -1.0984  0.3527 -0.2369
    3SAPS  H16Y  392   5.023   0.545   4.956 -0.0554 -1.7142  1.4243
    3SAPS  C317  393   5.220   0.520   4.871 -0.3395 -0.7700 -1.0888
    3SAPS  H17X  394   5.197   0.412   4.857 -2.8877 -0.6617  1.3179
    3SAPS  H17Y  395   5.324   0.540   4.904 -0.9645  3.2713 -1.0731
    3SAPS  C318  396   5.184   0.591   4.744  0.0888 -0.2404 -0.3825
    3SAPS  H18X  397   5.078   0.575   4.716  0.6425  0.1919 -3.0107
    3SAPS  H18Y  398   5.247   0.546   4.664  0.0734  1.2789 -1.3070
    3SAPS  H18Z  399   5.200   0.701   4.755  0.6440 -0.3067 -0.4946
    4SAPS     N  400   3.270   5.431   7.015  0.4496  0.0257  0.0307
    4SAPS   HN1  401   3.184   5.477   6.978  1.2439  0.5831 -1.1652
    4SAPS   HN2  402   3.353   5.466   6.964  1.3719 -1.0578  0.7316
    4SAPS   HN3  403   3.269   5.328   7.005 -1.1188 -0.3449  2.9549
    4SAPS   C12  404   3.279   5.459   7.156 -0.0399 -0.0576 -0.5798
    4SAPS  H12A  405   3.186   5.490   7.201  1.0416  1.0141  1.0566
    4SAPS   C13  406   3.291   5.322   7.232 -0.1336  0.6086  0.6362
    4SAPS  O13A  407   3.313   5.215   7.169  0.3489  0.2948  0.0482
    4SAPS  O13B  408   3.271   5.317   7.352  0.0799  0.6437  0.3896
    4SAPS   C11  409   3.390   5.562   7.182  0.1390 -0.5936  0.2800
    4SAPS  H11A  410   3.416   5.567   7.290  0.1521 -0.9767  0.2973
    4SAPS  H11B  411   3.336   5.657   7.162 -2.4280 -1.7558  1.3076
    4SAPS     P  412   3.635   5.633   7.126 -0.0024 -0.5217 -0.2714
    4SAPS   O13  413   3.587   5.772   7.146 -0.0582  0.1788  0.8320
    4SAPS   O14  414   3.711   5.577   7.238  0.1479 -0.3543 -0.0782
    4SAPS   O12  415   3.508   5.542   7.101  0.0286 -0.6895  0.2310
    4SAPS   O11  416   3.719   5.618   6.999  0.0552  0.3459  0.7374
    4SAPS    C1  417   3.687   5.528   6.893  0.0712 -0.2794 -0.1144
    4SAPS    HA  418   3.597   5.465   6.905  0.3508 -0.7172 -0.2647
    4SAPS    HB  419   3.672   5.594   6.805 -1.5206  0.6843  0.8332
    4SAPS    C2  420   3.808   5.441   6.865 -0.7594  0.3746 -0.1894
    4SAPS    HS  421   3.847   5.401   6.961 -0.8636 -2.5758 -1.2683
    4SAPS   O21  422   3.903   5.529   6.808  0.0170 -0.4187 -0.4944
    4SAPS   C21  423   4.023   5.486   6.774  0.0320 -0.0315 -0.1256
    4SAPS   O22  424   4.068   5.376   6.795 -0.4683  0.3042 -0.2936
    4SAPS   C22  425   4.096   5.590   6.687 -0.0629  0.7954 -0.0583
    4SAPS   H2R  426   4.030   5.629   6.606 -2.0875  2.1190  2.0841
    4SAPS   H2S  427   4.129   5.677   6.746 -0.5777  0.7316  0.3339
    4SAPS    C3  428   3.781   5.305   6.781 -0.4029 -0.2889 -0.1557
    4SAPS    HX  429   3.687   5.256   6.813 -0.3137 -1.5308 -1.6840
    4SAPS    HY  430   3.854   5.225   6.806 -1.7206 -1.0991  1.2518
    4SAPS   O31  431   3.788   5.323   6.640 -0.2772  0.0913 -0.3820
    4SAPS   C31  432   3.680   5.367   6.587  0.4427 -0.3049 -0.1319
    4SAPS   O32  433   3.567   5.392   6.640 -0.6811 -0.3154 -0.6472
    4SAPS   C32  434   3.697   5.349   6.440 -0.0623 -0.0859 -0.4293
    4SAPS   H2X  435   3.714   5.242   6.416 -0.8917  0.1794 -2.3751
    4SAPS   H2Y  436   3.792   5.397   6.408  0.6943 -1.1806  0.0838
    4SAPS   C23  437   4.228   5.536   6.620  0.6648 -0.3276 -0.5547
    4SAPS   H3R  438   4.203   5.469   6.535  2.0372 -1.0149 -0.4496
    4SAPS   H3S  439   4.293   5.474   6.686 -0.6421 -0.5710  0.5668
    4SAPS   C24  440   4.318   5.651   6.576 -0.3972 -0.0595  0.1772
    4SAPS   H4R  441   4.416   5.614   6.538 -1.2386 -2.4125  0.1014
    4SAPS   H4S  442   4.338   5.709   6.668 -2.5270 -0.5887  1.0366
    4SAPS   C25  443   4.257   5.740   6.473 -0.2806 -0.0164  0.2430
    4SAPS   H5R  444   4.206   5.829   6.514  0.4391  0.3135  0.4441
    4SAPS   C26  445   4.268   5.716   6.337  0.2554 -0.2468 -0.2416
    4SAPS   H6R  446   4.202   5.773   6.271  0.5091  0.9405  0.4895
    4SAPS   C27  447   4.342   5.604   6.273 -0.3730 -0.4336 -0.2209
    4SAPS   H7R  448   4.262   5.531   6.245 -2.2510  1.5261 -0.2447
    4SAPS   H7S  449   4.419   5.552   6.333  1.0000  0.2290 -1.3657
    4SAPS   C28  450   4.420   5.651   6.156 -0.1688  0.3516 -0.2277
    4SAPS   H8R  451   4.521   5.682   6.185  0.0177 -0.9751  0.6402
    4SAPS   C29  452   4.395   5.638   6.025  0.3907  0.4718 -0.0266
    4SAPS   H9R  453   4.461   5.696   5.958 -0.3049 -0.1893 -1.3208
    4SAPS  C210  454   4.268   5.588   5.963  0.3994 -0.3093  1.0613
    4SAPS  H10R  455   4.264   5.621   5.857 -1.7779  2.5747  1.9163
    4SAPS  H10S  456   4.182   5.635   6.015 -0.5060 -1.1733  0.3863
    4SAPS  C211  457   4.239   5.441   5.976  0.1682  0.2822 -0.4061
    4SAPS  H11R  458   4.281   5.414   6.074  2.1257  1.5588 -0.8439
    4SAPS  C212  459   4.182   5.364   5.886  0.2836  0.2962  0.2266
    4SAPS  H12R  460   4.177   5.256   5.907  0.7112  0.3365  0.5567
    4SAPS  C213  461   4.129   5.394   5.745 -0.6120 -0.0584 -0.0122
    4SAPS  H13R  462   4.222   5.384   5.684  0.2892 -2.0844  1.5502
    4SAPS  H13S  463   4.105   5.501   5.731  0.5732  0.2180 -0.0227
    4SAPS  C214  464   4.021   5.295   5.689  0.1761 -0.6682 -0.8122
    4SAPS  H14R  465   3.917   5.322   5.712  0.6734  1.8121 -1.1889
    4SAPS  C215  466   4.042   5.191   5.612  0.8721  0.4046 -0.0748
    4SAPS  H15R  467   3.957   5.133   5.573  0.5670  0.8875 -0.1437
    4SAPS  C216  468   4.171   5.140   5.560 -1.0827  0.7010 -0.1467
    4SAPS  H16R  469   4.195   5.043   5.609 -1.4653  0.4688 -0.4115
    4SAPS  H16S  470   4.260   5.202   5.584  0.1356 -1.1824  0.5252
    4SAPS  C217  471   4.177   5.106   5.408 -0.5116  0.1204  0.0322
    4SAPS  H17R  472   4.096   5.036   5.378  1.5407 -2.2633 -0.2315
    4SAPS  H17S  473   4.268   5.048   5.384 -1.1307 -0.7389 -0.2988
    4SAPS  C218  474   4.176   5.226   5.320  0.2874 -0.5215 -0.4398
    4SAPS  H18R  475   4.259   5.294   5.346  0.2639 -1.5626  2.8359
    4SAPS  H18S  476   4.089   5.292   5.342 -0.7021 -1.9234  0.0154
    4SAPS  C219  477   4.172   5.195   5.167 -0.0919 -0.1396  0.6747
    4SAPS  H19R  478   4.085   5.129   5.148 -0.1868  0.3412 -0.6462
    4SAPS  H19S  479   4.257   5.130   5.137  0.9269  0.5440  1.9831
    4SAPS  C220  480   4.182   5.327   5.079  0.2658 -0.0023 -0.0970
    4SAPS  H20R  481   4.288   5.360   5.078  0.2150  0.2569  1.1971
    4SAPS  H20S  482   4.104   5.401   5.109  0.1120 -0.3715  0.4410
    4SAPS  H20T  483   4.149   5.297   4.977 -0.8517  1.8581 -0.3223
    4SAPS   C33  484   3.580   5.386   6.342 -0.1692 -0.2688  0.4559
    4SAPS   H3X  485   3.492   5.324   6.368 -1.2724  1.4386  0.9155
    4SAPS   H3Y  486   3.612   5.351   6.242 -0.9889  0.4043 -0.0478
    4SAPS   C34  487   3.550   5.536   6.332  0.5574 -0.0976 -0.1648
    4SAPS   H4X  488   3.644   5.592   6.312  0.9915  0.2511  2.4957
    4SAPS   H4Y  489   3.507   5.577   6.426 -0.5756  0.8638 -1.0850
    4SAPS   C35  490   3.443   5.574   6.223  0.1743 -0.3576  0.3567
    4SAPS   H5X  491   3.398   5.670   6.258 -0.4132 -1.8193  4.1290
    4SAPS   H5Y  492   3.356   5.506   6.212 -0.2910  0.4894 -1.5830
    4SAPS   C36  493   3.500   5.582   6.078 -0.3149  0.1262 -0.3396
    4SAPS   H6X  494   3.543   5.484   6.051  4.5208  1.4758  1.3062
    4SAPS   H6Y  495   3.588   5.651   6.071 -0.5065  0.8280  2.7664
    4SAPS   C37  496   3.389   5.620   5.980 -0.3325  0.4150  0.7682
    4SAPS   H7X  497   3.357   5.726   5.984 -0.3646  0.4851 -0.7353
    4SAPS   H7Y  498   3.297   5.559   5.997  0.1487 -1.3216 -2.0636
    4SAPS   C38  499   3.426   5.589   5.828  0.2800  0.5700  0.1373
    4SAPS   H8X  500   3.442   5.480   5.812  0.2586  0.4062  1.1887
    4SAPS   H8Y  501   3.520   5.646   5.810  0.4983 -0.3986 -2.1114
    4SAPS   C39  502   3.312   5.633   5.729  0.4805  0.8080  0.2975
    4SAPS   H9X  503   3.306   5.744   5.729 -0.1381  0.8131 -1.7428
    4SAPS   H9Y  504   3.217   5.592   5.770 -0.6732  1.5303 -1.5309
    4SAPS  C310  505   3.350   5.588   5.586  0.2495 -0.2611 -0.3168
    4SAPS  H10X  506   3.386   5.483   5.582 -0.0555 -0.3868  0.1096
    4SAPS  H10Y  507   3.435   5.649   5.552  0.4541 -0.4566 -0.1580
    4SAPS  C311  508   3.243   5.617   5.480 -0.6302  0.0257  0.1495
    4SAPS  H11X  509   3.200   5.718   5.500  0.3510  0.1706  1.6658
    4SAPS  H11Y  510   3.157   5.549   5.494 -1.5281  0.2174 -3.5175
    4SAPS  C312  511   3.290   5.612   5.334 -0.0332 -0.6152  0.6029
    4SAPS  H12X  512   3.381   5.677   5.337 -0.6269  0.2029  1.3699
    4SAPS  H12Y  513   3.219   5.664   5.266  1.5611 -0.1448 -0.7816
    4SAPS  C313  514   3.317   5.483   5.260  0.0137  0.0055  0.4109
    4SAPS  H13X  515   3.220   5.429   5.265 -0.6343  1.2146  1.2368
    4SAPS  H13Y  516   3.400   5.432   5.314 -0.4502  0.3923  1.5033
    4SAPS  C314  517   3.347   5.508   5.104  0.1125 -0.0536 -0.2782
    4SAPS  H14X  518   3.447   5.545   5.072  0.3716 -1.6386 -1.4290
    4SAPS  H14Y  519   3.273   5.582   5.068 -0.6197 -0.5159  0.2492
    4SAPS  C315  520   3.310   5.385   5.030  0.2549  0.4653 -0.1468
    4SAPS  H15X  521   3.200   5.371   5.038  0.5884 -2.2962  0.5351
    4SAPS  H15Y  522   3.348   5.293   5.080 -1.2122  1.1182  2.3408
    4SAPS  C316  523   3.325   5.398   4.879  0.2063 -0.0123  0.5498
    4SAPS  H16X  524   3.434   5.406   4.860  0.0996 -0.2359 -0.1648
    4SAPS  H16Y  525   3.280   5.490   4.837  1.1024 -0.5443 -1.7544
    4SAPS  C317  526   3.277   5.273   4.800  0.3398  0.1554  0.0424
    4SAPS  H17X  527   3.177   5.249   4.842 -1.4761  1.1897 -3.2890
    4SAPS  H17Y  528   3.343   5.189   4.829 -0.0532  0.0553  0.6538
    4SAPS  C318  529   3.254   5.292   4.654 -0.0491  0.2415  0.5050
    4SAPS  H18X  530   3.351   5.318   4.605  0.4544 -0.8091  0.9171
    4SAPS  H18Y  531   3.179   5.371   4.635  1.6421  1.5485 -1.1845
    4SAPS  H18Z  532   3.222   5.192   4.618  1.1179 -0.5896  1.7027
    5SAPS     N  533   1.030   1.807   6.876  0.1737  0.2090 -0.0331
    5SAPS   HN1  534   1.015   1.825   6.977  0.4769 -0.5683  0.1504
    5SAPS   HN2  535   1.121   1.848   6.848  0.8958  0.0192  1.9155
    5SAPS   HN3  536   0.954   1.843   6.814  1.1959  1.8423 -0.3926
    5SAPS   C12  537   1.059   1.657   6.865  0.2413 -0.3524  0.2187
    5SAPS  H12A  538   1.142   1.643   6.932  0.3632  2.8221  0.8614
    5SAPS   C13  539   0.937   1.574   6.924 -0.1663  0.2580  0.3667
    5SAPS  O13A  540   0.849   1.625   6.994  0.1728  0.3007  0.4792
    5SAPS  O13B  541   0.942   1.453   6.899 -0.3133  0.4133  0.3345
    5SAPS   C11  542   1.095   1.621   6.721  0.3010 -0.1284  0.3521
    5SAPS  H11A  543   1.008   1.653   6.660 -1.5013 -2.2228  1.7216
    5SAPS  H11B  544   1.108   1.512   6.709  1.2720  0.1733 -1.9612
    5SAPS     P  545   1.356   1.608   6.712  0.1296 -0.4323 -0.0281
    5SAPS   O13  546   1.465   1.706   6.742  0.6013  0.7105 -0.5596
    5SAPS   O14  547   1.339   1.508   6.815  0.3220  0.4673  0.1295
    5SAPS   O12  548   1.219   1.686   6.678 -0.0030  0.5878  0.0979
    5SAPS   O11  549   1.385   1.544   6.575 -0.1327 -0.0701 -0.0886
    5SAPS    C1  550   1.480   1.441   6.562  0.1714  0.4407  0.0217
    5SAPS    HA  551   1.557   1.484   6.495  1.9079 -0.5647  1.2821
    5SAPS    HB  552   1.543   1.431   6.654  1.4071  0.7886 -0.7635
    5SAPS    C2  553   1.423   1.312   6.504 -0.7374 -0.2011 -0.2359
    5SAPS    HS  554   1.506   1.250   6.463  0.8176  1.0889  0.8344
    5SAPS   O21  555   1.311   1.331   6.417 -0.1345  0.3462 -0.0392
    5SAPS   C21  556   1.350   1.378   6.295  0.0372  0.2051  0.0939
    5SAPS   O22  557   1.467   1.385   6.256  0.1555  0.0503  0.1165
    5SAPS   C22  558   1.235   1.445   6.227  0.6554  0.5998 -0.5782
    5SAPS   H2R  559   1.144   1.383   6.246  1.1358 -0.4495 -1.6012
    5SAPS   H2S  560   1.216   1.538   6.285  0.7640 -0.2147  0.7835
    5SAPS    C3  561   1.361   1.227   6.621 -0.1237 -1.2952  0.3235
    5SAPS    HX  562   1.269   1.281   6.653 -0.2234 -1.6604  0.6592
    5SAPS    HY  563   1.431   1.231   6.707  0.4516 -1.3368 -0.1393
    5SAPS   O31  564   1.331   1.089   6.586 -0.1183 -1.1175 -0.1268
    5SAPS   C31  565   1.281   1.012   6.681 -0.5464 -0.6592 -0.3694
    5SAPS   O32  566   1.242   1.052   6.796  0.6427  0.3494 -0.4153
    5SAPS   C32  567   1.277   0.876   6.635 -0.6215  0.2306 -0.4883
    5SAPS   H2X  568   1.345   0.812   6.695  0.7094  0.6710 -1.4891
    5SAPS   H2Y  569   1.312   0.866   6.530 -2.7847  1.5372 -1.4122
    5SAPS   C23  570   1.240   1.480   6.076  0.3241 -0.5470  0.5526
    5SAPS   H3R  571   1.347   1.501   6.052  0.0474 -0.1484 -0.3540
    5SAPS   H3S  572   1.177   1.568   6.053  0.5399 -0.6743 -0.5532
    5SAPS   C24  573   1.190   1.363   5.988 -0.5653 -0.0152  0.7783
    5SAPS   H4R  574   1.216   1.269   6.041  0.9922  0.8772  1.6776
    5SAPS   H4S  575   1.247   1.360   5.892  0.0137  2.5453  0.9660
    5SAPS   C25  576   1.041   1.368   5.971  0.0831  0.4653  0.3081
    5SAPS   H5R  577   0.989   1.361   6.068  1.5301  0.6691  1.1157
    5SAPS   C26  578   0.961   1.382   5.863  0.2991 -1.0160 -0.0493
    5SAPS   H6R  579   0.855   1.357   5.880  0.3889  0.2646  3.1563
    5SAPS   C27  580   1.016   1.409   5.725  0.0545  1.0703 -0.8709
    5SAPS   H7R  581   1.092   1.489   5.739 -0.0812  1.1082 -0.3352
    5SAPS   H7S  582   0.942   1.459   5.659 -0.5969 -1.1930 -1.9672
    5SAPS   C28  583   1.060   1.278   5.651 -1.0617 -0.3510  0.1464
    5SAPS   H8R  584   1.093   1.196   5.716 -3.6692 -0.8566  0.9752
    5SAPS   C29  585   1.060   1.258   5.523  1.0912 -0.3735  1.1076
    5SAPS   H9R  586   1.091   1.158   5.490  1.5362 -0.5042  1.8865
    5SAPS  C210  587   1.008   1.362   5.425 -0.3627 -0.8076 -0.0850
    5SAPS  H10R  588   1.080   1.369   5.340  0.1124 -1.0621  0.2927
    5SAPS  H10S  589   1.015   1.465   5.466  0.2919 -0.0553 -1.9701
    5SAPS  C211  590   0.870   1.334   5.372 -0.4016 -0.0263 -0.0119
    5SAPS  H11R  591   0.841   1.231   5.349 -1.3702  0.3971 -0.7413
    5SAPS  C212  592   0.781   1.433   5.347  0.1979  0.1154 -0.1127
    5SAPS  H12R  593   0.681   1.404   5.311 -0.0830  0.5776  0.2835
    5SAPS  C213  594   0.799   1.583   5.355 -0.5753  0.0174  0.6217
    5SAPS  H13R  595   0.890   1.615   5.301 -1.2645 -1.9211 -1.8690
    5SAPS  H13S  596   0.804   1.592   5.466 -2.1000  0.5890  0.6673
    5SAPS  C214  597   0.679   1.657   5.312  0.4314  0.2316  0.1659
    5SAPS  H14R  598   0.591   1.616   5.364  1.7182 -1.6964  0.9014
    5SAPS  C215  599   0.677   1.769   5.228 -0.0932  0.6375  0.1163
    5SAPS  H15R  600   0.579   1.808   5.198 -0.5899 -0.9671 -0.4550
    5SAPS  C216  601   0.788   1.850   5.172  0.1832 -0.0010 -0.3498
    5SAPS  H16R  602   0.882   1.839   5.229  0.9420 -1.4568 -1.8061
    5SAPS  H16S  603   0.764   1.957   5.190 -0.0279 -0.3243  1.3953
    5SAPS  C217  604   0.813   1.823   5.025  0.2119  0.0400  0.5033
    5SAPS  H17R  605   0.720   1.829   4.964  1.3585 -0.4622 -1.4034
    5SAPS  H17S  606   0.857   1.726   4.994  1.5864  1.7907 -3.9283
    5SAPS  C218  607   0.919   1.913   4.957  0.3642 -0.2563  0.3667
    5SAPS  H18R  608   1.016   1.876   4.996  0.7555  0.4551  0.0707
    5SAPS  H18S  609   0.908   2.022   4.976 -1.1517 -0.3269  0.0686
    5SAPS  C219  610   0.932   1.879   4.811  0.4454  0.4063  0.8142
    5SAPS  H19R  611   0.831   1.902   4.773  1.8212  2.2264 -2.1105
    5SAPS  H19S  612   0.953   1.774   4.780 -1.6485 -0.0800  0.9378
    5SAPS  C220  613   1.028   1.975   4.731  0.5264  0.1247 -0.1367
    5SAPS  H20R  614   1.131   1.962   4.770  0.6265  3.3381  0.9994
    5SAPS  H20S  615   1.010   2.084   4.744 -0.8204 -0.2087  1.1223
    5SAPS  H20T  616   1.025   1.952   4.623 -1.7701 -2.9900  0.4322
    5SAPS   C33  617   1.129   0.829   6.646  0.0215 -0.5667 -0.2903
    5SAPS   H3X  618   1.094   0.854   6.749  1.2749  0.7199 -0.1490
    5SAPS   H3Y  619   1.117   0.720   6.633  0.6108 -0.6255 -0.3381
    5SAPS   C34  620   1.039   0.892   6.533 -0.3163 -0.1866 -0.6717
    5SAPS   H4X  621   1.046   1.002   6.531  1.6300 -0.2560  0.1227
    5SAPS   H4Y  622   0.939   0.858   6.566  0.2905 -1.4853 -0.0635
    5SAPS   C35  623   1.083   0.861   6.381 -0.0411 -0.3240  0.0894
    5SAPS   H5X  624   1.076   0.750   6.380 -0.3895 -0.3078  0.5773
    5SAPS   H5Y  625   1.189   0.886   6.359 -0.2179 -1.0521 -1.8694
    5SAPS   C36  626   0.995   0.920   6.273 -0.0091 -0.0442 -0.1646
    5SAPS   H6X  627   1.000   1.028   6.301  3.6327 -0.7856  2.9010
    5SAPS   H6Y  628   0.893   0.886   6.299  0.7767 -0.3339  3.0924
    5SAPS   C37  629   1.042   0.899   6.131  0.1292 -0.2972 -0.7431
    5SAPS   H7X  630   1.079   0.795   6.127  2.3854  0.4768 -1.2634
    5SAPS   H7Y  631   1.128   0.965   6.107 -0.5537  0.1140 -2.1383
    5SAPS   C38  632   0.934   0.939   6.033 -0.1397 -0.3048  0.3629
    5SAPS   H8X  633   0.896   1.043   6.044 -0.2860 -0.0201 -2.3669
    5SAPS   H8Y  634   0.851   0.869   6.058 -2.3037  1.5489 -1.1954
    5SAPS   C39  635   0.971   0.929   5.887 -0.4459 -0.1234  0.3345
    5SAPS   H9X  636   1.018   0.833   5.858 -0.0628 -0.0014  0.5324
    5SAPS   H9Y  637   1.045   1.011   5.875  0.9579 -1.5069 -0.9492
    5SAPS  C310  638   0.859   0.946   5.791  0.2528  0.0090 -0.1717
    5SAPS  H10X  639   0.838   1.055   5.782 -0.3754 -0.1437 -0.6598
    5SAPS  H10Y  640   0.763   0.907   5.830  0.0868 -0.8747 -1.4008
    5SAPS  C311  641   0.882   0.894   5.648  0.2161  0.0052 -0.0792
    5SAPS  H11X  642   0.863   0.785   5.656  0.8977 -0.0639  0.7365
    5SAPS  H11Y  643   0.990   0.915   5.631  0.5442  0.9490  2.6492
    5SAPS  C312  644   0.796   0.961   5.540 -0.3140 -0.0981 -0.0724
    5SAPS  H12X  645   0.794   1.067   5.573  0.4824 -0.5638  1.5870
    5SAPS  H12Y  646   0.693   0.918   5.534 -0.1956 -0.7766  1.8510
    5SAPS  C313  647   0.854   0.937   5.393  0.7776  0.7005  0.0675
    5SAPS  H13X  648   0.945   0.998   5.373  0.6711  1.1098  0.7798
    5SAPS  H13Y  649   0.785   0.982   5.319 -1.0455  0.5325  1.5855
    5SAPS  C314  650   0.894   0.798   5.349 -0.2006 -0.6054  0.1876
    5SAPS  H14X  651   0.956   0.745   5.424 -1.2934  0.0396  1.5842
    5SAPS  H14Y  652   0.960   0.810   5.260  2.0701 -2.0915  1.5516
    5SAPS  C315  653   0.775   0.706   5.329  1.1433  0.7757 -0.1088
    5SAPS  H15X  654   0.714   0.694   5.421  0.8572  1.4539 -0.1997
    5SAPS  H15Y  655   0.806   0.605   5.295 -0.7606  0.1556 -0.1151
    5SAPS  C316  656   0.670   0.748   5.216 -0.1803  0.6749  0.0138
    5SAPS  H16X  657   0.723   0.723   5.121  0.0513 -0.5800  0.4533
    5SAPS  H16Y  658   0.647   0.855   5.234  2.7486  0.7733  4.7151
    5SAPS  C317  659   0.539   0.666   5.227  0.0345  0.5506  0.2444
    5SAPS  H17X  660   0.480   0.722   5.303  1.6048  1.1293  1.0778
    5SAPS  H17Y  661   0.562   0.561   5.257 -0.2020  0.1503 -0.9266
    5SAPS  C318  662   0.471   0.671   5.087  0.8386 -0.0142  0.8125
    5SAPS  H18X  663   0.533   0.609   5.019  0.9387  0.2927  0.6234
    5SAPS  H18Y  664   0.469   0.779   5.059 -2.8848 -0.3803 -0.8475
    5SAPS  H18Z  665   0.369   0.634   5.107  0.7205 -0.6197 -0.8011
    6SAPS     N  666   4.176   2.777   6.653  0.0466  0.8170  0.6388
    6SAPS   HN1  667   4.140   2.815   6.563 -0.4356 -1.5203 -0.2279
    6SAPS   HN2  668   4.208   2.865   6.698 -1.0937  0.2974  2.5608
    6SAPS   HN3  669   4.255   2.720   6.617 -0.1119  0.0757  1.4501
    6SAPS   C12  670   4.081   2.697   6.732  0.1733 -0.0869  0.5920
    6SAPS  H12A  671   4.127   2.640   6.811  0.0009 -3.1986 -1.3940
    6SAPS   C13  672   3.973   2.782   6.798 -0.3065 -0.1125 -0.4182
    6SAPS  O13A  673   3.991   2.900   6.806 -0.4083 -0.2526 -0.2829
    6SAPS  O13B  674   3.901   2.729   6.891  0.0039 -0.2613 -0.0758
    6SAPS   C11  675   4.021   2.594   6.633  0.5558 -0.5602 -0.4157
    6SAPS  H11A  676   3.998   2.637   6.532  1.3265  0.0477 -0.3469
    6SAPS  H11B  677   3.915   2.573   6.659  0.2684 -0.2396 -1.2684
    6SAPS     P  678   4.047   2.332   6.623 -0.0593  0.0656  0.0944
    6SAPS   O13  679   3.973   2.320   6.748  1.1031 -0.3105 -0.0292
    6SAPS   O14  680   3.971   2.320   6.497 -0.5571  0.5323  0.7282
    6SAPS   O12  681   4.107   2.478   6.626  1.0485 -0.0858  0.5417
    6SAPS   O11  682   4.180   2.250   6.626  0.1361  0.3115  0.1788
    6SAPS    C1  683   4.303   2.317   6.666 -0.3587 -0.9986 -0.4440
    6SAPS    HA  684   4.281   2.393   6.743  4.6256 -1.0494  1.3612
    6SAPS    HB  685   4.385   2.250   6.699 -0.2821 -0.0747  1.3522
    6SAPS    C2  686   4.378   2.399   6.551 -0.0512  0.2368  0.8247
    6SAPS    HS  687   4.314   2.473   6.497  1.7207  0.4187 -1.1725
    6SAPS   O21  688   4.447   2.308   6.457  0.6322 -0.4296  0.5445
    6SAPS   C21  689   4.449   2.351   6.328 -0.0695  0.2816 -0.0037
    6SAPS   O22  690   4.399   2.445   6.274 -0.3568  0.0080 -0.2542
    6SAPS   C22  691   4.536   2.239   6.264 -0.0972 -0.6263 -0.0630
    6SAPS   H2R  692   4.639   2.250   6.305 -0.4840 -0.7714  0.9993
    6SAPS   H2S  693   4.503   2.138   6.296 -1.1645 -0.3709 -0.3422
    6SAPS    C3  694   4.496   2.487   6.619  0.4093 -0.1355 -0.3668
    6SAPS    HX  695   4.578   2.430   6.667 -0.4391 -1.1253 -0.0646
    6SAPS    HY  696   4.455   2.558   6.694 -1.5253 -2.0331  0.4777
    6SAPS   O31  697   4.568   2.574   6.521  0.1454  0.5168 -0.1883
    6SAPS   C31  698   4.498   2.679   6.478 -0.4412  0.2493 -0.3318
    6SAPS   O32  699   4.395   2.718   6.524 -0.3627  0.2181 -0.8984
    6SAPS   C32  700   4.582   2.745   6.364 -0.2606 -0.3618 -0.0917
    6SAPS   H2X  701   4.574   2.680   6.274 -0.0376  1.0932 -1.1874
    6SAPS   H2Y  702   4.686   2.742   6.404 -0.3396  1.6709  0.3697
    6SAPS   C23  703   4.523   2.235   6.106 -0.3851 -0.2182  0.2368
    6SAPS   H3R  704   4.582   2.317   6.059  1.8363 -2.1606 -0.5522
    6SAPS   H3S  705   4.418   2.257   6.078 -0.5924 -2.7942 -1.2755
    6SAPS   C24  706   4.560   2.101   6.036 -0.1975 -0.2335  0.1678
    6SAPS   H4R  707   4.546   2.124   5.928  2.8161  2.5197  0.2123
    6SAPS   H4S  708   4.495   2.021   6.078 -0.3118  0.0886  0.6110
    6SAPS   C25  709   4.705   2.062   6.050 -0.5827 -0.3686 -0.3001
    6SAPS   H5R  710   4.733   2.038   6.154 -0.8058 -0.1377 -0.1863
    6SAPS   C26  711   4.795   2.054   5.946  1.0104  0.3432  0.3292
    6SAPS   H6R  712   4.896   2.016   5.971  0.9837  0.5280  0.7234
    6SAPS   C27  713   4.775   2.081   5.794 -0.6037 -0.7915  0.3362
    6SAPS   H7R  714   4.860   2.145   5.762 -0.8794 -0.4692  0.2522
    6SAPS   H7S  715   4.691   2.151   5.778  0.4362  0.1033 -1.6403
    6SAPS   C28  716   4.768   1.941   5.723  0.2864 -0.6756 -0.1353
    6SAPS   H8R  717   4.785   1.850   5.783  3.2506 -1.2069 -1.5954
    6SAPS   C29  718   4.759   1.928   5.590 -0.8063  0.1455  0.7520
    6SAPS   H9R  719   4.761   1.826   5.548  0.1202  0.9399 -1.2698
    6SAPS  C210  720   4.732   2.036   5.480  0.2579 -0.6853  0.0303
    6SAPS  H10R  721   4.651   2.105   5.511  0.0567 -0.6517 -0.5605
    6SAPS  H10S  722   4.698   1.979   5.391  1.1634  0.9106 -1.3833
    6SAPS  C211  723   4.856   2.116   5.450 -0.1188 -0.7037 -1.2753
    6SAPS  H11R  724   4.919   2.142   5.536  0.1442  0.8538 -1.9023
    6SAPS  C212  725   4.894   2.158   5.328  0.6758  0.4332 -0.0476
    6SAPS  H12R  726   4.991   2.208   5.310 -0.3500  2.7724  0.5702
    6SAPS  C213  727   4.808   2.137   5.209  0.6632  0.0022  0.1820
    6SAPS  H13R  728   4.705   2.108   5.238  0.0281  1.2300 -0.7048
    6SAPS  H13S  729   4.849   2.051   5.152  1.1679  0.9146 -0.8866
    6SAPS  C214  730   4.805   2.258   5.116  0.0849  0.9290 -0.5031
    6SAPS  H14R  731   4.858   2.347   5.153 -1.3625  0.7898  2.1220
    6SAPS  C215  732   4.745   2.261   5.000 -0.4099 -0.1141  0.7018
    6SAPS  H15R  733   4.752   2.355   4.942 -1.4595 -0.4752 -0.0353
    6SAPS  C216  734   4.675   2.143   4.938 -0.2685 -0.6638  0.3241
    6SAPS  H16R  735   4.626   2.079   5.015  1.2338 -1.6893  0.4598
    6SAPS  H16S  736   4.747   2.077   4.886  0.2077  0.7624 -0.8713
    6SAPS  C217  737   4.566   2.206   4.849 -0.3962  0.1678 -0.5779
    6SAPS  H17R  738   4.601   2.275   4.770 -2.3197 -1.5925 -3.1278
    6SAPS  H17S  739   4.496   2.263   4.915  0.3953 -0.2434  0.6613
    6SAPS  C218  740   4.503   2.093   4.774 -0.2793  0.3902  0.2236
    6SAPS  H18R  741   4.404   2.124   4.735 -0.3530 -2.0890 -1.8487
    6SAPS  H18S  742   4.477   2.011   4.845 -0.4969  1.1199  1.0027
    6SAPS  C219  743   4.590   2.042   4.658  0.2917 -0.4109  0.8675
    6SAPS  H19R  744   4.666   1.973   4.699  2.4354  0.2241 -1.7757
    6SAPS  H19S  745   4.644   2.128   4.613  1.1952 -0.7627  1.2657
    6SAPS  C220  746   4.508   1.953   4.565  0.2528 -0.5752  0.0278
    6SAPS  H20R  747   4.473   1.868   4.626  0.6231  0.1040  1.2163
    6SAPS  H20S  748   4.570   1.927   4.477 -0.6981 -1.2870 -0.4565
    6SAPS  H20T  749   4.418   2.014   4.539  1.4840  2.7454  2.8521
    6SAPS   C33  750   4.534   2.891   6.334 -0.0191  0.6242 -0.4195
    6SAPS   H3X  751   4.507   2.932   6.434  1.1718 -3.7858  1.9926
    6SAPS   H3Y  752   4.439   2.882   6.278 -0.7500  0.2444  0.8260
    6SAPS   C34  753   4.649   2.964   6.259 -0.3276 -0.0630 -0.3093
    6SAPS   H4X  754   4.671   2.913   6.163  0.3506  0.5888 -0.5095
    6SAPS   H4Y  755   4.743   2.961   6.318 -0.6063  0.3242  0.1693
    6SAPS   C35  756   4.634   3.120   6.253  0.5500  0.1018  0.0606
    6SAPS   H5X  757   4.724   3.175   6.219 -0.5630  0.1493 -3.0664
    6SAPS   H5Y  758   4.600   3.169   6.347  0.0427  0.6230 -0.3813
    6SAPS   C36  759   4.518   3.160   6.162  0.5803  0.3164 -0.7870
    6SAPS   H6X  760   4.495   3.266   6.185 -2.8787 -0.1900 -1.3278
    6SAPS   H6Y  761   4.425   3.105   6.187 -0.8520  3.0671  0.3372
    6SAPS   C37  762   4.552   3.124   6.015 -0.7622 -0.2229  0.6557
    6SAPS   H7X  763   4.558   3.014   5.997  1.8592  0.0251 -0.4792
    6SAPS   H7Y  764   4.652   3.173   6.010 -0.1790 -1.2466  1.6821
    6SAPS   C38  765   4.455   3.194   5.918 -0.1191 -0.2544 -0.4355
    6SAPS   H8X  766   4.441   3.295   5.962  0.3708 -0.2606 -0.2562
    6SAPS   H8Y  767   4.365   3.131   5.906 -0.0982 -0.2573 -0.5751
    6SAPS   C39  768   4.506   3.218   5.775 -0.0082 -0.1565  0.0326
    6SAPS   H9X  769   4.598   3.280   5.772  0.1741 -0.3081  1.5760
    6SAPS   H9Y  770   4.424   3.269   5.720 -1.1800 -2.3140 -0.3162
    6SAPS  C310  771   4.529   3.094   5.690  0.2562 -0.2040 -0.1167
    6SAPS  H10X  772   4.432   3.040   5.679  0.0436  0.4935 -2.0871
    6SAPS  H10Y  773   4.612   3.041   5.741  0.1609  0.7515  1.0758
    6SAPS  C311  774   4.580   3.117   5.543 -0.4509  0.0022  0.0643
    6SAPS  H11X  775   4.656   3.041   5.514  1.1833  2.0513 -1.3000
    6SAPS  H11Y  776   4.633   3.214   5.534 -0.9375  0.1451 -1.5460
    6SAPS  C312  777   4.461   3.116   5.437 -0.3216 -0.1694  0.1025
    6SAPS  H12X  778   4.389   3.199   5.455  0.1099  0.8971 -2.5988
    6SAPS  H12Y  779   4.398   3.024   5.433 -0.4997 -0.0486  0.1075
    6SAPS  C313  780   4.527   3.127   5.297 -0.1397  0.0625  0.7521
    6SAPS  H13X  781   4.606   3.048   5.294  1.9916  1.9653  2.4124
    6SAPS  H13Y  782   4.583   3.221   5.277  0.2451 -0.2073  0.5384
    6SAPS  C314  783   4.440   3.089   5.186  0.1121  0.7786 -0.3078
    6SAPS  H14X  784   4.363   3.168   5.171 -1.9061 -0.4529  2.4433
    6SAPS  H14Y  785   4.385   2.997   5.216  2.1958  0.3594  2.6806
    6SAPS  C315  786   4.508   3.058   5.054 -0.5088  0.6332  0.8161
    6SAPS  H15X  787   4.423   3.042   4.985 -0.4505 -0.0404  0.8940
    6SAPS  H15Y  788   4.565   2.965   5.072 -0.9603  0.1210 -0.3386
    6SAPS  C316  789   4.602   3.163   4.992  0.3493  0.1917  0.3941
    6SAPS  H16X  790   4.699   3.157   5.047  1.9983  1.4306 -2.1737
    6SAPS  H16Y  791   4.561   3.261   5.025  0.9421  0.2098  1.1095
    6SAPS  C317  792   4.628   3.159   4.837 -0.6248 -1.0587 -0.6792
    6SAPS  H17X  793   4.708   3.232   4.813  1.4128 -3.2313 -0.9791
    6SAPS  H17Y  794   4.534   3.184   4.783  0.2387 -1.2912 -2.3605
    6SAPS  C318  795   4.685   3.034   4.773  0.0007 -0.1687 -0.7187
    6SAPS  H18X  796   4.719   3.051   4.669  1.4151 -1.4386 -0.4964
    6SAPS  H18Y  797   4.610   2.952   4.781  0.5797 -0.5851  0.7959
    6SAPS  H18Z  798   4.776   2.995   4.823 -0.2817  0.5273  0.3943
    7SAPS     N  799   1.135   2.269   7.146 -0.0659  0.2140  0.2501
    7SAPS   HN1  800   1.230   2.257   7.105 -0.3276 -1.7078  0.1499
    7SAPS   HN2  801   1.090   2.353   7.105 -1.3840  0.2196  1.6118
    7SAPS   HN3  802   1.147   2.270   7.249 -0.1695 -2.0418  0.3302
    7SAPS   C12  803   1.056   2.150   7.085 -0.0578 -0.4921  0.1016
    7SAPS  H12A  804   1.081   2.142   6.980  1.0987 -1.9162  0.4457
    7SAPS   C13  805   1.078   2.023   7.162 -0.5302  0.5266 -0.7371
    7SAPS  O13A  806   1.182   2.013   7.238  0.7213 -0.4428  0.1501
    7SAPS  O13B  807   1.015   1.918   7.124 -0.2349 -1.0202  0.1264
    7SAPS   C11  808   0.902   2.172   7.099 -0.0879  0.3434  0.6293
    7SAPS  H11A  809   0.868   2.183   7.204  1.2718 -0.5795  1.1800
    7SAPS  H11B  810   0.838   2.088   7.064  0.2511  0.4189 -0.1822
    7SAPS     P  811   0.707   2.318   7.000 -0.2705 -0.2585 -0.5292
    7SAPS   O13  812   0.629   2.204   7.045  0.0544  0.5977  0.2019
    7SAPS   O14  813   0.671   2.453   7.048  0.4004 -0.5065  0.0517
    7SAPS   O12  814   0.857   2.289   7.039 -0.1974  0.2913 -0.0194
    7SAPS   O11  815   0.731   2.323   6.843 -0.7374  0.3951 -0.2456
    7SAPS    C1  816   0.857   2.302   6.780  0.1322  0.1618 -0.3550
    7SAPS    HA  817   0.936   2.374   6.813  0.2894  0.4460 -1.3127
    7SAPS    HB  818   0.884   2.197   6.804  0.5212  0.1712 -0.7261
    7SAPS    C2  819   0.841   2.289   6.626 -0.4939  0.7331 -0.6115
    7SAPS    HS  820   0.924   2.223   6.592 -1.1491 -0.5574  0.1832
    7SAPS   O21  821   0.860   2.416   6.557  0.4107 -0.9098  0.0024
    7SAPS   C21  822   0.981   2.455   6.564  0.4819  0.5092 -0.2781
    7SAPS   O22  823   1.070   2.399   6.620  0.0631 -0.7425  0.0235
    7SAPS   C22  824   1.001   2.572   6.473  0.1318  0.2807 -0.4264
    7SAPS   H2R  825   0.989   2.663   6.535 -0.6310  0.5190 -0.9172
    7SAPS   H2S  826   1.106   2.574   6.435  0.2615 -0.6348 -0.1486
    7SAPS    C3  827   0.707   2.228   6.584  0.5185  0.3303 -0.3401
    7SAPS    HX  828   0.615   2.281   6.618  0.5337  1.5345 -2.0619
    7SAPS    HY  829   0.696   2.129   6.632  2.4448  1.0105  1.7292
    7SAPS   O31  830   0.701   2.210   6.443  0.0163  0.0055  0.2617
    7SAPS   C31  831   0.630   2.305   6.378  0.1271 -0.1520  0.7662
    7SAPS   O32  832   0.589   2.416   6.424 -0.0575  0.3263  0.4874
    7SAPS   C32  833   0.612   2.257   6.234  0.3765 -0.3197 -0.8665
    7SAPS   H2X  834   0.515   2.204   6.224  0.7580 -1.8239  2.2732
    7SAPS   H2Y  835   0.710   2.208   6.217  2.5758  2.9904  1.1638
    7SAPS   C23  836   0.890   2.589   6.362  0.0220 -0.7132  0.3495
    7SAPS   H3R  837   0.790   2.555   6.396  0.4646 -2.9443 -0.4661
    7SAPS   H3S  838   0.900   2.521   6.276 -1.7529 -0.1836 -0.3237
    7SAPS   C24  839   0.884   2.740   6.324  0.0152  0.8216  0.3146
    7SAPS   H4R  840   0.879   2.805   6.414  0.9827  0.2167  0.8256
    7SAPS   H4S  841   0.785   2.760   6.278 -1.3668  0.3573  2.9238
    7SAPS   C25  842   0.996   2.790   6.242  0.5655  0.9506  0.2166
    7SAPS   H5R  843   1.095   2.769   6.284 -0.5538 -4.2709  0.9766
    7SAPS   C26  844   0.990   2.826   6.112 -0.4113 -0.0187  0.2697
    7SAPS   H6R  845   1.083   2.861   6.065 -0.7420 -0.0285 -0.4039
    7SAPS   C27  846   0.865   2.843   6.035 -0.0212 -1.0160  0.2418
    7SAPS   H7R  847   0.805   2.924   6.082 -0.2002 -0.0442 -1.5553
    7SAPS   H7S  848   0.797   2.755   6.045 -0.8983 -0.1734  2.1573
    7SAPS   C28  849   0.894   2.876   5.892 -0.3522  0.3799  0.2486
    7SAPS   H8R  850   0.939   2.974   5.868  1.1277 -0.5540 -0.9254
    7SAPS   C29  851   0.877   2.795   5.779 -0.4606  0.2450  0.5172
    7SAPS   H9R  852   0.908   2.838   5.683 -1.9807 -1.3297 -0.7481
    7SAPS  C210  853   0.852   2.647   5.778  0.3051 -0.3159  0.1750
    7SAPS  H10R  854   0.767   2.629   5.847 -0.8274 -0.0826 -1.1121
    7SAPS  H10S  855   0.937   2.600   5.832  2.0669 -0.1340 -2.2635
    7SAPS  C211  856   0.817   2.585   5.643  0.0443 -0.4231  0.9119
    7SAPS  H11R  857   0.757   2.649   5.577  1.0818  0.3213  0.6689
    7SAPS  C212  858   0.854   2.471   5.590  0.2206 -0.3219 -0.1832
    7SAPS  H12R  859   0.816   2.431   5.495  0.2150 -2.7551  0.7731
    7SAPS  C213  860   0.951   2.365   5.650 -0.0555 -0.1865 -0.1943
    7SAPS  H13R  861   0.896   2.271   5.674  0.6368 -0.9365 -1.4309
    7SAPS  H13S  862   1.000   2.396   5.745 -0.6430  0.1903 -0.0106
    7SAPS  C214  863   1.065   2.319   5.566  0.4109  0.0010 -0.1228
    7SAPS  H14R  864   1.134   2.404   5.555 -2.3334  2.9920  3.4770
    7SAPS  C215  865   1.101   2.197   5.524  0.3847  0.1587  0.0728
    7SAPS  H15R  866   1.196   2.188   5.470 -0.6543 -1.1884 -1.6469
    7SAPS  C216  867   1.007   2.075   5.537 -0.3191  0.4471 -0.7713
    7SAPS  H16R  868   1.048   2.000   5.466 -2.2668 -1.9401  0.4284
    7SAPS  H16S  869   0.904   2.114   5.525  0.1103  1.5297 -0.9896
    7SAPS  C217  870   1.007   1.997   5.674 -0.1672 -0.7638 -0.0696
    7SAPS  H17R  871   0.927   1.920   5.676 -0.2937 -0.6203  1.2179
    7SAPS  H17S  872   0.982   2.080   5.744  1.0307  0.7611 -1.3658
    7SAPS  C218  873   1.148   1.938   5.705 -0.1809  0.0289 -0.6626
    7SAPS  H18R  874   1.217   2.025   5.700 -0.1060 -0.0056 -0.2641
    7SAPS  H18S  875   1.187   1.863   5.632 -0.4863 -1.1880  0.3864
    7SAPS  C219  876   1.152   1.878   5.849 -0.2003 -0.5380 -0.7359
    7SAPS  H19R  877   1.116   1.945   5.931  2.3443  0.8796 -0.6685
    7SAPS  H19S  878   1.255   1.854   5.883 -0.8907 -0.8658  1.3088
    7SAPS  C220  879   1.091   1.743   5.859  0.2323 -0.3524 -0.0363
    7SAPS  H20R  880   1.160   1.673   5.808  0.7012  1.1956 -1.5946
    7SAPS  H20S  881   0.997   1.731   5.802 -0.6069 -1.3347  1.5049
    7SAPS  H20T  882   1.082   1.716   5.967  0.9423  0.0891  0.1444
    7SAPS   C33  883   0.608   2.388   6.148  0.1295  0.3137  0.5522
    7SAPS   H3X  884   0.699   2.443   6.180  0.2162 -0.3021  1.3986
    7SAPS   H3Y  885   0.512   2.444   6.155 -0.8811 -0.9142 -1.9671
    7SAPS   C34  886   0.634   2.355   6.005  0.0803  1.0129  0.3560
    7SAPS   H4X  887   0.732   2.302   5.995 -1.3559 -1.9682  0.7780
    7SAPS   H4Y  888   0.636   2.439   5.933  3.5499  0.2668 -0.6123
    7SAPS   C35  889   0.531   2.253   5.951  0.6036 -0.0873  0.2125
    7SAPS   H5X  890   0.430   2.299   5.954  0.3786 -0.3141 -2.1242
    7SAPS   H5Y  891   0.525   2.156   6.004 -0.2151 -0.1958 -0.0638
    7SAPS   C36  892   0.555   2.212   5.801  0.7217 -0.0515  0.6797
    7SAPS   H6X  893   0.489   2.122   5.798 -0.4618  0.7735  1.2175
    7SAPS   H6Y  894   0.661   2.184   5.782 -0.1516 -2.3906 -1.3002
    7SAPS   C37  895   0.512   2.304   5.687  0.4180  0.0187  0.0647
    7SAPS   H7X  896   0.566   2.400   5.699 -0.8188  0.8958 -1.0332
    7SAPS   H7Y  897   0.402   2.324   5.685  0.4226 -0.0019 -0.6187
    7SAPS   C38  898   0.572   2.264   5.549  0.4870  0.2792 -0.5067
    7SAPS   H8X  899   0.677   2.234   5.567  0.9844  1.8146 -0.7522
    7SAPS   H8Y  900   0.561   2.346   5.475 -1.5396  1.0757  0.5692
    7SAPS   C39  901   0.488   2.148   5.493 -0.4360  0.0808  0.3994
    7SAPS   H9X  902   0.380   2.177   5.501 -0.2768  0.2668  2.6943
    7SAPS   H9Y  903   0.509   2.052   5.545  0.7767 -0.4549 -1.0452
    7SAPS  C310  904   0.517   2.107   5.348  0.1963  0.8182  0.4500
    7SAPS  H10X  905   0.446   2.024   5.328  0.1788  0.8934  0.1960
    7SAPS  H10Y  906   0.624   2.079   5.348 -0.3780 -1.5932  0.3333
    7SAPS  C311  907   0.509   2.218   5.243 -0.3450 -0.3767  0.0079
    7SAPS  H11X  908   0.575   2.303   5.268  1.5395 -0.6700 -3.3280
    7SAPS  H11Y  909   0.402   2.250   5.238 -1.3315 -3.3820 -0.0218
    7SAPS  C312  910   0.557   2.167   5.102  0.6044 -0.1979 -0.5141
    7SAPS  H12X  911   0.475   2.101   5.066 -1.2894  1.6279  0.2118
    7SAPS  H12Y  912   0.649   2.106   5.113 -0.6554 -1.8377  1.7169
    7SAPS  C313  913   0.588   2.273   4.996  0.3761  0.3975  0.1364
    7SAPS  H13X  914   0.682   2.326   5.020  1.1779  0.1117 -2.1408
    7SAPS  H13Y  915   0.513   2.355   4.998 -1.0496 -0.8599  0.2183
    7SAPS  C314  916   0.585   2.216   4.856 -0.2335  0.2522  0.1026
    7SAPS  H14X  917   0.500   2.153   4.821  0.6266 -0.3171 -1.0111
    7SAPS  H14Y  918   0.671   2.147   4.867 -0.3194  0.2786  0.9787
    7SAPS  C315  919   0.620   2.330   4.757 -0.4881 -0.3162 -0.4797
    7SAPS  H15X  920   0.707   2.390   4.791  0.3099 -1.0133 -1.2274
    7SAPS  H15Y  921   0.526   2.388   4.755 -1.8395 -2.3755  0.0256
    7SAPS  C316  922   0.659   2.278   4.620  0.4490 -0.2931  0.3866
    7SAPS  H16X  923   0.569   2.236   4.569  1.5092  1.6650 -3.5546
    7SAPS  H16Y  924   0.727   2.190   4.620  0.7130 -0.1103 -0.8166
    7SAPS  C317  925   0.712   2.384   4.532 -0.2958  0.1806 -0.4163
    7SAPS  H17X  926   0.815   2.411   4.563 -0.5145  2.3799 -1.3697
    7SAPS  H17Y  927   0.643   2.471   4.525 -0.4944  0.2501  1.7598
    7SAPS  C318  928   0.740   2.331   4.393  0.1105  0.2553  0.3544
    7SAPS  H18X  929   0.829   2.266   4.405 -0.2728 -0.2023  0.7618
    7SAPS  H18Y  930   0.778   2.410   4.326 -1.2750 -0.6172 -1.5545
    7SAPS  H18Z  931   0.660   2.271   4.344  0.2786  0.6024 -0.3620
    8SAPS     N  932   3.916   3.143   6.726 -0.0269  0.1705 -0.1837
    8SAPS   HN1  933   3.933   3.153   6.624 -2.2674  2.3222 -0.4512
    8SAPS   HN2  934   3.961   3.059   6.768 -0.5069 -0.1393 -0.2764
    8SAPS   HN3  935   3.812   3.139   6.730 -0.0792 -1.6612 -1.9512
    8SAPS   C12  936   3.962   3.266   6.790  0.2802  0.0449 -0.2495
    8SAPS  H12A  937   3.934   3.350   6.728 -0.3786  1.0414  1.3136
    8SAPS   C13  938   3.901   3.281   6.934  0.6922 -0.4798  0.4121
    8SAPS  O13A  939   3.831   3.187   6.974  0.1327  0.3954  0.0152
    8SAPS  O13B  940   3.909   3.392   6.996 -0.3997 -0.2565 -0.1135
    8SAPS   C11  941   4.117   3.272   6.810 -0.2392 -0.0356  0.6872
    8SAPS  H11A  942   4.156   3.182   6.862 -0.0696 -1.1863 -1.3353
    8SAPS  H11B  943   4.140   3.364   6.868  3.5930 -0.2445 -0.2398
    8SAPS     P  944   4.283   3.178   6.628  0.2700 -0.2082 -0.3872
    8SAPS   O13  945   4.427   3.206   6.646  0.2215  0.1828 -0.9372
    8SAPS   O14  946   4.231   3.046   6.678 -0.4190  0.3233 -0.0345
    8SAPS   O12  947   4.186   3.293   6.684 -0.0063  0.4310 -0.8912
    8SAPS   O11  948   4.242   3.184   6.476  0.4227  0.1314  0.0639
    8SAPS    C1  949   4.222   3.310   6.412 -0.3644  0.6507  0.5185
    8SAPS    HA  950   4.296   3.388   6.437 -0.2122  0.9133 -0.6800
    8SAPS    HB  951   4.256   3.295   6.307  1.0658 -2.2285  1.3090
    8SAPS    C2  952   4.077   3.374   6.415 -0.4050 -0.5207  0.3698
    8SAPS    HS  953   4.029   3.354   6.513 -1.3412  1.0570  0.2642
    8SAPS   O21  954   3.998   3.315   6.311  0.4661  0.1747 -0.4010
    8SAPS   C21  955   3.939   3.197   6.345  0.3056 -0.7960 -0.7528
    8SAPS   O22  956   3.943   3.145   6.453 -0.1466 -0.1783  0.5445
    8SAPS   C22  957   3.856   3.148   6.230 -0.2922  0.2858 -0.5872
    8SAPS   H2R  958   3.903   3.052   6.202  0.2415  0.9548 -2.0439
    8SAPS   H2S  959   3.749   3.146   6.261 -0.2832 -1.5007 -0.6061
    8SAPS    C3  960   4.092   3.528   6.398 -0.0660 -0.0481 -0.8575
    8SAPS    HX  961   4.132   3.563   6.495 -1.6712  0.0295 -0.1962
    8SAPS    HY  962   3.989   3.568   6.393 -1.6136 -2.6957  3.8240
    8SAPS   O31  963   4.176   3.563   6.283 -0.6705  0.0131  0.3370
    8SAPS   C31  964   4.138   3.679   6.224 -0.3288  0.2824  0.0341
    8SAPS   O32  965   4.057   3.756   6.264 -0.0637 -0.4654 -0.1318
    8SAPS   C32  966   4.223   3.685   6.094 -0.9495  0.4456 -0.6053
    8SAPS   H2X  967   4.330   3.655   6.093 -0.1508  2.7034  2.8465
    8SAPS   H2Y  968   4.220   3.792   6.066  0.5177  0.8349  0.5933
    8SAPS   C23  969   3.874   3.229   6.100  1.3575  0.0988 -0.3708
    8SAPS   H3R  970   3.854   3.334   6.131 -0.6769 -0.7926  1.6156
    8SAPS   H3S  971   3.794   3.203   6.027  0.7824  0.4627  0.1200
    8SAPS   C24  972   4.012   3.223   6.036 -0.2574 -0.7084 -0.2877
    8SAPS   H4R  973   4.081   3.289   6.093  0.2316 -1.1235 -0.3960
    8SAPS   H4S  974   4.000   3.276   5.939 -1.2065  0.3484  0.3739
    8SAPS   C25  975   4.081   3.089   6.016  0.4983 -0.5197  0.1528
    8SAPS   H5R  976   4.134   3.046   6.103  1.8290 -0.1432 -0.4479
    8SAPS   C26  977   4.089   3.010   5.910  0.4024  0.3540  0.7768
    8SAPS   H6R  978   4.125   2.906   5.920 -2.0029 -0.4847  1.3888
    8SAPS   C27  979   4.032   3.051   5.776  0.3197 -0.4654 -0.2196
    8SAPS   H7R  980   4.021   3.160   5.758  0.6821 -0.7806 -2.6267
    8SAPS   H7S  981   3.931   3.006   5.769  0.6556 -1.7601  2.2279
    8SAPS   C28  982   4.126   2.991   5.670  0.4284  0.3587  0.4713
    8SAPS   H8R  983   4.204   2.919   5.700  0.2721 -1.5927 -3.2467
    8SAPS   C29  984   4.134   3.026   5.539 -0.1984 -0.2958 -1.2130
    8SAPS   H9R  985   4.211   2.976   5.479  1.2065  0.3621 -0.0386
    8SAPS  C210  986   4.045   3.128   5.469  0.2585  0.6229  0.2216
    8SAPS  H10R  987   4.113   3.192   5.409 -1.0104  0.2010 -1.7602
    8SAPS  H10S  988   3.996   3.194   5.545  0.3886  0.2285  0.6529
    8SAPS  C211  989   3.942   3.087   5.373  0.0422  0.3977  0.6805
    8SAPS  H11R  990   3.852   3.044   5.419  0.3077 -1.2919 -0.2830
    8SAPS  C212  991   3.944   3.077   5.237 -0.4782  0.3339 -0.3534
    8SAPS  H12R  992   3.854   3.036   5.191 -1.0571  0.3816  0.7015
    8SAPS  C213  993   4.069   3.104   5.156 -0.4909 -0.0982 -0.4205
    8SAPS  H13R  994   4.113   3.002   5.151  0.5900  0.3281 -0.0640
    8SAPS  H13S  995   4.145   3.170   5.204  1.2875 -1.3156 -1.4373
    8SAPS  C214  996   4.035   3.148   5.017  0.0988 -0.3671  0.2613
    8SAPS  H14R  997   4.015   3.257   5.018  0.1741 -0.3222  2.2920
    8SAPS  C215  998   4.017   3.081   4.903  0.0827  0.5328 -0.1484
    8SAPS  H15R  999   3.995   3.140   4.813  0.9672 -1.4323 -1.7265
    8SAPS  C216 1000   4.047   2.933   4.882  0.3248 -0.4415 -0.0160
    8SAPS  H16R 1001   3.953   2.881   4.853  0.3220 -0.1109 -0.6166
    8SAPS  H16S 1002   4.096   2.885   4.969  0.9521 -0.6645 -0.4771
    8SAPS  C217 1003   4.155   2.925   4.774  0.0276 -0.1266 -0.5198
    8SAPS  H17R 1004   4.249   2.968   4.813 -0.3338 -0.3563  0.6532
    8SAPS  H17S 1005   4.124   2.978   4.682  3.4425  0.4807 -1.4368
    8SAPS  C218 1006   4.183   2.776   4.729  0.6858  0.6125  0.2848
    8SAPS  H18R 1007   4.088   2.753   4.676  1.0838  0.4880 -0.3823
    8SAPS  H18S 1008   4.193   2.705   4.813  3.5437  0.3516 -0.1682
    8SAPS  C219 1009   4.298   2.759   4.633 -0.1010  0.8215 -0.1149
    8SAPS  H19R 1010   4.389   2.810   4.673 -0.1892  2.1511 -1.5050
    8SAPS  H19S 1011   4.277   2.812   4.538 -1.8207 -0.1066 -0.2961
    8SAPS  C220 1012   4.332   2.610   4.607  0.4342  0.2381 -0.2511
    8SAPS  H20R 1013   4.250   2.575   4.540  0.1098 -1.2279  0.8464
    8SAPS  H20S 1014   4.335   2.548   4.699 -0.9822 -0.1931 -0.4721
    8SAPS  H20T 1015   4.432   2.603   4.560  0.9399  1.0464  0.6728
    8SAPS   C33 1016   4.153   3.591   5.988 -0.7601 -0.7527 -0.3981
    8SAPS   H3X 1017   4.045   3.617   5.983 -0.9389 -1.1081  1.0268
    8SAPS   H3Y 1018   4.167   3.488   6.027 -2.3664 -0.1327  1.9961
    8SAPS   C34 1019   4.202   3.617   5.842  0.2031  0.7056  0.9188
    8SAPS   H4X 1020   4.312   3.606   5.834  0.1429 -0.3178  1.2365
    8SAPS   H4Y 1021   4.174   3.721   5.817 -0.5655  0.2779 -0.0821
    8SAPS   C35 1022   4.138   3.524   5.738  0.1813 -0.5429 -0.8166
    8SAPS   H5X 1023   4.028   3.541   5.746  0.6473  4.4154 -1.6599
    8SAPS   H5Y 1024   4.170   3.422   5.768  2.2933 -0.1739 -1.6397
    8SAPS   C36 1025   4.176   3.562   5.594  0.6939 -0.5995  0.0874
    8SAPS   H6X 1026   4.280   3.527   5.576  1.0411  1.3992 -2.3679
    8SAPS   H6Y 1027   4.174   3.673   5.586  1.4475 -0.2850  3.2005
    8SAPS   C37 1028   4.083   3.503   5.485 -0.7552  0.2692  0.0305
    8SAPS   H7X 1029   3.973   3.512   5.502 -1.0919  0.2267 -1.8764
    8SAPS   H7Y 1030   4.096   3.393   5.492  1.9580  0.5924  1.1847
    8SAPS   C38 1031   4.104   3.574   5.353 -0.0259  0.1548 -0.0855
    8SAPS   H8X 1032   4.212   3.595   5.336 -0.0530 -0.0523 -0.5373
    8SAPS   H8Y 1033   4.049   3.670   5.353 -2.8482 -1.3464 -0.9122
    8SAPS   C39 1034   4.039   3.502   5.235  0.1638 -0.3508  0.2441
    8SAPS   H9X 1035   3.931   3.529   5.225 -0.5701 -2.6942  1.1255
    8SAPS   H9Y 1036   4.037   3.393   5.255  0.3682 -0.3992 -0.0023
    8SAPS  C310 1037   4.114   3.527   5.102  0.2041 -0.0830  0.2314
    8SAPS  H10X 1038   4.139   3.634   5.089 -0.6731  0.0955 -0.0147
    8SAPS  H10Y 1039   4.037   3.492   5.030  1.7360 -0.2251 -1.4316
    8SAPS  C311 1040   4.248   3.455   5.099 -0.2441 -0.2122  0.3309
    8SAPS  H11X 1041   4.237   3.345   5.102  2.2822 -0.6339 -2.0461
    8SAPS  H11Y 1042   4.314   3.489   5.181 -1.9781  0.1782  1.6261
    8SAPS  C312 1043   4.328   3.485   4.968 -0.4267 -0.6535  0.4690
    8SAPS  H12X 1044   4.420   3.423   4.965  0.3237  0.4581 -1.5191
    8SAPS  H12Y 1045   4.378   3.584   4.977 -0.7553 -0.4775  0.3953
    8SAPS  C313 1046   4.256   3.462   4.833 -0.5447  0.3741 -0.4184
    8SAPS  H13X 1047   4.150   3.495   4.838 -0.7192 -0.1805 -0.3600
    8SAPS  H13Y 1048   4.270   3.353   4.817  0.1805  0.3776  0.0862
    8SAPS  C314 1049   4.324   3.541   4.719  0.1841 -1.0083 -0.5860
    8SAPS  H14X 1050   4.307   3.649   4.741 -0.1061 -1.2435  0.4025
    8SAPS  H14Y 1051   4.263   3.517   4.630  1.9398 -2.8653 -1.3734
    8SAPS  C315 1052   4.474   3.519   4.699  0.2236 -0.2317  0.0902
    8SAPS  H15X 1053   4.502   3.415   4.727  0.1297  0.3146  2.4603
    8SAPS  H15Y 1054   4.534   3.582   4.768 -0.9886 -0.1752  1.1229
    8SAPS  C316 1055   4.508   3.560   4.555 -0.2106 -0.1773  0.3134
    8SAPS  H16X 1056   4.436   3.640   4.527 -2.4203 -1.3979  2.1829
    8SAPS  H16Y 1057   4.497   3.476   4.483 -0.5274  0.5511 -0.4956
    8SAPS  C317 1058   4.651   3.614   4.540  0.7817 -0.4055  0.0274
    8SAPS  H17X 1059   4.691   3.640   4.641  1.5232 -1.5642  0.0533
    8SAPS  H17Y 1060   4.648   3.705   4.476 -1.3284  1.0888  2.0775
    8SAPS  C318 1061   4.752   3.511   4.486 -0.1727 -0.5074 -0.5200
    8SAPS  H18X 1062   4.754   3.501   4.376  4.0865  0.3914 -0.6663
    8SAPS  H18Y 1063   4.742   3.415   4.542 -0.1188  0.7433  1.7427
    8SAPS  H18Z 1064   4.855   3.548   4.503 -0.4497  0.0194  0.0476
    9SAPS     N 1065   4.676   2.669   7.375  0.2524 -0.7359 -0.2130
    9SAPS   HN1 1066   4.577   2.669   7.343 -0.3975 -0.2743  1.6336
    9SAPS   HN2 1067   4.672   2.672   7.479  2.4497 -1.4066 -0.0647
    9SAPS   HN3 1068   4.729   2.750   7.337 -1.3344  1.2747  1.5920
    9SAPS   C12 1069   4.740   2.541   7.335 -0.7149  0.7230 -0.1159
    9SAPS  H12A 1070   4.829   2.554   7.275 -1.6456 -0.5041 -1.8875
    9SAPS   C13 1071   4.771   2.443   7.451 -0.3711 -0.5438  0.7878
    9SAPS  O13A 1072   4.761   2.483   7.568  0.6711  0.5804 -0.2092
    9SAPS  O13B 1073   4.816   2.329   7.414  0.3358 -0.1882  0.2339
    9SAPS   C11 1074   4.642   2.458   7.250 -0.3312 -0.2870  0.1160
    9SAPS  H11A 1075   4.551   2.435   7.309  0.7462  0.5591  2.1990
    9SAPS  H11B 1076   4.685   2.367   7.204  0.3250  0.2759 -0.4109
    9SAPS     P 1077   4.575   2.493   6.992 -0.2961 -0.1014 -0.0671
    9SAPS   O13 1078   4.574   2.343   6.997  0.4118 -0.3575 -0.1466
    9SAPS   O14 1079   4.452   2.557   6.955 -0.2177 -0.5339  0.0212
    9SAPS   O12 1080   4.604   2.550   7.138  0.0006 -0.4951 -0.2666
    9SAPS   O11 1081   4.689   2.548   6.903  0.2382 -0.0412  0.8338
    9SAPS    C1 1082   4.823   2.505   6.913 -0.3178  0.1053 -0.5223
    9SAPS    HA 1083   4.858   2.537   7.013 -1.0335 -1.9515  0.4480
    9SAPS    HB 1084   4.829   2.394   6.921 -0.1013  0.0950 -0.8043
    9SAPS    C2 1085   4.907   2.552   6.786 -0.4059  0.5866  0.4425
    9SAPS    HS 1086   4.879   2.659   6.775 -1.7802  0.2588  0.5438
    9SAPS   O21 1087   4.869   2.468   6.671 -0.4531 -0.5111  0.6444
    9SAPS   C21 1088   4.862   2.525   6.552  0.5161  0.4645  0.2170
    9SAPS   O22 1089   4.870   2.644   6.521  0.2199  0.2819  1.1399
    9SAPS   C22 1090   4.838   2.421   6.443 -1.1730 -0.0513 -0.3527
    9SAPS   H2R 1091   4.828   2.317   6.481  0.2087 -0.0957 -0.0450
    9SAPS   H2S 1092   4.743   2.461   6.403 -2.1266  0.2933  2.1241
    9SAPS    C3 1093   5.062   2.539   6.805 -0.0851 -0.1983  0.0088
    9SAPS    HX 1094   5.070   2.432   6.835  0.3940 -0.4978 -1.1266
    9SAPS    HY 1095   5.107   2.589   6.894 -1.0379 -1.0517  0.9996
    9SAPS   O31 1096   5.140   2.572   6.686  0.2078  0.3971  0.4359
    9SAPS   C31 1097   5.152   2.705   6.662 -0.0969  0.8027  0.3487
    9SAPS   O32 1098   5.093   2.794   6.717 -0.4292 -0.0297 -0.3275
    9SAPS   C32 1099   5.260   2.728   6.543 -0.3210 -0.3028 -0.3549
    9SAPS   H2X 1100   5.321   2.636   6.530 -0.0994 -0.0246 -1.3657
    9SAPS   H2Y 1101   5.326   2.808   6.584 -0.2153  0.1090 -1.3045
    9SAPS   C23 1102   4.944   2.444   6.332 -0.3906  0.1084 -0.1529
    9SAPS   H3R 1103   5.047   2.422   6.366 -0.1798  0.3254 -0.6402
    9SAPS   H3S 1104   4.951   2.549   6.298  0.5128  0.2023  0.2982
    9SAPS   C24 1105   4.909   2.361   6.203 -0.4862 -0.0828 -0.3807
    9SAPS   H4R 1106   4.816   2.406   6.161 -0.4135 -1.3975 -2.0618
    9SAPS   H4S 1107   4.875   2.257   6.222 -1.5181 -0.2124 -2.6413
    9SAPS   C25 1108   5.023   2.354   6.101  0.2519 -0.2917 -0.1167
    9SAPS   H5R 1109   5.119   2.319   6.142  1.1635  1.1487 -0.9264
    9SAPS   C26 1110   5.021   2.384   5.972 -0.0690 -0.2356 -0.1874
    9SAPS   H6R 1111   5.107   2.363   5.907 -0.0296 -0.7184  0.0137
    9SAPS   C27 1112   4.911   2.438   5.889 -0.2918 -0.2402  0.0533
    9SAPS   H7R 1113   4.821   2.460   5.951  0.9859  1.6692  1.3300
    9SAPS   H7S 1114   4.880   2.370   5.807 -1.2048  1.5867 -1.1981
    9SAPS   C28 1115   4.954   2.566   5.822  0.4459 -0.3900  0.3593
    9SAPS   H8R 1116   4.956   2.657   5.883  1.7005 -0.5993  0.6452
    9SAPS   C29 1117   4.974   2.584   5.692  0.5391  0.2991  0.4840
    9SAPS   H9R 1118   5.002   2.680   5.648 -0.0986  0.9113  1.3597
    9SAPS  C210 1119   4.972   2.483   5.581  0.5307 -0.1754  0.2616
    9SAPS  H10R 1120   4.933   2.540   5.495 -1.2631 -0.8583  0.5782
    9SAPS  H10S 1121   4.899   2.401   5.596 -1.4345  1.4990  0.2625
    9SAPS  C211 1122   5.109   2.427   5.559 -0.3450  0.0927  0.4758
    9SAPS  H11R 1123   5.146   2.364   5.641 -0.3594 -2.2301 -1.2000
    9SAPS  C212 1124   5.193   2.440   5.452  0.3273 -0.6865  0.8022
    9SAPS  H12R 1125   5.298   2.410   5.456  0.5379 -0.2938 -0.8823
    9SAPS  C213 1126   5.161   2.533   5.330  0.1607  0.2628  0.4367
    9SAPS  H13R 1127   5.247   2.601   5.313 -0.2092  0.3686 -1.1929
    9SAPS  H13S 1128   5.068   2.589   5.354  0.2875  1.3144 -1.4163
    9SAPS  C214 1129   5.138   2.455   5.206  0.4342 -0.1845 -0.0565
    9SAPS  H14R 1130   5.073   2.366   5.215 -2.5239  1.6478 -1.5878
    9SAPS  C215 1131   5.189   2.480   5.084  0.5606 -0.0444 -0.0605
    9SAPS  H15R 1132   5.152   2.424   4.997  0.0823 -1.3592  0.9713
    9SAPS  C216 1133   5.284   2.593   5.045 -0.4005  0.6721  0.2283
    9SAPS  H16R 1134   5.377   2.549   5.001 -1.1088  1.0318 -1.7215
    9SAPS  H16S 1135   5.314   2.647   5.137 -0.9616  0.0656  0.7821
    9SAPS  C217 1136   5.238   2.687   4.933  0.1354 -0.4673 -0.4289
    9SAPS  H17R 1137   5.321   2.750   4.895 -2.3711  2.1209 -1.9862
    9SAPS  H17S 1138   5.152   2.755   4.954  1.4941  2.1737 -2.7177
    9SAPS  C218 1139   5.191   2.609   4.809 -0.0313 -0.1236  0.5712
    9SAPS  H18R 1140   5.095   2.556   4.828 -0.2233 -0.1004 -0.2927
    9SAPS  H18S 1141   5.265   2.526   4.802 -0.7195 -0.6683 -0.6077
    9SAPS  C219 1142   5.185   2.675   4.678 -0.2803 -0.2237  0.0062
    9SAPS  H19R 1143   5.120   2.762   4.698  1.6146  1.0411  0.8934
    9SAPS  H19S 1144   5.143   2.613   4.596  0.6897  0.1951 -0.8274
    9SAPS  C220 1145   5.325   2.731   4.633  0.1971  0.3611 -0.2466
    9SAPS  H20R 1146   5.348   2.813   4.703 -0.2964 -0.0399  0.3960
    9SAPS  H20S 1147   5.307   2.780   4.535  0.6445  1.8175  0.3886
    9SAPS  H20T 1148   5.401   2.649   4.631 -2.4478 -2.3483  1.2183
    9SAPS   C33 1149   5.211   2.763   6.398 -0.0356  0.0006 -0.1365
    9SAPS   H3X 1150   5.131   2.688   6.376 -0.1444  0.4653 -1.4006
    9SAPS   H3Y 1151   5.301   2.751   6.334  0.4475  2.0161  0.1086
    9SAPS   C34 1152   5.161   2.906   6.385 -0.8023 -0.2055  0.1240
    9SAPS   H4X 1153   5.241   2.977   6.416  1.4178 -2.3755 -0.3688
    9SAPS   H4Y 1154   5.084   2.918   6.465  2.2396  0.3879  3.2419
    9SAPS   C35 1155   5.127   2.923   6.240  0.0521  0.0029  0.2763
    9SAPS   H5X 1156   5.047   2.852   6.209 -2.5904  2.5145  0.8311
    9SAPS   H5Y 1157   5.223   2.905   6.187  0.3211 -2.8230  1.5443
    9SAPS   C36 1158   5.071   3.059   6.214  0.2976 -0.5814 -0.1099
    9SAPS   H6X 1159   5.148   3.125   6.260  0.1239  0.4546 -1.2324
    9SAPS   H6Y 1160   4.979   3.070   6.277 -0.4156 -0.8067 -1.0897
    9SAPS   C37 1161   5.052   3.082   6.065 -0.6163  0.1653  0.0514
    9SAPS   H7X 1162   5.152   3.083   6.017 -0.8483  0.2506 -0.4422
    9SAPS   H7Y 1163   4.991   3.173   6.046 -0.7853  0.1536  0.5253
    9SAPS   C38 1164   4.961   2.987   6.000 -0.3346  0.1803 -0.0953
    9SAPS   H8X 1165   4.870   2.977   6.064 -1.3885 -1.9422 -1.7770
    9SAPS   H8Y 1166   5.000   2.883   6.001 -0.2824  0.2011  0.0436
    9SAPS   C39 1167   4.917   3.014   5.862  0.4376  0.0623  0.0406
    9SAPS   H9X 1168   4.879   3.118   5.857 -1.0079 -0.4085  0.6856
    9SAPS   H9Y 1169   4.822   2.957   5.849  0.2771  0.1762  0.7124
    9SAPS  C310 1170   5.024   2.965   5.754  0.5725  0.2373  0.2016
    9SAPS  H10X 1171   5.077   2.873   5.787 -0.6190 -0.3180  0.6353
    9SAPS  H10Y 1172   5.098   3.047   5.745  1.7494 -0.8686 -0.6506
    9SAPS  C311 1173   4.944   2.940   5.621  0.9007  0.1039 -0.0156
    9SAPS  H11X 1174   4.874   3.027   5.626  0.9061  0.0956  0.2241
    9SAPS  H11Y 1175   4.880   2.851   5.639 -0.1606  0.8148 -0.1181
    9SAPS  C312 1176   5.014   2.916   5.486 -0.1414  0.1186 -1.1283
    9SAPS  H12X 1177   4.944   2.881   5.407  0.4483  1.1079 -2.1228
    9SAPS  H12Y 1178   5.092   2.837   5.499 -1.7250 -1.2002  1.0527
    9SAPS  C313 1179   5.079   3.042   5.434 -0.8796  0.1981 -0.4306
    9SAPS  H13X 1180   5.158   3.076   5.505  0.5203  0.0577 -1.8474
    9SAPS  H13Y 1181   5.007   3.125   5.420  0.8813  1.7931 -0.4273
    9SAPS  C314 1182   5.136   3.027   5.291  0.3445 -0.3236  0.5789
    9SAPS  H14X 1183   5.055   2.977   5.234 -0.3845 -0.7949  1.9798
    9SAPS  H14Y 1184   5.221   2.955   5.300 -0.6127 -1.4265  1.1112
    9SAPS  C315 1185   5.174   3.164   5.229  0.6606 -0.0146 -0.1891
    9SAPS  H15X 1186   5.283   3.171   5.246  0.3044 -0.7693  3.0375
    9SAPS  H15Y 1187   5.116   3.250   5.270  0.7913  0.1335 -0.3142
    9SAPS  C316 1188   5.143   3.173   5.080  0.6686  0.4015  0.4939
    9SAPS  H16X 1189   5.181   3.275   5.058 -1.4262  1.1494  0.1220
    9SAPS  H16Y 1190   5.032   3.163   5.070  0.5293  0.8441  1.5034
    9SAPS  C317 1191   5.217   3.068   4.998 -0.6931 -0.6785 -0.5667
    9SAPS  H17X 1192   5.161   3.032   4.909  0.1912 -1.2880 -0.8938
    9SAPS  H17Y 1193   5.228   2.980   5.065  1.0503  0.1526  0.3094
    9SAPS  C318 1194   5.358   3.108   4.952 -0.2676 -0.2029  0.5678
    9SAPS  H18X 1195   5.416   3.135   5.043  1.8866  0.3374 -0.8755
    9SAPS  H18Y 1196   5.361   3.200   4.890  2.2405 -1.1567 -0.8834
    9SAPS  H18Z 1197   5.394   3.023   4.890 -2.6718 -0.9049  0.0125
   10SAPS     N 1198   3.909   1.445   6.500 -0.6534 -0.0734 -0.5421
   10SAPS   HN1 1199   3.924   1.347   6.469 -1.6209 -0.4665  0.2025
   10SAPS   HN2 1200   3.810   1.462   6.471 -0.1468  1.0293 -1.7769
   10SAPS   HN3 1201   3.979   1.501   6.446 -0.2413 -0.2989 -0.2502
   10SAPS   C12 1202   3.933   1.467   6.642 -0.5645  0.1523  0.3485
   10SAPS  H12A 1203   4.030   1.513   6.648 -0.7942  0.4779  2.0577
   10SAPS   C13 1204   3.850   1.576   6.721 -0.4322  0.2166 -0.3054
   10SAPS  O13A 1205   3.792   1.663   6.654  0.1323 -0.4543  0.1660
   10SAPS  O13B 1206   3.881   1.598   6.841 -0.4908  0.2917 -0.0453
   10SAPS   C11 1207   3.915   1.323   6.718 -0.2617 -0.3827 -0.2279
   10SAPS  H11A 1208   3.959   1.325   6.819 -1.4013  1.3600  0.2872
   10SAPS  H11B 1209   3.964   1.244   6.657 -0.7790  0.1272 -1.3527
   10SAPS     P 1210   3.723   1.144   6.724 -0.1503  0.2462  0.3482
   10SAPS   O13 1211   3.790   1.064   6.826 -0.3231 -0.1473 -0.5169
   10SAPS   O14 1212   3.573   1.158   6.738 -0.0270  0.4095 -0.0391
   10SAPS   O12 1213   3.771   1.293   6.720 -0.5915  0.1443  0.0855
   10SAPS   O11 1214   3.757   1.075   6.585 -0.6068 -0.4597 -0.1538
   10SAPS    C1 1215   3.696   0.950   6.550 -0.2625 -0.4897  0.8131
   10SAPS    HA 1216   3.760   0.864   6.579 -0.9863 -2.0999 -1.9730
   10SAPS    HB 1217   3.593   0.930   6.586 -0.7742  0.1120 -0.2886
   10SAPS    C2 1218   3.686   0.947   6.391  0.5008 -0.3964  0.1739
   10SAPS    HS 1219   3.628   0.855   6.368 -0.2700  0.3111 -0.7765
   10SAPS   O21 1220   3.814   0.939   6.330  0.0953  0.6160 -0.3295
   10SAPS   C21 1221   3.863   0.816   6.327 -0.1061 -0.3525 -0.6336
   10SAPS   O22 1222   3.818   0.716   6.379 -0.0011 -0.0813 -0.4979
   10SAPS   C22 1223   3.986   0.818   6.237  0.2574 -0.1838 -0.3589
   10SAPS   H2R 1224   3.992   0.912   6.179 -0.4521  0.4031  0.5038
   10SAPS   H2S 1225   4.072   0.823   6.307 -0.2707 -2.7331  0.6031
   10SAPS    C3 1226   3.606   1.061   6.334 -0.1942 -0.3007  0.0270
   10SAPS    HX 1227   3.656   1.157   6.360  0.0058  0.9796 -4.3428
   10SAPS    HY 1228   3.506   1.063   6.382 -0.2485  0.4898 -0.1111
   10SAPS   O31 1229   3.581   1.050   6.197  0.6693 -0.3420  0.6190
   10SAPS   C31 1230   3.665   1.114   6.121 -0.3266  0.3541  0.6054
   10SAPS   O32 1231   3.751   1.192   6.154  0.0575 -0.0313  0.1277
   10SAPS   C32 1232   3.638   1.066   5.974  0.1484 -0.0084  0.2235
   10SAPS   H2X 1233   3.699   0.974   5.961  0.8574  0.3255  1.1084
   10SAPS   H2Y 1234   3.681   1.145   5.909 -2.5577 -1.1106 -3.2288
   10SAPS   C23 1235   4.005   0.700   6.132  0.2086 -0.1325  0.3775
   10SAPS   H3R 1236   3.986   0.601   6.180 -1.1871 -0.2109 -0.2798
   10SAPS   H3S 1237   4.107   0.698   6.089  0.4627  0.9351  0.8956
   10SAPS   C24 1238   3.912   0.710   6.015  0.2364 -0.1083  0.3476
   10SAPS   H4R 1239   3.806   0.722   6.047 -0.7175 -2.9784 -1.3889
   10SAPS   H4S 1240   3.912   0.613   5.961 -0.0986  0.0316  0.0847
   10SAPS   C25 1241   3.949   0.824   5.918  0.2849  0.3389  0.1934
   10SAPS   H5R 1242   3.982   0.921   5.960 -0.1079  0.7233 -0.3689
   10SAPS   C26 1243   3.948   0.812   5.781 -0.6751 -0.1156 -0.2078
   10SAPS   H6R 1244   3.979   0.904   5.728  2.5823 -0.7670  0.3882
   10SAPS   C27 1245   3.903   0.703   5.689 -0.6416  0.7184 -0.0289
   10SAPS   H7R 1246   3.851   0.751   5.603  2.5470  0.1261 -2.4789
   10SAPS   H7S 1247   3.837   0.630   5.740  1.1135 -0.6424  0.4083
   10SAPS   C28 1248   4.017   0.619   5.635  0.0992  0.0737  0.6726
   10SAPS   H8R 1249   4.026   0.522   5.686 -0.8073 -1.1511 -1.3739
   10SAPS   C29 1250   4.099   0.640   5.528 -0.2876 -0.0013  0.4401
   10SAPS   H9R 1251   4.181   0.569   5.508  1.6117  1.8977  1.1709
   10SAPS  C210 1252   4.104   0.772   5.457  0.6335 -0.1593 -0.1655
   10SAPS  H10R 1253   4.097   0.866   5.516 -1.8848 -0.2646 -0.2046
   10SAPS  H10S 1254   4.010   0.779   5.399  0.0163 -1.5730  0.6020
   10SAPS  C211 1255   4.222   0.784   5.365  0.4587  0.1646 -0.7911
   10SAPS  H11R 1256   4.213   0.737   5.266  3.7395 -1.3133 -0.5214
   10SAPS  C212 1257   4.343   0.828   5.398 -0.0530  0.1400 -0.1085
   10SAPS  H12R 1258   4.422   0.816   5.322  0.8996  0.8389  0.7491
   10SAPS  C213 1259   4.391   0.882   5.531  0.2070  0.2469  0.2312
   10SAPS  H13R 1260   4.314   0.950   5.573  0.2056  1.3752 -1.4958
   10SAPS  H13S 1261   4.478   0.950   5.519  1.0569  0.2259  4.6319
   10SAPS  C214 1262   4.432   0.765   5.619 -0.4352 -0.5870  0.8724
   10SAPS  H14R 1263   4.490   0.687   5.568  0.7244  0.8334 -0.0390
   10SAPS  C215 1264   4.406   0.730   5.746  0.6167 -0.3097 -0.1224
   10SAPS  H15R 1265   4.444   0.632   5.779 -0.4797 -0.7121 -0.0402
   10SAPS  C216 1266   4.315   0.796   5.850 -1.0200  0.2434 -0.4907
   10SAPS  H16R 1267   4.245   0.718   5.886 -1.4850  0.4976 -0.8341
   10SAPS  H16S 1268   4.254   0.883   5.818  0.7270  1.6011 -0.3444
   10SAPS  C217 1269   4.387   0.857   5.969 -0.1854 -0.0990 -0.1188
   10SAPS  H17R 1270   4.460   0.784   6.011  1.2913  0.5025 -1.5377
   10SAPS  H17S 1271   4.311   0.888   6.044 -0.0421  0.0238 -0.0233
   10SAPS  C218 1272   4.481   0.976   5.938 -0.0069 -1.2141  0.3352
   10SAPS  H18R 1273   4.441   1.025   5.846  1.3418  0.8199  0.7697
   10SAPS  H18S 1274   4.584   0.943   5.914 -0.2625 -2.3032  0.6720
   10SAPS  C219 1275   4.493   1.089   6.044  0.3558  0.4830  0.2284
   10SAPS  H19R 1276   4.577   1.160   6.030  0.7787 -0.1441 -0.5210
   10SAPS  H19S 1277   4.517   1.039   6.140  1.9636  1.8533  0.5892
   10SAPS  C220 1278   4.359   1.168   6.068 -0.3455  0.1904  0.9285
   10SAPS  H20R 1279   4.355   1.202   6.174 -1.5044  1.4340  0.5159
   10SAPS  H20S 1280   4.274   1.096   6.063  2.7126 -3.7279 -0.2679
   10SAPS  H20T 1281   4.347   1.249   5.994  0.8985 -0.6254 -0.2200
   10SAPS   C33 1282   3.489   1.058   5.930  0.6938 -0.8189  0.0091
   10SAPS   H3X 1283   3.440   1.154   5.908 -2.2231 -2.4539 -1.1863
   10SAPS   H3Y 1284   3.428   1.007   6.008  0.7822 -2.3560 -0.8683
   10SAPS   C34 1285   3.469   0.966   5.804 -0.3026  0.3878  0.4233
   10SAPS   H4X 1286   3.358   0.956   5.799 -0.2531  0.4370 -3.2022
   10SAPS   H4Y 1287   3.519   0.867   5.810 -0.2291  0.4876  1.7495
   10SAPS   C35 1288   3.510   1.029   5.669  0.0225 -0.5559  0.0668
   10SAPS   H5X 1289   3.498   1.139   5.682 -1.8725 -0.3581 -2.6159
   10SAPS   H5Y 1290   3.446   0.997   5.584 -0.6151  0.3237  0.2033
   10SAPS   C36 1291   3.660   0.997   5.639  0.0332  0.2510  0.5359
   10SAPS   H6X 1292   3.680   0.889   5.624  3.6348  1.0281 -1.5044
   10SAPS   H6Y 1293   3.719   1.032   5.726  0.9060 -3.3256  1.5622
   10SAPS   C37 1294   3.716   1.065   5.507 -0.0461  0.1861 -0.6564
   10SAPS   H7X 1295   3.709   1.176   5.507 -2.2129  0.1016 -0.9155
   10SAPS   H7Y 1296   3.652   1.031   5.423 -0.9528 -1.2402  0.5654
   10SAPS   C38 1297   3.856   1.037   5.462 -0.0050  0.3988 -0.4442
   10SAPS   H8X 1298   3.848   0.926   5.456 -1.9338  0.3461  1.8221
   10SAPS   H8Y 1299   3.934   1.063   5.537  1.2046 -1.3648 -1.0269
   10SAPS   C39 1300   3.881   1.095   5.322 -0.3119 -0.0385 -0.1741
   10SAPS   H9X 1301   3.838   1.197   5.327  0.7649  0.4080  0.4063
   10SAPS   H9Y 1302   3.820   1.034   5.252  1.0890 -1.2286 -0.4138
   10SAPS  C310 1303   4.029   1.097   5.274  0.4475  0.1183  0.0086
   10SAPS  H10X 1304   4.050   0.995   5.237 -0.7414  0.1257 -0.7261
   10SAPS  H10Y 1305   4.087   1.126   5.365 -2.3219 -1.6120  2.5152
   10SAPS  C311 1306   4.054   1.189   5.154  0.2356  0.2076  0.4475
   10SAPS  H11X 1307   4.003   1.284   5.179 -1.4781 -0.6574  0.4118
   10SAPS  H11Y 1308   3.997   1.144   5.070 -1.2220 -0.5120  1.7699
   10SAPS  C312 1309   4.201   1.221   5.113 -0.4429  0.4703  0.4176
   10SAPS  H12X 1310   4.237   1.145   5.040  2.7719  1.1238  1.1897
   10SAPS  H12Y 1311   4.259   1.220   5.208 -0.1530 -1.2584  0.2479
   10SAPS  C313 1312   4.200   1.361   5.053  0.1633 -0.5477  0.1472
   10SAPS  H13X 1313   4.169   1.435   5.130 -1.2049  1.8599 -2.5353
   10SAPS  H13Y 1314   4.121   1.373   4.976  0.1079  1.2910  0.4499
   10SAPS  C314 1315   4.329   1.411   4.992  0.7298 -0.1455 -0.2280
   10SAPS  H14X 1316   4.403   1.390   5.073 -0.7423 -1.8921  0.7308
   10SAPS  H14Y 1317   4.336   1.521   4.975 -0.6529  0.1658  0.9995
   10SAPS  C315 1318   4.385   1.336   4.872 -0.6904  0.1409  0.5575
   10SAPS  H15X 1319   4.368   1.227   4.871  0.7908 -0.1058  0.0009
   10SAPS  H15Y 1320   4.495   1.351   4.867 -0.6243  0.2714  2.1255
   10SAPS  C316 1321   4.337   1.390   4.733  0.5762 -0.4833 -0.0344
   10SAPS  H16X 1322   4.369   1.493   4.706 -1.3132  0.1942  0.1277
   10SAPS  H16Y 1323   4.226   1.395   4.744  0.8457  0.4944  3.1597
   10SAPS  C317 1324   4.364   1.284   4.615  0.0005 -0.6563 -0.4578
   10SAPS  H17X 1325   4.292   1.203   4.642 -0.3599  0.1279  1.1065
   10SAPS  H17Y 1326   4.467   1.244   4.622  1.1186  1.9397 -0.9416
   10SAPS  C318 1327   4.331   1.346   4.479 -0.0994 -0.2031  0.8280
   10SAPS  H18X 1328   4.306   1.273   4.399 -1.2463 -1.0441  1.9191
   10SAPS  H18Y 1329   4.414   1.411   4.445 -0.6170  0.7079  1.2493
   10SAPS  H18Z 1330   4.240   1.410   4.483 -0.1282 -0.3122  2.1923
   11SAPS     N 1331   4.723   4.615   2.379  0.3657  0.0145  0.1712
   11SAPS   HN1 1332   4.723   4.513   2.357 -0.2738  0.6155 -3.0321
   11SAPS   HN2 1333   4.822   4.642   2.360  0.2905  0.9633  1.0871
   11SAPS   HN3 1334   4.693   4.621   2.479  2.0944 -2.8588  0.9913
   11SAPS   C12 1335   4.626   4.675   2.287 -0.3180 -0.3410 -0.7517
   11SAPS  H12A 1336   4.628   4.782   2.302 -0.9305 -0.5995  1.6483
   11SAPS   C13 1337   4.682   4.640   2.148  0.6460 -0.1886 -0.1318
   11SAPS  O13A 1338   4.778   4.563   2.123 -0.6123 -0.6018 -0.7978
   11SAPS  O13B 1339   4.614   4.689   2.055 -0.0405  0.6418  0.1775
   11SAPS   C11 1340   4.483   4.619   2.307  0.6211  0.7559 -0.0537
   11SAPS  H11A 1341   4.475   4.508   2.305  0.7067  0.7507 -0.1524
   11SAPS  H11B 1342   4.422   4.661   2.225  1.4634  1.4627 -0.3399
   11SAPS     P 1343   4.429   4.581   2.562 -0.4466  0.1521  0.0225
   11SAPS   O13 1344   4.358   4.455   2.545  0.1505 -0.0512 -0.1134
   11SAPS   O14 1345   4.567   4.572   2.607 -0.1473  0.0524 -0.2465
   11SAPS   O12 1346   4.423   4.668   2.427 -0.2740  0.3829 -0.0743
   11SAPS   O11 1347   4.341   4.679   2.653  0.1090 -0.1277  0.8725
   11SAPS    C1 1348   4.380   4.815   2.672 -0.2863  0.0814  0.4587
   11SAPS    HA 1349   4.432   4.851   2.581 -2.1249 -0.9311 -1.0492
   11SAPS    HB 1350   4.282   4.868   2.677  0.0108  0.6967 -0.1002
   11SAPS    C2 1351   4.456   4.854   2.804  0.0640 -1.1212  0.3007
   11SAPS    HS 1352   4.562   4.822   2.795  0.5413  0.2471  0.7327
   11SAPS   O21 1353   4.395   4.783   2.914  0.5413  0.2271 -0.7831
   11SAPS   C21 1354   4.450   4.674   2.952  0.5153 -0.7525 -0.7542
   11SAPS   O22 1355   4.553   4.627   2.907  0.8744 -0.0982  0.1038
   11SAPS   C22 1356   4.355   4.588   3.035  0.4133  0.3653  0.6526
   11SAPS   H2R 1357   4.372   4.580   3.145 -0.5652 -1.2017  0.7158
   11SAPS   H2S 1358   4.251   4.613   3.007  1.0545  1.6754 -0.7263
   11SAPS    C3 1359   4.447   5.003   2.837  0.2303 -0.2617 -0.0323
   11SAPS    HX 1360   4.337   5.017   2.845  0.0579  0.1630 -2.5314
   11SAPS    HY 1361   4.486   5.050   2.744  2.6265 -1.7345  0.1411
   11SAPS   O31 1362   4.513   5.040   2.962 -0.4212 -0.0722  0.1773
   11SAPS   C31 1363   4.456   5.148   3.013 -0.3263 -0.3380 -0.0419
   11SAPS   O32 1364   4.363   5.213   2.967 -0.5683  0.0377  0.9475
   11SAPS   C32 1365   4.511   5.191   3.149  1.4611 -0.0592 -0.1867
   11SAPS   H2X 1366   4.422   5.208   3.214  0.2202 -4.4695 -0.3839
   11SAPS   H2Y 1367   4.562   5.288   3.133  2.3823 -0.8424 -2.4467
   11SAPS   C23 1368   4.366   4.440   2.994  0.3830 -0.0297 -0.2796
   11SAPS   H3R 1369   4.473   4.409   2.985  0.1520 -0.4420 -2.0766
   11SAPS   H3S 1370   4.310   4.432   2.899 -1.3201 -0.1396  0.7083
   11SAPS   C24 1371   4.303   4.340   3.090 -1.2439 -0.2974  0.6641
   11SAPS   H4R 1372   4.354   4.340   3.189 -1.7650  1.8508  0.9796
   11SAPS   H4S 1373   4.304   4.242   3.037  1.3883 -1.4281  2.5623
   11SAPS   C25 1374   4.166   4.390   3.117 -0.1980 -0.3530 -0.2962
   11SAPS   H5R 1375   4.106   4.402   3.025 -2.4173 -0.5131  1.0629
   11SAPS   C26 1376   4.107   4.406   3.237 -0.3340 -0.6738  0.2182
   11SAPS   H6R 1377   4.001   4.438   3.241 -0.0694  0.2184  0.3426
   11SAPS   C27 1378   4.168   4.399   3.376  0.2366 -0.0570  0.1982
   11SAPS   H7R 1379   4.124   4.468   3.451 -1.7647 -2.8793  1.8267
   11SAPS   H7S 1380   4.276   4.423   3.371  0.0046  1.0137  0.0920
   11SAPS   C28 1381   4.169   4.259   3.431 -1.1167 -0.3910 -0.1914
   11SAPS   H8R 1382   4.241   4.191   3.383 -3.0204 -1.0858 -2.2815
   11SAPS   C29 1383   4.110   4.210   3.540  0.0172 -0.4450 -0.0982
   11SAPS   H9R 1384   4.106   4.103   3.568 -1.3965 -1.0215 -2.2388
   11SAPS  C210 1385   4.006   4.295   3.625 -0.4715  0.5645 -0.2357
   11SAPS  H10R 1386   3.938   4.222   3.673 -1.0260  1.1822 -0.0639
   11SAPS  H10S 1387   3.947   4.360   3.556  0.6789 -0.2383 -2.0773
   11SAPS  C211 1388   4.068   4.376   3.739  0.0360  0.3237  0.3304
   11SAPS  H11R 1389   4.150   4.442   3.706 -1.2981  1.3077 -1.1661
   11SAPS  C212 1390   4.063   4.360   3.871 -0.2304 -0.3481 -0.8327
   11SAPS  H12R 1391   4.111   4.427   3.944  0.2887 -1.6593  0.0716
   11SAPS  C213 1392   3.967   4.274   3.944 -0.2288  0.3437  1.1595
   11SAPS  H13R 1393   3.884   4.249   3.874  0.2118 -1.6815  1.2935
   11SAPS  H13S 1394   3.914   4.326   4.027 -2.7722 -0.6465  0.2568
   11SAPS  C214 1395   4.026   4.145   3.998 -0.0115  0.5730  0.0729
   11SAPS  H14R 1396   4.071   4.083   3.919  0.6522 -0.3804  1.1691
   11SAPS  C215 1397   4.073   4.109   4.119  0.5805 -0.0429 -0.1364
   11SAPS  H15R 1398   4.108   4.006   4.134  1.1304  0.0460 -0.7345
   11SAPS  C216 1399   4.052   4.186   4.246  0.6906  0.3918 -0.1960
   11SAPS  H16R 1400   4.058   4.114   4.330  0.3970 -1.8471 -1.9728
   11SAPS  H16S 1401   3.952   4.234   4.245 -0.6559 -2.1965 -0.6793
   11SAPS  C217 1402   4.175   4.288   4.258  0.4160 -0.1778 -0.0342
   11SAPS  H17R 1403   4.147   4.368   4.186 -0.1370  1.2063  1.6442
   11SAPS  H17S 1404   4.262   4.231   4.221  1.5877  0.3762  1.7227
   11SAPS  C218 1405   4.204   4.342   4.405  0.5344  0.2090  0.2566
   11SAPS  H18R 1406   4.246   4.259   4.467 -0.5654 -0.0567  0.6585
   11SAPS  H18S 1407   4.111   4.378   4.453  0.1965  1.1488 -1.0476
   11SAPS  C219 1408   4.295   4.467   4.401  0.0084 -0.7900 -0.0287
   11SAPS  H19R 1409   4.298   4.487   4.511  0.3564 -0.6874 -0.0573
   11SAPS  H19S 1410   4.248   4.556   4.353  1.0691  0.6340  1.4507
   11SAPS  C220 1411   4.437   4.450   4.339  0.4051 -0.0861  0.9702
   11SAPS  H20R 1412   4.423   4.429   4.231 -2.3698 -2.6150  1.6650
   11SAPS  H20S 1413   4.482   4.358   4.384  1.9114 -0.6748 -1.5403
   11SAPS  H20T 1414   4.507   4.535   4.352  2.1541 -1.0339 -1.4596
   11SAPS   C33 1415   4.593   5.070   3.208  0.3335 -0.4375 -0.8414
   11SAPS   H3X 1416   4.674   5.043   3.136 -0.0043  1.5785 -2.0365
   11SAPS   H3Y 1417   4.513   4.996   3.231  1.1774 -0.2164  3.9741
   11SAPS   C34 1418   4.663   5.103   3.338 -0.8137  0.1248  0.6327
   11SAPS   H4X 1419   4.717   5.200   3.326 -0.7908 -0.0091 -0.3615
   11SAPS   H4Y 1420   4.742   5.026   3.347 -0.9430 -0.0636  0.1666
   11SAPS   C35 1421   4.575   5.105   3.464 -0.7567 -0.1699  0.6831
   11SAPS   H5X 1422   4.531   5.003   3.458 -0.8628 -0.0988  0.2468
   11SAPS   H5Y 1423   4.486   5.171   3.466 -0.3724  0.3510  0.6667
   11SAPS   C36 1424   4.653   5.145   3.587  0.0879  0.5054  0.4288
   11SAPS   H6X 1425   4.698   5.245   3.571  1.0392 -0.1620 -1.4125
   11SAPS   H6Y 1426   4.736   5.072   3.594 -1.5174 -1.3948  0.7956
   11SAPS   C37 1427   4.573   5.149   3.713  0.0746  0.1723  0.2030
   11SAPS   H7X 1428   4.568   5.048   3.759  2.0550  0.9715  2.3186
   11SAPS   H7Y 1429   4.467   5.178   3.694  0.2435 -0.2747 -1.6587
   11SAPS   C38 1430   4.648   5.230   3.816  1.0161 -0.8871 -0.3853
   11SAPS   H8X 1431   4.631   5.338   3.800  0.2294 -1.0179 -0.4725
   11SAPS   H8Y 1432   4.758   5.219   3.804  0.8444 -1.2976 -1.7889
   11SAPS   C39 1433   4.609   5.198   3.964  0.2707  0.0364 -0.1026
   11SAPS   H9X 1434   4.501   5.225   3.975  0.9066  1.8950  2.8087
   11SAPS   H9Y 1435   4.664   5.272   4.026 -1.1469  1.0669 -0.0071
   11SAPS  C310 1436   4.623   5.058   4.005 -0.6597 -0.8473 -0.3810
   11SAPS  H10X 1437   4.711   5.018   3.949 -0.3629 -0.1279 -0.4372
   11SAPS  H10Y 1438   4.542   4.987   3.978  0.1786 -1.7606 -0.5960
   11SAPS  C311 1439   4.660   5.048   4.156  0.0787  0.3493 -0.5491
   11SAPS  H11X 1440   4.759   5.095   4.178 -1.1364  1.3161  3.7126
   11SAPS  H11Y 1441   4.669   4.940   4.179  1.5860  0.8478  1.4307
   11SAPS  C312 1442   4.555   5.099   4.257  0.6309 -0.4768 -0.3765
   11SAPS  H12X 1443   4.450   5.092   4.223  0.1011  1.0942  0.8068
   11SAPS  H12Y 1444   4.570   5.209   4.272 -2.3112  0.2991 -2.2516
   11SAPS  C313 1445   4.590   5.029   4.392 -0.4124 -0.3517  0.1956
   11SAPS  H13X 1446   4.689   5.071   4.419 -2.0570  3.0672  1.4943
   11SAPS  H13Y 1447   4.591   4.918   4.381 -2.8343 -0.4018 -0.1904
   11SAPS  C314 1448   4.489   5.058   4.502 -0.2058 -0.7155 -0.4095
   11SAPS  H14X 1449   4.384   5.035   4.474 -0.2126 -2.3462  0.7801
   11SAPS  H14Y 1450   4.509   5.166   4.517  1.4865 -1.0612  0.0216
   11SAPS  C315 1451   4.519   4.984   4.636 -0.5108 -0.3300 -0.4663
   11SAPS  H15X 1452   4.628   4.978   4.654 -0.4448  0.4992 -0.5110
   11SAPS  H15Y 1453   4.473   4.884   4.627  0.8889 -1.1973  1.4672
   11SAPS  C316 1454   4.461   5.057   4.756  0.3787 -0.6764 -0.3403
   11SAPS  H16X 1455   4.351   5.046   4.756 -0.0649  2.4709  1.3982
   11SAPS  H16Y 1456   4.495   5.163   4.762 -2.1557  0.1459  1.2722
   11SAPS  C317 1457   4.520   4.996   4.884  0.5500  0.7576 -0.0040
   11SAPS  H17X 1458   4.504   5.070   4.965  2.5613  0.9590  0.2677
   11SAPS  H17Y 1459   4.629   4.980   4.875  0.5542  0.8160 -0.0563
   11SAPS  C318 1460   4.450   4.857   4.911  0.2868 -0.5308  0.1179
   11SAPS  H18X 1461   4.494   4.778   4.847  2.3799 -0.0906  0.9189
   11SAPS  H18Y 1462   4.340   4.850   4.896  0.0501  0.3054  1.3164
   11SAPS  H18Z 1463   4.457   4.831   5.019 -2.5935  1.4342  0.8863
   12SAPS     N 1464   5.161   4.372   2.255 -0.4374 -0.7030 -0.0610
   12SAPS   HN1 1465   5.094   4.325   2.318  1.6379 -0.7517  2.2361
   12SAPS   HN2 1466   5.100   4.428   2.191 -1.8569  0.9635  2.5915
   12SAPS   HN3 1467   5.222   4.301   2.210 -0.1335  0.4231 -1.5155
   12SAPS   C12 1468   5.239   4.463   2.346 -0.0174 -0.2127 -0.0373
   12SAPS  H12A 1469   5.328   4.502   2.299 -0.4573  0.9969  0.0833
   12SAPS   C13 1470   5.148   4.583   2.394  0.2821  0.2111  0.6684
   12SAPS  O13A 1471   5.032   4.600   2.347 -0.3673 -0.2772  0.4241
   12SAPS  O13B 1472   5.208   4.664   2.462  0.1934  0.0163 -0.1381
   12SAPS   C11 1473   5.278   4.383   2.473 -1.0694  0.6118  0.2542
   12SAPS  H11A 1474   5.183   4.358   2.525 -0.2601 -0.4757  1.2477
   12SAPS  H11B 1475   5.346   4.445   2.536  4.0168 -2.2336 -1.8588
   12SAPS     P 1476   5.471   4.204   2.513  0.1288  0.0558  0.1126
   12SAPS   O13 1477   5.478   4.065   2.481 -0.2729  0.4182  0.5733
   12SAPS   O14 1478   5.578   4.299   2.475  0.4465  0.2141  0.1200
   12SAPS   O12 1479   5.346   4.265   2.444 -0.1432 -0.1974  0.2659
   12SAPS   O11 1480   5.450   4.238   2.661  0.5285 -0.3717 -0.9259
   12SAPS    C1 1481   5.332   4.195   2.729  0.4735  0.5557  0.1436
   12SAPS    HA 1482   5.265   4.143   2.658  2.3986  0.7127 -1.9276
   12SAPS    HB 1483   5.355   4.110   2.797 -0.5575 -0.6409 -0.9550
   12SAPS    C2 1484   5.279   4.316   2.816  0.1196  0.0129  1.2084
   12SAPS    HS 1485   5.292   4.401   2.746  0.0100 -2.3165 -1.8147
   12SAPS   O21 1486   5.364   4.342   2.929 -0.2818 -0.5524 -0.1380
   12SAPS   C21 1487   5.337   4.467   2.978 -0.7287  0.3016  0.7580
   12SAPS   O22 1488   5.272   4.556   2.924  0.0958 -0.3754 -0.1333
   12SAPS   C22 1489   5.414   4.485   3.104  0.7423  1.0200  0.9857
   12SAPS   H2R 1490   5.447   4.386   3.141 -1.5910 -0.2518 -0.1325
   12SAPS   H2S 1491   5.503   4.548   3.081  0.1655  1.7617  0.7596
   12SAPS    C3 1492   5.124   4.298   2.854  0.0226 -0.8895 -0.0797
   12SAPS    HX 1493   5.067   4.307   2.759  0.3848  0.9543 -0.1495
   12SAPS    HY 1494   5.106   4.389   2.915  1.9034 -1.0661  0.8083
   12SAPS   O31 1495   5.097   4.176   2.929 -0.0832  0.2006 -0.0956
   12SAPS   C31 1496   5.041   4.071   2.868 -0.8385 -0.0309 -0.0812
   12SAPS   O32 1497   5.012   4.065   2.755 -0.2104 -0.1989 -0.2745
   12SAPS   C32 1498   5.041   3.956   2.965  0.2281  0.0091  0.8946
   12SAPS   H2X 1499   5.037   3.989   3.071  1.9098 -1.3129  1.4263
   12SAPS   H2Y 1500   5.146   3.920   2.956  0.3449  0.8045 -3.0301
   12SAPS   C23 1501   5.334   4.556   3.214 -0.8974  0.0147  0.4075
   12SAPS   H3R 1502   5.250   4.494   3.251  0.1148 -0.5139  1.8668
   12SAPS   H3S 1503   5.296   4.650   3.169  0.8909  0.4749 -0.2372
   12SAPS   C24 1504   5.427   4.598   3.324  0.4452  0.3343 -0.1868
   12SAPS   H4R 1505   5.506   4.661   3.276  0.7452 -0.2316 -0.4509
   12SAPS   H4S 1506   5.496   4.516   3.355  0.8419  0.6836 -0.1418
   12SAPS   C25 1507   5.351   4.675   3.430  0.0610 -0.5125 -0.2878
   12SAPS   H5R 1508   5.274   4.747   3.399  0.3273  1.0324  2.3687
   12SAPS   C26 1509   5.363   4.674   3.561 -0.4081 -0.2401 -0.2206
   12SAPS   H6R 1510   5.288   4.725   3.623  1.1375 -0.6132  2.0936
   12SAPS   C27 1511   5.466   4.597   3.650 -0.1558  0.0823 -0.2628
   12SAPS   H7R 1512   5.569   4.602   3.610  0.2927  0.8815  0.9513
   12SAPS   H7S 1513   5.440   4.489   3.654 -2.9567  0.6646 -0.3985
   12SAPS   C28 1514   5.467   4.667   3.782 -0.5837  0.2361  0.9899
   12SAPS   H8R 1515   5.505   4.771   3.774  0.5758 -0.3289 -3.4426
   12SAPS   C29 1516   5.432   4.614   3.896  0.5760  0.2408 -0.4561
   12SAPS   H9R 1517   5.436   4.677   3.986 -0.2933 -0.0597 -0.1957
   12SAPS  C210 1518   5.359   4.482   3.918 -0.1436  0.3461 -0.2736
   12SAPS  H10R 1519   5.282   4.465   3.840 -0.0713  4.0433 -1.3476
   12SAPS  H10S 1520   5.315   4.493   4.020  0.0487 -0.2371 -0.1228
   12SAPS  C211 1521   5.451   4.363   3.917 -0.0187  0.1304 -0.2487
   12SAPS  H11R 1522   5.530   4.382   3.842  0.8381 -0.8298  0.3883
   12SAPS  C212 1523   5.433   4.241   3.968  0.6456 -0.3841  0.1970
   12SAPS  H12R 1524   5.511   4.166   3.949  1.9684  0.2663  2.7377
   12SAPS  C213 1525   5.312   4.204   4.042 -0.0783  0.4345  0.1425
   12SAPS  H13R 1526   5.290   4.100   4.011 -1.1673  1.7222 -3.9823
   12SAPS  H13S 1527   5.225   4.265   4.010 -1.2417 -0.7070  1.0374
   12SAPS  C214 1528   5.315   4.215   4.194  0.4531  0.3114  0.1188
   12SAPS  H14R 1529   5.403   4.273   4.226  0.6221  0.9609 -1.4051
   12SAPS  C215 1530   5.222   4.168   4.281 -1.2073 -0.1988 -0.2202
   12SAPS  H15R 1531   5.243   4.198   4.384  0.3793 -0.0901 -0.5530
   12SAPS  C216 1532   5.100   4.080   4.255  0.0923 -0.2831 -0.3034
   12SAPS  H16R 1533   5.124   4.018   4.166 -1.0199  1.6463 -2.0129
   12SAPS  H16S 1534   5.005   4.137   4.251 -1.0036 -2.0795 -1.1354
   12SAPS  C217 1535   5.070   3.987   4.371  0.4303  0.0917 -0.4263
   12SAPS  H17R 1536   5.152   3.918   4.397  1.7849  1.2282 -1.5681
   12SAPS  H17S 1537   4.980   3.925   4.350  0.8700 -0.6523 -0.1518
   12SAPS  C218 1538   5.035   4.057   4.507  0.3215  0.0717  0.6495
   12SAPS  H18R 1539   4.956   4.131   4.483 -0.0642 -0.0170  1.5968
   12SAPS  H18S 1540   5.123   4.105   4.556  2.1909 -2.9968  0.5910
   12SAPS  C219 1541   4.981   3.955   4.610 -0.2297 -0.7427  0.4403
   12SAPS  H19R 1542   5.058   3.884   4.644  0.5322 -0.9683 -1.6323
   12SAPS  H19S 1543   4.897   3.902   4.560  1.1797 -1.6330 -1.0675
   12SAPS  C220 1544   4.938   4.029   4.739 -0.4173 -1.1448 -0.1928
   12SAPS  H20R 1545   5.015   4.095   4.784 -2.8538  0.5651  1.7145
   12SAPS  H20S 1546   4.916   3.962   4.824 -4.3631  2.3638  1.9540
   12SAPS  H20T 1547   4.852   4.099   4.729  0.6086  0.8015  3.0889
   12SAPS   C33 1548   4.949   3.834   2.942 -0.5588  0.2015 -0.3677
   12SAPS   H3X 1549   4.936   3.823   2.832  0.5973  0.8472 -0.5897
   12SAPS   H3Y 1550   4.852   3.852   2.991 -0.2331  1.2851 -0.0895
   12SAPS   C34 1551   5.011   3.698   2.987 -0.4108 -0.0658 -0.7215
   12SAPS   H4X 1552   5.116   3.669   2.965 -1.0298 -2.6638 -0.6304
   12SAPS   H4Y 1553   4.955   3.624   2.926  0.7638 -2.7757  1.2443
   12SAPS   C35 1554   4.977   3.678   3.141 -0.0767  0.4351 -0.4688
   12SAPS   H5X 1555   4.870   3.690   3.168 -0.5052  0.8017 -2.2121
   12SAPS   H5Y 1556   5.043   3.750   3.195  0.1459  0.1672 -0.3818
   12SAPS   C36 1557   5.020   3.538   3.193  0.6299  0.3063  0.7442
   12SAPS   H6X 1558   5.118   3.513   3.147  0.2602 -1.7404  0.9534
   12SAPS   H6Y 1559   4.953   3.463   3.145  0.8800  0.1828  0.5808
   12SAPS   C37 1560   5.043   3.536   3.344 -0.0636 -0.7666  0.1708
   12SAPS   H7X 1561   5.080   3.433   3.366 -0.9728 -0.7273  2.0980
   12SAPS   H7Y 1562   4.942   3.564   3.381 -0.0560  0.0653 -0.4257
   12SAPS   C38 1563   5.155   3.624   3.415  0.0205  0.0600  0.2157
   12SAPS   H8X 1564   5.125   3.729   3.394  0.4345 -0.4156 -3.1732
   12SAPS   H8Y 1565   5.253   3.610   3.366  0.4703  1.2396  0.7289
   12SAPS   C39 1566   5.163   3.600   3.561 -0.3964 -0.5216 -0.3337
   12SAPS   H9X 1567   5.201   3.499   3.590 -0.0309 -0.5462 -0.8701
   12SAPS   H9Y 1568   5.071   3.620   3.620  0.7275  0.3418  1.1938
   12SAPS  C310 1569   5.273   3.695   3.620 -0.5340 -0.4983  0.2504
   12SAPS  H10X 1570   5.262   3.804   3.597  4.0582  0.0083 -0.5169
   12SAPS  H10Y 1571   5.368   3.661   3.575  1.2318 -0.2457  3.5099
   12SAPS  C311 1572   5.281   3.683   3.771 -0.4335 -0.1763 -0.3229
   12SAPS  H11X 1573   5.295   3.577   3.801  2.0554  0.2155  0.1046
   12SAPS  H11Y 1574   5.184   3.728   3.800  0.4300 -0.0032  2.6541
   12SAPS  C312 1575   5.392   3.767   3.835  0.6614  0.0708  0.7991
   12SAPS  H12X 1576   5.381   3.876   3.816 -1.2893 -0.2994 -0.4467
   12SAPS  H12Y 1577   5.492   3.741   3.795 -0.2031 -2.0606 -0.1614
   12SAPS  C313 1578   5.396   3.754   3.996 -0.2767 -0.3666  0.5455
   12SAPS  H13X 1579   5.405   3.646   4.018 -2.7220 -0.7004  0.1406
   12SAPS  H13Y 1580   5.293   3.783   4.025 -1.6635 -1.9575 -2.3413
   12SAPS  C314 1581   5.498   3.851   4.061  0.0933  0.5468  0.1256
   12SAPS  H14X 1582   5.498   3.957   4.028 -0.1390 -0.0830 -2.0340
   12SAPS  H14Y 1583   5.595   3.811   4.025 -0.6764 -2.4373  1.1411
   12SAPS  C315 1584   5.477   3.849   4.215 -0.6094  0.1037  0.4551
   12SAPS  H15X 1585   5.478   3.745   4.252 -1.3145 -0.1898 -0.3079
   12SAPS  H15Y 1586   5.375   3.892   4.225 -0.5894 -0.2019  2.3024
   12SAPS  C316 1587   5.568   3.945   4.284 -0.8192  0.4436  0.0004
   12SAPS  H16X 1588   5.545   4.046   4.245 -0.9605  1.2207  1.9921
   12SAPS  H16Y 1589   5.674   3.920   4.260 -1.0198 -0.9177  0.4411
   12SAPS  C317 1590   5.542   3.953   4.439 -0.5431  0.0508 -0.3018
   12SAPS  H17X 1591   5.567   3.853   4.482 -3.1611  0.0339  1.3993
   12SAPS  H17Y 1592   5.432   3.953   4.452 -0.4960  2.3247  0.4726
   12SAPS  C318 1593   5.609   4.079   4.496  0.3068  0.5544  0.2032
   12SAPS  H18X 1594   5.622   4.068   4.606 -0.8728 -1.3073  0.1944
   12SAPS  H18Y 1595   5.560   4.175   4.473  1.7808  1.0593 -1.0208
   12SAPS  H18Z 1596   5.703   4.098   4.439 -0.8398 -0.0113 -2.0046
   13SAPS     N 1597   4.036   2.648   1.862  0.3230 -0.1153 -0.3718
   13SAPS   HN1 1598   4.057   2.728   1.799 -0.0938  0.8041  0.6261
   13SAPS   HN2 1599   4.049   2.681   1.960 -0.6320 -0.3609 -0.1527
   13SAPS   HN3 1600   4.109   2.575   1.851  1.0917  0.7904 -1.5773
   13SAPS   C12 1601   3.900   2.610   1.832  0.1107 -0.2375 -0.3914
   13SAPS  H12A 1602   3.832   2.693   1.849 -0.3391 -1.0539  2.1948
   13SAPS   C13 1603   3.883   2.545   1.688 -0.2045 -0.5684  0.1923
   13SAPS  O13A 1604   3.987   2.534   1.613  0.6105  0.0121 -0.1638
   13SAPS  O13B 1605   3.780   2.473   1.666 -0.1839 -0.5136 -0.0308
   13SAPS   C11 1606   3.860   2.500   1.937  0.4291  0.0034 -0.0985
   13SAPS  H11A 1607   3.912   2.405   1.915  0.4119 -0.6356  2.3136
   13SAPS  H11B 1608   3.753   2.471   1.936 -0.2337  2.0833  2.0176
   13SAPS     P 1609   3.785   2.616   2.163 -0.0277  0.2606  0.0869
   13SAPS   O13 1610   3.841   2.649   2.295 -1.0225 -0.2806 -0.0720
   13SAPS   O14 1611   3.744   2.735   2.088 -0.2497 -0.2240 -0.5418
   13SAPS   O12 1612   3.887   2.536   2.073  0.5233  0.0455 -0.2751
   13SAPS   O11 1613   3.657   2.520   2.186 -0.0777  0.2345  0.4566
   13SAPS    C1 1614   3.673   2.381   2.213 -0.5450 -0.4973 -0.1300
   13SAPS    HA 1615   3.606   2.326   2.143 -0.7354  0.3074 -0.5833
   13SAPS    HB 1616   3.773   2.338   2.189 -0.3140  0.5437 -1.1010
   13SAPS    C2 1617   3.624   2.349   2.358 -0.1606  0.5224  0.3747
   13SAPS    HS 1618   3.518   2.379   2.370 -0.1307  2.0820 -2.4093
   13SAPS   O21 1619   3.710   2.416   2.451 -0.1347  0.3094  0.2160
   13SAPS   C21 1620   3.655   2.510   2.517  0.1016  0.5272  1.3472
   13SAPS   O22 1621   3.548   2.561   2.487 -0.0061 -0.4179  0.3367
   13SAPS   C22 1622   3.739   2.560   2.630  0.5424 -0.2514 -1.3559
   13SAPS   H2R 1623   3.801   2.474   2.665 -0.5898 -1.2090 -1.6296
   13SAPS   H2S 1624   3.808   2.636   2.589 -0.5076  0.5247 -1.7376
   13SAPS    C3 1625   3.629   2.195   2.364 -0.0051  0.1239 -0.2621
   13SAPS    HX 1626   3.718   2.167   2.303  0.1173  0.3505 -0.1897
   13SAPS    HY 1627   3.540   2.144   2.322 -0.6514  1.7699 -0.9893
   13SAPS   O31 1628   3.643   2.159   2.507 -0.4672  0.1745  0.2628
   13SAPS   C31 1629   3.525   2.153   2.568 -0.2338  0.4037  0.5403
   13SAPS   O32 1630   3.419   2.176   2.513 -0.5556 -0.8214 -1.0513
   13SAPS   C32 1631   3.541   2.107   2.715 -0.5857  0.4476  0.3940
   13SAPS   H2X 1632   3.640   2.060   2.726 -1.1794 -0.8673  0.3127
   13SAPS   H2Y 1633   3.462   2.029   2.721  0.3266 -0.4965  0.2845
   13SAPS   C23 1634   3.653   2.608   2.755  0.3743  0.0701 -0.2078
   13SAPS   H3R 1635   3.610   2.520   2.808  1.7182  0.1895  1.1605
   13SAPS   H3S 1636   3.564   2.662   2.715  0.9710  0.0488 -1.6030
   13SAPS   C24 1637   3.739   2.687   2.855  0.3658 -0.9272 -0.3131
   13SAPS   H4R 1638   3.664   2.739   2.918  0.7769 -0.4830 -0.1839
   13SAPS   H4S 1639   3.790   2.757   2.785 -3.5128  1.9824 -0.5820
   13SAPS   C25 1640   3.839   2.600   2.931  0.3905 -0.2068  0.0570
   13SAPS   H5R 1641   3.904   2.530   2.877 -0.2966  0.3313 -1.5340
   13SAPS   C26 1642   3.841   2.595   3.064  0.1383  0.4626  0.3330
   13SAPS   H6R 1643   3.914   2.522   3.101  0.2979  0.3363 -0.2179
   13SAPS   C27 1644   3.748   2.654   3.167  0.6037 -0.3468 -0.5309
   13SAPS   H7R 1645   3.757   2.576   3.247 -0.6767 -0.5940 -0.6133
   13SAPS   H7S 1646   3.640   2.649   3.140  0.2042  2.7220  0.1679
   13SAPS   C28 1647   3.784   2.801   3.206  0.7488  0.4343 -0.3103
   13SAPS   H8R 1648   3.808   2.866   3.120  1.4244 -1.4056 -1.5672
   13SAPS   C29 1649   3.799   2.854   3.330  0.0988  0.0201  0.6341
   13SAPS   H9R 1650   3.834   2.958   3.325 -0.5839  0.2008 -1.9865
   13SAPS  C210 1651   3.799   2.791   3.467  0.0903  0.4023 -0.6017
   13SAPS  H10R 1652   3.727   2.706   3.469  0.7974 -0.2132  1.6506
   13SAPS  H10S 1653   3.767   2.869   3.539 -0.2401 -0.0894 -0.2079
   13SAPS  C211 1654   3.932   2.734   3.497 -0.7191 -0.2120 -0.5024
   13SAPS  H11R 1655   3.979   2.695   3.405  0.6313 -1.4304  0.6458
   13SAPS  C212 1656   4.000   2.725   3.612  0.0834 -0.0721 -0.4523
   13SAPS  H12R 1657   4.102   2.682   3.613 -0.6323 -1.8534 -0.1983
   13SAPS  C213 1658   3.951   2.777   3.744 -0.4787 -0.0095 -0.3748
   13SAPS  H13R 1659   3.856   2.730   3.776 -0.4834  0.6383  0.6123
   13SAPS  H13S 1660   3.927   2.886   3.734 -0.4572 -0.1136 -1.8775
   13SAPS  C214 1661   4.057   2.764   3.855  0.3676  0.1713  0.4470
   13SAPS  H14R 1662   4.159   2.773   3.814 -0.9559  1.0317 -2.9892
   13SAPS  C215 1663   4.043   2.699   3.971 -0.1095  0.1425 -0.5891
   13SAPS  H15R 1664   4.118   2.721   4.048  0.8127 -0.5237 -1.2695
   13SAPS  C216 1665   3.922   2.631   4.028 -0.3382 -0.4332 -0.5553
   13SAPS  H16R 1666   3.947   2.527   4.057  0.3609 -0.4165 -1.0840
   13SAPS  H16S 1667   3.839   2.638   3.955 -0.2183  2.2501 -0.5491
   13SAPS  C217 1668   3.871   2.701   4.155  1.0375 -0.6059 -0.0575
   13SAPS  H17R 1669   3.773   2.651   4.172  1.0810 -0.9722 -0.8322
   13SAPS  H17S 1670   3.847   2.809   4.140 -2.6374 -1.3476 -0.5329
   13SAPS  C218 1671   3.962   2.685   4.275 -0.6223  0.0133 -0.0276
   13SAPS  H18R 1672   4.063   2.728   4.258 -0.1521 -1.5811 -1.4442
   13SAPS  H18S 1673   3.969   2.580   4.308  0.0088  0.7193  2.3109
   13SAPS  C219 1674   3.911   2.759   4.398 -0.1018 -0.3749 -0.1785
   13SAPS  H19R 1675   3.979   2.728   4.480  0.8895  2.4996  0.1971
   13SAPS  H19S 1676   3.806   2.730   4.421  0.0003 -1.2371 -0.7310
   13SAPS  C220 1677   3.903   2.914   4.385  0.0091 -0.1146 -0.9381
   13SAPS  H20R 1678   3.966   2.953   4.303  2.1716 -1.3627  0.0431
   13SAPS  H20S 1679   3.933   2.944   4.488 -1.1508  0.1888 -0.6765
   13SAPS  H20T 1680   3.796   2.944   4.382  0.2243  0.5791 -1.9481
   13SAPS   C33 1681   3.534   2.222   2.808  0.9156  1.0772 -0.4671
   13SAPS   H3X 1682   3.441   2.281   2.795  0.0377 -0.6903 -2.8044
   13SAPS   H3Y 1683   3.620   2.291   2.798  0.1284  2.2835  0.6760
   13SAPS   C34 1684   3.530   2.191   2.962 -0.2028 -0.3406  0.3369
   13SAPS   H4X 1685   3.439   2.130   2.981 -0.4592  0.2282  0.9781
   13SAPS   H4Y 1686   3.518   2.291   3.009 -2.5142  0.6249 -2.0323
   13SAPS   C35 1687   3.660   2.137   3.019 -0.2106 -0.4126  0.0323
   13SAPS   H5X 1688   3.728   2.220   2.989  0.1572 -0.2868  1.1811
   13SAPS   H5Y 1689   3.680   2.041   2.968  0.3840 -0.3791  0.2011
   13SAPS   C36 1690   3.675   2.115   3.164 -0.3015 -0.4937 -0.6416
   13SAPS   H6X 1691   3.655   2.212   3.215 -0.3515 -0.4234 -0.7949
   13SAPS   H6Y 1692   3.779   2.084   3.186  0.6091  1.8066 -1.4343
   13SAPS   C37 1693   3.570   2.020   3.236 -0.3290 -0.1610 -0.3015
   13SAPS   H7X 1694   3.569   1.919   3.190 -1.1840 -1.3569  2.1999
   13SAPS   H7Y 1695   3.468   2.062   3.220 -0.6806 -1.0011 -0.3274
   13SAPS   C38 1696   3.581   2.003   3.387  0.2221  0.1340  0.5058
   13SAPS   H8X 1697   3.625   2.096   3.428  0.4308  1.0519 -1.6869
   13SAPS   H8Y 1698   3.651   1.920   3.413 -0.2124 -0.5262 -0.3570
   13SAPS   C39 1699   3.452   1.973   3.464 -0.6267  0.2909 -0.7161
   13SAPS   H9X 1700   3.413   1.872   3.438  0.4176 -0.4679  0.5258
   13SAPS   H9Y 1701   3.374   2.048   3.437 -2.6485 -0.2919  2.9642
   13SAPS  C310 1702   3.494   1.955   3.612 -0.3526 -0.0694 -0.6536
   13SAPS  H10X 1703   3.398   1.958   3.668 -1.3021  0.3868 -2.2375
   13SAPS  H10Y 1704   3.550   2.044   3.647 -0.5561 -1.0174  2.3752
   13SAPS  C311 1705   3.545   1.816   3.655 -0.5461 -0.5225 -0.4398
   13SAPS  H11X 1706   3.653   1.813   3.632 -0.8774 -1.9900 -1.9776
   13SAPS  H11Y 1707   3.501   1.733   3.596  1.0589 -3.1339  1.7598
   13SAPS  C312 1708   3.515   1.784   3.802  0.5263  0.4464  0.4386
   13SAPS  H12X 1709   3.405   1.791   3.814  0.4404  0.3318 -0.2497
   13SAPS  H12Y 1710   3.564   1.850   3.877 -1.6480  0.8847  1.5661
   13SAPS  C313 1711   3.552   1.642   3.834  0.2475  0.3769  0.4182
   13SAPS  H13X 1712   3.507   1.577   3.756  1.3450 -1.1650  1.0162
   13SAPS  H13Y 1713   3.507   1.610   3.931 -0.4389 -0.2531 -0.0944
   13SAPS  C314 1714   3.706   1.628   3.836 -0.5165 -0.1378 -0.6449
   13SAPS  H14X 1715   3.759   1.695   3.907 -0.1193 -0.0663 -1.0036
   13SAPS  H14Y 1716   3.741   1.650   3.733  3.9746 -0.3171  0.6353
   13SAPS  C315 1717   3.754   1.483   3.872  0.1206  0.5171 -0.2270
   13SAPS  H15X 1718   3.747   1.434   3.772  2.2603  3.7615 -2.1284
   13SAPS  H15Y 1719   3.679   1.426   3.931  2.0507 -3.3473 -1.1462
   13SAPS  C316 1720   3.893   1.473   3.938 -0.5756 -0.3775 -0.4247
   13SAPS  H16X 1721   3.902   1.425   4.037  0.9838 -2.2722 -1.4152
   13SAPS  H16Y 1722   3.910   1.578   3.972 -0.8070 -0.2152 -0.8045
   13SAPS  C317 1723   3.999   1.420   3.842  0.4027 -0.6817  0.3536
   13SAPS  H17X 1724   3.986   1.445   3.735 -2.2162  2.5447  1.2678
   13SAPS  H17Y 1725   4.003   1.309   3.851 -0.7857 -0.9125 -1.3600
   13SAPS  C318 1726   4.143   1.465   3.879 -0.2216 -0.4157 -0.1698
   13SAPS  H18X 1727   4.224   1.425   3.814  0.8976 -1.6686  1.8596
   13SAPS  H18Y 1728   4.160   1.449   3.988  0.5312 -0.9021 -0.3457
   13SAPS  H18Z 1729   4.132   1.575   3.877 -3.6024 -0.6039  0.8219
   14SAPS     N 1730   5.348   3.579   2.412  0.0046 -0.1469 -0.0022
   14SAPS   HN1 1731   5.321   3.526   2.498 -1.2350 -2.1813 -1.5437
   14SAPS   HN2 1732   5.415   3.525   2.354  0.3805 -0.4132  0.6748
   14SAPS   HN3 1733   5.384   3.672   2.440  1.4793 -0.5372 -0.5074
   14SAPS   C12 1734   5.228   3.618   2.325 -0.4894  0.0971  0.1221
   14SAPS  H12A 1735   5.158   3.673   2.386  0.0131 -0.6547  1.4008
   14SAPS   C13 1736   5.263   3.723   2.218 -0.5888  0.1456  1.2480
   14SAPS  O13A 1737   5.383   3.761   2.205 -0.2213 -0.0243  0.2290
   14SAPS  O13B 1738   5.178   3.783   2.161  0.5289  0.0483  0.2069
   14SAPS   C11 1739   5.168   3.488   2.263 -0.0873  0.4094 -0.6988
   14SAPS  H11A 1740   5.238   3.447   2.187 -0.9771  0.6264 -1.6552
   14SAPS  H11B 1741   5.077   3.510   2.203 -0.3454  0.2578 -0.3663
   14SAPS     P 1742   5.046   3.265   2.326 -0.0122  0.5152  0.0385
   14SAPS   O13 1743   5.067   3.213   2.188 -0.1048 -0.1780 -0.1939
   14SAPS   O14 1744   5.057   3.167   2.436  0.2987  0.4068  0.5268
   14SAPS   O12 1745   5.133   3.393   2.359  0.2500  0.1732  0.0180
   14SAPS   O11 1746   4.907   3.334   2.338  0.4935  0.0814 -0.3331
   14SAPS    C1 1747   4.886   3.443   2.420 -0.1080 -1.0386  0.1733
   14SAPS    HA 1748   4.970   3.476   2.485  0.7992  0.1573 -1.5148
   14SAPS    HB 1749   4.873   3.533   2.356 -1.5278 -0.9546  0.5546
   14SAPS    C2 1750   4.773   3.430   2.526  0.4541  0.2987  0.0178
   14SAPS    HS 1751   4.772   3.525   2.584  0.4737 -0.3413  1.0831
   14SAPS   O21 1752   4.779   3.309   2.603 -0.5765 -0.2818 -0.0852
   14SAPS   C21 1753   4.873   3.308   2.699 -1.0418 -0.3954  0.4114
   14SAPS   O22 1754   4.958   3.394   2.713  0.0756  0.0127  0.3807
   14SAPS   C22 1755   4.866   3.181   2.779 -0.0487  0.4182  0.1751
   14SAPS   H2R 1756   4.772   3.122   2.769  0.3927  0.0319 -2.0363
   14SAPS   H2S 1757   4.960   3.126   2.757 -0.1924  0.8389 -1.6415
   14SAPS    C3 1758   4.638   3.434   2.447 -0.1230 -0.0919 -0.0329
   14SAPS    HX 1759   4.647   3.364   2.361  1.4985 -1.7343  1.3699
   14SAPS    HY 1760   4.630   3.536   2.404  1.2517  0.5825  1.2328
   14SAPS   O31 1761   4.517   3.402   2.524  0.0673  0.0524  0.8665
   14SAPS   C31 1762   4.465   3.276   2.515 -0.3801  0.4526 -0.1608
   14SAPS   O32 1763   4.513   3.184   2.454  0.1812 -0.4739 -0.1221
   14SAPS   C32 1764   4.337   3.272   2.588  0.6128  0.8656 -0.0979
   14SAPS   H2X 1765   4.267   3.211   2.526 -1.8585  2.4521  0.9508
   14SAPS   H2Y 1766   4.296   3.373   2.610  1.5596  1.0961  0.7029
   14SAPS   C23 1767   4.875   3.200   2.940 -0.1444 -0.4079  0.2482
   14SAPS   H3R 1768   4.777   3.241   2.972  0.1506  3.4049 -2.9436
   14SAPS   H3S 1769   4.937   3.289   2.961  0.1577 -0.7219  0.6919
   14SAPS   C24 1770   4.917   3.083   3.022  0.2105  0.3393  0.1419
   14SAPS   H4R 1771   4.859   2.993   2.991 -1.6952  1.7171 -0.4272
   14SAPS   H4S 1772   4.878   3.120   3.119  1.9180  2.3047  0.1405
   14SAPS   C25 1773   5.061   3.057   3.038  0.1044 -0.8341 -0.4932
   14SAPS   H5R 1774   5.101   3.006   2.949  0.3020 -0.4960 -0.6043
   14SAPS   C26 1775   5.140   3.061   3.151 -0.3863 -1.0541  0.0335
   14SAPS   H6R 1776   5.247   3.037   3.145  1.0219  3.8322  1.0945
   14SAPS   C27 1777   5.098   3.132   3.281  0.7847  0.1208 -0.1776
   14SAPS   H7R 1778   5.032   3.220   3.261 -1.1136 -0.8256  1.5277
   14SAPS   H7S 1779   5.189   3.178   3.325 -1.1933  0.7627  3.6590
   14SAPS   C28 1780   5.026   3.041   3.388 -0.2099 -0.2664 -0.0489
   14SAPS   H8R 1781   4.964   2.958   3.350 -0.4000 -0.3288  0.3869
   14SAPS   C29 1782   5.043   3.040   3.522  0.7917 -0.5139  0.8337
   14SAPS   H9R 1783   4.979   2.976   3.584 -0.9717 -0.0872 -0.4826
   14SAPS  C210 1784   5.129   3.134   3.601 -0.4432  0.4773  0.3405
   14SAPS  H10R 1785   5.218   3.161   3.541  0.6650 -1.7851  0.8425
   14SAPS  H10S 1786   5.162   3.086   3.695 -1.5321  0.1478  0.5765
   14SAPS  C211 1787   5.051   3.256   3.641  0.5553  0.1015  0.6186
   14SAPS  H11R 1788   5.019   3.318   3.555  3.1233 -0.6272 -0.9648
   14SAPS  C212 1789   5.002   3.292   3.759 -0.2605  0.1646  0.7566
   14SAPS  H12R 1790   4.940   3.382   3.768 -1.7289 -0.6539 -0.6902
   14SAPS  C213 1791   5.009   3.214   3.879  0.2842 -0.6583 -0.3135
   14SAPS  H13R 1792   5.079   3.272   3.942  0.0648 -1.1689  0.4122
   14SAPS  H13S 1793   5.044   3.111   3.858  0.2316 -0.5018 -1.2045
   14SAPS  C214 1794   4.873   3.206   3.943 -0.2902 -0.3195 -0.1097
   14SAPS  H14R 1795   4.790   3.186   3.874  0.1564 -1.1695 -0.4129
   14SAPS  C215 1796   4.845   3.215   4.075 -0.0791  0.1714 -0.1561
   14SAPS  H15R 1797   4.738   3.208   4.100 -0.0585 -1.7814 -0.4382
   14SAPS  C216 1798   4.941   3.217   4.188 -0.5129  0.2712  0.0327
   14SAPS  H16R 1799   4.914   3.295   4.262  0.8136  0.3032  0.5130
   14SAPS  H16S 1800   5.047   3.239   4.164 -0.0755 -0.2201  1.3958
   14SAPS  C217 1801   4.948   3.084   4.272 -0.9920  0.2865  0.6359
   14SAPS  H17R 1802   4.974   2.996   4.209 -4.2876  0.6767 -1.5339
   14SAPS  H17S 1803   4.839   3.071   4.283 -1.4629  1.5369 -1.7998
   14SAPS  C218 1804   5.019   3.098   4.406  0.0639 -0.5600  0.6068
   14SAPS  H18R 1805   4.971   3.189   4.446 -1.6710 -0.6541 -1.1346
   14SAPS  H18S 1806   5.128   3.118   4.395  0.2171 -1.7259 -0.2434
   14SAPS  C219 1807   4.993   2.985   4.502  0.2032  0.0887 -0.2738
   14SAPS  H19R 1808   5.052   2.893   4.481  1.6267  1.0023 -0.4831
   14SAPS  H19S 1809   4.887   2.953   4.497 -0.0679  0.5837  1.5586
   14SAPS  C220 1810   5.005   3.031   4.645  0.8421  1.0230 -0.2333
   14SAPS  H20R 1811   4.958   2.958   4.714  1.2568  0.6124 -0.3814
   14SAPS  H20S 1812   4.945   3.125   4.645  0.9257  1.0757 -0.0814
   14SAPS  H20T 1813   5.107   3.050   4.684  1.6087 -3.0899  0.2966
   14SAPS   C33 1814   4.348   3.200   2.726  0.2639 -0.2448  0.3269
   14SAPS   H3X 1815   4.397   3.100   2.730 -1.9861 -1.5738 -2.0531
   14SAPS   H3Y 1816   4.245   3.174   2.759 -0.2438 -0.7550 -1.5810
   14SAPS   C34 1817   4.399   3.296   2.835  1.0374  0.2962  0.6481
   14SAPS   H4X 1818   4.334   3.386   2.837  4.1667  2.7181  1.9073
   14SAPS   H4Y 1819   4.497   3.340   2.805  0.2715  1.1210 -0.7288
   14SAPS   C35 1820   4.403   3.229   2.975  0.8409  0.1591  0.9005
   14SAPS   H5X 1821   4.468   3.141   2.956 -0.3109 -0.2881 -1.2957
   14SAPS   H5Y 1822   4.305   3.189   3.009 -0.4503 -0.3292 -2.9512
   14SAPS   C36 1823   4.480   3.314   3.076 -0.1171 -0.3590  0.2834
   14SAPS   H6X 1824   4.404   3.387   3.109 -0.3379 -0.5978  0.3028
   14SAPS   H6Y 1825   4.573   3.349   3.025 -0.6315 -0.3847 -0.6847
   14SAPS   C37 1826   4.536   3.240   3.199  0.2918  0.6872  0.5086
   14SAPS   H7X 1827   4.602   3.156   3.167  1.6531  1.3701  1.4822
   14SAPS   H7Y 1828   4.448   3.196   3.251 -1.0434  1.6315 -0.8753
   14SAPS   C38 1829   4.611   3.339   3.290  0.1707 -0.2377 -0.4954
   14SAPS   H8X 1830   4.538   3.408   3.338  1.9809  0.4062  1.5109
   14SAPS   H8Y 1831   4.678   3.403   3.229  0.6911  0.2415  0.5546
   14SAPS   C39 1832   4.705   3.287   3.393 -0.2233 -0.2676  0.5228
   14SAPS   H9X 1833   4.770   3.370   3.426  1.7328 -1.6432  0.2845
   14SAPS   H9Y 1834   4.780   3.217   3.351 -0.1448 -0.4907  1.0225
   14SAPS  C310 1835   4.645   3.213   3.503  0.5132 -0.4897 -1.7643
   14SAPS  H10X 1836   4.712   3.131   3.537 -2.7857 -2.4181  0.6368
   14SAPS  H10Y 1837   4.553   3.166   3.462  1.5378 -2.7744 -1.5556
   14SAPS  C311 1838   4.610   3.298   3.629  0.0279  0.5534  0.5328
   14SAPS  H11X 1839   4.557   3.395   3.617  0.5347  0.8027  0.2723
   14SAPS  H11Y 1840   4.705   3.342   3.665 -0.3801  1.3815  0.6287
   14SAPS  C312 1841   4.539   3.218   3.738  0.2568 -0.1459 -0.2244
   14SAPS  H12X 1842   4.593   3.130   3.779  0.1308 -0.1847 -0.1419
   14SAPS  H12Y 1843   4.442   3.176   3.704 -0.7426 -0.3305  2.5707
   14SAPS  C313 1844   4.529   3.314   3.865  0.1244  0.1138 -0.5773
   14SAPS  H13X 1845   4.448   3.389   3.850  0.3472 -0.0402 -3.0633
   14SAPS  H13Y 1846   4.629   3.357   3.891  0.4949  0.4028 -2.3383
   14SAPS  C314 1847   4.488   3.239   3.988  0.4699  0.4766 -0.5387
   14SAPS  H14X 1848   4.553   3.153   4.015 -1.2647 -0.1632  1.9708
   14SAPS  H14Y 1849   4.389   3.192   3.966  1.9292 -2.6803 -0.9619
   14SAPS  C315 1850   4.490   3.318   4.120  0.9367 -0.8305  0.5934
   14SAPS  H15X 1851   4.417   3.400   4.104  0.3237 -2.0319 -4.6240
   14SAPS  H15Y 1852   4.593   3.360   4.126  1.0015  0.3661 -4.2277
   14SAPS  C316 1853   4.450   3.236   4.238  0.8498 -0.2978  0.0286
   14SAPS  H16X 1854   4.378   3.160   4.201 -2.1894  2.3292  0.1370
   14SAPS  H16Y 1855   4.400   3.296   4.317  0.4223  0.4770 -0.8164
   14SAPS  C317 1856   4.562   3.156   4.320  0.9582 -0.2153  0.7043
   14SAPS  H17X 1857   4.651   3.219   4.345  0.9883 -0.5977  1.5960
   14SAPS  H17Y 1858   4.587   3.085   4.238  1.8213 -0.2791  1.0065
   14SAPS  C318 1859   4.515   3.093   4.446 -0.2478  0.8608 -0.3278
   14SAPS  H18X 1860   4.470   3.171   4.512 -0.7152 -0.5101  1.0317
   14SAPS  H18Y 1861   4.597   3.051   4.508  0.3091  2.7264  0.2689
   14SAPS  H18Z 1862   4.449   3.005   4.438  1.1995 -0.1816 -1.3117
   15SAPS     N 1863   5.922   5.069   2.435  0.4617  0.5035  0.1819
   15SAPS   HN1 1864   5.983   5.049   2.353  0.4105  1.1353 -0.0097
   15SAPS   HN2 1865   5.974   5.056   2.524 -0.2139 -0.4061  0.4613
   15SAPS   HN3 1866   5.844   4.999   2.437  1.5880 -0.8053  0.1860
   15SAPS   C12 1867   5.861   5.200   2.416 -0.3706 -0.6865 -0.5140
   15SAPS  H12A 1868   5.939   5.272   2.433 -0.0503 -0.3266 -3.0677
   15SAPS   C13 1869   5.815   5.229   2.271 -0.4048 -0.2391  1.0379
   15SAPS  O13A 1870   5.830   5.138   2.184  0.4119  0.0389 -0.1898
   15SAPS  O13B 1871   5.779   5.344   2.236  0.3850 -0.0255  0.1657
   15SAPS   C11 1872   5.741   5.216   2.519 -0.1489 -0.3805  0.4945
   15SAPS  H11A 1873   5.701   5.318   2.504  0.2770 -0.2548  0.1835
   15SAPS  H11B 1874   5.778   5.218   2.624 -1.0023 -0.8006  0.8051
   15SAPS     P 1875   5.615   4.992   2.593  0.0694 -0.3499  0.4132
   15SAPS   O13 1876   5.468   4.960   2.581  0.2541 -0.6462  0.0182
   15SAPS   O14 1877   5.714   4.881   2.572 -0.4400  0.3237  0.7130
   15SAPS   O12 1878   5.643   5.111   2.500 -0.8966  0.1040 -0.1210
   15SAPS   O11 1879   5.642   5.058   2.741  0.3845 -0.4060 -0.1185
   15SAPS    C1 1880   5.607   4.978   2.853  0.2058 -0.4448 -0.5472
   15SAPS    HA 1881   5.659   4.881   2.846  1.9258  0.3667  0.3346
   15SAPS    HB 1882   5.646   5.033   2.941 -0.0529 -0.1004 -0.6448
   15SAPS    C2 1883   5.454   4.953   2.883  0.1707  0.6020  0.2008
   15SAPS    HS 1884   5.420   4.891   2.798 -2.4772 -0.2590  1.7990
   15SAPS   O21 1885   5.392   5.080   2.901 -0.0741 -1.0508 -0.0631
   15SAPS   C21 1886   5.259   5.062   2.886  0.3357 -0.0236 -0.2603
   15SAPS   O22 1887   5.206   4.960   2.855  0.0508  0.1235 -0.4406
   15SAPS   C22 1888   5.186   5.196   2.899  0.6346 -0.7278 -0.7031
   15SAPS   H2R 1889   5.250   5.286   2.907  0.9140 -0.8245 -1.7040
   15SAPS   H2S 1890   5.126   5.207   2.806 -1.8431 -0.3011  0.8657
   15SAPS    C3 1891   5.446   4.859   3.001 -0.4280  0.2333  0.1735
   15SAPS    HX 1892   5.514   4.775   2.978 -0.0639  0.2955  0.9715
   15SAPS    HY 1893   5.338   4.833   3.004 -0.9224  2.0401 -0.3616
   15SAPS   O31 1894   5.470   4.915   3.131 -0.1512  0.1219  0.0651
   15SAPS   C31 1895   5.598   4.905   3.188  0.0216  0.2223 -0.3778
   15SAPS   O32 1896   5.688   4.829   3.145 -0.0479 -0.4396  0.2613
   15SAPS   C32 1897   5.586   4.980   3.322  0.1066  0.1499  0.0509
   15SAPS   H2X 1898   5.548   4.903   3.393 -0.1624  0.4209  0.2048
   15SAPS   H2Y 1899   5.519   5.068   3.310  0.2360  0.3252  0.5651
   15SAPS   C23 1900   5.082   5.213   3.012  0.6179 -0.6102 -0.3186
   15SAPS   H3R 1901   5.011   5.128   3.022 -0.1063  0.1771  1.7350
   15SAPS   H3S 1902   5.016   5.299   2.990 -0.4201 -0.8806  1.5328
   15SAPS   C24 1903   5.141   5.259   3.145 -0.3202 -0.2053  0.2129
   15SAPS   H4R 1904   5.060   5.279   3.218  0.1835 -0.4945  0.8581
   15SAPS   H4S 1905   5.195   5.356   3.141 -0.9087  0.1230  0.0803
   15SAPS   C25 1906   5.229   5.149   3.199 -0.3096 -0.0764 -0.1000
   15SAPS   H5R 1907   5.314   5.135   3.130 -0.7201 -0.4010 -0.5500
   15SAPS   C26 1908   5.209   5.074   3.307 -0.6345 -0.2898  0.1994
   15SAPS   H6R 1909   5.288   5.003   3.335  0.3626  0.6431 -0.1638
   15SAPS   C27 1910   5.107   5.098   3.410 -0.7475  0.4421  0.2666
   15SAPS   H7R 1911   5.091   5.000   3.461 -1.3624  0.1829 -0.4079
   15SAPS   H7S 1912   5.011   5.126   3.361  0.5098  1.8512 -1.5060
   15SAPS   C28 1913   5.145   5.198   3.515  0.0637 -0.1427 -0.1152
   15SAPS   H8R 1914   5.180   5.296   3.481 -0.3747 -0.0644 -0.3441
   15SAPS   C29 1915   5.150   5.172   3.651  0.0121 -0.7679  0.3979
   15SAPS   H9R 1916   5.184   5.255   3.715 -1.6003  0.5442 -0.3977
   15SAPS  C210 1917   5.104   5.044   3.725 -0.6007  0.2376  0.0780
   15SAPS  H10R 1918   5.195   4.982   3.742 -1.3217 -0.7862  0.3041
   15SAPS  H10S 1919   5.022   4.990   3.673 -2.4884  1.3837  1.7397
   15SAPS  C211 1920   5.031   5.085   3.850  0.0882  0.3570 -0.8009
   15SAPS  H11R 1921   4.933   5.123   3.816  1.2039  2.3152 -2.0443
   15SAPS  C212 1922   5.060   5.068   3.977 -0.7612 -0.6771 -0.2249
   15SAPS  H12R 1923   4.984   5.114   4.042  0.0209  1.0974 -0.5182
   15SAPS  C213 1924   5.178   5.018   4.043 -0.4783  0.7123 -0.1258
   15SAPS  H13R 1925   5.223   4.928   3.995 -1.3681  0.1068  0.1511
   15SAPS  H13S 1926   5.144   4.975   4.140 -2.4820  0.6735 -0.7945
   15SAPS  C214 1927   5.284   5.127   4.064 -0.1181  0.1811 -0.7914
   15SAPS  H14R 1928   5.264   5.233   4.043  3.0907  1.2288  0.9355
   15SAPS  C215 1929   5.413   5.096   4.092 -0.7211  0.0976 -0.0201
   15SAPS  H15R 1930   5.484   5.179   4.104 -0.8266  0.1674  0.1175
   15SAPS  C216 1931   5.480   4.961   4.134  0.3005  0.3099  0.5806
   15SAPS  H16R 1932   5.588   4.967   4.105 -0.0896  1.0883 -0.8222
   15SAPS  H16S 1933   5.438   4.873   4.079  0.2538  0.6953 -0.0123
   15SAPS  C217 1934   5.473   4.925   4.280 -0.2517 -0.1805  0.1044
   15SAPS  H17R 1935   5.505   5.008   4.347  0.9017 -1.1718  0.8361
   15SAPS  H17S 1936   5.553   4.850   4.301  0.7223  0.4719 -1.1201
   15SAPS  C218 1937   5.339   4.869   4.316 -0.0925  0.6482  0.0335
   15SAPS  H18R 1938   5.308   4.802   4.233  2.2203 -0.3525 -0.0948
   15SAPS  H18S 1939   5.280   4.963   4.324  0.1956  0.8492 -0.1969
   15SAPS  C219 1940   5.333   4.782   4.444  0.1666  0.1333 -0.5285
   15SAPS  H19R 1941   5.250   4.708   4.435  1.1058 -1.1445  0.8568
   15SAPS  H19S 1942   5.319   4.848   4.533  0.4041 -0.9810  0.3678
   15SAPS  C220 1943   5.451   4.693   4.474  0.2019  0.8843  0.4909
   15SAPS  H20R 1944   5.440   4.632   4.566  1.3810 -1.1603 -0.6629
   15SAPS  H20S 1945   5.540   4.758   4.486  0.5335  0.2410  1.6457
   15SAPS  H20T 1946   5.461   4.617   4.394  0.5912  1.3776  0.0662
   15SAPS   C33 1947   5.724   5.035   3.369  1.0302  0.9136  0.1956
   15SAPS   H3X 1948   5.710   5.145   3.359  0.3797  1.0664  2.4184
   15SAPS   H3Y 1949   5.812   5.009   3.306 -0.0884  1.3786 -1.6555
   15SAPS   C34 1950   5.754   5.010   3.512  0.1505  0.1578  0.2909
   15SAPS   H4X 1951   5.854   4.967   3.531 -0.1295 -0.1166  1.2091
   15SAPS   H4Y 1952   5.685   4.928   3.542 -2.3989  2.3350  0.8236
   15SAPS   C35 1953   5.732   5.129   3.604  0.5020 -0.3673 -0.5252
   15SAPS   H5X 1954   5.631   5.174   3.594  1.3190  1.2601 -1.8018
   15SAPS   H5Y 1955   5.804   5.198   3.555  2.5702 -0.0888  2.6173
   15SAPS   C36 1956   5.762   5.105   3.753  0.2226  0.0110 -0.4222
   15SAPS   H6X 1957   5.858   5.052   3.765 -1.1726 -2.6452 -0.3317
   15SAPS   H6Y 1958   5.686   5.047   3.809  0.9232 -1.4830 -0.9829
   15SAPS   C37 1959   5.767   5.239   3.828  0.0968  0.1067  0.7020
   15SAPS   H7X 1960   5.669   5.291   3.820 -0.1471 -0.3116  0.9508
   15SAPS   H7Y 1961   5.838   5.291   3.761 -1.0734  1.6797  0.6308
   15SAPS   C38 1962   5.805   5.226   3.972 -0.1428  0.2864 -0.5976
   15SAPS   H8X 1963   5.902   5.171   3.973 -0.1855  0.2008 -1.0913
   15SAPS   H8Y 1964   5.745   5.158   4.036  0.1264  0.2117 -0.4210
   15SAPS   C39 1965   5.810   5.365   4.039 -0.4747  0.6836  0.4420
   15SAPS   H9X 1966   5.714   5.418   4.025 -0.6688 -0.2628 -2.3756
   15SAPS   H9Y 1967   5.884   5.423   3.980 -1.5836  0.1585 -1.5615
   15SAPS  C310 1968   5.848   5.348   4.194 -0.0804 -0.6743  0.4854
   15SAPS  H10X 1969   5.781   5.267   4.232  0.0090 -0.6991  0.5929
   15SAPS  H10Y 1970   5.816   5.444   4.239 -0.5611  0.2591 -1.7548
   15SAPS  C311 1971   5.995   5.321   4.208  0.7165  0.5520 -0.0921
   15SAPS  H11X 1972   6.049   5.383   4.134  0.8154  0.6275  0.0431
   15SAPS  H11Y 1973   6.008   5.219   4.167  1.5435  0.4167  0.4964
   15SAPS  C312 1974   6.044   5.319   4.351  0.3471  0.4888 -0.6418
   15SAPS  H12X 1975   6.133   5.253   4.338 -0.9893 -1.3752 -0.6825
   15SAPS  H12Y 1976   5.980   5.261   4.421  1.7283 -0.5970 -0.2049
   15SAPS  C313 1977   6.093   5.458   4.402  0.3657 -0.6555  0.1282
   15SAPS  H13X 1978   6.140   5.456   4.503  2.2365  0.4146 -0.6771
   15SAPS  H13Y 1979   6.009   5.530   4.411  1.7793  1.0153  0.5759
   15SAPS  C314 1980   6.205   5.530   4.322  0.5423 -0.6765 -0.0852
   15SAPS  H14X 1981   6.227   5.628   4.371  0.0267 -1.4086  1.7020
   15SAPS  H14Y 1982   6.154   5.560   4.228  0.8318 -0.2733 -0.1187
   15SAPS  C315 1983   6.328   5.450   4.287 -0.1800  1.2353 -0.3098
   15SAPS  H15X 1984   6.379   5.509   4.208  0.1398  0.0024 -1.0422
   15SAPS  H15Y 1985   6.301   5.357   4.234 -0.3015  2.7024 -3.0217
   15SAPS  C316 1986   6.414   5.422   4.405 -0.0413 -0.1384 -0.2526
   15SAPS  H16X 1987   6.361   5.358   4.479 -0.5042 -0.8043 -1.1319
   15SAPS  H16Y 1988   6.432   5.526   4.439 -0.4057 -0.5499  1.2435
   15SAPS  C317 1989   6.540   5.355   4.353  0.4932 -0.0010 -0.0068
   15SAPS  H17X 1990   6.580   5.418   4.271  1.0319  2.0934  1.7686
   15SAPS  H17Y 1991   6.515   5.255   4.311 -1.1159  0.8537 -1.1642
   15SAPS  C318 1992   6.664   5.357   4.441 -0.1361 -0.4970 -0.2419
   15SAPS  H18X 1993   6.662   5.272   4.512 -0.8276 -0.3438 -0.0702
   15SAPS  H18Y 1994   6.683   5.443   4.509  0.8188 -0.7821 -0.1416
   15SAPS  H18Z 1995   6.755   5.338   4.380  1.7600  0.8761  1.9749
   16SAPS     N 1996   5.605   3.901   2.284  0.1543  0.4452  0.1981
   16SAPS   HN1 1997   5.656   3.822   2.328 -3.6986 -2.1298  0.5419
   16SAPS   HN2 1998   5.559   3.957   2.358  0.3733  2.2658 -0.9918
   16SAPS   HN3 1999   5.531   3.855   2.228  0.8356  1.3494 -1.5347
   16SAPS   C12 2000   5.689   3.982   2.186 -0.0284 -0.5599 -0.2371
   16SAPS  H12A 2001   5.720   3.920   2.103 -1.9918 -1.4910 -0.3377
   16SAPS   C13 2002   5.602   4.087   2.119  0.3208 -0.2238  0.0996
   16SAPS  O13A 2003   5.478   4.085   2.144 -0.2708 -0.2888 -0.0591
   16SAPS  O13B 2004   5.657   4.186   2.056 -0.1828  0.3213 -0.0340
   16SAPS   C11 2005   5.812   4.059   2.257 -0.2768  0.1998 -0.0989
   16SAPS  H11A 2006   5.768   4.143   2.314  0.7616  1.0037 -0.4645
   16SAPS  H11B 2007   5.875   4.100   2.175  0.2304 -0.0944  0.1428
   16SAPS     P 2008   6.035   4.028   2.389  0.3061 -0.0579  0.3281
   16SAPS   O13 2009   6.138   3.920   2.380 -0.3848 -0.0474  0.5248
   16SAPS   O14 2010   6.067   4.150   2.320 -0.3115 -0.1816  0.4442
   16SAPS   O12 2011   5.896   3.972   2.339  0.2071 -0.1673 -0.3162
   16SAPS   O11 2012   6.007   4.058   2.538  0.3409  0.4434 -0.1224
   16SAPS    C1 2013   5.874   4.066   2.583  0.2958 -0.6663  0.2202
   16SAPS    HA 2014   5.813   4.141   2.528 -1.9588 -1.4742  1.4856
   16SAPS    HB 2015   5.823   3.971   2.558 -1.2697 -0.5730  2.7585
   16SAPS    C2 2016   5.858   4.078   2.738  0.4589 -0.2731  0.4981
   16SAPS    HS 2017   5.901   4.176   2.768 -1.0576  0.6209 -0.1142
   16SAPS   O21 2018   5.914   3.957   2.797 -0.2667 -0.2627  0.2222
   16SAPS   C21 2019   6.024   3.979   2.857  0.0443 -0.3182  0.4984
   16SAPS   O22 2020   6.070   4.088   2.896 -0.0589  1.0917 -0.5105
   16SAPS   C22 2021   6.106   3.850   2.852  0.4851 -0.0355  1.1735
   16SAPS   H2R 2022   6.087   3.786   2.941 -0.2519 -0.6216  0.6152
   16SAPS   H2S 2023   6.077   3.798   2.758  1.5395  1.5480 -0.0764
   16SAPS    C3 2024   5.713   4.068   2.780 -0.1777  0.5112  0.6361
   16SAPS    HX 2025   5.658   3.988   2.725  0.1693 -0.2926  1.4356
   16SAPS    HY 2026   5.661   4.153   2.733 -0.5221  0.1866  0.4227
   16SAPS   O31 2027   5.687   4.064   2.922 -1.0681  0.3026  0.0003
   16SAPS   C31 2028   5.698   4.187   2.976 -0.5308 -0.1268 -0.4043
   16SAPS   O32 2029   5.729   4.285   2.910  0.0002 -1.1482 -0.4594
   16SAPS   C32 2030   5.675   4.192   3.131 -0.7648 -0.0981  0.1588
   16SAPS   H2X 2031   5.703   4.090   3.164 -0.0312 -0.2076 -0.7801
   16SAPS   H2Y 2032   5.565   4.207   3.138 -1.3766 -3.3565 -0.8463
   16SAPS   C23 2033   6.254   3.886   2.828 -0.1026  0.4622 -0.1486
   16SAPS   H3R 2034   6.255   3.955   2.741  1.4115 -0.0440 -0.5631
   16SAPS   H3S 2035   6.305   3.790   2.806 -1.8137 -0.2198 -1.3892
   16SAPS   C24 2036   6.334   3.943   2.947  0.1698 -0.6650 -1.1795
   16SAPS   H4R 2037   6.290   4.039   2.982 -0.3784 -1.7399  1.3068
   16SAPS   H4S 2038   6.439   3.970   2.926  1.3349 -1.1326  3.0856
   16SAPS   C25 2039   6.336   3.836   3.054  0.6106  0.1072 -0.1583
   16SAPS   H5R 2040   6.388   3.743   3.026 -2.3652 -1.5214 -0.6171
   16SAPS   C26 2041   6.286   3.855   3.175  0.0800  0.8771  0.7177
   16SAPS   H6R 2042   6.322   3.784   3.251  3.8570 -0.8098 -2.3231
   16SAPS   C27 2043   6.234   3.983   3.229  0.3112 -0.3036 -0.0852
   16SAPS   H7R 2044   6.162   3.946   3.305 -1.7099  1.6636 -0.9221
   16SAPS   H7S 2045   6.173   4.043   3.159  2.6086  1.2797 -0.8460
   16SAPS   C28 2046   6.351   4.068   3.280  0.1351 -0.7234 -0.8448
   16SAPS   H8R 2047   6.375   4.149   3.210 -1.2589  1.4327  1.0336
   16SAPS   C29 2048   6.412   4.057   3.406 -0.3133  0.0606  0.0701
   16SAPS   H9R 2049   6.502   4.118   3.421 -0.3483 -0.4395  2.8617
   16SAPS  C210 2050   6.380   3.969   3.523 -0.5608 -0.2748  0.7750
   16SAPS  H10R 2051   6.465   3.951   3.592 -1.6292  0.0427  2.2081
   16SAPS  H10S 2052   6.348   3.868   3.488 -0.5797 -0.5509  1.5661
   16SAPS  C211 2053   6.260   4.023   3.604 -0.3049  0.0379 -0.1751
   16SAPS  H11R 2054   6.216   4.109   3.553 -0.8298 -0.3121 -0.3244
   16SAPS  C212 2055   6.206   3.962   3.711 -0.5265  0.3890 -0.0804
   16SAPS  H12R 2056   6.117   3.997   3.764 -0.5518 -0.0708  0.1823
   16SAPS  C213 2057   6.261   3.843   3.791 -0.9180 -0.4255  0.1590
   16SAPS  H13R 2058   6.367   3.822   3.766 -0.4279  1.9637 -0.0317
   16SAPS  H13S 2059   6.202   3.757   3.754 -0.0040 -0.8250 -0.4221
   16SAPS  C214 2060   6.231   3.855   3.943 -0.4448 -0.3167 -0.2316
   16SAPS  H14R 2061   6.193   3.952   3.980  1.5058  1.1117 -1.7364
   16SAPS  C215 2062   6.251   3.757   4.035  0.7639  0.2922 -0.7343
   16SAPS  H15R 2063   6.216   3.767   4.138  0.2413  0.1720 -0.8966
   16SAPS  C216 2064   6.306   3.616   4.016  1.0517  0.2711 -0.2824
   16SAPS  H16R 2065   6.375   3.608   3.930  1.0456 -2.1364 -0.1427
   16SAPS  H16S 2066   6.221   3.549   3.989  1.8473 -1.2324  0.7500
   16SAPS  C217 2067   6.354   3.562   4.154 -0.6132 -0.2062  0.6205
   16SAPS  H17R 2068   6.426   3.633   4.202 -1.8335 -0.1569  2.5014
   16SAPS  H17S 2069   6.384   3.457   4.140 -0.4120 -0.1899  0.9139
   16SAPS  C218 2070   6.245   3.550   4.255  0.4161  0.6039 -0.1645
   16SAPS  H18R 2071   6.150   3.515   4.208  0.2321  2.4117 -1.2238
   16SAPS  H18S 2072   6.226   3.646   4.308 -0.2166 -1.0305  2.8023
   16SAPS  C219 2073   6.271   3.441   4.358  0.4108 -0.6399 -0.5004
   16SAPS  H19R 2074   6.339   3.477   4.437  0.0513  1.0477 -0.9160
   16SAPS  H19S 2075   6.323   3.355   4.311 -0.3829 -0.6094 -1.4780
   16SAPS  C220 2076   6.140   3.402   4.435  0.2995 -0.2004  0.1851
   16SAPS  H20R 2077   6.086   3.337   4.363  1.8193 -3.0452  1.4421
   16SAPS  H20S 2078   6.091   3.501   4.453  0.5371 -0.0028 -0.2244
   16SAPS  H20T 2079   6.140   3.352   4.534 -0.9781  0.4916  0.5645
   16SAPS   C33 2080   5.750   4.302   3.203  0.3296 -0.0452  0.5066
   16SAPS   H3X 2081   5.710   4.402   3.175  0.5073 -0.4250 -1.2204
   16SAPS   H3Y 2082   5.854   4.318   3.166 -0.4206  0.5363 -1.5148
   16SAPS   C34 2083   5.736   4.291   3.355  0.2278  0.2577  0.4711
   16SAPS   H4X 2084   5.630   4.317   3.379  0.0849  1.1334 -1.0143
   16SAPS   H4Y 2085   5.802   4.363   3.408  1.8652 -2.9890  3.2329
   16SAPS   C35 2086   5.767   4.160   3.420 -0.4552  0.0695 -1.0055
   16SAPS   H5X 2087   5.862   4.113   3.388 -0.6901 -1.4019  0.3238
   16SAPS   H5Y 2088   5.694   4.079   3.398 -2.6782  0.7504  2.9008
   16SAPS   C36 2089   5.771   4.173   3.572  0.1851  0.6744  0.2490
   16SAPS   H6X 2090   5.752   4.081   3.630  1.3598 -0.2934 -0.8515
   16SAPS   H6Y 2091   5.675   4.226   3.593 -0.9562 -2.0256  2.5529
   16SAPS   C37 2092   5.893   4.243   3.634 -0.3169 -0.9341 -0.3675
   16SAPS   H7X 2093   5.903   4.352   3.616  0.2927 -1.0509 -0.7773
   16SAPS   H7Y 2094   5.989   4.202   3.596 -0.3234  1.2603 -3.0089
   16SAPS   C38 2095   5.919   4.210   3.788  0.3407 -0.0138  0.3613
   16SAPS   H8X 2096   6.022   4.245   3.810  1.0092 -1.9036  0.4934
   16SAPS   H8Y 2097   5.919   4.099   3.796 -0.1455 -0.2778 -2.4613
   16SAPS   C39 2098   5.808   4.270   3.875  0.5032  0.0285  0.7712
   16SAPS   H9X 2099   5.720   4.204   3.860  0.3300  0.1584  1.2114
   16SAPS   H9Y 2100   5.788   4.373   3.838 -0.5917 -0.2562  0.5559
   16SAPS  C310 2101   5.838   4.286   4.018 -0.1276  0.1222 -0.5473
   16SAPS  H10X 2102   5.772   4.354   4.076 -0.2080 -1.0509  0.8020
   16SAPS  H10Y 2103   5.931   4.347   4.029  0.1834 -0.7154  2.4125
   16SAPS  C311 2104   5.847   4.150   4.096  0.3100 -0.0075  0.5427
   16SAPS  H11X 2105   5.897   4.075   4.031 -1.1449 -1.3579  0.9156
   16SAPS  H11Y 2106   5.741   4.122   4.117  0.2194  0.4425  0.6920
   16SAPS  C312 2107   5.927   4.154   4.222 -0.0552 -0.3865  0.0703
   16SAPS  H12X 2108   5.925   4.055   4.272 -2.3184 -1.2980 -1.6253
   16SAPS  H12Y 2109   5.884   4.237   4.282 -0.5091 -0.3979 -0.2346
   16SAPS  C313 2110   6.075   4.200   4.203  0.2504 -0.0408 -0.1891
   16SAPS  H13X 2111   6.068   4.303   4.163 -0.7603 -0.2859 -0.6654
   16SAPS  H13Y 2112   6.132   4.145   4.126  2.4009  2.6429 -0.6708
   16SAPS  C314 2113   6.164   4.209   4.330 -0.2118  0.3993  0.4290
   16SAPS  H14X 2114   6.265   4.231   4.290 -1.5694  2.5461 -2.1476
   16SAPS  H14Y 2115   6.175   4.112   4.382  2.3508 -0.4661 -1.5276
   16SAPS  C315 2116   6.131   4.324   4.428  0.1249  0.4233  0.0086
   16SAPS  H15X 2117   6.027   4.324   4.467  0.4488  0.0629  0.9115
   16SAPS  H15Y 2118   6.140   4.419   4.371 -0.9866 -0.3982 -1.6044
   16SAPS  C316 2119   6.234   4.321   4.538 -0.3740 -0.4211 -0.1070
   16SAPS  H16X 2120   6.322   4.351   4.477 -0.0616 -0.6614  0.2218
   16SAPS  H16Y 2121   6.243   4.218   4.577  0.6398 -1.0966 -2.0208
   16SAPS  C317 2122   6.211   4.422   4.650  0.2268  0.4117 -0.4236
   16SAPS  H17X 2123   6.180   4.522   4.613  0.7487  2.1084  3.2600
   16SAPS  H17Y 2124   6.311   4.440   4.694  1.0664  1.6587 -2.6543
   16SAPS  C318 2125   6.114   4.370   4.754 -0.4380 -0.4173 -0.1099
   16SAPS  H18X 2126   6.177   4.299   4.812  1.6191  1.6875  0.3749
   16SAPS  H18Y 2127   6.026   4.321   4.706  0.4986 -0.8243 -1.4695
   16SAPS  H18Z 2128   6.081   4.445   4.829 -0.7478  0.7621 -1.3769
   17SAPS     N 2129   1.757   5.490   2.411 -0.5746  0.0518 -0.5787
   17SAPS   HN1 2130   1.703   5.503   2.499  0.1282 -2.2189  0.2704
   17SAPS   HN2 2131   1.697   5.495   2.326 -0.0505  1.4819 -0.8960
   17SAPS   HN3 2132   1.783   5.390   2.420 -2.1405 -0.2553  1.2573
   17SAPS   C12 2133   1.885   5.573   2.402  0.5844 -0.8634 -0.0936
   17SAPS  H12A 2134   1.946   5.544   2.486  0.4786 -0.6736  0.0483
   17SAPS   C13 2135   1.975   5.546   2.275 -0.2799 -0.7372  0.4939
   17SAPS  O13A 2136   1.942   5.450   2.198 -0.0490  0.1807  0.8125
   17SAPS  O13B 2137   2.090   5.595   2.271 -0.0204 -0.1135  0.6873
   17SAPS   C11 2138   1.830   5.718   2.383 -0.2103 -0.2799 -0.3751
   17SAPS  H11A 2139   1.794   5.719   2.278 -0.5317 -0.1175 -0.2659
   17SAPS  H11B 2140   1.921   5.781   2.387 -1.2894  1.3297 -0.1524
   17SAPS     P 2141   1.771   5.795   2.621  0.0900  0.2449  0.0767
   17SAPS   O13 2142   1.662   5.883   2.671 -0.3138 -0.3169  0.0195
   17SAPS   O14 2143   1.812   5.672   2.694  0.0766  0.4710 -0.3534
   17SAPS   O12 2144   1.725   5.760   2.472 -0.0087 -0.2352 -0.1120
   17SAPS   O11 2145   1.897   5.886   2.597  0.0729  0.2286 -0.1319
   17SAPS    C1 2146   2.032   5.834   2.614 -0.4339 -0.0757  0.4983
   17SAPS    HA 2147   2.044   5.736   2.563 -0.5356  0.1324  0.0709
   17SAPS    HB 2148   2.102   5.908   2.572 -1.9704  1.4422  0.5197
   17SAPS    C2 2149   2.075   5.822   2.761 -0.1280 -0.1355  0.4088
   17SAPS    HS 2150   2.001   5.759   2.815 -1.5461  0.5276 -0.7034
   17SAPS   O21 2151   2.083   5.958   2.813 -0.5387 -0.0616 -0.2044
   17SAPS   C21 2152   2.041   5.972   2.946  0.3602  0.2169 -0.3655
   17SAPS   O22 2153   2.001   5.881   3.012  0.0505 -0.2246 -0.0856
   17SAPS   C22 2154   2.040   6.113   2.990 -0.4025 -0.4040 -0.1447
   17SAPS   H2R 2155   2.142   6.157   2.990 -0.9534  1.1456  2.6249
   17SAPS   H2S 2156   1.968   6.170   2.927 -2.3590 -2.6980 -0.1299
   17SAPS    C3 2157   2.216   5.756   2.768  0.2060  0.2144 -0.0815
   17SAPS    HX 2158   2.279   5.831   2.715 -0.9615  1.4610  0.2398
   17SAPS    HY 2159   2.226   5.660   2.712  0.3287  0.3331 -0.2631
   17SAPS   O31 2160   2.254   5.747   2.900 -0.3188  0.4061 -0.1700
   17SAPS   C31 2161   2.222   5.627   2.955 -0.4490 -0.0807  0.6247
   17SAPS   O32 2162   2.173   5.532   2.897  0.4298  1.3832 -0.1242
   17SAPS   C32 2163   2.257   5.643   3.106  0.0210 -0.2064  0.6038
   17SAPS   H2X 2164   2.206   5.736   3.137  1.4068  0.8178 -0.0869
   17SAPS   H2Y 2165   2.367   5.659   3.103 -0.1543  0.9421 -1.4150
   17SAPS   C23 2166   1.993   6.119   3.142  0.4818 -0.1152  0.0963
   17SAPS   H3R 2167   2.066   6.081   3.217  0.7070  1.3241  0.6533
   17SAPS   H3S 2168   1.900   6.059   3.138 -0.0067  0.6490 -3.3783
   17SAPS   C24 2169   1.950   6.263   3.180 -0.4717 -0.1527 -0.4259
   17SAPS   H4R 2170   1.915   6.260   3.286  3.2075  1.3751  1.0126
   17SAPS   H4S 2171   1.872   6.300   3.110 -1.1699 -2.3016 -0.8789
   17SAPS   C25 2172   2.071   6.351   3.204 -0.2028  0.8786 -0.5530
   17SAPS   H5R 2173   2.114   6.392   3.111 -0.9821  1.2784 -0.7434
   17SAPS   C26 2174   2.143   6.349   3.322 -0.1812 -0.5676 -0.0281
   17SAPS   H6R 2175   2.219   6.428   3.333 -0.0519 -0.9646  2.6281
   17SAPS   C27 2176   2.121   6.261   3.444 -0.0140 -0.2008 -0.4616
   17SAPS   H7R 2177   2.206   6.189   3.447 -0.6447 -0.9415  0.5819
   17SAPS   H7S 2178   2.033   6.193   3.436 -0.8828  0.6305  1.4430
   17SAPS   C28 2179   2.101   6.323   3.576  0.0057 -0.1250 -1.3408
   17SAPS   H8R 2180   2.037   6.412   3.591 -0.6993 -0.9769  1.4338
   17SAPS   C29 2181   2.148   6.264   3.687  1.1655  0.5113 -0.5994
   17SAPS   H9R 2182   2.128   6.317   3.781 -0.5648  1.1447 -1.2831
   17SAPS  C210 2183   2.226   6.135   3.702  0.4416  0.3546  0.1003
   17SAPS  H10R 2184   2.271   6.140   3.804  3.6305 -0.4121 -1.1525
   17SAPS  H10S 2185   2.315   6.139   3.636  1.8616 -0.0291  1.9144
   17SAPS  C211 2186   2.151   6.004   3.682  0.1960 -0.1084  0.4416
   17SAPS  H11R 2187   2.126   5.977   3.578 -2.5427  0.6070  0.8307
   17SAPS  C212 2188   2.112   5.920   3.781 -0.1464  1.5969 -0.8576
   17SAPS  H12R 2189   2.053   5.829   3.762 -0.6752  1.2878  1.8479
   17SAPS  C213 2190   2.136   5.938   3.929  0.4824 -0.0815 -0.1135
   17SAPS  H13R 2191   2.053   5.888   3.983 -0.0625 -0.6118 -1.3928
   17SAPS  H13S 2192   2.126   6.045   3.955  0.0627 -0.1573  0.0387
   17SAPS  C214 2193   2.265   5.883   3.980  0.0733  0.1423  0.6720
   17SAPS  H14R 2194   2.342   5.846   3.911  0.7375  0.3556  1.2824
   17SAPS  C215 2195   2.299   5.859   4.107 -0.3576  0.7267 -0.1121
   17SAPS  H15R 2196   2.401   5.819   4.118  0.6112  1.7970 -3.6922
   17SAPS  C216 2197   2.223   5.901   4.235 -0.2122 -0.5427 -0.4372
   17SAPS  H16R 2198   2.137   5.968   4.214  0.8397  0.9042 -0.2304
   17SAPS  H16S 2199   2.293   5.971   4.285 -1.2578 -0.1131  0.4751
   17SAPS  C217 2200   2.180   5.793   4.332 -0.1368  0.8977 -0.0166
   17SAPS  H17R 2201   2.108   5.720   4.290  1.0806 -1.0498  1.1472
   17SAPS  H17S 2202   2.130   5.836   4.421  0.4921  0.9830  0.2963
   17SAPS  C218 2203   2.286   5.700   4.393  0.3221 -0.0974 -0.2298
   17SAPS  H18R 2204   2.343   5.664   4.305  0.3907  2.4131 -1.2858
   17SAPS  H18S 2205   2.238   5.606   4.428 -0.1058  0.4734  0.7875
   17SAPS  C219 2206   2.374   5.770   4.501  0.5925  0.2043  0.1053
   17SAPS  H19R 2207   2.428   5.684   4.545  0.0782  0.3374  1.0457
   17SAPS  H19S 2208   2.320   5.829   4.579  1.4039 -1.2813  1.8742
   17SAPS  C220 2209   2.500   5.843   4.454 -0.1621 -0.0998 -0.3102
   17SAPS  H20R 2210   2.479   5.910   4.367 -2.1612 -2.7831 -2.0614
   17SAPS  H20S 2211   2.576   5.769   4.421 -0.2643 -0.6718  0.7246
   17SAPS  H20T 2212   2.543   5.907   4.534 -0.2211 -0.4207 -0.0226
   17SAPS   C33 2213   2.226   5.528   3.205  0.7095 -0.0352  0.2443
   17SAPS   H3X 2214   2.278   5.432   3.186 -1.7392 -1.0247 -1.9843
   17SAPS   H3Y 2215   2.120   5.494   3.200  0.9705 -0.9600  0.6856
   17SAPS   C34 2216   2.252   5.595   3.350  0.1322 -0.0243 -0.1836
   17SAPS   H4X 2217   2.188   5.686   3.350  2.2202  1.5555  1.1998
   17SAPS   H4Y 2218   2.359   5.623   3.360 -0.0632  0.5193  0.4986
   17SAPS   C35 2219   2.231   5.491   3.461  0.1919  0.0045  0.6850
   17SAPS   H5X 2220   2.306   5.410   3.465  2.0499  1.4496 -1.8992
   17SAPS   H5Y 2221   2.133   5.441   3.447  0.5945 -0.4501 -0.5584
   17SAPS   C36 2222   2.213   5.549   3.601  0.0761  1.1454 -0.2181
   17SAPS   H6X 2223   2.192   5.459   3.662  1.1988 -1.2168 -3.1229
   17SAPS   H6Y 2224   2.128   5.621   3.594 -0.2291  0.8695  0.5589
   17SAPS   C37 2225   2.336   5.628   3.654  0.8797  0.0805 -0.3727
   17SAPS   H7X 2226   2.307   5.669   3.752 -2.9229 -2.1778 -0.3429
   17SAPS   H7Y 2227   2.352   5.718   3.591  0.4052  0.7830  0.4946
   17SAPS   C38 2228   2.473   5.556   3.663 -0.5300  0.0709  0.1445
   17SAPS   H8X 2229   2.547   5.632   3.698  0.6911  0.1177 -2.3263
   17SAPS   H8Y 2230   2.498   5.516   3.563  1.2322 -0.7118  0.8545
   17SAPS   C39 2231   2.474   5.431   3.755  0.3292  0.8890 -0.5328
   17SAPS   H9X 2232   2.576   5.387   3.758 -0.8669 -2.3545 -2.6199
   17SAPS   H9Y 2233   2.421   5.349   3.703 -0.0487  1.0128 -0.3408
   17SAPS  C310 2234   2.429   5.453   3.903  0.0458 -0.8317  0.3298
   17SAPS  H10X 2235   2.321   5.480   3.900  0.2018 -0.2182 -2.1881
   17SAPS  H10Y 2236   2.482   5.542   3.943  0.0466 -0.5579 -0.2701
   17SAPS  C311 2237   2.457   5.335   3.994 -0.0006 -0.2757 -0.0384
   17SAPS  H11X 2238   2.566   5.320   4.000 -0.1242 -1.5035 -0.5274
   17SAPS  H11Y 2239   2.426   5.234   3.959  0.6381 -0.3493 -0.4010
   17SAPS  C312 2240   2.399   5.371   4.135 -0.1192  0.2037  0.1597
   17SAPS  H12X 2241   2.288   5.375   4.136 -0.1151  0.8222 -0.8070
   17SAPS  H12Y 2242   2.431   5.476   4.151  0.2596  0.0069  0.7425
   17SAPS  C313 2243   2.467   5.286   4.253 -0.3780 -0.2075  0.7231
   17SAPS  H13X 2244   2.454   5.177   4.237  0.6614 -0.6063  2.3593
   17SAPS  H13Y 2245   2.417   5.304   4.350 -0.5019 -4.2323  1.6034
   17SAPS  C314 2246   2.612   5.318   4.282  0.6506  0.8430 -0.2246
   17SAPS  H14X 2247   2.610   5.427   4.306 -0.9941  1.2403 -1.9036
   17SAPS  H14Y 2248   2.676   5.314   4.191  0.3248 -0.0038 -0.4196
   17SAPS  C315 2249   2.670   5.258   4.411  0.2722  0.6071 -0.2992
   17SAPS  H15X 2250   2.615   5.307   4.494  0.3165 -1.9692  1.3863
   17SAPS  H15Y 2251   2.777   5.286   4.415  0.3623  0.1701  0.9195
   17SAPS  C316 2252   2.661   5.102   4.421 -0.2604  0.5903  0.3142
   17SAPS  H16X 2253   2.755   5.056   4.459  0.4722  0.7057 -1.2669
   17SAPS  H16Y 2254   2.637   5.062   4.319 -0.1691  3.5927 -0.9763
   17SAPS  C317 2255   2.551   5.048   4.516 -0.0481  0.0637 -0.4298
   17SAPS  H17X 2256   2.470   5.121   4.536 -0.5072 -0.3595 -0.6956
   17SAPS  H17Y 2257   2.585   5.010   4.614 -1.2603  0.1126  0.0230
   17SAPS  C318 2258   2.479   4.913   4.467  0.0371  0.2182  0.2793
   17SAPS  H18X 2259   2.394   4.923   4.396  0.1165 -0.1856  0.1240
   17SAPS  H18Y 2260   2.445   4.863   4.561 -0.3027  2.5300  1.4573
   17SAPS  H18Z 2261   2.554   4.848   4.417 -1.0576 -1.0524  0.2139
   18SAPS     N 2262   4.939   2.000   2.104 -0.0864 -0.1025 -0.0875
   18SAPS   HN1 2263   4.863   1.968   2.041  1.1985  2.8895 -3.5118
   18SAPS   HN2 2264   5.031   1.977   2.061 -0.5363  0.9326 -1.7158
   18SAPS   HN3 2265   4.946   1.962   2.201  0.4115  1.3033  0.4444
   18SAPS   C12 2266   4.924   2.145   2.121 -0.5315  0.0104  0.4343
   18SAPS  H12A 2267   4.996   2.176   2.196 -2.3272 -0.9466  2.6565
   18SAPS   C13 2268   4.958   2.222   1.996  0.9387 -0.9142  0.4462
   18SAPS  O13A 2269   5.027   2.167   1.906  0.5648 -0.5139  0.5733
   18SAPS  O13B 2270   4.952   2.349   2.002 -0.4738 -0.3550 -0.5002
   18SAPS   C11 2271   4.784   2.177   2.174 -0.2663  0.1214 -0.4474
   18SAPS  H11A 2272   4.786   2.265   2.241  0.3068 -0.5043  0.3858
   18SAPS  H11B 2273   4.744   2.100   2.243 -1.7686  0.1326 -1.2745
   18SAPS     P 2274   4.589   2.101   2.022  0.4318 -0.3497 -0.2995
   18SAPS   O13 2275   4.498   2.152   1.922 -0.2967 -0.6471 -0.0581
   18SAPS   O14 2276   4.682   1.994   1.981 -0.7349  0.0638  0.1754
   18SAPS   O12 2277   4.684   2.212   2.080 -0.2528 -0.7770  0.2227
   18SAPS   O11 2278   4.510   2.053   2.148  0.5805  0.2627  1.1457
   18SAPS    C1 2279   4.375   2.104   2.167 -0.5564  0.0691 -0.1277
   18SAPS    HA 2280   4.326   2.100   2.068  2.0731 -2.0944 -1.4584
   18SAPS    HB 2281   4.314   2.034   2.228 -0.6272  0.0665 -0.2013
   18SAPS    C2 2282   4.369   2.244   2.230  0.4740 -0.1294  0.0148
   18SAPS    HS 2283   4.420   2.313   2.159  1.7148 -1.3242 -0.2980
   18SAPS   O21 2284   4.445   2.252   2.349 -0.0095  0.0772 -0.0667
   18SAPS   C21 2285   4.470   2.366   2.406  0.4777 -0.0158 -0.5299
   18SAPS   O22 2286   4.435   2.474   2.358  0.0562 -0.1314 -0.3347
   18SAPS   C22 2287   4.550   2.351   2.537 -0.1387 -0.0038  0.5955
   18SAPS   H2R 2288   4.533   2.245   2.567 -1.2898 -0.0206 -0.0589
   18SAPS   H2S 2289   4.656   2.376   2.516 -0.4302 -0.2717 -1.3523
   18SAPS    C3 2290   4.216   2.294   2.261 -0.0549  0.1503  0.0221
   18SAPS    HX 2291   4.165   2.294   2.162  1.8118 -0.6347 -1.0080
   18SAPS    HY 2292   4.221   2.402   2.288  2.3014  0.0485  0.2249
   18SAPS   O31 2293   4.144   2.226   2.367 -0.2164 -0.1612  0.5821
   18SAPS   C31 2294   4.060   2.131   2.322  0.5701 -0.5721 -0.1956
   18SAPS   O32 2295   4.036   2.101   2.207  0.2320 -0.1321 -0.0611
   18SAPS   C32 2296   4.001   2.051   2.439 -0.2418  0.1785  0.3057
   18SAPS   H2X 2297   4.038   1.946   2.429 -0.3823  0.0159  1.3820
   18SAPS   H2Y 2298   3.889   2.047   2.437 -0.2589  0.8184 -0.7216
   18SAPS   C23 2299   4.505   2.448   2.650 -1.1623  0.3129  0.4189
   18SAPS   H3R 2300   4.394   2.438   2.656 -1.9611  2.9121 -4.7378
   18SAPS   H3S 2301   4.537   2.547   2.611 -0.3775  0.4867  1.4723
   18SAPS   C24 2302   4.580   2.421   2.785 -0.6682  1.1867 -0.4766
   18SAPS   H4R 2303   4.551   2.496   2.862 -0.5730 -0.3361  1.0957
   18SAPS   H4S 2304   4.684   2.442   2.754 -0.1577  0.4861  0.7272
   18SAPS   C25 2305   4.567   2.276   2.840  0.3984 -0.2015  0.0866
   18SAPS   H5R 2306   4.579   2.195   2.767 -0.6454 -1.4199  1.2104
   18SAPS   C26 2307   4.551   2.237   2.968 -0.1810 -0.0151  0.2740
   18SAPS   H6R 2308   4.572   2.133   2.997 -0.3971 -0.3647 -0.7738
   18SAPS   C27 2309   4.529   2.324   3.086 -0.2806 -0.2075  0.1480
   18SAPS   H7R 2310   4.457   2.281   3.158 -0.9282  0.4744 -0.0881
   18SAPS   H7S 2311   4.476   2.415   3.052  2.3706  1.5605  0.4653
   18SAPS   C28 2312   4.658   2.365   3.142 -0.0323 -0.1145 -0.3363
   18SAPS   H8R 2313   4.732   2.407   3.072 -1.2149 -0.1393 -1.6574
   18SAPS   C29 2314   4.690   2.352   3.272 -0.0622 -0.4047 -0.2776
   18SAPS   H9R 2315   4.792   2.377   3.305 -0.5653  0.5662  0.5892
   18SAPS  C210 2316   4.604   2.316   3.392 -0.0640 -0.0480 -0.4435
   18SAPS  H10R 2317   4.600   2.205   3.397 -1.5148  0.0314  2.4855
   18SAPS  H10S 2318   4.497   2.341   3.374  0.1977  0.5358 -1.2570
   18SAPS  C211 2319   4.645   2.368   3.533 -0.2834 -0.3938  0.3959
   18SAPS  H11R 2320   4.708   2.458   3.521  1.8236 -1.9174 -0.5369
   18SAPS  C212 2321   4.608   2.317   3.649  0.5177  0.6320 -0.1381
   18SAPS  H12R 2322   4.656   2.346   3.744 -0.6970 -0.4513  0.8577
   18SAPS  C213 2323   4.498   2.211   3.660  0.0901  0.8102  0.0886
   18SAPS  H13R 2324   4.547   2.126   3.710  0.7540  0.7984 -0.5694
   18SAPS  H13S 2325   4.474   2.160   3.564  0.1016 -2.6332  1.7847
   18SAPS  C214 2326   4.368   2.241   3.729 -1.0677 -0.4584 -0.5313
   18SAPS  H14R 2327   4.288   2.266   3.657 -0.8428 -0.8239 -0.9116
   18SAPS  C215 2328   4.349   2.265   3.865 -0.5357  1.2240 -0.0653
   18SAPS  H15R 2329   4.250   2.284   3.908  0.0062 -1.4336  2.6642
   18SAPS  C216 2330   4.455   2.244   3.962  0.1422  0.4677  0.5220
   18SAPS  H16R 2331   4.553   2.210   3.923  0.4684  0.0569  1.6409
   18SAPS  H16S 2332   4.425   2.159   4.027 -0.4234 -0.7896 -1.3120
   18SAPS  C217 2333   4.463   2.376   4.038 -0.3496 -0.6957  0.5485
   18SAPS  H17R 2334   4.364   2.419   4.065 -0.4313  0.5452 -1.5576
   18SAPS  H17S 2335   4.509   2.455   3.976 -2.7981 -0.5644 -1.2716
   18SAPS  C218 2336   4.544   2.367   4.168  0.0325 -0.3891 -0.0564
   18SAPS  H18R 2337   4.550   2.468   4.214  0.7161 -0.5763  0.2942
   18SAPS  H18S 2338   4.651   2.342   4.151  0.3350  1.1523 -0.5948
   18SAPS  C219 2339   4.486   2.269   4.277 -0.0272  0.1993 -0.9082
   18SAPS  H19R 2340   4.544   2.281   4.371  0.9497 -0.4160 -1.4146
   18SAPS  H19S 2341   4.504   2.163   4.248 -3.8460 -1.2913  1.4493
   18SAPS  C220 2342   4.336   2.280   4.302  0.1931 -0.0304 -0.8726
   18SAPS  H20R 2343   4.314   2.378   4.348 -0.8617 -1.1286  1.0869
   18SAPS  H20S 2344   4.297   2.204   4.373  1.6037  1.5884  1.7680
   18SAPS  H20T 2345   4.281   2.275   4.205  0.5174 -2.0773 -1.0069
   18SAPS   C33 2346   4.044   2.099   2.576 -0.0729 -0.3384 -0.0954
   18SAPS   H3X 2347   4.154   2.118   2.580 -0.1118  0.0472 -0.7663
   18SAPS   H3Y 2348   4.033   2.012   2.644  1.1667  1.0324  1.9698
   18SAPS   C34 2349   3.953   2.211   2.626  0.2011  0.4705  0.1807
   18SAPS   H4X 2350   3.859   2.168   2.666 -0.6953  0.5119 -1.7535
   18SAPS   H4Y 2351   3.937   2.269   2.533 -0.4367 -2.1165 -1.4331
   18SAPS   C35 2352   4.023   2.300   2.723 -0.1284 -0.3710 -0.2884
   18SAPS   H5X 2353   3.965   2.387   2.761 -0.0381 -0.7693  0.7795
   18SAPS   H5Y 2354   4.115   2.349   2.685 -0.3716 -0.3013 -0.7951
   18SAPS   C36 2355   4.050   2.228   2.856 -0.4399  0.4716 -0.1345
   18SAPS   H6X 2356   4.109   2.135   2.850 -0.9643 -0.0154  1.5391
   18SAPS   H6Y 2357   3.953   2.202   2.905  1.0277 -0.5332  2.4256
   18SAPS   C37 2358   4.133   2.316   2.941 -1.1473 -0.1868 -0.5243
   18SAPS   H7X 2359   4.074   2.398   2.987 -1.2293 -0.3362 -0.3600
   18SAPS   H7Y 2360   4.217   2.362   2.886  1.3939 -0.1416  3.0029
   18SAPS   C38 2361   4.205   2.248   3.063  0.2828 -1.0579  0.5604
   18SAPS   H8X 2362   4.257   2.335   3.108  0.7503  1.1157 -3.7243
   18SAPS   H8Y 2363   4.289   2.186   3.025  2.8249  2.6018 -0.3156
   18SAPS   C39 2364   4.100   2.198   3.170  0.3236 -0.1491  0.0357
   18SAPS   H9X 2365   4.136   2.105   3.219  3.7118  0.4632 -1.0312
   18SAPS   H9Y 2366   4.005   2.166   3.122 -0.8609 -0.3385  2.3527
   18SAPS  C310 2367   4.081   2.305   3.283  0.3877 -0.9186  0.3463
   18SAPS  H10X 2368   4.037   2.394   3.233 -1.5724 -2.1246 -0.1619
   18SAPS  H10Y 2369   4.182   2.332   3.321  0.0081 -0.3140  0.9365
   18SAPS  C311 2370   3.992   2.260   3.395 -0.2959 -0.2774 -0.3869
   18SAPS  H11X 2371   4.052   2.179   3.442  1.4158  0.2212 -1.6260
   18SAPS  H11Y 2372   3.891   2.238   3.355  0.2469 -3.0836 -0.4219
   18SAPS  C312 2373   3.966   2.372   3.498 -0.5500 -0.5183  0.0792
   18SAPS  H12X 2374   3.898   2.450   3.458  2.1350  1.7884 -0.3104
   18SAPS  H12Y 2375   4.065   2.415   3.524  0.0053 -1.4796 -0.3908
   18SAPS  C313 2376   3.879   2.329   3.618  0.1458 -0.1085  0.3097
   18SAPS  H13X 2377   3.805   2.255   3.582  2.1657 -1.7737 -0.6168
   18SAPS  H13Y 2378   3.832   2.416   3.668 -0.4925 -0.8632  1.0439
   18SAPS  C314 2379   3.967   2.255   3.718  0.2057 -0.4032  0.6453
   18SAPS  H14X 2380   4.027   2.331   3.772 -0.6328  0.9101 -0.2400
   18SAPS  H14Y 2381   4.035   2.192   3.656  0.8437  1.9401 -1.1740
   18SAPS  C315 2382   3.902   2.173   3.825  0.1586 -0.1870 -0.7821
   18SAPS  H15X 2383   3.860   2.075   3.795  2.6027 -2.5257  2.7156
   18SAPS  H15Y 2384   3.823   2.230   3.878  0.4799  2.6212 -3.0857
   18SAPS  C316 2385   4.009   2.139   3.939  0.2325  0.1450  0.3863
   18SAPS  H16X 2386   4.052   2.222   3.999  0.4672 -0.7305  1.4576
   18SAPS  H16Y 2387   4.092   2.076   3.900 -1.4065 -0.3840 -2.5597
   18SAPS  C317 2388   3.959   2.047   4.054 -0.2637  0.6064 -0.3825
   18SAPS  H17X 2389   4.041   2.040   4.129 -0.4770  0.1329 -0.1894
   18SAPS  H17Y 2390   3.954   1.951   3.999 -1.5585  0.1181  0.5553
   18SAPS  C318 2391   3.822   2.086   4.110 -0.3288  0.4012 -0.0863
   18SAPS  H18X 2392   3.746   2.092   4.029  0.0232 -1.4652 -0.5975
   18SAPS  H18Y 2393   3.826   2.183   4.164  1.6188  0.0414  0.4674
   18SAPS  H18Z 2394   3.786   2.011   4.184 -0.5819  1.7086  1.1647
   19SAPS     N 2395   4.838   5.769   2.358 -0.3381  0.4532 -0.3468
   19SAPS   HN1 2396   4.902   5.848   2.333 -0.8246  0.9421 -0.0724
   19SAPS   HN2 2397   4.877   5.715   2.438  1.0662  1.3638 -0.3800
   19SAPS   HN3 2398   4.823   5.715   2.270 -3.0806  2.1416 -1.0421
   19SAPS   C12 2399   4.703   5.835   2.376  0.0035 -0.4333 -0.0959
   19SAPS  H12A 2400   4.721   5.860   2.480  2.9016 -0.7387 -0.4186
   19SAPS   C13 2401   4.668   5.970   2.307  0.3908  0.6441 -0.0395
   19SAPS  O13A 2402   4.752   6.007   2.221  0.6824 -0.2342  0.1038
   19SAPS  O13B 2403   4.559   6.024   2.331  0.3488  0.3010 -0.2958
   19SAPS   C11 2404   4.591   5.729   2.357  0.1520  0.2568 -0.3175
   19SAPS  H11A 2405   4.564   5.719   2.250  5.2179 -1.0682 -1.7542
   19SAPS  H11B 2406   4.502   5.766   2.412 -1.6192 -2.8828 -0.8422
   19SAPS     P 2407   4.556   5.468   2.354 -0.2387  0.5368  0.5904
   19SAPS   O13 2408   4.444   5.494   2.265 -0.2017  0.0475 -0.0865
   19SAPS   O14 2409   4.673   5.393   2.304  0.1747  0.0442 -0.4777
   19SAPS   O12 2410   4.617   5.602   2.409  0.0817 -0.2134 -0.1853
   19SAPS   O11 2411   4.508   5.397   2.486 -0.4082 -0.0757 -0.0818
   19SAPS    C1 2412   4.597   5.318   2.568  0.4532 -0.6429  0.2712
   19SAPS    HA 2413   4.575   5.209   2.563  1.2331 -0.8076  0.3320
   19SAPS    HB 2414   4.702   5.332   2.536  0.5852  1.3553  1.4823
   19SAPS    C2 2415   4.595   5.361   2.711 -0.8413 -0.2368 -0.1201
   19SAPS    HS 2416   4.503   5.313   2.751 -2.6552  1.0562 -2.4728
   19SAPS   O21 2417   4.596   5.507   2.731 -0.0923 -0.0076  1.1832
   19SAPS   C21 2418   4.475   5.557   2.706  0.5742  0.6803  0.5656
   19SAPS   O22 2419   4.372   5.493   2.689 -0.2297  0.4190 -0.4546
   19SAPS   C22 2420   4.477   5.704   2.714  0.5007 -0.3573  0.1959
   19SAPS   H2R 2421   4.582   5.731   2.739  0.5395  0.7667 -1.1017
   19SAPS   H2S 2422   4.446   5.737   2.613 -0.7808 -3.4492 -0.5098
   19SAPS    C3 2423   4.716   5.296   2.787 -0.2581 -0.1559 -0.0437
   19SAPS    HX 2424   4.813   5.320   2.737  0.8576 -0.5322  1.8397
   19SAPS    HY 2425   4.697   5.187   2.776 -0.3634  0.0127 -2.0070
   19SAPS   O31 2426   4.716   5.332   2.925  0.2998 -0.0007 -0.1015
   19SAPS   C31 2427   4.784   5.443   2.945 -0.5075 -0.1823 -0.1985
   19SAPS   O32 2428   4.846   5.513   2.865  0.3613  0.2016  0.1636
   19SAPS   C32 2429   4.784   5.479   3.092  0.3735  0.3852 -0.0830
   19SAPS   H2X 2430   4.786   5.383   3.147  0.1694 -0.5414 -1.6109
   19SAPS   H2Y 2431   4.690   5.533   3.115 -0.2901 -1.1582  0.9936
   19SAPS   C23 2432   4.383   5.758   2.829 -0.3537  0.2917 -0.6295
   19SAPS   H3R 2433   4.276   5.732   2.810  0.1724 -1.5810 -1.2298
   19SAPS   H3S 2434   4.401   5.868   2.826 -0.9675  0.5603  2.3013
   19SAPS   C24 2435   4.424   5.720   2.973  0.1790  0.2108 -0.0293
   19SAPS   H4R 2436   4.367   5.785   3.042  0.4466 -0.7517  1.1315
   19SAPS   H4S 2437   4.532   5.732   2.995  1.0535 -3.8060 -1.3325
   19SAPS   C25 2438   4.380   5.584   3.014 -0.4385  0.2465 -0.0390
   19SAPS   H5R 2439   4.373   5.507   2.936  1.0471  0.2940 -0.2459
   19SAPS   C26 2440   4.367   5.526   3.139  0.0241  0.3064  0.3123
   19SAPS   H6R 2441   4.321   5.426   3.140 -1.9692  1.1641  0.5277
   19SAPS   C27 2442   4.394   5.593   3.269  0.6789 -0.2433  0.3768
   19SAPS   H7R 2443   4.302   5.630   3.319  0.3090 -2.3447  1.3408
   19SAPS   H7S 2444   4.458   5.683   3.252  1.0927 -0.6580 -0.2784
   19SAPS   C28 2445   4.480   5.508   3.361  0.7429 -0.2792 -0.5693
   19SAPS   H8R 2446   4.585   5.515   3.330  0.6414  2.1450 -0.5531
   19SAPS   C29 2447   4.448   5.466   3.486  0.6119  0.2324  0.3485
   19SAPS   H9R 2448   4.518   5.402   3.542  0.6434 -0.3761 -0.3752
   19SAPS  C210 2449   4.309   5.488   3.552  0.0403 -0.5063 -0.2751
   19SAPS  H10R 2450   4.293   5.397   3.615 -0.8716 -1.4671 -1.8308
   19SAPS  H10S 2451   4.224   5.480   3.481 -0.2537 -0.5317  0.0752
   19SAPS  C211 2452   4.279   5.617   3.637 -0.5868  0.1513  0.3469
   19SAPS  H11R 2453   4.217   5.702   3.604  1.2768  1.7975  0.8756
   19SAPS  C212 2454   4.327   5.617   3.763  0.1770 -0.2350 -0.1574
   19SAPS  H12R 2455   4.300   5.701   3.828  0.3858 -0.9073  0.8201
   19SAPS  C213 2456   4.406   5.517   3.846 -0.3693 -0.1552  0.1974
   19SAPS  H13R 2457   4.505   5.566   3.849  0.2547 -1.2783 -1.1510
   19SAPS  H13S 2458   4.429   5.426   3.787  1.5099  0.1408  0.4159
   19SAPS  C214 2459   4.356   5.460   3.979 -0.2149 -0.3353  0.2769
   19SAPS  H14R 2460   4.295   5.369   3.970  0.3774 -0.5325 -3.8155
   19SAPS  C215 2461   4.384   5.502   4.107 -0.2577 -0.2984 -0.3169
   19SAPS  H15R 2462   4.330   5.454   4.190  0.7507 -0.7161  0.1161
   19SAPS  C216 2463   4.455   5.628   4.153  0.1363 -0.5881 -0.1991
   19SAPS  H16R 2464   4.414   5.669   4.248  3.3639 -3.9324  2.9887
   19SAPS  H16S 2465   4.459   5.700   4.068 -1.7630  0.9972  0.9566
   19SAPS  C217 2466   4.603   5.597   4.187 -0.3362  0.1301  0.0727
   19SAPS  H17R 2467   4.671   5.596   4.099  2.1848 -1.3054  1.8841
   19SAPS  H17S 2468   4.606   5.505   4.249 -0.7071  0.3824  0.4672
   19SAPS  C218 2469   4.667   5.709   4.267  0.1043 -0.7939 -0.0420
   19SAPS  H18R 2470   4.757   5.670   4.320  0.0291  0.2025  0.8653
   19SAPS  H18S 2471   4.596   5.743   4.346 -0.4492 -1.1553 -0.3799
   19SAPS  C219 2472   4.706   5.834   4.184  0.2654  0.8578  0.1061
   19SAPS  H19R 2473   4.613   5.884   4.151 -0.4496 -1.9151 -2.5245
   19SAPS  H19S 2474   4.752   5.808   4.086 -1.5144 -0.1318 -0.5077
   19SAPS  C220 2475   4.791   5.932   4.260  0.0187  0.3170  0.2175
   19SAPS  H20R 2476   4.748   5.946   4.361  1.6755 -0.2725  1.0488
   19SAPS  H20S 2477   4.779   6.026   4.202 -2.3329 -0.5104 -0.7608
   19SAPS  H20T 2478   4.896   5.897   4.275 -0.3378 -0.4198  1.0772
   19SAPS   C33 2479   4.899   5.568   3.147 -0.2539  0.3836 -0.1621
   19SAPS   H3X 2480   4.917   5.653   3.079 -3.1009  1.1871 -0.0587
   19SAPS   H3Y 2481   4.990   5.505   3.148 -0.8518 -0.4968  0.3384
   19SAPS   C34 2482   4.869   5.607   3.288 -0.0345  0.1722 -0.7883
   19SAPS   H4X 2483   4.773   5.662   3.294 -0.1281 -0.1115  0.9105
   19SAPS   H4Y 2484   4.938   5.681   3.334  0.5184  0.4055 -1.9699
   19SAPS   C35 2485   4.874   5.491   3.392  0.0515  0.1746 -0.3244
   19SAPS   H5X 2486   4.967   5.432   3.378  0.5731  0.3501  2.0036
   19SAPS   H5Y 2487   4.787   5.423   3.383  1.0303 -1.4596  1.7811
   19SAPS   C36 2488   4.867   5.556   3.536  0.3834 -0.1533 -0.3176
   19SAPS   H6X 2489   4.761   5.586   3.552  0.8030  0.6461  1.1745
   19SAPS   H6Y 2490   4.929   5.647   3.529 -1.5030  1.0350 -3.3108
   19SAPS   C37 2491   4.912   5.459   3.647 -0.0709  0.0383  0.4217
   19SAPS   H7X 2492   5.020   5.436   3.639 -0.0227  0.2404  0.4927
   19SAPS   H7Y 2493   4.851   5.367   3.629  1.9631 -1.2012 -0.4452
   19SAPS   C38 2494   4.900   5.513   3.784 -0.0085  0.2793  0.3351
   19SAPS   H8X 2495   4.793   5.511   3.815  0.0537 -0.5398  0.5163
   19SAPS   H8Y 2496   4.931   5.619   3.788 -0.5789  0.4749 -0.3003
   19SAPS   C39 2497   4.980   5.432   3.889 -0.3670  0.1583 -0.1048
   19SAPS   H9X 2498   5.084   5.427   3.852  0.2340  0.0266  1.5155
   19SAPS   H9Y 2499   4.951   5.325   3.891  0.9456 -0.2037  0.6524
   19SAPS  C310 2500   4.960   5.496   4.033  0.1826  0.8242  0.8496
   19SAPS  H10X 2501   4.852   5.492   4.056  0.0293 -0.2482  0.0164
   19SAPS  H10Y 2502   4.992   5.603   4.030  0.9065  0.7181  2.9244
   19SAPS  C311 2503   5.029   5.420   4.147  0.4658  0.4240  0.0338
   19SAPS  H11X 2504   5.139   5.416   4.134  0.4934 -1.2671  0.6477
   19SAPS  H11Y 2505   5.001   5.313   4.151 -1.7683  0.9251 -0.5842
   19SAPS  C312 2506   5.003   5.485   4.284  0.1872 -0.1476 -0.1612
   19SAPS  H12X 2507   4.972   5.590   4.265 -0.6399 -0.6640 -1.8455
   19SAPS  H12Y 2508   5.102   5.484   4.335  2.5606  0.6473 -4.2979
   19SAPS  C313 2509   4.897   5.402   4.362 -0.4350 -0.9696  0.1894
   19SAPS  H13X 2510   4.943   5.301   4.368  1.6155 -0.3259 -2.5633
   19SAPS  H13Y 2511   4.804   5.394   4.302 -1.6916  2.4038  1.4439
   19SAPS  C314 2512   4.875   5.457   4.498 -0.0386  0.6971 -0.6397
   19SAPS  H14X 2513   4.778   5.425   4.543  0.9781 -0.6358  0.7118
   19SAPS  H14Y 2514   4.862   5.567   4.508 -3.2870  0.4016 -0.2858
   19SAPS  C315 2515   4.989   5.443   4.599 -0.1212  0.0547 -0.4418
   19SAPS  H15X 2516   5.033   5.540   4.630  0.8314 -1.4528  3.5207
   19SAPS  H15Y 2517   5.071   5.376   4.565 -1.0636 -0.1796 -2.3549
   19SAPS  C316 2518   4.952   5.379   4.737 -0.2482 -0.7005  0.5971
   19SAPS  H16X 2519   5.047   5.388   4.794  0.3398 -0.4639 -0.4024
   19SAPS  H16Y 2520   4.926   5.271   4.734 -1.0185 -0.5148  0.3878
   19SAPS  C317 2521   4.849   5.463   4.814 -0.3146 -0.1492 -0.4766
   19SAPS  H17X 2522   4.767   5.477   4.740  1.6540 -0.6656 -2.8743
   19SAPS  H17Y 2523   4.894   5.564   4.826  0.0200 -0.4016  0.4953
   19SAPS  C318 2524   4.811   5.402   4.943 -0.2027  0.2999  0.1357
   19SAPS  H18X 2525   4.753   5.311   4.914 -0.9941  0.4218  1.2588
   19SAPS  H18Y 2526   4.747   5.471   5.002 -1.1244  1.0046 -1.6171
   19SAPS  H18Z 2527   4.899   5.371   5.004 -0.7590 -1.8780 -0.0806
   20SAPS     N 2528   1.456   0.466   2.128  0.6704 -0.1301  0.9798
   20SAPS   HN1 2529   1.358   0.492   2.152  0.7798  2.1656 -0.7147
   20SAPS   HN2 2530   1.488   0.395   2.197  0.3332  0.9980  2.3459
   20SAPS   HN3 2531   1.521   0.546   2.142  0.4414 -0.3768  4.1544
   20SAPS   C12 2532   1.447   0.411   1.989  0.5726 -0.2920  0.1581
   20SAPS  H12A 2533   1.390   0.471   1.919 -0.2481 -1.7639 -0.4998
   20SAPS   C13 2534   1.581   0.363   1.923  0.9385 -0.3353  0.4779
   20SAPS  O13A 2535   1.691   0.376   1.986  0.2411  0.7738 -0.5033
   20SAPS  O13B 2536   1.578   0.319   1.809  0.2601  0.8492  0.1424
   20SAPS   C11 2537   1.369   0.275   2.003 -0.0283  0.2095 -0.4236
   20SAPS  H11A 2538   1.427   0.205   2.066 -1.6138 -0.7763  0.0131
   20SAPS  H11B 2539   1.362   0.229   1.902 -1.7666 -3.3472  1.1159
   20SAPS     P 2540   1.133   0.171   2.078  0.3956 -0.2163 -0.0152
   20SAPS   O13 2541   1.011   0.216   2.000  0.1614 -0.3872 -0.1300
   20SAPS   O14 2542   1.196   0.047   2.039 -0.3622 -0.0780 -0.3088
   20SAPS   O12 2543   1.237   0.285   2.059 -0.0938 -0.3544 -0.0460
   20SAPS   O11 2544   1.104   0.176   2.233 -0.1500  0.1806  0.5239
   20SAPS    C1 2545   0.991   0.111   2.286  0.1779  0.4125 -0.1167
   20SAPS    HA 2546   0.970   0.016   2.232 -1.1436  0.0157  1.0264
   20SAPS    HB 2547   1.017   0.087   2.391  0.3979 -2.0106 -0.6670
   20SAPS    C2 2548   0.862   0.206   2.283 -0.4818 -0.3234 -0.6665
   20SAPS    HS 2549   0.853   0.241   2.178 -0.9117  2.6049  0.2519
   20SAPS   O21 2550   0.887   0.321   2.364  0.1458 -0.5939  0.5452
   20SAPS   C21 2551   0.794   0.412   2.354 -0.2157  0.0202  0.0424
   20SAPS   O22 2552   0.714   0.420   2.260 -0.0486  0.7276  0.3992
   20SAPS   C22 2553   0.814   0.517   2.462  0.1925  0.7456  1.1763
   20SAPS   H2R 2554   0.915   0.561   2.450  0.3665 -0.0139 -0.2349
   20SAPS   H2S 2555   0.732   0.591   2.447 -1.0028 -0.9473 -1.3425
   20SAPS    C3 2556   0.734   0.127   2.316 -0.0699 -0.3004  0.7733
   20SAPS    HX 2557   0.738   0.055   2.231  0.7637  0.2368  0.3511
   20SAPS    HY 2558   0.641   0.189   2.314  1.3163  1.8570 -1.0599
   20SAPS   O31 2559   0.755   0.046   2.437 -0.1420  0.1157  0.2278
   20SAPS   C31 2560   0.726   0.110   2.541  0.4545  0.0144 -0.0555
   20SAPS   O32 2561   0.654   0.209   2.554 -0.3502  0.0892 -0.3435
   20SAPS   C32 2562   0.798   0.037   2.651  0.2499  0.6586  0.1017
   20SAPS   H2X 2563   0.905   0.063   2.645  0.1756  0.6186 -3.1936
   20SAPS   H2Y 2564   0.787  -0.073   2.636  1.5991  0.6904 -1.3707
   20SAPS   C23 2565   0.816   0.461   2.605  0.6570 -0.0474  0.1571
   20SAPS   H3R 2566   0.877   0.368   2.611  1.4107  0.3551 -0.8509
   20SAPS   H3S 2567   0.714   0.445   2.645  0.3387  1.0082 -0.1952
   20SAPS   C24 2568   0.871   0.560   2.708 -0.4973 -0.1283 -0.1302
   20SAPS   H4R 2569   0.861   0.511   2.807 -0.6429  0.1742  0.0078
   20SAPS   H4S 2570   0.821   0.659   2.701  2.5518  1.5251 -0.1983
   20SAPS   C25 2571   1.019   0.582   2.696  0.1725 -0.1748  0.1461
   20SAPS   H5R 2572   1.064   0.543   2.604 -3.8478 -0.1095 -2.0619
   20SAPS   C26 2573   1.087   0.652   2.793  0.3169 -0.3908  0.2763
   20SAPS   H6R 2574   1.190   0.683   2.769 -0.2915  0.5507 -1.2210
   20SAPS   C27 2575   1.035   0.716   2.923 -0.4229 -0.1580 -0.4783
   20SAPS   H7R 2576   0.951   0.663   2.971  1.0393 -0.4189  1.9961
   20SAPS   H7S 2577   0.991   0.818   2.913 -0.0438  0.1177  0.4613
   20SAPS   C28 2578   1.149   0.713   3.026 -0.4860  0.2687 -0.5675
   20SAPS   H8R 2579   1.235   0.655   2.992  0.5110  0.9325  0.7386
   20SAPS   C29 2580   1.160   0.777   3.142 -0.5174 -0.2477  0.3660
   20SAPS   H9R 2581   1.249   0.753   3.203 -0.7392  0.7232  1.0965
   20SAPS  C210 2582   1.059   0.870   3.210  0.0140  0.2766  1.0882
   20SAPS  H10R 2583   1.056   0.840   3.317  2.4905  0.4170  1.2468
   20SAPS  H10S 2584   0.959   0.853   3.164  2.4150  0.3605 -5.0727
   20SAPS  C211 2585   1.090   1.021   3.186  0.3454  0.5428 -0.5020
   20SAPS  H11R 2586   1.142   1.049   3.093 -0.4296  0.5365 -0.9404
   20SAPS  C212 2587   1.063   1.118   3.276  0.9827  0.3946  0.8417
   20SAPS  H12R 2588   1.091   1.220   3.244  0.7442 -0.1870 -1.3827
   20SAPS  C213 2589   0.993   1.097   3.409 -0.5642  0.2587  1.5318
   20SAPS  H13R 2590   1.054   1.033   3.476 -0.6168 -0.2917  1.0658
   20SAPS  H13S 2591   0.903   1.034   3.394 -0.2152  0.2848 -1.1412
   20SAPS  C214 2592   0.962   1.237   3.471  0.4719  0.5141  0.1526
   20SAPS  H14R 2593   0.939   1.323   3.407  3.3451  0.4488 -1.1316
   20SAPS  C215 2594   0.975   1.263   3.599  0.2520  0.4579  0.4584
   20SAPS  H15R 2595   0.947   1.361   3.640  0.3304  0.8497 -0.4085
   20SAPS  C216 2596   1.003   1.164   3.702 -0.0326  0.5688  0.4588
   20SAPS  H16R 2597   0.973   1.063   3.668  1.2305  1.1191 -2.6495
   20SAPS  H16S 2598   0.927   1.186   3.780 -2.6950 -1.4457 -1.3842
   20SAPS  C217 2599   1.141   1.178   3.741 -0.2833 -0.4180 -0.3616
   20SAPS  H17R 2600   1.173   1.280   3.770 -0.1996 -0.9672  1.5898
   20SAPS  H17S 2601   1.210   1.144   3.661  1.7920  2.7207 -0.0777
   20SAPS  C218 2602   1.173   1.097   3.866  0.0191  0.3057  0.0714
   20SAPS  H18R 2603   1.282   1.103   3.881 -0.0407  3.5622 -0.1628
   20SAPS  H18S 2604   1.146   0.992   3.841 -0.7790  0.1076  1.6516
   20SAPS  C219 2605   1.101   1.144   3.997  0.3038  0.1201 -0.1356
   20SAPS  H19R 2606   0.992   1.147   3.977  0.7161 -0.3340 -3.0103
   20SAPS  H19S 2607   1.136   1.245   4.026  0.8789  0.1021 -0.7496
   20SAPS  C220 2608   1.120   1.039   4.107  0.4535 -0.3132  0.3464
   20SAPS  H20R 2609   1.041   1.050   4.184  0.1613  1.9294 -0.1997
   20SAPS  H20S 2610   1.215   1.054   4.162 -0.6935  1.3493  2.0012
   20SAPS  H20T 2611   1.123   0.935   4.067  1.3790 -0.2478  0.2272
   20SAPS   C33 2612   0.744   0.087   2.780  0.1631 -0.3998 -0.1667
   20SAPS   H3X 2613   0.634   0.079   2.790 -0.2742  2.5318 -1.7418
   20SAPS   H3Y 2614   0.760   0.197   2.784 -2.2771  0.0345 -0.5604
   20SAPS   C34 2615   0.803   0.021   2.905 -0.1827 -1.1186  0.2247
   20SAPS   H4X 2616   0.913   0.005   2.913  0.4137  2.5442  0.8520
   20SAPS   H4Y 2617   0.753  -0.077   2.923 -0.6284 -0.8031  0.7175
   20SAPS   C35 2618   0.762   0.125   3.023  0.5606 -0.4880  0.3993
   20SAPS   H5X 2619   0.652   0.130   3.011  0.4369 -0.4156  1.4612
   20SAPS   H5Y 2620   0.813   0.222   3.007  1.2393 -0.9053 -0.0636
   20SAPS   C36 2621   0.786   0.076   3.168  0.4164  0.1374  0.2906
   20SAPS   H6X 2622   0.894   0.052   3.171  0.7064  1.2142 -0.8963
   20SAPS   H6Y 2623   0.725  -0.013   3.195 -0.9581  1.1331  0.6150
   20SAPS   C37 2624   0.747   0.193   3.257  0.0712 -0.4864 -0.3457
   20SAPS   H7X 2625   0.646   0.239   3.249 -0.5094 -1.4564  0.9803
   20SAPS   H7Y 2626   0.825   0.269   3.239  0.7823 -1.1948 -0.3082
   20SAPS   C38 2627   0.748   0.147   3.405 -0.1442  0.8293 -0.0933
   20SAPS   H8X 2628   0.853   0.125   3.433 -0.7628 -2.4710 -0.0120
   20SAPS   H8Y 2629   0.685   0.056   3.417 -0.6350  0.9744 -1.3698
   20SAPS   C39 2630   0.698   0.261   3.490 -0.2484  0.5021  0.9033
   20SAPS   H9X 2631   0.597   0.295   3.458 -0.5901 -3.0447 -2.6566
   20SAPS   H9Y 2632   0.773   0.338   3.462 -0.8237  0.4596 -0.8856
   20SAPS  C310 2633   0.707   0.238   3.638 -0.1048 -0.6619 -0.2062
   20SAPS  H10X 2634   0.812   0.229   3.673 -0.0320 -1.3040 -0.5826
   20SAPS  H10Y 2635   0.660   0.140   3.658  2.5531 -1.8291  0.6628
   20SAPS  C311 2636   0.639   0.356   3.711  0.0995 -0.4889 -0.1910
   20SAPS  H11X 2637   0.529   0.357   3.700  0.0073  0.1797  0.6764
   20SAPS  H11Y 2638   0.685   0.454   3.683  1.2868 -1.0095 -0.1344
   20SAPS  C312 2639   0.651   0.350   3.868  0.9212 -0.1810 -0.2913
   20SAPS  H12X 2640   0.754   0.315   3.894  1.0764 -0.9485 -1.8508
   20SAPS  H12Y 2641   0.584   0.264   3.890  0.9264  0.0185  0.5597
   20SAPS  C313 2642   0.598   0.478   3.938 -0.7150  0.2839  1.2032
   20SAPS  H13X 2643   0.489   0.493   3.920 -0.7277 -0.1984  0.8713
   20SAPS  H13Y 2644   0.666   0.553   3.892 -0.9164  0.4249  1.1325
   20SAPS  C314 2645   0.633   0.485   4.077  0.7340  0.3809 -0.1199
   20SAPS  H14X 2646   0.627   0.587   4.120  0.2635 -0.1550  1.1249
   20SAPS  H14Y 2647   0.739   0.456   4.093  0.7324 -0.2241 -1.1210
   20SAPS  C315 2648   0.551   0.379   4.155 -0.0541 -0.1450 -0.1475
   20SAPS  H15X 2649   0.575   0.278   4.115  0.7077 -0.1975  0.4150
   20SAPS  H15Y 2650   0.444   0.404   4.143 -0.5739 -1.6513  1.1048
   20SAPS  C316 2651   0.593   0.396   4.302 -0.1029  0.1666 -0.6173
   20SAPS  H16X 2652   0.540   0.487   4.337  0.6917 -0.1778  1.6838
   20SAPS  H16Y 2653   0.703   0.400   4.310 -0.2295  0.7988  1.3134
   20SAPS  C317 2654   0.536   0.285   4.395 -0.1946  0.3431 -0.3877
   20SAPS  H17X 2655   0.426   0.297   4.392 -0.1995  1.6861  2.2322
   20SAPS  H17Y 2656   0.566   0.306   4.499  0.9794 -0.4408 -0.5471
   20SAPS  C318 2657   0.564   0.140   4.350  0.8491  0.5966  0.4933
   20SAPS  H18X 2658   0.509   0.076   4.422  0.9162 -0.6533 -0.5377
   20SAPS  H18Y 2659   0.670   0.107   4.359  0.7627  0.3605  0.6553
   20SAPS  H18Z 2660   0.530   0.121   4.247  0.0098  0.2780  0.8247
   21CHL1    C3 2661   4.426   6.758   6.177  0.8012 -0.6237  0.5186
   21CHL1    H3 2662   4.501   6.837   6.159  2.4776 -2.2361  0.2036
   21CHL1    O3 2663   4.370   6.770   6.307  0.2865 -0.0005 -0.1350
   21CHL1   H3' 2664   4.444   6.739   6.360  1.7286 -0.4909 -2.2933
   21CHL1    C4 2665   4.321   6.771   6.070 -0.4473  0.4807 -0.0646
   21CHL1   H4A 2666   4.237   6.703   6.096  2.5976 -3.3078  0.8483
   21CHL1   H4B 2667   4.277   6.873   6.069 -1.9618 -0.1453 -0.4305
   21CHL1    C5 2668   4.377   6.745   5.933  0.1208  0.0616  0.6528
   21CHL1    C6 2669   4.382   6.847   5.838 -0.6483 -0.0700  0.3717
   21CHL1    H6 2670   4.342   6.944   5.871 -1.7955  0.1436 -1.4891
   21CHL1    C7 2671   4.438   6.830   5.700  0.3143  0.3782  1.0148
   21CHL1   H7A 2672   4.369   6.885   5.631 -0.7720 -0.0589  1.7210
   21CHL1   H7B 2673   4.543   6.864   5.692  0.0523  1.3910  1.7932
   21CHL1    C8 2674   4.436   6.675   5.659 -0.0808  0.4239 -0.8756
   21CHL1    H8 2675   4.329   6.645   5.659  0.2078 -0.7691  0.9737
   21CHL1   C14 2676   4.505   6.661   5.525  0.4262  0.3278  0.0229
   21CHL1   H14 2677   4.608   6.696   5.549  0.2680  0.9113 -0.1378
   21CHL1   C15 2678   4.453   6.743   5.402 -0.1619 -0.4684 -1.1880
   21CHL1  H15A 2679   4.345   6.755   5.421  0.4374  0.2727  2.4468
   21CHL1  H15B 2680   4.501   6.843   5.404  0.6258 -0.7813  2.6973
   21CHL1   C16 2681   4.483   6.659   5.286 -0.6690  0.1779  0.4043
   21CHL1  H16A 2682   4.395   6.617   5.232  0.9484 -1.2215 -1.2886
   21CHL1  H16B 2683   4.552   6.719   5.222 -0.2156  0.1687  0.8759
   21CHL1   C17 2684   4.578   6.541   5.331  0.1002  0.1322  0.5744
   21CHL1   H17 2685   4.683   6.575   5.345 -0.3296  0.8455  2.3385
   21CHL1   C13 2686   4.525   6.515   5.482  0.0919 -0.5328  0.6903
   21CHL1   C18 2687   4.393   6.447   5.466 -0.6467  0.2314  0.7809
   21CHL1  H18A 2688   4.316   6.506   5.411  0.7167  0.5721 -0.8337
   21CHL1  H18B 2689   4.398   6.350   5.413 -2.0517  0.9195 -0.7244
   21CHL1  H18C 2690   4.342   6.426   5.562  0.2228  0.0337  1.2059
   21CHL1   C12 2691   4.606   6.436   5.586  0.4753  0.5569  0.4318
   21CHL1  H12A 2692   4.613   6.329   5.559  0.7688  0.6736  0.0265
   21CHL1  H12B 2693   4.707   6.483   5.582  1.0183 -0.6186  0.0748
   21CHL1   C11 2694   4.547   6.453   5.724 -0.2073 -0.3367 -0.4311
   21CHL1  H11A 2695   4.456   6.389   5.726 -0.5012  0.0785  1.8831
   21CHL1  H11B 2696   4.622   6.414   5.797  0.5075 -1.7446 -1.8491
   21CHL1    C9 2697   4.512   6.592   5.771  0.2170  0.5889  0.1148
   21CHL1    H9 2698   4.607   6.647   5.788 -0.6570  1.4578  2.6637
   21CHL1   C10 2699   4.439   6.604   5.914  0.2270  0.2608  0.4267
   21CHL1   C19 2700   4.324   6.506   5.921 -0.8683 -0.4848  0.1406
   21CHL1  H19A 2701   4.239   6.543   5.859 -0.4533 -2.3048 -1.6308
   21CHL1  H19B 2702   4.354   6.400   5.904  0.3479  0.0859 -1.6171
   21CHL1  H19C 2703   4.286   6.496   6.024  0.8147 -1.7158  0.6797
   21CHL1    C1 2704   4.535   6.577   6.032  0.8243 -0.2025 -0.2083
   21CHL1   H1A 2705   4.539   6.466   6.033  1.4415 -0.1888 -0.8610
   21CHL1   H1B 2706   4.640   6.608   6.013  1.1591  0.4166  2.2958
   21CHL1    C2 2707   4.491   6.621   6.175 -0.4500  0.4840  0.3954
   21CHL1   H2A 2708   4.566   6.620   6.257 -1.2658  1.3378  1.1778
   21CHL1   H2B 2709   4.412   6.553   6.213  0.4535  0.3924  2.2423
   21CHL1   C20 2710   4.576   6.424   5.224 -0.4519  0.5463  0.2317
   21CHL1   H20 2711   4.478   6.372   5.233 -0.6391  0.8860  0.1801
   21CHL1   C21 2712   4.678   6.317   5.269  0.3963 -0.7420 -0.8367
   21CHL1  H21A 2713   4.633   6.268   5.358 -0.6098 -0.2116 -1.0371
   21CHL1  H21B 2714   4.772   6.364   5.306 -1.4502  2.1462  0.5629
   21CHL1  H21C 2715   4.688   6.239   5.191 -1.4459 -0.1289 -1.7489
   21CHL1   C22 2716   4.595   6.459   5.075  0.3192 -0.5948  0.1784
   21CHL1  H22A 2717   4.527   6.542   5.047  0.9409 -0.3619 -0.6927
   21CHL1  H22B 2718   4.697   6.499   5.053 -1.2077  2.0859 -2.9260
   21CHL1   C23 2719   4.558   6.342   4.989  0.2231  0.3183 -0.0043
   21CHL1  H23A 2720   4.631   6.261   5.007  1.7627  0.3184 -4.8140
   21CHL1  H23B 2721   4.458   6.297   5.007  0.4259  0.5568  1.9668
   21CHL1   C24 2722   4.550   6.385   4.840 -0.1086 -0.5772 -0.0236
   21CHL1  H24A 2723   4.484   6.474   4.833 -0.5381 -0.8307  0.6944
   21CHL1  H24B 2724   4.650   6.426   4.814 -1.3274  0.8169 -2.9139
   21CHL1   C25 2725   4.512   6.268   4.749  0.3129  0.5064 -0.1570
   21CHL1   H25 2726   4.427   6.209   4.790  1.9220 -1.7457  0.1305
   21CHL1   C26 2727   4.470   6.330   4.619 -0.5855  0.4679  0.4742
   21CHL1  H26A 2728   4.496   6.258   4.538 -0.4785  0.6805  0.3173
   21CHL1  H26B 2729   4.361   6.350   4.627 -1.2499 -2.3950 -0.5599
   21CHL1  H26C 2730   4.522   6.426   4.600 -0.7828  0.6491  0.8335
   21CHL1   C27 2731   4.628   6.169   4.737 -0.9957 -0.1719 -0.5008
   21CHL1  H27A 2732   4.648   6.117   4.833  0.9863 -1.8202 -1.7298
   21CHL1  H27B 2733   4.607   6.086   4.667  0.2818 -2.4479  1.6500
   21CHL1  H27C 2734   4.717   6.224   4.700 -2.3270  1.4386 -1.4529
   22CHL1    C3 2735   4.606   6.348   6.637 -0.3589 -1.0668  0.1289
   22CHL1    H3 2736   4.502   6.371   6.605 -0.2805 -0.3941  0.3389
   22CHL1    O3 2737   4.620   6.369   6.774  0.9563  0.3469  0.0003
   22CHL1   H3' 2738   4.708   6.345   6.802 -0.7421 -3.0812  3.4106
   22CHL1    C4 2739   4.641   6.206   6.610 -0.0532  0.7094  0.9021
   22CHL1   H4A 2740   4.741   6.185   6.652 -0.1056 -0.1794  0.6196
   22CHL1   H4B 2741   4.568   6.140   6.662 -0.3517 -1.1156 -1.6123
   22CHL1    C5 2742   4.637   6.164   6.465 -0.6274 -0.2334 -0.7743
   22CHL1    C6 2743   4.558   6.066   6.421 -0.1360  0.0116 -0.6504
   22CHL1    H6 2744   4.504   5.995   6.485 -0.8024  0.4535 -0.7058
   22CHL1    C7 2745   4.577   6.004   6.285  0.4295 -0.2277  0.1066
   22CHL1   H7A 2746   4.586   5.894   6.302  0.7740  0.0842  2.1987
   22CHL1   H7B 2747   4.478   6.015   6.234  0.2694  0.1187  0.4828
   22CHL1    C8 2748   4.694   6.066   6.199 -0.6218 -0.3500 -0.3632
   22CHL1    H8 2749   4.784   6.014   6.238  0.2212  0.7856 -0.7357
   22CHL1   C14 2750   4.687   6.030   6.048 -0.0430 -0.5836 -0.4255
   22CHL1   H14 2751   4.592   6.075   6.011  0.2777  2.5307  2.1238
   22CHL1   C15 2752   4.694   5.881   6.023  0.1534  0.5063 -0.2493
   22CHL1  H15A 2753   4.775   5.820   6.067 -1.0093  0.0366  1.3093
   22CHL1  H15B 2754   4.607   5.817   6.048  0.0493  0.7778  0.0896
   22CHL1   C16 2755   4.700   5.878   5.871 -0.6647  0.3991 -0.5560
   22CHL1  H16A 2756   4.761   5.796   5.826  0.5765  1.0582 -0.0880
   22CHL1  H16B 2757   4.597   5.866   5.830 -1.4949  1.8358  0.9925
   22CHL1   C17 2758   4.747   6.016   5.818  0.8732  0.5691 -0.4884
   22CHL1   H17 2759   4.658   6.071   5.782 -0.2106  0.0642  1.3042
   22CHL1   C13 2760   4.795   6.086   5.947 -0.2877 -0.1829 -0.0766
   22CHL1   C18 2761   4.937   6.040   5.974 -0.4768  0.3042 -0.7864
   22CHL1  H18A 2762   4.947   6.043   6.085  0.4215 -1.6685 -0.7730
   22CHL1  H18B 2763   4.972   5.937   5.952  0.2092  0.3407  0.0474
   22CHL1  H18C 2764   5.016   6.104   5.931 -0.1134  0.5040  0.1464
   22CHL1   C12 2765   4.787   6.244   5.965 -1.0979  0.0881 -0.1716
   22CHL1  H12A 2766   4.856   6.292   5.892  1.0926 -0.3275  1.5104
   22CHL1  H12B 2767   4.681   6.267   5.941 -1.2925 -0.5881  0.0457
   22CHL1   C11 2768   4.808   6.286   6.110  0.2438  0.5639 -0.5118
   22CHL1  H11A 2769   4.911   6.261   6.144  1.0986  0.2291 -3.1438
   22CHL1  H11B 2770   4.798   6.397   6.115  0.9604  0.5952  0.7687
   22CHL1    C9 2771   4.705   6.221   6.217  0.1939 -0.5747  0.3222
   22CHL1    H9 2772   4.611   6.273   6.189  1.4768  1.5825 -0.2083
   22CHL1   C10 2773   4.730   6.249   6.372  0.1512  0.0057  0.1670
   22CHL1   C19 2774   4.881   6.217   6.407  0.2663 -0.5639 -0.3358
   22CHL1  H19A 2775   4.897   6.109   6.388  1.1866 -0.2265 -1.5913
   22CHL1  H19B 2776   4.933   6.287   6.338 -2.4898  1.7446 -0.2710
   22CHL1  H19C 2777   4.896   6.251   6.511  0.1545 -1.1091 -0.1399
   22CHL1    C1 2778   4.697   6.394   6.407 -0.0148  0.6335  0.3858
   22CHL1   H1A 2779   4.773   6.455   6.354 -0.3974 -0.2633 -1.2490
   22CHL1   H1B 2780   4.593   6.417   6.376 -0.5902  1.8200  2.9234
   22CHL1    C2 2781   4.692   6.440   6.554  0.4707  0.1561  0.6996
   22CHL1   H2A 2782   4.649   6.543   6.548 -0.6280 -0.1802  2.1629
   22CHL1   H2B 2783   4.796   6.443   6.593  0.9552  1.1366 -0.5957
   22CHL1   C20 2784   4.836   6.015   5.690 -0.0971 -0.0632  0.1063
   22CHL1   H20 2785   4.920   5.946   5.711  2.0663  2.7077  1.2614
   22CHL1   C21 2786   4.903   6.147   5.648 -0.2390 -1.2089  0.4137
   22CHL1  H21A 2787   4.836   6.236   5.639  0.1633 -0.6189  2.7778
   22CHL1  H21B 2788   4.973   6.127   5.564  0.4062 -2.0240  1.1385
   22CHL1  H21C 2789   4.964   6.164   5.739 -0.1095 -0.2596  0.1675
   22CHL1   C22 2790   4.752   5.977   5.569 -0.1527 -0.3177  0.1053
   22CHL1  H22A 2791   4.711   5.878   5.600 -1.3265  0.4995  1.2534
   22CHL1  H22B 2792   4.670   6.046   5.542  0.0421 -0.9356 -2.2786
   22CHL1   C23 2793   4.826   5.958   5.437  0.1312 -0.6333 -0.2994
   22CHL1  H23A 2794   4.824   6.057   5.386 -1.8676  0.1932  1.2611
   22CHL1  H23B 2795   4.934   5.945   5.460  0.1989 -0.1920 -0.3565
   22CHL1   C24 2796   4.775   5.834   5.351  0.1903  0.4766  0.3704
   22CHL1  H24A 2797   4.790   5.747   5.418 -2.4282  1.4652  2.4190
   22CHL1  H24B 2798   4.664   5.838   5.341  0.0126 -1.5800  1.0232
   22CHL1   C25 2799   4.837   5.810   5.210  0.1579  0.4881 -0.1605
   22CHL1   H25 2800   4.774   5.876   5.146 -0.2714  0.5896  0.3593
   22CHL1   C26 2801   4.989   5.838   5.218  0.0360  0.8379 -1.1096
   22CHL1  H26A 2802   5.032   5.777   5.300  0.7121  4.1618  1.2201
   22CHL1  H26B 2803   5.043   5.820   5.122  1.7415  1.0151 -0.2193
   22CHL1  H26C 2804   5.001   5.946   5.241 -3.4598  1.5112 -1.8672
   22CHL1   C27 2805   4.805   5.663   5.162 -1.4670  0.1337  0.5023
   22CHL1  H27A 2806   4.694   5.651   5.166 -1.6719  0.6712 -1.8567
   22CHL1  H27B 2807   4.843   5.657   5.057 -1.1899  1.1931  0.5396
   22CHL1  H27C 2808   4.849   5.577   5.216  3.0880  0.9298 -1.5379
   23CHL1    C3 2809   2.820   0.147   6.209  0.1857 -0.0993 -0.0059
   23CHL1    H3 2810   2.713   0.124   6.195  0.2572  0.0973 -0.9512
   23CHL1    O3 2811   2.867   0.125   6.341 -0.0890 -0.1976  0.0006
   23CHL1   H3' 2812   2.956   0.159   6.345  0.0331 -0.3861 -0.9917
   23CHL1    C4 2813   2.905   0.062   6.110 -0.2293 -0.1366 -0.1667
   23CHL1   H4A 2814   3.013   0.080   6.130 -0.3655 -0.2532  0.7473
   23CHL1   H4B 2815   2.886  -0.046   6.128  3.4424 -1.0401 -0.9596
   23CHL1    C5 2816   2.886   0.083   5.965  0.4714 -0.5217  0.3099
   23CHL1    C6 2817   2.852  -0.012   5.883 -0.0812  0.5510 -0.1937
   23CHL1    H6 2818   2.848  -0.119   5.909  0.4736  0.5946  0.1026
   23CHL1    C7 2819   2.837   0.010   5.732 -0.0473 -0.1050  0.0009
   23CHL1   H7A 2820   2.901  -0.065   5.681  0.4137 -0.2292  0.7337
   23CHL1   H7B 2821   2.730  -0.001   5.707  0.2091 -1.8151 -0.4164
   23CHL1    C8 2822   2.905   0.145   5.692  0.2941 -0.4082 -0.0911
   23CHL1    H8 2823   3.015   0.130   5.700  0.1071 -1.4832  0.7164
   23CHL1   C14 2824   2.872   0.177   5.544 -0.3724 -0.4214 -0.3916
   23CHL1   H14 2825   2.761   0.184   5.552 -0.2728 -0.1384  1.1968
   23CHL1   C15 2826   2.895   0.066   5.439  0.6813  0.5265 -0.3232
   23CHL1  H15A 2827   3.003   0.040   5.437 -0.0072 -2.7191 -1.3318
   23CHL1  H15B 2828   2.833  -0.024   5.460 -0.3019  1.1963 -0.2899
   23CHL1   C16 2829   2.855   0.137   5.309 -1.1870 -0.3415  0.1715
   23CHL1  H16A 2830   2.929   0.119   5.228 -0.3990  0.9911  0.5666
   23CHL1  H16B 2831   2.753   0.108   5.278 -1.2108  0.1617 -0.2374
   23CHL1   C17 2832   2.863   0.293   5.344 -0.6112 -0.0268  0.0797
   23CHL1   H17 2833   2.759   0.335   5.346  0.3016  2.3924  1.4245
   23CHL1   C13 2834   2.927   0.304   5.485 -0.2056  0.4698  0.3010
   23CHL1   C18 2835   3.079   0.306   5.489 -0.5109  0.6056 -0.6197
   23CHL1  H18A 2836   3.125   0.407   5.477  2.5485 -0.5929  0.1278
   23CHL1  H18B 2837   3.120   0.265   5.583 -0.0833  2.5647  0.1040
   23CHL1  H18C 2838   3.124   0.240   5.411  1.4620  1.2213 -0.0648
   23CHL1   C12 2839   2.857   0.420   5.576 -0.1359  0.6255 -0.0477
   23CHL1  H12A 2840   2.892   0.519   5.540  0.9576 -0.0000 -0.7872
   23CHL1  H12B 2841   2.747   0.406   5.572 -0.4242  2.5240  0.5609
   23CHL1   C11 2842   2.898   0.400   5.725  0.2024  0.1097  0.0084
   23CHL1  H11A 2843   3.006   0.428   5.732 -0.1652  1.3293  1.4855
   23CHL1  H11B 2844   2.844   0.474   5.788  1.0821  0.8387 -0.0757
   23CHL1    C9 2845   2.857   0.259   5.781  0.0915 -0.0432  0.2892
   23CHL1    H9 2846   2.747   0.254   5.767  0.3320 -0.1223 -1.7605
   23CHL1   C10 2847   2.903   0.233   5.930 -0.1025  0.2384 -0.0098
   23CHL1   C19 2848   3.055   0.277   5.945 -0.0057  0.2315 -0.1497
   23CHL1  H19A 2849   3.118   0.233   5.865  1.2680 -1.9970  1.9715
   23CHL1  H19B 2850   3.062   0.388   5.944  0.8971  0.2001 -2.0982
   23CHL1  H19C 2851   3.086   0.244   6.046  1.1293 -3.8846 -1.6194
   23CHL1    C1 2852   2.807   0.310   6.030 -0.0504  0.3251  0.3307
   23CHL1   H1A 2853   2.806   0.415   5.994 -0.9353  0.2751  0.1987
   23CHL1   H1B 2854   2.706   0.266   6.016  0.5122 -1.0448  0.4613
   23CHL1    C2 2855   2.834   0.297   6.177 -0.5708 -0.3103  0.3180
   23CHL1   H2A 2856   2.779   0.358   6.251 -0.9710 -0.3947  0.0953
   23CHL1   H2B 2857   2.941   0.322   6.192  0.0657 -2.4030 -0.3447
   23CHL1   C20 2858   2.930   0.371   5.226  0.0390  0.0175 -0.0154
   23CHL1   H20 2859   3.028   0.322   5.210  0.0067 -0.1796  0.3966
   23CHL1   C21 2860   2.954   0.518   5.261  0.0557  0.5262  0.3501
   23CHL1  H21A 2861   2.861   0.578   5.267  0.0668  0.8308 -1.6846
   23CHL1  H21B 2862   3.013   0.571   5.182  0.2682  0.1235  0.2386
   23CHL1  H21C 2863   3.001   0.541   5.359 -1.6088  3.6056  0.5682
   23CHL1   C22 2864   2.859   0.358   5.086  0.1375  0.2553 -0.9326
   23CHL1  H22A 2865   2.874   0.251   5.060 -2.0686 -0.4072  0.1943
   23CHL1  H22B 2866   2.748   0.365   5.087  0.2097  1.7570 -0.0888
   23CHL1   C23 2867   2.905   0.441   4.973 -0.0489 -0.3335  0.7407
   23CHL1  H23A 2868   2.870   0.547   4.967 -2.6159 -1.1895 -4.4349
   23CHL1  H23B 2869   3.015   0.452   4.980 -0.2764  1.3022  2.7577
   23CHL1   C24 2870   2.868   0.381   4.838 -0.6103 -0.0249 -0.0372
   23CHL1  H24A 2871   2.941   0.421   4.765  0.3088 -0.8336  0.4283
   23CHL1  H24B 2872   2.876   0.272   4.825  0.0554 -0.0068  0.1798
   23CHL1   C25 2873   2.727   0.427   4.793  0.1238 -0.3249  0.3814
   23CHL1   H25 2874   2.707   0.535   4.805 -0.0167 -0.4720  1.5649
   23CHL1   C26 2875   2.727   0.394   4.642 -0.3751  0.4992 -0.8919
   23CHL1  H26A 2876   2.629   0.411   4.593 -1.3980 -1.8722  0.1210
   23CHL1  H26B 2877   2.798   0.457   4.586 -0.5644  0.7157 -0.8910
   23CHL1  H26C 2878   2.738   0.285   4.622  1.5432  0.2393  1.1704
   23CHL1   C27 2879   2.612   0.348   4.858  0.1191  0.7086 -0.2035
   23CHL1  H27A 2880   2.516   0.377   4.809 -0.5966  1.9518  1.7988
   23CHL1  H27B 2881   2.630   0.238   4.852  1.5551  0.8792  0.6346
   23CHL1  H27C 2882   2.593   0.367   4.966  2.6534 -1.3563  0.6923
   24CHL1    C3 2883   5.727   5.939   6.495  0.1324 -0.6585  0.0742
   24CHL1    H3 2884   5.621   5.916   6.466 -0.6363  0.5171  1.8223
   24CHL1    O3 2885   5.726   5.929   6.637 -0.1657 -0.5079 -0.0286
   24CHL1   H3' 2886   5.661   5.994   6.666  1.2982  0.4819  1.2085
   24CHL1    C4 2887   5.827   5.846   6.429  0.0748 -0.5532 -0.2503
   24CHL1   H4A 2888   5.933   5.868   6.451 -0.3359  2.3225 -0.7942
   24CHL1   H4B 2889   5.807   5.745   6.471  1.5782 -0.6958  0.1924
   24CHL1    C5 2890   5.813   5.841   6.280  0.8145  0.1965 -0.0695
   24CHL1    C6 2891   5.800   5.721   6.213 -0.5841  0.2984 -0.6531
   24CHL1    H6 2892   5.809   5.628   6.271  1.4653  1.4265  0.9529
   24CHL1    C7 2893   5.784   5.706   6.070 -0.0967 -0.0415  0.1421
   24CHL1   H7A 2894   5.846   5.626   6.025  1.5031  0.6250  1.0700
   24CHL1   H7B 2895   5.673   5.705   6.061  0.0575  0.6584 -3.5742
   24CHL1    C8 2896   5.819   5.835   5.994 -0.2728  0.0305  0.2458
   24CHL1    H8 2897   5.929   5.829   5.991 -0.3148 -1.9205  0.9916
   24CHL1   C14 2898   5.762   5.834   5.853  0.3011 -0.3240 -0.4528
   24CHL1   H14 2899   5.652   5.822   5.867 -0.1343 -1.5884 -3.9324
   24CHL1   C15 2900   5.799   5.715   5.765 -0.0193  0.2850 -0.6127
   24CHL1  H15A 2901   5.909   5.700   5.772 -0.1905 -1.3026 -0.9079
   24CHL1  H15B 2902   5.766   5.614   5.800  2.9401 -0.4569  0.3248
   24CHL1   C16 2903   5.760   5.758   5.623 -0.1884  0.1833  0.2606
   24CHL1  H16A 2904   5.855   5.742   5.568  0.3310  1.0259  0.8845
   24CHL1  H16B 2905   5.674   5.703   5.579  0.8155 -1.5170  0.3337
   24CHL1   C17 2906   5.727   5.911   5.635 -0.1231 -0.0717 -0.0558
   24CHL1   H17 2907   5.619   5.928   5.656 -0.3597  0.6737 -1.6991
   24CHL1   C13 2908   5.783   5.958   5.767 -0.1621  0.2925  0.3807
   24CHL1   C18 2909   5.938   5.987   5.761  0.0235  0.5909  0.2912
   24CHL1  H18A 2910   5.961   6.078   5.702  0.3655  1.8903  2.3244
   24CHL1  H18B 2911   5.975   6.023   5.860  0.7705  1.2850 -0.2372
   24CHL1  H18C 2912   6.005   5.906   5.725  0.3987  0.1550  1.8899
   24CHL1   C12 2913   5.717   6.075   5.832  0.6552 -0.4923 -0.2886
   24CHL1  H12A 2914   5.733   6.175   5.788 -1.1756  0.1835  0.4699
   24CHL1  H12B 2915   5.607   6.070   5.817  0.5083  3.6028 -1.7849
   24CHL1   C11 2916   5.761   6.093   5.982 -0.0806  0.1106 -0.1414
   24CHL1  H11A 2917   5.865   6.131   5.985  0.5914 -1.6665  0.2930
   24CHL1  H11B 2918   5.688   6.163   6.027  1.5468  1.1020  1.0794
   24CHL1    C9 2919   5.758   5.957   6.066  0.4489 -0.6342 -1.1354
   24CHL1    H9 2920   5.649   5.941   6.078  0.4772  0.8430  2.1982
   24CHL1   C10 2921   5.815   5.978   6.209 -0.3175  0.0737 -1.0051
   24CHL1   C19 2922   5.969   6.011   6.207 -0.4967 -0.2869 -0.6695
   24CHL1  H19A 2923   6.030   5.942   6.145 -1.8989 -3.4381  1.1816
   24CHL1  H19B 2924   5.983   6.117   6.178 -3.0292  0.7523  1.4444
   24CHL1  H19C 2925   6.015   6.005   6.308  1.2801  1.6366 -1.2959
   24CHL1    C1 2926   5.741   6.084   6.291  0.1274  0.8819 -0.7874
   24CHL1   H1A 2927   5.763   6.188   6.257 -1.5550  1.4161 -0.3825
   24CHL1   H1B 2928   5.637   6.069   6.255 -0.1135  1.1670 -0.2347
   24CHL1    C2 2929   5.742   6.080   6.439 -0.4109  0.5807 -0.5944
   24CHL1   H2A 2930   5.656   6.139   6.479  0.0112  0.9113 -0.1679
   24CHL1   H2B 2931   5.834   6.132   6.472 -0.9083  1.6394 -0.8226
   24CHL1   C20 2932   5.760   5.998   5.511  0.1884  0.7032  0.7684
   24CHL1   H20 2933   5.866   5.984   5.480 -0.0482 -0.0658  0.2730
   24CHL1   C21 2934   5.734   6.151   5.528 -0.7336  1.0213 -0.4436
   24CHL1  H21A 2935   5.738   6.208   5.433  2.7844  0.0100 -1.0282
   24CHL1  H21B 2936   5.815   6.196   5.590 -1.5547 -0.8184  2.1759
   24CHL1  H21C 2937   5.636   6.167   5.579  0.1228  1.1495  1.2322
   24CHL1   C22 2938   5.668   5.957   5.392  0.3801  0.0981 -0.2052
   24CHL1  H22A 2939   5.676   5.847   5.376 -2.3241 -0.3204  0.7545
   24CHL1  H22B 2940   5.566   5.977   5.430  0.4994  1.4682 -0.5456
   24CHL1   C23 2941   5.687   6.015   5.251 -0.3705 -0.5673 -0.2011
   24CHL1  H23A 2942   5.611   5.964   5.188 -0.8058 -0.3835  0.1748
   24CHL1  H23B 2943   5.669   6.124   5.259 -0.1733 -0.6707  3.0260
   24CHL1   C24 2944   5.828   5.984   5.198 -0.4157  0.7566 -0.9130
   24CHL1  H24A 2945   5.897   6.048   5.257 -0.1886  1.9553 -2.3994
   24CHL1  H24B 2946   5.857   5.879   5.220 -3.4591 -0.1709 -0.8301
   24CHL1   C25 2947   5.859   6.017   5.051  0.0611  0.2933 -0.4493
   24CHL1   H25 2948   5.804   6.111   5.029  0.8255  0.6783 -0.7504
   24CHL1   C26 2949   6.010   6.033   5.027 -0.2765 -0.2356 -0.0294
   24CHL1  H26A 2950   6.051   5.933   5.052  0.4923 -0.0824 -0.6324
   24CHL1  H26B 2951   6.040   6.063   4.924  1.4686  0.1662  0.5498
   24CHL1  H26C 2952   6.053   6.110   5.095 -0.9323  0.6600 -0.5996
   24CHL1   C27 2953   5.792   5.918   4.949 -0.4578  0.7727  0.3424
   24CHL1  H27A 2954   5.684   5.927   4.971 -0.6873  0.3992 -0.5882
   24CHL1  H27B 2955   5.808   5.945   4.842  0.7661 -0.8452  0.0684
   24CHL1  H27C 2956   5.831   5.814   4.961 -1.4466  0.3710  0.1521
   25CHL1    C3 2957   2.497   2.579   5.943 -0.4298  0.2063 -0.5742
   25CHL1    H3 2958   2.606   2.595   5.957 -1.0045  2.4233  2.5445
   25CHL1    O3 2959   2.451   2.500   6.056 -0.3192  0.6025 -0.3489
   25CHL1   H3' 2960   2.374   2.448   6.030  0.1161 -1.6437  2.3071
   25CHL1    C4 2961   2.429   2.716   5.940  0.2853  0.3054 -0.6375
   25CHL1   H4A 2962   2.319   2.716   5.958  0.6657  0.0474  2.2214
   25CHL1   H4B 2963   2.457   2.778   6.029  2.0064 -0.2604 -0.7633
   25CHL1    C5 2964   2.467   2.793   5.817  0.3507  0.2502  0.4350
   25CHL1    C6 2965   2.512   2.917   5.814  0.7305  0.1217 -0.0111
   25CHL1    H6 2966   2.514   2.975   5.907 -1.0590 -1.8345  1.3567
   25CHL1    C7 2967   2.558   2.986   5.694 -0.0121  0.3267  0.2940
   25CHL1   H7A 2968   2.509   3.085   5.707 -1.3026 -0.4082  1.3362
   25CHL1   H7B 2969   2.668   2.997   5.688 -0.1728  1.2090 -2.1552
   25CHL1    C8 2970   2.505   2.920   5.562 -0.0632  0.1015  0.4749
   25CHL1    H8 2971   2.401   2.958   5.558 -0.3049 -0.6605 -2.2452
   25CHL1   C14 2972   2.585   2.971   5.444  0.0865 -0.0598 -0.4348
   25CHL1   H14 2973   2.682   2.918   5.432  0.4497  0.2107  1.1257
   25CHL1   C15 2974   2.627   3.115   5.446  0.7434 -0.7499  0.4373
   25CHL1  H15A 2975   2.545   3.172   5.494  0.3835 -0.0093 -1.0030
   25CHL1  H15B 2976   2.712   3.133   5.515  1.3032 -2.2389  0.1727
   25CHL1   C16 2977   2.651   3.147   5.296  0.2982  0.1685  0.4456
   25CHL1  H16A 2978   2.630   3.252   5.266  1.3827  0.5318  0.9331
   25CHL1  H16B 2979   2.762   3.145   5.298  0.3044 -1.8913  0.0684
   25CHL1   C17 2980   2.589   3.026   5.211  0.0172  0.3843 -0.3224
   25CHL1   H17 2981   2.670   2.952   5.195  2.1511  2.1416  1.7250
   25CHL1   C13 2982   2.505   2.947   5.314 -0.4192  0.4088  0.0867
   25CHL1   C18 2983   2.367   3.008   5.318  0.2141  0.3668  1.0985
   25CHL1  H18A 2984   2.316   3.006   5.219 -0.0907 -2.2528  1.2375
   25CHL1  H18B 2985   2.300   2.962   5.394 -0.0844 -0.4316  0.3769
   25CHL1  H18C 2986   2.370   3.117   5.337  0.1791  0.3606  1.1392
   25CHL1   C12 2987   2.497   2.795   5.303  0.2192 -0.4480 -0.6878
   25CHL1  H12A 2988   2.444   2.761   5.212  1.0182 -0.4258 -1.1751
   25CHL1  H12B 2989   2.601   2.760   5.287  0.1766 -0.6840 -0.4407
   25CHL1   C11 2990   2.443   2.722   5.420  0.3094 -0.0597 -0.4725
   25CHL1  H11A 2991   2.336   2.752   5.422  0.1964 -0.4411 -0.7028
   25CHL1  H11B 2992   2.457   2.612   5.416 -1.1407 -0.2249 -2.4442
   25CHL1    C9 2993   2.507   2.773   5.556 -0.3173  0.1620  0.2767
   25CHL1    H9 2994   2.614   2.745   5.562  0.5992  2.7528 -2.0240
   25CHL1   C10 2995   2.452   2.705   5.687 -1.0320 -0.2474 -0.3534
   25CHL1   C19 2996   2.300   2.685   5.674 -0.0384 -0.1784 -0.0586
   25CHL1  H19A 2997   2.288   2.614   5.589 -1.9634 -0.8851  0.7585
   25CHL1  H19B 2998   2.252   2.629   5.757 -0.7711 -0.1939 -0.4878
   25CHL1  H19C 2999   2.239   2.777   5.664  1.1404  1.2167  3.6953
   25CHL1    C1 3000   2.524   2.568   5.699  0.4038 -0.7134  0.3168
   25CHL1   H1A 3001   2.491   2.514   5.608  1.0117  1.7378 -1.4489
   25CHL1   H1B 3002   2.634   2.579   5.704  0.1852  3.2145 -0.4346
   25CHL1    C2 3003   2.465   2.499   5.820 -0.5553  0.2898 -0.6324
   25CHL1   H2A 3004   2.512   2.399   5.831 -1.3140 -0.0264 -0.1670
   25CHL1   H2B 3005   2.360   2.462   5.814 -1.0776  1.6795 -0.5155
   25CHL1   C20 3006   2.536   3.067   5.067 -0.6169 -0.3152  0.1256
   25CHL1   H20 3007   2.462   3.149   5.071  0.5039  0.7597 -0.5844
   25CHL1   C21 3008   2.478   2.947   5.004 -0.4622  0.5860  0.2782
   25CHL1  H21A 3009   2.417   2.967   4.913 -0.3744  0.5793  0.2167
   25CHL1  H21B 3010   2.405   2.888   5.063 -1.0480  0.5214 -0.4957
   25CHL1  H21C 3011   2.562   2.880   4.974 -0.8851  0.1365  0.0759
   25CHL1   C22 3012   2.651   3.135   4.988 -0.4349 -0.5932  0.6509
   25CHL1  H22A 3013   2.696   3.218   5.047 -0.7283 -1.6334  2.4070
   25CHL1  H22B 3014   2.736   3.064   4.978 -0.0759 -0.3153  1.5903
   25CHL1   C23 3015   2.608   3.178   4.848 -0.6895 -0.4377  0.0139
   25CHL1  H23A 3016   2.544   3.111   4.788  1.3198  0.0176 -2.8467
   25CHL1  H23B 3017   2.547   3.271   4.859 -0.4315 -0.3554  0.8283
   25CHL1   C24 3018   2.730   3.202   4.761 -0.2972 -0.4053  0.2888
   25CHL1  H24A 3019   2.796   3.275   4.812  0.3271 -1.4197  0.9655
   25CHL1  H24B 3020   2.789   3.108   4.752  0.0189 -0.4596  2.4827
   25CHL1   C25 3021   2.708   3.271   4.627  0.9280 -0.0678 -0.0266
   25CHL1   H25 3022   2.668   3.375   4.632 -2.8600 -1.2774 -1.1642
   25CHL1   C26 3023   2.846   3.283   4.562  0.3532  0.3108  0.3974
   25CHL1  H26A 3024   2.914   3.354   4.614 -0.6143  2.6308 -1.3336
   25CHL1  H26B 3025   2.880   3.178   4.553 -0.6050 -0.2321  2.4761
   25CHL1  H26C 3026   2.825   3.323   4.460 -1.0301 -1.1223  0.0954
   25CHL1   C27 3027   2.618   3.203   4.529 -0.1587  0.8514  0.5941
   25CHL1  H27A 3028   2.513   3.197   4.567  0.6221  1.2540  2.9729
   25CHL1  H27B 3029   2.606   3.271   4.441 -0.2345  1.1699  0.8488
   25CHL1  H27C 3030   2.654   3.106   4.490 -1.8041 -0.1862  1.5337
   26CHL1    C3 3031   6.096   6.469   6.193 -0.4996  0.4545 -1.2103
   26CHL1    H3 3032   5.995   6.425   6.177 -0.9883  1.4579 -0.9647
   26CHL1    O3 3033   6.131   6.469   6.331 -0.2873  0.0669 -0.1458
   26CHL1   H3' 3034   6.127   6.561   6.359  1.2308  0.0775  0.1504
   26CHL1    C4 3035   6.186   6.369   6.115  0.3879 -0.4428 -0.4694
   26CHL1   H4A 3036   6.289   6.395   6.147 -0.2047 -2.0926  3.4043
   26CHL1   H4B 3037   6.166   6.269   6.161 -0.1283 -1.1234 -2.1092
   26CHL1    C5 3038   6.163   6.386   5.966 -0.0181 -0.4590  0.1040
   26CHL1    C6 3039   6.149   6.284   5.880  0.6960  0.4222  0.4056
   26CHL1    H6 3040   6.158   6.182   5.920 -0.9852  0.7759  1.7845
   26CHL1    C7 3041   6.140   6.288   5.734 -0.3267  0.0103  0.6143
   26CHL1   H7A 3042   6.199   6.204   5.691 -1.4825  0.7113 -2.6292
   26CHL1   H7B 3043   6.035   6.275   5.701 -0.6373  2.3534  0.4849
   26CHL1    C8 3044   6.192   6.417   5.671  0.3079 -0.4785  0.0506
   26CHL1    H8 3045   6.302   6.428   5.676  0.2591  0.0834 -0.0195
   26CHL1   C14 3046   6.134   6.435   5.527 -1.0690  0.6524  0.3406
   26CHL1   H14 3047   6.026   6.455   5.545 -0.8856  3.2138 -0.9882
   26CHL1   C15 3048   6.136   6.314   5.428 -0.4127 -0.1295  0.0248
   26CHL1  H15A 3049   6.233   6.262   5.431 -0.5718 -0.4024  0.4919
   26CHL1  H15B 3050   6.055   6.242   5.454  0.4866 -1.0951  0.1904
   26CHL1   C16 3051   6.095   6.379   5.292 -0.3139  0.4558 -0.8004
   26CHL1  H16A 3052   6.167   6.344   5.215 -0.5861 -0.0994 -0.8102
   26CHL1  H16B 3053   5.991   6.353   5.262 -0.7352  0.0762  0.8661
   26CHL1   C17 3054   6.097   6.530   5.313  0.3418 -0.6535  0.2138
   26CHL1   H17 3055   5.994   6.570   5.323  1.4410  2.2984  0.6712
   26CHL1   C13 3056   6.178   6.552   5.448  0.1421  0.1057 -0.5366
   26CHL1   C18 3057   6.333   6.555   5.431  0.0350  0.4227  0.0540
   26CHL1  H18A 3058   6.370   6.650   5.388 -0.8497 -0.1562 -2.1044
   26CHL1  H18B 3059   6.379   6.548   5.532 -0.4928  1.2072  0.3583
   26CHL1  H18C 3060   6.371   6.468   5.372 -0.2596  0.7539 -0.6281
   26CHL1   C12 3061   6.131   6.677   5.534 -0.1694 -0.5906 -0.5185
   26CHL1  H12A 3062   6.176   6.769   5.491 -0.0676  0.6568  2.0972
   26CHL1  H12B 3063   6.023   6.698   5.518  0.0476  1.2030  0.1808
   26CHL1   C11 3064   6.155   6.672   5.685  0.0215 -0.0717  0.4353
   26CHL1  H11A 3065   6.264   6.687   5.702  0.5983 -2.4942 -0.7253
   26CHL1  H11B 3066   6.099   6.758   5.728 -0.3875 -0.3613  0.4837
   26CHL1    C9 3067   6.127   6.539   5.755 -0.3061  0.7987 -0.0811
   26CHL1    H9 3068   6.017   6.522   5.759 -0.0224 -0.9781  1.8246
   26CHL1   C10 3069   6.164   6.529   5.908 -0.1062 -0.0049 -0.4865
   26CHL1   C19 3070   6.318   6.565   5.927 -0.3373  0.0595 -0.1656
   26CHL1  H19A 3071   6.383   6.500   5.865 -0.8191 -1.5753  0.9837
   26CHL1  H19B 3072   6.329   6.674   5.908 -2.8894  0.6811  1.4254
   26CHL1  H19C 3073   6.344   6.549   6.034 -1.1210 -1.1842 -0.1403
   26CHL1    C1 3074   6.077   6.628   5.988 -0.3110 -0.7208  0.2180
   26CHL1   H1A 3075   6.089   6.731   5.948 -0.3837 -1.0550 -0.6905
   26CHL1   H1B 3076   5.973   6.599   5.961 -0.3592  0.7377 -1.3131
   26CHL1    C2 3077   6.099   6.617   6.141  0.2383 -0.9685 -0.3068
   26CHL1   H2A 3078   6.024   6.682   6.193  0.6390 -0.8932  0.1889
   26CHL1   H2B 3079   6.203   6.651   6.162  0.3351 -1.1912 -0.4220
   26CHL1   C20 3080   6.142   6.607   5.188 -0.2831  0.4116  0.3674
   26CHL1   H20 3081   6.247   6.574   5.169 -1.0391 -0.5134 -3.0132
   26CHL1   C21 3082   6.157   6.760   5.212  0.9555 -0.0186 -1.3489
   26CHL1  H21A 3083   6.176   6.816   5.118  2.4953  2.7680  0.4682
   26CHL1  H21B 3084   6.243   6.788   5.276  0.1912 -1.4296  0.3755
   26CHL1  H21C 3085   6.064   6.812   5.244  0.4225 -0.7796 -1.6528
   26CHL1   C22 3086   6.046   6.579   5.066 -0.1762 -0.2600  0.0795
   26CHL1  H22A 3087   6.016   6.472   5.070 -0.2576 -0.2373  0.0622
   26CHL1  H22B 3088   5.968   6.658   5.068 -2.3846 -2.2452 -1.7082
   26CHL1   C23 3089   6.123   6.605   4.936 -0.1873 -0.5511  0.5170
   26CHL1  H23A 3090   6.191   6.693   4.932  1.6084 -1.8941 -2.1511
   26CHL1  H23B 3091   6.190   6.517   4.926  1.5496  0.7458  0.3491
   26CHL1   C24 3092   6.035   6.592   4.805  0.2371  0.0756 -1.0957
   26CHL1  H24A 3093   6.108   6.599   4.721 -0.3127 -2.0377 -1.8167
   26CHL1  H24B 3094   5.975   6.499   4.818  0.5369  0.1291  1.0255
   26CHL1   C25 3095   5.925   6.702   4.773  0.0153 -0.3112 -0.3630
   26CHL1   H25 3096   5.845   6.694   4.849  0.5219 -1.4663  0.0673
   26CHL1   C26 3097   5.982   6.852   4.775 -0.0879 -0.1131  0.1381
   26CHL1  H26A 3098   6.059   6.876   4.699 -0.9533 -0.5338 -0.8918
   26CHL1  H26B 3099   5.896   6.922   4.769 -1.3628 -1.6576 -0.5810
   26CHL1  H26C 3100   6.030   6.862   4.875 -2.1568 -1.3255  1.3426
   26CHL1   C27 3101   5.860   6.674   4.637  0.5748  0.9077 -0.9508
   26CHL1  H27A 3102   5.789   6.756   4.610 -1.0381 -0.1465 -0.0776
   26CHL1  H27B 3103   5.938   6.668   4.557  1.2732  3.1289 -0.5184
   26CHL1  H27C 3104   5.806   6.578   4.647  0.7349  1.0319  1.8101
   27CHL1    C3 3105   2.869   6.067   6.192  1.3851 -0.0370  0.5893
   27CHL1    H3 3106   2.886   6.173   6.162 -1.6344  0.0911 -1.1056
   27CHL1    O3 3107   2.844   6.064   6.330 -0.8086 -0.3718  0.5105
   27CHL1   H3' 3108   2.931   6.036   6.360  0.1009  0.9232 -0.7818
   27CHL1    C4 3109   2.746   6.003   6.115 -0.7166  0.0819  0.0975
   27CHL1   H4A 3110   2.730   5.898   6.146  1.3887  0.0498  1.1931
   27CHL1   H4B 3111   2.656   6.058   6.150  0.3648  1.3300  1.0237
   27CHL1    C5 3112   2.773   6.024   5.970  0.1262 -0.3029 -0.3165
   27CHL1    C6 3113   2.689   6.103   5.900 -0.3134 -0.3931  0.2173
   27CHL1    H6 3114   2.598   6.141   5.947 -0.1445  1.2031 -0.6956
   27CHL1    C7 3115   2.704   6.135   5.754 -0.2133  0.2475  0.5569
   27CHL1   H7A 3116   2.614   6.131   5.689  0.5385  0.7342 -0.5378
   27CHL1   H7B 3117   2.751   6.234   5.734  0.6191 -0.2317  0.1177
   27CHL1    C8 3118   2.799   6.030   5.688  0.3509 -0.4021  0.2881
   27CHL1    H8 3119   2.735   5.940   5.673 -1.5344  0.7560  0.9534
   27CHL1   C14 3120   2.848   6.090   5.552  0.3175  0.0785  0.1553
   27CHL1   H14 3121   2.904   6.182   5.579  1.2923 -0.8202  1.3219
   27CHL1   C15 3122   2.732   6.132   5.453  0.5151  0.1848  0.0522
   27CHL1  H15A 3123   2.666   6.044   5.442  1.1389 -0.6667  2.3755
   27CHL1  H15B 3124   2.670   6.216   5.491  1.1916  0.7113  0.0161
   27CHL1   C16 3125   2.809   6.149   5.319  0.2429  0.1700 -0.7472
   27CHL1  H16A 3126   2.744   6.120   5.233 -0.0122  1.0011 -0.8474
   27CHL1  H16B 3127   2.828   6.257   5.302 -0.0270  0.4831  0.7612
   27CHL1   C17 3128   2.951   6.085   5.344  0.2798 -1.2884 -0.1867
   27CHL1   H17 3129   3.020   6.172   5.357 -1.8760  0.5224 -0.2641
   27CHL1   C13 3130   2.940   6.001   5.475  0.9304 -0.6314  0.0295
   27CHL1   C18 3131   2.883   5.857   5.439 -0.3249  0.1602  0.4361
   27CHL1  H18A 3132   2.787   5.875   5.387 -0.6531 -0.2830  0.8754
   27CHL1  H18B 3133   2.964   5.802   5.386 -1.9107 -0.7911 -1.0993
   27CHL1  H18C 3134   2.863   5.796   5.530 -0.8558 -0.5663 -0.1601
   27CHL1   C12 3135   3.072   5.989   5.553 -0.3887  0.0948 -0.8459
   27CHL1  H12A 3136   3.149   5.926   5.503 -2.0100 -1.2902 -1.7250
   27CHL1  H12B 3137   3.100   6.095   5.568 -0.7211  0.2001 -0.9497
   27CHL1   C11 3138   3.044   5.932   5.692 -0.2375 -0.4229  0.1346
   27CHL1  H11A 3139   3.022   5.824   5.695  0.2144 -0.6044 -1.7565
   27CHL1  H11B 3140   3.139   5.939   5.749 -1.3268 -1.3231  2.1749
   27CHL1    C9 3141   2.929   6.006   5.772 -0.1827  0.2052 -0.2366
   27CHL1    H9 3142   2.961   6.111   5.787  0.4702 -0.0043 -0.1418
   27CHL1   C10 3143   2.897   5.955   5.920 -0.7420 -0.3776  0.1696
   27CHL1   C19 3144   2.876   5.800   5.911  0.0307 -1.4296 -0.3281
   27CHL1  H19A 3145   2.789   5.786   5.843  1.0376  1.7992 -2.5153
   27CHL1  H19B 3146   2.972   5.757   5.878 -0.6453 -1.2138 -2.7566
   27CHL1  H19C 3147   2.844   5.763   6.011  0.4987  0.1657  0.4572
   27CHL1    C1 3148   3.021   5.987   6.004 -0.0985  0.1961 -0.1554
   27CHL1   H1A 3149   3.105   5.918   5.981  0.6343  1.3354 -0.9825
   27CHL1   H1B 3150   3.054   6.089   5.974 -0.0051 -0.1632 -1.3350
   27CHL1    C2 3151   2.995   5.989   6.156  0.6914  0.0922 -0.1694
   27CHL1   H2A 3152   3.087   6.027   6.205  0.1544  1.5822 -0.2474
   27CHL1   H2B 3153   2.989   5.882   6.183  4.2395 -0.1665  0.1031
   27CHL1   C20 3154   3.011   6.022   5.216 -0.3040 -0.4035 -0.6997
   27CHL1   H20 3155   3.081   5.951   5.265 -0.6044  1.2450  2.3488
   27CHL1   C21 3156   3.084   6.127   5.133  0.6787 -0.0289  0.4497
   27CHL1  H21A 3157   2.998   6.195   5.110 -0.5588 -1.6914 -0.0709
   27CHL1  H21B 3158   3.116   6.082   5.037 -0.5933  0.5801 -0.2902
   27CHL1  H21C 3159   3.166   6.182   5.184  1.8168 -0.8043 -0.5007
   27CHL1   C22 3160   2.911   5.943   5.130  0.1783  0.2711 -0.5033
   27CHL1  H22A 3161   2.837   5.887   5.190  0.1997 -1.7305 -2.2108
   27CHL1  H22B 3162   2.849   6.016   5.075 -1.8477 -1.1717 -0.2532
   27CHL1   C23 3163   2.983   5.841   5.044 -0.4595 -0.6718 -0.1265
   27CHL1  H23A 3164   3.061   5.898   4.989 -0.8477 -0.9954 -1.0296
   27CHL1  H23B 3165   3.030   5.763   5.108  0.4238  0.1920  0.2897
   27CHL1   C24 3166   2.885   5.770   4.953 -0.1429 -0.2082 -0.0069
   27CHL1  H24A 3167   2.805   5.718   5.011  0.1009 -0.0971  0.4332
   27CHL1  H24B 3168   2.833   5.835   4.879  1.3794  0.0543 -0.8846
   27CHL1   C25 3169   2.963   5.660   4.869 -0.2584  0.7658  0.7786
   27CHL1   H25 3170   3.033   5.607   4.936  3.2076  3.3173 -0.5325
   27CHL1   C26 3171   2.856   5.559   4.807  0.0542 -0.2615  0.5086
   27CHL1  H26A 3172   2.787   5.606   4.733  1.8925  0.7597 -0.6382
   27CHL1  H26B 3173   2.912   5.490   4.740  1.9122 -0.6798  2.3921
   27CHL1  H26C 3174   2.806   5.495   4.882 -0.5217 -0.7721 -0.3042
   27CHL1   C27 3175   3.033   5.722   4.755 -0.6583 -0.5435  0.3028
   27CHL1  H27A 3176   2.972   5.742   4.665 -2.1952 -2.4547  0.8640
   27CHL1  H27B 3177   3.122   5.666   4.718 -1.5971 -0.8099 -1.6797
   27CHL1  H27C 3178   3.083   5.810   4.803 -2.1579  1.0123 -0.8673
   28CHL1    C3 3179   2.031   2.836   6.007 -0.1025 -0.3931 -0.3812
   28CHL1    H3 3180   2.105   2.767   5.960  1.0714  0.7965 -0.3309
   28CHL1    O3 3181   2.040   2.834   6.151  0.5155 -0.0676  0.1302
   28CHL1   H3' 3182   2.074   2.753   6.189 -1.2720 -1.0873 -0.3480
   28CHL1    C4 3183   2.059   2.981   5.953 -0.4320 -0.8109  0.2674
   28CHL1   H4A 3184   2.005   3.051   6.020  2.1344 -0.1142  1.7278
   28CHL1   H4B 3185   2.167   3.002   5.971 -0.9651  2.0600  0.6035
   28CHL1    C5 3186   2.017   3.007   5.809 -0.5658  0.0027  0.1278
   28CHL1    C6 3187   2.095   3.056   5.710 -1.0579 -0.1392 -0.4622
   28CHL1    H6 3188   2.198   3.087   5.733 -0.9336 -0.4436 -0.5885
   28CHL1    C7 3189   2.057   3.064   5.565 -0.2520 -0.4002  0.1873
   28CHL1   H7A 3190   2.103   3.155   5.522 -1.1306 -0.4159 -0.8110
   28CHL1   H7B 3191   2.101   2.981   5.506  1.0571  1.8970 -2.2615
   28CHL1    C8 3192   1.904   3.077   5.550  0.3809 -0.5159  0.4170
   28CHL1    H8 3193   1.869   3.174   5.590  1.3629 -0.4662  1.1933
   28CHL1   C14 3194   1.874   3.073   5.399  0.3090  0.5597 -1.4299
   28CHL1   H14 3195   1.894   2.966   5.377 -0.4845 -0.1544  1.0286
   28CHL1   C15 3196   1.954   3.159   5.301 -0.0792 -0.0678  0.2041
   28CHL1  H15A 3197   1.973   3.265   5.328 -0.2701  0.2085 -0.6966
   28CHL1  H15B 3198   2.051   3.113   5.271 -0.2773 -1.0629  1.0780
   28CHL1   C16 3199   1.852   3.159   5.175 -0.1423 -0.0810  0.1707
   28CHL1  H16A 3200   1.838   3.264   5.142  0.8549  0.0800  0.2336
   28CHL1  H16B 3201   1.904   3.105   5.094 -1.1596  0.8380 -1.1416
   28CHL1   C17 3202   1.724   3.088   5.219  0.1559  0.7768  0.5322
   28CHL1   H17 3203   1.725   2.985   5.178  0.4206  0.4032  1.4517
   28CHL1   C13 3204   1.722   3.097   5.370  0.1580  0.9302  0.2576
   28CHL1   C18 3205   1.685   3.241   5.408  0.3680 -0.2488 -0.2879
   28CHL1  H18A 3206   1.577   3.244   5.381  0.2130  2.5070  0.4187
   28CHL1  H18B 3207   1.704   3.259   5.516  2.4774  0.1671 -0.6827
   28CHL1  H18C 3208   1.743   3.312   5.345  0.5666 -1.6513 -1.7692
   28CHL1   C12 3209   1.646   2.980   5.450  0.3593  0.2633 -0.0549
   28CHL1  H12A 3210   1.536   2.984   5.440  0.4288  0.9173 -0.6235
   28CHL1  H12B 3211   1.692   2.885   5.415  0.6239  0.1366  0.6180
   28CHL1   C11 3212   1.680   2.976   5.598  0.3838 -0.2839 -0.0020
   28CHL1  H11A 3213   1.634   3.067   5.642  0.1049 -0.6126  0.3901
   28CHL1  H11B 3214   1.636   2.886   5.645 -0.9609  0.7740  0.8457
   28CHL1    C9 3215   1.836   2.965   5.630  0.5439  0.1715  0.1906
   28CHL1    H9 3216   1.862   2.865   5.589 -0.6387  0.4053 -1.1982
   28CHL1   C10 3217   1.870   2.965   5.777 -0.3834 -0.4093 -0.6318
   28CHL1   C19 3218   1.778   3.069   5.851  0.4570  0.3659 -0.2663
   28CHL1  H19A 3219   1.809   3.079   5.957  0.7490 -1.9057 -0.0708
   28CHL1  H19B 3220   1.777   3.171   5.808  1.1180  0.9246  0.9981
   28CHL1  H19C 3221   1.673   3.034   5.863  0.3769 -0.5352 -2.8314
   28CHL1    C1 3222   1.856   2.818   5.836 -0.4521 -0.5704 -0.6115
   28CHL1   H1A 3223   1.750   2.785   5.836 -0.8018  0.4416  0.8837
   28CHL1   H1B 3224   1.923   2.750   5.780 -0.2277 -0.5798 -0.3330
   28CHL1    C2 3225   1.894   2.789   5.983 -0.4520 -0.4514  0.5313
   28CHL1   H2A 3226   1.896   2.684   6.018  0.9905 -1.1703 -1.5219
   28CHL1   H2B 3227   1.818   2.847   6.040 -2.1780 -3.2965  1.2836
   28CHL1   C20 3228   1.605   3.157   5.145 -0.6677 -0.3440  0.1974
   28CHL1   H20 3229   1.600   3.265   5.167 -3.0084 -0.4507  0.4961
   28CHL1   C21 3230   1.477   3.096   5.193  0.1944  0.8547 -0.0072
   28CHL1  H21A 3231   1.404   3.079   5.112  0.7007 -1.8608  0.0252
   28CHL1  H21B 3232   1.432   3.157   5.275  1.8983  1.1141  0.7860
   28CHL1  H21C 3233   1.492   2.992   5.228 -1.7393  0.2797 -0.7580
   28CHL1   C22 3234   1.614   3.147   4.993 -0.8726  0.3856 -0.1775
   28CHL1  H22A 3235   1.716   3.175   4.960 -0.9652 -0.1226 -0.9353
   28CHL1  H22B 3236   1.606   3.038   4.972 -0.0680 -0.1031  1.8275
   28CHL1   C23 3237   1.518   3.242   4.915 -0.2837  0.5121 -1.0191
   28CHL1  H23A 3238   1.416   3.199   4.909  0.4429 -2.0670  2.1643
   28CHL1  H23B 3239   1.511   3.336   4.973  1.5634 -0.2281  0.5478
   28CHL1   C24 3240   1.560   3.265   4.766 -0.4756 -1.1263 -0.4787
   28CHL1  H24A 3241   1.496   3.343   4.720 -2.0269 -0.9350  1.8221
   28CHL1  H24B 3242   1.661   3.311   4.759 -0.2807 -1.6710 -1.5558
   28CHL1   C25 3243   1.543   3.157   4.661  0.1048  0.5641  0.2342
   28CHL1   H25 3244   1.567   3.061   4.712  1.0743  1.3624  1.3305
   28CHL1   C26 3245   1.402   3.156   4.607 -0.0255  0.6512 -0.3621
   28CHL1  H26A 3246   1.384   3.096   4.516 -0.9326  0.3193  0.0307
   28CHL1  H26B 3247   1.331   3.116   4.683  0.2028  2.0849  0.6533
   28CHL1  H26C 3248   1.374   3.262   4.591 -1.5831  0.2911 -0.1357
   28CHL1   C27 3249   1.643   3.177   4.545 -0.3266  0.7493 -0.2504
   28CHL1  H27A 3250   1.742   3.211   4.582 -0.6329  0.7456  0.6033
   28CHL1  H27B 3251   1.652   3.087   4.482  0.1360  0.8465 -0.3221
   28CHL1  H27C 3252   1.618   3.260   4.475 -1.0035  0.3891 -0.4492
   29CHL1    C3 3253   3.481   1.588   6.079 -0.6409 -0.2646 -0.2975
   29CHL1    H3 3254   3.442   1.690   6.060  0.3418  0.0305 -0.7841
   29CHL1    O3 3255   3.456   1.538   6.209 -0.0798 -0.0391 -0.4357
   29CHL1   H3' 3256   3.420   1.609   6.263  2.3652  0.7658  0.2543
   29CHL1    C4 3257   3.402   1.497   5.983  0.0168 -0.4119 -0.3975
   29CHL1   H4A 3258   3.427   1.392   6.006 -1.0014 -0.4440  0.6113
   29CHL1   H4B 3259   3.296   1.506   6.015 -0.1196  2.0455 -1.2790
   29CHL1    C5 3260   3.421   1.536   5.836 -0.7860  0.1111  0.0937
   29CHL1    C6 3261   3.315   1.556   5.759 -0.4720  0.5819 -0.0348
   29CHL1    H6 3262   3.212   1.539   5.796 -0.3463 -0.0460  0.0376
   29CHL1    C7 3263   3.329   1.587   5.615 -0.1046  1.4392 -0.1678
   29CHL1   H7A 3264   3.264   1.524   5.550  1.4892 -0.0301 -0.4047
   29CHL1   H7B 3265   3.312   1.697   5.611 -1.0759  1.3330  0.5528
   29CHL1    C8 3266   3.474   1.565   5.560  0.5510  0.7336 -0.1570
   29CHL1    H8 3267   3.478   1.454   5.549 -0.8256  0.6728 -0.2078
   29CHL1   C14 3268   3.497   1.639   5.433 -0.0728  0.7563 -0.4054
   29CHL1   H14 3269   3.492   1.748   5.455  0.0414  0.8224 -0.7019
   29CHL1   C15 3270   3.383   1.627   5.323 -0.6996  0.3058  0.6285
   29CHL1  H15A 3271   3.332   1.529   5.334 -2.2060  1.1111  1.0893
   29CHL1  H15B 3272   3.309   1.707   5.345 -0.3345  1.4051 -1.7673
   29CHL1   C16 3273   3.460   1.648   5.188  0.7580 -0.6146  0.6823
   29CHL1  H16A 3274   3.453   1.559   5.122  0.2026  0.3777 -0.6341
   29CHL1  H16B 3275   3.412   1.733   5.136  0.0903 -1.9429 -0.9835
   29CHL1   C17 3276   3.609   1.671   5.225 -0.0885 -0.3351 -0.3402
   29CHL1   H17 3277   3.620   1.780   5.241  2.0943 -0.4683 -0.6378
   29CHL1   C13 3278   3.632   1.605   5.362  0.8369 -0.2521  0.2194
   29CHL1   C18 3279   3.626   1.450   5.341  0.2837 -0.8804 -0.0173
   29CHL1  H18A 3280   3.626   1.390   5.434 -0.1401 -0.2061  0.4328
   29CHL1  H18B 3281   3.542   1.409   5.281  0.4521 -1.4049  0.1064
   29CHL1  H18C 3282   3.719   1.407   5.297  0.6195  0.3573 -0.5617
   29CHL1   C12 3283   3.739   1.664   5.453  0.3296 -0.4675 -0.1218
   29CHL1  H12A 3284   3.832   1.643   5.395 -0.2459  2.4079 -2.3707
   29CHL1  H12B 3285   3.720   1.773   5.450 -0.2305 -0.5622 -2.5891
   29CHL1   C11 3286   3.727   1.590   5.589 -0.1431  0.5593  0.4599
   29CHL1  H11A 3287   3.748   1.482   5.577 -1.3703  0.5662 -2.6974
   29CHL1  H11B 3288   3.803   1.630   5.659  0.1514 -1.2398  1.2126
   29CHL1    C9 3289   3.585   1.604   5.652 -0.6326  0.6569 -0.1857
   29CHL1    H9 3290   3.571   1.714   5.665  2.8341  1.2259 -0.3842
   29CHL1   C10 3291   3.567   1.542   5.790  0.2190 -0.0110 -0.9953
   29CHL1   C19 3292   3.628   1.400   5.786  0.5769 -0.1872 -1.0182
   29CHL1  H19A 3293   3.614   1.355   5.886  0.7051  0.6856 -0.5975
   29CHL1  H19B 3294   3.569   1.346   5.709 -2.4008  0.6723  0.4899
   29CHL1  H19C 3295   3.738   1.393   5.774  0.6836  0.5771 -0.5225
   29CHL1    C1 3296   3.650   1.612   5.901 -0.4751 -0.1650  0.4428
   29CHL1   H1A 3297   3.757   1.607   5.872 -0.4163  1.6511  0.1844
   29CHL1   H1B 3298   3.623   1.718   5.878  1.4922 -0.0726 -1.8867
   29CHL1    C2 3299   3.631   1.583   6.054 -0.3704 -0.2282  0.3200
   29CHL1   H2A 3300   3.688   1.647   6.125 -0.0959 -1.7752  1.5505
   29CHL1   H2B 3301   3.663   1.477   6.066  2.9056  0.2622 -2.4682
   29CHL1   C20 3302   3.702   1.624   5.116 -0.2004 -0.7669  0.2868
   29CHL1   H20 3303   3.703   1.513   5.112  1.1175 -0.9341  2.8853
   29CHL1   C21 3304   3.844   1.658   5.137  0.2200 -0.2653  0.4647
   29CHL1  H21A 3305   3.900   1.609   5.219  0.4992 -0.4582  0.1640
   29CHL1  H21B 3306   3.846   1.767   5.157  1.8899  0.4895 -2.9889
   29CHL1  H21C 3307   3.911   1.649   5.048  1.1805  2.1170  0.8647
   29CHL1   C22 3308   3.660   1.692   4.980  0.4416 -0.6664 -0.2655
   29CHL1  H22A 3309   3.745   1.654   4.920  3.4077  1.4799  2.2782
   29CHL1  H22B 3310   3.563   1.648   4.947 -2.2553  3.1084  1.7979
   29CHL1   C23 3311   3.685   1.842   4.969 -0.2868  0.3937 -0.8164
   29CHL1  H23A 3312   3.650   1.901   5.056 -0.6334 -1.6029  0.4527
   29CHL1  H23B 3313   3.794   1.865   4.971 -0.2960  0.4093 -0.4577
   29CHL1   C24 3314   3.623   1.882   4.840 -0.1581  0.2885  0.2722
   29CHL1  H24A 3315   3.512   1.872   4.844  0.0180 -1.6698  2.7455
   29CHL1  H24B 3316   3.643   1.992   4.843  2.9804 -0.2098  0.5249
   29CHL1   C25 3317   3.691   1.828   4.712  0.2955  0.3544  0.3980
   29CHL1   H25 3318   3.697   1.718   4.725  2.9183  0.4672  0.6279
   29CHL1   C26 3319   3.591   1.857   4.605  0.2840 -0.2748 -0.1164
   29CHL1  H26A 3320   3.606   1.797   4.512  0.9257  1.5294 -1.2199
   29CHL1  H26B 3321   3.489   1.832   4.639 -0.7235  0.3708 -2.4704
   29CHL1  H26C 3322   3.583   1.964   4.579 -4.7352 -0.3010  0.3677
   29CHL1   C27 3323   3.832   1.874   4.671 -0.8211 -0.3772  0.4550
   29CHL1  H27A 3324   3.915   1.845   4.739  2.9761  2.8837 -2.3269
   29CHL1  H27B 3325   3.848   1.830   4.570 -1.2565  0.7078 -0.1059
   29CHL1  H27C 3326   3.831   1.985   4.669  0.6805 -0.3607 -1.0223
   30CHL1    C3 3327   5.150   6.846   6.578 -0.7891  0.1560  0.3475
   30CHL1    H3 3328   5.151   6.956   6.559  0.6700  0.2384  0.8195
   30CHL1    O3 3329   5.157   6.832   6.719  0.1830 -0.4109  0.0327
   30CHL1   H3' 3330   5.226   6.894   6.744 -0.1365  0.4707 -1.1970
   30CHL1    C4 3331   5.008   6.793   6.530 -0.5471  0.4437 -0.5936
   30CHL1   H4A 3332   4.998   6.689   6.568  1.7577 -0.3663 -2.0443
   30CHL1   H4B 3333   4.930   6.854   6.583  0.6039 -0.0101  1.7818
   30CHL1    C5 3334   5.005   6.793   6.377 -0.1332  0.3858  0.1549
   30CHL1    C6 3335   4.896   6.847   6.325 -0.1231 -0.3744  0.2565
   30CHL1    H6 3336   4.818   6.891   6.388  1.1163  1.2928  0.7054
   30CHL1    C7 3337   4.871   6.845   6.173 -0.1542 -0.3287 -0.7929
   30CHL1   H7A 3338   4.766   6.813   6.156 -0.3309 -0.3748  0.2731
   30CHL1   H7B 3339   4.864   6.949   6.135 -0.6332  0.7141  1.8748
   30CHL1    C8 3340   4.977   6.767   6.090  0.1985 -0.3013  0.7733
   30CHL1    H8 3341   4.948   6.660   6.091  1.0585 -0.5912 -0.8665
   30CHL1   C14 3342   4.974   6.813   5.944  0.4974  0.8318  0.3931
   30CHL1   H14 3343   5.031   6.908   5.934  2.5845 -0.1003  2.4424
   30CHL1   C15 3344   4.835   6.843   5.885 -0.2001  0.3768 -0.1599
   30CHL1  H15A 3345   4.753   6.776   5.918  0.2146  0.0750  0.2693
   30CHL1  H15B 3346   4.808   6.949   5.903  3.1643  1.1655  1.0435
   30CHL1   C16 3347   4.855   6.832   5.732  0.2251  0.4526  0.5986
   30CHL1  H16A 3348   4.777   6.766   5.688 -0.2893  1.5353 -0.1559
   30CHL1  H16B 3349   4.841   6.936   5.695 -0.0591 -0.1905 -1.1647
   30CHL1   C17 3350   5.004   6.781   5.720 -0.3079  0.1112 -0.5581
   30CHL1   H17 3351   5.058   6.878   5.723 -0.2899  0.2394 -2.8822
   30CHL1   C13 3352   5.040   6.712   5.852  0.0222 -0.4699 -1.0247
   30CHL1   C18 3353   4.983   6.560   5.857  0.0694  0.0585 -0.0860
   30CHL1  H18A 3354   4.875   6.565   5.835  0.0882 -0.3283 -0.2835
   30CHL1  H18B 3355   5.036   6.506   5.775  1.3531 -0.7056  1.1883
   30CHL1  H18C 3356   5.002   6.503   5.950 -0.8688  2.2351  1.5174
   30CHL1   C12 3357   5.183   6.715   5.892  0.4985 -0.0277  0.4401
   30CHL1  H12A 3358   5.241   6.640   5.835  1.3979  1.4714 -0.6794
   30CHL1  H12B 3359   5.233   6.812   5.876  1.8824 -0.8913 -0.7666
   30CHL1   C11 3360   5.201   6.676   6.047  0.4844 -0.0021  0.2371
   30CHL1  H11A 3361   5.162   6.572   6.048 -0.4297  0.3147 -0.4985
   30CHL1  H11B 3362   5.307   6.679   6.081  0.6236 -1.9215  0.0962
   30CHL1    C9 3363   5.119   6.770   6.136 -0.0489 -0.5022 -0.5176
   30CHL1    H9 3364   5.163   6.871   6.123 -1.0979  0.1370  0.6060
   30CHL1   C10 3365   5.127   6.733   6.289  0.0232 -0.0818 -0.0067
   30CHL1   C19 3366   5.135   6.579   6.319 -0.3328  0.7625  0.8873
   30CHL1  H19A 3367   5.053   6.524   6.268  1.1962 -0.8447  0.0750
   30CHL1  H19B 3368   5.222   6.533   6.269  1.0678  2.1570  1.9400
   30CHL1  H19C 3369   5.138   6.549   6.426  1.0305 -0.4925  0.5259
   30CHL1    C1 3370   5.254   6.797   6.350  1.5225  0.1332 -0.7017
   30CHL1   H1A 3371   5.339   6.735   6.315  1.2343 -1.5868  1.4744
   30CHL1   H1B 3372   5.252   6.905   6.324 -2.8730  0.2086 -0.7005
   30CHL1    C2 3373   5.272   6.793   6.502  0.2064 -0.1256 -0.2752
   30CHL1   H2A 3374   5.352   6.866   6.528  1.3169 -1.5259  0.3736
   30CHL1   H2B 3375   5.294   6.686   6.521 -0.5598 -0.8125 -2.8780
   30CHL1   C20 3376   5.022   6.712   5.580  0.6215  0.0995  0.3612
   30CHL1   H20 3377   4.982   6.609   5.576 -0.9666  0.7244 -1.2693
   30CHL1   C21 3378   5.174   6.706   5.548  0.5284 -0.2760 -0.1840
   30CHL1  H21A 3379   5.231   6.800   5.534 -0.3464  0.1167 -1.2128
   30CHL1  H21B 3380   5.195   6.640   5.461  1.1690 -0.0642 -0.1960
   30CHL1  H21C 3381   5.235   6.658   5.628  0.6747  1.4429  0.7899
   30CHL1   C22 3382   4.946   6.789   5.472 -0.0295  0.6396  0.1431
   30CHL1  H22A 3383   4.835   6.788   5.485 -0.2490  3.9905 -0.5200
   30CHL1  H22B 3384   4.966   6.898   5.481 -1.0806  1.0631 -2.0077
   30CHL1   C23 3385   4.976   6.744   5.328  0.1701 -0.2997  0.6698
   30CHL1  H23A 3386   5.083   6.735   5.303 -0.3578 -0.2116 -1.9182
   30CHL1  H23B 3387   4.932   6.643   5.307 -1.5016  0.7160 -1.1144
   30CHL1   C24 3388   4.915   6.844   5.220  0.1601 -0.0180 -0.6342
   30CHL1  H24A 3389   4.805   6.828   5.220  0.4513 -2.3913 -1.9179
   30CHL1  H24B 3390   4.945   6.945   5.256 -0.0595 -0.0056 -0.4834
   30CHL1   C25 3391   4.948   6.831   5.073 -0.4285  0.5518  0.4451
   30CHL1   H25 3392   5.056   6.811   5.059 -0.2695 -0.1105  2.3069
   30CHL1   C26 3393   4.860   6.709   5.017 -0.2133 -0.0182  0.1521
   30CHL1  H26A 3394   4.752   6.728   5.032 -0.2553  0.3770 -0.5876
   30CHL1  H26B 3395   4.878   6.694   4.908  2.2346  0.5183  0.4101
   30CHL1  H26C 3396   4.897   6.619   5.070  0.7102  0.2856  0.0452
   30CHL1   C27 3397   4.914   6.949   4.984  0.2236 -0.1307  0.5472
   30CHL1  H27A 3398   4.971   7.041   5.011 -2.0689  1.9818 -1.2917
   30CHL1  H27B 3399   4.915   6.941   4.873  1.2851  0.2749  0.5187
   30CHL1  H27C 3400   4.812   6.986   5.009  0.4852  0.9165  0.1189
   31CHL1    C3 3401   3.698   6.657   6.300 -0.1744 -0.7110 -0.5330
   31CHL1    H3 3402   3.599   6.621   6.264  1.0155 -2.5193 -2.2389
   31CHL1    O3 3403   3.678   6.702   6.432 -0.5620  0.1232  0.1979
   31CHL1   H3' 3404   3.759   6.734   6.472  1.6472 -1.8185 -2.2690
   31CHL1    C4 3405   3.786   6.541   6.294  0.3371  0.8980  0.1348
   31CHL1   H4A 3406   3.890   6.552   6.332  0.6012  1.5910 -0.7856
   31CHL1   H4B 3407   3.758   6.470   6.376  0.4888 -0.0755 -0.6397
   31CHL1    C5 3408   3.806   6.482   6.153 -0.1364 -0.2064 -0.3532
   31CHL1    C6 3409   3.783   6.349   6.130  0.3461 -1.2553 -0.2270
   31CHL1    H6 3410   3.752   6.284   6.213  1.8508  0.4299  1.7598
   31CHL1    C7 3411   3.805   6.287   5.993  0.0346  0.2289 -0.5991
   31CHL1   H7A 3412   3.849   6.187   6.008 -1.6538 -0.6017 -0.9208
   31CHL1   H7B 3413   3.700   6.285   5.957 -1.1714  0.3018  2.5883
   31CHL1    C8 3414   3.882   6.377   5.890 -0.1062 -0.6045  0.5590
   31CHL1    H8 3415   3.992   6.366   5.898  0.2895  0.0454 -2.4709
   31CHL1   C14 3416   3.852   6.332   5.743 -0.1051 -0.6948 -1.0561
   31CHL1   H14 3417   3.742   6.339   5.735 -0.4123  0.9327  2.5388
   31CHL1   C15 3418   3.891   6.187   5.701 -0.4150  0.8175 -0.7940
   31CHL1  H15A 3419   3.999   6.170   5.719 -0.5957 -3.5782 -2.4806
   31CHL1  H15B 3420   3.834   6.109   5.756  1.9866  0.1365  0.9314
   31CHL1   C16 3421   3.870   6.190   5.548  0.3249 -0.0254  0.2249
   31CHL1  H16A 3422   3.948   6.130   5.497 -0.6165 -2.3161  1.3317
   31CHL1  H16B 3423   3.776   6.139   5.518  0.2098  0.7225 -0.7524
   31CHL1   C17 3424   3.860   6.341   5.509 -0.1686 -0.1804 -0.5764
   31CHL1   H17 3425   3.754   6.373   5.498  0.4570  2.0990 -0.6882
   31CHL1   C13 3426   3.910   6.423   5.636 -0.1930  0.7739 -0.6979
   31CHL1   C18 3427   4.061   6.420   5.636  0.4922 -0.2118 -0.2907
   31CHL1  H18A 3428   4.103   6.318   5.625 -0.4463 -0.4566 -1.9011
   31CHL1  H18B 3429   4.095   6.467   5.541 -0.7002 -0.7927 -1.0313
   31CHL1  H18C 3430   4.103   6.467   5.727 -0.2173  3.5194 -1.6984
   31CHL1   C12 3431   3.862   6.560   5.653 -0.3785  0.1186 -0.5318
   31CHL1  H12A 3432   3.927   6.626   5.593 -0.2114  0.0710 -0.4032
   31CHL1  H12B 3433   3.756   6.567   5.619 -0.2654 -1.6707 -1.3747
   31CHL1   C11 3434   3.880   6.616   5.795 -0.8413 -1.1233 -0.4513
   31CHL1  H11A 3435   3.990   6.629   5.798 -1.1057  1.8266 -0.8181
   31CHL1  H11B 3436   3.831   6.714   5.814  3.2193  0.8449  1.1008
   31CHL1    C9 3437   3.834   6.528   5.904  0.5777  0.5661 -0.0364
   31CHL1    H9 3438   3.723   6.517   5.907  0.6902 -0.6033  3.0353
   31CHL1   C10 3439   3.849   6.585   6.050 -0.4270  0.9714  0.1772
   31CHL1   C19 3440   4.003   6.602   6.076 -0.1251  0.4426 -1.1229
   31CHL1  H19A 3441   4.040   6.687   6.016  0.3151  0.2777 -1.0917
   31CHL1  H19B 3442   4.027   6.656   6.170  0.7141  1.0003 -1.6412
   31CHL1  H19C 3443   4.059   6.506   6.073  3.2796  2.2761 -2.6298
   31CHL1    C1 3444   3.758   6.711   6.062  0.1141  0.0745  0.4312
   31CHL1   H1A 3445   3.814   6.785   6.001 -0.7983  0.7129  0.3376
   31CHL1   H1B 3446   3.651   6.702   6.032 -0.5717  2.3492  1.9144
   31CHL1    C2 3447   3.746   6.771   6.208  0.2916  0.0913  0.3231
   31CHL1   H2A 3448   3.669   6.849   6.192 -1.2765 -1.5835 -0.7006
   31CHL1   H2B 3449   3.841   6.804   6.256 -0.1460  1.5455  0.2207
   31CHL1   C20 3450   3.933   6.368   5.383 -0.3270 -0.3294 -0.4429
   31CHL1   H20 3451   4.042   6.345   5.390  0.0918  0.9608 -1.9458
   31CHL1   C21 3452   3.930   6.515   5.332  0.4170 -0.4464  0.2979
   31CHL1  H21A 3453   3.985   6.531   5.237  0.3884  1.1801  0.5242
   31CHL1  H21B 3454   3.997   6.573   5.400  1.6460  0.6388 -1.7596
   31CHL1  H21C 3455   3.829   6.561   5.323  1.1982  1.1568 -0.7551
   31CHL1   C22 3456   3.877   6.287   5.271  0.0721  0.3508 -0.0385
   31CHL1  H22A 3457   3.850   6.182   5.296  1.0367  0.3250  0.9788
   31CHL1  H22B 3458   3.782   6.338   5.247  0.4375  1.5351  0.9207
   31CHL1   C23 3459   3.955   6.286   5.133 -0.0270 -0.1334  0.7034
   31CHL1  H23A 3460   3.951   6.388   5.092 -2.9164 -1.1647 -1.9076
   31CHL1  H23B 3461   4.066   6.288   5.145 -0.1059  2.2009  1.4805
   31CHL1   C24 3462   3.899   6.194   5.026  0.4498 -0.0488 -0.7022
   31CHL1  H24A 3463   3.940   6.095   5.055  0.1643 -0.6191 -2.1533
   31CHL1  H24B 3464   3.788   6.194   5.026  0.3924  2.6106  0.1826
   31CHL1   C25 3465   3.945   6.224   4.889  0.3438 -0.5248  0.1211
   31CHL1   H25 3466   3.951   6.335   4.879  0.6904 -0.4715  0.8571
   31CHL1   C26 3467   4.087   6.174   4.860 -0.8028  0.0703 -0.2217
   31CHL1  H26A 3468   4.126   6.196   4.759  0.0968  1.0275  0.3169
   31CHL1  H26B 3469   4.164   6.207   4.934  1.4660 -1.1417 -1.9335
   31CHL1  H26C 3470   4.079   6.064   4.873 -1.7409  0.3815  2.7707
   31CHL1   C27 3471   3.842   6.182   4.787 -0.1170  0.3325  0.1682
   31CHL1  H27A 3472   3.862   6.219   4.685 -0.0621  0.0924  0.0911
   31CHL1  H27B 3473   3.837   6.071   4.783 -0.7700  0.3846 -0.5982
   31CHL1  H27C 3474   3.745   6.222   4.823  0.6096  1.4587  0.9629
   32CHL1    C3 3475   6.296   5.427   6.212  0.4918 -0.1016 -0.4373
   32CHL1    H3 3476   6.405   5.444   6.196  0.3437 -0.1131 -1.5589
   32CHL1    O3 3477   6.263   5.393   6.346  0.4933  0.1496  0.0876
   32CHL1   H3' 3478   6.221   5.472   6.380  0.8010 -0.4409  1.9312
   32CHL1    C4 3479   6.209   5.549   6.164  0.1110 -0.0116 -0.3777
   32CHL1   H4A 3480   6.103   5.527   6.188  0.1527  0.9882  0.8569
   32CHL1   H4B 3481   6.249   5.626   6.234  1.8787 -2.8617  1.9393
   32CHL1    C5 3482   6.205   5.586   6.011  0.1398  0.5180 -0.2852
   32CHL1    C6 3483   6.227   5.713   5.973 -0.4730  0.1391 -0.3185
   32CHL1    H6 3484   6.225   5.796   6.045  0.6464  1.9268 -2.2433
   32CHL1    C7 3485   6.242   5.752   5.828  0.0100 -0.5368 -0.3480
   32CHL1   H7A 3486   6.200   5.853   5.811  0.1338 -0.5788 -0.9030
   32CHL1   H7B 3487   6.352   5.767   5.823  0.0831 -1.4653 -3.4777
   32CHL1    C8 3488   6.201   5.640   5.723  0.5157 -0.5953  0.5600
   32CHL1    H8 3489   6.090   5.634   5.723  0.5781 -2.1629  0.7563
   32CHL1   C14 3490   6.249   5.674   5.583 -0.6042 -0.7372 -0.0973
   32CHL1   H14 3491   6.360   5.678   5.583 -0.6152 -0.2163 -1.0097
   32CHL1   C15 3492   6.205   5.814   5.532 -0.2426 -0.5454  0.3643
   32CHL1  H15A 3493   6.102   5.846   5.558 -0.4594  1.0580 -2.0899
   32CHL1  H15B 3494   6.283   5.883   5.572  1.4170 -2.0225 -0.1901
   32CHL1   C16 3495   6.213   5.795   5.379  0.1606 -0.2430  0.0261
   32CHL1  H16A 3496   6.110   5.802   5.337 -0.2778 -1.2235  0.9067
   32CHL1  H16B 3497   6.271   5.873   5.326  0.9599  0.8003  2.3060
   32CHL1   C17 3498   6.257   5.645   5.357 -0.1538  0.3030  0.6881
   32CHL1   H17 3499   6.368   5.646   5.360 -0.0946  1.6323 -0.5156
   32CHL1   C13 3500   6.217   5.570   5.476  0.1066  0.7515 -0.6797
   32CHL1   C18 3501   6.070   5.537   5.464 -0.2192  0.2422  0.1139
   32CHL1  H18A 3502   6.061   5.441   5.409 -0.1242  0.5214 -0.3952
   32CHL1  H18B 3503   6.023   5.521   5.564 -0.7117  3.9233  0.5952
   32CHL1  H18C 3504   6.017   5.615   5.407 -0.1838 -1.6323 -2.6906
   32CHL1   C12 3505   6.293   5.441   5.519  0.6431  0.2348  0.1217
   32CHL1  H12A 3506   6.267   5.357   5.450 -0.3323 -2.4317  3.4445
   32CHL1  H12B 3507   6.402   5.458   5.501  0.6419 -1.2319 -1.5874
   32CHL1   C11 3508   6.256   5.394   5.663 -0.1084 -0.4452 -0.7910
   32CHL1  H11A 3509   6.149   5.365   5.655 -0.2540 -0.5355  1.1497
   32CHL1  H11B 3510   6.302   5.297   5.690 -0.5791 -0.5401 -0.3086
   32CHL1    C9 3511   6.258   5.502   5.770 -0.4022 -0.1464 -0.6759
   32CHL1    H9 3512   6.367   5.509   5.787 -0.4131 -1.1331 -0.1488
   32CHL1   C10 3513   6.199   5.468   5.917  0.1065 -0.0198  0.3868
   32CHL1   C19 3514   6.051   5.422   5.903 -0.3510 -0.5441 -0.2918
   32CHL1  H19A 3515   6.003   5.382   5.995 -5.5736 -1.5735 -3.0556
   32CHL1  H19B 3516   5.985   5.498   5.856  1.1377 -0.8114 -2.9879
   32CHL1  H19C 3517   6.051   5.328   5.842  0.4951  0.2368 -1.5389
   32CHL1    C1 3518   6.281   5.355   5.977 -0.2185 -0.4280  0.1389
   32CHL1   H1A 3519   6.267   5.267   5.910 -1.9855 -1.7109  2.0480
   32CHL1   H1B 3520   6.389   5.380   5.983 -0.9136  2.7253  1.1127
   32CHL1    C2 3521   6.254   5.311   6.122 -0.6554 -0.7929  0.4564
   32CHL1   H2A 3522   6.319   5.222   6.134  1.5408  0.9621  2.7772
   32CHL1   H2B 3523   6.148   5.294   6.151 -0.7351  2.4828  2.6940
   32CHL1   C20 3524   6.230   5.589   5.210 -0.8284 -0.6498  0.1268
   32CHL1   H20 3525   6.130   5.543   5.195 -1.0341  0.2706 -1.5860
   32CHL1   C21 3526   6.328   5.464   5.194 -0.3500 -0.2032 -0.1649
   32CHL1  H21A 3527   6.346   5.437   5.087  0.8381 -1.5241  0.3293
   32CHL1  H21B 3528   6.290   5.370   5.239  0.2826 -1.7743 -2.7024
   32CHL1  H21C 3529   6.429   5.476   5.239 -1.4763 -0.4005  2.6045
   32CHL1   C22 3530   6.258   5.690   5.098  0.8303  0.3314 -0.7586
   32CHL1  H22A 3531   6.188   5.772   5.125 -0.7192 -1.1292 -0.1576
   32CHL1  H22B 3532   6.363   5.725   5.107  0.6430  0.5459  0.8676
   32CHL1   C23 3533   6.227   5.649   4.954 -0.0283  0.2791 -0.0693
   32CHL1  H23A 3534   6.255   5.729   4.882  0.2841  1.2685  1.1184
   32CHL1  H23B 3535   6.279   5.557   4.923  0.7984 -0.2988  2.7311
   32CHL1   C24 3536   6.078   5.610   4.925 -0.6440 -0.6905 -0.4547
   32CHL1  H24A 3537   6.047   5.541   5.006 -1.2952  1.8360  1.5722
   32CHL1  H24B 3538   6.025   5.707   4.932 -0.2299 -0.5699  3.2683
   32CHL1   C25 3539   6.058   5.540   4.796 -0.6137 -0.2701  0.1540
   32CHL1   H25 3540   6.131   5.583   4.725  0.0568  1.4928  1.8354
   32CHL1   C26 3541   6.096   5.387   4.813 -0.3017  0.2016 -0.0984
   32CHL1  H26A 3542   6.017   5.319   4.850 -0.5478 -0.0762 -1.1111
   32CHL1  H26B 3543   6.119   5.346   4.713  0.1475 -0.1936  0.1589
   32CHL1  H26C 3544   6.180   5.377   4.885 -1.1260 -0.1920  0.8269
   32CHL1   C27 3545   5.920   5.560   4.745  0.0133 -0.6165  0.3794
   32CHL1  H27A 3546   5.903   5.508   4.649  1.9835  0.1350 -0.4155
   32CHL1  H27B 3547   5.838   5.546   4.819 -1.6643  1.5913 -0.9569
   32CHL1  H27C 3548   5.909   5.669   4.731  1.0171 -0.4990  0.4244
   33CHL1    C3 3549   2.301   5.098   6.092  0.0223  0.2001  0.5109
   33CHL1    H3 3550   2.322   5.004   6.035 -2.0651  0.2448 -0.4084
   33CHL1    O3 3551   2.343   5.060   6.222  0.5960 -0.2608  0.5844
   33CHL1   H3' 3552   2.424   5.110   6.234 -0.0633  1.5516 -1.7660
   33CHL1    C4 3553   2.384   5.210   6.034  0.3792 -0.2241 -0.2883
   33CHL1   H4A 3554   2.363   5.304   6.089  1.2425 -0.7179  0.9342
   33CHL1   H4B 3555   2.491   5.190   6.057  0.2340 -0.3717  0.2704
   33CHL1    C5 3556   2.354   5.242   5.885 -0.5463 -0.0775 -0.2398
   33CHL1    C6 3557   2.450   5.233   5.791  0.7150  0.0998 -0.0904
   33CHL1    H6 3558   2.552   5.209   5.824  0.3388  0.1005  1.1204
   33CHL1    C7 3559   2.424   5.236   5.647  0.3441  0.1167 -0.0337
   33CHL1   H7A 3560   2.507   5.278   5.586  0.6062 -2.6963 -1.8316
   33CHL1   H7B 3561   2.413   5.133   5.606  1.1931 -0.6607  1.6145
   33CHL1    C8 3562   2.284   5.295   5.613 -0.4641  0.2881 -0.2682
   33CHL1    H8 3563   2.297   5.405   5.623  3.2251 -0.0544  0.1151
   33CHL1   C14 3564   2.246   5.272   5.464  0.2936 -0.5767 -0.2122
   33CHL1   H14 3565   2.227   5.163   5.457 -0.9141 -0.2898 -2.9306
   33CHL1   C15 3566   2.349   5.310   5.365  1.0443 -0.0806  0.5847
   33CHL1  H15A 3567   2.402   5.403   5.392  1.4726 -0.1191 -0.1069
   33CHL1  H15B 3568   2.418   5.223   5.365 -0.7251 -1.5411  0.7052
   33CHL1   C16 3569   2.268   5.325   5.235 -0.3307 -0.0040 -0.4481
   33CHL1  H16A 3570   2.283   5.425   5.190 -0.9566 -0.0184 -0.6977
   33CHL1  H16B 3571   2.298   5.250   5.158  1.0767 -0.6363  0.6782
   33CHL1   C17 3572   2.118   5.307   5.270  0.1274  0.1685  0.4256
   33CHL1   H17 3573   2.089   5.200   5.273  2.1747 -0.5094 -1.1413
   33CHL1   C13 3574   2.113   5.336   5.422 -1.4564  0.3278 -0.0725
   33CHL1   C18 3575   2.110   5.491   5.433  0.0658 -0.1167  0.1628
   33CHL1  H18A 3576   2.008   5.522   5.402  0.7119 -0.8246 -2.9692
   33CHL1  H18B 3577   2.128   5.523   5.538  2.0348 -0.2301 -0.0936
   33CHL1  H18C 3578   2.180   5.539   5.361  1.5966  2.0960  2.9228
   33CHL1   C12 3579   2.000   5.270   5.509 -0.0434 -0.2321  0.8338
   33CHL1  H12A 3580   1.904   5.320   5.486 -0.3228 -0.5454  1.3090
   33CHL1  H12B 3581   1.995   5.163   5.478  0.9676 -0.3712  1.0984
   33CHL1   C11 3582   2.028   5.281   5.661 -0.2233  0.3385 -0.2392
   33CHL1  H11A 3583   2.010   5.390   5.676  0.8782  0.5490 -0.3260
   33CHL1  H11B 3584   1.956   5.217   5.716  0.8463 -0.9468 -0.3040
   33CHL1    C9 3585   2.169   5.241   5.704 -0.7224  0.7970  0.1362
   33CHL1    H9 3586   2.164   5.131   5.686  1.1427  0.3819  1.8048
   33CHL1   C10 3587   2.202   5.263   5.855  0.1340 -0.4019 -0.7677
   33CHL1   C19 3588   2.171   5.410   5.901  0.2850  0.6858  0.1336
   33CHL1  H19A 3589   2.174   5.423   6.011 -0.2787  0.1394  0.2130
   33CHL1  H19B 3590   2.237   5.483   5.849 -0.4916 -0.7184 -3.0778
   33CHL1  H19C 3591   2.064   5.429   5.878  0.3384  0.4593 -0.3089
   33CHL1    C1 3592   2.120   5.161   5.935  0.2104  0.6412  0.1827
   33CHL1   H1A 3593   2.012   5.186   5.932  0.0377 -0.1360 -0.8876
   33CHL1   H1B 3594   2.141   5.066   5.880  0.2336  0.4158  0.5795
   33CHL1    C2 3595   2.150   5.133   6.085 -0.0191 -0.0518  0.4520
   33CHL1   H2A 3596   2.086   5.050   6.123 -0.9873  0.5623  0.1838
   33CHL1   H2B 3597   2.141   5.224   6.147  1.3758 -0.9697  2.1004
   33CHL1   C20 3598   2.014   5.373   5.165 -1.4172  0.3745  0.4041
   33CHL1   H20 3599   2.003   5.479   5.197  2.0351  0.5025  1.6531
   33CHL1   C21 3600   1.877   5.299   5.175 -0.5811  0.0136 -0.7774
   33CHL1  H21A 3601   1.811   5.340   5.095 -1.5605  0.5299  0.2621
   33CHL1  H21B 3602   1.829   5.311   5.275  3.4148  1.3333  1.1963
   33CHL1  H21C 3603   1.890   5.191   5.157  1.2528  0.0108  0.2379
   33CHL1   C22 3604   2.062   5.373   5.015 -0.2928 -0.2675  0.2954
   33CHL1  H22A 3605   2.171   5.383   4.999 -0.4275 -0.4170 -0.7791
   33CHL1  H22B 3606   2.042   5.277   4.962  3.2020 -0.3891 -1.0674
   33CHL1   C23 3607   2.003   5.500   4.945 -0.2147  0.7854  0.0393
   33CHL1  H23A 3608   1.900   5.522   4.981 -0.8147  2.9611 -2.6348
   33CHL1  H23B 3609   2.067   5.588   4.968  0.2022  0.8477 -1.2828
   33CHL1   C24 3610   1.985   5.493   4.797 -0.1899  0.4337  0.2566
   33CHL1  H24A 3611   2.079   5.442   4.769  0.7531  1.1647  1.9304
   33CHL1  H24B 3612   1.902   5.424   4.772  1.8184 -1.4105 -1.8170
   33CHL1   C25 3613   1.975   5.617   4.715  0.0656 -0.0113 -0.2383
   33CHL1   H25 3614   1.886   5.674   4.747 -0.7303 -0.1087 -2.1331
   33CHL1   C26 3615   2.094   5.712   4.739 -0.2757  0.0523 -0.0389
   33CHL1  H26A 3616   2.091   5.746   4.845 -0.4316 -0.4987  0.1364
   33CHL1  H26B 3617   2.193   5.670   4.715 -0.3044 -0.0033 -0.0583
   33CHL1  H26C 3618   2.083   5.807   4.683  1.3489 -0.0840 -0.6254
   33CHL1   C27 3619   1.975   5.579   4.566 -0.4020  0.2532 -0.0114
   33CHL1  H27A 3620   1.982   5.672   4.506  0.5325  1.5461  1.9793
   33CHL1  H27B 3621   2.051   5.504   4.535  0.8760  1.0769  0.9911
   33CHL1  H27C 3622   1.880   5.526   4.541 -0.6607  1.4461 -1.7493
   34CHL1    C3 3623   3.105   6.470   6.287  0.3519  1.0015  0.0160
   34CHL1    H3 3624   3.124   6.364   6.317 -0.6833  0.7657 -0.1401
   34CHL1    O3 3625   3.065   6.552   6.391  0.5679 -0.4203 -0.1753
   34CHL1   H3' 3626   3.137   6.542   6.453 -1.6234 -0.4313  2.5273
   34CHL1    C4 3627   3.232   6.525   6.222 -0.4749  0.2163  0.2987
   34CHL1   H4A 3628   3.225   6.635   6.230  1.3564  0.3724  0.1860
   34CHL1   H4B 3629   3.319   6.500   6.286  0.1342 -0.4901 -0.7643
   34CHL1    C5 3630   3.258   6.487   6.072  0.8064 -0.5199  0.0110
   34CHL1    C6 3631   3.378   6.448   6.032 -0.2351 -0.0656  0.1327
   34CHL1    H6 3632   3.460   6.462   6.103 -0.5431 -1.0328  0.6996
   34CHL1    C7 3633   3.421   6.412   5.894 -0.5186  0.2115 -0.2785
   34CHL1   H7A 3634   3.519   6.458   5.871  0.5253 -0.4799  2.4446
   34CHL1   H7B 3635   3.442   6.304   5.877 -0.2306  0.2547 -0.1967
   34CHL1    C8 3636   3.312   6.470   5.793  0.3078 -0.0727 -0.9852
   34CHL1    H8 3637   3.339   6.578   5.798  2.6418 -0.6936  2.1925
   34CHL1   C14 3638   3.331   6.418   5.657 -0.1470  0.1069  0.2580
   34CHL1   H14 3639   3.311   6.309   5.654 -2.2941  0.4806 -0.6515
   34CHL1   C15 3640   3.477   6.448   5.603  0.2938  0.2374  0.3244
   34CHL1  H15A 3641   3.505   6.553   5.625 -0.2655  0.2449  1.0062
   34CHL1  H15B 3642   3.553   6.372   5.631 -1.0122 -1.5546 -0.7169
   34CHL1   C16 3643   3.462   6.431   5.454  0.1063 -0.2811 -0.0542
   34CHL1  H16A 3644   3.493   6.524   5.401  1.0502  0.4739  1.7588
   34CHL1  H16B 3645   3.521   6.348   5.409 -0.6032 -2.0718  2.1011
   34CHL1   C17 3646   3.308   6.411   5.422  0.2641  0.8215 -0.8608
   34CHL1   H17 3647   3.281   6.305   5.410 -0.7729  1.0621 -0.7167
   34CHL1   C13 3648   3.232   6.463   5.548 -0.6026  0.7752 -0.4519
   34CHL1   C18 3649   3.219   6.625   5.541 -0.3856  0.1472 -0.6097
   34CHL1  H18A 3650   3.176   6.669   5.633 -1.0453 -1.8383  0.0835
   34CHL1  H18B 3651   3.311   6.674   5.503 -0.2231 -0.1726 -0.6278
   34CHL1  H18C 3652   3.137   6.649   5.470  0.3491 -0.7540 -1.8055
   34CHL1   C12 3653   3.094   6.413   5.587  0.0067 -0.1363 -0.1567
   34CHL1  H12A 3654   3.004   6.439   5.527 -2.1258 -0.4863  2.6920
   34CHL1  H12B 3655   3.101   6.302   5.590 -1.8723 -0.3287  3.8522
   34CHL1   C11 3656   3.057   6.449   5.736 -0.3904 -0.1009  0.7516
   34CHL1  H11A 3657   3.024   6.555   5.733  0.5033  0.1874  0.9337
   34CHL1  H11B 3658   2.968   6.388   5.764 -0.1010 -1.4142 -0.9447
   34CHL1    C9 3659   3.169   6.435   5.845  0.5217 -0.2337 -1.5944
   34CHL1    H9 3660   3.169   6.327   5.873 -0.6407  0.4618  1.5072
   34CHL1   C10 3661   3.140   6.494   5.983  0.6442  0.5854 -0.0529
   34CHL1   C19 3662   3.107   6.642   5.961 -0.0363 -0.1324 -0.4903
   34CHL1  H19A 3663   3.018   6.664   5.898 -0.6020  2.0553  0.9901
   34CHL1  H19B 3664   3.100   6.691   6.060 -0.8409 -1.2739  0.0465
   34CHL1  H19C 3665   3.189   6.697   5.910 -0.5688 -0.9013 -2.2658
   34CHL1    C1 3666   3.016   6.424   6.044  0.0865  0.0651  0.3423
   34CHL1   H1A 3667   2.922   6.441   5.987 -1.8357 -2.7400  2.3800
   34CHL1   H1B 3668   3.042   6.316   6.046  0.3212  0.1188  2.3434
   34CHL1    C2 3669   2.980   6.464   6.190  0.1571 -0.0625  0.9829
   34CHL1   H2A 3670   2.895   6.412   6.240  0.2127  0.3573  1.5206
   34CHL1   H2B 3671   2.939   6.566   6.176  0.2019 -0.1757 -0.0529
   34CHL1   C20 3672   3.276   6.470   5.283 -0.2378  0.7869  0.2733
   34CHL1   H20 3673   3.311   6.575   5.280  1.9002  0.2239  2.1409
   34CHL1   C21 3674   3.124   6.473   5.249  0.6671  0.4865 -0.5313
   34CHL1  H21A 3675   3.086   6.370   5.231  2.5379 -0.1683 -0.8827
   34CHL1  H21B 3676   3.119   6.539   5.159  2.7337  1.7720  0.2160
   34CHL1  H21C 3677   3.064   6.525   5.328  2.4137  1.5618  0.1427
   34CHL1   C22 3678   3.362   6.400   5.171 -0.2352 -0.1810  0.4785
   34CHL1  H22A 3679   3.416   6.313   5.214  1.5184  0.5956 -0.0508
   34CHL1  H22B 3680   3.289   6.351   5.104  1.1059 -0.1834 -1.0289
   34CHL1   C23 3681   3.451   6.491   5.082  0.0835 -0.1688  0.1547
   34CHL1  H23A 3682   3.380   6.554   5.025 -2.0484 -0.6660  2.0991
   34CHL1  H23B 3683   3.505   6.555   5.156 -2.3721 -0.1269  2.0359
   34CHL1   C24 3684   3.539   6.418   4.986  0.5575  0.1214  0.2692
   34CHL1  H24A 3685   3.607   6.353   5.045  0.5216 -0.1600  0.0051
   34CHL1  H24B 3686   3.488   6.350   4.916  0.0594  2.3462 -1.6584
   34CHL1   C25 3687   3.633   6.508   4.900 -0.2551  0.0459 -0.1336
   34CHL1   H25 3688   3.720   6.450   4.863 -0.2205  0.3255 -0.4977
   34CHL1   C26 3689   3.565   6.564   4.776  0.3508  0.6894 -0.1922
   34CHL1  H26A 3690   3.538   6.482   4.706 -0.1174 -1.0599  1.9176
   34CHL1  H26B 3691   3.471   6.613   4.807  0.8895  0.8072  1.3942
   34CHL1  H26C 3692   3.631   6.640   4.729  0.5146  0.5777 -0.1440
   34CHL1   C27 3693   3.683   6.621   4.991 -0.3834  0.0265 -0.3016
   34CHL1  H27A 3694   3.715   6.575   5.088 -0.4672 -0.4782 -0.5099
   34CHL1  H27B 3695   3.774   6.670   4.951 -1.8094  2.3334 -0.8918
   34CHL1  H27C 3696   3.603   6.698   4.991  1.0731  1.6168 -1.2248
   35CHL1    C3 3697   5.439   3.794   6.314 -0.8862 -0.4505 -0.3810
   35CHL1    H3 3698   5.353   3.865   6.314  0.7183  1.5843 -0.0279
   35CHL1    O3 3699   5.459   3.743   6.449 -0.0749  0.1816 -0.3907
   35CHL1   H3' 3700   5.518   3.802   6.497  0.7383 -1.6730  1.0009
   35CHL1    C4 3701   5.407   3.676   6.223  0.0600  0.1999 -0.0668
   35CHL1   H4A 3702   5.497   3.610   6.229  1.1722  1.5654 -1.0692
   35CHL1   H4B 3703   5.330   3.613   6.273 -0.5021  1.6761  1.0003
   35CHL1    C5 3704   5.369   3.730   6.085 -0.7897 -0.2855 -0.8458
   35CHL1    C6 3705   5.246   3.705   6.026 -0.8285 -0.3930 -0.5194
   35CHL1    H6 3706   5.178   3.640   6.083  0.4916 -0.7217  0.7400
   35CHL1    C7 3707   5.217   3.749   5.886  0.1528 -0.1997 -0.7832
   35CHL1   H7A 3708   5.174   3.666   5.826  2.7334 -2.3612  0.1555
   35CHL1   H7B 3709   5.129   3.817   5.882 -1.2141 -1.9381 -2.9001
   35CHL1    C8 3710   5.342   3.789   5.808 -0.2864 -0.3450 -1.1959
   35CHL1    H8 3711   5.391   3.695   5.777 -1.1400 -0.4810 -2.1858
   35CHL1   C14 3712   5.303   3.858   5.680 -0.0897 -0.5827  0.3862
   35CHL1   H14 3713   5.254   3.955   5.706 -1.6246 -0.2578 -3.0976
   35CHL1   C15 3714   5.206   3.787   5.585 -0.0579  0.1217 -0.2489
   35CHL1  H15A 3715   5.204   3.678   5.565 -2.1929  0.5388 -2.9556
   35CHL1  H15B 3716   5.103   3.819   5.612 -0.2101 -0.6745  0.1541
   35CHL1   C16 3717   5.235   3.857   5.449 -0.3513 -0.1045  0.0672
   35CHL1  H16A 3718   5.273   3.781   5.377 -3.1622 -3.4268  1.8023
   35CHL1  H16B 3719   5.143   3.901   5.405 -1.0086 -0.6289  0.8990
   35CHL1   C17 3720   5.354   3.958   5.470 -0.5434 -0.3578  0.4728
   35CHL1   H17 3721   5.306   4.053   5.502  0.0403 -0.3990  1.4968
   35CHL1   C13 3722   5.427   3.905   5.593  0.6533  0.5275 -0.7215
   35CHL1   C18 3723   5.501   3.780   5.538  0.0903 -0.5600 -0.7528
   35CHL1  H18A 3724   5.597   3.816   5.497  1.0696 -2.8394 -0.5975
   35CHL1  H18B 3725   5.541   3.709   5.613  0.4890 -0.0554 -0.4841
   35CHL1  H18C 3726   5.449   3.718   5.462 -0.9807  0.3177 -0.7664
   35CHL1   C12 3727   5.511   4.002   5.678 -0.1764 -0.4353  0.5449
   35CHL1  H12A 3728   5.604   4.039   5.630 -1.1721 -1.2375 -2.1956
   35CHL1  H12B 3729   5.452   4.092   5.705 -0.1847  0.7388 -2.9241
   35CHL1   C11 3730   5.558   3.922   5.792  0.0823  0.2173  1.0664
   35CHL1  H11A 3731   5.615   3.832   5.762 -0.0013  0.9156 -1.3977
   35CHL1  H11B 3732   5.628   3.984   5.853  2.8130 -2.0695  0.4333
   35CHL1    C9 3733   5.445   3.874   5.884  0.8520 -0.2174 -0.1259
   35CHL1    H9 3734   5.386   3.967   5.902  1.5418 -0.0996  1.6976
   35CHL1   C10 3735   5.489   3.818   6.022 -0.5841  0.4268 -0.2640
   35CHL1   C19 3736   5.610   3.718   5.994 -0.4675 -0.0200  0.0557
   35CHL1  H19A 3737   5.700   3.773   5.959 -1.0247  1.0224  0.2278
   35CHL1  H19B 3738   5.645   3.670   6.087  0.0639  1.8408  0.8569
   35CHL1  H19C 3739   5.579   3.647   5.914  2.1028 -0.9338 -0.2266
   35CHL1    C1 3740   5.535   3.937   6.124 -0.2783  0.5046 -0.0640
   35CHL1   H1A 3741   5.632   3.981   6.092 -0.2137  1.2212  1.0533
   35CHL1   H1B 3742   5.461   4.019   6.114  0.0831  0.5809 -2.7889
   35CHL1    C2 3743   5.559   3.879   6.267 -0.6672 -0.0278  0.6284
   35CHL1   H2A 3744   5.575   3.971   6.328  2.7430 -0.4854  0.6420
   35CHL1   H2B 3745   5.652   3.819   6.275 -1.0605 -0.6333  0.7230
   35CHL1   C20 3746   5.441   3.991   5.343 -0.5363 -0.0433 -0.6488
   35CHL1   H20 3747   5.472   3.890   5.309  0.8905 -0.8359  2.6005
   35CHL1   C21 3748   5.563   4.082   5.368 -0.2679  1.1755 -0.2653
   35CHL1  H21A 3749   5.653   4.027   5.402 -0.0916  1.9433  0.5406
   35CHL1  H21B 3750   5.539   4.170   5.432  2.2045  1.7325 -0.0177
   35CHL1  H21C 3751   5.596   4.122   5.270 -1.0987  0.8918 -0.6724
   35CHL1   C22 3752   5.345   4.055   5.244 -0.6324 -1.0493  0.2220
   35CHL1  H22A 3753   5.238   4.043   5.269 -0.2949 -0.3598  2.2313
   35CHL1  H22B 3754   5.368   4.164   5.246 -1.8514 -0.6473 -2.8558
   35CHL1   C23 3755   5.378   4.006   5.102  0.1821  1.1685  0.1794
   35CHL1  H23A 3756   5.488   4.016   5.093  0.5758 -1.0153  1.9811
   35CHL1  H23B 3757   5.349   3.899   5.096  3.1273  0.2586  0.8574
   35CHL1   C24 3758   5.318   4.092   4.996  0.0048  0.4055 -0.3208
   35CHL1  H24A 3759   5.207   4.088   4.991 -0.1471  2.1567  0.8175
   35CHL1  H24B 3760   5.353   4.196   5.012  4.0530 -0.5204 -1.9821
   35CHL1   C25 3761   5.383   4.066   4.860 -0.5904  0.1734 -0.0826
   35CHL1   H25 3762   5.492   4.079   4.880 -0.6748 -0.1422  0.6226
   35CHL1   C26 3763   5.349   3.926   4.794 -0.5424  0.2581  0.0599
   35CHL1  H26A 3764   5.240   3.905   4.789 -0.2851 -0.8512 -2.5000
   35CHL1  H26B 3765   5.389   3.909   4.691  0.2050 -0.9663  0.5313
   35CHL1  H26C 3766   5.388   3.841   4.854  1.5272  0.0406 -1.4628
   35CHL1   C27 3767   5.340   4.171   4.754 -0.0989  0.5101 -0.7731
   35CHL1  H27A 3768   5.232   4.173   4.727 -0.0748  0.2145 -0.8922
   35CHL1  H27B 3769   5.373   4.272   4.788  3.2902 -0.9097  0.6400
   35CHL1  H27C 3770   5.384   4.156   4.653  1.3631 -1.9079  0.1387
   36CHL1    C3 3771   1.338   3.628   6.406  0.2479 -0.0539  0.1845
   36CHL1    H3 3772   1.240   3.578   6.390 -0.0190  0.5313 -0.0477
   36CHL1    O3 3773   1.376   3.642   6.542  0.1686  0.0725 -0.0538
   36CHL1   H3' 3774   1.469   3.664   6.544  0.1020  0.4469 -0.8935
   36CHL1    C4 3775   1.451   3.550   6.342 -0.0241  0.2623 -0.1808
   36CHL1   H4A 3776   1.547   3.601   6.367 -0.4065  0.9512 -0.0936
   36CHL1   H4B 3777   1.455   3.454   6.397 -0.6050  0.7958  0.8281
   36CHL1    C5 3778   1.437   3.544   6.191 -0.2268  0.6395  0.8370
   36CHL1    C6 3779   1.459   3.435   6.122  0.0233  0.7651 -0.0312
   36CHL1    H6 3780   1.491   3.343   6.172 -1.1089 -0.7807 -2.0142
   36CHL1    C7 3781   1.470   3.426   5.972  0.2744  0.4505  0.4950
   36CHL1   H7A 3782   1.556   3.364   5.937 -0.9673 -1.7748  1.1837
   36CHL1   H7B 3783   1.374   3.378   5.946 -0.7138  1.0738  2.7484
   36CHL1    C8 3784   1.473   3.564   5.894  0.0586  0.4285  0.4908
   36CHL1    H8 3785   1.577   3.601   5.886 -0.1726  1.0634  0.3254
   36CHL1   C14 3786   1.426   3.556   5.746 -0.1768  0.3535 -0.2456
   36CHL1   H14 3787   1.319   3.528   5.746 -0.9553  2.9588  1.4584
   36CHL1   C15 3788   1.494   3.453   5.658 -0.6400  0.0667 -0.3053
   36CHL1  H15A 3789   1.604   3.448   5.648 -0.6638 -1.7585  0.1116
   36CHL1  H15B 3790   1.457   3.351   5.682 -0.1215 -0.4592 -1.6572
   36CHL1   C16 3791   1.459   3.498   5.521  0.2295 -0.5270  0.5165
   36CHL1  H16A 3792   1.549   3.506   5.456 -1.5520  0.4786 -2.0347
   36CHL1  H16B 3793   1.402   3.424   5.461  0.9964 -0.8546  0.1759
   36CHL1   C17 3794   1.392   3.640   5.529  0.0835 -0.4522 -0.6126
   36CHL1   H17 3795   1.282   3.629   5.537  0.0247  0.3043 -0.2874
   36CHL1   C13 3796   1.431   3.689   5.667  0.9193 -1.1086 -0.6848
   36CHL1   C18 3797   1.568   3.749   5.662  0.5622 -0.4018  0.5253
   36CHL1  H18A 3798   1.637   3.670   5.624 -0.4550 -1.1080  0.0879
   36CHL1  H18B 3799   1.575   3.843   5.603 -1.9161  0.6568  1.8221
   36CHL1  H18C 3800   1.608   3.788   5.758  2.0977  1.9145 -0.9494
   36CHL1   C12 3801   1.320   3.779   5.734  0.1040  0.5683 -0.3183
   36CHL1  H12A 3802   1.305   3.877   5.686  2.6125  1.5561  0.7464
   36CHL1  H12B 3803   1.219   3.732   5.737 -1.0180  2.9027  0.5318
   36CHL1   C11 3804   1.363   3.804   5.884 -0.1278  0.4907 -0.0964
   36CHL1  H11A 3805   1.453   3.869   5.889 -0.3174  0.6551  2.9397
   36CHL1  H11B 3806   1.278   3.844   5.943 -0.4162 -0.5467  0.2263
   36CHL1    C9 3807   1.382   3.665   5.959 -0.6840  0.0186  0.4715
   36CHL1    H9 3808   1.287   3.607   5.955  0.1690 -1.3491 -0.6996
   36CHL1   C10 3809   1.410   3.683   6.116  0.0158  0.6250 -0.4454
   36CHL1   C19 3810   1.534   3.774   6.127 -0.5471 -0.4308  0.2708
   36CHL1  H19A 3811   1.547   3.806   6.233 -3.3184 -0.4924  0.7044
   36CHL1  H19B 3812   1.629   3.728   6.091 -1.9096 -0.7264 -3.4157
   36CHL1  H19C 3813   1.524   3.864   6.063  1.0950 -1.1386 -1.0460
   36CHL1    C1 3814   1.288   3.748   6.191 -0.1415  0.0180  0.0863
   36CHL1   H1A 3815   1.264   3.853   6.164 -1.7091 -0.0440  1.0959
   36CHL1   H1B 3816   1.191   3.696   6.172  1.0574 -2.8698  1.2688
   36CHL1    C2 3817   1.307   3.764   6.342  0.5322  1.0466 -0.1130
   36CHL1   H2A 3818   1.209   3.793   6.387 -1.2513 -4.2152  0.0548
   36CHL1   H2B 3819   1.376   3.848   6.365  0.0512  0.7873  2.7308
   36CHL1   C20 3820   1.426   3.721   5.401  0.2022  0.3281  0.0114
   36CHL1   H20 3821   1.533   3.741   5.378 -0.1997  1.2677 -1.1570
   36CHL1   C21 3822   1.366   3.864   5.416  0.4137  0.2633 -0.3820
   36CHL1  H21A 3823   1.403   3.925   5.501  2.3775 -0.2970 -0.7859
   36CHL1  H21B 3824   1.255   3.855   5.418  0.4975 -0.9037  1.7868
   36CHL1  H21C 3825   1.387   3.919   5.322 -0.6951  0.9280 -0.2564
   36CHL1   C22 3826   1.375   3.650   5.270 -0.7551 -0.3536 -0.1274
   36CHL1  H22A 3827   1.422   3.549   5.270  2.3271  0.9730  0.4491
   36CHL1  H22B 3828   1.264   3.637   5.272 -1.3211  3.4710  0.8148
   36CHL1   C23 3829   1.421   3.712   5.137 -0.1875 -0.1774 -0.2844
   36CHL1  H23A 3830   1.391   3.818   5.130 -0.1788 -0.1310  0.3318
   36CHL1  H23B 3831   1.532   3.717   5.129 -0.3041  0.8563 -1.6220
   36CHL1   C24 3832   1.365   3.648   5.008 -0.2331  0.3266 -0.2003
   36CHL1  H24A 3833   1.377   3.538   5.023  0.8468  0.5641  0.7736
   36CHL1  H24B 3834   1.256   3.672   5.000 -0.4908 -0.3612  0.9487
   36CHL1   C25 3835   1.435   3.682   4.874  0.4575 -0.5371 -0.0486
   36CHL1   H25 3836   1.428   3.791   4.858  0.4029 -0.4866  0.3055
   36CHL1   C26 3837   1.584   3.646   4.874 -0.5932 -0.6784 -0.8335
   36CHL1  H26A 3838   1.597   3.537   4.886  0.6808 -0.2688  2.3475
   36CHL1  H26B 3839   1.615   3.677   4.771  2.7781 -1.9093 -0.3036
   36CHL1  H26C 3840   1.644   3.703   4.949 -1.8964 -0.2006 -0.1257
   36CHL1   C27 3841   1.363   3.614   4.755  0.7654 -0.2320  0.1962
   36CHL1  H27A 3842   1.414   3.629   4.658  2.8566 -0.5298  1.2013
   36CHL1  H27B 3843   1.354   3.507   4.781  1.5128  0.0392  1.7009
   36CHL1  H27C 3844   1.262   3.658   4.738  0.4247 -1.8268 -2.3737
   37CHL1    C3 3845   4.658   5.130   6.553 -0.0042  0.7511 -0.0945
   37CHL1    H3 3846   4.714   5.211   6.500 -0.8143  1.0134 -0.5663
   37CHL1    O3 3847   4.650   5.146   6.689 -0.1651 -0.2565  0.1546
   37CHL1   H3' 3848   4.580   5.081   6.690  1.7029 -2.4049 -0.8694
   37CHL1    C4 3849   4.513   5.127   6.484  0.0267  0.2090 -0.3157
   37CHL1   H4A 3850   4.446   5.042   6.510  0.9214 -0.4098 -0.0007
   37CHL1   H4B 3851   4.456   5.216   6.517 -0.2148 -0.0331 -0.0691
   37CHL1    C5 3852   4.542   5.115   6.338 -0.1391 -0.2534  0.1734
   37CHL1    C6 3853   4.513   5.211   6.249  0.3700  0.2897  0.0904
   37CHL1    H6 3854   4.463   5.303   6.283  0.6503  0.3828  0.2496
   37CHL1    C7 3855   4.511   5.197   6.105  0.2140  0.8269  0.1812
   37CHL1   H7A 3856   4.415   5.224   6.056  1.5641  0.9896 -2.5601
   37CHL1   H7B 3857   4.587   5.266   6.064  0.3482 -0.6607 -2.2536
   37CHL1    C8 3858   4.539   5.053   6.055 -1.1016 -0.3232 -0.0471
   37CHL1    H8 3859   4.450   4.988   6.039  0.5205 -2.6092 -0.2464
   37CHL1   C14 3860   4.602   5.059   5.919 -0.1476 -0.4486 -0.1861
   37CHL1   H14 3861   4.693   5.120   5.935 -0.2832  0.0579 -1.2682
   37CHL1   C15 3862   4.523   5.136   5.814  0.4494 -0.0506  0.2279
   37CHL1  H15A 3863   4.419   5.099   5.809 -0.0024  1.1054  0.8209
   37CHL1  H15B 3864   4.519   5.243   5.843  0.5269 -0.3977  1.6245
   37CHL1   C16 3865   4.600   5.113   5.687  0.4237 -0.2613  0.0864
   37CHL1  H16A 3866   4.530   5.083   5.607  2.5579 -2.8076 -1.0041
   37CHL1  H16B 3867   4.649   5.212   5.675  3.4320 -1.2034  2.9408
   37CHL1   C17 3868   4.703   4.992   5.712  0.0265  0.0921 -0.1493
   37CHL1   H17 3869   4.802   5.038   5.730 -0.0571  0.1452  0.1999
   37CHL1   C13 3870   4.661   4.938   5.851 -0.3624  0.6442  0.6481
   37CHL1   C18 3871   4.548   4.839   5.826  0.8953 -0.0665 -0.3414
   37CHL1  H18A 3872   4.588   4.737   5.805  1.2065 -0.0176 -0.0033
   37CHL1  H18B 3873   4.490   4.817   5.918 -1.5386  0.7777 -1.6050
   37CHL1  H18C 3874   4.468   4.867   5.755 -0.8495 -1.0027  1.1603
   37CHL1   C12 3875   4.768   4.875   5.943 -0.4276  0.5164 -0.0226
   37CHL1  H12A 3876   4.801   4.775   5.909 -1.0045 -0.3988  1.9930
   37CHL1  H12B 3877   4.860   4.938   5.935  0.3525 -0.2686  2.1127
   37CHL1   C11 3878   4.714   4.865   6.086 -0.6876 -0.1329  0.7431
   37CHL1  H11A 3879   4.641   4.782   6.077 -1.1078  0.4211 -1.6148
   37CHL1  H11B 3880   4.795   4.827   6.152 -1.3912 -0.5582  1.3855
   37CHL1    C9 3881   4.644   4.990   6.147 -0.3780  0.5014 -0.1535
   37CHL1    H9 3882   4.729   5.062   6.147  0.0079  0.1078  1.8443
   37CHL1   C10 3883   4.605   4.978   6.294 -0.1834  1.1378 -0.4931
   37CHL1   C19 3884   4.499   4.868   6.323 -0.5148  0.3705  0.2255
   37CHL1  H19A 3885   4.401   4.902   6.281 -0.3924 -1.6545 -1.9484
   37CHL1  H19B 3886   4.520   4.772   6.270 -0.0879  0.9084 -0.6070
   37CHL1  H19C 3887   4.496   4.845   6.431 -1.3833  2.0582  0.5978
   37CHL1    C1 3888   4.734   4.952   6.377 -0.3955 -0.3289 -0.0727
   37CHL1   H1A 3889   4.753   4.843   6.380 -0.5016 -0.4261 -1.7881
   37CHL1   H1B 3890   4.824   5.005   6.341  0.7332 -0.0768  2.8651
   37CHL1    C2 3891   4.728   4.994   6.529  0.2081  0.3263 -0.1130
   37CHL1   H2A 3892   4.822   4.997   6.588 -0.9654  0.4355  1.8537
   37CHL1   H2B 3893   4.673   4.914   6.584 -0.1676  1.1405  0.7287
   37CHL1   C20 3894   4.719   4.894   5.602 -0.5976 -0.1725  0.4301
   37CHL1   H20 3895   4.631   4.831   5.581  0.3891 -2.0904  1.8230
   37CHL1   C21 3896   4.834   4.805   5.646  0.3170 -0.2801 -0.2199
   37CHL1  H21A 3897   4.799   4.721   5.711  0.4171 -1.6579 -1.8670
   37CHL1  H21B 3898   4.919   4.861   5.691  0.0762 -0.7097  0.7954
   37CHL1  H21C 3899   4.864   4.751   5.553  0.0644 -0.6162 -0.1093
   37CHL1   C22 3900   4.749   4.968   5.469 -0.0865  0.2885 -0.8707
   37CHL1  H22A 3901   4.693   5.063   5.453  0.4484  0.5110 -1.4467
   37CHL1  H22B 3902   4.854   5.001   5.481 -0.2503  0.0788  1.7938
   37CHL1   C23 3903   4.731   4.884   5.342 -0.1202 -0.3043 -0.0346
   37CHL1  H23A 3904   4.778   4.784   5.343  2.6874  0.9225  0.7985
   37CHL1  H23B 3905   4.623   4.868   5.322 -0.5258  0.6853  1.2055
   37CHL1   C24 3906   4.777   4.961   5.216  1.0496 -0.0224 -0.4460
   37CHL1  H24A 3907   4.731   4.912   5.128 -1.0625 -2.3786  1.8207
   37CHL1  H24B 3908   4.741   5.066   5.217 -0.4828 -0.5217  0.3316
   37CHL1   C25 3909   4.931   4.980   5.201  0.5165 -0.5747 -0.0190
   37CHL1   H25 3910   4.958   5.063   5.271 -0.3482 -0.0718 -0.2706
   37CHL1   C26 3911   5.012   4.855   5.239 -0.6232 -0.0092 -0.2554
   37CHL1  H26A 3912   5.109   4.863   5.184 -0.7604  0.4137 -0.4414
   37CHL1  H26B 3913   5.026   4.846   5.348  1.8236 -1.3517 -0.6073
   37CHL1  H26C 3914   4.974   4.761   5.193 -0.5094  0.1121 -0.6043
   37CHL1   C27 3915   4.971   5.022   5.054  0.1895  0.6505  0.1213
   37CHL1  H27A 3916   5.067   5.077   5.054 -0.5847  2.0679 -0.5930
   37CHL1  H27B 3917   4.960   4.938   4.981  0.9688  2.2124 -1.9033
   37CHL1  H27C 3918   4.908   5.106   5.016 -1.5386 -0.5431  0.1998
   38CHL1    C3 3919   4.733   3.509   6.249 -0.1594  0.9955  0.0078
   38CHL1    H3 3920   4.716   3.400   6.243 -2.4777  1.3235 -0.4644
   38CHL1    O3 3921   4.741   3.544   6.384  0.1863  0.1016  0.4904
   38CHL1   H3' 3922   4.663   3.512   6.430 -1.1712  0.6000 -1.3292
   38CHL1    C4 3923   4.871   3.549   6.187  0.2056  0.1499 -0.0162
   38CHL1   H4A 3924   4.895   3.655   6.212 -2.2396  0.4077  1.6138
   38CHL1   H4B 3925   4.940   3.475   6.232  0.1835 -0.1773 -0.5168
   38CHL1    C5 3926   4.863   3.524   6.039 -0.1239  0.2078 -0.3548
   38CHL1    C6 3927   4.959   3.445   5.985  0.4861 -0.2383 -0.1995
   38CHL1    H6 3928   5.030   3.403   6.058  0.7157 -3.4406 -2.0753
   38CHL1    C7 3929   4.962   3.431   5.837  0.3098  0.5574 -0.1125
   38CHL1   H7A 3930   5.067   3.447   5.806  0.3606 -1.9195 -1.4739
   38CHL1   H7B 3931   4.935   3.329   5.802  0.9069  0.0719  0.7840
   38CHL1    C8 3932   4.880   3.541   5.756 -0.4355  0.1253 -0.1260
   38CHL1    H8 3933   4.938   3.635   5.764  1.2138 -0.9353  0.8433
   38CHL1   C14 3934   4.860   3.491   5.614 -0.0340  0.0363  0.6211
   38CHL1   H14 3935   4.807   3.394   5.616  0.1991 -0.1140 -0.3455
   38CHL1   C15 3936   4.987   3.439   5.538 -0.6420 -0.0994  0.2795
   38CHL1  H15A 3937   5.070   3.513   5.537  0.3207 -0.8171 -5.3218
   38CHL1  H15B 3938   5.024   3.342   5.576 -3.1800 -1.5796 -0.7315
   38CHL1   C16 3939   4.928   3.423   5.395  0.2798  0.5886  0.3004
   38CHL1  H16A 3940   4.991   3.473   5.319  0.8926  1.6731  1.4685
   38CHL1  H16B 3941   4.920   3.316   5.365 -0.2103  0.8474 -0.5052
   38CHL1   C17 3942   4.798   3.493   5.391 -0.6489 -0.1182 -0.4299
   38CHL1   H17 3943   4.719   3.416   5.399 -0.0597 -0.7000 -0.0299
   38CHL1   C13 3944   4.793   3.587   5.517 -0.1561  0.9501  0.0193
   38CHL1   C18 3945   4.877   3.716   5.491 -0.1838  0.1128 -0.3163
   38CHL1  H18A 3946   4.816   3.772   5.417 -2.7444 -3.1428 -0.9283
   38CHL1  H18B 3947   4.874   3.776   5.584 -0.4913 -0.7185  0.2215
   38CHL1  H18C 3948   4.978   3.688   5.454 -0.2843 -1.6071  0.6022
   38CHL1   C12 3949   4.644   3.608   5.577  0.0266  0.3704 -0.0675
   38CHL1  H12A 3950   4.592   3.691   5.524  3.5370  1.6849 -1.8071
   38CHL1  H12B 3951   4.586   3.516   5.556 -1.2557  1.1097  0.1169
   38CHL1   C11 3952   4.646   3.644   5.727  0.0752 -0.0116 -0.4347
   38CHL1  H11A 3953   4.688   3.748   5.724 -1.8675  0.8527  0.8191
   38CHL1  H11B 3954   4.546   3.641   5.775 -0.0841  1.5544 -0.6097
   38CHL1    C9 3955   4.743   3.553   5.815 -0.2847  0.0226  0.0664
   38CHL1    H9 3956   4.696   3.452   5.811 -2.1316  0.8221  0.2275
   38CHL1   C10 3957   4.743   3.593   5.967  0.0567  0.0964 -0.0609
   38CHL1   C19 3958   4.765   3.743   5.983 -0.0003  0.1253 -0.3669
   38CHL1  H19A 3959   4.663   3.787   5.974 -1.1619 -2.6015 -1.6723
   38CHL1  H19B 3960   4.811   3.782   6.076  0.5964 -0.7151 -0.3073
   38CHL1  H19C 3961   4.827   3.786   5.901 -0.1120 -1.3196 -1.2496
   38CHL1    C1 3962   4.607   3.554   6.029 -0.2456 -0.0300 -0.2370
   38CHL1   H1A 3963   4.521   3.612   5.987  0.5682  2.3533  1.1568
   38CHL1   H1B 3964   4.592   3.447   6.004  3.4312 -0.4382 -1.1242
   38CHL1    C2 3965   4.616   3.577   6.188  0.6384  0.2004  0.5413
   38CHL1   H2A 3966   4.524   3.547   6.242  1.3002  1.3741  2.4522
   38CHL1   H2B 3967   4.612   3.688   6.193 -0.2873  0.2887 -1.2639
   38CHL1   C20 3968   4.762   3.562   5.250 -0.5493  1.0191 -0.0518
   38CHL1   H20 3969   4.843   3.633   5.223  0.3863 -0.8709 -2.5960
   38CHL1   C21 3970   4.631   3.634   5.254  0.1786  0.3470  0.5070
   38CHL1  H21A 3971   4.627   3.718   5.327 -1.0237 -2.2485  3.6838
   38CHL1  H21B 3972   4.548   3.564   5.278 -2.6520  2.4980 -2.3037
   38CHL1  H21C 3973   4.603   3.674   5.155  2.0172  2.1577  0.6564
   38CHL1   C22 3974   4.761   3.447   5.138  0.2006 -0.5536  0.9011
   38CHL1  H22A 3975   4.854   3.388   5.155  1.8808  2.5176  3.4407
   38CHL1  H22B 3976   4.668   3.389   5.160 -0.5860  0.2004 -0.3541
   38CHL1   C23 3977   4.740   3.508   4.988  0.6409  0.0015 -0.4458
   38CHL1  H23A 3978   4.746   3.420   4.920 -3.6636 -0.6715 -0.2424
   38CHL1  H23B 3979   4.638   3.549   4.974  0.0453 -1.5703 -0.9248
   38CHL1   C24 3980   4.846   3.612   4.950 -0.3902 -0.6613 -0.1776
   38CHL1  H24A 3981   4.807   3.657   4.856  1.8081 -1.0078 -1.3491
   38CHL1  H24B 3982   4.856   3.697   5.021 -0.8192  0.5354 -1.4982
   38CHL1   C25 3983   4.992   3.558   4.930  0.1956  0.4808 -0.4474
   38CHL1   H25 3984   5.029   3.526   5.030  0.7072 -1.0957 -1.1084
   38CHL1   C26 3985   4.990   3.449   4.827  0.4409 -0.3694  0.1514
   38CHL1  H26A 3986   4.944   3.357   4.869  0.5042 -1.0848 -1.2722
   38CHL1  H26B 3987   4.934   3.467   4.733  0.1019  1.9820  0.7514
   38CHL1  H26C 3988   5.091   3.414   4.795 -0.4931 -1.2150 -2.1131
   38CHL1   C27 3989   5.073   3.679   4.889 -0.5516  0.7987  0.2223
   38CHL1  H27A 3990   5.035   3.717   4.791 -0.9019  3.4003  1.2864
   38CHL1  H27B 3991   5.048   3.764   4.956 -0.9178  1.2884 -0.5258
   38CHL1  H27C 3992   5.181   3.656   4.888 -0.1727  2.1477  2.7059
   39CHL1    C3 3993   5.340   4.419   6.502 -0.4974  0.4542 -0.0395
   39CHL1    H3 3994   5.314   4.312   6.520 -1.2925  0.6900  0.2353
   39CHL1    O3 3995   5.363   4.460   6.637 -0.5979 -0.2560 -0.2330
   39CHL1   H3' 3996   5.373   4.555   6.635 -1.4094 -0.0931  1.4733
   39CHL1    C4 3997   5.466   4.434   6.412  0.2012 -0.0391  0.3911
   39CHL1   H4A 3998   5.497   4.540   6.422  2.9003 -0.7081 -0.1284
   39CHL1   H4B 3999   5.553   4.376   6.451  1.1610  0.9409 -0.2332
   39CHL1    C5 4000   5.431   4.422   6.262 -0.1335  0.8860 -0.1544
   39CHL1    C6 4001   5.511   4.342   6.184  0.2243 -0.2390  0.4022
   39CHL1    H6 4002   5.595   4.285   6.227  0.8793  0.3205 -0.1047
   39CHL1    C7 4003   5.487   4.327   6.035 -0.0350  0.2669  0.2667
   39CHL1   H7A 4004   5.579   4.340   5.973 -0.2765  0.9974  0.0452
   39CHL1   H7B 4005   5.444   4.226   6.021  1.1978 -0.2312 -0.0593
   39CHL1    C8 4006   5.384   4.419   5.972  0.4960 -0.1927 -0.1730
   39CHL1    H8 4007   5.426   4.522   5.967 -1.2724  0.5854  0.1941
   39CHL1   C14 4008   5.349   4.380   5.823  0.7436 -0.2524 -0.6971
   39CHL1   H14 4009   5.301   4.279   5.824 -2.1848  1.0272 -0.8575
   39CHL1   C15 4010   5.465   4.376   5.720 -0.2445  0.5119  0.2544
   39CHL1  H15A 4011   5.529   4.467   5.719 -0.3280  0.5969  1.4284
   39CHL1  H15B 4012   5.522   4.286   5.748 -0.0859  0.2404 -0.8685
   39CHL1   C16 4013   5.399   4.374   5.586 -0.2130  0.8449  0.5200
   39CHL1  H16A 4014   5.448   4.451   5.523  1.8988 -1.1394 -0.4077
   39CHL1  H16B 4015   5.402   4.273   5.538  0.3005 -0.5154  3.2127
   39CHL1   C17 4016   5.250   4.422   5.616 -0.9040 -0.9247 -0.6933
   39CHL1   H17 4017   5.193   4.327   5.619 -2.0970 -0.2223  2.5936
   39CHL1   C13 4018   5.239   4.476   5.761 -0.3289  0.6624 -0.5589
   39CHL1   C18 4019   5.300   4.618   5.757  0.4812 -0.6054  0.5322
   39CHL1  H18A 4020   5.336   4.655   5.856  1.1854  0.7961 -0.2293
   39CHL1  H18B 4021   5.384   4.628   5.686  0.2991  0.7200  0.4773
   39CHL1  H18C 4022   5.220   4.688   5.724  1.3609  1.3825  2.3119
   39CHL1   C12 4023   5.114   4.464   5.843  0.1103  0.4542 -0.3351
   39CHL1  H12A 4024   5.031   4.521   5.796  1.2268 -0.4865 -3.7648
   39CHL1  H12B 4025   5.070   4.362   5.835  0.4277  0.3553 -0.8801
   39CHL1   C11 4026   5.142   4.508   5.989 -0.0600  0.1050  0.2685
   39CHL1  H11A 4027   5.163   4.616   5.973 -0.7155  0.0438 -1.2448
   39CHL1  H11B 4028   5.048   4.499   6.047  0.1911 -0.7358  0.5584
   39CHL1    C9 4029   5.257   4.431   6.059  0.6949  0.3897 -0.2645
   39CHL1    H9 4030   5.222   4.326   6.071 -2.2765  1.3727  0.3346
   39CHL1   C10 4031   5.301   4.481   6.198  0.2644 -0.2783 -0.7927
   39CHL1   C19 4032   5.323   4.641   6.185  0.8934  1.1092  0.3725
   39CHL1  H19A 4033   5.233   4.694   6.148 -0.4124 -2.6466 -2.6157
   39CHL1  H19B 4034   5.366   4.688   6.276  2.8036  2.5906 -1.1920
   39CHL1  H19C 4035   5.404   4.657   6.110 -2.1498  0.3322 -3.4366
   39CHL1    C1 4036   5.183   4.453   6.307  0.0543 -0.3937  1.1994
   39CHL1   H1A 4037   5.090   4.506   6.275  2.1481  1.7436 -1.9417
   39CHL1   H1B 4038   5.150   4.347   6.297  0.9538 -0.5539 -0.4889
   39CHL1    C2 4039   5.213   4.495   6.450 -0.6134 -0.4059  0.2924
   39CHL1   H2A 4040   5.132   4.463   6.520  0.2995 -0.8795  1.1622
   39CHL1   H2B 4041   5.225   4.605   6.461 -2.5919 -0.0862 -0.4387
   39CHL1   C20 4042   5.187   4.506   5.502  0.2532  0.3237 -0.1622
   39CHL1   H20 4043   5.242   4.603   5.505  0.4748  0.1800  0.6030
   39CHL1   C21 4044   5.034   4.538   5.532 -0.0383 -0.5086 -0.3148
   39CHL1  H21A 4045   4.982   4.441   5.546 -2.0839  0.6716  0.7806
   39CHL1  H21B 4046   4.986   4.595   5.450 -0.1360 -0.0899  0.0289
   39CHL1  H21C 4047   5.003   4.589   5.626 -2.7464 -2.1057 -0.2373
   39CHL1   C22 4048   5.210   4.445   5.364 -0.0527  0.0327 -1.1916
   39CHL1  H22A 4049   5.321   4.439   5.359 -0.0985 -1.0943 -1.1694
   39CHL1  H22B 4050   5.170   4.342   5.356  3.5712 -1.5650 -0.8138
   39CHL1   C23 4051   5.151   4.528   5.248  0.1471 -0.3957 -0.1850
   39CHL1  H23A 4052   5.042   4.511   5.255 -0.2744  1.0730 -2.1819
   39CHL1  H23B 4053   5.156   4.639   5.262  1.7630 -0.5002  0.2847
   39CHL1   C24 4054   5.221   4.491   5.113 -0.2977 -0.3509 -0.0988
   39CHL1  H24A 4055   5.323   4.533   5.117 -0.9986  1.3842  0.6285
   39CHL1  H24B 4056   5.229   4.380   5.107  2.2452 -0.1226 -2.3030
   39CHL1   C25 4057   5.149   4.534   4.983  0.5047  0.7682  0.1939
   39CHL1   H25 4058   5.096   4.631   4.994 -1.0843  0.4701 -3.3502
   39CHL1   C26 4059   5.240   4.558   4.870 -0.0557  0.0411 -0.2290
   39CHL1  H26A 4060   5.329   4.491   4.872 -1.2302 -1.5804 -0.2465
   39CHL1  H26B 4061   5.189   4.570   4.773  2.6766 -0.1151 -1.7850
   39CHL1  H26C 4062   5.290   4.656   4.883 -1.0914  0.6274 -0.5506
   39CHL1   C27 4063   5.045   4.434   4.939  0.0088 -0.4990  0.1728
   39CHL1  H27A 4064   5.094   4.334   4.935  1.9110  0.4251 -2.9012
   39CHL1  H27B 4065   4.974   4.422   5.024  0.2009 -2.7294  0.0929
   39CHL1  H27C 4066   5.000   4.475   4.846 -0.0901 -1.7162 -0.3316
   40CHL1    C3 4067   5.809   0.163   6.591  0.3557  0.6466 -0.0085
   40CHL1    H3 4068   5.805   0.052   6.584  1.0804  0.5916  0.3828
   40CHL1    O3 4069   5.855   0.194   6.721  0.2760 -0.5088  0.0797
   40CHL1   H3' 4070   5.795   0.263   6.749  1.7199  1.0720 -0.5661
   40CHL1    C4 4071   5.908   0.209   6.482 -0.0835 -0.2320 -0.2970
   40CHL1   H4A 4072   5.928   0.315   6.504  0.2041 -0.8095  2.5928
   40CHL1   H4B 4073   6.004   0.158   6.505  0.0019  0.4640  0.9441
   40CHL1    C5 4074   5.867   0.171   6.343 -0.1712 -0.3597  0.4280
   40CHL1    C6 4075   5.949   0.100   6.264 -0.5486 -1.0173 -0.2100
   40CHL1    H6 4076   6.048   0.062   6.294 -0.1744 -0.6871 -0.9849
   40CHL1    C7 4077   5.928   0.073   6.123  0.5172  0.5517  0.3252
   40CHL1   H7A 4078   6.008   0.116   6.059  0.5185  1.2625  0.8008
   40CHL1   H7B 4079   5.924  -0.037   6.105  2.3335  0.4854  0.1522
   40CHL1    C8 4080   5.801   0.145   6.068  0.3695 -0.1692 -0.0247
   40CHL1    H8 4081   5.836   0.250   6.053 -0.4569  0.3225  1.3123
   40CHL1   C14 4082   5.757   0.083   5.945  0.3674 -0.4182 -0.4143
   40CHL1   H14 4083   5.726  -0.019   5.977 -1.1592  0.7392  2.1194
   40CHL1   C15 4084   5.864   0.058   5.836  0.7461 -0.6561 -0.0074
   40CHL1  H15A 4085   5.913   0.156   5.816  0.1002 -0.2947  0.1738
   40CHL1  H15B 4086   5.936  -0.024   5.858  2.5515  0.5297 -1.1710
   40CHL1   C16 4087   5.775   0.027   5.710  0.3904 -0.0897 -0.2501
   40CHL1  H16A 4088   5.797   0.099   5.629 -1.9047  0.0802 -0.7996
   40CHL1  H16B 4089   5.786  -0.078   5.674  0.5591 -0.1546 -0.0154
   40CHL1   C17 4090   5.626   0.051   5.759  0.9975 -0.0822 -0.4908
   40CHL1   H17 4091   5.591  -0.048   5.794 -2.1094  1.1523  0.1833
   40CHL1   C13 4092   5.630   0.144   5.881 -0.4604  0.1497 -0.4269
   40CHL1   C18 4093   5.653   0.284   5.828  0.0194  0.3293  0.7466
   40CHL1  H18A 4094   5.685   0.345   5.915 -0.1099 -0.3472  1.2758
   40CHL1  H18B 4095   5.740   0.296   5.760 -0.8627 -0.6150 -0.5664
   40CHL1  H18C 4096   5.560   0.334   5.794  0.5179  0.5180 -0.3779
   40CHL1   C12 4097   5.517   0.127   5.980  1.0611 -0.0331  0.5704
   40CHL1  H12A 4098   5.430   0.179   5.933  1.8567  0.3325 -0.5357
   40CHL1  H12B 4099   5.486   0.023   6.006  0.5728 -0.3434 -1.1297
   40CHL1   C11 4100   5.550   0.201   6.115 -0.4000 -0.3351  0.5431
   40CHL1  H11A 4101   5.552   0.312   6.111 -0.8005 -0.3493 -0.0516
   40CHL1  H11B 4102   5.467   0.175   6.185 -0.4010  1.5404  1.3098
   40CHL1    C9 4103   5.686   0.153   6.174  0.0893  0.5415  0.8947
   40CHL1    H9 4104   5.670   0.045   6.193 -0.4909 -0.0108 -2.1995
   40CHL1   C10 4105   5.724   0.219   6.310  0.2924  1.2168  0.0512
   40CHL1   C19 4106   5.733   0.374   6.298 -0.0846  0.3897  0.4543
   40CHL1  H19A 4107   5.635   0.427   6.297 -0.0465  0.5636 -2.6064
   40CHL1  H19B 4108   5.808   0.423   6.363 -1.8866 -1.0764  3.9117
   40CHL1  H19C 4109   5.770   0.396   6.196  0.7690 -0.9249  0.4592
   40CHL1    C1 4110   5.622   0.188   6.425  0.9631  0.0630 -0.0659
   40CHL1   H1A 4111   5.526   0.239   6.402  0.8183  0.6108  1.6695
   40CHL1   H1B 4112   5.603   0.078   6.419  0.6164  0.1314 -0.2447
   40CHL1    C2 4113   5.669   0.226   6.566  0.8083  0.2727  0.0882
   40CHL1   H2A 4114   5.602   0.203   6.651  0.8385 -0.2233 -0.0206
   40CHL1   H2B 4115   5.681   0.336   6.568 -0.3931  0.4224  3.0393
   40CHL1   C20 4116   5.531   0.094   5.632  0.1200  0.3786  0.2795
   40CHL1   H20 4117   5.582   0.190   5.608  1.5616 -0.1475  1.0921
   40CHL1   C21 4118   5.386   0.117   5.674 -0.4894 -0.3413  0.1693
   40CHL1  H21A 4119   5.357   0.042   5.751  1.5585  0.8916  2.2751
   40CHL1  H21B 4120   5.315   0.124   5.588 -0.9354  1.2861  0.6356
   40CHL1  H21C 4121   5.379   0.219   5.717 -1.7077 -0.0537 -0.6528
   40CHL1   C22 4122   5.541  -0.006   5.515  0.4279 -0.5467  0.3065
   40CHL1  H22A 4123   5.646  -0.042   5.507 -0.2887 -3.8580  3.4981
   40CHL1  H22B 4124   5.477  -0.097   5.520  0.2233 -0.4050  0.2880
   40CHL1   C23 4125   5.509   0.072   5.384 -0.4645 -0.0317  0.1244
   40CHL1  H23A 4126   5.409   0.120   5.394  0.8579  2.6789  1.2829
   40CHL1  H23B 4127   5.583   0.154   5.387 -0.5503  0.0319  0.5506
   40CHL1   C24 4128   5.506  -0.017   5.267 -0.0877 -0.3370  0.7481
   40CHL1  H24A 4129   5.611  -0.048   5.250  1.3565  3.5615  1.3657
   40CHL1  H24B 4130   5.432  -0.097   5.288  0.2747 -0.9459 -0.2401
   40CHL1   C25 4131   5.471   0.061   5.132 -0.3726  0.7879 -0.5029
   40CHL1   H25 4132   5.532   0.154   5.124 -3.9313  3.5889  1.5754
   40CHL1   C26 4133   5.505  -0.030   5.007  0.0040  0.3755  0.2884
   40CHL1  H26A 4134   5.496   0.044   4.924 -1.0511 -0.0835 -0.0238
   40CHL1  H26B 4135   5.609  -0.064   5.023  0.3306  1.1786 -0.0518
   40CHL1  H26C 4136   5.431  -0.112   4.992 -0.4518  1.0063 -1.1030
   40CHL1   C27 4137   5.325   0.107   5.112  0.6416  0.1644 -0.1551
   40CHL1  H27A 4138   5.304   0.094   5.004  3.3485  0.0356 -0.7357
   40CHL1  H27B 4139   5.258   0.045   5.176  1.2354 -0.0251  0.2922
   40CHL1  H27C 4140   5.312   0.213   5.141  1.9279  0.4093 -0.4056
   41CHL1    C3 4141   1.853   1.289   6.026  0.2402  0.1312 -0.4814
   41CHL1    H3 4142   1.809   1.191   5.999 -3.0240  1.4116 -0.1927
   41CHL1    O3 4143   1.938   1.276   6.139 -0.4018  0.2593  0.1165
   41CHL1   H3' 4144   1.935   1.356   6.193 -0.5791 -0.1751  0.7568
   41CHL1    C4 4145   1.925   1.320   5.895 -0.7671 -0.0927  0.0415
   41CHL1   H4A 4146   1.997   1.402   5.911  0.1848 -0.9705  0.3599
   41CHL1   H4B 4147   1.984   1.230   5.869 -0.0668  0.5122 -0.4912
   41CHL1    C5 4148   1.828   1.354   5.777 -0.6146  0.1170  0.1270
   41CHL1    C6 4149   1.825   1.283   5.663  0.6278  0.3106  0.0185
   41CHL1    H6 4150   1.895   1.200   5.647  0.7930 -0.2534  3.0757
   41CHL1    C7 4151   1.730   1.320   5.553 -0.5888 -0.0154  0.1532
   41CHL1   H7A 4152   1.785   1.309   5.458 -0.9843 -0.7644  0.0059
   41CHL1   H7B 4153   1.655   1.242   5.528 -0.3589  0.4049 -2.0681
   41CHL1    C8 4154   1.665   1.459   5.561 -0.2247 -0.0624 -0.6479
   41CHL1    H8 4155   1.743   1.536   5.541 -1.4976  1.1569 -1.0748
   41CHL1   C14 4156   1.562   1.478   5.457  0.0167 -1.1276  1.5373
   41CHL1   H14 4157   1.496   1.389   5.470  0.8212 -2.7598 -3.3789
   41CHL1   C15 4158   1.604   1.463   5.313  0.2118 -0.3226  0.0497
   41CHL1  H15A 4159   1.699   1.513   5.283 -0.0914 -0.6477 -1.5389
   41CHL1  H15B 4160   1.607   1.361   5.271  0.9773  0.3031 -1.4810
   41CHL1   C16 4161   1.485   1.526   5.224 -0.4474 -0.4823 -0.6759
   41CHL1  H16A 4162   1.529   1.597   5.150  1.0162 -0.8722 -0.2117
   41CHL1  H16B 4163   1.429   1.445   5.174 -0.4882 -0.8546 -0.0322
   41CHL1   C17 4164   1.396   1.593   5.327 -0.0894 -0.9649  0.1641
   41CHL1   H17 4165   1.317   1.520   5.357 -2.1133  0.7128 -0.8034
   41CHL1   C13 4166   1.476   1.608   5.464 -0.8188 -0.7793 -0.0728
   41CHL1   C18 4167   1.562   1.727   5.442 -0.5897  0.8829 -0.5308
   41CHL1  H18A 4168   1.657   1.731   5.499  0.5306 -0.1762 -2.2328
   41CHL1  H18B 4169   1.587   1.738   5.335  0.9655 -1.2005 -0.4249
   41CHL1  H18C 4170   1.499   1.814   5.472 -0.4542  1.1821 -1.1055
   41CHL1   C12 4171   1.406   1.609   5.599 -0.1670 -0.0398  0.2143
   41CHL1  H12A 4172   1.342   1.700   5.606  1.1864  0.9782 -0.1069
   41CHL1  H12B 4173   1.331   1.527   5.591 -1.9871  1.5042  0.7365
   41CHL1   C11 4174   1.511   1.601   5.712 -0.0130 -0.0864 -0.4338
   41CHL1  H11A 4175   1.566   1.697   5.716  0.2488  0.0119 -3.7704
   41CHL1  H11B 4176   1.450   1.590   5.804 -0.4610 -0.5695 -0.7792
   41CHL1    C9 4177   1.607   1.472   5.698  0.6086  0.4956  0.2182
   41CHL1    H9 4178   1.532   1.393   5.718  1.0958  0.4856  2.2617
   41CHL1   C10 4179   1.723   1.465   5.806 -0.2196  0.3050  0.6047
   41CHL1   C19 4180   1.785   1.609   5.843 -0.3118  0.0202 -0.2983
   41CHL1  H19A 4181   1.813   1.659   5.748 -2.2371  0.8468 -0.4662
   41CHL1  H19B 4182   1.703   1.666   5.892 -0.1475  0.2921 -0.3393
   41CHL1  H19C 4183   1.865   1.602   5.920  0.1871 -1.0211 -0.8835
   41CHL1    C1 4184   1.655   1.407   5.932  0.4611 -0.5670  0.3748
   41CHL1   H1A 4185   1.577   1.483   5.953  1.2548  0.0172  1.2736
   41CHL1   H1B 4186   1.606   1.308   5.920  0.5320 -0.9528  2.7254
   41CHL1    C2 4187   1.746   1.389   6.056  0.1904  0.5503  0.4507
   41CHL1   H2A 4188   1.683   1.342   6.134  0.0932 -0.6936 -0.3557
   41CHL1   H2B 4189   1.785   1.488   6.089 -0.4951  1.4522 -1.3388
   41CHL1   C20 4190   1.318   1.719   5.274 -0.0337  0.2028  0.0477
   41CHL1   H20 4191   1.389   1.802   5.253  0.1565  0.2350  0.7853
   41CHL1   C21 4192   1.216   1.764   5.377 -0.2970  0.2042 -0.2305
   41CHL1  H21A 4193   1.143   1.682   5.396  0.4263 -0.7913 -1.6253
   41CHL1  H21B 4194   1.155   1.849   5.338 -1.0038 -1.4169 -2.9206
   41CHL1  H21C 4195   1.266   1.803   5.468 -0.0479  0.7250 -0.5868
   41CHL1   C22 4196   1.250   1.699   5.138  0.3502  0.2895 -0.3616
   41CHL1  H22A 4197   1.213   1.799   5.104  1.4682  0.0472 -2.4286
   41CHL1  H22B 4198   1.333   1.667   5.072  0.2343 -0.4499 -0.1511
   41CHL1   C23 4199   1.139   1.597   5.124  0.0543  0.2142 -0.1188
   41CHL1  H23A 4200   1.178   1.502   5.167  0.5074  0.6614  0.4725
   41CHL1  H23B 4201   1.043   1.619   5.176  1.2885  2.3143  1.4242
   41CHL1   C24 4202   1.108   1.594   4.969 -0.0152 -0.8947 -0.3330
   41CHL1  H24A 4203   1.035   1.672   4.938  0.5380 -0.0441  0.4755
   41CHL1  H24B 4204   1.198   1.609   4.906  0.2237  1.2593  0.4513
   41CHL1   C25 4205   1.050   1.455   4.924  0.5200  0.3216 -0.4480
   41CHL1   H25 4206   1.109   1.370   4.964 -0.2401  0.0427  0.1237
   41CHL1   C26 4207   0.898   1.433   4.958 -0.3223 -0.5716 -0.4066
   41CHL1  H26A 4208   0.865   1.455   5.061 -0.7165 -0.0379 -0.6450
   41CHL1  H26B 4209   0.839   1.484   4.878  1.1840  0.8025 -0.6991
   41CHL1  H26C 4210   0.881   1.325   4.942 -0.9905 -0.7064  1.0754
   41CHL1   C27 4211   1.061   1.455   4.769 -0.5388 -0.3919  0.0999
   41CHL1  H27A 4212   1.168   1.475   4.747 -0.4040  0.7586  1.6493
   41CHL1  H27B 4213   1.025   1.360   4.725  1.7693 -1.4537  0.3810
   41CHL1  H27C 4214   1.013   1.548   4.729 -1.2662  0.1219  2.0327
   42CHL1    C3 4215   4.252   2.630   6.007 -0.9700 -0.2222  0.0212
   42CHL1    H3 4216   4.187   2.712   5.971  0.0613  0.5100 -0.2309
   42CHL1    O3 4217   4.210   2.607   6.139  0.5393 -0.1855  0.0131
   42CHL1   H3' 4218   4.284   2.580   6.193  1.2339 -0.0286 -0.8408
   42CHL1    C4 4219   4.233   2.501   5.921  0.5255  0.5299  0.2908
   42CHL1   H4A 4220   4.295   2.423   5.970  0.3814 -0.5227 -1.1191
   42CHL1   H4B 4221   4.127   2.469   5.929  0.4479  0.1099 -1.8213
   42CHL1    C5 4222   4.281   2.516   5.774  0.0664 -0.2396  0.1004
   42CHL1    C6 4223   4.194   2.498   5.672  0.2179 -0.7081 -0.4021
   42CHL1    H6 4224   4.094   2.455   5.692 -0.3939  0.5330 -0.6855
   42CHL1    C7 4225   4.240   2.518   5.529 -0.2206  0.4928 -0.2718
   42CHL1   H7A 4226   4.211   2.430   5.469  2.7485 -1.4809  0.9399
   42CHL1   H7B 4227   4.195   2.611   5.487  0.1459  1.2091  0.8482
   42CHL1    C8 4228   4.398   2.541   5.505  0.5956 -0.7576  0.0630
   42CHL1    H8 4229   4.457   2.448   5.521  1.1211  0.0918  3.9276
   42CHL1   C14 4230   4.420   2.588   5.364  0.3194 -0.6184 -1.0484
   42CHL1   H14 4231   4.377   2.690   5.358 -1.3262 -0.7536  3.7548
   42CHL1   C15 4232   4.356   2.510   5.251  0.9175  0.2616  0.6543
   42CHL1  H15A 4233   4.367   2.401   5.266 -0.5045 -0.0788 -0.4699
   42CHL1  H15B 4234   4.250   2.539   5.233 -0.3146 -2.6169  2.6090
   42CHL1   C16 4235   4.455   2.539   5.135  0.7564 -0.4392 -0.0818
   42CHL1  H16A 4236   4.493   2.438   5.110  0.9840 -0.4218  0.1872
   42CHL1  H16B 4237   4.393   2.569   5.048 -0.4741  1.3543  1.3377
   42CHL1   C17 4238   4.556   2.651   5.190 -0.3300 -0.1823  0.4919
   42CHL1   H17 4239   4.516   2.755   5.183 -0.6726 -0.3665 -0.4039
   42CHL1   C13 4240   4.569   2.615   5.334 -0.5184 -0.1443  0.0347
   42CHL1   C18 4241   4.660   2.490   5.347  0.7236  0.0944  0.1570
   42CHL1  H18A 4242   4.665   2.458   5.454  2.0431  3.2956  1.1867
   42CHL1  H18B 4243   4.610   2.405   5.298 -0.1960 -1.3870  3.3842
   42CHL1  H18C 4244   4.766   2.500   5.316  0.5541 -1.9088 -1.2281
   42CHL1   C12 4245   4.612   2.722   5.435  0.3770 -0.2737 -0.3412
   42CHL1  H12A 4246   4.721   2.741   5.421  0.5144  0.0624  0.9864
   42CHL1  H12B 4247   4.560   2.820   5.428 -0.1127 -0.2514  2.4201
   42CHL1   C11 4248   4.594   2.679   5.581  0.1892 -0.5192  0.6861
   42CHL1  H11A 4249   4.650   2.587   5.606 -0.1512 -1.3973 -1.5633
   42CHL1  H11B 4250   4.629   2.764   5.644  0.0709 -0.3376  0.5098
   42CHL1    C9 4251   4.451   2.634   5.612 -0.0251  0.2114  0.3160
   42CHL1    H9 4252   4.384   2.723   5.612  1.7845  1.6429 -1.0063
   42CHL1   C10 4253   4.426   2.577   5.762  0.4428  0.0590 -0.4880
   42CHL1   C19 4254   4.539   2.475   5.793 -0.1643 -0.4333  0.1784
   42CHL1  H19A 4255   4.553   2.386   5.727 -0.2391 -0.3959  0.1134
   42CHL1  H19B 4256   4.636   2.529   5.800 -0.2643 -0.0464 -1.1663
   42CHL1  H19C 4257   4.518   2.433   5.893  0.3259  0.2259  0.5640
   42CHL1    C1 4258   4.440   2.699   5.863  0.0407  0.3363  0.0915
   42CHL1   H1A 4259   4.549   2.720   5.865  0.1865 -0.1817  3.4231
   42CHL1   H1B 4260   4.385   2.784   5.818 -1.1443  0.0091  0.9031
   42CHL1    C2 4261   4.399   2.661   6.009  0.4207 -0.4696  0.5484
   42CHL1   H2A 4262   4.413   2.745   6.080 -0.7259 -1.4450  1.9998
   42CHL1   H2B 4263   4.448   2.569   6.048 -0.0460 -1.1329 -0.3803
   42CHL1   C20 4264   4.687   2.648   5.101  0.1978  0.4269  0.3213
   42CHL1   H20 4265   4.722   2.542   5.096  0.7590  0.6680 -1.4949
   42CHL1   C21 4266   4.799   2.734   5.159  0.2626 -0.7917 -0.1284
   42CHL1  H21A 4267   4.875   2.759   5.082  3.4439 -0.1797  2.9979
   42CHL1  H21B 4268   4.843   2.681   5.246 -0.8814 -3.0297 -0.8194
   42CHL1  H21C 4269   4.753   2.834   5.175  1.0711 -0.5012  0.4455
   42CHL1   C22 4270   4.663   2.684   4.960  0.1715  0.5209  1.0326
   42CHL1  H22A 4271   4.569   2.631   4.934  0.3883  2.6487 -6.2890
   42CHL1  H22B 4272   4.637   2.787   4.928 -0.6082 -0.8648 -3.6302
   42CHL1   C23 4273   4.766   2.642   4.861  0.2555 -0.0917  0.0259
   42CHL1  H23A 4274   4.842   2.724   4.864 -0.7091  0.8594 -0.7560
   42CHL1  H23B 4275   4.801   2.540   4.888  0.6356  0.3653  1.3789
   42CHL1   C24 4276   4.709   2.650   4.718  0.0389 -0.1481  0.3577
   42CHL1  H24A 4277   4.621   2.583   4.711 -2.3330  2.9314 -2.6686
   42CHL1  H24B 4278   4.672   2.751   4.689 -1.7448 -0.6447  0.8329
   42CHL1   C25 4279   4.792   2.590   4.608 -0.6580  0.9822  0.1452
   42CHL1   H25 4280   4.886   2.649   4.603  1.5606 -1.9884  2.9313
   42CHL1   C26 4281   4.835   2.435   4.633  0.0019  0.0017 -0.4475
   42CHL1  H26A 4282   4.746   2.374   4.605 -0.5306  1.4093 -1.9960
   42CHL1  H26B 4283   4.911   2.401   4.559  1.5356 -1.2434  1.6260
   42CHL1  H26C 4284   4.874   2.427   4.736 -1.5537  3.1678  0.5336
   42CHL1   C27 4285   4.715   2.605   4.478  0.0937 -0.0372 -0.1192
   42CHL1  H27A 4286   4.779   2.577   4.391  2.4849  1.5384  1.0295
   42CHL1  H27B 4287   4.630   2.533   4.476  0.2279 -0.2164 -2.4533
   42CHL1  H27C 4288   4.686   2.710   4.458  2.1509  0.4713 -0.6746
   43CHL1    C3 4289   2.161   6.192   6.333 -0.6627  0.3188 -0.3823
   43CHL1    H3 4290   2.268   6.223   6.340 -1.0351  1.3394  2.2244
   43CHL1    O3 4291   2.115   6.169   6.468 -0.0658 -0.8489 -0.0546
   43CHL1   H3' 4292   2.068   6.250   6.488  2.9683  1.2262 -0.6521
   43CHL1    C4 4293   2.094   6.308   6.257  0.2318  0.0121  0.1562
   43CHL1   H4A 4294   1.985   6.289   6.270  0.1708  0.1575 -0.1491
   43CHL1   H4B 4295   2.121   6.400   6.313 -0.1938  1.3197 -1.7399
   43CHL1    C5 4296   2.130   6.324   6.114 -1.1242 -0.2941  0.5562
   43CHL1    C6 4297   2.155   6.447   6.060 -0.4150  0.2862  0.4540
   43CHL1    H6 4298   2.152   6.524   6.138 -2.1120  0.9638 -0.2174
   43CHL1    C7 4299   2.200   6.477   5.927 -0.7393  0.4430  0.4242
   43CHL1   H7A 4300   2.163   6.572   5.884  0.2655  0.9334  0.6067
   43CHL1   H7B 4301   2.310   6.485   5.939 -0.5495 -1.1614 -0.0032
   43CHL1    C8 4302   2.177   6.364   5.830  0.1821  0.0108  0.8669
   43CHL1    H8 4303   2.067   6.362   5.817  0.3322  0.5310 -0.7691
   43CHL1   C14 4304   2.253   6.389   5.698  0.0958  0.5664 -0.5863
   43CHL1   H14 4305   2.363   6.398   5.711  0.4267 -1.7559 -1.4054
   43CHL1   C15 4306   2.212   6.515   5.621 -0.6426 -0.0176 -0.1923
   43CHL1  H15A 4307   2.103   6.535   5.633 -0.3117  1.5455  0.3554
   43CHL1  H15B 4308   2.269   6.597   5.668 -0.6044 -0.8394  1.2681
   43CHL1   C16 4309   2.230   6.476   5.475 -0.0059  0.1559  0.3289
   43CHL1  H16A 4310   2.128   6.471   5.433  0.3144 -1.2593 -0.3304
   43CHL1  H16B 4311   2.288   6.552   5.418 -1.4030  1.5897  0.7242
   43CHL1   C17 4312   2.285   6.328   5.468  0.1336 -0.1009 -0.4319
   43CHL1   H17 4313   2.396   6.328   5.475  0.0613 -1.3867  1.9574
   43CHL1   C13 4314   2.230   6.272   5.601 -0.4767  0.0716 -0.2568
   43CHL1   C18 4315   2.083   6.235   5.579 -0.2483  0.2564  0.3071
   43CHL1  H18A 4316   2.029   6.199   5.669 -1.5289  0.1464 -0.4779
   43CHL1  H18B 4317   2.024   6.317   5.532 -1.0068 -1.6240 -2.2476
   43CHL1  H18C 4318   2.078   6.147   5.512  2.4316  0.7774 -0.7073
   43CHL1   C12 4319   2.297   6.150   5.661  0.3090 -0.3299 -0.2830
   43CHL1  H12A 4320   2.291   6.064   5.590 -2.7957 -1.6131  1.3422
   43CHL1  H12B 4321   2.403   6.176   5.683  0.0863  0.3676 -0.0218
   43CHL1   C11 4322   2.239   6.108   5.796  0.1409 -0.3640 -0.3833
   43CHL1  H11A 4323   2.144   6.057   5.770  0.2580  0.1004 -1.7515
   43CHL1  H11B 4324   2.296   6.024   5.841 -3.2487 -1.8447  1.5731
   43CHL1    C9 4325   2.226   6.229   5.898 -0.0523 -0.1686  0.0471
   43CHL1    H9 4326   2.331   6.252   5.927 -0.3110 -0.6513  1.4575
   43CHL1   C10 4327   2.147   6.203   6.024  0.4102  0.3113  0.5672
   43CHL1   C19 4328   1.999   6.161   5.983 -0.1981  0.3058 -0.1486
   43CHL1  H19A 4329   1.998   6.065   5.927  1.4307 -0.0276  0.3448
   43CHL1  H19B 4330   1.927   6.155   6.067 -0.5437  2.8285 -0.1890
   43CHL1  H19C 4331   1.969   6.238   5.908 -1.6470  0.6051  0.7031
   43CHL1    C1 4332   2.214   6.086   6.103 -0.1691 -0.1790 -0.1935
   43CHL1   H1A 4333   2.200   5.989   6.052 -0.3902 -0.5513  0.5563
   43CHL1   H1B 4334   2.325   6.096   6.103 -0.1330 -0.3643 -1.6182
   43CHL1    C2 4335   2.160   6.063   6.249 -0.1930  0.1716  0.4930
   43CHL1   H2A 4336   2.227   5.989   6.297  2.7295  1.7586 -0.8681
   43CHL1   H2B 4337   2.055   6.026   6.243 -0.0891 -0.2120  0.9858
   43CHL1   C20 4338   2.248   6.261   5.326  0.3310  0.5151  0.3229
   43CHL1   H20 4339   2.139   6.269   5.308  0.2978 -0.6463 -0.0269
   43CHL1   C21 4340   2.292   6.125   5.330  0.1909  0.7645 -0.2842
   43CHL1  H21A 4341   2.306   6.080   5.230  0.2305 -0.5552  0.3045
   43CHL1  H21B 4342   2.218   6.055   5.373  0.9767 -0.8772 -1.5078
   43CHL1  H21C 4343   2.390   6.120   5.382  0.5002  3.1274 -0.5284
   43CHL1   C22 4344   2.316   6.336   5.215 -0.1252 -0.4073  0.1457
   43CHL1  H22A 4345   2.295   6.445   5.221 -0.5076 -0.2533 -2.8816
   43CHL1  H22B 4346   2.426   6.332   5.228  0.0185  2.7225  0.6183
   43CHL1   C23 4347   2.301   6.287   5.068 -0.5912  0.1377 -0.7197
   43CHL1  H23A 4348   2.387   6.231   5.025 -0.4265 -2.2268  2.3322
   43CHL1  H23B 4349   2.213   6.220   5.060 -1.7103  1.1290  2.0853
   43CHL1   C24 4350   2.273   6.415   4.976  0.2992 -0.2297  0.2081
   43CHL1  H24A 4351   2.359   6.481   4.998 -0.2491  0.2115  1.0962
   43CHL1  H24B 4352   2.272   6.379   4.871 -1.6088  0.8351 -0.1750
   43CHL1   C25 4353   2.146   6.502   4.993  0.4117 -0.4188  0.2969
   43CHL1   H25 4354   2.144   6.576   5.076  1.0589  3.0073 -2.5164
   43CHL1   C26 4355   2.115   6.576   4.867 -0.2006 -0.1337  0.9046
   43CHL1  H26A 4356   2.189   6.657   4.845  0.1859 -0.5102  0.8031
   43CHL1  H26B 4357   2.112   6.505   4.782  0.2692  0.1817  0.6160
   43CHL1  H26C 4358   2.017   6.626   4.880 -0.9177 -1.6056  1.3518
   43CHL1   C27 4359   2.028   6.413   5.022  0.6865 -0.2715  0.2910
   43CHL1  H27A 4360   1.943   6.479   5.052  0.4112 -0.3100 -0.3961
   43CHL1  H27B 4361   1.991   6.354   4.936 -2.7395  0.5263  1.0555
   43CHL1  H27C 4362   2.046   6.342   5.106  1.3373  0.1573  0.5242
   44CHL1    C3 4363   0.661   5.068   6.465 -0.1824 -0.4672  0.2849
   44CHL1    H3 4364   0.579   4.993   6.465 -1.8758  1.2977  0.0993
   44CHL1    O3 4365   0.692   5.110   6.600  0.6599 -0.1198  0.2065
   44CHL1   H3' 4366   0.759   5.176   6.583  0.6670 -0.3018 -0.5124
   44CHL1    C4 4367   0.786   4.996   6.397  0.2537 -0.6647 -0.6577
   44CHL1   H4A 4368   0.869   5.070   6.402 -0.7077  0.5994 -2.3882
   44CHL1   H4B 4369   0.821   4.913   6.461  1.5348  0.9385  0.8214
   44CHL1    C5 4370   0.776   4.965   6.249  0.4225  0.0020  0.3015
   44CHL1    C6 4371   0.813   4.848   6.201 -0.6530 -0.2865  0.3797
   44CHL1    H6 4372   0.869   4.780   6.267  0.4177  0.7327  0.5567
   44CHL1    C7 4373   0.798   4.826   6.050 -0.4780 -0.3640  0.0170
   44CHL1   H7A 4374   0.886   4.764   6.024 -0.5056 -1.1720  1.7302
   44CHL1   H7B 4375   0.720   4.750   6.030 -0.1776 -0.4096 -1.0802
   44CHL1    C8 4376   0.766   4.945   5.958 -0.7378 -0.8364  0.1475
   44CHL1    H8 4377   0.860   4.998   5.933 -1.1346 -1.1338 -2.1633
   44CHL1   C14 4378   0.703   4.903   5.821 -0.1136  0.0746  0.6325
   44CHL1   H14 4379   0.605   4.856   5.843  0.6082 -1.2255  1.1758
   44CHL1   C15 4380   0.768   4.789   5.742 -0.3267 -0.6913 -0.5305
   44CHL1  H15A 4381   0.879   4.798   5.740 -0.3357 -0.6651 -1.3695
   44CHL1  H15B 4382   0.743   4.688   5.781 -1.3617 -0.0592  0.5156
   44CHL1   C16 4383   0.719   4.806   5.603  0.2575 -0.7840 -0.5971
   44CHL1  H16A 4384   0.805   4.792   5.535  0.6152 -3.8611  0.3549
   44CHL1  H16B 4385   0.654   4.721   5.574 -0.1150 -0.4022 -0.8990
   44CHL1   C17 4386   0.626   4.931   5.600 -0.2800 -1.2188 -0.4688
   44CHL1   H17 4387   0.525   4.896   5.629 -1.9876  0.2797 -3.9654
   44CHL1   C13 4388   0.676   5.018   5.716 -0.9899  0.1460 -0.2320
   44CHL1   C18 4389   0.806   5.092   5.687  0.0639 -0.1795  0.9118
   44CHL1  H18A 4390   0.792   5.168   5.607 -0.2001 -0.7484  0.4089
   44CHL1  H18B 4391   0.835   5.140   5.783 -1.9910 -0.5547  1.7830
   44CHL1  H18C 4392   0.890   5.021   5.671 -0.5823 -0.6510 -0.5425
   44CHL1   C12 4393   0.571   5.110   5.781  0.4977 -0.2511  0.3131
   44CHL1  H12A 4394   0.548   5.205   5.728  0.5869  0.3810  1.3716
   44CHL1  H12B 4395   0.477   5.052   5.796  0.6663 -1.7616 -3.5202
   44CHL1   C11 4396   0.626   5.158   5.918  0.0506  0.3781 -0.0967
   44CHL1  H11A 4397   0.709   5.229   5.900  1.0572 -1.2127 -2.1298
   44CHL1  H11B 4398   0.554   5.228   5.967 -1.1786 -0.4874 -0.6044
   44CHL1    C9 4399   0.670   5.046   6.019 -0.0415 -0.1900 -0.7546
   44CHL1    H9 4400   0.577   4.991   6.040 -0.4205  0.4945 -0.6046
   44CHL1   C10 4401   0.711   5.084   6.168 -0.4017 -0.3004  0.8108
   44CHL1   C19 4402   0.816   5.192   6.158 -0.4610 -0.4867  0.5724
   44CHL1  H19A 4403   0.769   5.275   6.101  0.3128 -1.3802 -1.4520
   44CHL1  H19B 4404   0.853   5.239   6.252 -0.4006  2.1244 -0.6731
   44CHL1  H19C 4405   0.899   5.149   6.099 -1.7680 -0.0709 -1.6758
   44CHL1    C1 4406   0.578   5.135   6.235 -0.5329  0.2014 -0.5499
   44CHL1   H1A 4407   0.529   5.218   6.180 -1.9038 -0.3408 -0.1903
   44CHL1   H1B 4408   0.497   5.060   6.234 -1.1734  0.8772 -0.2447
   44CHL1    C2 4409   0.600   5.184   6.384  0.2725  0.3728  0.4405
   44CHL1   H2A 4410   0.505   5.214   6.434  0.8089 -0.5930  2.0961
   44CHL1   H2B 4411   0.655   5.280   6.383  0.9288  0.0423  2.2050
   44CHL1   C20 4412   0.619   4.997   5.456 -0.8287 -0.2176 -0.7094
   44CHL1   H20 4413   0.722   5.028   5.431 -1.4550  0.6460 -2.4030
   44CHL1   C21 4414   0.522   5.107   5.466  0.0523  0.8532  0.0881
   44CHL1  H21A 4415   0.555   5.196   5.524  3.0776  0.5971 -1.0900
   44CHL1  H21B 4416   0.423   5.066   5.494 -0.8514 -0.9068 -4.6827
   44CHL1  H21C 4417   0.495   5.149   5.367 -1.1800 -2.3413 -1.0507
   44CHL1   C22 4418   0.555   4.893   5.360 -0.2352  0.1240 -0.1005
   44CHL1  H22A 4419   0.622   4.805   5.356  1.5008  1.3333  0.9918
   44CHL1  H22B 4420   0.450   4.874   5.390  0.2230 -0.1417  1.4063
   44CHL1   C23 4421   0.551   4.930   5.212  0.3883  0.2290  0.6239
   44CHL1  H23A 4422   0.504   5.028   5.191 -2.3907 -1.2997 -1.0572
   44CHL1  H23B 4423   0.656   4.936   5.177  0.1011  0.6913 -0.1952
   44CHL1   C24 4424   0.471   4.820   5.133 -0.1468  0.4278 -0.8413
   44CHL1  H24A 4425   0.498   4.718   5.169  0.0417  1.6873  3.1393
   44CHL1  H24B 4426   0.363   4.841   5.148 -0.4075 -0.8553 -0.8099
   44CHL1   C25 4427   0.492   4.827   4.980  0.1341 -0.1325  0.4466
   44CHL1   H25 4428   0.599   4.818   4.952  0.0740 -0.7492  0.3984
   44CHL1   C26 4429   0.419   4.712   4.909  0.1758  0.9276 -0.1832
   44CHL1  H26A 4430   0.425   4.723   4.798  1.0465 -2.0625 -0.5208
   44CHL1  H26B 4431   0.464   4.613   4.929 -1.3429  0.0087 -1.0859
   44CHL1  H26C 4432   0.316   4.693   4.945  0.8137 -1.8889  0.3779
   44CHL1   C27 4433   0.435   4.956   4.919 -0.3876  0.2647  0.3669
   44CHL1  H27A 4434   0.498   5.034   4.967 -1.1522  1.1547 -0.0359
   44CHL1  H27B 4435   0.457   4.945   4.810  0.2782 -2.6143  0.7212
   44CHL1  H27C 4436   0.329   4.974   4.945  0.2467  0.8596  2.7174
   45CHL1    C3 4437   1.830   0.186   6.041 -0.0008  0.2333  0.3138
   45CHL1    H3 4438   1.760   0.101   6.060 -0.2603  1.0345  3.5088
   45CHL1    O3 4439   1.860   0.233   6.172 -0.6398 -0.1212  0.0270
   45CHL1   H3' 4440   1.954   0.213   6.175 -0.5844 -0.3630 -2.0030
   45CHL1    C4 4441   1.964   0.138   5.974  0.3608 -0.0370  0.2852
   45CHL1   H4A 4442   2.034   0.224   5.974  0.2243  0.0861 -0.5725
   45CHL1   H4B 4443   2.011   0.054   6.030  2.3322  0.5125 -0.4423
   45CHL1    C5 4444   1.935   0.097   5.830 -0.0524  0.0615  1.0522
   45CHL1    C6 4445   1.965  -0.029   5.782  0.7612  0.1270 -0.3318
   45CHL1    H6 4446   2.013  -0.095   5.856  1.0614  2.0354  1.2769
   45CHL1    C7 4447   1.947  -0.086   5.645 -0.5269 -0.8159  0.1563
   45CHL1   H7A 4448   2.042  -0.135   5.617 -0.3556 -0.5967  0.3567
   45CHL1   H7B 4449   1.868  -0.164   5.631 -2.2734  0.3379  2.8685
   45CHL1    C8 4450   1.905   0.033   5.549 -0.1632  0.0366 -0.2041
   45CHL1    H8 4451   1.997   0.088   5.520  0.0403  0.0705  0.4960
   45CHL1   C14 4452   1.849  -0.015   5.421 -0.4553  0.5195  0.5176
   45CHL1   H14 4453   1.761  -0.081   5.439  1.2999 -2.3295 -0.5146
   45CHL1   C15 4454   1.935  -0.123   5.345 -0.6897 -0.0475  0.1119
   45CHL1  H15A 4455   2.040  -0.089   5.334 -0.8427  0.7674  1.0118
   45CHL1  H15B 4456   1.928  -0.225   5.389 -0.9348  0.2199  0.7167
   45CHL1   C16 4457   1.882  -0.118   5.198 -0.0193 -0.0174  0.1130
   45CHL1  H16A 4458   1.965  -0.110   5.126  0.5796  0.8078  0.8636
   45CHL1  H16B 4459   1.816  -0.201   5.164  0.4090  0.0568 -0.9032
   45CHL1   C17 4460   1.781   0.002   5.187  0.3986 -0.5316  0.6925
   45CHL1   H17 4461   1.680  -0.040   5.209  0.5793 -1.7454 -0.6522
   45CHL1   C13 4462   1.816   0.089   5.315  0.8251  0.1728 -0.2071
   45CHL1   C18 4463   1.940   0.179   5.267 -0.8134 -0.5970  0.4171
   45CHL1  H18A 4464   1.912   0.249   5.186 -1.5256 -1.5133 -0.1611
   45CHL1  H18B 4465   1.984   0.235   5.352  2.1833 -0.5919 -1.0014
   45CHL1  H18C 4466   2.021   0.110   5.234  1.2897  2.9076 -2.4097
   45CHL1   C12 4467   1.700   0.178   5.372 -0.5276  0.0692  0.5435
   45CHL1  H12A 4468   1.687   0.260   5.298  2.1100  0.4391  0.4024
   45CHL1  H12B 4469   1.610   0.113   5.382  1.2201 -2.1481  3.3107
   45CHL1   C11 4470   1.749   0.235   5.508  0.0398 -0.0104  0.0915
   45CHL1  H11A 4471   1.829   0.307   5.478 -0.4085  0.4369 -0.0480
   45CHL1  H11B 4472   1.671   0.296   5.558 -1.8646 -0.4527 -2.1618
   45CHL1    C9 4473   1.805   0.130   5.613 -0.2808 -0.2457  0.9634
   45CHL1    H9 4474   1.723   0.059   5.639  0.0109 -0.7344  0.5628
   45CHL1   C10 4475   1.856   0.200   5.737  0.1319 -0.6929  0.0997
   45CHL1   C19 4476   1.949   0.324   5.702 -0.1078  0.1778 -0.3577
   45CHL1  H19A 4477   1.902   0.411   5.651  0.3506 -1.0237 -3.0487
   45CHL1  H19B 4478   2.004   0.371   5.786  2.1586  0.2820 -1.7757
   45CHL1  H19C 4479   2.037   0.304   5.636  1.2498  2.8912  0.4877
   45CHL1    C1 4480   1.732   0.256   5.816 -0.4235  0.0390  0.3255
   45CHL1   H1A 4481   1.689   0.350   5.775  1.6747  1.3340  0.9191
   45CHL1   H1B 4482   1.660   0.172   5.804  0.0239 -0.3025 -0.0549
   45CHL1    C2 4483   1.762   0.297   5.961  0.6520  0.5701  0.3069
   45CHL1   H2A 4484   1.663   0.318   6.006  0.1372  1.6797 -1.2581
   45CHL1   H2B 4485   1.818   0.392   5.970  0.6469  0.4498  1.7442
   45CHL1   C20 4486   1.770   0.062   5.043  0.2461  0.1426  0.7520
   45CHL1   H20 4487   1.865   0.118   5.026  0.2127  0.1722  0.6630
   45CHL1   C21 4488   1.663   0.167   5.033 -0.0129  0.1308  0.3830
   45CHL1  H21A 4489   1.637   0.195   4.929  0.5588 -0.2214  0.1423
   45CHL1  H21B 4490   1.693   0.257   5.092  1.0899 -0.1062  0.2045
   45CHL1  H21C 4491   1.575   0.118   5.080  0.6663 -2.4181 -0.8415
   45CHL1   C22 4492   1.761  -0.043   4.931 -0.0535 -0.6404  0.6800
   45CHL1  H22A 4493   1.835  -0.125   4.942  0.9065  0.1023 -0.0223
   45CHL1  H22B 4494   1.657  -0.082   4.931  0.7957 -3.0694 -0.3123
   45CHL1   C23 4495   1.801   0.004   4.791 -0.1376  0.0299 -0.4728
   45CHL1  H23A 4496   1.720   0.071   4.756 -1.2412 -0.2859  1.3587
   45CHL1  H23B 4497   1.893   0.066   4.802  0.6721 -1.2506  0.2224
   45CHL1   C24 4498   1.827  -0.104   4.691 -0.2984 -0.3070  0.1829
   45CHL1  H24A 4499   1.921  -0.161   4.712 -0.6423 -1.7539 -1.8280
   45CHL1  H24B 4500   1.746  -0.180   4.682 -2.9805  2.4640 -0.4373
   45CHL1   C25 4501   1.845  -0.036   4.549 -0.6954  0.1708  0.1643
   45CHL1   H25 4502   1.913   0.052   4.558 -1.0545  0.4979 -0.2619
   45CHL1   C26 4503   1.911  -0.139   4.457  0.5180  0.0137 -0.1678
   45CHL1  H26A 4504   1.943  -0.105   4.357  2.1701 -0.2102  0.2507
   45CHL1  H26B 4505   1.994  -0.197   4.503 -0.5414 -1.6527 -0.2530
   45CHL1  H26C 4506   1.840  -0.223   4.441  0.6414 -0.5707  2.0096
   45CHL1   C27 4507   1.712   0.008   4.490 -0.0161  0.2150  0.0609
   45CHL1  H27A 4508   1.721   0.038   4.383 -0.7683 -0.1530 -0.1091
   45CHL1  H27B 4509   1.649  -0.083   4.492 -0.2342  0.3691  2.5502
   45CHL1  H27C 4510   1.655   0.095   4.527  1.7136  2.1326 -1.5203
   46CHL1    C3 4511   4.080   1.889   6.019  0.7447 -0.1955  0.4347
   46CHL1    H3 4512   4.143   1.802   5.991  1.3020 -0.1099  1.3924
   46CHL1    O3 4513   4.070   1.881   6.159  0.1505  0.3477 -0.0383
   46CHL1   H3' 4514   4.136   1.946   6.184 -1.8848  1.8559  1.7909
   46CHL1    C4 4515   4.147   2.023   5.979 -0.0297  0.6062  0.0293
   46CHL1   H4A 4516   4.075   2.102   6.008 -0.5258 -0.0406  0.5869
   46CHL1   H4B 4517   4.244   2.035   6.031  0.8451  1.5631 -1.7225
   46CHL1    C5 4518   4.168   2.033   5.833  0.1575 -0.2725  0.8960
   46CHL1    C6 4519   4.296   2.046   5.781 -0.0213 -0.1216  0.5409
   46CHL1    H6 4520   4.384   2.055   5.846  0.5673 -0.2254 -0.2410
   46CHL1    C7 4521   4.324   2.067   5.638  0.2918 -0.5611 -1.2079
   46CHL1   H7A 4522   4.388   2.158   5.636 -1.6807  0.9199 -0.2669
   46CHL1   H7B 4523   4.391   1.984   5.606 -0.9050 -2.1977  0.3155
   46CHL1    C8 4524   4.199   2.088   5.551 -0.8517 -0.3367  0.8460
   46CHL1    H8 4525   4.185   2.197   5.559 -0.8769 -0.3241  0.6343
   46CHL1   C14 4526   4.236   2.049   5.407  0.5365  0.6146  0.4706
   46CHL1   H14 4527   4.250   1.942   5.431 -2.7710  0.0967  0.5155
   46CHL1   C15 4528   4.362   2.105   5.345 -0.4664  0.7862 -0.8867
   46CHL1  H15A 4529   4.375   2.215   5.353  2.6538  0.4846 -0.4155
   46CHL1  H15B 4530   4.447   2.047   5.386  0.4780  0.9181 -2.5691
   46CHL1   C16 4531   4.346   2.061   5.198 -0.0567  0.4154  0.2988
   46CHL1  H16A 4532   4.360   2.153   5.137  2.6328  0.2942  0.6222
   46CHL1  H16B 4533   4.426   1.999   5.155 -1.4915  0.3661 -2.5160
   46CHL1   C17 4534   4.201   1.990   5.183 -0.5772 -0.1725 -0.0374
   46CHL1   H17 4535   4.223   1.883   5.205 -0.6755 -0.3762 -0.8943
   46CHL1   C13 4536   4.125   2.045   5.300  0.4383 -0.1063 -0.8015
   46CHL1   C18 4537   4.080   2.190   5.288  0.9635 -0.3113 -0.1533
   46CHL1  H18A 4538   4.156   2.253   5.238  0.8447  0.0526  0.1237
   46CHL1  H18B 4539   3.995   2.195   5.217  1.1608 -0.2185 -0.3851
   46CHL1  H18C 4540   4.047   2.246   5.378 -0.6457 -0.3265 -0.7042
   46CHL1   C12 4541   4.006   1.958   5.343  0.2054 -0.6686 -0.6942
   46CHL1  H12A 4542   3.920   1.972   5.275 -0.4175 -1.9130 -0.2017
   46CHL1  H12B 4543   4.035   1.851   5.333  0.6895 -0.5838 -0.2731
   46CHL1   C11 4544   3.967   1.991   5.490 -0.0959  0.4866 -1.2664
   46CHL1  H11A 4545   3.914   2.088   5.479 -0.5362  0.2600 -1.1367
   46CHL1  H11B 4546   3.890   1.918   5.523 -1.1955  2.7062  1.4935
   46CHL1    C9 4547   4.078   2.000   5.599 -0.4601  0.2929  0.4263
   46CHL1    H9 4548   4.122   1.898   5.590 -0.7306  0.1273  0.9540
   46CHL1   C10 4549   4.039   2.018   5.750  0.5466  0.1451  0.2772
   46CHL1   C19 4550   3.955   2.146   5.772 -0.5787 -0.1068  0.2336
   46CHL1  H19A 4551   3.930   2.162   5.880 -2.2006  1.0836 -0.2793
   46CHL1  H19B 4552   4.014   2.236   5.744  0.3622 -0.9925 -0.7506
   46CHL1  H19C 4553   3.863   2.148   5.710  0.7003  0.5358 -1.7305
   46CHL1    C1 4554   3.966   1.896   5.799 -0.1887 -0.4661  0.1306
   46CHL1   H1A 4555   3.869   1.899   5.744  0.8127 -2.7214 -1.9096
   46CHL1   H1B 4556   4.015   1.803   5.764  1.5091  1.2259 -2.2282
   46CHL1    C2 4557   3.942   1.877   5.949 -0.0638 -0.3591 -0.6377
   46CHL1   H2A 4558   3.905   1.775   5.971 -2.1512 -0.1836 -2.8668
   46CHL1   H2B 4559   3.868   1.951   5.987 -0.4066 -0.1231 -1.7467
   46CHL1   C20 4560   4.128   1.994   5.041 -0.4555  0.6865 -0.6861
   46CHL1   H20 4561   4.020   1.970   5.052  0.0076 -0.2184  2.9815
   46CHL1   C21 4562   4.193   1.885   4.957 -0.2099  1.1979 -0.1946
   46CHL1  H21A 4563   4.146   1.885   4.856  2.1034  0.5517 -1.3489
   46CHL1  H21B 4564   4.197   1.791   5.016  1.2870  0.8516 -0.8142
   46CHL1  H21C 4565   4.298   1.906   4.929  0.9398 -1.9187  1.3133
   46CHL1   C22 4566   4.146   2.130   4.971 -0.9068  0.0165 -0.8420
   46CHL1  H22A 4567   4.162   2.219   5.035 -1.0456 -0.8287  0.4118
   46CHL1  H22B 4568   4.240   2.118   4.914  0.6237  2.3425  0.9980
   46CHL1   C23 4569   4.031   2.156   4.873  0.2783 -1.1407 -0.5116
   46CHL1  H23A 4570   4.015   2.068   4.808 -1.2688 -1.9217  0.8839
   46CHL1  H23B 4571   3.938   2.155   4.933  0.1603 -0.3436 -0.6586
   46CHL1   C24 4572   4.057   2.286   4.794 -0.1118  0.0727  0.3439
   46CHL1  H24A 4573   4.034   2.373   4.859  0.0013  1.0774 -0.9089
   46CHL1  H24B 4574   4.163   2.299   4.763 -0.0975 -0.0330  0.3481
   46CHL1   C25 4575   3.966   2.297   4.669  1.1516  0.1425  0.0413
   46CHL1   H25 4576   3.865   2.253   4.682  1.1328 -0.0017 -0.5648
   46CHL1   C26 4577   3.937   2.442   4.629 -0.3691 -0.3308 -1.0563
   46CHL1  H26A 4578   4.032   2.497   4.611 -0.6106  0.3923 -0.1762
   46CHL1  H26B 4579   3.860   2.446   4.548 -1.8608 -0.0581  0.3301
   46CHL1  H26C 4580   3.891   2.495   4.715  0.8496  0.0415 -0.6144
   46CHL1   C27 4581   4.038   2.233   4.545  0.3683 -0.0760  0.3153
   46CHL1  H27A 4582   4.131   2.284   4.513 -0.5773  0.5203 -1.5775
   46CHL1  H27B 4583   4.060   2.127   4.570 -1.4161 -0.3840  0.6975
   46CHL1  H27C 4584   3.976   2.237   4.454  0.9299  1.6279 -0.0231
   47CHL1    C3 4585   5.575   3.273   6.422 -0.0948 -0.8017  0.3648
   47CHL1    H3 4586   5.554   3.382   6.426 -0.9158 -0.8966 -0.8449
   47CHL1    O3 4587   5.576   3.221   6.560  0.1506 -0.6778  0.0533
   47CHL1   H3' 4588   5.638   3.281   6.602 -2.4792  1.1873  1.5897
   47CHL1    C4 4589   5.465   3.209   6.336  0.0236  1.1319  0.4471
   47CHL1   H4A 4590   5.486   3.100   6.350 -2.3028  0.6383  0.6223
   47CHL1   H4B 4591   5.366   3.234   6.379 -1.2620  0.3506 -1.8828
   47CHL1    C5 4592   5.466   3.238   6.183 -0.5488 -0.3070 -0.0318
   47CHL1    C6 4593   5.356   3.275   6.117 -0.3015 -0.2991 -0.1934
   47CHL1    H6 4594   5.259   3.281   6.168 -1.1396  1.9241 -1.8398
   47CHL1    C7 4595   5.355   3.298   5.970 -0.3052  0.5654  0.4094
   47CHL1   H7A 4596   5.266   3.252   5.922  0.1252  0.4480 -0.2955
   47CHL1   H7B 4597   5.354   3.406   5.943  0.1139  0.1344 -1.5024
   47CHL1    C8 4598   5.486   3.246   5.901  0.6155  0.1180  0.4076
   47CHL1    H8 4599   5.484   3.137   5.881 -1.0025  0.2812 -0.4756
   47CHL1   C14 4600   5.497   3.307   5.768  0.1628  0.0219  0.1040
   47CHL1   H14 4601   5.488   3.418   5.770  0.3482  0.0290  0.9924
   47CHL1   C15 4602   5.379   3.262   5.677  0.4427 -0.5090  0.1198
   47CHL1  H15A 4603   5.374   3.154   5.701  1.3798 -0.0617  2.7357
   47CHL1  H15B 4604   5.290   3.325   5.698  0.2276 -0.6771 -0.2880
   47CHL1   C16 4605   5.437   3.301   5.536 -0.1152 -0.7233 -0.1869
   47CHL1  H16A 4606   5.435   3.204   5.481  1.6331 -0.1357 -1.3410
   47CHL1  H16B 4607   5.373   3.374   5.482  2.0099  0.8615 -0.6518
   47CHL1   C17 4608   5.581   3.354   5.554 -0.2803 -0.0344 -0.7331
   47CHL1   H17 4609   5.572   3.461   5.582 -2.0504 -0.6983  1.5923
   47CHL1   C13 4610   5.621   3.278   5.690 -0.0363  0.0244 -0.0125
   47CHL1   C18 4611   5.642   3.121   5.657 -0.0825  0.1197  0.4664
   47CHL1  H18A 4612   5.743   3.103   5.615 -0.7227 -1.4593 -0.5219
   47CHL1  H18B 4613   5.640   3.066   5.754  1.4769 -0.2608  0.3131
   47CHL1  H18C 4614   5.565   3.082   5.587  0.5759  0.9959 -0.7656
   47CHL1   C12 4615   5.749   3.327   5.767  0.0489 -0.1970  0.2343
   47CHL1  H12A 4616   5.845   3.289   5.726 -1.1686 -0.4472 -2.5821
   47CHL1  H12B 4617   5.753   3.436   5.788  0.6375 -0.0357 -0.6446
   47CHL1   C11 4618   5.746   3.259   5.908  0.9631 -0.4271 -0.2343
   47CHL1  H11A 4619   5.757   3.149   5.908  0.0181 -0.6102  2.8103
   47CHL1  H11B 4620   5.829   3.297   5.971  0.6991 -1.9738  1.0988
   47CHL1    C9 4621   5.611   3.287   5.983  0.2014  0.5109  0.2173
   47CHL1    H9 4622   5.613   3.397   6.000  0.0132  0.4314  0.7896
   47CHL1   C10 4623   5.603   3.222   6.124  0.9395  1.0783  0.6028
   47CHL1   C19 4624   5.632   3.074   6.119 -0.3830  0.0702  0.2002
   47CHL1  H19A 4625   5.573   3.016   6.045 -1.4408  0.2220  0.9037
   47CHL1  H19B 4626   5.738   3.050   6.094 -0.0132  0.1310  1.6078
   47CHL1  H19C 4627   5.609   3.024   6.216  0.2227  0.2014  0.4217
   47CHL1    C1 4628   5.698   3.289   6.217 -0.7134 -0.7298  0.0378
   47CHL1   H1A 4629   5.802   3.269   6.181 -0.7135 -0.4317 -0.1308
   47CHL1   H1B 4630   5.678   3.398   6.203 -1.1723 -0.7606  0.4698
   47CHL1    C2 4631   5.706   3.249   6.361 -0.2435  0.4179  0.8454
   47CHL1   H2A 4632   5.777   3.308   6.422 -1.5773  0.7848  2.0921
   47CHL1   H2B 4633   5.722   3.139   6.367 -1.1744  0.3167  1.6422
   47CHL1   C20 4634   5.663   3.319   5.434  0.6166  0.4659  0.1355
   47CHL1   H20 4635   5.673   3.209   5.423 -0.2235  0.5215 -1.5648
   47CHL1   C21 4636   5.803   3.379   5.455 -0.4211 -0.2422 -0.0807
   47CHL1  H21A 4637   5.868   3.314   5.518  0.5875 -0.0904 -0.9395
   47CHL1  H21B 4638   5.806   3.480   5.500  0.8516 -0.4563  0.3697
   47CHL1  H21C 4639   5.845   3.391   5.353  0.8370  3.4851  0.7017
   47CHL1   C22 4640   5.611   3.364   5.295  0.2219 -0.0438  0.0072
   47CHL1  H22A 4641   5.675   3.336   5.208 -1.3912 -0.1607 -1.1949
   47CHL1  H22B 4642   5.522   3.305   5.264 -0.9807  1.4689  0.4615
   47CHL1   C23 4643   5.585   3.515   5.284 -0.4485  0.1187  0.4968
   47CHL1  H23A 4644   5.501   3.554   5.345 -1.1671  0.3361 -0.5975
   47CHL1  H23B 4645   5.670   3.573   5.325 -1.2387  0.0173  2.3668
   47CHL1   C24 4646   5.574   3.566   5.140  0.2210  0.4483  0.4417
   47CHL1  H24A 4647   5.566   3.676   5.153  1.2420  0.5595  0.2367
   47CHL1  H24B 4648   5.664   3.546   5.078 -0.8517  1.4322 -1.5317
   47CHL1   C25 4649   5.458   3.506   5.066  0.1581 -0.5149 -0.2938
   47CHL1   H25 4650   5.472   3.396   5.062  0.7786 -0.4222 -3.2108
   47CHL1   C26 4651   5.322   3.541   5.130  0.2543 -0.2680 -0.3813
   47CHL1  H26A 4652   5.316   3.651   5.142  2.8564  0.3887 -3.5650
   47CHL1  H26B 4653   5.247   3.510   5.055 -0.2600 -0.2731  0.1302
   47CHL1  H26C 4654   5.308   3.496   5.231  1.2614 -0.6242 -0.3830
   47CHL1   C27 4655   5.464   3.543   4.914 -0.4274  0.0670 -0.5063
   47CHL1  H27A 4656   5.457   3.654   4.906  3.3692  0.7125  2.1338
   47CHL1  H27B 4657   5.565   3.519   4.876 -0.1213  1.5407 -0.6917
   47CHL1  H27C 4658   5.384   3.499   4.851  0.6569 -0.1039 -1.7980
   48CHL1    C3 4659   3.431   3.161   6.441  0.6623  0.7277  0.2286
   48CHL1    H3 4660   3.539   3.187   6.437  0.9419 -0.4975 -0.6623
   48CHL1    O3 4661   3.370   3.154   6.571 -0.9395 -0.2561 -0.1497
   48CHL1   H3' 4662   3.276   3.170   6.560 -0.8592 -0.5576 -1.4707
   48CHL1    C4 4663   3.358   3.271   6.362 -0.4244  0.2191  0.3881
   48CHL1   H4A 4664   3.248   3.257   6.370 -0.2836 -2.1383 -0.9739
   48CHL1   H4B 4665   3.371   3.362   6.425 -1.7599 -0.4416  1.6748
   48CHL1    C5 4666   3.407   3.295   6.225  0.8537  0.5177 -0.1109
   48CHL1    C6 4667   3.471   3.407   6.185 -0.2047 -0.4122 -0.4001
   48CHL1    H6 4668   3.482   3.488   6.258 -0.6899  0.8132 -1.6298
   48CHL1    C7 4669   3.520   3.448   6.053  0.5545 -0.0310 -0.3662
   48CHL1   H7A 4670   3.490   3.553   6.031 -0.5491 -0.3577 -0.5191
   48CHL1   H7B 4671   3.630   3.441   6.059  0.6936  1.9423  0.0570
   48CHL1    C8 4672   3.453   3.346   5.949 -0.5256  0.2304 -0.4817
   48CHL1    H8 4673   3.348   3.380   5.935 -0.4868  0.6125  0.1200
   48CHL1   C14 4674   3.536   3.353   5.820  0.4288  0.0677 -0.0164
   48CHL1   H14 4675   3.632   3.307   5.851 -0.4293 -2.1430 -0.4198
   48CHL1   C15 4676   3.570   3.493   5.765  0.9726 -0.0171 -0.0454
   48CHL1  H15A 4677   3.480   3.556   5.780  0.4351 -0.4417 -1.3345
   48CHL1  H15B 4678   3.665   3.527   5.812  1.0642 -0.3499  0.0120
   48CHL1   C16 4679   3.589   3.464   5.610 -0.6512  0.1662 -0.8510
   48CHL1  H16A 4680   3.523   3.535   5.555 -0.3963  3.0972  2.3055
   48CHL1  H16B 4681   3.691   3.494   5.579 -0.6048 -1.2221 -2.1830
   48CHL1   C17 4682   3.566   3.314   5.584  0.1153 -0.2289 -0.2239
   48CHL1   H17 4683   3.672   3.282   5.588  0.6813  0.5534 -4.2415
   48CHL1   C13 4684   3.479   3.272   5.706  0.4498  0.2963  0.3414
   48CHL1   C18 4685   3.328   3.314   5.672  0.3783  0.2960  0.5713
   48CHL1  H18A 4686   3.299   3.241   5.593  0.1828  0.8307  0.1489
   48CHL1  H18B 4687   3.273   3.308   5.769  1.9533  0.4574  1.5094
   48CHL1  H18C 4688   3.336   3.415   5.626  2.0725 -0.3009 -0.5367
   48CHL1   C12 4689   3.482   3.114   5.745 -0.3013 -0.8855 -0.3344
   48CHL1  H12A 4690   3.425   3.046   5.678  0.1095 -0.1072 -1.5085
   48CHL1  H12B 4691   3.588   3.086   5.764 -0.2420 -1.0703 -0.9004
   48CHL1   C11 4692   3.408   3.107   5.883  0.1850  0.4335  0.8240
   48CHL1  H11A 4693   3.301   3.125   5.861  0.9485  1.7357 -2.4759
   48CHL1  H11B 4694   3.419   3.003   5.919 -0.3705  0.7229  1.8755
   48CHL1    C9 4695   3.451   3.198   5.999  0.1233 -0.2441  0.6923
   48CHL1    H9 4696   3.555   3.165   6.019 -0.1436 -0.9608  0.9258
   48CHL1   C10 4697   3.377   3.180   6.134 -0.1335  0.4718  0.9970
   48CHL1   C19 4698   3.223   3.176   6.112 -0.0231  1.0121  0.2429
   48CHL1  H19A 4699   3.193   3.275   6.072  2.0669  1.4823 -0.2914
   48CHL1  H19B 4700   3.183   3.102   6.039  1.6054 -1.0885  1.3693
   48CHL1  H19C 4701   3.180   3.133   6.205  2.1041 -4.5044 -0.8867
   48CHL1    C1 4702   3.432   3.048   6.203  0.1355 -0.2389 -0.4081
   48CHL1   H1A 4703   3.365   2.968   6.163 -1.3248  1.4918 -1.5862
   48CHL1   H1B 4704   3.538   3.028   6.179 -0.0957 -0.8488 -0.9629
   48CHL1    C2 4705   3.406   3.038   6.362  0.4032 -0.0117  0.0831
   48CHL1   H2A 4706   3.450   2.944   6.404  0.6466  0.4160  0.8021
   48CHL1   H2B 4707   3.296   3.028   6.367  0.4339  0.0244  1.0410
   48CHL1   C20 4708   3.521   3.290   5.439 -0.3429 -0.7014 -0.4840
   48CHL1   H20 4709   3.422   3.338   5.429 -0.4634  0.4172  4.1236
   48CHL1   C21 4710   3.499   3.143   5.423 -0.3234 -0.3515 -0.1128
   48CHL1  H21A 4711   3.571   3.075   5.473 -1.8110 -0.2656  2.3243
   48CHL1  H21B 4712   3.395   3.115   5.453 -0.2038 -0.9738 -0.2628
   48CHL1  H21C 4713   3.502   3.114   5.316  0.5610 -0.0095 -0.1872
   48CHL1   C22 4714   3.628   3.339   5.335  0.5641 -1.0632 -0.0417
   48CHL1  H22A 4715   3.670   3.437   5.365 -1.1201 -0.4209  0.3316
   48CHL1  H22B 4716   3.714   3.268   5.341  2.1095  0.6784 -0.5738
   48CHL1   C23 4717   3.563   3.357   5.194  0.4277 -0.0115 -0.3244
   48CHL1  H23A 4718   3.515   3.263   5.161  1.1518 -0.4048 -0.2678
   48CHL1  H23B 4719   3.477   3.427   5.205  0.6837  0.1109  0.9704
   48CHL1   C24 4720   3.661   3.408   5.094  0.7774  0.5064  0.3923
   48CHL1  H24A 4721   3.679   3.517   5.092  0.4537  0.5636 -1.8419
   48CHL1  H24B 4722   3.758   3.357   5.115  0.1204 -0.7064  0.5793
   48CHL1   C25 4723   3.627   3.365   4.949 -0.2593 -0.6308 -0.3349
   48CHL1   H25 4724   3.606   3.258   4.929 -0.2755 -0.6271 -0.3372
   48CHL1   C26 4725   3.501   3.443   4.902  0.3384  0.0339 -0.4475
   48CHL1  H26A 4726   3.495   3.434   4.791  2.0691 -0.5926 -0.5225
   48CHL1  H26B 4727   3.413   3.394   4.949 -0.4116  0.9742 -0.8317
   48CHL1  H26C 4728   3.491   3.551   4.927 -0.3268 -0.5266  1.9869
   48CHL1   C27 4729   3.743   3.404   4.859  0.5186  0.6265 -0.1427
   48CHL1  H27A 4730   3.717   3.380   4.754 -1.1101 -1.2467  0.6142
   48CHL1  H27B 4731   3.757   3.514   4.852  0.4098  0.6951  0.6463
   48CHL1  H27C 4732   3.846   3.372   4.886  0.7233  1.2854 -0.1295
   49CHL1    C3 4733   5.444   5.666   3.017  0.5039 -0.2784  0.3746
   49CHL1    H3 4734   5.554   5.672   3.029  0.6764 -1.0098 -0.6570
   49CHL1    O3 4735   5.425   5.657   2.879  0.3846  0.2154 -0.2529
   49CHL1   H3' 4736   5.332   5.634   2.879  0.4534 -0.5312  2.7357
   49CHL1    C4 4737   5.390   5.540   3.084 -0.3616  0.0106 -0.2105
   49CHL1   H4A 4738   5.281   5.531   3.063 -0.3721  0.3621 -0.3061
   49CHL1   H4B 4739   5.429   5.443   3.046  1.4545 -0.3358  2.3007
   49CHL1    C5 4740   5.406   5.545   3.234 -0.1492  0.0048  0.1920
   49CHL1    C6 4741   5.452   5.440   3.305  0.8072 -0.7604  0.1850
   49CHL1    H6 4742   5.483   5.348   3.254 -1.2797 -1.8479  0.7485
   49CHL1    C7 4743   5.463   5.445   3.452 -0.1957  0.0944  0.6651
   49CHL1   H7A 4744   5.429   5.347   3.491  1.2462 -1.9941 -2.8576
   49CHL1   H7B 4745   5.573   5.444   3.467 -0.2526 -0.7586  1.0600
   49CHL1    C8 4746   5.406   5.561   3.527 -0.1379 -0.2526  0.0533
   49CHL1    H8 4747   5.296   5.552   3.515 -0.3388  0.3997  1.2683
   49CHL1   C14 4748   5.450   5.568   3.666 -0.1164 -0.2862 -0.1516
   49CHL1   H14 4749   5.559   5.582   3.648 -0.4343  0.0347 -2.0257
   49CHL1   C15 4750   5.428   5.442   3.756  0.4512  0.3448  0.1604
   49CHL1  H15A 4751   5.333   5.391   3.729  1.2496 -0.7557 -0.6766
   49CHL1  H15B 4752   5.508   5.368   3.734 -0.3522  0.0988 -2.1461
   49CHL1   C16 4753   5.419   5.505   3.895  0.0910  0.4849  0.0804
   49CHL1  H16A 4754   5.313   5.490   3.926  0.1779  0.5714  0.4251
   49CHL1  H16B 4755   5.485   5.446   3.962 -0.3974  0.0272  0.1701
   49CHL1   C17 4756   5.460   5.652   3.877  0.0960 -0.9318 -0.4849
   49CHL1   H17 4757   5.570   5.654   3.863  0.1303  1.0994 -0.2324
   49CHL1   C13 4758   5.402   5.689   3.743  0.0731  0.2128  1.2486
   49CHL1   C18 4759   5.245   5.697   3.752  0.9478  0.3854  0.1298
   49CHL1  H18A 4760   5.201   5.616   3.814 -0.6016 -0.5836 -2.1065
   49CHL1  H18B 4761   5.220   5.794   3.800  2.9054  1.0627 -0.1309
   49CHL1  H18C 4762   5.204   5.696   3.649  0.0079  1.4888  0.4732
   49CHL1   C12 4763   5.451   5.810   3.673  0.5795 -0.1934  0.2374
   49CHL1  H12A 4764   5.405   5.898   3.723 -2.1674 -0.9890 -0.7260
   49CHL1  H12B 4765   5.561   5.808   3.660  0.5382  2.0637 -1.0864
   49CHL1   C11 4766   5.404   5.814   3.526 -0.1263  0.2069 -0.0365
   49CHL1  H11A 4767   5.295   5.834   3.521 -0.5969 -2.2366 -2.7202
   49CHL1  H11B 4768   5.455   5.897   3.473  0.2067 -0.9878 -1.6717
   49CHL1    C9 4769   5.437   5.686   3.448  0.2994  0.0589  0.1555
   49CHL1    H9 4770   5.548   5.691   3.440  0.2297  0.4102 -0.7245
   49CHL1   C10 4771   5.376   5.682   3.304 -0.3036 -0.0509  0.8125
   49CHL1   C19 4772   5.220   5.678   3.310  0.0800 -1.1543  0.2558
   49CHL1  H19A 4773   5.178   5.585   3.354 -1.7764  0.3736  1.9004
   49CHL1  H19B 4774   5.172   5.764   3.361 -1.2666 -2.0033  0.4581
   49CHL1  H19C 4775   5.179   5.689   3.207  0.5029  1.4108  0.2981
   49CHL1    C1 4776   5.428   5.804   3.224 -0.0475  0.2968 -0.0643
   49CHL1   H1A 4777   5.394   5.901   3.268 -0.0941 -0.3637  1.4264
   49CHL1   H1B 4778   5.539   5.813   3.225  0.0085  0.2802  2.8805
   49CHL1    C2 4779   5.385   5.800   3.073  0.4760  0.5160 -0.1756
   49CHL1   H2A 4780   5.431   5.889   3.025 -0.2270  0.6547 -0.6034
   49CHL1   H2B 4781   5.275   5.810   3.062  0.2006 -1.3082  0.5314
   49CHL1   C20 4782   5.424   5.741   4.005 -0.4966 -0.2474 -0.0798
   49CHL1   H20 4783   5.322   5.706   4.031 -0.7941 -1.3840 -2.4858
   49CHL1   C21 4784   5.427   5.891   3.975 -0.6467 -0.6466 -0.0405
   49CHL1  H21A 4785   5.517   5.930   3.923  0.7634 -3.7301 -0.1645
   49CHL1  H21B 4786   5.415   5.949   4.069  0.1490  1.0641 -0.9381
   49CHL1  H21C 4787   5.338   5.921   3.916  0.5165  0.7948 -1.1410
   49CHL1   C22 4788   5.524   5.705   4.117 -0.0507  0.0666  0.3172
   49CHL1  H22A 4789   5.510   5.597   4.138 -0.0216 -0.1894 -0.9393
   49CHL1  H22B 4790   5.622   5.733   4.073 -1.1505 -0.2354 -2.5318
   49CHL1   C23 4791   5.504   5.780   4.246  0.2445 -0.2403 -0.1012
   49CHL1  H23A 4792   5.537   5.884   4.223  1.5109 -0.7829 -0.8555
   49CHL1  H23B 4793   5.394   5.782   4.264  0.1590 -1.7772 -0.3095
   49CHL1   C24 4794   5.587   5.720   4.360  0.1567 -0.1187 -0.8080
   49CHL1  H24A 4795   5.547   5.620   4.389  0.2226  0.0062 -0.2812
   49CHL1  H24B 4796   5.694   5.698   4.339  0.4801  1.3308 -0.7627
   49CHL1   C25 4797   5.590   5.805   4.495  0.4337 -0.0157 -0.0526
   49CHL1   H25 4798   5.648   5.898   4.479 -2.4892  1.6070 -2.0947
   49CHL1   C26 4799   5.450   5.844   4.540 -0.5236 -0.6282 -0.2189
   49CHL1  H26A 4800   5.395   5.751   4.567 -0.7275 -0.4805 -0.1247
   49CHL1  H26B 4801   5.443   5.907   4.631  1.1494 -0.2162 -0.3571
   49CHL1  H26C 4802   5.400   5.898   4.456 -1.8541 -1.6881 -0.1549
   49CHL1   C27 4803   5.656   5.727   4.610  0.7597  0.0460  0.1307
   49CHL1  H27A 4804   5.760   5.718   4.574  0.9995 -0.3158  0.9093
   49CHL1  H27B 4805   5.661   5.783   4.706  0.8575 -0.5437  0.4749
   49CHL1  H27C 4806   5.614   5.626   4.626  1.8089 -0.2239  1.2834
   50CHL1    C3 4807   4.899   0.254   3.061 -0.3849 -0.5200 -0.1177
   50CHL1    H3 4808   4.794   0.220   3.055 -0.2288 -0.7747 -2.9083
   50CHL1    O3 4809   4.943   0.319   2.939 -0.0936 -0.3519  0.1384
   50CHL1   H3' 4810   4.867   0.361   2.898  0.1655  0.8125  0.8091
   50CHL1    C4 4811   4.917   0.357   3.164 -0.1709 -0.7274  0.3975
   50CHL1   H4A 4812   5.023   0.392   3.162  0.3630 -2.1755  1.6154
   50CHL1   H4B 4813   4.860   0.450   3.142  0.8864  0.7574  3.3338
   50CHL1    C5 4814   4.901   0.299   3.303 -0.1689  0.5421  0.1371
   50CHL1    C6 4815   4.820   0.355   3.385  0.0144  0.1818  0.2465
   50CHL1    H6 4816   4.756   0.439   3.355 -1.3954 -0.5250  1.1791
   50CHL1    C7 4817   4.803   0.322   3.528 -0.1350 -0.0941 -0.2192
   50CHL1   H7A 4818   4.802   0.419   3.581  1.0444  0.7559 -1.6633
   50CHL1   H7B 4819   4.704   0.280   3.556 -0.3413  0.3395 -0.2903
   50CHL1    C8 4820   4.922   0.234   3.576  0.1310  1.0440  0.3915
   50CHL1    H8 4821   5.009   0.303   3.586  0.6339  0.6674 -1.0628
   50CHL1   C14 4822   4.889   0.162   3.704  0.1350 -0.0141 -0.7043
   50CHL1   H14 4823   4.803   0.098   3.673 -0.1453  0.3451 -0.6798
   50CHL1   C15 4824   4.845   0.254   3.820 -0.3684 -0.3057  0.1657
   50CHL1  H15A 4825   4.903   0.349   3.815 -2.8971  1.3614  0.8298
   50CHL1  H15B 4826   4.739   0.284   3.812 -0.0980  0.5947 -0.1974
   50CHL1   C16 4827   4.879   0.168   3.947 -0.2675  0.2583 -0.0793
   50CHL1  H16A 4828   4.964   0.227   3.990 -0.6070  1.1366 -0.5837
   50CHL1  H16B 4829   4.802   0.153   4.026 -1.1296  1.2336 -0.7078
   50CHL1   C17 4830   4.931   0.032   3.901  0.3692  0.2057  0.2482
   50CHL1   H17 4831   4.844  -0.030   3.870 -0.1301  1.3296 -0.6905
   50CHL1   C13 4832   4.994   0.073   3.770  0.0917  1.6296  0.4226
   50CHL1   C18 4833   5.125   0.160   3.783  0.3665  0.2515  0.7243
   50CHL1  H18A 4834   5.178   0.190   3.690  0.2640  0.9173  0.8715
   50CHL1  H18B 4835   5.107   0.262   3.824 -1.3865  0.6026 -0.8248
   50CHL1  H18C 4836   5.207   0.107   3.836 -1.4070 -1.8648  1.4945
   50CHL1   C12 4837   5.021  -0.050   3.674  0.3414 -0.0282  0.4006
   50CHL1  H12A 4838   5.110  -0.110   3.701 -0.1863 -1.9985 -1.9684
   50CHL1  H12B 4839   4.933  -0.117   3.666 -0.3118  0.8197  0.2977
   50CHL1   C11 4840   5.050   0.002   3.529  0.0371 -0.1594  0.5921
   50CHL1  H11A 4841   5.149   0.051   3.527  0.3784 -0.8341  0.6710
   50CHL1  H11B 4842   5.053  -0.086   3.462 -0.8435  0.1757  0.0974
   50CHL1    C9 4843   4.954   0.122   3.481 -0.6684  0.5233  0.7549
   50CHL1    H9 4844   4.859   0.067   3.463  0.0904 -0.2610 -1.2354
   50CHL1   C10 4845   4.991   0.173   3.334  0.5084  0.0242 -0.6395
   50CHL1   C19 4846   5.142   0.216   3.326 -0.1171  1.3952 -0.1370
   50CHL1  H19A 4847   5.193   0.119   3.343  0.4841  1.6589 -0.3874
   50CHL1  H19B 4848   5.164   0.261   3.226 -1.0412 -0.0011 -0.9977
   50CHL1  H19C 4849   5.168   0.281   3.411  3.5600  0.6233 -0.4661
   50CHL1    C1 4850   4.964   0.069   3.223  0.4911 -0.4589 -0.3262
   50CHL1   H1A 4851   5.025  -0.023   3.233 -0.8762 -1.4758 -1.0502
   50CHL1   H1B 4852   4.856   0.042   3.233  0.7060 -1.0267  0.5832
   50CHL1    C2 4853   4.984   0.128   3.082  0.2666  1.0225 -0.3832
   50CHL1   H2A 4854   4.958   0.048   3.010 -3.1271 -0.0502  1.7868
   50CHL1   H2B 4855   5.092   0.149   3.065  0.8508 -1.5499 -0.2422
   50CHL1   C20 4856   5.016  -0.055   3.995  0.1416 -0.7615  0.0418
   50CHL1   H20 4857   5.125  -0.031   3.986  0.3780 -0.9493  1.9607
   50CHL1   C21 4858   4.991  -0.201   3.973 -0.6542 -0.3300  0.3038
   50CHL1  H21A 4859   5.071  -0.255   4.028  2.1235  0.4438 -2.6543
   50CHL1  H21B 4860   5.006  -0.236   3.869 -2.4771  0.2861 -0.1967
   50CHL1  H21C 4861   4.889  -0.228   4.008 -1.5258  0.2043 -1.6762
   50CHL1   C22 4862   4.984  -0.030   4.146  0.2937  0.8311 -0.3003
   50CHL1  H22A 4863   4.985   0.080   4.161 -0.6221  0.7673  0.3289
   50CHL1  H22B 4864   4.885  -0.073   4.172  1.1292 -0.3490  1.0355
   50CHL1   C23 4865   5.070  -0.093   4.253 -0.4994  0.0837 -0.2370
   50CHL1  H23A 4866   5.075  -0.204   4.255  0.6999  0.0052 -3.1677
   50CHL1  H23B 4867   5.172  -0.051   4.244 -0.2999 -0.4503 -0.5161
   50CHL1   C24 4868   5.032  -0.035   4.386  0.0870  0.0415  0.2443
   50CHL1  H24A 4869   5.055   0.073   4.395 -1.8555  0.4794  0.3072
   50CHL1  H24B 4870   4.925  -0.061   4.402  0.0877 -2.5679 -3.0547
   50CHL1   C25 4871   5.107  -0.100   4.505  0.2416  0.0614  0.5422
   50CHL1   H25 4872   5.065  -0.057   4.599 -0.1745 -0.9444  0.8272
   50CHL1   C26 4873   5.072  -0.249   4.504 -0.0395 -0.4023  0.2514
   50CHL1  H26A 4874   5.120  -0.306   4.422 -0.9217 -1.2634  0.3047
   50CHL1  H26B 4875   5.107  -0.288   4.603 -0.4731  0.0418  0.5829
   50CHL1  H26C 4876   4.962  -0.263   4.499  0.1273 -1.6438 -0.3510
   50CHL1   C27 4877   5.258  -0.075   4.498  0.2213 -0.0934  0.8099
   50CHL1  H27A 4878   5.271   0.033   4.479 -2.8560  0.1845 -0.3549
   50CHL1  H27B 4879   5.319  -0.115   4.581  0.2442 -0.7923  0.4633
   50CHL1  H27C 4880   5.292  -0.143   4.417 -1.5437  0.2472 -0.2840
   51CHL1    C3 4881   5.966   5.796   3.137  0.4585  0.3263 -0.4632
   51CHL1    H3 4882   6.017   5.894   3.129  1.3791  0.1225  2.1356
   51CHL1    O3 4883   5.932   5.743   3.010 -0.3814 -0.3790 -0.0292
   51CHL1   H3' 4884   5.878   5.665   3.023 -1.1221  0.0729 -0.3278
   51CHL1    C4 4885   6.061   5.699   3.210 -0.2553  0.5307  0.2728
   51CHL1   H4A 4886   6.009   5.602   3.204 -0.4182  0.6829 -3.0260
   51CHL1   H4B 4887   6.162   5.686   3.163 -0.0922  3.2162 -0.3000
   51CHL1    C5 4888   6.078   5.742   3.354 -1.0265 -0.3907  0.3666
   51CHL1    C6 4889   6.198   5.751   3.411  0.5741 -0.0353  0.1462
   51CHL1    H6 4890   6.293   5.742   3.356  0.8274  0.3271  0.5133
   51CHL1    C7 4891   6.226   5.776   3.555 -0.1722 -0.2603  0.3003
   51CHL1   H7A 4892   6.309   5.713   3.593  2.6865  3.1435  0.1675
   51CHL1   H7B 4893   6.274   5.876   3.562 -0.7069  0.1935 -1.8416
   51CHL1    C8 4894   6.106   5.768   3.646  0.0183 -1.0706 -0.8030
   51CHL1    H8 4895   6.081   5.660   3.659 -0.6276 -0.9390 -0.9079
   51CHL1   C14 4896   6.120   5.819   3.780 -0.4948 -0.3851 -0.8721
   51CHL1   H14 4897   6.151   5.926   3.781  0.9302 -0.7346  1.5743
   51CHL1   C15 4898   6.236   5.758   3.872  0.0857 -0.7313  0.2721
   51CHL1  H15A 4899   6.256   5.654   3.837  1.5127  0.0313 -1.2716
   51CHL1  H15B 4900   6.333   5.807   3.848  0.6295 -2.2839 -0.8736
   51CHL1   C16 4901   6.187   5.789   4.019 -0.1336  0.3078  0.1823
   51CHL1  H16A 4902   6.171   5.690   4.067  1.4897  1.1178  2.6066
   51CHL1  H16B 4903   6.260   5.848   4.079  0.0226  2.2921 -1.8685
   51CHL1   C17 4904   6.050   5.867   4.005 -0.1730 -0.0857  0.7035
   51CHL1   H17 4905   6.071   5.975   3.988 -1.6491 -0.1953 -2.5805
   51CHL1   C13 4906   5.994   5.816   3.868 -0.1180  0.3651  0.7154
   51CHL1   C18 4907   5.942   5.668   3.893 -0.6055 -0.5805  0.5998
   51CHL1  H18A 4908   5.840   5.675   3.935  0.0266  1.1681  1.9586
   51CHL1  H18B 4909   5.937   5.607   3.800  2.1258 -0.8525  0.5407
   51CHL1  H18C 4910   6.015   5.616   3.958 -0.2534 -1.0470 -0.1578
   51CHL1   C12 4911   5.881   5.911   3.804 -0.3458  0.0804 -0.3212
   51CHL1  H12A 4912   5.792   5.901   3.869 -0.8574  0.3524 -0.9672
   51CHL1  H12B 4913   5.916   6.016   3.802 -1.7170  0.5749 -2.8542
   51CHL1   C11 4914   5.855   5.853   3.668 -0.5824  0.4310  0.1763
   51CHL1  H11A 4915   5.796   5.760   3.680  0.8056 -0.7180 -1.4211
   51CHL1  H11B 4916   5.775   5.913   3.620 -2.7188 -2.6018 -0.3093
   51CHL1    C9 4917   5.983   5.832   3.577  0.2512 -0.2525 -0.2864
   51CHL1    H9 4918   6.013   5.937   3.558  0.6493 -0.0819  1.1733
   51CHL1   C10 4919   5.954   5.765   3.443 -0.0833  0.0925 -0.1988
   51CHL1   C19 4920   5.887   5.626   3.461  0.1878 -0.4695  0.4555
   51CHL1  H19A 4921   5.894   5.568   3.367  1.1593  0.5361 -0.1169
   51CHL1  H19B 4922   5.928   5.565   3.544 -0.8173 -1.3348  0.3357
   51CHL1  H19C 4923   5.779   5.633   3.488  0.3474 -0.0102  0.9988
   51CHL1    C1 4924   5.859   5.862   3.365  0.1496 -0.2454 -0.0780
   51CHL1   H1A 4925   5.759   5.871   3.413 -1.0259 -1.3664 -2.1739
   51CHL1   H1B 4926   5.896   5.966   3.369  0.7764 -0.4655 -0.0801
   51CHL1    C2 4927   5.839   5.826   3.214 -0.3592 -0.2802  0.0143
   51CHL1   H2A 4928   5.800   5.919   3.169  0.7356 -0.1527 -0.7090
   51CHL1   H2B 4929   5.763   5.746   3.198 -1.3172  0.5749  0.2371
   51CHL1   C20 4930   5.968   5.844   4.134 -0.2016 -0.0413 -0.3594
   51CHL1   H20 4931   5.935   5.738   4.137  0.4076 -0.2264 -0.0846
   51CHL1   C21 4932   5.851   5.947   4.140  0.1658 -0.4643  0.0190
   51CHL1  H21A 4933   5.774   5.931   4.060 -0.4664 -0.6485  0.6567
   51CHL1  H21B 4934   5.893   6.048   4.124  2.3572 -1.3386 -0.1138
   51CHL1  H21C 4935   5.795   5.954   4.235 -1.4111  0.1165 -0.9155
   51CHL1   C22 4936   6.050   5.870   4.266 -0.5485  0.2592 -0.1732
   51CHL1  H22A 4937   6.125   5.789   4.276  0.4514  1.2266  0.3955
   51CHL1  H22B 4938   6.095   5.971   4.260 -1.2405  0.9078  3.3480
   51CHL1   C23 4939   5.980   5.845   4.403 -0.0249 -0.4884  0.4096
   51CHL1  H23A 4940   5.915   5.934   4.421  1.2612  0.8989 -1.3526
   51CHL1  H23B 4941   5.911   5.759   4.411  1.2235 -1.3354  2.7907
   51CHL1   C24 4942   6.086   5.844   4.516  0.6565  0.1290  0.9585
   51CHL1  H24A 4943   6.031   5.849   4.612  0.1405  0.3408  0.6585
   51CHL1  H24B 4944   6.152   5.754   4.515  1.6143  0.8121  1.6936
   51CHL1   C25 4945   6.171   5.973   4.528 -0.2411 -0.0874 -0.1348
   51CHL1   H25 4946   6.217   5.991   4.428 -1.2255 -0.6448 -0.7079
   51CHL1   C26 4947   6.076   6.091   4.560 -0.2390 -1.1053 -0.4269
   51CHL1  H26A 4948   6.024   6.075   4.657  0.3554  3.4658  0.8425
   51CHL1  H26B 4949   6.138   6.181   4.582 -0.2862 -1.2524  0.3477
   51CHL1  H26C 4950   6.003   6.109   4.478 -0.6794  0.1522  0.2198
   51CHL1   C27 4951   6.277   5.956   4.640  0.4246 -0.0066 -0.3018
   51CHL1  H27A 4952   6.231   5.917   4.733  2.3562  1.5789  1.3982
   51CHL1  H27B 4953   6.366   5.899   4.605  2.1221  0.9501  2.1737
   51CHL1  H27C 4954   6.308   6.059   4.667  1.8729 -0.1511 -1.2861
   52CHL1    C3 4955   3.497   5.302   3.220  0.0721 -0.7961 -0.8940
   52CHL1    H3 4956   3.574   5.382   3.220 -1.2485  0.5064 -0.0166
   52CHL1    O3 4957   3.441   5.295   3.090  0.1019  0.3760  0.3253
   52CHL1   H3' 4958   3.506   5.259   3.029 -3.1384 -1.7269 -2.2510
   52CHL1    C4 4959   3.544   5.166   3.266 -0.1009  0.3336 -0.9874
   52CHL1   H4A 4960   3.464   5.090   3.248  1.2490 -1.1135 -1.0667
   52CHL1   H4B 4961   3.630   5.144   3.199  0.3385 -0.3288 -0.2078
   52CHL1    C5 4962   3.568   5.152   3.415  0.5831  0.0635  0.3667
   52CHL1    C6 4963   3.679   5.092   3.466  0.7737  0.3354 -0.1008
   52CHL1    H6 4964   3.745   5.048   3.390 -1.7906  0.1201 -2.3927
   52CHL1    C7 4965   3.707   5.077   3.609  0.2949  0.5028  0.1357
   52CHL1   H7A 4966   3.748   4.975   3.627  0.5066  0.4448 -0.6419
   52CHL1   H7B 4967   3.795   5.145   3.606  1.5428 -1.0766 -1.7585
   52CHL1    C8 4968   3.589   5.116   3.706  0.2979  0.0471  0.9731
   52CHL1    H8 4969   3.516   5.033   3.705 -1.0730  1.1560 -1.8244
   52CHL1   C14 4970   3.633   5.144   3.845  0.1885 -0.2478 -0.4573
   52CHL1   H14 4971   3.692   5.238   3.835 -1.2237  0.8937  1.3367
   52CHL1   C15 4972   3.732   5.044   3.916 -0.1697 -0.4024  0.2471
   52CHL1  H15A 4973   3.684   4.945   3.903 -2.0805  0.2343  1.8636
   52CHL1  H15B 4974   3.831   5.050   3.866 -0.2516 -0.5713  0.0621
   52CHL1   C16 4975   3.736   5.082   4.060 -0.1052 -0.3911 -0.4042
   52CHL1  H16A 4976   3.698   4.993   4.113 -3.0685  0.2757 -1.1964
   52CHL1  H16B 4977   3.834   5.123   4.092 -0.5672  1.5593 -1.3128
   52CHL1   C17 4978   3.628   5.202   4.071 -0.1814  0.3178 -0.6500
   52CHL1   H17 4979   3.687   5.296   4.061 -0.2367  0.4008 -0.2243
   52CHL1   C13 4980   3.531   5.182   3.946 -0.0451 -0.0259  0.2593
   52CHL1   C18 4981   3.432   5.068   3.983  0.6076  0.6460 -0.1125
   52CHL1  H18A 4982   3.372   5.091   4.074  2.0019 -1.5890  1.4527
   52CHL1  H18B 4983   3.356   5.048   3.904  1.5595 -0.4042 -0.7846
   52CHL1  H18C 4984   3.486   4.974   4.004  0.7880  0.7483 -0.1149
   52CHL1   C12 4985   3.460   5.310   3.897 -0.3479 -0.7295 -0.3709
   52CHL1  H12A 4986   3.383   5.346   3.969  0.0742 -0.0453 -0.2552
   52CHL1  H12B 4987   3.524   5.398   3.876  0.1538 -1.2759 -1.1909
   52CHL1   C11 4988   3.399   5.282   3.753 -0.0511 -0.0600 -0.0502
   52CHL1  H11A 4989   3.330   5.197   3.768 -0.5450  0.3007 -0.2510
   52CHL1  H11B 4990   3.344   5.375   3.727  1.9451  1.0388 -0.5769
   52CHL1    C9 4991   3.510   5.236   3.656  0.0448 -0.3934 -0.1785
   52CHL1    H9 4992   3.586   5.316   3.657 -0.3005 -0.0564 -0.4645
   52CHL1   C10 4993   3.465   5.225   3.507  0.6437  0.4911  0.3631
   52CHL1   C19 4994   3.332   5.145   3.507  0.2112 -0.2563  0.7613
   52CHL1  H19A 4995   3.250   5.194   3.563  0.1902  0.1697  0.3666
   52CHL1  H19B 4996   3.290   5.118   3.408  1.4933  0.3677  0.0074
   52CHL1  H19C 4997   3.359   5.051   3.561  0.0431 -1.3352 -0.9383
   52CHL1    C1 4998   3.430   5.364   3.448 -0.3046 -0.0654 -0.2088
   52CHL1   H1A 4999   3.338   5.389   3.504 -1.4335 -1.3688 -1.3937
   52CHL1   H1B 5000   3.512   5.438   3.460 -0.9757  0.3413  2.4038
   52CHL1    C2 5001   3.384   5.361   3.306  0.2352  0.1479 -0.4450
   52CHL1   H2A 5002   3.383   5.467   3.270  2.0364  0.8253  1.2868
   52CHL1   H2B 5003   3.285   5.314   3.288 -0.0664  0.9733 -1.0082
   52CHL1   C20 5004   3.574   5.208   4.219  1.2292 -0.0080  0.4588
   52CHL1   H20 5005   3.522   5.111   4.236 -0.7787  0.9156 -0.0856
   52CHL1   C21 5006   3.466   5.317   4.221 -0.2540 -0.4221 -0.5144
   52CHL1  H21A 5007   3.514   5.409   4.181  1.6269 -1.5978 -1.1148
   52CHL1  H21B 5008   3.432   5.339   4.324 -0.0813 -1.1231 -0.2996
   52CHL1  H21C 5009   3.383   5.277   4.159  0.8803 -2.3162 -0.9058
   52CHL1   C22 5010   3.680   5.227   4.327 -1.0934 -0.2694  0.0379
   52CHL1  H22A 5011   3.774   5.194   4.276 -1.5447 -0.6497 -0.5573
   52CHL1  H22B 5012   3.686   5.335   4.351 -2.1519 -0.7672  2.7944
   52CHL1   C23 5013   3.660   5.141   4.457  0.3736 -0.2917  0.1946
   52CHL1  H23A 5014   3.553   5.153   4.487  0.1189 -1.0157 -0.3905
   52CHL1  H23B 5015   3.675   5.039   4.416  0.2376 -0.8202  1.4387
   52CHL1   C24 5016   3.756   5.155   4.572 -0.3574 -0.3529 -0.6426
   52CHL1  H24A 5017   3.740   5.073   4.646  2.0354 -0.5471 -0.2613
   52CHL1  H24B 5018   3.854   5.136   4.523 -0.0689 -0.7079  0.0389
   52CHL1   C25 5019   3.768   5.293   4.648  0.3819  0.3830  0.1265
   52CHL1   H25 5020   3.822   5.364   4.582 -3.0495  2.0219 -1.1279
   52CHL1   C26 5021   3.622   5.345   4.671  0.2236  0.1598 -0.3121
   52CHL1  H26A 5022   3.579   5.385   4.576  0.1782  1.5355  0.2562
   52CHL1  H26B 5023   3.557   5.263   4.707  0.5687  0.4192  0.9446
   52CHL1  H26C 5024   3.615   5.425   4.748  0.3683 -0.1200 -0.0045
   52CHL1   C27 5025   3.843   5.272   4.779  0.1581 -0.3769  0.2886
   52CHL1  H27A 5026   3.847   5.366   4.838 -0.2432  0.7108 -1.3544
   52CHL1  H27B 5027   3.792   5.190   4.834 -0.5061 -0.0661  0.1461
   52CHL1  H27C 5028   3.946   5.243   4.748 -0.2322 -1.1875 -0.2674
   53CHL1    C3 5029   3.596   3.512   2.753  0.3704  0.1347  0.2637
   53CHL1    H3 5030   3.646   3.413   2.743  0.4378  0.1348  0.5770
   53CHL1    O3 5031   3.564   3.566   2.628 -0.0962  0.3991  0.1084
   53CHL1   H3' 5032   3.648   3.600   2.597 -0.1003  1.3880  1.0981
   53CHL1    C4 5033   3.468   3.494   2.836 -0.4830  0.4723  0.7239
   53CHL1   H4A 5034   3.413   3.591   2.838 -0.7560  0.3161  1.1459
   53CHL1   H4B 5035   3.397   3.425   2.786 -0.5158 -0.4054  1.9561
   53CHL1    C5 5036   3.509   3.448   2.971  0.1723 -0.5534  0.0176
   53CHL1    C6 5037   3.474   3.333   3.026 -0.4409  0.2599  1.0666
   53CHL1    H6 5038   3.407   3.272   2.964  0.4561  0.7359 -0.4442
   53CHL1    C7 5039   3.496   3.297   3.173 -0.6605 -0.0673  0.2521
   53CHL1   H7A 5040   3.413   3.239   3.218 -1.1508  0.4719  0.0547
   53CHL1   H7B 5041   3.579   3.223   3.176 -0.8056 -0.2017  2.3969
   53CHL1    C8 5042   3.534   3.424   3.261 -0.2537 -0.5689 -0.6497
   53CHL1    H8 5043   3.443   3.484   3.281  1.2084  1.8655 -0.8254
   53CHL1   C14 5044   3.604   3.375   3.384 -0.0957 -0.2531  0.0848
   53CHL1   H14 5045   3.697   3.322   3.355  0.3414  0.8704 -0.6087
   53CHL1   C15 5046   3.515   3.277   3.462  0.3136  0.7478  0.1323
   53CHL1  H15A 5047   3.414   3.324   3.469  0.1872  0.7554 -1.4306
   53CHL1  H15B 5048   3.504   3.179   3.412 -0.0557  0.3409  0.9783
   53CHL1   C16 5049   3.599   3.265   3.598  0.0987  0.3194 -0.6997
   53CHL1  H16A 5050   3.528   3.262   3.684 -1.4261 -0.3687 -1.9305
   53CHL1  H16B 5051   3.662   3.174   3.608  1.1415  1.2207  1.4823
   53CHL1   C17 5052   3.691   3.391   3.606 -0.0522 -0.1883  0.1053
   53CHL1   H17 5053   3.792   3.349   3.584  0.0115  0.1368 -0.2241
   53CHL1   C13 5054   3.643   3.485   3.488 -0.0376  0.6134 -0.4088
   53CHL1   C18 5055   3.511   3.555   3.545 -0.3811  0.3812  0.8800
   53CHL1  H18A 5056   3.446   3.584   3.459  0.2285 -0.4517  0.1200
   53CHL1  H18B 5057   3.453   3.476   3.597  1.0613 -1.3678 -0.0544
   53CHL1  H18C 5058   3.540   3.641   3.609  3.4917  1.1080 -1.5417
   53CHL1   C12 5059   3.747   3.568   3.408  0.2931 -0.0694 -1.0045
   53CHL1  H12A 5060   3.793   3.647   3.470 -1.2173  0.7708 -0.9138
   53CHL1  H12B 5061   3.830   3.497   3.388  0.8771 -0.0567  1.1121
   53CHL1   C11 5062   3.684   3.633   3.276 -0.6274 -0.2966 -0.1763
   53CHL1  H11A 5063   3.603   3.703   3.306  0.0604  0.5639 -0.2835
   53CHL1  H11B 5064   3.754   3.703   3.225  0.3250 -0.0237  1.4316
   53CHL1    C9 5065   3.630   3.517   3.190 -0.4054  0.3898 -0.1004
   53CHL1    H9 5066   3.718   3.452   3.173  0.8331  2.0366 -0.2686
   53CHL1   C10 5067   3.585   3.556   3.049  0.2288  0.3775 -0.7999
   53CHL1   C19 5068   3.502   3.685   3.064  0.2772 -0.0776 -0.4621
   53CHL1  H19A 5069   3.555   3.776   3.099 -0.9876  0.9386 -1.1107
   53CHL1  H19B 5070   3.469   3.723   2.965 -1.7007  0.9712  0.5320
   53CHL1  H19C 5071   3.429   3.650   3.141 -0.0645 -0.8413 -1.1199
   53CHL1    C1 5072   3.709   3.601   2.971 -0.5135  0.1960  0.1692
   53CHL1   H1A 5073   3.772   3.686   3.006  0.5243 -0.7122  0.5713
   53CHL1   H1B 5074   3.781   3.519   2.991  1.8821  1.8883 -0.9642
   53CHL1    C2 5075   3.688   3.623   2.823 -0.3322  0.3523 -0.0377
   53CHL1   H2A 5076   3.784   3.616   2.767  0.2244  1.2121  0.7843
   53CHL1   H2B 5077   3.645   3.724   2.805 -0.0320  0.3063 -1.0610
   53CHL1   C20 5078   3.701   3.445   3.747  0.3706 -1.0427 -0.9861
   53CHL1   H20 5079   3.598   3.475   3.777  0.3419 -0.8519 -1.2706
   53CHL1   C21 5080   3.796   3.569   3.751  0.3097 -0.4711  0.9089
   53CHL1  H21A 5081   3.807   3.620   3.849  1.3168 -3.2771  2.3760
   53CHL1  H21B 5082   3.750   3.631   3.671 -2.0453 -2.0877  0.9049
   53CHL1  H21C 5083   3.901   3.540   3.726 -0.0081  0.1206 -1.3810
   53CHL1   C22 5084   3.746   3.351   3.857 -0.1734 -0.7277  0.0403
   53CHL1  H22A 5085   3.737   3.389   3.961  0.1879  0.3856 -0.3218
   53CHL1  H22B 5086   3.680   3.265   3.831  0.6381 -0.5060 -3.2882
   53CHL1   C23 5087   3.888   3.300   3.846 -0.2789  0.1200  0.1950
   53CHL1  H23A 5088   3.907   3.271   3.741  1.2390 -1.1714  0.7939
   53CHL1  H23B 5089   3.955   3.384   3.875 -2.1049  1.2227  1.4794
   53CHL1   C24 5090   3.912   3.181   3.941  0.5125 -0.2778 -0.1933
   53CHL1  H24A 5091   3.871   3.211   4.040 -0.7792  0.6460 -0.9775
   53CHL1  H24B 5092   3.859   3.091   3.902  1.7155  0.0894 -2.8329
   53CHL1   C25 5093   4.063   3.149   3.963 -0.1320  0.1100 -0.2868
   53CHL1   H25 5094   4.073   3.053   4.018 -3.3833 -2.0391 -3.0589
   53CHL1   C26 5095   4.139   3.139   3.831 -0.1538 -0.4663 -0.4067
   53CHL1  H26A 5096   4.231   3.081   3.854 -1.2976 -2.4370 -0.5933
   53CHL1  H26B 5097   4.079   3.074   3.764 -0.6295  0.0683 -0.5049
   53CHL1  H26C 5098   4.149   3.234   3.773 -0.6462  0.5473  1.1116
   53CHL1   C27 5099   4.121   3.261   4.050  0.2959 -0.3510 -0.4463
   53CHL1  H27A 5100   4.212   3.227   4.104 -0.1635 -2.5708 -0.9844
   53CHL1  H27B 5101   4.154   3.348   3.989 -0.6237  1.3864  1.3815
   53CHL1  H27C 5102   4.048   3.315   4.114  1.8455 -0.1329  1.2221
   54CHL1    C3 5103   3.990   4.930   3.058 -0.1595  0.0059  1.2038
   54CHL1    H3 5104   3.908   4.994   3.095 -1.5219  0.2136 -1.8969
   54CHL1    O3 5105   3.980   4.920   2.914  0.6850  0.0006  0.5337
   54CHL1   H3' 5106   4.030   4.838   2.903 -1.3640 -1.3412  0.6647
   54CHL1    C4 5107   4.125   4.989   3.098 -0.4712  0.2941  0.8750
   54CHL1   H4A 5108   4.200   4.919   3.057  0.0487 -0.0245  2.3056
   54CHL1   H4B 5109   4.141   5.088   3.051 -0.4481  0.2115  0.7086
   54CHL1    C5 5110   4.124   4.998   3.249 -0.4887 -0.1622  0.5311
   54CHL1    C6 5111   4.134   5.117   3.314  0.2570  0.2121  0.5399
   54CHL1    H6 5112   4.159   5.211   3.263  0.0933  1.2764  2.3332
   54CHL1    C7 5113   4.136   5.130   3.461  0.2213 -0.1199  0.1417
   54CHL1   H7A 5114   4.213   5.209   3.464 -0.0917  0.1781  0.3525
   54CHL1   H7B 5115   4.034   5.159   3.493  0.3388  1.2561 -0.6391
   54CHL1    C8 5116   4.167   4.997   3.540  0.0374 -0.4358  0.1137
   54CHL1    H8 5117   4.275   4.971   3.533 -0.2386 -2.9788  2.8220
   54CHL1   C14 5118   4.115   5.005   3.688 -0.7153  0.8704 -0.1859
   54CHL1   H14 5119   4.005   4.997   3.683 -0.8929  0.5122  2.5793
   54CHL1   C15 5120   4.140   5.132   3.774 -0.3979 -0.3573  0.3947
   54CHL1  H15A 5121   4.239   5.180   3.755 -0.7650 -0.1504 -1.1583
   54CHL1  H15B 5122   4.061   5.201   3.738  2.6113  3.6868  0.7832
   54CHL1   C16 5123   4.140   5.081   3.920  0.3448  0.2384  0.3587
   54CHL1  H16A 5124   4.230   5.109   3.979  0.4328  1.2765 -0.2569
   54CHL1  H16B 5125   4.058   5.130   3.976  1.3955  0.1942  2.0077
   54CHL1   C17 5126   4.105   4.927   3.918 -0.2380  0.1198 -0.0314
   54CHL1   H17 5127   3.994   4.930   3.921 -0.3741 -1.7709 -1.2362
   54CHL1   C13 5128   4.151   4.887   3.778 -0.1923  0.5388 -0.4940
   54CHL1   C18 5129   4.304   4.860   3.785  0.0838 -0.5682 -0.1894
   54CHL1  H18A 5130   4.350   4.955   3.820  0.1510 -0.9900  0.9155
   54CHL1  H18B 5131   4.331   4.782   3.859  3.1750  0.4721 -0.1060
   54CHL1  H18C 5132   4.334   4.823   3.685 -0.5137 -2.5771  0.3211
   54CHL1   C12 5133   4.075   4.770   3.712 -0.1976 -0.0398  0.0547
   54CHL1  H12A 5134   4.092   4.672   3.762  1.2802  0.3182  0.3112
   54CHL1  H12B 5135   3.965   4.782   3.704  0.1161  2.4656 -1.3195
   54CHL1   C11 5136   4.109   4.740   3.561 -1.2630  0.5341 -0.3231
   54CHL1  H11A 5137   4.216   4.712   3.554 -2.3928 -4.6322 -0.9263
   54CHL1  H11B 5138   4.045   4.656   3.528 -1.1480  0.5736 -0.6491
   54CHL1    C9 5139   4.099   4.873   3.478  0.1993  0.1619 -0.5875
   54CHL1    H9 5140   3.992   4.898   3.491 -0.0351  1.4860 -4.0753
   54CHL1   C10 5141   4.116   4.861   3.326  0.4505 -0.5329  0.4757
   54CHL1   C19 5142   4.241   4.773   3.302 -0.1791 -0.1696  0.0873
   54CHL1  H19A 5143   4.263   4.757   3.195 -4.7707  0.8467 -1.2395
   54CHL1  H19B 5144   4.336   4.814   3.342  0.4295  0.0732 -1.5627
   54CHL1  H19C 5145   4.227   4.671   3.344  2.0475  0.5695  2.9574
   54CHL1    C1 5146   3.990   4.792   3.271 -0.5803 -0.1165 -0.7813
   54CHL1   H1A 5147   3.983   4.686   3.305 -1.0002  0.1058 -0.1719
   54CHL1   H1B 5148   3.898   4.827   3.322 -1.1044 -0.9175 -1.1505
   54CHL1    C2 5149   3.977   4.789   3.121 -0.3345 -0.5567 -0.2834
   54CHL1   H2A 5150   3.880   4.750   3.083  1.5310 -1.3608 -4.8756
   54CHL1   H2B 5151   4.058   4.723   3.083 -0.1761 -0.4388 -0.1520
   54CHL1   C20 5152   4.139   4.852   4.046  0.0091  0.1584 -1.0997
   54CHL1   H20 5153   4.247   4.869   4.068  0.8001 -4.5741 -0.2867
   54CHL1   C21 5154   4.136   4.700   4.026 -0.8198 -0.3985 -0.1138
   54CHL1  H21A 5155   4.208   4.666   3.949  1.7837  2.4944  0.7876
   54CHL1  H21B 5156   4.030   4.668   4.027 -1.0203  0.2529  0.4225
   54CHL1  H21C 5157   4.184   4.656   4.117  1.5225  1.4843 -0.3179
   54CHL1   C22 5158   4.047   4.897   4.162  0.0458 -0.4395 -0.4593
   54CHL1  H22A 5159   4.071   5.005   4.173 -0.1425 -0.3264 -1.1400
   54CHL1  H22B 5160   3.939   4.880   4.145 -0.2013 -0.2568  0.7681
   54CHL1   C23 5161   4.078   4.818   4.296  0.7951  0.5678 -0.2383
   54CHL1  H23A 5162   4.030   4.718   4.287 -0.3829  1.3117 -3.7492
   54CHL1  H23B 5163   4.186   4.799   4.315  1.0918  0.5249 -1.8081
   54CHL1   C24 5164   4.018   4.891   4.424 -0.1112 -0.2963 -0.0401
   54CHL1  H24A 5165   4.082   4.982   4.431  2.5006 -1.6895 -3.1012
   54CHL1  H24B 5166   3.912   4.911   4.401 -0.2427  0.1858  0.9575
   54CHL1   C25 5167   4.030   4.820   4.559 -0.1490  0.5554  0.0499
   54CHL1   H25 5168   4.005   4.894   4.638  0.2511  0.7416 -0.0003
   54CHL1   C26 5169   3.941   4.699   4.573 -0.6674  0.8744 -0.0513
   54CHL1  H26A 5170   3.948   4.647   4.670 -0.6616 -0.0097 -0.5158
   54CHL1  H26B 5171   3.835   4.705   4.540 -0.1529  3.4030 -1.5224
   54CHL1  H26C 5172   3.975   4.616   4.507 -1.4644  1.2233 -0.9298
   54CHL1   C27 5173   4.173   4.760   4.588  0.0417 -0.4299  0.4297
   54CHL1  H27A 5174   4.169   4.725   4.693  0.6916 -1.9761 -0.0418
   54CHL1  H27B 5175   4.183   4.670   4.524 -1.7147 -0.5788  0.3132
   54CHL1  H27C 5176   4.245   4.841   4.565 -1.0597 -0.0219 -1.8969
   55CHL1    C3 5177   6.564   1.269   3.241  0.3287  0.1901 -0.0456
   55CHL1    H3 5178   6.484   1.346   3.245 -1.2844 -1.4206  0.0752
   55CHL1    O3 5179   6.599   1.262   3.102 -0.0061  0.2672  0.1615
   55CHL1   H3' 5180   6.535   1.312   3.052  2.0075  2.0734 -0.7650
   55CHL1    C4 5181   6.693   1.317   3.314  0.0249  1.0174 -0.6723
   55CHL1   H4A 5182   6.771   1.239   3.299 -0.3306  0.7861 -1.3241
   55CHL1   H4B 5183   6.736   1.412   3.277  1.3020  0.7945  0.1634
   55CHL1    C5 5184   6.647   1.327   3.458 -0.2779  0.8041  0.1238
   55CHL1    C6 5185   6.640   1.446   3.525 -0.3640  0.4859  0.4397
   55CHL1    H6 5186   6.660   1.548   3.490 -1.5643  1.8998  3.5279
   55CHL1    C7 5187   6.603   1.457   3.666 -0.2419  0.1888  0.4611
   55CHL1   H7A 5188   6.674   1.532   3.707  0.2909 -0.3381  0.5218
   55CHL1   H7B 5189   6.504   1.501   3.692 -0.0400 -0.6127  2.8640
   55CHL1    C8 5190   6.623   1.328   3.748  0.0796  0.1170  0.2031
   55CHL1    H8 5191   6.732   1.311   3.756  0.7402  2.6740 -1.9726
   55CHL1   C14 5192   6.560   1.342   3.887 -0.3173 -0.3918  0.3691
   55CHL1   H14 5193   6.453   1.370   3.877 -0.0470  0.2301 -1.0878
   55CHL1   C15 5194   6.606   1.457   3.972 -0.6298 -0.2106 -1.4476
   55CHL1  H15A 5195   6.717   1.460   3.973 -0.6332  0.1950 -1.8302
   55CHL1  H15B 5196   6.564   1.552   3.934 -1.0501 -0.3147 -1.2488
   55CHL1   C16 5197   6.559   1.422   4.113 -0.0625  0.2728 -0.1656
   55CHL1  H16A 5198   6.643   1.427   4.185  0.1920  0.7613 -0.4931
   55CHL1  H16B 5199   6.477   1.490   4.146  1.6930  2.4004  0.0922
   55CHL1   C17 5200   6.499   1.281   4.114  0.3116  0.1409  0.2379
   55CHL1   H17 5201   6.390   1.291   4.101  0.1250 -1.4503  0.4182
   55CHL1   C13 5202   6.553   1.223   3.975 -0.4921  0.2522 -0.2298
   55CHL1   C18 5203   6.692   1.172   3.997  0.4895 -0.1527 -0.7234
   55CHL1  H18A 5204   6.756   1.235   4.062 -0.4907  0.1543 -0.0299
   55CHL1  H18B 5205   6.703   1.073   4.046 -0.2900  1.3106  2.6734
   55CHL1  H18C 5206   6.740   1.153   3.899  1.8518 -1.9668  0.2192
   55CHL1   C12 5207   6.465   1.135   3.904  0.2265  0.2545  0.2166
   55CHL1  H12A 5208   6.441   1.037   3.949 -1.2428  0.2787 -0.4551
   55CHL1  H12B 5209   6.366   1.180   3.881  0.8804  1.0333 -1.1825
   55CHL1   C11 5210   6.518   1.097   3.761  0.2733 -0.3714  0.2008
   55CHL1  H11A 5211   6.607   1.036   3.786 -0.9520 -2.0908  0.5466
   55CHL1  H11B 5212   6.440   1.034   3.713 -1.0419  0.6120  0.9659
   55CHL1    C9 5213   6.547   1.217   3.672  0.2239 -0.0044 -0.1598
   55CHL1    H9 5214   6.443   1.253   3.658 -0.1458 -1.2057 -0.5830
   55CHL1   C10 5215   6.596   1.198   3.528  0.1811 -0.4951  0.3351
   55CHL1   C19 5216   6.716   1.099   3.530 -0.4820 -0.1221 -0.4744
   55CHL1  H19A 5217   6.683   0.999   3.567  0.0743 -0.3782 -0.6720
   55CHL1  H19B 5218   6.759   1.083   3.429 -0.5910 -0.4743 -0.4663
   55CHL1  H19C 5219   6.796   1.131   3.600 -0.6620 -1.7319  0.5259
   55CHL1    C1 5220   6.485   1.134   3.438 -0.7060 -0.3453  0.3300
   55CHL1   H1A 5221   6.467   1.031   3.475 -1.4705 -1.0358 -1.8098
   55CHL1   H1B 5222   6.389   1.187   3.456 -0.2480  0.6403 -0.0310
   55CHL1    C2 5223   6.511   1.136   3.287 -0.4760  0.2742  0.0293
   55CHL1   H2A 5224   6.418   1.114   3.231 -1.5079  1.1690  1.3305
   55CHL1   H2B 5225   6.587   1.055   3.275 -1.3524 -0.7837  1.2536
   55CHL1   C20 5226   6.513   1.197   4.240 -0.8258  0.2430  0.0474
   55CHL1   H20 5227   6.622   1.177   4.251 -0.7917  0.8248  0.8576
   55CHL1   C21 5228   6.434   1.070   4.231  0.2379  0.9766 -0.2756
   55CHL1  H21A 5229   6.482   0.998   4.162  1.1172  1.0512  0.2420
   55CHL1  H21B 5230   6.332   1.085   4.189 -0.0908  0.9118  0.4745
   55CHL1  H21C 5231   6.429   1.022   4.331  0.1396  3.5519  1.0463
   55CHL1   C22 5232   6.474   1.274   4.366 -0.2666  0.1469  0.7087
   55CHL1  H22A 5233   6.518   1.374   4.351  0.9002 -0.2785  1.1807
   55CHL1  H22B 5234   6.365   1.287   4.387 -0.7660 -0.4287 -1.3676
   55CHL1   C23 5235   6.551   1.220   4.493  0.4813  0.0008  0.6594
   55CHL1  H23A 5236   6.517   1.115   4.490  0.6834 -0.0582 -1.8039
   55CHL1  H23B 5237   6.661   1.226   4.473 -0.0436  1.3719 -2.4013
   55CHL1   C24 5238   6.493   1.284   4.624  0.1921  0.0058  0.2866
   55CHL1  H24A 5239   6.490   1.394   4.614  2.4451  0.1698  0.8280
   55CHL1  H24B 5240   6.389   1.250   4.639  0.3146  0.4006  2.3790
   55CHL1   C25 5241   6.566   1.245   4.758  0.7722  0.2432 -0.0611
   55CHL1   H25 5242   6.668   1.290   4.757  0.7106  0.4996 -3.0213
   55CHL1   C26 5243   6.498   1.307   4.878 -0.1391  0.1062  0.2146
   55CHL1  H26A 5244   6.390   1.286   4.866  0.4910 -2.2997 -2.3295
   55CHL1  H26B 5245   6.539   1.271   4.975 -2.0312 -1.4190  0.5093
   55CHL1  H26C 5246   6.516   1.417   4.872  1.5948 -0.1376  0.3661
   55CHL1   C27 5247   6.557   1.095   4.788 -0.7635 -0.1607 -0.7895
   55CHL1  H27A 5248   6.605   1.048   4.699  1.5219  0.9613 -0.2033
   55CHL1  H27B 5249   6.603   1.069   4.885  1.4499  1.3215 -1.3750
   55CHL1  H27C 5250   6.449   1.068   4.782 -1.6605  2.5593  1.2463
   56CHL1    C3 5251   5.490   2.533   2.677 -0.5162  0.0746  0.0251
   56CHL1    H3 5252   5.381   2.543   2.697 -0.7712 -1.6773 -0.2772
   56CHL1    O3 5253   5.507   2.507   2.542  0.3567  0.3835  0.0448
   56CHL1   H3' 5254   5.597   2.476   2.545 -0.0619 -0.7952  0.7654
   56CHL1    C4 5255   5.562   2.667   2.712 -0.2772 -0.6956 -0.3468
   56CHL1   H4A 5256   5.666   2.648   2.677 -0.5398 -0.2445 -1.4362
   56CHL1   H4B 5257   5.522   2.745   2.643  0.1708  0.1544  0.3328
   56CHL1    C5 5258   5.547   2.706   2.853 -0.2100 -0.6374  0.0242
   56CHL1    C6 5259   5.493   2.829   2.889 -0.4430 -0.3404  0.1821
   56CHL1    H6 5260   5.449   2.900   2.818 -0.9503  1.1841  1.9504
   56CHL1    C7 5261   5.475   2.868   3.031  0.4469  0.5150  0.0045
   56CHL1   H7A 5262   5.505   2.975   3.042 -0.5177  1.0647 -2.1805
   56CHL1   H7B 5263   5.367   2.870   3.057  0.3618  1.5353 -0.3574
   56CHL1    C8 5264   5.552   2.779   3.128 -0.1795  0.6664  0.1662
   56CHL1    H8 5265   5.659   2.809   3.123  0.2414 -0.5322  1.3343
   56CHL1   C14 5266   5.508   2.803   3.268  0.5987 -0.7649 -0.7805
   56CHL1   H14 5267   5.405   2.761   3.265  0.3400 -0.0966 -1.3886
   56CHL1   C15 5268   5.497   2.948   3.335  0.2447 -0.0564 -0.0858
   56CHL1  H15A 5269   5.593   3.003   3.320  0.3439 -0.6117 -1.6564
   56CHL1  H15B 5270   5.421   3.011   3.284  1.2594  1.1031 -0.1977
   56CHL1   C16 5271   5.456   2.909   3.478  1.0697 -0.7785 -0.2189
   56CHL1  H16A 5272   5.506   2.979   3.548  0.1363 -1.1590  0.8835
   56CHL1  H16B 5273   5.347   2.910   3.501  0.7804 -3.1638 -1.2222
   56CHL1   C17 5274   5.495   2.766   3.510 -0.2242  0.0422 -0.2306
   56CHL1   H17 5275   5.405   2.701   3.516  0.0102 -0.2690 -0.0863
   56CHL1   C13 5276   5.573   2.720   3.386 -0.2140  0.2314  0.7290
   56CHL1   C18 5277   5.724   2.761   3.398  0.6334  0.0151  0.2983
   56CHL1  H18A 5278   5.773   2.699   3.475  0.0481  0.9159  1.4379
   56CHL1  H18B 5279   5.780   2.747   3.303  1.5380 -0.2041  0.8630
   56CHL1  H18C 5280   5.740   2.869   3.422  1.3332  0.1188 -0.5906
   56CHL1   C12 5281   5.559   2.572   3.347  0.1372  0.9104  0.2472
   56CHL1  H12A 5282   5.611   2.503   3.416 -0.5299 -1.1206 -1.2084
   56CHL1  H12B 5283   5.451   2.550   3.348  0.4177 -0.5907 -0.5310
   56CHL1   C11 5284   5.604   2.539   3.200 -0.2335 -0.7520 -0.3748
   56CHL1  H11A 5285   5.714   2.555   3.194 -0.5987  1.5608 -2.5550
   56CHL1  H11B 5286   5.588   2.433   3.173 -0.6557 -0.5984 -0.7219
   56CHL1    C9 5287   5.538   2.630   3.092  0.1334 -0.7012  0.3790
   56CHL1    H9 5288   5.431   2.602   3.097 -0.3788  1.0455  0.0866
   56CHL1   C10 5289   5.591   2.593   2.948  0.7385  0.6638 -0.4565
   56CHL1   C19 5290   5.746   2.590   2.932  0.3467  0.2580 -0.1227
   56CHL1  H19A 5291   5.781   2.497   2.982  0.6542  0.4326 -0.0147
   56CHL1  H19B 5292   5.782   2.577   2.828  2.9030  0.1737  0.7114
   56CHL1  H19C 5293   5.785   2.684   2.977  0.0098  0.8212 -0.9959
   56CHL1    C1 5294   5.529   2.457   2.913 -0.6443  0.0978 -0.0706
   56CHL1   H1A 5295   5.570   2.365   2.959  0.4610 -1.2268 -3.4525
   56CHL1   H1B 5296   5.421   2.461   2.937 -0.3823 -0.3603  1.2731
   56CHL1    C2 5297   5.551   2.421   2.761 -0.2005  0.5429  0.3278
   56CHL1   H2A 5298   5.500   2.325   2.740 -1.1145  1.1408 -0.2582
   56CHL1   H2B 5299   5.657   2.408   2.731 -0.5988  0.0364 -0.9700
   56CHL1   C20 5300   5.561   2.755   3.657 -0.7879 -0.9709  0.1428
   56CHL1   H20 5301   5.652   2.815   3.677 -0.7784 -0.6783 -0.7245
   56CHL1   C21 5302   5.599   2.610   3.691 -0.0501  0.5317 -0.2599
   56CHL1  H21A 5303   5.665   2.575   3.608 -1.3910  0.3167 -1.2676
   56CHL1  H21B 5304   5.506   2.551   3.703 -0.9256  1.7152 -0.9497
   56CHL1  H21C 5305   5.662   2.599   3.782 -2.0357  0.8452  1.2092
   56CHL1   C22 5306   5.453   2.792   3.760  0.8124  0.4950  0.2376
   56CHL1  H22A 5307   5.397   2.883   3.727 -1.2745 -0.4382  1.0383
   56CHL1  H22B 5308   5.369   2.721   3.771 -1.3350  2.9124  0.4081
   56CHL1   C23 5309   5.505   2.819   3.903 -0.2783 -0.5596 -0.3581
   56CHL1  H23A 5310   5.543   2.718   3.927  0.8915 -1.0735 -3.8346
   56CHL1  H23B 5311   5.594   2.886   3.892 -1.2288  0.8739  0.4353
   56CHL1   C24 5312   5.391   2.879   3.997  0.2399  0.4267 -0.3967
   56CHL1  H24A 5313   5.359   2.983   3.975 -0.5186  0.3830  0.4304
   56CHL1  H24B 5314   5.303   2.812   3.986  1.0723 -1.0456  1.3728
   56CHL1   C25 5315   5.417   2.871   4.147 -0.8604 -0.2745 -0.5798
   56CHL1   H25 5316   5.510   2.929   4.162  0.5397 -2.9207  2.0253
   56CHL1   C26 5317   5.300   2.930   4.222 -0.3191  0.8417  0.4049
   56CHL1  H26A 5318   5.312   2.928   4.333 -0.6347  0.6686  0.4393
   56CHL1  H26B 5319   5.285   3.037   4.194 -0.3814  0.9446  0.8167
   56CHL1  H26C 5320   5.203   2.887   4.189  0.4115 -1.2271  0.8371
   56CHL1   C27 5321   5.458   2.730   4.198 -0.2887 -0.7057  0.2532
   56CHL1  H27A 5322   5.543   2.684   4.143 -0.3758 -1.2055  0.5360
   56CHL1  H27B 5323   5.483   2.731   4.307 -1.5108  0.3388  0.5552
   56CHL1  H27C 5324   5.376   2.655   4.196 -0.4421 -0.5408  0.3204
   57CHL1    C3 5325   6.160   1.293   3.204 -0.2148  0.0430 -0.0947
   57CHL1    H3 5326   6.247   1.232   3.238  0.7207  1.4714  0.1341
   57CHL1    O3 5327   6.137   1.266   3.066  0.1139 -0.2576 -0.3358
   57CHL1   H3' 5328   6.072   1.329   3.034  1.3460  1.1048 -0.2598
   57CHL1    C4 5329   6.042   1.252   3.292 -0.4543  0.6422  0.0682
   57CHL1   H4A 5330   5.956   1.314   3.261  0.0515  1.2144 -0.2263
   57CHL1   H4B 5331   6.033   1.143   3.272 -1.9643  0.8496 -0.4984
   57CHL1    C5 5332   6.072   1.271   3.441 -0.7208  0.1105  0.0875
   57CHL1    C6 5333   6.076   1.169   3.528  0.2281 -0.6636 -0.6777
   57CHL1    H6 5334   6.061   1.065   3.496  2.5133 -2.0645  2.3066
   57CHL1    C7 5335   6.093   1.185   3.679 -0.6949 -0.2059 -1.0067
   57CHL1   H7A 5336   6.025   1.117   3.735 -2.3552  0.4258 -2.1698
   57CHL1   H7B 5337   6.200   1.166   3.701 -0.4043 -0.5857 -2.6173
   57CHL1    C8 5338   6.068   1.331   3.715  0.0149 -0.1459  0.2172
   57CHL1    H8 5339   5.960   1.356   3.711  0.4003  1.6167 -3.1953
   57CHL1   C14 5340   6.117   1.355   3.862  0.0703  0.3344  0.0230
   57CHL1   H14 5341   6.225   1.333   3.864  0.1144  0.5500  2.0474
   57CHL1   C15 5342   6.073   1.257   3.966  0.3113  0.3583 -0.3220
   57CHL1  H15A 5343   5.963   1.243   3.955  0.0045  0.8477  1.7787
   57CHL1  H15B 5344   6.121   1.159   3.946  1.1290  0.5842  0.4363
   57CHL1   C16 5345   6.110   1.334   4.096  0.2700  0.5244  1.2586
   57CHL1  H16A 5346   6.027   1.361   4.165  0.0006 -0.0274  1.1521
   57CHL1  H16B 5347   6.181   1.277   4.159  0.1605 -1.3584 -0.2406
   57CHL1   C17 5348   6.167   1.474   4.056  0.2741  0.2427  0.4032
   57CHL1   H17 5349   6.278   1.471   4.048  0.3804  1.3877  1.2419
   57CHL1   C13 5350   6.113   1.498   3.911  0.0812  0.0272  0.1098
   57CHL1   C18 5351   5.968   1.550   3.909 -0.0608 -0.2291  0.0014
   57CHL1  H18A 5352   5.896   1.477   3.950  0.7395 -1.4333 -0.6561
   57CHL1  H18B 5353   5.949   1.641   3.969 -1.9327  1.0094 -2.2694
   57CHL1  H18C 5354   5.941   1.579   3.805 -1.7877 -1.5708  0.0377
   57CHL1   C12 5355   6.207   1.588   3.819  0.2647  0.0207  0.3408
   57CHL1  H12A 5356   6.196   1.696   3.842 -2.2739  0.2688 -1.6336
   57CHL1  H12B 5357   6.313   1.558   3.833  0.2201 -1.2464 -1.6246
   57CHL1   C11 5358   6.173   1.572   3.669  0.5275  0.0750 -0.2617
   57CHL1  H11A 5359   6.075   1.623   3.660  0.6102  0.2207 -0.3537
   57CHL1  H11B 5360   6.240   1.636   3.606 -0.7113  1.3451 -0.3438
   57CHL1    C9 5361   6.146   1.428   3.622  0.0196 -0.0852  0.0617
   57CHL1    H9 5362   6.243   1.373   3.621 -1.1178 -2.2152 -2.0928
   57CHL1   C10 5363   6.099   1.418   3.475 -0.3078 -0.4607 -0.1418
   57CHL1   C19 5364   5.971   1.502   3.460  0.4077  0.0060  0.3502
   57CHL1  H19A 5365   5.887   1.484   3.530  0.2447 -0.6629 -0.0037
   57CHL1  H19B 5366   5.988   1.612   3.466 -0.7467  0.3355 -1.5424
   57CHL1  H19C 5367   5.912   1.485   3.367  0.2225  1.2394  0.2305
   57CHL1    C1 5368   6.206   1.478   3.375  0.2987 -0.0733  0.0779
   57CHL1   H1A 5369   6.185   1.586   3.391 -1.8921 -0.5444  0.7877
   57CHL1   H1B 5370   6.310   1.450   3.402  1.0037 -1.2142 -3.3806
   57CHL1    C2 5371   6.184   1.440   3.229  0.7966  0.3391 -0.0418
   57CHL1   H2A 5372   6.270   1.475   3.167  1.9204 -2.3979 -0.1540
   57CHL1   H2B 5373   6.095   1.500   3.202  0.1320 -0.1762  0.9579
   57CHL1   C20 5374   6.148   1.585   4.159 -0.3560 -0.4908 -0.2180
   57CHL1   H20 5375   6.039   1.597   4.174 -0.5591 -2.7993  0.6257
   57CHL1   C21 5376   6.212   1.714   4.095  0.0513  0.0239 -0.2892
   57CHL1  H21A 5377   6.314   1.691   4.055 -0.6472 -1.6951 -1.1866
   57CHL1  H21B 5378   6.213   1.797   4.170 -1.2413 -1.3298  1.3100
   57CHL1  H21C 5379   6.144   1.758   4.019  1.3379  1.1861 -0.8234
   57CHL1   C22 5380   6.223   1.549   4.291  0.3167 -0.2706 -0.0246
   57CHL1  H22A 5381   6.184   1.453   4.331 -1.3860  0.6849  0.7318
   57CHL1  H22B 5382   6.332   1.555   4.271  0.3615  0.4347  0.4035
   57CHL1   C23 5383   6.181   1.644   4.405  0.2306 -0.9195 -0.0152
   57CHL1  H23A 5384   6.229   1.744   4.404 -2.8259  0.6657 -0.7557
   57CHL1  H23B 5385   6.074   1.666   4.383  0.6682  0.7710 -0.6550
   57CHL1   C24 5386   6.199   1.582   4.542  0.9671 -0.0440 -0.3206
   57CHL1  H24A 5387   6.114   1.511   4.542  2.5663 -2.0343  0.3969
   57CHL1  H24B 5388   6.303   1.542   4.551  1.6938  1.8650  0.4885
   57CHL1   C25 5389   6.187   1.678   4.661  0.1329 -0.2694  0.1973
   57CHL1   H25 5390   6.244   1.772   4.641 -0.5740  0.3106  0.8505
   57CHL1   C26 5391   6.035   1.720   4.689  0.6177 -0.1653 -0.2535
   57CHL1  H26A 5392   6.004   1.777   4.599  1.5297  0.0670 -0.4300
   57CHL1  H26B 5393   5.967   1.637   4.719  0.2348 -0.0233 -0.7250
   57CHL1  H26C 5394   6.037   1.790   4.775 -3.7388 -0.3827  0.2420
   57CHL1   C27 5395   6.235   1.604   4.790  0.1071  0.0748 -0.3068
   57CHL1  H27A 5396   6.340   1.569   4.782  0.1655  0.0994  0.2729
   57CHL1  H27B 5397   6.226   1.683   4.868 -0.6112 -0.6411  0.3516
   57CHL1  H27C 5398   6.165   1.522   4.813 -0.7293  1.4189  2.3933
   58CHL1    C3 5399   5.461   1.684   3.165 -0.3073 -0.2163 -0.6012
   58CHL1    H3 5400   5.467   1.574   3.154 -1.8421 -0.5882  1.5742
   58CHL1    O3 5401   5.523   1.742   3.048  0.1395 -0.4040 -0.1696
   58CHL1   H3' 5402   5.459   1.734   2.978 -0.9560 -2.0053  0.9499
   58CHL1    C4 5403   5.315   1.733   3.188 -1.0041  0.1442  0.6459
   58CHL1   H4A 5404   5.321   1.844   3.193 -0.4314  0.0844  1.7289
   58CHL1   H4B 5405   5.252   1.703   3.101  0.5352  1.7215 -1.0913
   58CHL1    C5 5406   5.257   1.686   3.317  0.4234 -0.4480  0.5752
   58CHL1    C6 5407   5.134   1.625   3.323  0.2658  0.3367  0.2199
   58CHL1    H6 5408   5.079   1.623   3.228  0.4602  1.3927  0.0723
   58CHL1    C7 5409   5.061   1.582   3.449  0.2724  0.3977 -0.5163
   58CHL1   H7A 5410   4.956   1.618   3.460  0.3648  0.8817 -1.1524
   58CHL1   H7B 5411   5.053   1.471   3.450  1.2842  0.3218  0.6640
   58CHL1    C8 5412   5.136   1.631   3.578 -1.1155  0.1720  0.0692
   58CHL1    H8 5413   5.110   1.739   3.587  1.6000  0.9612 -0.7021
   58CHL1   C14 5414   5.086   1.555   3.700  0.3004  0.3466  0.5031
   58CHL1   H14 5415   5.122   1.450   3.697 -0.5427 -0.0230  1.8754
   58CHL1   C15 5416   4.936   1.553   3.727 -1.1174 -0.2824  0.1713
   58CHL1  H15A 5417   4.898   1.656   3.712  1.0299  0.5312  0.0112
   58CHL1  H15B 5418   4.880   1.497   3.649  0.8098 -0.5604 -1.0923
   58CHL1   C16 5419   4.915   1.513   3.881 -0.3565 -0.0573 -0.2664
   58CHL1  H16A 5420   4.854   1.590   3.934  0.0186 -1.0069  1.6288
   58CHL1  H16B 5421   4.870   1.412   3.887  1.0076 -0.7974 -1.8124
   58CHL1   C17 5422   5.058   1.528   3.942 -0.5250  0.3477 -0.2138
   58CHL1   H17 5423   5.105   1.428   3.944  2.6610  1.7332  1.2917
   58CHL1   C13 5424   5.142   1.602   3.832  0.0324  0.0381  0.0739
   58CHL1   C18 5425   5.125   1.756   3.860  0.8310 -0.7018  0.1289
   58CHL1  H18A 5426   5.184   1.803   3.942 -1.0093 -0.7802  1.5775
   58CHL1  H18B 5427   5.136   1.816   3.767 -1.1515  0.1664  0.3892
   58CHL1  H18C 5428   5.016   1.769   3.881  0.6238 -0.4039 -1.0461
   58CHL1   C12 5429   5.292   1.573   3.825 -0.3010 -0.4651  0.5216
   58CHL1  H12A 5430   5.346   1.620   3.910  0.5254  1.3385 -0.9382
   58CHL1  H12B 5431   5.315   1.465   3.838  2.2278  0.1415  1.7246
   58CHL1   C11 5432   5.356   1.641   3.701  0.4044 -0.0096  0.3878
   58CHL1  H11A 5433   5.368   1.750   3.717 -1.1922  0.6195 -2.1478
   58CHL1  H11B 5434   5.457   1.595   3.695 -0.5981 -2.1921 -1.0902
   58CHL1    C9 5435   5.280   1.619   3.567 -0.5528 -0.0754 -0.0532
   58CHL1    H9 5436   5.299   1.515   3.535  0.7028  0.4511 -1.0913
   58CHL1   C10 5437   5.338   1.708   3.447 -0.9838  0.0829  0.0998
   58CHL1   C19 5438   5.345   1.861   3.492  0.5978 -0.8758  0.3706
   58CHL1  H19A 5439   5.245   1.889   3.531  1.1470 -1.2850  2.1540
   58CHL1  H19B 5440   5.417   1.880   3.574 -0.9221 -0.5442  1.6947
   58CHL1  H19C 5441   5.385   1.927   3.412 -0.3999 -0.7689 -0.0540
   58CHL1    C1 5442   5.485   1.668   3.419 -0.5113 -0.5967 -0.2519
   58CHL1   H1A 5443   5.544   1.692   3.509 -0.0807  2.4041 -1.2392
   58CHL1   H1B 5444   5.478   1.557   3.421 -1.4356 -0.5803  2.9018
   58CHL1    C2 5445   5.546   1.718   3.296  0.3663 -1.0793 -0.6499
   58CHL1   H2A 5446   5.654   1.697   3.278  0.6803  1.7282 -2.8243
   58CHL1   H2B 5447   5.551   1.829   3.296  3.6981 -1.1195  0.0798
   58CHL1   C20 5448   5.060   1.583   4.083 -0.8551  0.6910 -0.4678
   58CHL1   H20 5449   5.056   1.694   4.087  1.5173  0.8709 -1.4065
   58CHL1   C21 5450   5.201   1.551   4.140  0.6753  0.0906  1.2359
   58CHL1  H21A 5451   5.197   1.532   4.250  1.1611 -1.1619  1.0609
   58CHL1  H21B 5452   5.283   1.621   4.114 -1.3745  2.0908 -0.1991
   58CHL1  H21C 5453   5.232   1.451   4.102  2.1320  0.4152  1.4833
   58CHL1   C22 5454   4.947   1.523   4.175 -0.5032  0.2867 -0.1976
   58CHL1  H22A 5455   4.849   1.567   4.148  0.0160  1.0342 -0.9303
   58CHL1  H22B 5456   4.935   1.414   4.163 -1.1028  0.5263 -2.0041
   58CHL1   C23 5457   4.961   1.548   4.323  0.0315 -0.3071 -0.3319
   58CHL1  H23A 5458   5.017   1.465   4.371  3.0270  0.2765 -2.5334
   58CHL1  H23B 5459   5.020   1.641   4.338 -1.6292  1.0949 -1.9669
   58CHL1   C24 5460   4.817   1.569   4.395  0.5059  0.0756 -0.2692
   58CHL1  H24A 5461   4.781   1.667   4.356  2.7121  0.7138 -0.8258
   58CHL1  H24B 5462   4.747   1.488   4.364  0.8855 -0.8141  1.1544
   58CHL1   C25 5463   4.828   1.574   4.548  0.8142 -0.1327 -0.6959
   58CHL1   H25 5464   4.885   1.483   4.576 -1.1658 -2.1264 -2.6396
   58CHL1   C26 5465   4.909   1.700   4.593  0.1877 -0.5239 -0.1558
   58CHL1  H26A 5466   4.928   1.691   4.703 -0.1098  2.6823  0.2503
   58CHL1  H26B 5467   5.009   1.718   4.547  0.4238  1.3533  0.9758
   58CHL1  H26C 5468   4.846   1.790   4.574  1.5839  0.6544  0.5517
   58CHL1   C27 5469   4.682   1.592   4.594 -0.0231  0.5359  0.6528
   58CHL1  H27A 5470   4.615   1.516   4.549 -2.8870  2.6897  1.0155
   58CHL1  H27B 5471   4.668   1.590   4.704 -0.2643  1.0076  0.6347
   58CHL1  H27C 5472   4.635   1.689   4.568  0.8712  0.5913 -0.9293
   59CHL1    C3 5473   6.404   0.015   2.943  0.5553 -0.4731 -0.3174
   59CHL1    H3 5474   6.406   0.125   2.958  1.0492 -0.1436 -2.4952
   59CHL1    O3 5475   6.416  -0.003   2.806 -0.0177 -0.4459  0.3020
   59CHL1   H3' 5476   6.329  -0.020   2.769  0.8093  0.2790 -2.1177
   59CHL1    C4 5477   6.521  -0.053   3.025  0.3530 -0.4968  0.5033
   59CHL1   H4A 5478   6.520  -0.159   2.993  1.3805 -0.4364  0.2344
   59CHL1   H4B 5479   6.609  -0.005   2.978 -0.0753  2.1152  2.1489
   59CHL1    C5 5480   6.521  -0.048   3.172  0.3364 -0.4613  0.4340
   59CHL1    C6 5481   6.626  -0.001   3.248  0.4677 -0.3341 -0.0705
   59CHL1    H6 5482   6.717   0.033   3.197  0.1419  0.6455 -0.0247
   59CHL1    C7 5483   6.615   0.040   3.389 -0.6660  0.1462  0.1867
   59CHL1   H7A 5484   6.716   0.044   3.434 -0.4925  4.3976 -0.1612
   59CHL1   H7B 5485   6.587   0.147   3.398  3.6400  1.6223 -1.5908
   59CHL1    C8 5486   6.513  -0.051   3.455  0.6690  0.2230 -0.1413
   59CHL1    H8 5487   6.551  -0.156   3.457 -0.7448 -0.3676 -1.5998
   59CHL1   C14 5488   6.500  -0.000   3.603 -0.1471  0.2547 -0.2516
   59CHL1   H14 5489   6.470   0.107   3.600 -0.6481  0.2300  1.8406
   59CHL1   C15 5490   6.618   0.004   3.697 -0.2378  0.1294 -0.3687
   59CHL1  H15A 5491   6.666  -0.096   3.692 -0.4154  0.0286 -0.1162
   59CHL1  H15B 5492   6.698   0.074   3.666  2.6416 -3.3196 -1.3691
   59CHL1   C16 5493   6.554   0.033   3.833 -0.4901 -0.0696  0.3739
   59CHL1  H16A 5494   6.604  -0.022   3.916 -1.5859  0.1541  1.2111
   59CHL1  H16B 5495   6.564   0.141   3.855 -2.5755 -0.2834  2.9009
   59CHL1   C17 5496   6.401   0.007   3.824 -0.2285  0.4509  0.0652
   59CHL1   H17 5497   6.349   0.103   3.803 -0.9196  0.4348  1.5532
   59CHL1   C13 5498   6.392  -0.071   3.689  0.2015  0.4380 -0.7954
   59CHL1   C18 5499   6.424  -0.224   3.712  0.3745 -0.1694  0.4088
   59CHL1  H18A 5500   6.441  -0.272   3.613 -0.1548  0.9069 -0.2360
   59CHL1  H18B 5501   6.518  -0.225   3.772  0.4890  1.0612  0.2861
   59CHL1  H18C 5502   6.334  -0.267   3.760 -0.9714  0.0999 -1.7310
   59CHL1   C12 5503   6.266  -0.047   3.610  0.3485  0.1363  0.8236
   59CHL1  H12A 5504   6.175  -0.084   3.663 -0.4497 -0.4814 -0.9165
   59CHL1  H12B 5505   6.253   0.063   3.613  0.4889  0.1702  3.8109
   59CHL1   C11 5506   6.262  -0.102   3.467  0.3175 -0.3345 -0.7592
   59CHL1  H11A 5507   6.282  -0.212   3.472  1.7867 -0.1862 -2.5439
   59CHL1  H11B 5508   6.158  -0.081   3.435 -0.3956  0.1390  1.6361
   59CHL1    C9 5509   6.376  -0.040   3.380  0.4633 -0.2170  0.2241
   59CHL1    H9 5510   6.358   0.070   3.386 -0.0905 -0.2755 -0.2973
   59CHL1   C10 5511   6.385  -0.083   3.232 -1.2632  0.3583 -0.2787
   59CHL1   C19 5512   6.382  -0.239   3.224 -0.4939  0.0939 -0.6437
   59CHL1  H19A 5513   6.402  -0.279   3.122 -0.8530  1.4464 -1.2669
   59CHL1  H19B 5514   6.464  -0.272   3.291  0.6257  0.1094 -1.9680
   59CHL1  H19C 5515   6.282  -0.277   3.257 -0.7001  1.1118 -0.0665
   59CHL1    C1 5516   6.275  -0.012   3.152  0.0264  0.6985  0.1602
   59CHL1   H1A 5517   6.179  -0.035   3.201  0.2003  2.4597  1.4429
   59CHL1   H1B 5518   6.294   0.095   3.176  1.7402  0.5954 -0.5515
   59CHL1    C2 5519   6.270  -0.037   3.002 -0.3397 -0.4080 -0.4216
   59CHL1   H2A 5520   6.188   0.025   2.961 -0.6934  0.1735  1.0878
   59CHL1   H2B 5521   6.251  -0.141   2.968  1.9023 -1.3924  1.0967
   59CHL1   C20 5522   6.337  -0.053   3.949 -0.2120 -0.6783 -0.6096
   59CHL1   H20 5523   6.391  -0.146   3.976  0.5405  0.0616  0.5557
   59CHL1   C21 5524   6.187  -0.078   3.934 -0.1321  0.0544 -0.3273
   59CHL1  H21A 5525   6.132   0.016   3.912 -0.5361 -0.2138 -0.4803
   59CHL1  H21B 5526   6.152  -0.129   4.026  1.4944  0.8595  0.7886
   59CHL1  H21C 5527   6.168  -0.150   3.852  0.0753 -1.5478  0.9746
   59CHL1   C22 5528   6.368   0.048   4.054  0.0466 -0.3951 -0.0367
   59CHL1  H22A 5529   6.475   0.081   4.054  0.8428 -2.7748  1.0303
   59CHL1  H22B 5530   6.316   0.142   4.027  0.1793 -0.5773 -0.9457
   59CHL1   C23 5531   6.349  -0.010   4.198  0.2788  0.0554  0.0938
   59CHL1  H23A 5532   6.249  -0.056   4.209  0.5515 -0.2540  1.4680
   59CHL1  H23B 5533   6.421  -0.094   4.207  1.3168  1.1285  2.9709
   59CHL1   C24 5534   6.353   0.093   4.308 -0.6269  0.5027 -0.4305
   59CHL1  H24A 5535   6.450   0.140   4.333 -1.2934  0.0538  3.5766
   59CHL1  H24B 5536   6.285   0.175   4.275 -0.4063  0.4763 -0.9684
   59CHL1   C25 5537   6.329   0.036   4.450  0.3879 -0.1303  0.4349
   59CHL1   H25 5538   6.228  -0.010   4.450  0.8493 -1.1591  0.0678
   59CHL1   C26 5539   6.436  -0.067   4.492 -0.4126 -0.5258  0.3290
   59CHL1  H26A 5540   6.533  -0.014   4.504 -1.5145  1.1897  2.1527
   59CHL1  H26B 5541   6.401  -0.111   4.587  1.9855 -2.0503  0.5942
   59CHL1  H26C 5542   6.444  -0.153   4.422 -1.8493  0.2225 -0.8159
   59CHL1   C27 5543   6.316   0.144   4.556 -0.1016  0.6715  0.4014
   59CHL1  H27A 5544   6.307   0.095   4.655  0.6281 -0.0119  0.1382
   59CHL1  H27B 5545   6.396   0.221   4.554 -0.8701  1.5094 -1.6802
   59CHL1  H27C 5546   6.225   0.200   4.525  0.0060  1.1381  0.9171
   60CHL1    C3 5547   0.147   0.242   3.119  0.1039  0.4591 -0.8529
   60CHL1    H3 5548   0.061   0.312   3.119 -0.5580 -0.3286 -1.9824
   60CHL1    O3 5549   0.184   0.214   2.984 -0.2525  0.4639 -0.4237
   60CHL1   H3' 5550   0.096   0.230   2.949 -0.8524  2.0867  1.5950
   60CHL1    C4 5551   0.263   0.319   3.194 -0.5667  0.2951  0.1611
   60CHL1   H4A 5552   0.344   0.242   3.195 -1.1329 -0.3213 -0.4683
   60CHL1   H4B 5553   0.293   0.410   3.138 -1.7881  0.2165 -0.6578
   60CHL1    C5 5554   0.231   0.347   3.342 -0.3155 -0.1536  0.0470
   60CHL1    C6 5555   0.229   0.471   3.400  0.3165  0.6022  0.1437
   60CHL1    H6 5556   0.265   0.552   3.335  0.2733  2.5169  2.3829
   60CHL1    C7 5557   0.211   0.501   3.541  0.7106  0.1075  0.3703
   60CHL1   H7A 5558   0.297   0.565   3.571  0.2707  0.0649  1.8006
   60CHL1   H7B 5559   0.116   0.557   3.556  0.7502  1.0967 -2.3938
   60CHL1    C8 5560   0.204   0.378   3.639 -0.4735  1.0379 -0.5275
   60CHL1    H8 5561   0.307   0.339   3.657 -1.2889 -0.9180  0.2269
   60CHL1   C14 5562   0.135   0.399   3.771  0.7730 -0.4558  0.4483
   60CHL1   H14 5563   0.032   0.429   3.742  1.6109  1.5945 -0.5857
   60CHL1   C15 5564   0.169   0.518   3.869 -0.1971  0.1231 -0.4439
   60CHL1  H15A 5565   0.279   0.528   3.871 -0.1522  1.2664 -3.4343
   60CHL1  H15B 5566   0.133   0.619   3.840 -0.9811  0.0281  0.1519
   60CHL1   C16 5567   0.128   0.470   4.014  0.2148  0.0283  0.9229
   60CHL1  H16A 5568   0.228   0.460   4.061  0.5760  2.5868  0.8753
   60CHL1  H16B 5569   0.064   0.544   4.066  0.4460  1.7540 -1.0648
   60CHL1   C17 5570   0.043   0.342   3.985 -1.1205  0.1163 -0.3171
   60CHL1   H17 5571  -0.059   0.367   3.948 -1.6711 -1.0081  0.3981
   60CHL1   C13 5572   0.117   0.276   3.861  0.0992 -0.7182  0.2503
   60CHL1   C18 5573   0.253   0.216   3.909  0.0560 -0.5766  0.0908
   60CHL1  H18A 5574   0.232   0.158   4.001  0.4464 -0.2900  0.3672
   60CHL1  H18B 5575   0.303   0.151   3.834 -0.6106 -1.5668  0.4834
   60CHL1  H18C 5576   0.328   0.295   3.933 -0.6222  1.0004 -2.5056
   60CHL1   C12 5577   0.022   0.178   3.791 -0.1231 -0.3365  0.0851
   60CHL1  H12A 5578   0.023   0.086   3.854  0.6515  0.7486  1.7068
   60CHL1  H12B 5579  -0.084   0.209   3.788 -0.0194  0.0785  0.6933
   60CHL1   C11 5580   0.082   0.141   3.652 -0.0930  0.1788 -0.3787
   60CHL1  H11A 5581   0.181   0.094   3.669  0.5537  2.0109  1.2749
   60CHL1  H11B 5582   0.009   0.072   3.604 -1.4984  0.9751  0.5447
   60CHL1    C9 5583   0.118   0.269   3.564 -0.2573  0.8376  0.1906
   60CHL1    H9 5584   0.021   0.320   3.545 -0.0908  1.0210 -0.1832
   60CHL1   C10 5585   0.181   0.231   3.424  0.6050  0.1498  0.0937
   60CHL1   C19 5586   0.299   0.139   3.450 -0.4052 -0.0971  0.0375
   60CHL1  H19A 5587   0.275   0.046   3.506 -0.3837 -0.7387 -0.9797
   60CHL1  H19B 5588   0.340   0.104   3.352  1.7286  0.4046  0.6959
   60CHL1  H19C 5589   0.374   0.192   3.512  1.3721  0.1973 -2.2256
   60CHL1    C1 5590   0.078   0.140   3.345  0.2524 -0.4898  0.2664
   60CHL1   H1A 5591   0.058   0.050   3.407  0.0892  0.3657  1.4818
   60CHL1   H1B 5592  -0.018   0.196   3.336  0.4914  0.1327  1.4052
   60CHL1    C2 5593   0.124   0.108   3.200  0.5317  0.6703 -0.0526
   60CHL1   H2A 5594   0.049   0.054   3.139 -0.8133  0.8935  1.3267
   60CHL1   H2B 5595   0.217   0.048   3.196  0.3104  0.3767 -1.1643
   60CHL1   C20 5596   0.020   0.262   4.111  0.1983 -0.4601  0.3121
   60CHL1   H20 5597   0.096   0.182   4.121 -1.0946 -2.5472 -3.9647
   60CHL1   C21 5598  -0.115   0.199   4.101 -0.1656 -1.0301  0.3029
   60CHL1  H21A 5599  -0.151   0.156   4.005 -1.7045  1.3229 -0.2792
   60CHL1  H21B 5600  -0.194   0.269   4.136  0.1523  0.9390 -2.5783
   60CHL1  H21C 5601  -0.114   0.105   4.159  0.3661 -1.8776 -1.0344
   60CHL1   C22 5602   0.039   0.339   4.246 -0.0462 -0.5192  1.3268
   60CHL1  H22A 5603   0.148   0.361   4.248  0.1426 -0.6861 -1.8009
   60CHL1  H22B 5604  -0.022   0.430   4.263  1.3539  0.7192  0.0869
   60CHL1   C23 5605   0.018   0.261   4.383  0.0867  0.0550  0.4858
   60CHL1  H23A 5606  -0.084   0.218   4.388 -0.2396  0.7635  0.1693
   60CHL1  H23B 5607   0.078   0.168   4.379  0.0734  0.0857 -1.2205
   60CHL1   C24 5608   0.044   0.335   4.511 -0.7752  0.2202  0.1938
   60CHL1  H24A 5609   0.155   0.339   4.504 -0.8104 -0.7822 -1.5320
   60CHL1  H24B 5610  -0.002   0.436   4.508 -0.3880  0.3780 -0.9646
   60CHL1   C25 5611   0.021   0.257   4.648 -0.4431 -0.3960 -0.5081
   60CHL1   H25 5612   0.078   0.162   4.646  0.5014  0.0902  1.1774
   60CHL1   C26 5613   0.084   0.334   4.768  0.1681  0.1666 -0.3970
   60CHL1  H26A 5614   0.045   0.438   4.769 -0.2615  0.0806 -2.7242
   60CHL1  H26B 5615   0.055   0.273   4.857  0.5979  0.0351 -0.3427
   60CHL1  H26C 5616   0.194   0.336   4.758  0.1110  2.0913 -0.9745
   60CHL1   C27 5617  -0.118   0.239   4.685  0.4347 -0.2729 -0.1110
   60CHL1  H27A 5618  -0.130   0.171   4.773 -1.3220 -3.4671 -2.5849
   60CHL1  H27B 5619  -0.174   0.330   4.714 -3.1735 -2.1877 -0.5050
   60CHL1  H27C 5620  -0.182   0.202   4.602 -0.7296  0.5650  0.3977
   61CHL1    C3 5621   6.325   1.957   3.021 -0.0445 -0.3977 -0.0420
   61CHL1    H3 5622   6.427   1.933   2.986  0.6655  0.6529  1.2078
   61CHL1    O3 5623   6.246   1.951   2.904  0.4438  0.7994 -0.1737
   61CHL1   H3' 5624   6.282   2.027   2.857 -0.4492  1.1936 -0.2425
   61CHL1    C4 5625   6.279   1.844   3.119  0.1466  1.2828  0.0876
   61CHL1   H4A 5626   6.168   1.848   3.122 -0.0342  0.5093 -2.7492
   61CHL1   H4B 5627   6.306   1.748   3.069  0.6676  0.7199  1.3981
   61CHL1    C5 5628   6.345   1.863   3.253 -0.7034 -0.5488 -0.2991
   61CHL1    C6 5629   6.420   1.766   3.311 -0.2882 -0.1729  0.2386
   61CHL1    H6 5630   6.444   1.675   3.253 -1.6436 -0.0255 -0.5845
   61CHL1    C7 5631   6.454   1.761   3.457  0.9601 -0.6091 -0.4600
   61CHL1   H7A 5632   6.427   1.659   3.492  4.7166 -1.0302  1.7204
   61CHL1   H7B 5633   6.564   1.771   3.462  0.9146  1.2471 -2.1774
   61CHL1    C8 5634   6.398   1.885   3.537  0.3988 -0.2660 -0.0828
   61CHL1    H8 5635   6.299   1.850   3.572  0.7277 -2.0067 -0.8052
   61CHL1   C14 5636   6.484   1.908   3.661  0.8892 -0.2554 -0.1962
   61CHL1   H14 5637   6.582   1.952   3.632  0.2345 -0.1870 -2.4953
   61CHL1   C15 5638   6.518   1.793   3.753 -0.2125 -0.3069 -0.0411
   61CHL1  H15A 5639   6.435   1.721   3.768 -1.3535  0.4338 -2.4363
   61CHL1  H15B 5640   6.602   1.738   3.706 -1.1458 -0.7526 -1.2028
   61CHL1   C16 5641   6.548   1.865   3.890 -0.6183 -0.5094  0.3912
   61CHL1  H16A 5642   6.472   1.834   3.965 -0.8362  1.3863  1.0160
   61CHL1  H16B 5643   6.651   1.840   3.924 -0.1270  0.8389 -0.0442
   61CHL1   C17 5644   6.520   2.019   3.872  0.6945  0.2250  0.2329
   61CHL1   H17 5645   6.611   2.065   3.827  1.2153 -1.0445 -0.0702
   61CHL1   C13 5646   6.425   2.015   3.749 -0.4799  0.2240  0.8548
   61CHL1   C18 5647   6.293   1.968   3.805  0.0991  0.0093 -0.6345
   61CHL1  H18A 5648   6.211   1.954   3.732 -2.5934  0.5653  2.0892
   61CHL1  H18B 5649   6.302   1.875   3.866 -1.2494  0.1271 -0.2347
   61CHL1  H18C 5650   6.259   2.043   3.879  0.8869  0.7067 -0.9641
   61CHL1   C12 5651   6.411   2.141   3.665 -0.0131  0.4242 -0.0659
   61CHL1  H12A 5652   6.371   2.227   3.723  0.6502  0.8546 -0.2324
   61CHL1  H12B 5653   6.515   2.173   3.642  1.0574 -1.1225  2.2750
   61CHL1   C11 5654   6.322   2.120   3.537  0.4515 -0.3401 -0.4204
   61CHL1  H11A 5655   6.220   2.102   3.577  0.5546  0.9587  0.5107
   61CHL1  H11B 5656   6.328   2.207   3.468 -1.0778 -0.1372 -0.3257
   61CHL1    C9 5657   6.385   2.008   3.459 -0.0214 -0.3228 -0.2273
   61CHL1    H9 5658   6.488   2.048   3.443  0.0111  0.2664  1.3323
   61CHL1   C10 5659   6.315   1.994   3.321 -0.2614  0.2808 -0.2159
   61CHL1   C19 5660   6.153   2.009   3.347 -0.4963  0.3311  1.2651
   61CHL1  H19A 5661   6.144   1.938   3.431 -0.3625  1.0670  1.9107
   61CHL1  H19B 5662   6.134   2.109   3.391 -2.2855  0.2251  0.8039
   61CHL1  H19C 5663   6.088   1.991   3.258  0.2211  1.5357  0.4605
   61CHL1    C1 5664   6.367   2.108   3.214 -0.1747 -0.1476 -0.5012
   61CHL1   H1A 5665   6.336   2.212   3.242 -1.9161 -0.1370 -2.2066
   61CHL1   H1B 5666   6.477   2.117   3.203 -0.2977  1.1552 -0.8487
   61CHL1    C2 5667   6.304   2.100   3.075 -0.2919  0.6225 -0.3140
   61CHL1   H2A 5668   6.339   2.177   3.003 -1.7768 -0.3358 -2.1525
   61CHL1   H2B 5669   6.194   2.113   3.090 -0.6845 -0.7252 -1.7250
   61CHL1   C20 5670   6.489   2.104   3.997  0.6632 -0.5116 -0.2662
   61CHL1   H20 5671   6.385   2.089   4.031  0.9846 -0.6043  0.7000
   61CHL1   C21 5672   6.513   2.254   3.960  0.7601 -0.2486 -0.5643
   61CHL1  H21A 5673   6.614   2.261   3.913  0.6113 -0.3333 -0.8962
   61CHL1  H21B 5674   6.511   2.316   4.052 -0.5236 -1.6158  0.3692
   61CHL1  H21C 5675   6.428   2.284   3.896 -1.0347  1.5178  2.4043
   61CHL1   C22 5676   6.570   2.057   4.119 -0.0074 -0.2372 -0.2290
   61CHL1  H22A 5677   6.535   1.958   4.158  1.9467 -0.5874  0.7620
   61CHL1  H22B 5678   6.674   2.042   4.083  0.4465 -0.2730  1.0476
   61CHL1   C23 5679   6.572   2.152   4.243  0.5831  0.0735  0.3455
   61CHL1  H23A 5680   6.648   2.227   4.213  1.5227 -0.2479  1.8271
   61CHL1  H23B 5681   6.470   2.193   4.260  0.1793 -1.7437  2.9008
   61CHL1   C24 5682   6.629   2.082   4.367 -0.7712  0.6631 -0.0889
   61CHL1  H24A 5683   6.546   2.018   4.402 -0.4904  1.2418  1.7540
   61CHL1  H24B 5684   6.719   2.024   4.338 -0.6305  0.8185  0.0308
   61CHL1   C25 5685   6.672   2.153   4.494  0.4314  0.6997 -0.2496
   61CHL1   H25 5686   6.737   2.235   4.456 -0.2406  1.3744  0.0267
   61CHL1   C26 5687   6.543   2.218   4.555  0.8958 -0.2614  0.7862
   61CHL1  H26A 5688   6.519   2.301   4.486  1.9355  0.0669  0.7921
   61CHL1  H26B 5689   6.458   2.150   4.536  0.5565  1.1016 -3.6714
   61CHL1  H26C 5690   6.556   2.245   4.662  0.8753 -0.3988  0.8244
   61CHL1   C27 5691   6.745   2.077   4.601 -0.3045  0.1677  0.1562
   61CHL1  H27A 5692   6.835   2.037   4.551 -1.1443 -0.4180 -0.9184
   61CHL1  H27B 5693   6.774   2.161   4.668  3.7254  0.0841 -1.2326
   61CHL1  H27C 5694   6.690   1.997   4.655 -0.0389  0.0990  0.3289
   62CHL1    C3 5695   0.668   3.230   3.157  0.9524  0.5623 -0.3645
   62CHL1    H3 5696   0.681   3.120   3.172 -0.0324  0.0885 -2.5168
   62CHL1    O3 5697   0.647   3.256   3.018 -0.0247  0.7608  0.2269
   62CHL1   H3' 5698   0.587   3.330   3.006 -0.5340  0.0825 -1.8155
   62CHL1    C4 5699   0.549   3.265   3.238  0.2281  0.8228  0.5294
   62CHL1   H4A 5700   0.516   3.370   3.221 -0.7177  0.3081 -0.9789
   62CHL1   H4B 5701   0.469   3.204   3.192  0.4208  1.6099 -0.8881
   62CHL1    C5 5702   0.567   3.232   3.381 -0.4635 -0.0175 -0.1000
   62CHL1    C6 5703   0.496   3.133   3.442 -0.1588 -0.2248 -0.3949
   62CHL1    H6 5704   0.425   3.077   3.379 -1.1154  2.4289 -1.8451
   62CHL1    C7 5705   0.499   3.109   3.591  0.6286  0.9657  0.2200
   62CHL1   H7A 5706   0.395   3.125   3.626 -0.1259  1.6453 -2.1449
   62CHL1   H7B 5707   0.525   3.002   3.606 -0.0385  0.7575 -0.0573
   62CHL1    C8 5708   0.586   3.214   3.660 -0.4780  0.0489 -0.0952
   62CHL1    H8 5709   0.524   3.305   3.674 -0.8845 -0.1843 -0.3657
   62CHL1   C14 5710   0.610   3.172   3.803  0.3130 -0.6026  0.2150
   62CHL1   H14 5711   0.657   3.073   3.789 -2.3728 -1.8074 -0.9015
   62CHL1   C15 5712   0.486   3.137   3.891  0.1667  0.1670 -0.1442
   62CHL1  H15A 5713   0.408   3.217   3.894 -1.7424 -1.5635 -0.8659
   62CHL1  H15B 5714   0.435   3.045   3.856  1.1186 -0.1360 -0.7682
   62CHL1   C16 5715   0.555   3.115   4.029 -0.1437  0.2246 -0.3482
   62CHL1  H16A 5716   0.491   3.154   4.111  1.0991  1.0156  0.2682
   62CHL1  H16B 5717   0.588   3.010   4.035 -1.6006 -0.3781 -1.9936
   62CHL1   C17 5718   0.700   3.185   4.019 -0.5304  0.0216 -0.1209
   62CHL1   H17 5719   0.770   3.099   4.023  1.4860  1.5845  0.0162
   62CHL1   C13 5720   0.705   3.254   3.886  0.2815  0.7725 -0.3281
   62CHL1   C18 5721   0.636   3.395   3.901  0.4585  0.5489  0.2671
   62CHL1  H18A 5722   0.606   3.435   3.801 -0.7558  1.2032  0.8677
   62CHL1  H18B 5723   0.544   3.395   3.963 -0.8416  0.1236 -1.5689
   62CHL1  H18C 5724   0.693   3.476   3.950 -3.6217  4.3060 -0.5357
   62CHL1   C12 5725   0.844   3.263   3.819  0.2799  0.9597 -0.3934
   62CHL1  H12A 5726   0.908   3.337   3.871  1.0956  1.4326 -1.9902
   62CHL1  H12B 5727   0.883   3.160   3.804 -0.2151  0.4163  1.7308
   62CHL1   C11 5728   0.823   3.323   3.673 -0.0714 -0.2324  0.8573
   62CHL1  H11A 5729   0.787   3.428   3.680 -1.5692 -0.6499 -0.1309
   62CHL1  H11B 5730   0.918   3.323   3.615  0.6833 -3.2808  1.8995
   62CHL1    C9 5731   0.713   3.256   3.586  0.8879  0.6510 -0.0798
   62CHL1    H9 5732   0.759   3.156   3.570 -1.0935  0.1326 -3.3875
   62CHL1   C10 5733   0.678   3.315   3.450  0.3080  0.4232  0.3790
   62CHL1   C19 5734   0.632   3.463   3.457 -0.4418  0.4777 -0.0058
   62CHL1  H19A 5735   0.712   3.510   3.518  1.4942 -0.4665 -1.7057
   62CHL1  H19B 5736   0.615   3.506   3.356  0.3275  1.0110  0.0764
   62CHL1  H19C 5737   0.536   3.463   3.513  0.0435  0.4490  0.8447
   62CHL1    C1 5738   0.804   3.302   3.358  0.4807 -0.5000 -0.3941
   62CHL1   H1A 5739   0.882   3.371   3.396  0.0267  0.2962 -0.8857
   62CHL1   H1B 5740   0.842   3.198   3.371 -0.0513 -0.7345 -0.6907
   62CHL1    C2 5741   0.776   3.326   3.206 -0.0756 -0.5393 -0.0089
   62CHL1   H2A 5742   0.869   3.310   3.148 -0.6278  1.2678 -1.4889
   62CHL1   H2B 5743   0.740   3.431   3.196  1.0051 -0.1030  0.5280
   62CHL1   C20 5744   0.737   3.267   4.142 -0.0145 -0.5108  0.7581
   62CHL1   H20 5745   0.667   3.350   4.163  1.7147  0.9107  1.1657
   62CHL1   C21 5746   0.885   3.326   4.132  0.8253 -0.1807  0.1812
   62CHL1  H21A 5747   0.952   3.243   4.102 -2.1371 -2.6067 -0.2631
   62CHL1  H21B 5748   0.908   3.367   4.232  1.1803  1.2147 -0.4515
   62CHL1  H21C 5749   0.879   3.409   4.058  4.3849  1.1269  1.1897
   62CHL1   C22 5750   0.725   3.178   4.274  0.2424 -0.2051 -0.9713
   62CHL1  H22A 5751   0.738   3.242   4.364 -2.0842  1.0290 -1.4350
   62CHL1  H22B 5752   0.618   3.148   4.284  0.4204 -0.8716 -1.0066
   62CHL1   C23 5753   0.823   3.059   4.275 -0.0534 -0.5926 -0.3409
   62CHL1  H23A 5754   0.809   2.989   4.190  0.0629 -0.2574 -0.6372
   62CHL1  H23B 5755   0.927   3.095   4.286  0.7684 -2.7784 -0.3975
   62CHL1   C24 5756   0.804   2.971   4.409  0.1062  0.1727  0.3909
   62CHL1  H24A 5757   0.826   3.050   4.483 -0.3723  3.1655 -2.4251
   62CHL1  H24B 5758   0.695   2.947   4.409  0.1386 -0.1555 -1.5797
   62CHL1   C25 5759   0.894   2.849   4.421 -0.5725  0.1972  0.1745
   62CHL1   H25 5760   0.882   2.787   4.329  0.6775 -0.8986  0.7060
   62CHL1   C26 5761   1.040   2.887   4.431 -0.1603 -0.1080  0.0306
   62CHL1  H26A 5762   1.062   2.957   4.348  0.3693 -0.5898 -0.2431
   62CHL1  H26B 5763   1.063   2.931   4.530  1.4161 -2.9217  1.0393
   62CHL1  H26C 5764   1.116   2.809   4.411  0.3428  0.5194 -0.5793
   62CHL1   C27 5765   0.857   2.771   4.552  0.1923  0.4407  0.7344
   62CHL1  H27A 5766   0.753   2.733   4.544  0.2123  0.2792  1.1940
   62CHL1  H27B 5767   0.930   2.688   4.560  0.9077  0.8725 -0.8508
   62CHL1  H27C 5768   0.859   2.842   4.638 -2.7826  1.6736 -0.1005
   63CHL1    C3 5769   6.051   4.538   3.296  0.0537 -0.8821 -1.3333
   63CHL1    H3 5770   6.010   4.449   3.347 -2.7939  0.6860 -0.7161
   63CHL1    O3 5771   6.054   4.525   3.152 -0.0860 -0.2100 -0.2143
   63CHL1   H3' 5772   6.121   4.581   3.111  0.5308 -1.4728 -0.9911
   63CHL1    C4 5773   5.960   4.652   3.335  0.6010 -0.5305  0.0438
   63CHL1   H4A 5774   5.992   4.747   3.287  0.4132 -0.2981  0.3764
   63CHL1   H4B 5775   5.865   4.627   3.283  2.1380 -3.0317 -1.7991
   63CHL1    C5 5776   5.958   4.658   3.486  0.6848  0.1951  0.5252
   63CHL1    C6 5777   5.834   4.645   3.536  0.9005 -0.2270  0.6340
   63CHL1    H6 5778   5.747   4.639   3.469  0.2685  1.6896  1.2275
   63CHL1    C7 5779   5.812   4.651   3.685 -0.0777  0.1308  0.5255
   63CHL1   H7A 5780   5.731   4.724   3.705  0.9802  1.4462  0.2038
   63CHL1   H7B 5781   5.774   4.555   3.724 -1.1102  0.8292  1.2946
   63CHL1    C8 5782   5.935   4.706   3.768 -0.1501 -0.3561  0.5090
   63CHL1    H8 5783   5.928   4.815   3.751 -2.0430 -0.6099 -0.7358
   63CHL1   C14 5784   5.909   4.667   3.912  0.0053 -0.2111 -0.1108
   63CHL1   H14 5785   5.918   4.556   3.910 -1.2590 -0.3995  1.5591
   63CHL1   C15 5786   5.778   4.707   3.986  0.1651 -0.0494 -0.1344
   63CHL1  H15A 5787   5.739   4.804   3.948 -0.0786 -0.5163 -1.1056
   63CHL1  H15B 5788   5.697   4.632   3.972  0.8771 -1.1348  1.2569
   63CHL1   C16 5789   5.816   4.713   4.133 -0.0929  0.4446  0.7404
   63CHL1  H16A 5790   5.787   4.810   4.179  0.0655  0.3425  1.0599
   63CHL1  H16B 5791   5.778   4.621   4.185  0.2535 -0.5641 -0.7422
   63CHL1   C17 5792   5.974   4.689   4.142  0.5970 -0.5153  0.2881
   63CHL1   H17 5793   5.996   4.581   4.153  2.1255 -0.7256 -3.4183
   63CHL1   C13 5794   6.022   4.729   3.999 -0.0660  0.4748 -0.7433
   63CHL1   C18 5795   6.026   4.881   3.988 -0.5670  0.7333 -0.6191
   63CHL1  H18A 5796   6.107   4.926   4.049 -1.6098 -0.3159  1.6738
   63CHL1  H18B 5797   6.029   4.928   3.887 -1.3313  2.8300  0.2727
   63CHL1  H18C 5798   5.932   4.925   4.028 -1.7795 -1.4364 -0.9305
   63CHL1   C12 5799   6.153   4.656   3.966  0.0327 -0.2328  0.3857
   63CHL1  H12A 5800   6.244   4.672   4.028  0.9137  0.5780 -1.0618
   63CHL1  H12B 5801   6.136   4.546   3.972 -2.4638  0.0232 -0.7480
   63CHL1   C11 5802   6.190   4.688   3.816  0.8381 -0.2406  0.4976
   63CHL1  H11A 5803   6.216   4.794   3.796  2.9530 -1.0396 -1.3899
   63CHL1  H11B 5804   6.286   4.640   3.787  1.3667  1.0531  0.0310
   63CHL1    C9 5805   6.075   4.649   3.718  0.5776  0.5841  0.5609
   63CHL1    H9 5806   6.054   4.542   3.737  2.5516 -0.0155 -0.3688
   63CHL1   C10 5807   6.092   4.680   3.562  0.1654  0.1859  0.3268
   63CHL1   C19 5808   6.126   4.827   3.538 -0.4756 -0.1301  0.4899
   63CHL1  H19A 5809   6.127   4.853   3.430 -1.2180 -0.1009  0.4844
   63CHL1  H19B 5810   6.066   4.897   3.599  2.8774  1.3937  2.2780
   63CHL1  H19C 5811   6.227   4.849   3.577  1.5269 -1.1086 -3.5985
   63CHL1    C1 5812   6.195   4.578   3.506  0.3272 -0.4050 -0.6047
   63CHL1   H1A 5813   6.297   4.605   3.542 -0.4776  0.2903  1.2683
   63CHL1   H1B 5814   6.177   4.478   3.551 -1.1837 -0.5930 -1.5566
   63CHL1    C2 5815   6.192   4.565   3.352 -0.6043  0.3472 -0.3664
   63CHL1   H2A 5816   6.250   4.478   3.312 -0.7361  1.1834 -2.5211
   63CHL1   H2B 5817   6.237   4.651   3.299  0.4951  0.2224  0.3285
   63CHL1   C20 5818   6.034   4.756   4.266 -0.7106 -0.4349  0.0957
   63CHL1   H20 5819   6.016   4.866   4.261 -1.1128 -0.5351 -1.0951
   63CHL1   C21 5820   6.187   4.730   4.271  0.2322  0.1679  0.1453
   63CHL1  H21A 5821   6.233   4.797   4.196  1.5108  0.4555  1.1473
   63CHL1  H21B 5822   6.212   4.625   4.248  2.5567  0.3914  1.3511
   63CHL1  H21C 5823   6.239   4.743   4.368  0.3158 -1.5147  0.3487
   63CHL1   C22 5824   5.969   4.703   4.401 -0.2376 -0.3786 -0.0311
   63CHL1  H22A 5825   5.859   4.691   4.389 -0.6259  1.0641  1.7047
   63CHL1  H22B 5826   6.016   4.609   4.435  0.8479  0.0466 -0.2806
   63CHL1   C23 5827   5.992   4.800   4.518 -0.1093  0.3355 -0.9944
   63CHL1  H23A 5828   6.099   4.830   4.526  0.0967 -0.6791  0.2585
   63CHL1  H23B 5829   5.933   4.888   4.485 -0.4816 -0.3037 -2.0935
   63CHL1   C24 5830   5.941   4.761   4.657 -0.0451 -0.2656 -0.1647
   63CHL1  H24A 5831   5.832   4.742   4.660  0.1506 -1.4251 -0.0121
   63CHL1  H24B 5832   5.971   4.661   4.693 -2.5087  0.2518  4.0175
   63CHL1   C25 5833   5.970   4.868   4.777  0.0893 -0.3734 -0.0099
   63CHL1   H25 5834   6.078   4.854   4.800  0.6839  0.2077 -2.2266
   63CHL1   C26 5835   5.950   5.010   4.744  0.3474 -0.7540  0.5926
   63CHL1  H26A 5836   5.983   5.069   4.833  0.6816  0.1004 -0.0788
   63CHL1  H26B 5837   6.008   5.043   4.655 -0.7458  2.7326  1.0124
   63CHL1  H26C 5838   5.844   5.026   4.714  0.1882 -2.6016  0.0734
   63CHL1   C27 5839   5.896   4.815   4.907  0.6838 -0.0367  1.1559
   63CHL1  H27A 5840   5.787   4.829   4.892  0.7167 -0.6324  0.3037
   63CHL1  H27B 5841   5.931   4.712   4.930  1.2579 -0.3748 -0.9926
   63CHL1  H27C 5842   5.928   4.873   4.996  0.6435  1.3811  0.2811
   64CHL1    C3 5843   4.845   4.539   3.135  0.4059  0.2231 -0.9269
   64CHL1    H3 5844   4.791   4.442   3.133  1.4663 -0.3701 -2.1652
   64CHL1    O3 5845   4.863   4.575   2.997 -0.0864 -0.2340 -0.2849
   64CHL1   H3' 5846   4.931   4.642   2.992 -1.4292  1.2104 -0.0894
   64CHL1    C4 5847   4.750   4.642   3.200  0.1296 -0.4480  0.5217
   64CHL1   H4A 5848   4.799   4.741   3.193  2.2403 -1.4200  0.5858
   64CHL1   H4B 5849   4.650   4.651   3.152 -0.6963  1.1463  2.4146
   64CHL1    C5 5850   4.733   4.626   3.349 -0.5402  0.3017 -0.0686
   64CHL1    C6 5851   4.612   4.619   3.401  0.3455 -0.4272 -0.6472
   64CHL1    H6 5852   4.518   4.629   3.344 -0.5776  0.5073  0.9362
   64CHL1    C7 5853   4.592   4.622   3.549  0.5320 -0.4029 -0.4692
   64CHL1   H7A 5854   4.529   4.704   3.588 -0.7188 -1.7264  0.4203
   64CHL1   H7B 5855   4.541   4.531   3.588  1.3240 -0.1358  1.2414
   64CHL1    C8 5856   4.721   4.638   3.636 -0.2409  0.0931 -0.1434
   64CHL1    H8 5857   4.749   4.743   3.615 -1.5382 -0.0403 -3.1547
   64CHL1   C14 5858   4.706   4.596   3.778  0.0713  0.3356 -0.2471
   64CHL1   H14 5859   4.693   4.485   3.769 -1.2914  0.4726 -0.2104
   64CHL1   C15 5860   4.578   4.630   3.860 -0.1673  0.4500 -0.1549
   64CHL1  H15A 5861   4.542   4.734   3.844 -3.5134 -0.5276  0.3062
   64CHL1  H15B 5862   4.495   4.556   3.853  0.2736 -0.4532  2.7882
   64CHL1   C16 5863   4.634   4.628   4.006 -0.4078  0.7606  0.0406
   64CHL1  H16A 5864   4.617   4.727   4.054 -0.5903  1.1934 -0.8808
   64CHL1  H16B 5865   4.574   4.557   4.067  0.6771  1.5546  2.1166
   64CHL1   C17 5866   4.777   4.573   4.002  0.1950 -1.0045  0.2614
   64CHL1   H17 5867   4.759   4.464   3.987  0.1834 -0.9899  0.1672
   64CHL1   C13 5868   4.828   4.620   3.861  1.2527 -0.1206 -0.5468
   64CHL1   C18 5869   4.849   4.772   3.876  0.1091  0.1087  0.2336
   64CHL1  H18A 5870   4.890   4.815   3.783  0.0662 -1.3478 -0.4900
   64CHL1  H18B 5871   4.757   4.821   3.914 -0.4888 -0.8724  0.0936
   64CHL1  H18C 5872   4.929   4.801   3.947  3.5190  1.6397 -3.8507
   64CHL1   C12 5873   4.944   4.536   3.804 -0.0104 -0.3281 -0.2782
   64CHL1  H12A 5874   5.029   4.558   3.872 -0.2049 -0.1905 -0.0763
   64CHL1  H12B 5875   4.909   4.433   3.823 -0.3058  0.1450  1.9830
   64CHL1   C11 5876   4.978   4.564   3.660  0.5924 -0.3287  0.5849
   64CHL1  H11A 5877   5.026   4.664   3.661 -2.5918  1.3312 -0.0621
   64CHL1  H11B 5878   5.058   4.495   3.625 -0.2130  0.0982 -2.4342
   64CHL1    C9 5879   4.846   4.570   3.572 -0.2578  0.5768 -0.1339
   64CHL1    H9 5880   4.813   4.465   3.560  0.6529  0.0481  1.6461
   64CHL1   C10 5881   4.867   4.612   3.425 -0.1164  0.2780  0.0184
   64CHL1   C19 5882   4.942   4.746   3.415  0.2145 -0.1536 -0.6561
   64CHL1  H19A 5883   4.904   4.833   3.473  1.1282  0.5860 -1.1260
   64CHL1  H19B 5884   5.046   4.724   3.448 -0.1964 -2.2013 -0.6017
   64CHL1  H19C 5885   4.962   4.778   3.310  1.2484 -0.7259 -0.6494
   64CHL1    C1 5886   4.960   4.513   3.359  0.0204  0.3165  0.2794
   64CHL1   H1A 5887   5.063   4.520   3.401 -0.5989 -0.8699  2.1400
   64CHL1   H1B 5888   4.923   4.411   3.383 -1.7278  1.0388  0.7874
   64CHL1    C2 5889   4.978   4.526   3.206 -0.2547  0.6034 -0.5275
   64CHL1   H2A 5890   5.042   4.443   3.168  0.7466  1.8756 -1.7513
   64CHL1   H2B 5891   5.032   4.620   3.179 -0.6952  0.6016 -1.4642
   64CHL1   C20 5892   4.877   4.586   4.119  0.5998 -0.8771  0.1375
   64CHL1   H20 5893   4.976   4.621   4.082 -0.2995  0.1855 -1.3936
   64CHL1   C21 5894   4.893   4.443   4.183 -0.3521  0.1249 -0.1547
   64CHL1  H21A 5895   4.795   4.401   4.211 -0.5553 -1.0872 -2.4559
   64CHL1  H21B 5896   4.957   4.452   4.273 -0.8449 -0.0924  0.2192
   64CHL1  H21C 5897   4.928   4.379   4.099 -1.2998  0.6107 -0.9511
   64CHL1   C22 5898   4.837   4.698   4.217  0.5810 -0.4036 -0.5503
   64CHL1  H22A 5899   4.816   4.784   4.150 -1.8114  0.0595  0.6663
   64CHL1  H22B 5900   4.742   4.661   4.261  1.7559 -2.1441  0.6700
   64CHL1   C23 5901   4.939   4.732   4.329  0.2940  0.6314  0.0465
   64CHL1  H23A 5902   4.965   4.637   4.380 -0.4005 -0.1842 -1.0527
   64CHL1  H23B 5903   5.036   4.757   4.280  0.0039 -1.2373 -1.6291
   64CHL1   C24 5904   4.880   4.824   4.433  0.1124  0.8625  0.0406
   64CHL1  H24A 5905   4.857   4.920   4.383 -0.7768  0.2950 -0.6718
   64CHL1  H24B 5906   4.787   4.782   4.477  0.2966  0.0864 -0.2899
   64CHL1   C25 5907   4.971   4.845   4.564 -0.3545 -0.1044  1.1160
   64CHL1   H25 5908   5.060   4.784   4.538  0.4001  1.3433  0.1651
   64CHL1   C26 5909   5.011   4.988   4.567  0.0727 -0.1694  0.2819
   64CHL1  H26A 5910   5.053   5.015   4.666 -2.0761 -0.1237  1.2403
   64CHL1  H26B 5911   5.087   5.020   4.493 -0.4041  1.1608  0.3493
   64CHL1  H26C 5912   4.924   5.057   4.562 -0.6906 -1.1937 -2.2643
   64CHL1   C27 5913   4.915   4.801   4.693 -0.4590 -0.5216  0.3369
   64CHL1  H27A 5914   4.820   4.850   4.726  0.8277  1.5965  1.1234
   64CHL1  H27B 5915   4.895   4.693   4.681 -0.9234 -0.8081  3.0456
   64CHL1  H27C 5916   4.984   4.810   4.779 -1.0594  1.6664  0.6642
   65CHL1    C3 5917   2.049   2.850   2.746  0.0295 -0.1816  0.4607
   65CHL1    H3 5918   2.031   2.742   2.763 -0.9991 -0.0102  0.5780
   65CHL1    O3 5919   1.990   2.874   2.619  0.2210 -0.3944  0.1389
   65CHL1   H3' 5920   1.970   2.968   2.614 -0.3763 -0.4441  1.2344
   65CHL1    C4 5921   1.971   2.931   2.845  0.5172  0.0840  0.1550
   65CHL1   H4A 5922   1.983   3.037   2.815 -1.9001 -0.0375 -1.6496
   65CHL1   H4B 5923   1.860   2.921   2.841  0.4500  0.9898 -0.8954
   65CHL1    C5 5924   2.026   2.913   2.985  0.5620 -0.6741  0.6996
   65CHL1    C6 5925   1.949   2.853   3.078 -0.1259  0.6182  0.3173
   65CHL1    H6 5926   1.847   2.818   3.056  0.3643 -0.0688 -0.9743
   65CHL1    C7 5927   2.000   2.822   3.215 -0.1048 -0.9905  0.1347
   65CHL1   H7A 5928   1.931   2.856   3.295 -0.1395 -0.0466 -0.2754
   65CHL1   H7B 5929   2.007   2.712   3.225  0.2359 -0.8963  0.9890
   65CHL1    C8 5930   2.133   2.898   3.242 -0.5744 -0.2322 -0.2096
   65CHL1    H8 5931   2.098   3.003   3.247  0.0061  0.3181 -4.0375
   65CHL1   C14 5932   2.191   2.837   3.368  0.2479  0.0934 -0.1447
   65CHL1   H14 5933   2.209   2.731   3.338 -1.7887 -0.5037  0.5554
   65CHL1   C15 5934   2.091   2.822   3.486  0.7580  0.2318 -0.4118
   65CHL1  H15A 5935   2.032   2.914   3.507  0.5570 -0.1294  0.6574
   65CHL1  H15B 5936   2.029   2.733   3.464  0.8942  0.2900 -1.0485
   65CHL1   C16 5937   2.183   2.798   3.606  0.2564 -0.8442 -0.1570
   65CHL1  H16A 5938   2.142   2.873   3.677 -0.2897 -1.8927  0.6520
   65CHL1  H16B 5939   2.165   2.702   3.658  2.2615  0.0901  2.4852
   65CHL1   C17 5940   2.329   2.834   3.561 -0.1560  0.0871 -0.2774
   65CHL1   H17 5941   2.371   2.735   3.534  1.7833  0.2383  1.8756
   65CHL1   C13 5942   2.316   2.901   3.419 -0.1407  0.5521 -0.9315
   65CHL1   C18 5943   2.303   3.049   3.447  0.3775 -0.3186 -0.1474
   65CHL1  H18A 5944   2.397   3.103   3.472 -0.0394  0.2418  0.2259
   65CHL1  H18B 5945   2.258   3.114   3.369  0.9496  1.4157  0.9209
   65CHL1  H18C 5946   2.231   3.055   3.531 -0.1867  0.1754 -0.6626
   65CHL1   C12 5947   2.424   2.875   3.317 -0.3521  0.2713  0.7006
   65CHL1  H12A 5948   2.523   2.913   3.349  1.0180 -1.8972 -0.6258
   65CHL1  H12B 5949   2.443   2.766   3.303 -1.7446  0.1028 -0.1458
   65CHL1   C11 5950   2.383   2.930   3.176  0.7489 -0.1904  0.3390
   65CHL1  H11A 5951   2.403   3.040   3.176  0.3361 -0.1014  1.5205
   65CHL1  H11B 5952   2.455   2.889   3.102  0.1186  0.8013 -0.8589
   65CHL1    C9 5953   2.241   2.880   3.133 -0.3936 -0.2427 -0.2175
   65CHL1    H9 5954   2.239   2.771   3.110 -0.6337 -0.4341  0.6832
   65CHL1   C10 5955   2.183   2.936   2.999 -0.8843 -0.2872  0.1386
   65CHL1   C19 5956   2.226   3.085   2.990 -0.0738 -0.6627  0.3048
   65CHL1  H19A 5957   2.336   3.094   2.976  0.3052 -2.7516  1.4119
   65CHL1  H19B 5958   2.182   3.147   2.909  0.1562 -0.4270  0.3589
   65CHL1  H19C 5959   2.214   3.126   3.093 -0.1841 -0.9923  0.4252
   65CHL1    C1 5960   2.258   2.860   2.879 -0.0748  0.3636  0.1976
   65CHL1   H1A 5961   2.363   2.894   2.872 -0.1121  0.2802 -0.8940
   65CHL1   H1B 5962   2.239   2.751   2.890 -4.4193  0.8794 -0.5404
   65CHL1    C2 5963   2.200   2.886   2.740 -0.2848 -0.2156 -0.3416
   65CHL1   H2A 5964   2.247   2.829   2.657 -3.2735  0.3741 -2.6426
   65CHL1   H2B 5965   2.203   2.991   2.704  0.3184 -0.5418 -1.2716
   65CHL1   C20 5966   2.419   2.898   3.667 -0.5145 -0.5535 -0.0776
   65CHL1   H20 5967   2.375   2.995   3.695 -1.2197 -0.9141  0.0894
   65CHL1   C21 5968   2.568   2.917   3.616  0.7085  0.2110 -0.6510
   65CHL1  H21A 5969   2.640   2.942   3.697  1.2271  0.7443 -1.2720
   65CHL1  H21B 5970   2.566   2.996   3.539 -2.4079  0.3159 -0.6037
   65CHL1  H21C 5971   2.602   2.815   3.586 -0.6195 -0.5800  0.3818
   65CHL1   C22 5972   2.429   2.816   3.799  0.4303 -0.0748 -0.7663
   65CHL1  H22A 5973   2.329   2.777   3.831  0.1548  0.7548 -0.5972
   65CHL1  H22B 5974   2.498   2.730   3.787  2.0891  1.2257 -0.8214
   65CHL1   C23 5975   2.473   2.908   3.909  0.3831 -0.4781  0.5623
   65CHL1  H23A 5976   2.577   2.948   3.901  0.8525 -1.7222  0.3202
   65CHL1  H23B 5977   2.409   2.997   3.925  0.0797 -0.8448  1.5039
   65CHL1   C24 5978   2.460   2.835   4.043 -0.0412  0.4590 -0.1078
   65CHL1  H24A 5979   2.358   2.790   4.051 -0.2530  1.2552  2.7090
   65CHL1  H24B 5980   2.538   2.756   4.038  1.2282  1.6050  0.6943
   65CHL1   C25 5981   2.487   2.921   4.165  1.0985 -0.0667 -0.1752
   65CHL1   H25 5982   2.413   3.004   4.167  1.6017  0.4410 -1.4543
   65CHL1   C26 5983   2.453   2.841   4.291 -0.5190  0.2494  0.1355
   65CHL1  H26A 5984   2.520   2.752   4.299  0.0815  0.5639 -1.1255
   65CHL1  H26B 5985   2.441   2.882   4.393 -1.9506 -3.0187  1.4349
   65CHL1  H26C 5986   2.359   2.785   4.271  0.1152 -0.9361  0.3737
   65CHL1   C27 5987   2.623   2.982   4.167  0.2399 -0.0703  0.0275
   65CHL1  H27A 5988   2.699   2.901   4.159  2.1299  1.5784  0.4480
   65CHL1  H27B 5989   2.645   3.046   4.078  0.9569  2.1385  1.6910
   65CHL1  H27C 5990   2.652   3.042   4.256  0.0113 -1.2488  0.9222
   66CHL1    C3 5991   4.231   2.871   2.567 -0.0336  0.5972  0.0875
   66CHL1    H3 5992   4.282   2.970   2.572  0.8561  0.1260  0.5381
   66CHL1    O3 5993   4.187   2.851   2.434 -0.5395  0.5180 -0.3855
   66CHL1   H3' 5994   4.153   2.761   2.424 -0.8891  0.7395 -1.2396
   66CHL1    C4 5995   4.344   2.766   2.599 -0.4182  0.2928  0.4326
   66CHL1   H4A 5996   4.299   2.666   2.580 -3.6262  1.4352  1.3243
   66CHL1   H4B 5997   4.426   2.784   2.526 -0.1673 -0.0934  0.6135
   66CHL1    C5 5998   4.383   2.787   2.746  0.2928 -0.9044  1.3942
   66CHL1    C6 5999   4.511   2.819   2.774  0.1817 -0.4588 -0.2897
   66CHL1    H6 6000   4.582   2.831   2.691  1.1043 -1.6486  0.3019
   66CHL1    C7 6001   4.562   2.836   2.913 -0.7719  0.0623 -0.5825
   66CHL1   H7A 6002   4.654   2.777   2.934  0.4963  0.8857 -3.3647
   66CHL1   H7B 6003   4.575   2.944   2.936  0.6699 -0.2994  0.4607
   66CHL1    C8 6004   4.464   2.781   3.028 -0.8373 -0.1273  0.2187
   66CHL1    H8 6005   4.465   2.670   3.024 -0.8498 -0.1058 -0.5163
   66CHL1   C14 6006   4.507   2.820   3.167  0.1499  0.9662 -0.6417
   66CHL1   H14 6007   4.508   2.931   3.164 -0.8320  0.9896 -0.3248
   66CHL1   C15 6008   4.650   2.797   3.222  0.5857 -0.6596 -0.2676
   66CHL1  H15A 6009   4.683   2.693   3.197  1.1114 -0.7065  0.5805
   66CHL1  H15B 6010   4.710   2.875   3.171 -2.5255  0.4062 -2.6002
   66CHL1   C16 6011   4.638   2.820   3.378 -0.2134 -0.5041  0.2796
   66CHL1  H16A 6012   4.671   2.719   3.410 -0.8915 -0.8361 -0.0438
   66CHL1  H16B 6013   4.706   2.897   3.420  1.6234 -1.0239 -1.5860
   66CHL1   C17 6014   4.488   2.845   3.400  0.4386  0.0297 -0.2958
   66CHL1   H17 6015   4.492   2.955   3.385  1.2682 -0.1380 -1.4748
   66CHL1   C13 6016   4.415   2.780   3.282  0.4358  0.4687 -0.6761
   66CHL1   C18 6017   4.405   2.630   3.318 -0.0855  0.5485 -0.2814
   66CHL1  H18A 6018   4.505   2.593   3.347 -0.4351 -0.0770  0.1371
   66CHL1  H18B 6019   4.341   2.607   3.406 -0.4583 -0.6778 -0.8428
   66CHL1  H18C 6020   4.372   2.567   3.232 -1.8323  0.8185  0.1606
   66CHL1   C12 6021   4.281   2.846   3.242 -0.3304 -0.0460  0.4557
   66CHL1  H12A 6022   4.204   2.826   3.320 -0.6671  0.3070  0.2194
   66CHL1  H12B 6023   4.309   2.953   3.231  1.9603 -0.7232 -1.1567
   66CHL1   C11 6024   4.228   2.795   3.105 -0.0564 -0.5672 -0.5403
   66CHL1  H11A 6025   4.214   2.686   3.122 -1.9582 -0.2365  0.3256
   66CHL1  H11B 6026   4.127   2.839   3.092 -0.1122 -1.1595 -2.2747
   66CHL1    C9 6027   4.324   2.819   2.994  0.0706  0.0250  0.5694
   66CHL1    H9 6028   4.329   2.929   2.987  0.2470  0.1778  2.5774
   66CHL1   C10 6029   4.272   2.775   2.849 -0.3821 -0.6652  0.0276
   66CHL1   C19 6030   4.227   2.625   2.847 -0.0517 -0.2948  0.1018
   66CHL1  H19A 6031   4.317   2.565   2.871 -0.1092 -0.0514  0.9844
   66CHL1  H19B 6032   4.144   2.614   2.921 -0.0409  1.6070  0.4676
   66CHL1  H19C 6033   4.196   2.595   2.745 -0.0459 -2.6407  0.7396
   66CHL1    C1 6034   4.160   2.878   2.809 -0.3034 -0.8533  0.1982
   66CHL1   H1A 6035   4.074   2.868   2.879 -1.0945 -0.0990 -0.6345
   66CHL1   H1B 6036   4.203   2.980   2.820 -0.0067 -1.0045  0.4537
   66CHL1    C2 6037   4.116   2.860   2.659 -0.4847  0.6741 -0.0290
   66CHL1   H2A 6038   4.042   2.943   2.646 -1.0686  1.0088  3.9163
   66CHL1   H2B 6039   4.056   2.767   2.645  0.3975 -0.1827  1.5954
   66CHL1   C20 6040   4.421   2.832   3.540  0.7688  0.0211 -0.2914
   66CHL1   H20 6041   4.357   2.742   3.552 -0.2503  0.7025 -0.4752
   66CHL1   C21 6042   4.320   2.948   3.562 -0.2634 -0.7654  0.1065
   66CHL1  H21A 6043   4.231   2.928   3.498 -0.6715  0.1781  0.3621
   66CHL1  H21B 6044   4.370   3.044   3.540  1.3139 -1.2427  1.4307
   66CHL1  H21C 6045   4.290   2.957   3.669  1.0068 -0.0230  0.4220
   66CHL1   C22 6046   4.536   2.821   3.649 -0.3814  0.3017  0.0734
   66CHL1  H22A 6047   4.603   2.736   3.624  1.6950  1.8573  0.0830
   66CHL1  H22B 6048   4.586   2.914   3.615  2.1774 -1.1307 -0.2956
   66CHL1   C23 6049   4.498   2.815   3.798  0.1150 -0.2006 -0.1079
   66CHL1  H23A 6050   4.427   2.899   3.817 -1.6329 -0.6829 -3.5082
   66CHL1  H23B 6051   4.445   2.721   3.823  1.4467 -0.7598  0.6699
   66CHL1   C24 6052   4.618   2.814   3.893  0.5817  0.2978 -0.7609
   66CHL1  H24A 6053   4.653   2.708   3.901  0.3289  0.3594  2.9652
   66CHL1  H24B 6054   4.702   2.879   3.859 -0.5598  2.6306  0.6298
   66CHL1   C25 6055   4.581   2.853   4.043  0.1197 -0.1059 -0.1601
   66CHL1   H25 6056   4.538   2.955   4.050  1.7281  0.4982  1.5919
   66CHL1   C26 6057   4.460   2.766   4.091  0.0651  0.4042  0.7463
   66CHL1  H26A 6058   4.415   2.805   4.185 -0.8865  3.1194 -0.7197
   66CHL1  H26B 6059   4.377   2.760   4.017 -1.0897 -2.0744  2.1244
   66CHL1  H26C 6060   4.495   2.662   4.106  0.1911 -0.0409 -2.0969
   66CHL1   C27 6061   4.707   2.822   4.125 -0.2253  0.8013 -0.1638
   66CHL1  H27A 6062   4.696   2.854   4.231 -0.7002 -1.5339  0.5596
   66CHL1  H27B 6063   4.791   2.879   4.080  0.0756  0.5325  0.0511
   66CHL1  H27C 6064   4.715   2.712   4.115 -0.3629  0.8924 -1.5041
   67CHL1    C3 6065   1.204   6.484   3.036 -0.1016  0.2822 -0.0619
   67CHL1    H3 6066   1.299   6.437   3.069  2.2822  4.6310  0.1572
   67CHL1    O3 6067   1.151   6.443   2.910  0.7021 -0.4951  0.5596
   67CHL1   H3' 6068   1.119   6.353   2.920  3.3312 -1.4545  1.0171
   67CHL1    C4 6069   1.102   6.464   3.147 -0.5808 -0.1406 -0.2775
   67CHL1   H4A 6070   1.014   6.523   3.114  0.0294  1.0849  0.2256
   67CHL1   H4B 6071   1.068   6.359   3.160 -1.5392  0.1796 -0.1653
   67CHL1    C5 6072   1.143   6.510   3.288  0.6684 -0.1736  0.9258
   67CHL1    C6 6073   1.139   6.439   3.400 -0.0694 -0.9211  0.3348
   67CHL1    H6 6074   1.102   6.335   3.401  2.0540 -1.7298 -0.0175
   67CHL1    C7 6075   1.186   6.484   3.538 -0.5860  0.2509  0.6155
   67CHL1   H7A 6076   1.116   6.442   3.613 -0.2929 -1.0602  0.1964
   67CHL1   H7B 6077   1.285   6.441   3.562 -1.0505 -2.0830 -1.1979
   67CHL1    C8 6078   1.206   6.635   3.542  0.4185 -0.1234  0.1844
   67CHL1    H8 6079   1.104   6.677   3.535  0.4606  0.0739  0.7057
   67CHL1   C14 6080   1.282   6.671   3.667  0.4099  0.0828  0.6208
   67CHL1   H14 6081   1.375   6.611   3.671 -0.4584 -1.2868  1.3042
   67CHL1   C15 6082   1.205   6.642   3.794 -0.2606  0.0133 -1.1141
   67CHL1  H15A 6083   1.095   6.658   3.789 -0.6552 -1.9817 -0.1804
   67CHL1  H15B 6084   1.220   6.532   3.803 -1.0897 -0.0014  0.5891
   67CHL1   C16 6085   1.272   6.720   3.902  0.0558 -0.3132 -0.3411
   67CHL1  H16A 6086   1.205   6.763   3.979 -1.7214 -2.3319 -0.6772
   67CHL1  H16B 6087   1.348   6.652   3.947 -0.1304  0.5614  1.3964
   67CHL1   C17 6088   1.346   6.841   3.824  0.6685 -0.0391  0.3315
   67CHL1   H17 6089   1.456   6.826   3.823  0.8110  0.9598 -0.2943
   67CHL1   C13 6090   1.305   6.819   3.672 -0.0760 -0.4366 -0.7604
   67CHL1   C18 6091   1.170   6.897   3.649  0.1091 -0.3162  0.2594
   67CHL1  H18A 6092   1.138   6.891   3.543  0.0036 -0.7252  0.3114
   67CHL1  H18B 6093   1.101   6.867   3.730  1.7925  0.7519  2.1908
   67CHL1  H18C 6094   1.195   7.003   3.669 -1.2737  0.4054 -1.4954
   67CHL1   C12 6095   1.400   6.858   3.564  0.0155 -0.3928 -0.3735
   67CHL1  H12A 6096   1.418   6.967   3.563  1.6455 -0.6393 -1.6377
   67CHL1  H12B 6097   1.500   6.819   3.591 -0.5700 -0.2734  2.2504
   67CHL1   C11 6098   1.355   6.816   3.423  0.1810  0.1701 -0.2258
   67CHL1  H11A 6099   1.286   6.895   3.387 -1.0186 -0.6530  0.2205
   67CHL1  H11B 6100   1.444   6.816   3.356 -0.4392 -1.6568 -1.1089
   67CHL1    C9 6101   1.291   6.675   3.414 -0.5581 -0.3489 -0.3638
   67CHL1    H9 6102   1.372   6.599   3.411 -1.9472 -1.9380  0.4960
   67CHL1   C10 6103   1.209   6.648   3.285 -0.2346 -0.0158 -0.3208
   67CHL1   C19 6104   1.099   6.754   3.269  0.0435 -1.5590 -0.3912
   67CHL1  H19A 6105   1.039   6.747   3.175  0.9022  0.0138 -1.1033
   67CHL1  H19B 6106   1.028   6.761   3.354  1.0626 -0.3999  0.3844
   67CHL1  H19C 6107   1.150   6.852   3.260  1.1674 -2.1153 -0.2449
   67CHL1    C1 6108   1.304   6.663   3.165 -0.5473 -0.5216 -0.3908
   67CHL1   H1A 6109   1.331   6.771   3.169  2.4773 -1.2440  1.6663
   67CHL1   H1B 6110   1.394   6.604   3.189  0.0602  0.1830 -0.8972
   67CHL1    C2 6111   1.239   6.633   3.035 -0.1584  0.4400 -0.2237
   67CHL1   H2A 6112   1.312   6.645   2.952 -0.4973  3.4541 -0.2191
   67CHL1   H2B 6113   1.148   6.693   3.014 -1.4467 -1.0258  0.9658
   67CHL1   C20 6114   1.333   6.981   3.886  0.4849 -0.4160 -0.5838
   67CHL1   H20 6115   1.227   7.005   3.909  0.5706 -1.2551  0.7436
   67CHL1   C21 6116   1.399   7.096   3.809  0.5360  0.0112  0.1777
   67CHL1  H21A 6117   1.356   7.105   3.707  2.0401 -1.1431 -0.6181
   67CHL1  H21B 6118   1.507   7.079   3.787 -0.2700 -0.4663 -4.4171
   67CHL1  H21C 6119   1.377   7.197   3.848  0.7012  0.3478 -0.5720
   67CHL1   C22 6120   1.408   6.972   4.029 -1.1155 -0.1213 -0.0394
   67CHL1  H22A 6121   1.350   6.895   4.083  0.4133 -1.8780 -0.7643
   67CHL1  H22B 6122   1.509   6.931   4.005 -1.1932  0.9949 -2.7096
   67CHL1   C23 6123   1.419   7.111   4.102  0.2096  0.7720 -0.3721
   67CHL1  H23A 6124   1.508   7.162   4.060 -0.2321 -0.1731 -2.5823
   67CHL1  H23B 6125   1.331   7.169   4.068  0.8857  1.8107 -0.4044
   67CHL1   C24 6126   1.427   7.095   4.258 -0.4691  0.8665  0.1596
   67CHL1  H24A 6127   1.347   7.025   4.290 -0.3080  0.1581 -0.9399
   67CHL1  H24B 6128   1.519   7.039   4.285 -1.6641 -1.0603  0.4213
   67CHL1   C25 6129   1.433   7.225   4.333 -0.2589  0.6066  0.1924
   67CHL1   H25 6130   1.342   7.286   4.313  0.3292  1.2417 -0.6338
   67CHL1   C26 6131   1.404   7.190   4.483 -0.5861 -0.3792  0.3213
   67CHL1  H26A 6132   1.302   7.145   4.488  1.1464 -4.7815  0.4242
   67CHL1  H26B 6133   1.483   7.123   4.522 -0.5260 -0.3473  0.2529
   67CHL1  H26C 6134   1.420   7.286   4.537  1.8845  0.2157 -1.3096
   67CHL1   C27 6135   1.558   7.307   4.312 -0.2505 -0.4024  0.0812
   67CHL1  H27A 6136   1.561   7.345   4.207  0.2955 -1.5190 -0.3285
   67CHL1  H27B 6137   1.549   7.392   4.383  1.1256 -3.3898  4.2147
   67CHL1  H27C 6138   1.657   7.259   4.329 -0.4959 -0.9052  0.1147
   68CHL1    C3 6139   4.413   0.379   3.000  0.1376 -0.2806  0.7381
   68CHL1    H3 6140   4.523   0.387   3.010  0.4804 -3.2081  0.3564
   68CHL1    O3 6141   4.366   0.443   2.882  0.1892  0.4363 -0.0630
   68CHL1   H3' 6142   4.275   0.459   2.906  0.4409 -0.0426  1.3461
   68CHL1    C4 6143   4.366   0.232   3.018 -0.7845  0.1667 -0.0012
   68CHL1   H4A 6144   4.257   0.220   3.007 -1.5284  3.4656  2.2887
   68CHL1   H4B 6145   4.402   0.175   2.930  0.7037  1.2475 -0.1415
   68CHL1    C5 6146   4.418   0.173   3.143 -0.0314  0.1293 -0.1571
   68CHL1    C6 6147   4.498   0.060   3.144 -0.3867 -0.2651  0.2540
   68CHL1    H6 6148   4.533   0.009   3.053 -0.1095 -1.2587  0.9054
   68CHL1    C7 6149   4.537  -0.008   3.267 -0.2968  0.0859  0.0010
   68CHL1   H7A 6150   4.532  -0.118   3.251 -0.1307  0.1876 -0.8073
   68CHL1   H7B 6151   4.643   0.021   3.285 -0.9867  2.1689  0.9558
   68CHL1    C8 6152   4.451   0.043   3.387  0.0043  0.5249 -0.5786
   68CHL1    H8 6153   4.352  -0.006   3.376  0.1128  0.5358 -1.6659
   68CHL1   C14 6154   4.518  -0.003   3.521 -0.0533  0.5228  0.7772
   68CHL1   H14 6155   4.607   0.062   3.527 -0.1787  1.0684 -1.8674
   68CHL1   C15 6156   4.570  -0.143   3.532 -0.5610  0.0660  0.5632
   68CHL1  H15A 6157   4.502  -0.223   3.495  1.4763 -1.5122  0.0121
   68CHL1  H15B 6158   4.665  -0.150   3.475 -0.1381 -0.5415  1.3089
   68CHL1   C16 6159   4.588  -0.161   3.681 -0.1285 -1.0534  0.0378
   68CHL1  H16A 6160   4.529  -0.249   3.713  0.2706 -0.8513  1.4051
   68CHL1  H16B 6161   4.695  -0.174   3.707 -0.1152  2.2483  2.2379
   68CHL1   C17 6162   4.534  -0.027   3.747 -0.1102  0.0837 -0.1538
   68CHL1   H17 6163   4.627   0.034   3.755 -1.5686  2.5186 -0.7572
   68CHL1   C13 6164   4.444   0.038   3.646 -0.2887 -0.3265 -0.0298
   68CHL1   C18 6165   4.306  -0.030   3.648  0.4051  0.6789 -0.1307
   68CHL1  H18A 6166   4.246  -0.006   3.558 -1.7200  2.0446  1.5477
   68CHL1  H18B 6167   4.325  -0.139   3.635 -2.3520  0.0026  0.7505
   68CHL1  H18C 6168   4.249  -0.018   3.742 -0.5068 -1.6969 -0.2929
   68CHL1   C12 6169   4.428   0.190   3.653  0.7576 -0.0454  0.0113
   68CHL1  H12A 6170   4.364   0.214   3.741 -0.1318 -0.0281 -0.6291
   68CHL1  H12B 6171   4.525   0.244   3.659 -0.3445  2.5533 -2.8000
   68CHL1   C11 6172   4.363   0.251   3.524 -0.2876  0.1279  0.2119
   68CHL1  H11A 6173   4.255   0.225   3.530  0.0546 -1.6018 -0.5441
   68CHL1  H11B 6174   4.387   0.358   3.544  1.9233 -0.4018  0.6177
   68CHL1    C9 6175   4.428   0.192   3.396  0.0257 -0.3645  0.3776
   68CHL1    H9 6176   4.533   0.227   3.388  0.0225 -0.4532 -0.0746
   68CHL1   C10 6177   4.363   0.247   3.271 -0.3041 -0.1033 -0.3532
   68CHL1   C19 6178   4.205   0.234   3.277 -0.1895  0.3883  0.1127
   68CHL1  H19A 6179   4.158   0.299   3.353 -2.1549 -0.2286 -0.5148
   68CHL1  H19B 6180   4.154   0.243   3.178  3.0797  2.3402 -1.5782
   68CHL1  H19C 6181   4.181   0.130   3.308 -0.0767  0.8902  1.9896
   68CHL1    C1 6182   4.390   0.398   3.244  0.0561 -0.0701  0.0838
   68CHL1   H1A 6183   4.339   0.452   3.327  1.2435  0.9970  0.1517
   68CHL1   H1B 6184   4.499   0.421   3.251 -0.4218  2.7403 -0.5975
   68CHL1    C2 6185   4.346   0.457   3.115 -0.1380  0.4103 -0.0352
   68CHL1   H2A 6186   4.375   0.565   3.111 -1.9847  0.9405  0.1490
   68CHL1   H2B 6187   4.235   0.452   3.111 -0.1404  0.3588  0.0966
   68CHL1   C20 6188   4.470  -0.057   3.888  0.1519 -0.0652  0.2065
   68CHL1   H20 6189   4.378  -0.118   3.882  1.9273 -2.8893 -0.5997
   68CHL1   C21 6190   4.434   0.074   3.966 -0.3717  0.5679 -0.5506
   68CHL1  H21A 6191   4.328   0.097   3.940 -0.5279  0.5470  0.0463
   68CHL1  H21B 6192   4.503   0.160   3.952 -0.2764  1.0517  2.2243
   68CHL1  H21C 6193   4.433   0.064   4.077 -0.2664  1.2537 -0.4855
   68CHL1   C22 6194   4.573  -0.140   3.970  1.1157  0.1197 -0.0213
   68CHL1  H22A 6195   4.638  -0.212   3.915  0.2888 -0.1283 -0.7044
   68CHL1  H22B 6196   4.642  -0.062   4.010  0.8983 -0.7245  2.1512
   68CHL1   C23 6197   4.533  -0.220   4.089 -0.3197 -0.1949 -0.1991
   68CHL1  H23A 6198   4.492  -0.151   4.166 -0.5022 -0.9742  0.4122
   68CHL1  H23B 6199   4.462  -0.293   4.047 -0.1881 -0.3320 -0.1853
   68CHL1   C24 6200   4.655  -0.286   4.158  0.0266  0.2580 -0.4473
   68CHL1  H24A 6201   4.718  -0.349   4.092 -0.0153 -0.9153  0.5960
   68CHL1  H24B 6202   4.712  -0.201   4.202  0.9726 -0.3559 -0.4469
   68CHL1   C25 6203   4.620  -0.387   4.269 -0.2109 -0.0997  0.1358
   68CHL1   H25 6204   4.557  -0.338   4.345  0.5391 -0.4826  1.0234
   68CHL1   C26 6205   4.546  -0.505   4.210 -0.0102  0.1993 -0.6560
   68CHL1  H26A 6206   4.456  -0.462   4.161 -0.0019  1.9248  0.7401
   68CHL1  H26B 6207   4.616  -0.555   4.140 -0.3360 -2.2274  0.6414
   68CHL1  H26C 6208   4.510  -0.582   4.282  1.0844  0.6280  0.3763
   68CHL1   C27 6209   4.743  -0.450   4.338  0.3720 -0.6586 -0.3931
   68CHL1  H27A 6210   4.726  -0.544   4.394  3.0697 -3.4108 -3.7232
   68CHL1  H27B 6211   4.817  -0.459   4.255  0.5476  2.9350 -0.8067
   68CHL1  H27C 6212   4.786  -0.372   4.404 -3.1937 -0.0831  1.4638
   69CHL1    C3 6213   1.537   6.126   3.223  0.4591  0.3462  0.5471
   69CHL1    H3 6214   1.603   6.213   3.201 -0.6227  1.1094  0.2165
   69CHL1    O3 6215   1.496   6.056   3.104 -0.1905 -0.3485 -0.4709
   69CHL1   H3' 6216   1.463   5.972   3.138  0.6249 -0.8945 -1.0003
   69CHL1    C4 6217   1.619   6.038   3.313  0.4328  0.0001  0.2060
   69CHL1   H4A 6218   1.557   5.947   3.328  0.1894  0.1320 -0.0075
   69CHL1   H4B 6219   1.709   6.004   3.258  0.2199  0.7837 -0.6446
   69CHL1    C5 6220   1.641   6.102   3.452 -0.7274  0.0557  0.4826
   69CHL1    C6 6221   1.765   6.118   3.505  0.0578 -0.1073  0.0685
   69CHL1    H6 6222   1.857   6.083   3.457  1.3489  1.7629  1.0605
   69CHL1    C7 6223   1.797   6.182   3.640  0.5722  0.0612 -0.4424
   69CHL1   H7A 6224   1.888   6.142   3.690 -1.1316  0.8481  3.6757
   69CHL1   H7B 6225   1.818   6.287   3.609  0.5168 -0.0557 -0.8892
   69CHL1    C8 6226   1.679   6.187   3.745 -0.8457 -0.8129  0.2672
   69CHL1    H8 6227   1.677   6.082   3.783  0.3631 -0.8295  0.3075
   69CHL1   C14 6228   1.715   6.292   3.845  0.2180  0.0455 -0.1270
   69CHL1   H14 6229   1.712   6.386   3.785  0.1065  0.3901  0.4193
   69CHL1   C15 6230   1.843   6.298   3.924 -0.3022 -0.3203  0.7221
   69CHL1  H15A 6231   1.884   6.201   3.961 -0.1356 -0.0159  1.3576
   69CHL1  H15B 6232   1.914   6.350   3.855 -1.6157  2.3880  1.2840
   69CHL1   C16 6233   1.814   6.381   4.049  0.2681  0.3669 -0.8555
   69CHL1  H16A 6234   1.834   6.320   4.140  0.4982 -1.7936 -2.2618
   69CHL1  H16B 6235   1.884   6.466   4.062  0.5747  0.1595 -1.1380
   69CHL1   C17 6236   1.660   6.425   4.035 -0.3765 -0.6117  0.1054
   69CHL1   H17 6237   1.677   6.509   3.964 -0.4556  0.5784  1.4677
   69CHL1   C13 6238   1.605   6.316   3.941  0.3076 -0.1738 -0.1002
   69CHL1   C18 6239   1.585   6.184   4.025 -0.0886 -0.8615  0.2132
   69CHL1  H18A 6240   1.565   6.094   3.963 -1.2767 -1.4894  1.4572
   69CHL1  H18B 6241   1.675   6.164   4.088  0.6719  1.3777 -0.0586
   69CHL1  H18C 6242   1.499   6.201   4.093  0.2020  0.0635  0.3570
   69CHL1   C12 6243   1.473   6.369   3.865 -1.6019  0.0596 -0.1775
   69CHL1  H12A 6244   1.386   6.384   3.933 -3.1954 -3.5510 -1.1735
   69CHL1  H12B 6245   1.490   6.473   3.830  2.3934  0.6654  2.7416
   69CHL1   C11 6246   1.434   6.269   3.759  0.4407 -0.5725 -0.0608
   69CHL1  H11A 6247   1.404   6.178   3.816 -1.0172 -0.7707 -1.0863
   69CHL1  H11B 6248   1.344   6.291   3.698  0.7271 -1.2158 -0.7352
   69CHL1    C9 6249   1.552   6.237   3.666  0.5708 -0.3942 -0.5950
   69CHL1    H9 6250   1.576   6.334   3.617 -2.4868  0.7029 -0.1861
   69CHL1   C10 6251   1.522   6.157   3.528 -0.0572 -0.0933  0.5041
   69CHL1   C19 6252   1.436   6.030   3.577  0.4670  0.4121  0.4596
   69CHL1  H19A 6253   1.346   6.068   3.631  0.2382  0.3815  0.1063
   69CHL1  H19B 6254   1.410   5.973   3.485  0.2159  1.8290 -0.3773
   69CHL1  H19C 6255   1.487   5.974   3.658 -1.2963  0.2392  1.5027
   69CHL1    C1 6256   1.439   6.245   3.430 -0.4884  0.0122 -0.3738
   69CHL1   H1A 6257   1.346   6.258   3.489  1.3633 -0.0991  2.8330
   69CHL1   H1B 6258   1.494   6.341   3.426 -0.9554  0.2539 -1.1953
   69CHL1    C2 6259   1.410   6.179   3.292  0.1798 -1.4009 -0.2306
   69CHL1   H2A 6260   1.356   6.245   3.221  0.9786 -2.4732 -1.8842
   69CHL1   H2B 6261   1.332   6.102   3.308  1.3000 -2.6180 -0.5131
   69CHL1   C20 6262   1.579   6.465   4.163 -0.4288 -0.3918  0.1028
   69CHL1   H20 6263   1.469   6.447   4.161 -0.2435 -1.6485  0.2789
   69CHL1   C21 6264   1.605   6.619   4.184 -0.2037 -0.4633  0.0790
   69CHL1  H21A 6265   1.562   6.683   4.105  0.3503  0.1402  0.2573
   69CHL1  H21B 6266   1.715   6.633   4.178  0.1915 -2.7676  0.9166
   69CHL1  H21C 6267   1.569   6.652   4.284  0.6178 -1.9849  0.9127
   69CHL1   C22 6268   1.638   6.394   4.289  0.3382 -0.6580 -0.4446
   69CHL1  H22A 6269   1.647   6.284   4.287 -0.9551 -0.7747 -1.6255
   69CHL1  H22B 6270   1.739   6.439   4.305 -0.3643  2.0132 -2.6284
   69CHL1   C23 6271   1.548   6.415   4.413 -1.3969 -0.5514  0.1201
   69CHL1  H23A 6272   1.603   6.401   4.509 -0.8398 -1.2699 -0.2928
   69CHL1  H23B 6273   1.526   6.523   4.419  2.6930  0.3808  1.1752
   69CHL1   C24 6274   1.425   6.332   4.414  0.6663  0.7683 -0.4643
   69CHL1  H24A 6275   1.335   6.377   4.366  0.1116  1.2104  0.9402
   69CHL1  H24B 6276   1.434   6.239   4.355 -1.5386  0.3914 -0.2990
   69CHL1   C25 6277   1.374   6.288   4.559  0.4041  0.1949  0.0193
   69CHL1   H25 6278   1.467   6.251   4.608  0.5837  1.1519  0.4190
   69CHL1   C26 6279   1.320   6.408   4.640 -0.6318 -0.4300  0.1339
   69CHL1  H26A 6280   1.227   6.440   4.587  0.7020 -0.1283 -2.1697
   69CHL1  H26B 6281   1.292   6.379   4.743 -2.3922  0.7267  0.0243
   69CHL1  H26C 6282   1.397   6.487   4.651 -0.2099 -0.7736 -0.2930
   69CHL1   C27 6283   1.281   6.168   4.558 -0.4408  0.1753  1.0104
   69CHL1  H27A 6284   1.342   6.087   4.513 -0.6643  0.6674 -0.2242
   69CHL1  H27B 6285   1.259   6.145   4.664 -0.8070  0.1616  0.9345
   69CHL1  H27C 6286   1.185   6.181   4.503 -1.8486  0.4836  3.4068
   70CHL1    C3 6287   6.639   0.423   3.188 -0.5797 -0.0980  0.2603
   70CHL1    H3 6288   6.679   0.330   3.233 -0.8428 -0.1990  0.2887
   70CHL1    O3 6289   6.627   0.413   3.050  0.2946 -0.0025  0.6210
   70CHL1   H3' 6290   6.626   0.504   3.018  4.4164 -0.4227 -1.4398
   70CHL1    C4 6291   6.498   0.449   3.245 -0.4939 -0.2384  0.1892
   70CHL1   H4A 6292   6.457   0.537   3.191 -1.8965 -2.0460 -1.8368
   70CHL1   H4B 6293   6.436   0.363   3.211 -1.5400  0.3610  0.5184
   70CHL1    C5 6294   6.506   0.467   3.389 -0.0308 -0.1677 -0.7820
   70CHL1    C6 6295   6.437   0.387   3.471  0.6499 -0.0628  0.2529
   70CHL1    H6 6296   6.372   0.311   3.424 -1.2805  0.0501  2.5448
   70CHL1    C7 6297   6.445   0.374   3.622 -0.0334 -0.0093  1.1660
   70CHL1   H7A 6298   6.344   0.341   3.657 -0.7330 -1.7743 -2.0536
   70CHL1   H7B 6299   6.520   0.301   3.658  2.1591  2.2432  1.4348
   70CHL1    C8 6300   6.491   0.509   3.670  0.1031 -0.5594  0.4074
   70CHL1    H8 6301   6.416   0.589   3.648  1.4217  1.3874  2.5886
   70CHL1   C14 6302   6.513   0.494   3.821  0.5682 -0.0890 -0.0787
   70CHL1   H14 6303   6.588   0.413   3.828  0.4022 -0.1940  0.5844
   70CHL1   C15 6304   6.388   0.444   3.913  0.0431  0.5089  0.3599
   70CHL1  H15A 6305   6.299   0.504   3.884 -2.1009 -2.6012  0.0417
   70CHL1  H15B 6306   6.379   0.338   3.882  0.1705  0.9058 -1.1265
   70CHL1   C16 6307   6.432   0.483   4.053 -0.5199 -0.0330  0.3228
   70CHL1  H16A 6308   6.359   0.559   4.088  0.7788  0.7607  1.4261
   70CHL1  H16B 6309   6.445   0.396   4.120  0.3888  1.3157  1.9845
   70CHL1   C17 6310   6.569   0.567   4.046 -0.8509 -0.6020 -0.0194
   70CHL1   H17 6311   6.647   0.491   4.066  0.3186  0.7290  0.7340
   70CHL1   C13 6312   6.574   0.611   3.900  0.0880  0.0103 -0.3621
   70CHL1   C18 6313   6.474   0.733   3.884 -0.6805 -0.0580 -0.6141
   70CHL1  H18A 6314   6.529   0.827   3.909 -0.7541 -0.1124 -0.2387
   70CHL1  H18B 6315   6.433   0.741   3.781 -2.1346 -2.1102 -0.2566
   70CHL1  H18C 6316   6.390   0.723   3.956  0.1350  0.1703  0.3947
   70CHL1   C12 6317   6.699   0.657   3.839  0.1917 -0.0149 -0.8813
   70CHL1  H12A 6318   6.742   0.746   3.889 -1.5055 -0.9139  2.5119
   70CHL1  H12B 6319   6.777   0.578   3.848  0.6905  0.6040  0.6745
   70CHL1   C11 6320   6.690   0.679   3.684  0.0288  0.1460 -0.1451
   70CHL1  H11A 6321   6.624   0.766   3.666 -2.6236 -1.4740  1.0996
   70CHL1  H11B 6322   6.790   0.710   3.647 -0.1705 -2.0726 -2.8917
   70CHL1    C9 6323   6.624   0.552   3.604 -0.0205  0.9559 -0.8320
   70CHL1    H9 6324   6.703   0.476   3.624 -0.2306  0.8085 -0.5545
   70CHL1   C10 6325   6.611   0.573   3.448 -0.3337 -0.4940 -0.3586
   70CHL1   C19 6326   6.553   0.712   3.409  0.5919 -0.0100 -0.6363
   70CHL1  H19A 6327   6.627   0.788   3.442  0.0697  0.0069  0.5551
   70CHL1  H19B 6328   6.543   0.725   3.299  0.9309  0.9885 -0.5571
   70CHL1  H19C 6329   6.459   0.731   3.465 -0.7170 -1.5756 -2.1782
   70CHL1    C1 6330   6.747   0.541   3.380  0.6696  0.3332 -0.3978
   70CHL1   H1A 6331   6.824   0.614   3.413  0.5762 -0.7518  2.4807
   70CHL1   H1B 6332   6.763   0.438   3.418 -0.9694  0.5448  1.0211
   70CHL1    C2 6333   6.736   0.536   3.222  0.1549  0.0209  0.3916
   70CHL1   H2A 6334   6.842   0.514   3.195  0.4035  1.3871  0.1970
   70CHL1   H2B 6335   6.713   0.634   3.176 -0.3596 -0.5075 -0.5041
   70CHL1   C20 6336   6.578   0.666   4.162 -0.2455 -0.6165 -0.3481
   70CHL1   H20 6337   6.492   0.736   4.157  1.3781  1.5216  0.1933
   70CHL1   C21 6338   6.705   0.754   4.164  0.1339  0.2618  0.7559
   70CHL1  H21A 6339   6.787   0.679   4.172  1.0750  0.9214 -1.8300
   70CHL1  H21B 6340   6.695   0.824   4.250  0.7974  1.0452  0.2091
   70CHL1  H21C 6341   6.709   0.817   4.072 -0.4164  2.1796  1.9781
   70CHL1   C22 6342   6.577   0.595   4.299  0.2147  0.2594  0.0582
   70CHL1  H22A 6343   6.491   0.524   4.295 -0.5475  1.1178  0.9260
   70CHL1  H22B 6344   6.659   0.521   4.311 -0.7170 -0.6887  0.8809
   70CHL1   C23 6345   6.569   0.688   4.427  0.5222  0.0085 -0.0377
   70CHL1  H23A 6346   6.657   0.754   4.445  0.4106 -0.2763  1.7456
   70CHL1  H23B 6347   6.481   0.753   4.408 -0.1479 -0.1566  2.1993
   70CHL1   C24 6348   6.547   0.601   4.550 -0.1711  0.1757 -0.8439
   70CHL1  H24A 6349   6.459   0.534   4.546  0.2633 -0.3377 -2.4804
   70CHL1  H24B 6350   6.636   0.537   4.571 -1.0404 -0.6925  0.3966
   70CHL1   C25 6351   6.534   0.674   4.685 -0.4262 -0.2049  0.0424
   70CHL1   H25 6352   6.445   0.741   4.682  2.1648  3.5084 -1.0628
   70CHL1   C26 6353   6.534   0.588   4.806  0.6164 -0.2792  0.5639
   70CHL1  H26A 6354   6.440   0.528   4.803 -1.2716  2.5457 -0.3788
   70CHL1  H26B 6355   6.612   0.508   4.811  0.7278 -0.6165 -3.5025
   70CHL1  H26C 6356   6.532   0.648   4.900 -1.6961 -0.4771  0.7010
   70CHL1   C27 6357   6.653   0.778   4.691 -0.2766  0.1415  0.4755
   70CHL1  H27A 6358   6.636   0.829   4.789 -0.4078  0.0676  0.4909
   70CHL1  H27B 6359   6.743   0.714   4.696 -0.6876 -0.7515 -2.1575
   70CHL1  H27C 6360   6.649   0.858   4.614 -0.6401  1.1522  1.5153
   71CHL1    C3 6361   2.133   2.393   2.754  0.1351  0.4209  0.3780
   71CHL1    H3 6362   2.216   2.467   2.748 -1.5637  2.4133  0.0973
   71CHL1    O3 6363   2.082   2.377   2.626  0.3005 -0.0202  0.0327
   71CHL1   H3' 6364   2.000   2.331   2.646  0.2753 -0.4390 -0.9574
   71CHL1    C4 6365   2.188   2.252   2.794  0.0919 -0.3286 -0.4396
   71CHL1   H4A 6366   2.112   2.171   2.788  0.4218 -0.6097 -0.7562
   71CHL1   H4B 6367   2.268   2.235   2.719 -0.0250  2.2351 -1.2335
   71CHL1    C5 6368   2.245   2.263   2.936  0.7600  0.5007  1.1762
   71CHL1    C6 6369   2.373   2.245   2.965  0.0912  0.3714  0.5154
   71CHL1    H6 6370   2.437   2.213   2.882 -1.8071  1.2962 -1.4125
   71CHL1    C7 6371   2.433   2.245   3.102 -0.2889  0.1712 -0.3126
   71CHL1   H7A 6372   2.503   2.160   3.118  0.3326  0.8354  0.5458
   71CHL1   H7B 6373   2.500   2.330   3.122  1.3627 -1.6041  2.3406
   71CHL1    C8 6374   2.329   2.254   3.214  1.0469 -0.1299  0.3277
   71CHL1    H8 6375   2.273   2.159   3.224 -3.2739  2.1886  1.0449
   71CHL1   C14 6376   2.395   2.293   3.339  0.1313  0.0453  0.0686
   71CHL1   H14 6377   2.445   2.391   3.324  0.9567 -0.2154  1.0363
   71CHL1   C15 6378   2.510   2.201   3.383 -0.7875  0.0618 -0.8565
   71CHL1  H15A 6379   2.475   2.097   3.364 -0.2889 -0.1435 -0.6778
   71CHL1  H15B 6380   2.611   2.219   3.340 -0.1540 -2.6360 -0.7395
   71CHL1   C16 6381   2.522   2.241   3.527 -0.3379  0.1510 -0.3610
   71CHL1  H16A 6382   2.520   2.154   3.596 -0.4782  1.7397  1.7389
   71CHL1  H16B 6383   2.617   2.295   3.549  0.2327 -1.1199  0.4226
   71CHL1   C17 6384   2.403   2.333   3.568  0.3355  0.2314 -0.3595
   71CHL1   H17 6385   2.436   2.435   3.539  0.7023  0.4133  0.6523
   71CHL1   C13 6386   2.295   2.306   3.465  0.3341  0.3788  0.0749
   71CHL1   C18 6387   2.233   2.166   3.488 -0.3323  0.3176 -0.2999
   71CHL1  H18A 6388   2.317   2.095   3.503 -1.0429 -0.4985 -0.0690
   71CHL1  H18B 6389   2.167   2.155   3.576  1.4953 -1.3595  0.9369
   71CHL1  H18C 6390   2.170   2.136   3.401 -0.8956  0.5055  0.0416
   71CHL1   C12 6391   2.181   2.410   3.442 -0.0115  0.2955 -0.0627
   71CHL1  H12A 6392   2.102   2.410   3.520 -0.1030  1.5697 -0.1293
   71CHL1  H12B 6393   2.217   2.515   3.449 -1.3410  0.7675 -0.0630
   71CHL1   C11 6394   2.128   2.392   3.300  0.2654  0.4679  0.6242
   71CHL1  H11A 6395   2.049   2.314   3.307  0.2691  0.5310  1.4445
   71CHL1  H11B 6396   2.071   2.487   3.287 -0.4931  0.2898  2.3442
   71CHL1    C9 6397   2.223   2.357   3.172  0.0312  0.4071  0.0338
   71CHL1    H9 6398   2.277   2.451   3.148 -2.2234  2.1183  1.2946
   71CHL1   C10 6399   2.148   2.318   3.042 -0.5475 -0.0736  0.1051
   71CHL1   C19 6400   2.045   2.207   3.079 -0.3255 -0.1335  0.0460
   71CHL1  H19A 6401   1.953   2.255   3.117  1.5877  1.0252  3.7027
   71CHL1  H19B 6402   2.015   2.143   2.994 -0.0496  0.4161 -0.4738
   71CHL1  H19C 6403   2.078   2.128   3.149  2.6535 -0.3775 -1.4587
   71CHL1    C1 6404   2.087   2.455   2.988 -0.2726 -0.2105  0.2859
   71CHL1   H1A 6405   2.016   2.491   3.066  0.3911  0.2880  0.6685
   71CHL1   H1B 6406   2.163   2.535   2.978  1.4027 -1.8534 -0.9473
   71CHL1    C2 6407   2.023   2.430   2.848 -0.2112 -0.1695  0.2763
   71CHL1   H2A 6408   1.977   2.522   2.807  0.6597 -0.6170 -1.8809
   71CHL1   H2B 6409   1.944   2.352   2.860 -1.3213  0.6499 -1.2663
   71CHL1   C20 6410   2.362   2.325   3.714 -0.5951 -0.4857  0.1648
   71CHL1   H20 6411   2.314   2.229   3.740 -0.9987  0.2302  2.2829
   71CHL1   C21 6412   2.273   2.433   3.764 -0.4516 -0.9823 -0.1268
   71CHL1  H21A 6413   2.175   2.424   3.712  0.6758  0.4449 -2.6328
   71CHL1  H21B 6414   2.321   2.533   3.752 -0.2593 -0.5104  3.3614
   71CHL1  H21C 6415   2.248   2.425   3.872 -1.7508  1.0218 -0.2236
   71CHL1   C22 6416   2.474   2.313   3.813 -0.2947  0.1659 -0.1253
   71CHL1  H22A 6417   2.529   2.218   3.790 -0.1310  0.6881 -2.0922
   71CHL1  H22B 6418   2.541   2.398   3.790 -3.7358  2.4809 -2.5078
   71CHL1   C23 6419   2.454   2.304   3.965  0.1423  0.2101  0.4432
   71CHL1  H23A 6420   2.412   2.400   4.000 -0.0769  0.3857 -0.2922
   71CHL1  H23B 6421   2.372   2.235   3.995  0.8981 -1.4716 -1.1494
   71CHL1   C24 6422   2.579   2.266   4.046 -0.7680 -0.0249 -0.6398
   71CHL1  H24A 6423   2.566   2.165   4.088  0.8840 -0.7338 -1.7365
   71CHL1  H24B 6424   2.671   2.252   3.985 -0.1444 -4.7663  0.9982
   71CHL1   C25 6425   2.616   2.360   4.159 -0.2531 -0.2495 -0.0238
   71CHL1   H25 6426   2.525   2.371   4.221  0.2407  2.0474  0.3869
   71CHL1   C26 6427   2.733   2.311   4.251  0.2430  0.7409  0.5521
   71CHL1  H26A 6428   2.718   2.371   4.343 -0.8577  0.0398  0.8428
   71CHL1  H26B 6429   2.721   2.202   4.267  1.5702 -0.1015 -3.1692
   71CHL1  H26C 6430   2.832   2.334   4.206  0.2192  1.3765  0.8219
   71CHL1   C27 6431   2.648   2.501   4.119  0.0086  0.0942  0.8462
   71CHL1  H27A 6432   2.739   2.497   4.055 -1.1981 -0.8810 -0.8892
   71CHL1  H27B 6433   2.577   2.545   4.046 -0.2040 -0.4632  0.7119
   71CHL1  H27C 6434   2.673   2.563   4.208 -0.3268 -1.7084  2.2533
   72CHL1    C3 6435   2.905   3.718   2.892  0.0460 -0.9287 -0.9859
   72CHL1    H3 6436   2.884   3.609   2.897  0.5412 -0.9750  2.0107
   72CHL1    O3 6437   2.889   3.773   2.761  0.1847  0.2351 -0.8413
   72CHL1   H3' 6438   2.921   3.862   2.775 -1.5323  0.6847  0.5255
   72CHL1    C4 6439   2.818   3.801   2.987 -0.1918  0.4041  0.2931
   72CHL1   H4A 6440   2.847   3.906   2.969  0.3708  0.2288  0.1512
   72CHL1   H4B 6441   2.717   3.783   2.943  0.1885 -1.3092  0.0361
   72CHL1    C5 6442   2.846   3.759   3.133  0.3838 -0.6745  0.2233
   72CHL1    C6 6443   2.752   3.720   3.216 -0.3556 -0.0162 -0.2686
   72CHL1    H6 6444   2.647   3.719   3.181 -0.0429 -0.0280 -1.2537
   72CHL1    C7 6445   2.784   3.688   3.361 -0.4679 -0.1975  0.1803
   72CHL1   H7A 6446   2.708   3.742   3.420 -0.1780  1.6936 -1.0964
   72CHL1   H7B 6447   2.772   3.578   3.374 -3.1023  0.0325  0.2816
   72CHL1    C8 6448   2.917   3.744   3.417  0.4013  0.5942  0.1014
   72CHL1    H8 6449   2.915   3.855   3.420  0.9026  0.5889  2.0861
   72CHL1   C14 6450   2.931   3.689   3.554  0.7058  0.0966 -0.0411
   72CHL1   H14 6451   2.911   3.579   3.552  0.3310  0.1745 -1.3840
   72CHL1   C15 6452   2.839   3.746   3.664 -0.1418 -0.3938  0.0169
   72CHL1  H15A 6453   2.841   3.857   3.667 -1.9654 -0.3136  3.5609
   72CHL1  H15B 6454   2.735   3.707   3.654  0.0900 -1.1290  0.4564
   72CHL1   C16 6455   2.909   3.700   3.790 -0.0261 -0.2505 -0.8366
   72CHL1  H16A 6456   2.916   3.790   3.855  1.1005 -1.8614  1.4542
   72CHL1  H16B 6457   2.849   3.621   3.841  0.1543 -0.1551 -0.4697
   72CHL1   C17 6458   3.046   3.643   3.753  0.1866 -0.1396 -0.0475
   72CHL1   H17 6459   3.039   3.533   3.758  0.1804 -0.1051  0.9300
   72CHL1   C13 6460   3.071   3.699   3.612  0.5314 -0.3401  0.5628
   72CHL1   C18 6461   3.117   3.842   3.623  0.0691 -0.3535 -0.0672
   72CHL1  H18A 6462   3.227   3.855   3.638  0.0137 -0.7082  0.7231
   72CHL1  H18B 6463   3.100   3.889   3.524  0.1017  0.2474  0.2095
   72CHL1  H18C 6464   3.072   3.903   3.705  0.4653 -1.3914  0.9556
   72CHL1   C12 6465   3.167   3.630   3.513  0.5251  1.1978 -1.1088
   72CHL1  H12A 6466   3.270   3.627   3.557  0.5763 -1.2389 -1.2235
   72CHL1  H12B 6467   3.129   3.525   3.519 -1.0224  1.8157  0.8345
   72CHL1   C11 6468   3.166   3.687   3.373 -0.2753 -0.9350  0.1672
   72CHL1  H11A 6469   3.217   3.786   3.377 -1.0710 -0.5040  0.0118
   72CHL1  H11B 6470   3.230   3.628   3.305  0.3538  1.4782 -1.4567
   72CHL1    C9 6471   3.018   3.698   3.316 -0.1942  0.4700 -0.2262
   72CHL1    H9 6472   3.000   3.590   3.303  2.0997 -0.0774  0.6660
   72CHL1   C10 6473   2.995   3.771   3.176  0.0685 -0.4012  0.0218
   72CHL1   C19 6474   3.029   3.926   3.194 -0.2082  0.3252  0.7901
   72CHL1  H19A 6475   2.946   3.987   3.235 -1.2228  0.0618 -0.7974
   72CHL1  H19B 6476   3.116   3.948   3.260 -0.5758  0.3677  1.2709
   72CHL1  H19C 6477   3.058   3.978   3.101 -0.4269 -0.4270  0.2917
   72CHL1    C1 6478   3.088   3.700   3.076  0.0615 -0.8532 -0.0514
   72CHL1   H1A 6479   3.193   3.731   3.092 -0.3778 -0.2913  2.0719
   72CHL1   H1B 6480   3.083   3.591   3.098  0.8008 -0.3852  2.8925
   72CHL1    C2 6481   3.055   3.729   2.925  0.0754  0.8497  0.9388
   72CHL1   H2A 6482   3.118   3.654   2.872  1.3097  0.9934  2.1296
   72CHL1   H2B 6483   3.089   3.828   2.889 -0.0829  1.4532  2.3744
   72CHL1   C20 6484   3.151   3.677   3.857 -0.4161 -0.5829 -0.0952
   72CHL1   H20 6485   3.154   3.787   3.871  3.0726 -0.2958 -2.0133
   72CHL1   C21 6486   3.297   3.645   3.819 -0.1976  0.2750  0.0242
   72CHL1  H21A 6487   3.366   3.664   3.904  0.4764 -1.3569 -0.1222
   72CHL1  H21B 6488   3.338   3.720   3.748  1.1172 -0.0423  0.4223
   72CHL1  H21C 6489   3.318   3.539   3.790 -3.6650 -0.8236  1.0956
   72CHL1   C22 6490   3.121   3.616   3.994  0.0950  0.1079  0.4656
   72CHL1  H22A 6491   3.013   3.614   4.018  0.1897  0.0166  0.9017
   72CHL1  H22B 6492   3.150   3.510   3.980 -2.5819 -0.4733 -1.3078
   72CHL1   C23 6493   3.193   3.680   4.112 -0.4077 -0.2148 -0.3061
   72CHL1  H23A 6494   3.300   3.648   4.114 -0.5812 -0.9151  2.2563
   72CHL1  H23B 6495   3.196   3.790   4.121  1.4302 -0.3697  2.5264
   72CHL1   C24 6496   3.140   3.620   4.239 -0.0758 -0.0901 -0.2131
   72CHL1  H24A 6497   3.051   3.674   4.278  0.0872  0.4321 -0.5625
   72CHL1  H24B 6498   3.104   3.515   4.225 -0.7708  0.0760  0.2827
   72CHL1   C25 6499   3.255   3.618   4.344  0.2421  0.7624  0.9380
   72CHL1   H25 6500   3.335   3.549   4.309 -0.9702 -0.6413  0.8496
   72CHL1   C26 6501   3.319   3.758   4.359  0.0676 -0.0506 -0.2317
   72CHL1  H26A 6502   3.368   3.801   4.269  0.1809  2.1623  0.8108
   72CHL1  H26B 6503   3.244   3.838   4.380 -0.3110 -0.2446 -0.8278
   72CHL1  H26C 6504   3.393   3.761   4.442  0.8486  0.7061 -0.9294
   72CHL1   C27 6505   3.200   3.557   4.480 -0.7138 -1.1241  0.5587
   72CHL1  H27A 6506   3.273   3.585   4.559 -0.2756  1.5078 -0.6500
   72CHL1  H27B 6507   3.100   3.598   4.505 -0.3410 -0.9021  1.7586
   72CHL1  H27C 6508   3.187   3.448   4.468  0.4931 -1.3038  0.7252
   73CHL1    C3 6509   2.848   0.129   3.224 -0.2586 -0.2038  0.2510
   73CHL1    H3 6510   2.745   0.088   3.218 -1.3477  1.8089  2.7861
   73CHL1    O3 6511   2.878   0.196   3.103 -0.5615  0.8018 -0.5575
   73CHL1   H3' 6512   2.973   0.211   3.100 -0.6034  1.0051 -0.9756
   73CHL1    C4 6513   2.847   0.233   3.333  0.0017 -0.3310 -0.2833
   73CHL1   H4A 6514   2.948   0.279   3.338 -0.9623  1.8640  1.0221
   73CHL1   H4B 6515   2.780   0.320   3.314  1.1592  0.7932  0.6153
   73CHL1    C5 6516   2.827   0.169   3.470 -0.3110  0.8369  0.0122
   73CHL1    C6 6517   2.728   0.206   3.557 -0.3804  0.3188 -0.3650
   73CHL1    H6 6518   2.661   0.285   3.520 -0.5731 -0.1935 -1.1689
   73CHL1    C7 6519   2.701   0.141   3.695  0.0565 -0.5890 -0.4413
   73CHL1   H7A 6520   2.686   0.222   3.769  2.3590 -0.3721 -0.1477
   73CHL1   H7B 6521   2.610   0.078   3.682 -0.1729 -0.1951 -0.7835
   73CHL1    C8 6522   2.824   0.060   3.744 -0.4594  0.4364 -0.1584
   73CHL1    H8 6523   2.902   0.132   3.777  0.0630  0.6607 -1.7759
   73CHL1   C14 6524   2.789  -0.032   3.857  0.8728  0.4622 -0.1174
   73CHL1   H14 6525   2.731  -0.114   3.809  2.0127 -0.9896  0.8948
   73CHL1   C15 6526   2.691   0.017   3.967 -0.0010 -0.0312  0.3467
   73CHL1  H15A 6527   2.720   0.124   3.968  0.6364 -0.2092  1.2473
   73CHL1  H15B 6528   2.585  -0.004   3.938 -0.4830  2.9131 -0.3156
   73CHL1   C16 6529   2.730  -0.067   4.090  0.6694  0.1325  0.0482
   73CHL1  H16A 6530   2.781  -0.000   4.164  2.1131  0.1976 -0.9674
   73CHL1  H16B 6531   2.642  -0.120   4.131  0.4610 -0.0183 -0.5857
   73CHL1   C17 6532   2.833  -0.174   4.044  1.2047  0.0393  0.0252
   73CHL1   H17 6533   2.763  -0.251   4.005  1.0330  0.2726 -0.1310
   73CHL1   C13 6534   2.906  -0.106   3.922  0.9917  0.4572  0.0041
   73CHL1   C18 6535   3.010  -0.001   3.981 -0.5163  0.8674 -0.5451
   73CHL1  H18A 6536   3.091  -0.059   4.029 -1.7259 -0.9090 -0.5686
   73CHL1  H18B 6537   3.054   0.059   3.898 -0.9339  1.5013 -0.3155
   73CHL1  H18C 6538   2.965   0.066   4.058 -2.6472 -0.2834 -0.7330
   73CHL1   C12 6539   2.967  -0.199   3.820  0.4280  0.5028 -0.4548
   73CHL1  H12A 6540   3.064  -0.241   3.854 -0.4042  0.0440  1.4510
   73CHL1  H12B 6541   2.898  -0.284   3.799 -0.2742  1.1436 -0.7814
   73CHL1   C11 6542   3.005  -0.121   3.695  0.2917 -0.1322 -0.6134
   73CHL1  H11A 6543   3.089  -0.057   3.730 -1.1781  0.9464  1.1519
   73CHL1  H11B 6544   3.026  -0.193   3.613 -3.0506 -2.5663  0.4434
   73CHL1    C9 6545   2.891  -0.021   3.642 -0.3090 -0.0700  1.1347
   73CHL1    H9 6546   2.813  -0.091   3.604 -0.6482  0.4058  0.9315
   73CHL1   C10 6547   2.929   0.058   3.515 -0.3549 -0.5508 -0.3195
   73CHL1   C19 6548   3.064   0.119   3.544 -0.2701  0.2621 -0.4443
   73CHL1  H19A 6549   3.143   0.041   3.553  0.0621  0.7168  0.7382
   73CHL1  H19B 6550   3.099   0.194   3.469  0.0355 -0.6149 -1.1925
   73CHL1  H19C 6551   3.066   0.173   3.641 -1.1797  0.9054 -0.7657
   73CHL1    C1 6552   2.941  -0.034   3.398 -0.0803 -0.0114 -0.6193
   73CHL1   H1A 6553   3.017  -0.112   3.419 -0.6375 -0.1119  1.1927
   73CHL1   H1B 6554   2.846  -0.091   3.390  0.4227 -0.8297 -0.8653
   73CHL1    C2 6555   2.957   0.021   3.256 -0.2009 -0.6142  0.1895
   73CHL1   H2A 6556   2.961  -0.059   3.179 -0.6975 -1.5432  1.1064
   73CHL1   H2B 6557   3.057   0.070   3.245 -0.3732 -0.3220 -0.0750
   73CHL1   C20 6558   2.919  -0.237   4.154  0.4625  0.2714  0.2127
   73CHL1   H20 6559   3.005  -0.170   4.177 -0.3256  1.2861  0.2645
   73CHL1   C21 6560   2.993  -0.369   4.105  0.4613 -0.2483  0.0810
   73CHL1  H21A 6561   3.073  -0.353   4.030  1.2357 -3.2809  0.1262
   73CHL1  H21B 6562   2.920  -0.445   4.068  0.1002  0.4935 -0.7570
   73CHL1  H21C 6563   3.042  -0.414   4.194  1.2863  1.1894  0.3904
   73CHL1   C22 6564   2.843  -0.247   4.297 -0.1779 -0.3103  0.3241
   73CHL1  H22A 6565   2.806  -0.146   4.323 -1.1297 -0.8773  1.2662
   73CHL1  H22B 6566   2.753  -0.312   4.289 -0.5764  0.2459  0.2484
   73CHL1   C23 6567   2.942  -0.298   4.411 -0.0536 -0.1196  0.9538
   73CHL1  H23A 6568   2.986  -0.396   4.384  1.2739  0.4499  0.9885
   73CHL1  H23B 6569   3.034  -0.237   4.419  0.2982 -0.8266  2.7995
   73CHL1   C24 6570   2.873  -0.325   4.539  0.0610  0.5106 -0.0824
   73CHL1  H24A 6571   2.855  -0.227   4.590 -2.0584  0.6126 -0.8910
   73CHL1  H24B 6572   2.777  -0.374   4.512  1.5957 -2.0936 -1.1506
   73CHL1   C25 6573   2.947  -0.431   4.635  0.0044 -0.0589  0.2048
   73CHL1   H25 6574   2.968  -0.517   4.567  2.5783  0.9959 -0.4518
   73CHL1   C26 6575   3.080  -0.382   4.687 -0.0697  0.2087 -0.5536
   73CHL1  H26A 6576   3.131  -0.456   4.753  0.9752  1.0143 -0.4382
   73CHL1  H26B 6577   3.151  -0.377   4.602  0.2462 -1.7533 -0.4674
   73CHL1  H26C 6578   3.067  -0.288   4.745 -0.3308 -1.1688  1.7490
   73CHL1   C27 6579   2.853  -0.483   4.752 -0.1463  0.4643  0.4131
   73CHL1  H27A 6580   2.883  -0.587   4.779  3.8850  1.4275  0.3694
   73CHL1  H27B 6581   2.857  -0.414   4.839  1.1469  0.0497  0.7168
   73CHL1  H27C 6582   2.753  -0.492   4.705 -0.0448  1.1715  0.0497
   74CHL1    C3 6583   2.886   6.362   3.000  0.2792  0.4487 -0.3075
   74CHL1    H3 6584   2.903   6.472   3.008 -0.6856  0.4884  2.0815
   74CHL1    O3 6585   2.845   6.334   2.865  0.3826  0.1821  0.0594
   74CHL1   H3' 6586   2.802   6.412   2.828 -0.6512 -0.2514  0.2937
   74CHL1    C4 6587   3.025   6.298   3.014 -0.6386 -0.2410  0.0327
   74CHL1   H4A 6588   3.023   6.195   2.971 -3.1354  0.6470 -2.2476
   74CHL1   H4B 6589   3.086   6.362   2.947 -0.4775 -1.1695 -0.7482
   74CHL1    C5 6590   3.077   6.282   3.155  0.0538  0.4349  0.6411
   74CHL1    C6 6591   3.203   6.320   3.191 -0.7528  0.5014 -0.1756
   74CHL1    H6 6592   3.276   6.355   3.116 -1.1815  0.3155 -0.6864
   74CHL1    C7 6593   3.260   6.293   3.328 -0.1587 -0.1772 -0.2773
   74CHL1   H7A 6594   3.360   6.246   3.339 -2.0789 -4.6912 -0.1176
   74CHL1   H7B 6595   3.263   6.395   3.372 -1.9708 -0.1060 -0.2409
   74CHL1    C8 6596   3.158   6.215   3.411 -0.9184  0.0529 -0.0705
   74CHL1    H8 6597   3.174   6.106   3.396  2.9137  0.2121  1.7462
   74CHL1   C14 6598   3.185   6.233   3.562 -0.4430 -0.2584 -0.1109
   74CHL1   H14 6599   3.156   6.340   3.572 -1.8543 -0.5150 -1.0636
   74CHL1   C15 6600   3.327   6.215   3.616 -0.3369 -0.6975  0.3662
   74CHL1  H15A 6601   3.373   6.124   3.572 -0.5760 -0.2361 -0.9007
   74CHL1  H15B 6602   3.390   6.300   3.583 -0.5151 -1.4556 -2.1357
   74CHL1   C16 6603   3.316   6.222   3.769  0.5912 -0.4067  0.4475
   74CHL1  H16A 6604   3.370   6.132   3.806  1.7288  0.8093  1.8676
   74CHL1  H16B 6605   3.381   6.302   3.810  1.4066 -2.0267  2.4920
   74CHL1   C17 6606   3.166   6.216   3.804 -0.0362 -0.3344 -0.0126
   74CHL1   H17 6607   3.130   6.320   3.815 -1.1672 -0.8292  1.1581
   74CHL1   C13 6608   3.104   6.157   3.673 -0.1193  0.1813  0.0523
   74CHL1   C18 6609   3.124   6.009   3.665  0.2616 -0.4017 -0.2774
   74CHL1  H18A 6610   3.224   5.980   3.703  0.6119  0.3542 -0.6062
   74CHL1  H18B 6611   3.059   5.945   3.728  1.6948 -1.2686  0.3646
   74CHL1  H18C 6612   3.111   5.985   3.557 -0.1372  2.4648 -0.9374
   74CHL1   C12 6613   2.966   6.203   3.645  0.0593  0.4379 -0.0146
   74CHL1  H12A 6614   2.893   6.148   3.708 -1.3578  1.9186 -0.2869
   74CHL1  H12B 6615   2.959   6.310   3.673 -0.4339  0.3247  0.3178
   74CHL1   C11 6616   2.918   6.184   3.498 -0.5604  0.1879 -0.3117
   74CHL1  H11A 6617   2.907   6.075   3.481  0.0803  0.0029  0.3913
   74CHL1  H11B 6618   2.815   6.224   3.487 -1.0188 -1.1942 -1.3447
   74CHL1    C9 6619   3.017   6.249   3.392 -0.2748  0.2892 -0.0942
   74CHL1    H9 6620   3.000   6.357   3.412 -1.7627 -0.0141  0.4721
   74CHL1   C10 6621   2.972   6.225   3.251  0.2291 -0.3383 -0.3335
   74CHL1   C19 6622   2.959   6.075   3.209 -0.0928 -0.3601 -0.0812
   74CHL1  H19A 6623   2.874   6.031   3.265 -0.5092 -0.9530 -1.1447
   74CHL1  H19B 6624   2.933   6.060   3.102 -1.2378  0.6519  0.0411
   74CHL1  H19C 6625   3.052   6.015   3.223 -0.5972 -1.8012 -2.4251
   74CHL1    C1 6626   2.834   6.299   3.238  0.3071 -0.2281  0.2652
   74CHL1   H1A 6627   2.748   6.249   3.287 -0.6813 -0.4987 -1.6444
   74CHL1   H1B 6628   2.839   6.403   3.277 -1.6278  0.1699 -0.3902
   74CHL1    C2 6629   2.782   6.308   3.091 -0.4764 -0.1576  0.1076
   74CHL1   H2A 6630   2.692   6.373   3.083  1.6218  2.9031 -0.4193
   74CHL1   H2B 6631   2.757   6.206   3.054  1.2295 -1.0255  1.1816
   74CHL1   C20 6632   3.141   6.133   3.930  0.1107  0.3956 -0.3572
   74CHL1   H20 6633   3.190   6.035   3.915  2.7885  1.8446 -1.8320
   74CHL1   C21 6634   2.992   6.115   3.962 -0.1966 -0.3748 -0.1335
   74CHL1  H21A 6635   2.946   6.216   3.974 -0.1421  0.0366 -2.7186
   74CHL1  H21B 6636   2.972   6.041   4.042  0.1532 -0.8768 -0.5101
   74CHL1  H21C 6637   2.946   6.063   3.875 -0.0501  0.3347 -0.6504
   74CHL1   C22 6638   3.209   6.208   4.057  0.1088  0.4082  0.1922
   74CHL1  H22A 6639   3.316   6.200   4.029  0.4593 -0.5260  1.7012
   74CHL1  H22B 6640   3.173   6.314   4.053  1.5132  0.9088  0.3764
   74CHL1   C23 6641   3.174   6.137   4.190 -0.2742 -0.7185 -0.0478
   74CHL1  H23A 6642   3.072   6.160   4.228 -0.6538  0.6348 -1.8106
   74CHL1  H23B 6643   3.185   6.026   4.186  0.3161 -0.6258 -3.2054
   74CHL1   C24 6644   3.275   6.182   4.301 -0.3995 -0.0448  0.6530
   74CHL1  H24A 6645   3.377   6.151   4.268 -0.9040 -2.1672  0.9628
   74CHL1  H24B 6646   3.260   6.292   4.295  0.7520  0.1809 -6.1042
   74CHL1   C25 6647   3.250   6.121   4.441  0.3670 -0.1059 -0.5275
   74CHL1   H25 6648   3.142   6.110   4.462  0.8310 -1.5214  1.3004
   74CHL1   C26 6649   3.307   5.976   4.446 -0.1377 -0.2461  0.0529
   74CHL1  H26A 6650   3.298   5.937   4.549 -0.7504 -1.1822 -0.3415
   74CHL1  H26B 6651   3.253   5.913   4.372  2.1396 -1.0062 -1.0403
   74CHL1  H26C 6652   3.413   5.988   4.417 -0.6927  0.7850 -1.7194
   74CHL1   C27 6653   3.324   6.212   4.546  0.3195  0.8788 -0.5959
   74CHL1  H27A 6654   3.301   6.189   4.652  0.1911  0.6548 -0.6715
   74CHL1  H27B 6655   3.435   6.207   4.535  0.4535 -1.9839  0.9766
   74CHL1  H27C 6656   3.288   6.315   4.527 -0.4879  1.1883  2.2035
   75CHL1    C3 6657   2.558   2.673   2.700 -0.3019 -0.4461  0.5102
   75CHL1    H3 6658   2.526   2.779   2.709 -0.0937 -0.5541  3.4406
   75CHL1    O3 6659   2.517   2.651   2.562 -0.1663 -0.2578 -1.0015
   75CHL1   H3' 6660   2.470   2.567   2.561  1.4175 -1.2249  0.4009
   75CHL1    C4 6661   2.706   2.658   2.708  0.2230  0.1657 -0.3469
   75CHL1   H4A 6662   2.709   2.553   2.673 -2.3473  0.4028 -1.5058
   75CHL1   H4B 6663   2.757   2.716   2.627  2.3288 -0.5210  0.4062
   75CHL1    C5 6664   2.756   2.678   2.851  0.2951 -0.3223  0.6473
   75CHL1    C6 6665   2.849   2.764   2.870 -0.0751 -0.4910  0.0081
   75CHL1    H6 6666   2.898   2.811   2.784 -0.5023 -1.9466 -1.0602
   75CHL1    C7 6667   2.902   2.802   3.007  0.0436 -0.7545 -0.8089
   75CHL1   H7A 6668   3.012   2.803   3.023 -0.0248 -2.1153 -0.0431
   75CHL1   H7B 6669   2.874   2.908   3.023  4.3190  0.3702  0.6248
   75CHL1    C8 6670   2.851   2.704   3.122  0.0871 -0.4184  0.1172
   75CHL1    H8 6671   2.913   2.615   3.098 -0.1120 -0.0662 -1.9106
   75CHL1   C14 6672   2.878   2.745   3.267  0.1660 -0.0098  0.5631
   75CHL1   H14 6673   2.813   2.833   3.288  0.8559  0.4232  0.9217
   75CHL1   C15 6674   3.016   2.803   3.300 -0.5858  0.2396  0.6153
   75CHL1  H15A 6675   3.092   2.736   3.255 -0.3535 -0.3513  1.8803
   75CHL1  H15B 6676   3.040   2.905   3.261  2.3037 -0.4414  0.4272
   75CHL1   C16 6677   3.029   2.790   3.449 -0.0923 -0.0049 -0.4689
   75CHL1  H16A 6678   3.118   2.738   3.489 -1.2710 -1.2428  0.6666
   75CHL1  H16B 6679   3.023   2.891   3.496  0.1481  0.1401 -0.7490
   75CHL1   C17 6680   2.898   2.719   3.499 -0.3199  0.2250 -0.2630
   75CHL1   H17 6681   2.830   2.800   3.532  2.7229  2.0014  2.3236
   75CHL1   C13 6682   2.844   2.647   3.378  0.0350  0.1942  0.3059
   75CHL1   C18 6683   2.935   2.524   3.362  0.0732  0.5043 -0.3672
   75CHL1  H18A 6684   2.902   2.447   3.434  1.2421 -0.6416 -1.0048
   75CHL1  H18B 6685   2.923   2.485   3.259  0.1685  0.0476 -0.2052
   75CHL1  H18C 6686   3.040   2.551   3.389 -0.0414  0.7778 -0.1869
   75CHL1   C12 6687   2.690   2.624   3.359  0.2442  0.3857  0.3655
   75CHL1  H12A 6688   2.651   2.560   3.441  0.5798  0.5131  0.6283
   75CHL1  H12B 6689   2.648   2.725   3.380  2.1922  1.0554  1.2364
   75CHL1   C11 6690   2.655   2.567   3.221 -0.7586  0.1694  0.0502
   75CHL1  H11A 6691   2.693   2.463   3.214 -0.5286  0.3724 -4.5687
   75CHL1  H11B 6692   2.547   2.553   3.196 -0.3664 -1.4483 -0.8316
   75CHL1    C9 6693   2.708   2.659   3.103  0.0910 -0.4036 -0.3650
   75CHL1    H9 6694   2.646   2.750   3.118  2.4426  1.4493 -1.3253
   75CHL1   C10 6695   2.685   2.599   2.959  0.7266 -0.0508 -0.1948
   75CHL1   C19 6696   2.734   2.453   2.957 -0.1433  0.1478 -0.5941
   75CHL1  H19A 6697   2.681   2.384   3.026  1.1937 -2.5395 -2.0865
   75CHL1  H19B 6698   2.729   2.403   2.858 -1.4713 -0.9773 -0.0015
   75CHL1  H19C 6699   2.844   2.442   2.972  0.1074  2.0399 -0.8626
   75CHL1    C1 6700   2.536   2.612   2.931 -0.6162 -0.2089 -0.1029
   75CHL1   H1A 6701   2.474   2.557   3.006 -0.2398  0.8674  1.0343
   75CHL1   H1B 6702   2.506   2.718   2.945 -1.6417 -0.4848 -0.0817
   75CHL1    C2 6703   2.486   2.578   2.787 -0.3675  0.1600  0.0584
   75CHL1   H2A 6704   2.377   2.596   2.774 -0.2361  0.3100 -0.8835
   75CHL1   H2B 6705   2.532   2.481   2.761 -2.2326 -1.6405  2.8608
   75CHL1   C20 6706   2.921   2.643   3.635  0.4481  0.1768  0.6828
   75CHL1   H20 6707   2.994   2.562   3.614 -0.3266 -0.3606 -0.0227
   75CHL1   C21 6708   2.795   2.583   3.686  0.6252 -0.0601 -0.0695
   75CHL1  H21A 6709   2.802   2.514   3.773 -0.3021 -0.3126 -0.1787
   75CHL1  H21B 6710   2.749   2.513   3.612  0.6867 -0.3413  0.1576
   75CHL1  H21C 6711   2.722   2.663   3.713 -0.3886 -0.5703 -1.1980
   75CHL1   C22 6712   2.991   2.727   3.754  0.4313 -0.0493 -0.3026
   75CHL1  H22A 6713   3.095   2.740   3.719  0.4081 -0.4352 -0.5260
   75CHL1  H22B 6714   2.940   2.824   3.774 -0.7385 -1.1394  2.3338
   75CHL1   C23 6715   2.996   2.651   3.892 -0.1481  0.4348 -0.1877
   75CHL1  H23A 6716   2.898   2.649   3.943  0.2685  0.1995  0.6231
   75CHL1  H23B 6717   3.014   2.547   3.858  0.6368  0.1910  0.9103
   75CHL1   C24 6718   3.108   2.702   3.981 -0.9044  0.3435  0.5334
   75CHL1  H24A 6719   3.205   2.675   3.935  0.9408  1.9722  3.1662
   75CHL1  H24B 6720   3.104   2.812   3.987  0.8323  0.3984  1.1691
   75CHL1   C25 6721   3.098   2.647   4.128  0.0618  0.1592  0.5635
   75CHL1   H25 6722   2.990   2.653   4.155 -0.5580  0.2856 -1.7192
   75CHL1   C26 6723   3.148   2.503   4.136  0.0422 -0.1061 -0.0390
   75CHL1  H26A 6724   3.160   2.475   4.243 -3.8473  0.1714  0.6228
   75CHL1  H26B 6725   3.066   2.430   4.120 -0.1413 -0.2896  1.5363
   75CHL1  H26C 6726   3.236   2.479   4.074 -0.3460  1.6809 -1.3729
   75CHL1   C27 6727   3.177   2.745   4.221 -0.0912  0.1325  0.4954
   75CHL1  H27A 6728   3.274   2.783   4.182  0.1823  1.0475  1.9478
   75CHL1  H27B 6729   3.115   2.835   4.241 -0.0260 -0.0822  1.7452
   75CHL1  H27C 6730   3.191   2.697   4.320 -0.4378  1.5535  1.2626
   76CHL1    C3 6731   0.953   4.759   3.205  0.1371 -0.7501  0.4119
   76CHL1    H3 6732   1.050   4.807   3.228  0.1343 -0.4830 -0.1040
   76CHL1    O3 6733   0.923   4.774   3.065  0.4083 -0.0405 -0.1608
   76CHL1   H3' 6734   0.938   4.689   3.023 -2.1526 -0.9029  0.4802
   76CHL1    C4 6735   0.970   4.617   3.244  0.2414  0.0083  0.5652
   76CHL1   H4A 6736   0.873   4.562   3.238 -0.3294  1.0862 -0.8158
   76CHL1   H4B 6737   1.043   4.569   3.176 -1.5857 -1.6521 -0.3108
   76CHL1    C5 6738   1.002   4.607   3.395 -0.3422 -0.8463  1.0890
   76CHL1    C6 6739   1.111   4.548   3.429 -0.5556  0.3039  0.0310
   76CHL1    H6 6740   1.177   4.510   3.350 -1.1711  1.2053 -0.9609
   76CHL1    C7 6741   1.151   4.510   3.567 -0.5064 -0.3630  0.8368
   76CHL1   H7A 6742   1.157   4.399   3.572  1.5208 -0.4786 -1.9630
   76CHL1   H7B 6743   1.250   4.558   3.580 -0.0169 -0.7315 -1.2424
   76CHL1    C8 6744   1.049   4.561   3.672  0.0295  0.8403 -0.1481
   76CHL1    H8 6745   0.983   4.472   3.670 -0.3552  1.1330 -1.7928
   76CHL1   C14 6746   1.116   4.584   3.807  0.5008  0.0034  0.0885
   76CHL1   H14 6747   1.190   4.667   3.796  1.4950 -0.7396  1.0240
   76CHL1   C15 6748   1.203   4.469   3.857  0.4247  0.1007 -0.2426
   76CHL1  H15A 6749   1.152   4.370   3.855  2.0134 -0.7612  0.0650
   76CHL1  H15B 6750   1.294   4.473   3.793 -1.0791  0.2666 -2.4661
   76CHL1   C16 6751   1.225   4.503   4.002  0.1179  0.3151  0.3433
   76CHL1  H16A 6752   1.188   4.415   4.060  0.5918 -0.1760 -0.0928
   76CHL1  H16B 6753   1.329   4.527   4.032 -0.0329  0.2614  0.9319
   76CHL1   C17 6754   1.131   4.627   4.036  0.0412 -0.2944 -0.4526
   76CHL1   H17 6755   1.201   4.711   4.019  0.6439 -0.9535 -1.3872
   76CHL1   C13 6756   1.029   4.619   3.923  0.1788 -0.7306 -0.1262
   76CHL1   C18 6757   0.933   4.495   3.953  0.0149 -0.0764  0.1572
   76CHL1  H18A 6758   0.988   4.403   3.982 -1.9026 -0.6433  2.2756
   76CHL1  H18B 6759   0.868   4.512   4.041  2.2893 -2.3385  2.4179
   76CHL1  H18C 6760   0.885   4.458   3.859  1.1995 -1.2053 -0.0295
   76CHL1   C12 6761   0.954   4.745   3.889  0.3395  0.7061 -0.3885
   76CHL1  H12A 6762   0.877   4.768   3.965 -0.2527 -0.7170 -0.5157
   76CHL1  H12B 6763   1.027   4.824   3.862  0.6586  0.5595  0.0495
   76CHL1   C11 6764   0.877   4.723   3.751  0.0248 -0.2765  0.5613
   76CHL1  H11A 6765   0.800   4.643   3.755  1.0869 -1.3156  1.2205
   76CHL1  H11B 6766   0.839   4.822   3.720  1.7256  0.2236 -0.0233
   76CHL1    C9 6767   0.975   4.685   3.633 -0.0513  0.6321 -0.0122
   76CHL1    H9 6768   1.051   4.766   3.631  0.5822  0.1106  1.3710
   76CHL1   C10 6769   0.901   4.678   3.493  0.2787 -0.0306  0.8448
   76CHL1   C19 6770   0.769   4.600   3.499  0.4344  0.4193  0.2215
   76CHL1  H19A 6771   0.787   4.493   3.520 -0.0275  0.1931 -0.4995
   76CHL1  H19B 6772   0.696   4.633   3.576  0.4364  0.2507  0.2955
   76CHL1  H19C 6773   0.720   4.607   3.399  1.1637  1.7473 -0.0735
   76CHL1    C1 6774   0.868   4.820   3.438 -0.7409  0.5899 -0.0751
   76CHL1   H1A 6775   0.789   4.871   3.497 -1.1301  1.2564 -1.1205
   76CHL1   H1B 6776   0.961   4.880   3.448 -0.8994  1.1876 -1.8434
   76CHL1    C2 6777   0.839   4.820   3.280 -0.2071  0.5484  0.7424
   76CHL1   H2A 6778   0.820   4.927   3.257 -1.1041  0.2071 -0.1771
   76CHL1   H2B 6779   0.749   4.759   3.255  0.7065 -0.1917 -0.8783
   76CHL1   C20 6780   1.090   4.618   4.183  0.5935 -0.3045  0.0230
   76CHL1   H20 6781   1.030   4.525   4.199  3.5693 -1.9003  3.2106
   76CHL1   C21 6782   1.007   4.743   4.230 -0.8481 -0.2520  0.1186
   76CHL1  H21A 6783   1.068   4.836   4.225 -2.1196  0.6357  0.7473
   76CHL1  H21B 6784   0.978   4.725   4.335  0.3305 -1.7908  0.2153
   76CHL1  H21C 6785   0.915   4.764   4.171 -1.0846 -0.4299  0.4230
   76CHL1   C22 6786   1.214   4.599   4.281 -0.2433 -0.1646  0.4571
   76CHL1  H22A 6787   1.181   4.597   4.387 -0.7912 -2.7384  0.3006
   76CHL1  H22B 6788   1.252   4.496   4.267  1.2964  0.4833 -0.3686
   76CHL1   C23 6789   1.327   4.705   4.262 -0.3531 -0.0614 -0.1188
   76CHL1  H23A 6790   1.373   4.700   4.161  0.1324  0.5779  0.0643
   76CHL1  H23B 6791   1.295   4.811   4.270  2.5147  1.0115 -1.3470
   76CHL1   C24 6792   1.435   4.687   4.366 -0.0238 -0.3548 -0.2754
   76CHL1  H24A 6793   1.399   4.709   4.469  0.5375  0.0984 -0.1710
   76CHL1  H24B 6794   1.460   4.579   4.365 -2.6994 -1.1780  3.0811
   76CHL1   C25 6795   1.565   4.763   4.334 -0.6105 -0.8459 -0.1811
   76CHL1   H25 6796   1.605   4.734   4.234  0.0426  1.7990 -0.7823
   76CHL1   C26 6797   1.541   4.914   4.320 -0.0127 -0.8615  0.2870
   76CHL1  H26A 6798   1.615   4.983   4.366  0.1981  0.0538 -1.3748
   76CHL1  H26B 6799   1.539   4.935   4.211 -2.1856 -2.1519 -0.0049
   76CHL1  H26C 6800   1.447   4.956   4.362  0.8949  1.3675  0.2235
   76CHL1   C27 6801   1.676   4.724   4.440  0.1032 -0.4073 -0.9150
   76CHL1  H27A 6802   1.700   4.616   4.430 -0.3275 -0.4717 -1.2864
   76CHL1  H27B 6803   1.766   4.787   4.423  1.0140 -1.7464 -1.2013
   76CHL1  H27C 6804   1.638   4.755   4.540  0.5773 -0.7365 -0.6255
   77SOPE     N 6805   6.076   0.191   6.916 -0.0634  0.0071  0.5043
   77SOPE   HN1 6806   6.129   0.104   6.934  2.2935  1.1233 -0.6478
   77SOPE   HN2 6807   6.047   0.226   7.010  1.6774 -1.1798  1.5323
   77SOPE   HN3 6808   5.996   0.168   6.853  0.7005 -0.2417 -0.3943
   77SOPE   C12 6809   6.174   0.296   6.862 -0.2844 -0.3319 -0.1033
   77SOPE  H12A 6810   6.248   0.324   6.940 -0.1380 -0.1680 -0.3022
   77SOPE  H12B 6811   6.110   0.386   6.849  3.1863  2.0827 -2.0199
   77SOPE   C11 6812   6.230   0.265   6.725 -0.4804  0.4596  0.5126
   77SOPE  H11A 6813   6.274   0.362   6.692 -0.9559  0.7503  0.7101
   77SOPE  H11B 6814   6.150   0.244   6.650 -1.9704  3.8426  0.9389
   77SOPE     P 6815   6.350   0.043   6.652  0.1171 -0.3569 -0.5052
   77SOPE   O13 6816   6.225  -0.036   6.652 -0.5590 -0.1895 -0.7550
   77SOPE   O14 6817   6.477  -0.024   6.685 -0.7792 -0.6021  0.5627
   77SOPE   O12 6818   6.338   0.170   6.736 -0.2189 -0.0488  0.1318
   77SOPE   O11 6819   6.358   0.110   6.506  0.0263  0.2136 -0.5450
   77SOPE    C1 6820   6.479   0.176   6.464 -0.7516  0.3411 -0.2224
   77SOPE    HA 6821   6.543   0.095   6.424  1.4011  1.8977 -0.1098
   77SOPE    HB 6822   6.534   0.222   6.549  0.3736  1.1535 -1.3576
   77SOPE    C2 6823   6.442   0.291   6.358  0.5339  0.5409 -0.3134
   77SOPE    HS 6824   6.358   0.345   6.407 -1.4432 -3.3243  0.9969
   77SOPE   O21 6825   6.407   0.229   6.227 -0.0300  0.5937 -0.0941
   77SOPE   C21 6826   6.318   0.301   6.158  0.4755  0.1182  0.5720
   77SOPE   O22 6827   6.264   0.407   6.182 -0.4893 -0.0097 -0.7423
   77SOPE   C22 6828   6.292   0.214   6.030 -0.0667 -0.1944  0.0326
   77SOPE   H2R 6829   6.193   0.243   5.991 -2.0043 -3.2941  2.1955
   77SOPE   H2S 6830   6.283   0.109   6.067  1.1957 -0.9150 -1.5776
   77SOPE    C3 6831   6.554   0.396   6.339 -0.2624  0.4339 -0.1890
   77SOPE    HX 6832   6.644   0.342   6.303 -1.0210 -0.9538 -0.0574
   77SOPE    HY 6833   6.585   0.426   6.441  2.3499 -0.0298 -0.7883
   77SOPE   O31 6834   6.523   0.505   6.252 -0.3076 -0.3552  0.2145
   77SOPE   C31 6835   6.520   0.630   6.298 -0.0073  0.5218 -0.1104
   77SOPE   O32 6836   6.517   0.656   6.417  0.5814  0.2955  0.6842
   77SOPE   C32 6837   6.518   0.733   6.195 -0.1097  0.6861  0.3344
   77SOPE   H2X 6838   6.622   0.736   6.156  0.0606 -3.6445  0.0299
   77SOPE   H2Y 6839   6.489   0.827   6.248  4.0152  1.3349  1.8714
   77SOPE   C23 6840   6.404   0.214   5.916 -0.2914  0.1735 -0.1054
   77SOPE   H3R 6841   6.499   0.172   5.955  0.1213  2.4837  1.6457
   77SOPE   H3S 6842   6.430   0.318   5.886  0.3282  1.1671  3.4693
   77SOPE   C24 6843   6.356   0.128   5.795 -0.0628 -1.0276  0.3096
   77SOPE   H4R 6844   6.442   0.112   5.728 -1.2775  0.7971 -1.8436
   77SOPE   H4S 6845   6.325   0.030   5.838 -0.8352 -1.0251 -0.2168
   77SOPE   C25 6846   6.247   0.198   5.709 -0.3453  0.8591  0.2826
   77SOPE   H5R 6847   6.148   0.152   5.726 -0.3335 -0.0701 -1.8248
   77SOPE   H5S 6848   6.243   0.306   5.736 -1.6109  0.4252  1.9474
   77SOPE   C26 6849   6.266   0.188   5.563 -0.2744 -0.0084  0.2873
   77SOPE   H6R 6850   6.366   0.233   5.542 -0.7962  0.9274 -0.2811
   77SOPE   H6S 6851   6.261   0.084   5.524 -0.0591  0.8449 -2.2541
   77SOPE   C27 6852   6.153   0.273   5.493 -0.4168 -0.1169  0.6382
   77SOPE   H7R 6853   6.138   0.363   5.557  0.2924  1.1909 -0.9516
   77SOPE   H7S 6854   6.192   0.317   5.398 -2.2428  0.5169  0.1504
   77SOPE   C28 6855   6.025   0.197   5.441 -0.8956 -0.5020 -0.5925
   77SOPE   H8R 6856   6.053   0.131   5.356  3.4236  2.2410 -1.6123
   77SOPE   H8S 6857   6.000   0.126   5.523 -0.6037  0.3552  0.2561
   77SOPE   C29 6858   5.905   0.282   5.415 -0.7486 -0.1823  0.1099
   77SOPE   H91 6859   5.866   0.318   5.512 -2.1751 -2.0310  0.2833
   77SOPE  C210 6860   5.846   0.312   5.301  0.5112 -0.8200  0.4464
   77SOPE  H101 6861   5.770   0.392   5.296  0.2160 -1.1607 -1.1475
   77SOPE  C211 6862   5.880   0.264   5.168 -0.0247  0.7065 -0.1449
   77SOPE  H11R 6863   5.799   0.194   5.136 -0.0377  0.9079 -0.5577
   77SOPE  H11S 6864   5.972   0.202   5.179 -0.8196 -0.5625 -0.4108
   77SOPE  C212 6865   5.890   0.378   5.067  0.4184 -0.4361 -0.0951
   77SOPE  H12R 6866   5.789   0.425   5.056  0.0314 -1.1540  0.3314
   77SOPE  H12S 6867   5.914   0.341   4.965 -0.3733 -0.4019 -0.3022
   77SOPE  C213 6868   6.004   0.478   5.103  0.1809 -0.5111  0.2407
   77SOPE  H13R 6869   5.984   0.500   5.210  0.5804 -0.3557  0.2834
   77SOPE  H13S 6870   6.001   0.562   5.031 -0.3094 -0.5193  0.2503
   77SOPE  C214 6871   6.140   0.421   5.085 -0.3891  0.0734  0.0913
   77SOPE  H14R 6872   6.139   0.383   4.980  0.3275 -0.7232  0.3593
   77SOPE  H14S 6873   6.175   0.340   5.153  0.7178  0.2987 -0.1777
   77SOPE  C215 6874   6.254   0.524   5.086  0.2325 -0.2402  0.0297
   77SOPE  H15R 6875   6.235   0.597   5.004 -1.9178  1.4007  1.8490
   77SOPE  H15S 6876   6.349   0.471   5.067 -0.3892 -0.9495 -1.2634
   77SOPE  C216 6877   6.259   0.604   5.223  0.5791  0.2431 -0.3047
   77SOPE  H16R 6878   6.307   0.537   5.298  0.2299  0.4913  0.1498
   77SOPE  H16S 6879   6.153   0.630   5.247  0.0608  1.2636 -3.3071
   77SOPE  C217 6880   6.341   0.722   5.207 -0.0476  0.3368  0.0637
   77SOPE  H17R 6881   6.295   0.781   5.125 -0.3178 -1.0487 -0.8122
   77SOPE  H17S 6882   6.446   0.691   5.188  0.7863  1.7291  2.0122
   77SOPE  C218 6883   6.360   0.815   5.329  0.4447 -0.4291  0.2747
   77SOPE  H18R 6884   6.267   0.876   5.331 -0.5313 -1.8913  1.7316
   77SOPE  H18S 6885   6.453   0.875   5.315 -0.1249  0.1554 -1.1734
   77SOPE  H18T 6886   6.369   0.760   5.426  5.0046  1.0169  0.9396
   77SOPE   C33 6887   6.403   0.719   6.095 -0.3434 -0.3675  0.3029
   77SOPE   H3X 6888   6.310   0.720   6.155  1.7225 -0.4504  3.7647
   77SOPE   H3Y 6889   6.412   0.620   6.044 -0.7285  1.0458 -2.7115
   77SOPE   C34 6890   6.412   0.825   5.985  0.0425 -0.5721  0.0857
   77SOPE   H4X 6891   6.513   0.822   5.940  0.8221 -0.8187  1.7638
   77SOPE   H4Y 6892   6.409   0.924   6.036  1.1659  0.1402 -1.1831
   77SOPE   C35 6893   6.300   0.820   5.879  0.1608  0.3705 -0.6208
   77SOPE   H5X 6894   6.314   0.903   5.806  0.7335  0.2576 -0.6432
   77SOPE   H5Y 6895   6.197   0.818   5.921 -0.2139 -0.3831 -1.5276
   77SOPE   C36 6896   6.311   0.690   5.794 -0.0005  0.6615  0.0081
   77SOPE   H6X 6897   6.225   0.685   5.723  0.4007  1.1752 -0.5295
   77SOPE   H6Y 6898   6.303   0.605   5.865 -0.4796  0.9850  0.3461
   77SOPE   C37 6899   6.444   0.686   5.712 -0.2427 -0.7712 -0.0520
   77SOPE   H7X 6900   6.522   0.687   5.791  1.0717 -0.3509 -1.3115
   77SOPE   H7Y 6901   6.472   0.772   5.648  1.0799 -0.7785  0.4853
   77SOPE   C38 6902   6.454   0.557   5.633  0.2314 -1.0472 -0.6471
   77SOPE   H8X 6903   6.379   0.556   5.551  0.2510  0.9816 -0.7418
   77SOPE   H8Y 6904   6.434   0.466   5.694  0.5662 -0.2131  0.7676
   77SOPE   C39 6905   6.581   0.552   5.551  0.2056 -0.2028  0.5351
   77SOPE   H9X 6906   6.605   0.644   5.494 -2.2593  2.1644  3.0129
   77SOPE   H9Y 6907   6.574   0.479   5.468  0.2071 -0.2255  0.5548
   77SOPE  C310 6908   6.698   0.499   5.631 -0.3188  0.5584 -0.8592
   77SOPE  H10X 6909   6.668   0.402   5.675  0.6905  0.7339  0.2954
   77SOPE  H10Y 6910   6.722   0.569   5.714 -1.4217 -0.5731  0.4585
   77SOPE  C311 6911   6.822   0.472   5.550  1.0451 -0.3414  0.7343
   77SOPE  H11X 6912   6.823   0.569   5.495 -2.5035 -1.0503 -0.8878
   77SOPE  H11Y 6913   6.803   0.405   5.464 -2.6089  2.6247 -1.0757
   77SOPE  C312 6914   6.952   0.448   5.625 -0.1100  0.2143  0.4567
   77SOPE  H12X 6915   7.017   0.389   5.557  0.1222 -0.2290  1.0566
   77SOPE  H12Y 6916   6.911   0.389   5.709 -0.0940 -0.3457  0.0769
   77SOPE  C313 6917   7.021   0.579   5.660  0.3123 -0.7186 -0.2504
   77SOPE  H13X 6918   7.022   0.648   5.573  1.4220 -0.0652  0.2667
   77SOPE  H13Y 6919   7.125   0.550   5.686  0.2048 -1.1074 -0.2478
   77SOPE  C314 6920   6.960   0.669   5.769  0.4849  0.3820 -0.3922
   77SOPE  H14X 6921   6.863   0.715   5.739  0.0250 -0.6060 -0.4531
   77SOPE  H14Y 6922   7.041   0.745   5.773  1.3163 -0.4414 -1.1212
   77SOPE  C315 6923   6.937   0.584   5.897  0.3717 -0.1808  0.6386
   77SOPE  H15X 6924   7.038   0.543   5.915  0.8193  0.1382 -0.9842
   77SOPE  H15Y 6925   6.861   0.503   5.897 -1.3575  1.3607 -0.0238
   77SOPE  C316 6926   6.908   0.665   6.023 -0.3150  0.9338  0.5672
   77SOPE  H16X 6927   6.809   0.710   6.001 -0.5646  0.0156 -0.3039
   77SOPE  H16Y 6928   6.978   0.749   6.042  0.0229  0.1926  2.9251
   77SOPE  C317 6929   6.930   0.580   6.150  0.0151 -0.3234 -0.8011
   77SOPE  H17X 6930   7.028   0.528   6.151  0.2500  0.0681 -2.1520
   77SOPE  H17Y 6931   6.856   0.497   6.151 -0.7578  0.3086  1.5303
   77SOPE  C318 6932   6.904   0.652   6.283 -0.5174 -0.2671  0.4298
   77SOPE  H18X 6933   6.947   0.578   6.353  1.8488 -0.5627 -1.1956
   77SOPE  H18Y 6934   6.798   0.672   6.307 -0.6704 -1.3113  0.6381
   77SOPE  H18Z 6935   6.959   0.748   6.296 -0.1027 -0.3915 -0.2830
   78SOPE     N 6936   5.177   6.307   7.333 -0.0746  0.0796  0.9400
   78SOPE   HN1 6937   5.242   6.230   7.306  1.3500  2.2980 -2.7032
   78SOPE   HN2 6938   5.210   6.333   7.429  1.2839 -0.0003  0.5182
   78SOPE   HN3 6939   5.079   6.275   7.343  0.5652 -1.3185  3.8801
   78SOPE   C12 6940   5.197   6.426   7.249  0.4304  0.1782 -0.2480
   78SOPE  H12A 6941   5.131   6.508   7.286 -0.0246 -0.0604 -0.5116
   78SOPE  H12B 6942   5.162   6.395   7.148 -0.6432 -0.4586  0.2951
   78SOPE   C11 6943   5.347   6.457   7.250 -0.6612 -0.6597  0.7126
   78SOPE  H11A 6944   5.374   6.480   7.356 -0.5035 -0.7040  0.6826
   78SOPE  H11B 6945   5.357   6.551   7.191  0.2036 -2.8246 -2.9057
   78SOPE     P 6946   5.468   6.339   7.043  0.2286 -0.2052  0.2479
   78SOPE   O13 6947   5.343   6.296   6.973 -0.1478  0.2706 -0.0982
   78SOPE   O14 6948   5.584   6.245   7.035 -0.5816  0.1340 -0.1082
   78SOPE   O12 6949   5.433   6.358   7.202  0.0301  0.5504  0.4125
   78SOPE   O11 6950   5.504   6.486   7.004 -0.5949  0.3945  0.1137
   78SOPE    C1 6951   5.413   6.563   6.922 -0.6115  0.0778  0.6822
   78SOPE    HA 6952   5.418   6.666   6.961 -0.3730  0.3267  0.0012
   78SOPE    HB 6953   5.307   6.528   6.928 -0.5282  0.0000  1.9114
   78SOPE    C2 6954   5.465   6.569   6.771 -0.1819 -0.1447 -0.2290
   78SOPE    HS 6955   5.401   6.638   6.712 -1.3084 -0.6808  0.3193
   78SOPE   O21 6956   5.481   6.440   6.716  0.4746  0.4922 -0.6990
   78SOPE   C21 6957   5.375   6.390   6.657 -0.6740 -0.0558  0.1329
   78SOPE   O22 6958   5.265   6.440   6.673 -0.6121  0.4960 -0.1387
   78SOPE   C22 6959   5.411   6.265   6.574  0.0641 -0.0740 -0.0016
   78SOPE   H2R 6960   5.392   6.176   6.638 -2.1664  1.4914  1.6878
   78SOPE   H2S 6961   5.517   6.278   6.543  0.0694  0.6628  0.3119
   78SOPE    C3 6962   5.611   6.627   6.765 -0.6283  0.1266 -0.3780
   78SOPE    HX 6963   5.669   6.568   6.839 -1.1145 -0.2667 -0.3017
   78SOPE    HY 6964   5.625   6.734   6.790  2.0665 -0.1369 -0.4206
   78SOPE   O31 6965   5.656   6.614   6.630  0.2452 -0.6007  0.5329
   78SOPE   C31 6966   5.760   6.535   6.602  0.3702 -0.1282  0.2958
   78SOPE   O32 6967   5.813   6.457   6.673 -0.2248  0.1037 -0.9060
   78SOPE   C32 6968   5.820   6.566   6.459 -1.0274 -0.5374 -0.3827
   78SOPE   H2X 6969   5.924   6.526   6.456  0.3666  2.5948  1.3427
   78SOPE   H2Y 6970   5.831   6.675   6.445  2.2029 -0.4420  1.7682
   78SOPE   C23 6971   5.306   6.246   6.463 -0.4874  0.6075 -0.7544
   78SOPE   H3R 6972   5.305   6.321   6.381  1.2679  1.3740 -0.1320
   78SOPE   H3S 6973   5.204   6.236   6.504  0.3296 -2.7857  0.8705
   78SOPE   C24 6974   5.332   6.100   6.403 -0.3857 -0.4626  0.0932
   78SOPE   H4R 6975   5.438   6.109   6.373 -0.2595 -1.4862  0.2251
   78SOPE   H4S 6976   5.316   6.032   6.489 -3.9540  0.3580  0.2297
   78SOPE   C25 6977   5.228   6.059   6.299  0.0549 -0.4685  0.2404
   78SOPE   H5R 6978   5.257   5.953   6.280  1.2256 -0.1688  0.2966
   78SOPE   H5S 6979   5.131   6.055   6.353  1.3315 -1.7979  2.5857
   78SOPE   C26 6980   5.216   6.155   6.184 -0.1089  0.2759 -0.4812
   78SOPE   H6R 6981   5.132   6.129   6.117 -0.0354  0.7190 -0.7491
   78SOPE   H6S 6982   5.191   6.256   6.223  0.8369  0.0873  0.7090
   78SOPE   C27 6983   5.338   6.146   6.090 -0.3846  0.3130  1.0021
   78SOPE   H7R 6984   5.420   6.135   6.164  0.5924  0.1830 -0.0615
   78SOPE   H7S 6985   5.326   6.051   6.034  2.2440  1.1357 -1.1890
   78SOPE   C28 6986   5.350   6.258   5.984 -0.0275  0.7303 -0.0381
   78SOPE   H8R 6987   5.376   6.355   6.034  0.0772 -0.2351  1.8719
   78SOPE   H8S 6988   5.442   6.244   5.923  0.8529  1.9843  0.9256
   78SOPE   C29 6989   5.223   6.274   5.898 -0.1479 -0.3691 -0.2499
   78SOPE   H91 6990   5.128   6.275   5.954 -0.5994 -0.1573 -1.0169
   78SOPE  C210 6991   5.220   6.279   5.760 -0.1655 -0.0634 -0.0681
   78SOPE  H101 6992   5.122   6.307   5.718 -0.9746 -1.8667  0.5447
   78SOPE  C211 6993   5.340   6.268   5.667 -0.2938 -0.0317 -0.0979
   78SOPE  H11R 6994   5.424   6.204   5.701  0.6469  1.1740 -0.0908
   78SOPE  H11S 6995   5.396   6.364   5.672  1.2169 -0.9430  2.1434
   78SOPE  C212 6996   5.314   6.237   5.518 -0.4756 -0.3431  0.8619
   78SOPE  H12R 6997   5.260   6.140   5.512 -0.8508 -0.0750 -0.5323
   78SOPE  H12S 6998   5.404   6.201   5.463  0.8454  0.8979  2.1098
   78SOPE  C213 6999   5.241   6.343   5.444  0.1763  0.3226 -0.8965
   78SOPE  H13R 7000   5.294   6.440   5.453 -2.9651  2.0432  1.0469
   78SOPE  H13S 7001   5.136   6.354   5.480  0.5580 -0.0669  0.4064
   78SOPE  C214 7002   5.229   6.315   5.290 -0.8292  0.4402  0.3035
   78SOPE  H14R 7003   5.176   6.221   5.266 -0.7633  0.3932  0.3399
   78SOPE  H14S 7004   5.331   6.303   5.248 -1.3729 -0.5048 -0.7702
   78SOPE  C215 7005   5.172   6.439   5.222  0.1182  0.2675 -0.4166
   78SOPE  H15R 7006   5.246   6.519   5.240  1.7390 -1.0434 -0.9141
   78SOPE  H15S 7007   5.080   6.462   5.278 -0.0203 -0.4449 -0.3361
   78SOPE  C216 7008   5.153   6.428   5.067 -0.0919  0.0933  0.0567
   78SOPE  H16R 7009   5.253   6.409   5.023 -0.6007 -0.1580 -1.0119
   78SOPE  H16S 7010   5.125   6.533   5.044  0.3225  0.6676  1.9290
   78SOPE  C217 7011   5.047   6.334   5.019  1.0505  0.2298 -0.1946
   78SOPE  H17R 7012   4.963   6.336   5.092  0.9603  1.8519 -0.3114
   78SOPE  H17S 7013   5.084   6.229   5.025 -0.7655 -0.4476 -0.3027
   78SOPE  C218 7014   5.007   6.353   4.877  0.4433 -1.1221  0.5449
   78SOPE  H18R 7015   4.958   6.447   4.843 -1.5233 -2.5606 -0.8334
   78SOPE  H18S 7016   4.934   6.278   4.838 -1.9773  1.6098 -0.5674
   78SOPE  H18T 7017   5.100   6.343   4.817 -0.7837 -2.5049 -1.2614
   78SOPE   C33 7018   5.756   6.505   6.337  0.0860 -0.4862  0.1362
   78SOPE   H3X 7019   5.754   6.394   6.341 -1.5676 -0.4856 -0.2793
   78SOPE   H3Y 7020   5.834   6.538   6.265  0.6416 -1.0164  0.4775
   78SOPE   C34 7021   5.624   6.568   6.303  0.4762  0.4487 -0.3511
   78SOPE   H4X 7022   5.650   6.676   6.300 -0.4118  0.8707  2.7731
   78SOPE   H4Y 7023   5.556   6.552   6.390 -0.7897 -2.0003 -1.6902
   78SOPE   C35 7024   5.565   6.506   6.174  0.2316 -0.3525  0.4262
   78SOPE   H5X 7025   5.457   6.532   6.169  0.7562  1.8578 -0.6240
   78SOPE   H5Y 7026   5.574   6.396   6.190  0.6849 -0.2712  0.7312
   78SOPE   C36 7027   5.641   6.542   6.045 -0.2544  0.4372  0.2841
   78SOPE   H6X 7028   5.743   6.504   6.066  1.0520  2.3797 -2.0414
   78SOPE   H6Y 7029   5.658   6.652   6.034  1.5509  0.0682 -1.1680
   78SOPE   C37 7030   5.596   6.484   5.909 -0.4188 -0.1142  0.1731
   78SOPE   H7X 7031   5.489   6.500   5.886 -0.3713 -0.4407 -0.2833
   78SOPE   H7Y 7032   5.604   6.373   5.916 -1.4145 -0.1620  0.7582
   78SOPE   C38 7033   5.678   6.532   5.783  0.0113  0.5132  0.3950
   78SOPE   H8X 7034   5.775   6.477   5.788 -1.5523 -2.5033  0.0328
   78SOPE   H8Y 7035   5.701   6.639   5.803 -3.3835  1.0118  2.4428
   78SOPE   C39 7036   5.618   6.497   5.650 -0.0470 -0.0934 -1.0229
   78SOPE   H9X 7037   5.519   6.547   5.658 -0.6872 -1.6226  1.8475
   78SOPE   H9Y 7038   5.600   6.388   5.642  0.2569 -0.2403  0.1807
   78SOPE  C310 7039   5.689   6.532   5.519 -0.2715 -0.1443 -0.0124
   78SOPE  H10X 7040   5.787   6.480   5.522 -1.3034 -2.1057  2.1889
   78SOPE  H10Y 7041   5.703   6.642   5.521  1.5786 -0.3341 -0.3890
   78SOPE  C311 7042   5.605   6.484   5.395 -0.7228 -0.1157 -0.0603
   78SOPE  H11X 7043   5.514   6.547   5.389 -0.5868  0.0339 -0.5663
   78SOPE  H11Y 7044   5.584   6.377   5.414  1.2587 -0.2402  1.8889
   78SOPE  C312 7045   5.688   6.479   5.260 -0.0442 -0.4909 -0.8537
   78SOPE  H12X 7046   5.767   6.401   5.267  0.8665  0.2499 -2.4291
   78SOPE  H12Y 7047   5.734   6.580   5.250  1.2003 -0.9621 -0.1184
   78SOPE  C313 7048   5.596   6.467   5.133 -0.2334 -0.2857 -1.0327
   78SOPE  H13X 7049   5.533   6.557   5.116  0.4124  1.0288  2.6429
   78SOPE  H13Y 7050   5.523   6.384   5.149 -0.7133  0.3340  0.0715
   78SOPE  C314 7051   5.689   6.418   5.010  0.3040  0.4962 -0.0629
   78SOPE  H14X 7052   5.732   6.321   5.042  1.4179  0.7519 -0.7386
   78SOPE  H14Y 7053   5.769   6.493   4.995  2.3264 -1.5604 -0.0942
   78SOPE  C315 7054   5.597   6.410   4.886  0.4178  0.1226  0.1018
   78SOPE  H15X 7055   5.577   6.512   4.848 -4.5398 -0.6467 -0.0437
   78SOPE  H15Y 7056   5.500   6.365   4.916  0.2391 -0.6430 -1.5119
   78SOPE  C316 7057   5.638   6.323   4.761 -0.1981  0.4250 -0.3796
   78SOPE  H16X 7058   5.673   6.223   4.796 -0.9301  0.8326  1.6353
   78SOPE  H16Y 7059   5.727   6.380   4.726  0.8479 -1.3385 -0.7526
   78SOPE  C317 7060   5.533   6.320   4.644 -0.2662  0.0849 -0.7479
   78SOPE  H17X 7061   5.580   6.249   4.573 -1.5622  0.2815 -1.8455
   78SOPE  H17Y 7062   5.533   6.414   4.584  0.5337  2.1028  2.2063
   78SOPE  C318 7063   5.392   6.280   4.700 -0.2344 -0.8537  1.2431
   78SOPE  H18X 7064   5.326   6.294   4.611  0.2097 -1.4838  0.8003
   78SOPE  H18Y 7065   5.357   6.348   4.780  0.1030 -0.8396  1.3804
   78SOPE  H18Z 7066   5.400   6.173   4.728  1.4293 -2.0283 -2.8439
   79SOPE     N 7067   0.817   3.994   6.894 -0.3851  0.0179  0.0629
   79SOPE   HN1 7068   0.890   4.065   6.916  0.2371 -0.5212 -0.2250
   79SOPE   HN2 7069   0.800   3.929   6.973  0.4101  1.8906  1.8757
   79SOPE   HN3 7070   0.850   3.941   6.810 -2.2278  0.0382 -0.7121
   79SOPE   C12 7071   0.690   4.065   6.860  0.0092  0.6305  0.4143
   79SOPE  H12A 7072   0.651   4.117   6.950  0.7022 -0.6766  1.5036
   79SOPE  H12B 7073   0.602   4.000   6.837 -1.5302  2.7938 -0.1754
   79SOPE   C11 7074   0.712   4.164   6.743 -0.0826 -0.1865  0.2612
   79SOPE  H11A 7075   0.611   4.208   6.730 -0.2020  0.0697  1.9221
   79SOPE  H11B 7076   0.746   4.110   6.652 -1.1845  0.4039 -0.5192
   79SOPE     P 7077   0.764   4.397   6.839 -0.0771 -0.3261 -0.1934
   79SOPE   O13 7078   0.874   4.494   6.851 -1.0700 -0.5462 -0.1835
   79SOPE   O14 7079   0.702   4.365   6.968 -0.0212 -0.1016  0.0710
   79SOPE   O12 7080   0.815   4.261   6.770 -0.2988 -0.3619 -0.4928
   79SOPE   O11 7081   0.670   4.465   6.729 -0.3537  0.2409  0.1100
   79SOPE    C1 7082   0.718   4.479   6.597 -0.3050 -0.5171 -0.0282
   79SOPE    HA 7083   0.760   4.381   6.565  2.0447  0.2583  0.5130
   79SOPE    HB 7084   0.798   4.555   6.589 -0.8067  0.0280  0.0524
   79SOPE    C2 7085   0.591   4.505   6.498 -0.4096  0.5289  0.2416
   79SOPE    HS 7086   0.528   4.415   6.507 -1.4990  1.2324 -0.1122
   79SOPE   O21 7087   0.636   4.533   6.367  0.1028  0.2470 -0.4012
   79SOPE   C21 7088   0.688   4.434   6.302  0.1011 -0.2151  0.0720
   79SOPE   O22 7089   0.693   4.318   6.341 -0.3346 -0.1766  0.2378
   79SOPE   C22 7090   0.730   4.473   6.162  0.3824  1.0705  0.1001
   79SOPE   H2R 7091   0.819   4.412   6.134 -0.3780  0.5580 -1.2875
   79SOPE   H2S 7092   0.751   4.581   6.148  1.0848  0.8568 -0.5832
   79SOPE    C3 7093   0.510   4.625   6.548  0.0956 -0.4653  0.2758
   79SOPE    HX 7094   0.576   4.714   6.545 -0.2381 -0.2479 -1.5099
   79SOPE    HY 7095   0.470   4.607   6.650 -0.8742  1.1597  0.2188
   79SOPE   O31 7096   0.400   4.644   6.451 -0.0012  0.1628  0.3012
   79SOPE   C31 7097   0.342   4.766   6.461 -0.5621 -0.5621  0.0112
   79SOPE   O32 7098   0.374   4.852   6.548  0.3861  0.1816 -0.0171
   79SOPE   C32 7099   0.250   4.791   6.342 -0.4508 -0.7869 -0.2668
   79SOPE   H2X 7100   0.284   4.894   6.317  0.9846 -1.2057 -0.1538
   79SOPE   H2Y 7101   0.145   4.779   6.376 -0.7607  2.1064  0.0587
   79SOPE   C23 7102   0.611   4.435   6.071 -0.1681  0.4262  0.0477
   79SOPE   H3R 7103   0.522   4.501   6.080 -1.1217 -0.7961 -0.0802
   79SOPE   H3S 7104   0.576   4.331   6.092 -2.0898  1.3535  1.8300
   79SOPE   C24 7105   0.654   4.445   5.927 -0.0292 -0.3940  0.7307
   79SOPE   H4R 7106   0.681   4.548   5.897  0.7768 -0.6494  0.5472
   79SOPE   H4S 7107   0.747   4.388   5.903  0.4860  0.0162  1.7014
   79SOPE   C25 7108   0.542   4.395   5.834 -0.3217  0.1807 -0.4489
   79SOPE   H5R 7109   0.518   4.294   5.872 -2.8893  0.7014 -0.5232
   79SOPE   H5S 7110   0.447   4.451   5.851  0.5501  1.2989  0.9607
   79SOPE   C26 7111   0.586   4.389   5.685 -0.1821  0.1778  0.0857
   79SOPE   H6R 7112   0.605   4.496   5.662 -0.4705 -0.2958 -2.6894
   79SOPE   H6S 7113   0.685   4.341   5.676 -0.2868  0.3454 -2.9615
   79SOPE   C27 7114   0.485   4.323   5.585 -0.0772  0.4612  0.4597
   79SOPE   H7R 7115   0.468   4.217   5.614 -2.6610  0.8344  0.6035
   79SOPE   H7S 7116   0.385   4.367   5.605 -1.0174 -0.5021 -1.7960
   79SOPE   C28 7117   0.540   4.331   5.437 -0.5722 -0.2500  1.0179
   79SOPE   H8R 7118   0.627   4.262   5.428  0.2680  0.9819 -0.9710
   79SOPE   H8S 7119   0.455   4.294   5.376 -0.7576  0.8530  0.5799
   79SOPE   C29 7120   0.582   4.470   5.403  0.0841 -1.2951 -0.0330
   79SOPE   H91 7121   0.519   4.556   5.430  0.8808 -0.8712  0.4852
   79SOPE  C210 7122   0.692   4.494   5.318  0.0684  0.2279  0.0296
   79SOPE  H101 7123   0.723   4.599   5.307 -0.8804  0.4600 -0.5889
   79SOPE  C211 7124   0.786   4.388   5.253 -0.1149  0.0910  0.0371
   79SOPE  H11R 7125   0.821   4.319   5.333  0.9937 -2.3882 -2.4341
   79SOPE  H11S 7126   0.877   4.441   5.216  0.6071  0.8013  2.5819
   79SOPE  C212 7127   0.723   4.303   5.138  0.1570 -0.1942  0.2111
   79SOPE  H12R 7128   0.626   4.254   5.160 -1.3871  1.9015 -1.4806
   79SOPE  H12S 7129   0.799   4.224   5.118 -0.1449 -0.6446  0.8289
   79SOPE  C213 7130   0.711   4.385   5.012  0.5017  0.0335 -0.2711
   79SOPE  H13R 7131   0.809   4.422   4.974  1.0846 -0.1814  0.9725
   79SOPE  H13S 7132   0.636   4.466   5.007  0.1264 -0.3658 -1.3136
   79SOPE  C214 7133   0.664   4.279   4.906  0.2885  0.3851  0.4213
   79SOPE  H14R 7134   0.578   4.227   4.952  1.6825 -0.3955  2.2558
   79SOPE  H14S 7135   0.746   4.207   4.882 -0.0876  0.3456 -0.8191
   79SOPE  C215 7136   0.625   4.355   4.779  0.2419  0.0791 -1.0761
   79SOPE  H15R 7137   0.536   4.417   4.804 -0.4522 -1.1205 -0.4929
   79SOPE  H15S 7138   0.606   4.289   4.692  1.2337 -2.5501  0.5681
   79SOPE  C216 7139   0.725   4.453   4.721 -0.9265  0.1234 -0.2737
   79SOPE  H16R 7140   0.827   4.410   4.716 -1.1897 -0.7907  1.3926
   79SOPE  H16S 7141   0.728   4.543   4.787  0.0169 -0.9352  1.1932
   79SOPE  C217 7142   0.688   4.491   4.575 -0.3156  0.1167  0.5237
   79SOPE  H17R 7143   0.601   4.561   4.574  0.6821  1.4112  1.5496
   79SOPE  H17S 7144   0.683   4.393   4.523  3.8714 -1.2442  2.2705
   79SOPE  C218 7145   0.808   4.570   4.520  0.4643 -0.7338  0.1790
   79SOPE  H18R 7146   0.895   4.500   4.513  0.6942 -0.2856 -2.2334
   79SOPE  H18S 7147   0.826   4.648   4.597 -1.9119  0.2714 -0.1989
   79SOPE  H18T 7148   0.798   4.616   4.419  3.5122  0.6486  0.3891
   79SOPE   C33 7149   0.281   4.714   6.213 -0.4236  1.2899  0.7634
   79SOPE   H3X 7150   0.254   4.611   6.246  0.0956  0.6415 -0.7243
   79SOPE   H3Y 7151   0.386   4.720   6.178 -0.8440  1.3862 -0.5495
   79SOPE   C34 7152   0.201   4.736   6.080 -0.2687 -0.7766  0.1230
   79SOPE   H4X 7153   0.228   4.836   6.039 -1.4446 -0.8171 -0.8140
   79SOPE   H4Y 7154   0.093   4.743   6.103 -0.9452  0.9476 -2.9672
   79SOPE   C35 7155   0.236   4.636   5.973  0.0214 -0.2933 -0.8677
   79SOPE   H5X 7156   0.245   4.530   6.003 -1.4289 -0.5166 -1.1554
   79SOPE   H5Y 7157   0.342   4.651   5.941  0.8048  0.1906  1.7572
   79SOPE   C36 7158   0.139   4.632   5.851  0.1113 -0.3314  0.4193
   79SOPE   H6X 7159   0.135   4.738   5.819 -0.6471 -0.2136  0.8888
   79SOPE   H6Y 7160   0.044   4.596   5.895  0.4230 -0.7142  0.7971
   79SOPE   C37 7161   0.175   4.538   5.733  0.7334 -0.0087 -0.0143
   79SOPE   H7X 7162   0.167   4.438   5.780 -1.8167  0.2048  0.1269
   79SOPE   H7Y 7163   0.278   4.559   5.698  0.8743  1.1968  1.0491
   79SOPE   C38 7164   0.082   4.545   5.612 -0.0669 -0.5123  0.9198
   79SOPE   H8X 7165   0.085   4.641   5.557  0.9455 -1.5785 -0.9971
   79SOPE   H8Y 7166  -0.020   4.535   5.653  0.6970  0.6420  3.2848
   79SOPE   C39 7167   0.109   4.427   5.515  0.4209  0.7044  0.5578
   79SOPE   H9X 7168   0.019   4.366   5.492  1.8896 -0.9017 -1.3078
   79SOPE   H9Y 7169   0.188   4.357   5.550  1.3529  1.5949  0.2951
   79SOPE  C310 7170   0.162   4.478   5.386 -1.1478 -0.0673 -0.0984
   79SOPE  H10X 7171   0.262   4.523   5.401 -1.0139 -0.8230  1.5553
   79SOPE  H10Y 7172   0.095   4.565   5.367 -0.4515  0.7113  0.9347
   79SOPE  C311 7173   0.173   4.373   5.275  0.1350  0.4365  0.2238
   79SOPE  H11X 7174   0.077   4.320   5.260  1.9079 -3.8807  2.5414
   79SOPE  H11Y 7175   0.235   4.283   5.296 -2.0810 -1.0509  0.6910
   79SOPE  C312 7176   0.229   4.433   5.144  0.1225  0.4849  0.3728
   79SOPE  H12X 7177   0.305   4.510   5.169 -0.1990  1.7693 -2.2252
   79SOPE  H12Y 7178   0.146   4.474   5.082 -1.2601 -0.1398  1.7357
   79SOPE  C313 7179   0.299   4.319   5.047  0.5248  0.3678 -0.3923
   79SOPE  H13X 7180   0.390   4.277   5.094  0.7341 -1.3444 -2.2097
   79SOPE  H13Y 7181   0.339   4.373   4.958  2.3058  1.5620  1.0399
   79SOPE  C314 7182   0.194   4.221   5.011 -0.4102  0.0129  0.4073
   79SOPE  H14X 7183   0.117   4.280   4.955 -0.6764 -1.1509 -0.5075
   79SOPE  H14Y 7184   0.156   4.177   5.106 -0.9053  1.0695  0.7136
   79SOPE  C315 7185   0.249   4.115   4.924 -0.6094 -0.4327 -0.1155
   79SOPE  H15X 7186   0.340   4.069   4.966 -1.0025 -1.9387 -0.8449
   79SOPE  H15Y 7187   0.284   4.156   4.827 -2.2000 -0.5705 -0.7786
   79SOPE  C316 7188   0.141   4.009   4.882  0.8046 -0.5345 -0.6099
   79SOPE  H16X 7189   0.102   3.982   4.983  0.1655 -0.1485 -0.7480
   79SOPE  H16Y 7190   0.191   3.917   4.843 -0.6788 -2.7423  2.2838
   79SOPE  C317 7191   0.022   4.065   4.796  0.9613  0.2812  0.1124
   79SOPE  H17X 7192   0.072   4.101   4.704 -0.0450 -0.2570 -0.6661
   79SOPE  H17Y 7193  -0.026   4.154   4.843  0.1743  0.3056 -0.7065
   79SOPE  C318 7194  -0.078   3.955   4.766  0.0684  0.1078  0.5195
   79SOPE  H18X 7195  -0.046   3.887   4.684  2.6216  1.0763  0.6266
   79SOPE  H18Y 7196  -0.165   3.995   4.709  0.1383 -1.4767 -0.7863
   79SOPE  H18Z 7197  -0.094   3.893   4.856  0.2903  2.0083  1.9434
   80SOPE     N 7198   3.950   5.809   7.036  0.3241 -0.1472  0.5951
   80SOPE   HN1 7199   3.998   5.716   7.043  0.6930 -0.2803 -2.4686
   80SOPE   HN2 7200   3.852   5.804   7.000 -1.6027  2.0596  4.8231
   80SOPE   HN3 7201   3.993   5.874   6.968  0.0656  0.4400  0.9837
   80SOPE   C12 7202   3.937   5.881   7.168 -0.6210 -0.5596  0.3727
   80SOPE  H12A 7203   3.905   5.800   7.236 -2.0296 -1.1760 -0.9561
   80SOPE  H12B 7204   3.857   5.956   7.148  2.0574  1.7862 -2.6730
   80SOPE   C11 7205   4.063   5.956   7.211  0.0079 -0.8456  0.6568
   80SOPE  H11A 7206   4.142   5.879   7.224 -1.2001 -2.7972 -2.4609
   80SOPE  H11B 7207   4.037   6.017   7.300 -1.4758  1.6642 -1.3643
   80SOPE     P 7208   4.057   6.191   7.072 -0.1187 -0.0015  0.1078
   80SOPE   O13 7209   4.158   6.283   7.129  0.3927 -0.6709  0.0740
   80SOPE   O14 7210   3.921   6.217   7.124  0.4314  0.1194 -0.1512
   80SOPE   O12 7211   4.105   6.042   7.100 -0.1775  0.2535 -0.0606
   80SOPE   O11 7212   4.062   6.193   6.915  0.2288  0.7118  0.4254
   80SOPE    C1 7213   3.986   6.281   6.834  0.0571  0.1937 -0.0931
   80SOPE    HA 7214   4.003   6.383   6.874 -0.9987  1.3121 -2.3375
   80SOPE    HB 7215   3.877   6.263   6.842  0.0892  0.2209  0.4100
   80SOPE    C2 7216   4.025   6.274   6.683 -0.1707  0.7626  0.5317
   80SOPE    HS 7217   3.975   6.355   6.625 -0.7500  0.5123  0.6685
   80SOPE   O21 7218   3.989   6.141   6.623 -0.1333 -0.6538 -0.4182
   80SOPE   C21 7219   3.859   6.131   6.585  0.1794 -0.3468 -0.5304
   80SOPE   O22 7220   3.779   6.219   6.582 -0.5079 -0.4477  0.1348
   80SOPE   C22 7221   3.836   5.982   6.559 -0.0692 -0.7014  0.1186
   80SOPE   H2R 7222   3.729   5.953   6.553 -0.4351  0.5858 -0.0317
   80SOPE   H2S 7223   3.868   5.930   6.651  3.0760  2.4256  1.0268
   80SOPE    C3 7224   4.172   6.306   6.666 -0.0003 -0.4493  0.3216
   80SOPE    HX 7225   4.231   6.224   6.712 -0.5972 -0.9207  0.2502
   80SOPE    HY 7226   4.197   6.394   6.730 -1.4847 -0.3761  0.8459
   80SOPE   O31 7227   4.210   6.328   6.530 -0.1882  0.1972  0.1727
   80SOPE   C31 7228   4.256   6.224   6.460  0.4435 -0.0265 -0.6127
   80SOPE   O32 7229   4.258   6.107   6.503 -0.0945  0.4351  0.3326
   80SOPE   C32 7230   4.291   6.273   6.320  0.2011 -1.1241  0.6619
   80SOPE   H2X 7231   4.378   6.219   6.277 -0.2279 -0.7306 -0.7359
   80SOPE   H2Y 7232   4.301   6.383   6.327 -0.3802 -0.9266 -1.2294
   80SOPE   C23 7233   3.916   5.933   6.438 -0.6840 -0.1399  0.4215
   80SOPE   H3R 7234   3.942   5.827   6.461  1.2549  0.0476 -0.7299
   80SOPE   H3S 7235   4.013   5.984   6.423 -0.7242 -0.1809  0.0067
   80SOPE   C24 7236   3.832   5.936   6.308 -0.5201  0.2019  0.3083
   80SOPE   H4R 7237   3.744   5.871   6.327  1.9411 -3.3622  0.5366
   80SOPE   H4S 7238   3.800   6.037   6.274  0.0501 -0.8162 -3.7977
   80SOPE   C25 7239   3.906   5.854   6.198 -0.7466  0.4699  0.0146
   80SOPE   H5R 7240   3.996   5.919   6.196 -1.2519  1.2191  1.2306
   80SOPE   H5S 7241   3.916   5.747   6.227 -2.7458 -0.3650 -2.0970
   80SOPE   C26 7242   3.839   5.852   6.062 -0.1915 -0.1370 -0.4591
   80SOPE   H6R 7243   3.744   5.796   6.052 -1.2292  1.5571 -0.3941
   80SOPE   H6S 7244   3.814   5.958   6.038  0.7073  0.3050  0.4856
   80SOPE   C27 7245   3.932   5.802   5.955  0.8533  0.2887  0.3082
   80SOPE   H7R 7246   4.023   5.864   5.944  0.0521  1.5250  0.4170
   80SOPE   H7S 7247   3.954   5.697   5.982  2.3097  1.3406  3.6541
   80SOPE   C28 7248   3.857   5.775   5.820 -1.0306  0.0826  0.2540
   80SOPE   H8R 7249   3.795   5.684   5.832  1.3342 -1.4418  1.7394
   80SOPE   H8S 7250   3.792   5.859   5.785 -1.3390 -0.5685 -0.7795
   80SOPE   C29 7251   3.960   5.754   5.711 -0.1938  0.4325 -0.5469
   80SOPE   H91 7252   4.062   5.725   5.738 -0.2709  0.3758 -0.3145
   80SOPE  C210 7253   3.926   5.754   5.583  0.4362 -0.6602 -0.0901
   80SOPE  H101 7254   4.008   5.763   5.511  0.1714 -0.9255 -0.4265
   80SOPE  C211 7255   3.789   5.770   5.519 -0.0652  0.1356  0.3005
   80SOPE  H11R 7256   3.790   5.846   5.439 -0.6273 -0.4141 -0.2385
   80SOPE  H11S 7257   3.718   5.798   5.600 -0.6857  0.4250 -0.3335
   80SOPE  C212 7258   3.746   5.630   5.458  0.1161  0.5270  0.5345
   80SOPE  H12R 7259   3.640   5.630   5.424 -0.0943  0.0508  1.1817
   80SOPE  H12S 7260   3.758   5.554   5.538 -0.0106 -1.7974 -1.5401
   80SOPE  C213 7261   3.835   5.573   5.343 -0.2227  0.3118  0.1035
   80SOPE  H13R 7262   3.816   5.464   5.330  0.9372 -0.3059  2.8434
   80SOPE  H13S 7263   3.945   5.571   5.359 -0.1945 -0.7070 -0.1425
   80SOPE  C214 7264   3.800   5.644   5.210  0.2007  0.6508 -0.1815
   80SOPE  H14R 7265   3.798   5.753   5.228  1.1167  1.2261 -2.9943
   80SOPE  H14S 7266   3.697   5.611   5.184  0.6609 -1.0842  0.0496
   80SOPE  C215 7267   3.909   5.611   5.102  0.6428 -0.5046 -0.3676
   80SOPE  H15R 7268   3.910   5.503   5.075  0.0483 -0.8600  0.9420
   80SOPE  H15S 7269   4.008   5.624   5.150  1.4640 -2.5357 -1.4123
   80SOPE  C216 7270   3.894   5.709   4.987  0.3254 -0.3387 -0.1668
   80SOPE  H16R 7271   3.930   5.809   5.018 -0.0662  0.1618 -1.2741
   80SOPE  H16S 7272   3.788   5.723   4.958  0.5808  1.4902 -0.3418
   80SOPE  C217 7273   3.972   5.659   4.863 -0.4331 -0.0182  0.2050
   80SOPE  H17R 7274   3.931   5.559   4.839 -0.6531 -0.0779  0.8004
   80SOPE  H17S 7275   4.081   5.670   4.884 -0.8055 -0.6835  2.8979
   80SOPE  C218 7276   3.944   5.742   4.735 -0.8905  0.0697 -0.1093
   80SOPE  H18R 7277   3.834   5.740   4.719 -0.7017 -1.1534 -1.5031
   80SOPE  H18S 7278   4.007   5.691   4.658 -0.2328 -3.4280  2.5092
   80SOPE  H18T 7279   3.957   5.849   4.762  0.3578 -0.2012  0.4023
   80SOPE   C33 7280   4.166   6.264   6.221  0.6962  0.1485 -0.4201
   80SOPE   H3X 7281   4.166   6.346   6.146 -0.6685 -1.6581 -2.5263
   80SOPE   H3Y 7282   4.068   6.272   6.274  1.7419 -2.7588  2.2181
   80SOPE   C34 7283   4.165   6.137   6.136  0.0294  0.4822  0.0564
   80SOPE   H4X 7284   4.066   6.139   6.085 -0.0830  0.1572  0.2633
   80SOPE   H4Y 7285   4.185   6.044   6.192 -0.4235 -1.4253 -2.7328
   80SOPE   C35 7286   4.270   6.129   6.025  0.3880 -0.4675 -0.0960
   80SOPE   H5X 7287   4.365   6.115   6.081  0.2488 -1.2584 -0.0582
   80SOPE   H5Y 7288   4.263   6.225   5.968 -3.0207 -0.1000  0.7039
   80SOPE   C36 7289   4.240   6.016   5.924  0.1997  0.1417 -0.3967
   80SOPE   H6X 7290   4.132   6.033   5.907 -0.0496 -1.0242 -0.0274
   80SOPE   H6Y 7291   4.261   5.920   5.975 -0.9012  1.1937  2.2277
   80SOPE   C37 7292   4.323   6.016   5.796 -0.2710  0.0511  0.9198
   80SOPE   H7X 7293   4.432   5.994   5.804 -0.2392  0.3515  1.3802
   80SOPE   H7Y 7294   4.318   6.112   5.740 -0.8262 -1.3879 -1.6267
   80SOPE   C38 7295   4.262   5.919   5.687 -1.0710  0.3921 -0.2486
   80SOPE   H8X 7296   4.156   5.954   5.685 -0.7075  1.6348  0.5568
   80SOPE   H8Y 7297   4.279   5.822   5.738 -0.3856  0.8230  0.3700
   80SOPE   C39 7298   4.332   5.926   5.548 -0.4289  0.6655  0.0826
   80SOPE   H9X 7299   4.295   5.848   5.477 -0.2177 -0.6295  1.3557
   80SOPE   H9Y 7300   4.438   5.902   5.566 -0.6887 -0.3147  0.3592
   80SOPE  C310 7301   4.331   6.056   5.473 -0.3135 -0.2504 -0.1118
   80SOPE  H10X 7302   4.405   6.123   5.523  0.6071 -1.7162  0.5704
   80SOPE  H10Y 7303   4.237   6.115   5.476  1.1167  2.1890 -0.2934
   80SOPE  C311 7304   4.384   6.046   5.337 -0.0863  0.1200  0.2214
   80SOPE  H11X 7305   4.477   5.986   5.338 -0.5557 -0.6476 -0.6150
   80SOPE  H11Y 7306   4.414   6.144   5.293  1.9729 -0.4051  0.3844
   80SOPE  C312 7307   4.284   5.985   5.241 -0.2776 -0.0200 -0.3835
   80SOPE  H12X 7308   4.190   6.041   5.221 -0.0021 -0.1062 -2.0543
   80SOPE  H12Y 7309   4.249   5.884   5.272 -0.1680 -0.2894 -1.1178
   80SOPE  C313 7310   4.342   5.974   5.098 -0.0657  0.0069  0.6855
   80SOPE  H13X 7311   4.448   5.946   5.112  0.1040  1.0341  1.5940
   80SOPE  H13Y 7312   4.337   6.075   5.051 -2.2221  0.4536  1.7331
   80SOPE  C314 7313   4.283   5.869   5.002 -0.1462 -0.5364 -1.2205
   80SOPE  H14X 7314   4.293   5.899   4.895  0.8177 -0.6770 -1.1714
   80SOPE  H14Y 7315   4.175   5.861   5.027  0.1159 -1.9414 -0.4166
   80SOPE  C315 7316   4.358   5.735   5.024  0.0555 -0.3625 -0.3372
   80SOPE  H15X 7317   4.303   5.652   4.976 -1.5543 -0.6353  1.8006
   80SOPE  H15Y 7318   4.364   5.720   5.134 -1.3490  1.0549 -0.0160
   80SOPE  C316 7319   4.499   5.742   4.961 -1.0394  0.2957 -0.3226
   80SOPE  H16X 7320   4.546   5.641   4.952 -0.3517  0.7873 -3.3217
   80SOPE  H16Y 7321   4.566   5.799   5.029  1.2534  0.7315 -2.7330
   80SOPE  C317 7322   4.516   5.797   4.817  0.1843 -0.6840 -0.0577
   80SOPE  H17X 7323   4.511   5.908   4.813  1.3673 -0.6195 -3.4706
   80SOPE  H17Y 7324   4.445   5.745   4.749  0.6129 -2.8305  1.0474
   80SOPE  C318 7325   4.652   5.781   4.767  0.3106 -0.4544 -0.3873
   80SOPE  H18X 7326   4.722   5.812   4.847 -1.0785  0.2640  0.6021
   80SOPE  H18Y 7327   4.679   5.852   4.686  0.6034 -0.5296 -0.3573
   80SOPE  H18Z 7328   4.682   5.680   4.733 -1.3175 -1.6418  1.4793
   81SOPE     N 7329   3.043   4.257   6.870 -0.2101  0.5901  0.4484
   81SOPE   HN1 7330   3.081   4.177   6.816 -1.1759  0.1281  0.4407
   81SOPE   HN2 7331   3.045   4.339   6.805 -2.2910 -0.2491 -0.7836
   81SOPE   HN3 7332   3.113   4.272   6.946  0.6770 -2.1260  0.2721
   81SOPE   C12 7333   2.906   4.218   6.912  0.0864  0.0192 -0.3787
   81SOPE  H12A 7334   2.883   4.283   6.998  1.2912 -0.2953  0.2021
   81SOPE  H12B 7335   2.903   4.108   6.928 -1.5413 -0.4381 -3.0788
   81SOPE   C11 7336   2.801   4.235   6.802  1.0132  0.2240 -1.0560
   81SOPE  H11A 7337   2.715   4.169   6.825 -0.4768  1.6070 -2.5186
   81SOPE  H11B 7338   2.845   4.202   6.705 -0.3231  0.2350 -1.6902
   81SOPE     P 7339   2.649   4.404   6.681 -0.3369 -0.0176 -0.1596
   81SOPE   O13 7340   2.645   4.556   6.681 -0.5153 -0.0184 -0.5258
   81SOPE   O14 7341   2.523   4.336   6.716 -0.2056  0.1690  0.1678
   81SOPE   O12 7342   2.761   4.372   6.791  0.2865 -0.1366 -0.0961
   81SOPE   O11 7343   2.701   4.364   6.532  0.4793 -0.1080  0.6706
   81SOPE    C1 7344   2.837   4.371   6.495 -0.0091 -0.2015  0.0887
   81SOPE    HA 7345   2.839   4.285   6.424 -0.7520  0.6282 -0.9745
   81SOPE    HB 7346   2.904   4.355   6.582  0.4745  2.6754  0.3583
   81SOPE    C2 7347   2.884   4.496   6.412 -0.1735 -0.5010 -0.1073
   81SOPE    HS 7348   2.852   4.589   6.464 -0.4227  0.1420 -1.3808
   81SOPE   O21 7349   2.830   4.493   6.283 -0.2175 -0.6057  0.0069
   81SOPE   C21 7350   2.704   4.526   6.279 -0.2871  0.2076  0.3075
   81SOPE   O22 7351   2.642   4.578   6.367  0.3020 -0.0047  0.0233
   81SOPE   C22 7352   2.657   4.517   6.136  0.7801 -0.3737 -0.4376
   81SOPE   H2R 7353   2.638   4.409   6.116 -0.5961  0.0425 -1.5422
   81SOPE   H2S 7354   2.740   4.542   6.066  0.7975 -1.0673 -0.6788
   81SOPE    C3 7355   3.038   4.498   6.411 -0.3277 -0.8702  0.2879
   81SOPE    HX 7356   3.069   4.547   6.506 -0.6638  0.6570 -0.3610
   81SOPE    HY 7357   3.070   4.555   6.321  1.2326 -0.5878  0.9974
   81SOPE   O31 7358   3.090   4.366   6.393 -0.2593 -0.3034  0.1169
   81SOPE   C31 7359   3.221   4.353   6.397 -0.6243  0.2121  0.4051
   81SOPE   O32 7360   3.309   4.438   6.412 -0.2310 -0.3288 -0.3637
   81SOPE   C32 7361   3.249   4.204   6.380 -0.3460 -0.1217 -0.5910
   81SOPE   H2X 7362   3.153   4.147   6.372 -0.1958 -0.4959  0.1567
   81SOPE   H2Y 7363   3.296   4.169   6.474  1.1452  0.4213 -1.0979
   81SOPE   C23 7364   2.529   4.599   6.115  1.1577 -1.0014  0.6848
   81SOPE   H3R 7365   2.544   4.708   6.134  0.5921 -1.1083  1.8475
   81SOPE   H3S 7366   2.455   4.566   6.191 -0.6084  0.1449 -0.4356
   81SOPE   C24 7367   2.461   4.568   5.988  0.7256 -0.8292 -0.3664
   81SOPE   H4R 7368   2.536   4.598   5.912  0.6753  2.2402  0.6651
   81SOPE   H4S 7369   2.449   4.457   5.983  0.5877 -0.7746 -1.3212
   81SOPE   C25 7370   2.330   4.649   5.984  0.3854 -0.3760 -0.3681
   81SOPE   H5R 7371   2.266   4.608   6.066  0.0912 -1.2006 -1.0019
   81SOPE   H5S 7372   2.344   4.755   6.012 -0.9160 -0.4027  0.5132
   81SOPE   C26 7373   2.249   4.658   5.850  0.5728 -0.1605 -1.1899
   81SOPE   H6R 7374   2.226   4.550   5.837  0.3592 -1.0453  4.1016
   81SOPE   H6S 7375   2.155   4.704   5.887 -0.2812 -3.1524  0.7697
   81SOPE   C27 7376   2.310   4.723   5.729 -0.1772  0.9648  0.1475
   81SOPE   H7R 7377   2.340   4.826   5.758  0.7761  0.5083  0.8813
   81SOPE   H7S 7378   2.394   4.659   5.693 -0.9265 -0.2739  0.5263
   81SOPE   C28 7379   2.208   4.740   5.618  0.7192  0.9717  0.0164
   81SOPE   H8R 7380   2.182   4.640   5.577  1.4385  0.8725 -0.2187
   81SOPE   H8S 7381   2.111   4.781   5.651 -0.3068 -0.3317 -1.2631
   81SOPE   C29 7382   2.262   4.830   5.499  0.2850  0.1099 -0.3487
   81SOPE   H91 7383   2.332   4.910   5.527  0.7483 -0.9754  1.7431
   81SOPE  C210 7384   2.228   4.816   5.366  0.2899  0.2549  0.0587
   81SOPE  H101 7385   2.279   4.877   5.290  2.4728  0.5241  1.6492
   81SOPE  C211 7386   2.125   4.721   5.312 -0.2360 -0.5300  0.0599
   81SOPE  H11R 7387   2.049   4.700   5.391  0.5573  1.9029  1.5794
   81SOPE  H11S 7388   2.174   4.628   5.279  0.8389  0.4795 -1.2969
   81SOPE  C212 7389   2.039   4.773   5.194  0.1024 -0.5165  0.1556
   81SOPE  H12R 7390   1.984   4.863   5.229 -0.8185 -1.6629  1.8069
   81SOPE  H12S 7391   1.956   4.703   5.169 -0.8776  1.0069 -0.9613
   81SOPE  C213 7392   2.123   4.800   5.069 -0.3286  0.4948  0.6239
   81SOPE  H13R 7393   2.162   4.701   5.038 -0.9006  0.5772 -0.4032
   81SOPE  H13S 7394   2.212   4.864   5.087  1.0978 -0.6598 -1.8188
   81SOPE  C214 7395   2.041   4.866   4.957 -0.4845 -0.5180 -0.3168
   81SOPE  H14R 7396   1.978   4.946   5.003  0.2909  1.6235 -2.7329
   81SOPE  H14S 7397   1.975   4.790   4.910  0.8018 -3.0569  1.7359
   81SOPE  C215 7398   2.129   4.944   4.857  0.2952  0.1709  0.2411
   81SOPE  H15R 7399   2.203   4.872   4.817 -0.6609 -0.1259 -1.0724
   81SOPE  H15S 7400   2.176   5.023   4.919  0.2446  0.6656 -0.3419
   81SOPE  C216 7401   2.051   5.004   4.739  0.0901 -0.3120 -0.6847
   81SOPE  H16R 7402   1.959   5.053   4.778  1.0411  1.4495 -0.5341
   81SOPE  H16S 7403   2.013   4.926   4.669 -0.3375  0.0445 -0.8558
   81SOPE  C217 7404   2.138   5.105   4.665 -1.2503  0.2248 -0.2464
   81SOPE  H17R 7405   2.235   5.053   4.655 -1.3221  0.3615 -2.0334
   81SOPE  H17S 7406   2.161   5.188   4.735  0.9423 -0.6728  0.1540
   81SOPE  C218 7407   2.097   5.168   4.538  0.2772  0.3748  0.1056
   81SOPE  H18R 7408   2.168   5.245   4.501  0.4785  1.0363  1.8023
   81SOPE  H18S 7409   1.998   5.218   4.550  0.6526  1.2658 -0.3946
   81SOPE  H18T 7410   2.095   5.087   4.462  1.0052 -0.3543  0.8496
   81SOPE   C33 7411   3.345   4.173   6.259  0.4179  0.7134 -0.2173
   81SOPE   H3X 7412   3.386   4.070   6.254 -1.4884 -0.1036  0.4301
   81SOPE   H3Y 7413   3.430   4.245   6.267 -1.7789  3.3821  0.3823
   81SOPE   C34 7414   3.286   4.204   6.123  0.3983  0.0950 -0.9384
   81SOPE   H4X 7415   3.255   4.311   6.120  0.0536  0.0759  0.8513
   81SOPE   H4Y 7416   3.185   4.157   6.121  0.5326 -0.2320 -0.1843
   81SOPE   C35 7417   3.364   4.146   6.005  0.6089 -0.0965 -0.0389
   81SOPE   H5X 7418   3.382   4.039   6.028 -0.6277  0.2078  2.7784
   81SOPE   H5Y 7419   3.462   4.199   5.999  1.6493 -2.0053 -0.8477
   81SOPE   C36 7420   3.296   4.163   5.864 -0.2083  0.6242 -0.1957
   81SOPE   H6X 7421   3.282   4.272   5.850 -2.0960  0.3241 -1.0640
   81SOPE   H6Y 7422   3.197   4.112   5.858 -0.4839  0.8599  1.8347
   81SOPE   C37 7423   3.373   4.093   5.747 -0.1702 -0.8110  0.2606
   81SOPE   H7X 7424   3.366   3.983   5.752  0.3238 -0.8225  0.7753
   81SOPE   H7Y 7425   3.479   4.126   5.750 -0.1278 -1.0138  2.0475
   81SOPE   C38 7426   3.330   4.144   5.610  1.0776 -0.2035  0.0447
   81SOPE   H8X 7427   3.335   4.254   5.602 -3.2448  0.1108 -0.3292
   81SOPE   H8Y 7428   3.225   4.128   5.578  0.3777  1.0788  1.5454
   81SOPE   C39 7429   3.421   4.091   5.497 -0.2735  0.1173  0.1836
   81SOPE   H9X 7430   3.402   3.982   5.490  1.2058 -0.1586  0.1928
   81SOPE   H9Y 7431   3.528   4.107   5.519 -0.3425 -0.5813  1.0869
   81SOPE  C310 7432   3.396   4.158   5.354 -0.0488 -0.1767 -0.2107
   81SOPE  H10X 7433   3.389   4.267   5.375  1.4976  0.1856 -1.3876
   81SOPE  H10Y 7434   3.295   4.137   5.315 -0.8993  0.9372  1.2833
   81SOPE  C311 7435   3.508   4.131   5.254 -0.1260  0.6190  0.0074
   81SOPE  H11X 7436   3.530   4.022   5.264  3.2755  1.4135  3.6690
   81SOPE  H11Y 7437   3.595   4.187   5.295  0.7227 -0.4624 -0.2717
   81SOPE  C312 7438   3.474   4.177   5.110  0.7705  0.4403 -0.2812
   81SOPE  H12X 7439   3.438   4.282   5.109 -1.9888 -0.4152  0.3216
   81SOPE  H12Y 7440   3.384   4.122   5.074  1.4647 -1.0099  0.1260
   81SOPE  C313 7441   3.588   4.155   5.009 -0.3784  0.1131 -0.0587
   81SOPE  H13X 7442   3.606   4.048   4.987  2.0306  0.3755  0.3403
   81SOPE  H13Y 7443   3.681   4.200   5.049  0.2671 -0.9668 -0.3008
   81SOPE  C314 7444   3.560   4.229   4.877  0.1830  0.0452  0.1195
   81SOPE  H14X 7445   3.539   4.336   4.897 -1.2329  0.0251 -1.0496
   81SOPE  H14Y 7446   3.466   4.190   4.833 -0.2753  1.9643 -0.6833
   81SOPE  C315 7447   3.680   4.205   4.803  0.2506 -0.3556  0.3235
   81SOPE  H15X 7448   3.710   4.098   4.803  0.7709 -0.2326 -1.2953
   81SOPE  H15Y 7449   3.760   4.270   4.845 -0.8617  1.6409 -0.4588
   81SOPE  C316 7450   3.662   4.248   4.658  1.3090 -0.6708 -0.1074
   81SOPE  H16X 7451   3.609   4.346   4.653  1.0982 -0.8281 -1.6053
   81SOPE  H16Y 7452   3.597   4.170   4.613 -1.6468  2.0850 -0.9818
   81SOPE  C317 7453   3.791   4.269   4.572 -0.9122 -0.7457 -0.3822
   81SOPE  H17X 7454   3.856   4.181   4.558 -0.9703 -0.5190 -2.3813
   81SOPE  H17Y 7455   3.852   4.346   4.624 -1.0540 -1.4742  0.9183
   81SOPE  C318 7456   3.767   4.329   4.433  0.2609  0.6268  0.1291
   81SOPE  H18X 7457   3.688   4.407   4.435  0.7347  1.3102 -2.8796
   81SOPE  H18Y 7458   3.735   4.253   4.359  0.8466  2.5330 -2.2203
   81SOPE  H18Z 7459   3.863   4.374   4.399  2.4711 -2.0176  2.3316
   82SOPE     N 7460   3.769   2.193   6.379 -0.3743  0.0460  0.5437
   82SOPE   HN1 7461   3.771   2.094   6.347 -0.3242 -0.3832  1.8151
   82SOPE   HN2 7462   3.843   2.225   6.444 -0.8515  3.1284 -0.2725
   82SOPE   HN3 7463   3.676   2.207   6.424 -0.4140 -1.0306  0.8251
   82SOPE   C12 7464   3.771   2.270   6.256  0.6265 -0.0846 -0.1280
   82SOPE  H12A 7465   3.716   2.216   6.175 -1.4658 -1.6475  2.2082
   82SOPE  H12B 7466   3.878   2.272   6.226  0.4165 -0.1075 -0.9196
   82SOPE   C11 7467   3.719   2.410   6.282 -0.0110 -0.8388 -0.4649
   82SOPE  H11A 7468   3.757   2.476   6.201  0.6892 -0.9067 -0.1984
   82SOPE  H11B 7469   3.763   2.453   6.374 -1.2565 -0.5637  0.0179
   82SOPE     P 7470   3.502   2.556   6.274 -0.0363  0.0616 -0.3523
   82SOPE   O13 7471   3.546   2.644   6.376  0.3960  0.4202 -0.1346
   82SOPE   O14 7472   3.352   2.534   6.262 -0.5996  0.2089 -1.0817
   82SOPE   O12 7473   3.573   2.414   6.297  0.1433  0.8504  0.1616
   82SOPE   O11 7474   3.563   2.587   6.131  0.0741  0.0580  0.1571
   82SOPE    C1 7475   3.564   2.726   6.095  0.6808  0.8007  0.5561
   82SOPE    HA 7476   3.606   2.799   6.168 -0.1238  0.3818  1.4717
   82SOPE    HB 7477   3.456   2.752   6.087  0.1999 -0.8305  1.3506
   82SOPE    C2 7478   3.635   2.745   5.956  0.5038  0.7590 -0.1666
   82SOPE    HS 7479   3.626   2.851   5.924  0.9071  0.6984 -0.4827
   82SOPE   O21 7480   3.580   2.647   5.864  0.2181  0.3303 -0.0706
   82SOPE   C21 7481   3.465   2.673   5.822  0.1612 -0.1768  0.3561
   82SOPE   O22 7482   3.400   2.772   5.837  0.9677  0.1735 -0.7848
   82SOPE   C22 7483   3.410   2.548   5.750 -0.6159 -0.8239 -0.3909
   82SOPE   H2R 7484   3.333   2.510   5.821 -1.1513 -0.5400 -0.8126
   82SOPE   H2S 7485   3.481   2.463   5.745  0.0461 -0.2525 -0.8440
   82SOPE    C3 7486   3.777   2.700   5.967  0.3710 -0.1211 -0.1915
   82SOPE    HX 7487   3.792   2.593   5.992  1.3793  0.0396 -0.0544
   82SOPE    HY 7488   3.821   2.755   6.053  3.3661 -1.3789 -0.7809
   82SOPE   O31 7489   3.845   2.742   5.851  0.5898 -0.1979  0.1567
   82SOPE   C31 7490   3.858   2.644   5.762  0.3111 -0.8913  0.1380
   82SOPE   O32 7491   3.841   2.526   5.776  0.1956  0.3721  0.3106
   82SOPE   C32 7492   3.916   2.701   5.631  0.2604 -0.5316  0.4634
   82SOPE   H2X 7493   4.026   2.715   5.637  0.4611 -0.2395 -2.2728
   82SOPE   H2Y 7494   3.876   2.804   5.617  2.5339  0.6689  2.0647
   82SOPE   C23 7495   3.347   2.591   5.614 -0.6075  0.6933 -0.6670
   82SOPE   H3R 7496   3.262   2.661   5.631 -0.2900  0.7976  0.6262
   82SOPE   H3S 7497   3.312   2.499   5.563 -0.5626  0.6986 -0.7069
   82SOPE   C24 7498   3.452   2.658   5.528  0.1624  0.1880  0.1642
   82SOPE   H4R 7499   3.476   2.762   5.558 -1.6858  0.7647 -0.2193
   82SOPE   H4S 7500   3.541   2.591   5.525  0.6073  0.8172 -1.0129
   82SOPE   C25 7501   3.395   2.664   5.388  0.3172 -0.0226  0.4673
   82SOPE   H5R 7502   3.427   2.572   5.336  0.9516  1.1698 -1.3511
   82SOPE   H5S 7503   3.284   2.659   5.391  0.0954  0.2706 -3.2586
   82SOPE   C26 7504   3.439   2.789   5.312  1.1184 -0.2625  0.5681
   82SOPE   H6R 7505   3.391   2.877   5.359  0.5612 -1.2235  1.8682
   82SOPE   H6S 7506   3.550   2.795   5.309  1.2308 -1.9844 -1.3544
   82SOPE   C27 7507   3.388   2.785   5.166  0.0680  0.4036 -0.1090
   82SOPE   H7R 7508   3.421   2.694   5.112  1.3828  1.4710 -1.1723
   82SOPE   H7S 7509   3.278   2.782   5.176 -0.1787  0.5508 -2.3724
   82SOPE   C28 7510   3.439   2.904   5.085  0.1224 -1.0907 -0.2226
   82SOPE   H8R 7511   3.386   2.891   4.989  0.2993 -1.9498 -0.2162
   82SOPE   H8S 7512   3.400   2.994   5.137 -0.7109 -2.2748  1.2674
   82SOPE   C29 7513   3.591   2.928   5.065  0.1922  1.3117 -0.0194
   82SOPE   H91 7514   3.642   2.949   5.160  0.1976  2.3050 -0.2298
   82SOPE  C210 7515   3.650   2.957   4.944  0.2008 -0.4792  0.2861
   82SOPE  H101 7516   3.759   2.972   4.951  0.0508  0.7330  0.3237
   82SOPE  C211 7517   3.595   2.986   4.804  0.3094  0.2869  0.5410
   82SOPE  H11R 7518   3.596   3.095   4.781 -3.3980  0.5186  0.9948
   82SOPE  H11S 7519   3.486   2.971   4.794  0.1465  1.6165  0.0743
   82SOPE  C212 7520   3.668   2.903   4.695  0.7710 -0.0844 -0.5319
   82SOPE  H12R 7521   3.778   2.918   4.698  0.7326  0.0959  2.4960
   82SOPE  H12S 7522   3.643   2.940   4.593  0.6252 -1.0889 -0.8662
   82SOPE  C213 7523   3.629   2.758   4.707 -0.2986 -0.0176 -0.0134
   82SOPE  H13R 7524   3.555   2.742   4.789 -2.3483  0.6890 -1.6137
   82SOPE  H13S 7525   3.721   2.700   4.729 -0.3479 -0.3176 -0.5827
   82SOPE  C214 7526   3.570   2.689   4.585 -0.4774 -0.4668 -0.5164
   82SOPE  H14R 7527   3.562   2.580   4.603  1.2524 -0.2970  1.6412
   82SOPE  H14S 7528   3.624   2.699   4.488  2.0037  0.2721  0.8658
   82SOPE  C215 7529   3.432   2.739   4.537 -0.3708  0.1272 -0.3810
   82SOPE  H15R 7530   3.383   2.663   4.473  2.0292 -3.0728  1.2667
   82SOPE  H15S 7531   3.436   2.830   4.474 -2.1611  0.7686  0.3771
   82SOPE  C216 7532   3.343   2.759   4.651  0.0792 -1.1377 -1.0558
   82SOPE  H16R 7533   3.253   2.808   4.609 -0.1641 -2.5031 -2.2070
   82SOPE  H16S 7534   3.380   2.830   4.729 -0.3771  0.5237 -2.2947
   82SOPE  C217 7535   3.300   2.630   4.724 -0.1375  0.7997 -0.6687
   82SOPE  H17R 7536   3.389   2.567   4.747  0.0323  1.9394  2.1286
   82SOPE  H17S 7537   3.239   2.558   4.664  1.3297 -3.6929  2.6143
   82SOPE  C218 7538   3.223   2.653   4.853 -0.0822  0.0892 -0.2643
   82SOPE  H18R 7539   3.151   2.735   4.833 -1.3302 -1.2846 -1.6081
   82SOPE  H18S 7540   3.290   2.705   4.926 -0.7951  3.2300 -1.6488
   82SOPE  H18T 7541   3.174   2.570   4.907  1.0850  0.3938  1.3467
   82SOPE   C33 7542   3.874   2.622   5.507  0.2565 -0.2640  0.4309
   82SOPE   H3X 7543   3.769   2.586   5.502  0.9787 -2.3563 -0.8499
   82SOPE   H3Y 7544   3.939   2.534   5.487 -0.1604  0.0904 -3.2803
   82SOPE   C34 7545   3.889   2.714   5.381  0.0659  0.4236 -0.1756
   82SOPE   H4X 7546   3.982   2.774   5.387  0.1790  0.1654  0.9436
   82SOPE   H4Y 7547   3.805   2.787   5.378  1.6268  2.4228  1.6435
   82SOPE   C35 7548   3.896   2.645   5.251  0.4898  0.0851  0.0454
   82SOPE   H5X 7549   3.991   2.587   5.244  0.0863 -0.5150 -0.5323
   82SOPE   H5Y 7550   3.904   2.706   5.158  1.2099 -0.5849 -0.3477
   82SOPE   C36 7551   3.769   2.567   5.217 -0.0470  0.2611  0.7934
   82SOPE   H6X 7552   3.677   2.628   5.225  0.5730  1.6966 -1.9842
   82SOPE   H6Y 7553   3.756   2.493   5.299  0.1463  0.9261  1.4336
   82SOPE   C37 7554   3.769   2.515   5.072  0.2698 -0.0127 -0.6105
   82SOPE   H7X 7555   3.868   2.465   5.064  0.0022 -0.7050  0.1659
   82SOPE   H7Y 7556   3.769   2.594   4.995  0.0107  2.6221  1.9135
   82SOPE   C38 7557   3.649   2.427   5.048  0.2359  0.5850 -0.1150
   82SOPE   H8X 7558   3.564   2.498   5.064 -0.3125  0.3290 -1.7697
   82SOPE   H8Y 7559   3.652   2.348   5.126  1.6699 -0.8399 -1.5542
   82SOPE   C39 7560   3.644   2.343   4.921  0.6175 -0.8580  0.1965
   82SOPE   H9X 7561   3.724   2.268   4.901  0.5639 -0.9508  0.3303
   82SOPE   H9Y 7562   3.649   2.418   4.839 -0.5504 -0.4248  0.5118
   82SOPE  C310 7563   3.509   2.269   4.904 -0.3774  0.9324 -0.3199
   82SOPE  H10X 7564   3.424   2.333   4.936 -0.9381  0.4534 -0.8366
   82SOPE  H10Y 7565   3.511   2.174   4.963 -0.1421  1.9885  1.4480
   82SOPE  C311 7566   3.471   2.231   4.760  0.1075 -0.0111  0.4706
   82SOPE  H11X 7567   3.548   2.169   4.710  0.6741  0.4625  0.7578
   82SOPE  H11Y 7568   3.451   2.322   4.699  1.9672  0.4993  0.5741
   82SOPE  C312 7569   3.342   2.145   4.755 -0.4547  0.3192  0.4614
   82SOPE  H12X 7570   3.251   2.197   4.791 -0.4098  0.0464  0.9785
   82SOPE  H12Y 7571   3.350   2.049   4.809  0.3261 -1.2015 -2.1846
   82SOPE  C313 7572   3.306   2.105   4.612 -0.1428  0.6692  0.0358
   82SOPE  H13X 7573   3.214   2.046   4.630  1.3572 -2.1619 -1.0363
   82SOPE  H13Y 7574   3.387   2.042   4.570  0.5469  1.6982 -0.2145
   82SOPE  C314 7575   3.256   2.214   4.526  0.5867 -0.5754  0.1222
   82SOPE  H14X 7576   3.338   2.282   4.494  0.7890  0.2333  2.2304
   82SOPE  H14Y 7577   3.186   2.288   4.571  0.4332  0.4071 -1.6497
   82SOPE  C315 7578   3.198   2.170   4.389 -0.4670  0.0928  0.5013
   82SOPE  H15X 7579   3.129   2.252   4.361 -2.1750 -1.3072  0.4945
   82SOPE  H15Y 7580   3.141   2.077   4.406 -0.7359  0.5724  2.4636
   82SOPE  C316 7581   3.314   2.157   4.284 -0.8890 -0.4145  0.6194
   82SOPE  H16X 7582   3.412   2.137   4.332 -0.2459  0.6857 -0.1729
   82SOPE  H16Y 7583   3.316   2.253   4.228 -0.9869 -0.6843  0.1522
   82SOPE  C317 7584   3.277   2.054   4.183 -1.1316 -0.4166 -0.8934
   82SOPE  H17X 7585   3.189   2.083   4.122 -2.1498  0.9406  1.1049
   82SOPE  H17Y 7586   3.239   1.969   4.243 -2.5453  1.4090  0.8977
   82SOPE  C318 7587   3.390   2.001   4.103 -0.9197 -0.8802  0.3586
   82SOPE  H18X 7588   3.470   1.975   4.175 -0.0133  1.2596  0.2103
   82SOPE  H18Y 7589   3.419   2.083   4.034 -2.4802  0.5826  1.3537
   82SOPE  H18Z 7590   3.346   1.919   4.043 -1.9249  0.1774 -0.4066
   83SOPE     N 7591   1.842   5.423   2.778 -0.5542 -0.3803  0.0447
   83SOPE   HN1 7592   1.786   5.342   2.744  0.0291 -0.1124 -1.6352
   83SOPE   HN2 7593   1.805   5.514   2.744 -1.5236 -1.1716 -1.1195
   83SOPE   HN3 7594   1.936   5.423   2.734 -1.5115 -0.0800 -2.1290
   83SOPE   C12 7595   1.850   5.431   2.923 -0.4696  0.6203 -0.3244
   83SOPE  H12A 7596   1.748   5.450   2.964  0.1735 -1.2303  2.4600
   83SOPE  H12B 7597   1.927   5.504   2.955 -0.7232  0.3654  0.9110
   83SOPE   C11 7598   1.878   5.284   2.968  0.0126  0.1486  0.0710
   83SOPE  H11A 7599   1.908   5.287   3.075  1.3825 -2.3921 -0.1508
   83SOPE  H11B 7600   1.971   5.243   2.923 -0.1313  0.5669 -0.6107
   83SOPE     P 7601   1.776   5.089   2.825 -0.2103 -0.2289 -0.0618
   83SOPE   O13 7602   1.843   5.166   2.714  0.4729 -0.5297 -0.0962
   83SOPE   O14 7603   1.652   5.019   2.783 -0.0575  0.3550  0.7708
   83SOPE   O12 7604   1.765   5.201   2.943 -0.4608  0.4149 -0.0693
   83SOPE   O11 7605   1.875   4.981   2.877 -0.4803  0.4602  0.5588
   83SOPE    C1 7606   1.869   4.842   2.847 -0.0265  0.5470 -0.1701
   83SOPE    HA 7607   1.970   4.796   2.854 -0.6074 -1.0131 -1.4261
   83SOPE    HB 7608   1.829   4.815   2.747 -1.7748  2.3237  0.0008
   83SOPE    C2 7609   1.776   4.766   2.949 -0.1397 -0.0722 -0.6148
   83SOPE    HS 7610   1.674   4.800   2.919 -0.7155 -1.3807 -0.2097
   83SOPE   O21 7611   1.812   4.818   3.081 -0.3544 -0.2977 -0.3831
   83SOPE   C21 7612   1.713   4.843   3.166  0.4168  0.2417  0.4437
   83SOPE   O22 7613   1.592   4.825   3.144 -0.1269 -0.7891  0.4784
   83SOPE   C22 7614   1.770   4.938   3.274 -0.7359  0.7079  0.2051
   83SOPE   H2R 7615   1.825   5.018   3.220 -2.0340  0.4721 -1.5531
   83SOPE   H2S 7616   1.840   4.877   3.334 -0.0488  1.6088  0.3367
   83SOPE    C3 7617   1.782   4.608   2.953 -0.4168  0.0705  0.3151
   83SOPE    HX 7618   1.891   4.592   2.971 -0.3030 -0.5701 -0.7854
   83SOPE    HY 7619   1.769   4.563   2.852  0.8861 -0.2069  0.2486
   83SOPE   O31 7620   1.702   4.538   3.053  0.4896  0.0052  0.0174
   83SOPE   C31 7621   1.571   4.558   3.045  0.7646  0.1730 -0.3522
   83SOPE   O32 7622   1.507   4.612   2.957  0.0021  0.2075 -0.2650
   83SOPE   C32 7623   1.493   4.505   3.168  0.0867  0.7934 -0.4001
   83SOPE   H2X 7624   1.432   4.416   3.143 -0.7182  0.3133  2.9326
   83SOPE   H2Y 7625   1.427   4.591   3.192  2.5797  2.6771  0.0864
   83SOPE   C23 7626   1.664   5.011   3.365 -0.2688  0.3505 -0.8913
   83SOPE   H3R 7627   1.581   5.054   3.306 -1.1083  1.7866  1.1888
   83SOPE   H3S 7628   1.724   5.089   3.417 -0.8687 -1.1006  2.2309
   83SOPE   C24 7629   1.592   4.920   3.473 -0.1420  0.5249  0.2354
   83SOPE   H4R 7630   1.545   4.845   3.406 -0.8890  0.2095  1.1005
   83SOPE   H4S 7631   1.666   4.871   3.539  0.4487 -1.4939 -1.7921
   83SOPE   C25 7632   1.474   4.979   3.555  0.0700 -0.2024  0.1153
   83SOPE   H5R 7633   1.514   5.054   3.627  1.3069 -0.3160 -0.4142
   83SOPE   H5S 7634   1.414   5.037   3.482  1.8140  3.5689  1.4006
   83SOPE   C26 7635   1.397   4.868   3.634  0.2562  0.5045 -0.2427
   83SOPE   H6R 7636   1.294   4.896   3.662 -0.3279 -1.5826 -0.1098
   83SOPE   H6S 7637   1.393   4.787   3.557 -0.5463 -0.3212  0.6446
   83SOPE   C27 7638   1.476   4.811   3.757  0.0820  0.6331  0.1978
   83SOPE   H7R 7639   1.415   4.735   3.812 -0.0333 -0.1746 -1.0255
   83SOPE   H7S 7640   1.565   4.757   3.718 -1.9978 -3.2456  0.2417
   83SOPE   C28 7641   1.510   4.915   3.868  0.0514 -0.2554  0.2316
   83SOPE   H8R 7642   1.561   4.869   3.956 -0.5302 -0.1129  0.6422
   83SOPE   H8S 7643   1.574   4.995   3.824  0.5628 -1.9625 -2.3588
   83SOPE   C29 7644   1.380   4.959   3.938 -0.5863  0.7918  0.2177
   83SOPE   H91 7645   1.294   4.891   3.941  1.1437 -1.5146  0.2734
   83SOPE  C210 7646   1.361   5.079   3.996 -0.8405 -0.2077  0.6372
   83SOPE  H101 7647   1.264   5.102   4.044 -0.7375 -0.8105  1.1537
   83SOPE  C211 7648   1.463   5.186   3.992  0.2129 -0.2942 -0.2870
   83SOPE  H11R 7649   1.498   5.215   3.890 -2.5007 -1.3304 -1.5984
   83SOPE  H11S 7650   1.553   5.160   4.051 -0.5419  0.3267  1.1973
   83SOPE  C212 7651   1.412   5.312   4.061  0.3168 -0.6461 -0.3685
   83SOPE  H12R 7652   1.305   5.332   4.042 -0.7776 -1.3047  4.0148
   83SOPE  H12S 7653   1.475   5.395   4.021  1.8828 -1.8947 -0.6119
   83SOPE  C213 7654   1.440   5.309   4.210  0.0514 -0.3921 -0.5544
   83SOPE  H13R 7655   1.549   5.290   4.218  0.0530 -0.7154 -1.2379
   83SOPE  H13S 7656   1.374   5.235   4.261  0.5546  0.4759  1.4723
   83SOPE  C214 7657   1.387   5.438   4.275  0.5232 -0.1083  0.1625
   83SOPE  H14R 7658   1.276   5.442   4.274  0.5155 -0.3780 -0.1269
   83SOPE  H14S 7659   1.432   5.523   4.220  0.5483 -0.6717 -0.6968
   83SOPE  C215 7660   1.427   5.438   4.424  0.7937  0.1792  0.6479
   83SOPE  H15R 7661   1.535   5.412   4.431  1.1723  1.5668  0.2455
   83SOPE  H15S 7662   1.354   5.370   4.473 -0.6414  0.8868 -0.4305
   83SOPE  C216 7663   1.416   5.585   4.477  0.4431 -0.1476  0.3463
   83SOPE  H16R 7664   1.307   5.599   4.493 -0.0631 -1.7740 -1.2949
   83SOPE  H16S 7665   1.450   5.661   4.403  1.2297  1.1869  2.0195
   83SOPE  C217 7666   1.465   5.608   4.617  0.4707 -0.3493 -0.6855
   83SOPE  H17R 7667   1.563   5.555   4.623  0.6135 -0.0265 -0.0589
   83SOPE  H17S 7668   1.399   5.568   4.697  0.3382 -1.6300 -1.4121
   83SOPE  C218 7669   1.491   5.756   4.651 -0.4782  0.1904 -0.5204
   83SOPE  H18R 7670   1.394   5.809   4.656 -0.2710  0.7315 -1.7540
   83SOPE  H18S 7671   1.558   5.803   4.575 -0.9792 -0.8123 -1.6156
   83SOPE  H18T 7672   1.546   5.747   4.747  1.6556 -0.1452 -1.7052
   83SOPE   C33 7673   1.591   4.484   3.294 -0.5604  0.3485  0.2851
   83SOPE   H3X 7674   1.639   4.583   3.303  0.8183 -0.3949  1.5313
   83SOPE   H3Y 7675   1.678   4.420   3.265  1.5668  2.2175  2.1651
   83SOPE   C34 7676   1.519   4.459   3.427  0.4649  0.5329  0.2259
   83SOPE   H4X 7677   1.460   4.365   3.422  1.5397 -0.0701 -1.7515
   83SOPE   H4Y 7678   1.457   4.547   3.458 -1.1615 -0.9745  1.4840
   83SOPE   C35 7679   1.629   4.450   3.529 -0.2506  0.5149  0.1449
   83SOPE   H5X 7680   1.699   4.536   3.530 -0.7194  0.9025 -0.0488
   83SOPE   H5Y 7681   1.693   4.362   3.509 -1.0262 -0.0260 -0.0324
   83SOPE   C36 7682   1.564   4.427   3.670  0.1935 -0.1545 -0.0202
   83SOPE   H6X 7683   1.501   4.336   3.673  0.3522 -0.2974 -0.7216
   83SOPE   H6Y 7684   1.502   4.519   3.682  1.6790  1.3577 -2.7140
   83SOPE   C37 7685   1.666   4.433   3.782 -0.0493  0.9503 -0.0964
   83SOPE   H7X 7686   1.736   4.516   3.760  0.9311  0.3424  0.6228
   83SOPE   H7Y 7687   1.735   4.346   3.782 -1.8839 -0.5957  0.6255
   83SOPE   C38 7688   1.606   4.447   3.926  0.2908  0.2097 -0.3900
   83SOPE   H8X 7689   1.558   4.349   3.947  2.1266 -1.1528 -2.1367
   83SOPE   H8Y 7690   1.525   4.523   3.926 -0.3283 -0.4406 -0.3284
   83SOPE   C39 7691   1.713   4.472   4.034 -0.2174 -0.0068 -0.0656
   83SOPE   H9X 7692   1.710   4.582   4.050 -1.6204 -0.3108  2.0994
   83SOPE   H9Y 7693   1.808   4.437   3.987 -0.9007 -1.6099 -0.2831
   83SOPE  C310 7694   1.689   4.397   4.165 -0.4570 -0.2326 -0.0304
   83SOPE  H10X 7695   1.638   4.300   4.145 -3.7719  1.5944 -1.2089
   83SOPE  H10Y 7696   1.619   4.459   4.225 -0.9349  0.9993 -1.7836
   83SOPE  C311 7697   1.808   4.379   4.262  0.1558  0.1664 -0.2205
   83SOPE  H11X 7698   1.840   4.481   4.290 -0.9624  0.2293  0.9150
   83SOPE  H11Y 7699   1.888   4.331   4.202  0.9207  2.2813 -0.9885
   83SOPE  C312 7700   1.770   4.287   4.378  0.2043  0.2145 -0.9308
   83SOPE  H12X 7701   1.771   4.179   4.351 -0.2646  0.1641 -0.7466
   83SOPE  H12Y 7702   1.669   4.307   4.420 -0.6681 -2.9722 -1.2471
   83SOPE  C313 7703   1.879   4.290   4.490  0.3745  0.0529  0.0486
   83SOPE  H13X 7704   1.872   4.379   4.556  0.3361 -1.4293  2.1462
   83SOPE  H13Y 7705   1.977   4.304   4.439  0.2040 -0.0413 -0.3088
   83SOPE  C314 7706   1.879   4.170   4.581 -0.1501  0.4548 -0.1276
   83SOPE  H14X 7707   1.891   4.082   4.515 -0.2350 -0.3603  0.9152
   83SOPE  H14Y 7708   1.787   4.156   4.642  1.1183 -0.5368  1.6708
   83SOPE  C315 7709   2.001   4.176   4.679  0.4459 -0.0021  1.1503
   83SOPE  H15X 7710   2.089   4.198   4.614 -1.1076 -0.9317 -1.4196
   83SOPE  H15Y 7711   2.020   4.079   4.730 -1.6046 -0.6780  0.7390
   83SOPE  C316 7712   1.975   4.277   4.798 -0.0125  0.0826  0.3044
   83SOPE  H16X 7713   1.881   4.247   4.850 -1.6385  0.4553 -2.2229
   83SOPE  H16Y 7714   1.969   4.373   4.744  2.1018  0.4865  0.7208
   83SOPE  C317 7715   2.101   4.291   4.888 -0.7092  1.1243 -0.6271
   83SOPE  H17X 7716   2.195   4.313   4.833  0.1552  0.4597  0.5353
   83SOPE  H17Y 7717   2.110   4.193   4.940  0.8085  0.9305 -1.1777
   83SOPE  C318 7718   2.071   4.401   4.991  0.1117 -0.2568  0.2681
   83SOPE  H18X 7719   2.129   4.391   5.085  2.2179  1.4027 -0.7676
   83SOPE  H18Y 7720   1.966   4.406   5.028  0.8292 -0.0868  2.3917
   83SOPE  H18Z 7721   2.097   4.496   4.941 -0.6731 -0.1799 -0.0141
   84SOPE     N 7722   0.047   3.659   2.383  0.8017 -0.2336  0.0917
   84SOPE   HN1 7723   0.072   3.756   2.408 -0.8897 -0.1597  1.6718
   84SOPE   HN2 7724  -0.025   3.622   2.448  1.1198 -1.5171 -0.2393
   84SOPE   HN3 7725   0.134   3.602   2.390  1.0777  0.2490  0.5758
   84SOPE   C12 7726  -0.006   3.658   2.241  0.5056 -0.2213  0.1210
   84SOPE  H12A 7727  -0.002   3.553   2.205 -3.0246 -0.4238 -0.0480
   84SOPE  H12B 7728   0.066   3.717   2.180 -0.3816 -1.0179 -1.7635
   84SOPE   C11 7729  -0.145   3.719   2.234 -0.1856 -0.3538  0.4296
   84SOPE  H11A 7730  -0.221   3.653   2.281 -2.1273  0.8526 -0.8421
   84SOPE  H11B 7731  -0.187   3.725   2.131  0.4898 -0.9667  0.1075
   84SOPE     P 7732  -0.159   3.984   2.221 -0.2552 -0.3861  0.1900
   84SOPE   O13 7733  -0.290   3.991   2.144 -0.6775 -0.1422 -0.2983
   84SOPE   O14 7734  -0.032   4.010   2.146  0.1935 -0.0366  0.0690
   84SOPE   O12 7735  -0.153   3.847   2.300 -0.1626 -0.0572 -0.0876
   84SOPE   O11 7736  -0.167   4.103   2.330 -0.0488  1.1197 -0.0259
   84SOPE    C1 7737  -0.198   4.073   2.465 -0.4271 -0.0199 -0.6195
   84SOPE    HA 7738  -0.175   3.967   2.489 -1.3355  0.0267  0.5127
   84SOPE    HB 7739  -0.306   4.094   2.479 -0.5903 -0.3862 -1.2524
   84SOPE    C2 7740  -0.133   4.165   2.573  0.2785 -0.0492 -0.6902
   84SOPE    HS 7741  -0.099   4.094   2.652  0.8332  1.1578  0.1960
   84SOPE   O21 7742  -0.227   4.266   2.625 -0.1492 -0.1141 -0.1944
   84SOPE   C21 7743  -0.294   4.224   2.736  0.3912 -0.5691  0.7656
   84SOPE   O22 7744  -0.296   4.115   2.787 -0.7992 -0.4707  0.1148
   84SOPE   C22 7745  -0.383   4.340   2.798 -1.0908  0.3798 -0.3500
   84SOPE   H2R 7746  -0.481   4.293   2.816  0.7165 -3.9529 -0.6061
   84SOPE   H2S 7747  -0.388   4.415   2.716 -1.5027  0.8792  0.1225
   84SOPE    C3 7748  -0.010   4.234   2.515  0.2245 -0.5714  0.5409
   84SOPE    HX 7749  -0.042   4.327   2.463  2.4166  1.2893  2.3272
   84SOPE    HY 7750   0.041   4.185   2.430 -0.5870  0.7196 -0.7413
   84SOPE   O31 7751   0.081   4.281   2.618  0.0281  0.2818 -0.3594
   84SOPE   C31 7752   0.169   4.185   2.647  0.2001  0.1160 -0.1282
   84SOPE   O32 7753   0.174   4.073   2.602 -0.0871 -1.0909 -0.0949
   84SOPE   C32 7754   0.257   4.223   2.761 -0.5435  0.2325 -0.0434
   84SOPE   H2X 7755   0.296   4.326   2.753  1.3627 -0.4838 -0.3374
   84SOPE   H2Y 7756   0.347   4.158   2.768  1.0445  2.2777 -0.5196
   84SOPE   C23 7757  -0.306   4.400   2.913 -0.1845 -0.2812  0.1940
   84SOPE   H3R 7758  -0.323   4.510   2.911  2.8161  0.2817 -1.0467
   84SOPE   H3S 7759  -0.197   4.382   2.897  0.8003  2.8711  2.3555
   84SOPE   C24 7760  -0.339   4.346   3.052  0.5920 -0.3239  0.5136
   84SOPE   H4R 7761  -0.440   4.377   3.088 -0.5453 -0.3118 -2.4049
   84SOPE   H4S 7762  -0.330   4.235   3.051  0.4214 -0.3527  1.3174
   84SOPE   C25 7763  -0.228   4.393   3.154  0.1109  0.1273 -0.0387
   84SOPE   H5R 7764  -0.125   4.374   3.118  0.6279  1.4854  0.6499
   84SOPE   H5S 7765  -0.229   4.505   3.154  0.6633  0.1909  2.4564
   84SOPE   C26 7766  -0.234   4.353   3.303 -0.4425  0.4220  0.1558
   84SOPE   H6R 7767  -0.336   4.355   3.347  0.3047  1.1162  1.9536
   84SOPE   H6S 7768  -0.195   4.250   3.315  2.6361  1.6944  2.3808
   84SOPE   C27 7769  -0.153   4.453   3.392 -0.6636  0.5166  0.2516
   84SOPE   H7R 7770  -0.044   4.438   3.374 -0.6088  2.4716 -1.3370
   84SOPE   H7S 7771  -0.165   4.557   3.356  2.7785  0.7025 -0.7268
   84SOPE   C28 7772  -0.177   4.450   3.546  0.4737 -0.1897  0.1950
   84SOPE   H8R 7773  -0.094   4.494   3.605 -0.1264 -0.5672  1.3418
   84SOPE   H8S 7774  -0.269   4.511   3.558  1.3025  1.4376 -1.2725
   84SOPE   C29 7775  -0.194   4.315   3.601  0.2397  0.4222  0.0668
   84SOPE   H91 7776  -0.129   4.236   3.560 -0.7028 -1.9748  2.8466
   84SOPE  C210 7777  -0.294   4.281   3.687  0.1000 -0.0453  0.6229
   84SOPE  H101 7778  -0.305   4.180   3.728 -1.0449  0.1009  0.7140
   84SOPE  C211 7779  -0.391   4.380   3.739  0.3761  0.1491  0.0392
   84SOPE  H11R 7780  -0.448   4.433   3.660 -0.3569 -0.2675  0.2755
   84SOPE  H11S 7781  -0.342   4.461   3.797  0.5291 -1.0561  1.6733
   84SOPE  C212 7782  -0.492   4.322   3.839  0.2305  0.1408 -0.4841
   84SOPE  H12R 7783  -0.528   4.236   3.779  2.0963 -2.2418  1.5784
   84SOPE  H12S 7784  -0.574   4.392   3.865  0.6552  0.0470  1.2349
   84SOPE  C213 7785  -0.434   4.270   3.972  0.5778 -0.1978 -0.4390
   84SOPE  H13R 7786  -0.351   4.197   3.954  2.2756  2.2240 -3.4891
   84SOPE  H13S 7787  -0.520   4.220   4.021  1.1353 -0.0939  0.6681
   84SOPE  C214 7788  -0.387   4.390   4.054 -0.3920 -0.4475 -0.3002
   84SOPE  H14R 7789  -0.473   4.451   4.088 -1.0290 -1.5001  0.0145
   84SOPE  H14S 7790  -0.332   4.453   3.981  0.7189  0.4400  1.2369
   84SOPE  C215 7791  -0.288   4.355   4.163  0.1647  0.1150 -0.3872
   84SOPE  H15R 7792  -0.250   4.443   4.219 -0.6511 -0.1743  0.6615
   84SOPE  H15S 7793  -0.192   4.309   4.132 -0.3465 -1.6888  0.5052
   84SOPE  C216 7794  -0.334   4.253   4.270 -0.1757  0.3881  0.4784
   84SOPE  H16R 7795  -0.335   4.152   4.225  1.5316  1.4873 -2.3210
   84SOPE  H16S 7796  -0.426   4.286   4.324  0.8268  0.2558  2.3456
   84SOPE  C217 7797  -0.225   4.254   4.385  0.3234  0.6220  0.1426
   84SOPE  H17R 7798  -0.232   4.351   4.438 -0.6221  0.4764  0.3032
   84SOPE  H17S 7799  -0.135   4.226   4.325 -0.0639 -2.6954  0.8999
   84SOPE  C218 7800  -0.247   4.139   4.482 -0.1541  0.0186 -0.1877
   84SOPE  H18R 7801  -0.232   4.042   4.431  0.9774  0.4486 -0.7038
   84SOPE  H18S 7802  -0.342   4.149   4.538  1.1536  1.4316  1.9011
   84SOPE  H18T 7803  -0.156   4.146   4.545  0.8015  1.0209 -1.6002
   84SOPE   C33 7804   0.181   4.200   2.902 -0.1462 -0.0819  0.7604
   84SOPE   H3X 7805   0.204   4.094   2.929  0.4665  0.3574  2.0316
   84SOPE   H3Y 7806   0.071   4.211   2.900 -0.0839  0.5783  0.9099
   84SOPE   C34 7807   0.235   4.286   3.015 -0.3613  0.0696  0.2808
   84SOPE   H4X 7808   0.230   4.396   3.006 -1.1214  0.0631  0.5164
   84SOPE   H4Y 7809   0.342   4.255   3.019 -0.5618 -0.5223  2.4065
   84SOPE   C35 7810   0.172   4.260   3.154 -0.2213 -0.2498  0.3428
   84SOPE   H5X 7811   0.194   4.153   3.172  1.1848 -0.1559 -0.6683
   84SOPE   H5Y 7812   0.062   4.275   3.140 -0.2201 -0.0920  0.4987
   84SOPE   C36 7813   0.225   4.338   3.277 -0.9022 -0.3338  0.3485
   84SOPE   H6X 7814   0.161   4.427   3.289  0.6973  0.8969  0.1304
   84SOPE   H6Y 7815   0.332   4.364   3.263 -1.2383  1.3612  0.7381
   84SOPE   C37 7816   0.212   4.247   3.400  0.1707  0.2775 -0.0062
   84SOPE   H7X 7817   0.268   4.155   3.373  0.9300  0.5751  0.5203
   84SOPE   H7Y 7818   0.106   4.221   3.422  0.9095 -1.3265  2.0205
   84SOPE   C38 7819   0.263   4.304   3.532  0.2559 -0.1979  0.3786
   84SOPE   H8X 7820   0.252   4.243   3.624  1.6920 -1.5282 -0.2873
   84SOPE   H8Y 7821   0.216   4.402   3.555  2.7038  1.2424 -0.3462
   84SOPE   C39 7822   0.413   4.337   3.522 -0.0762 -0.4041 -0.1915
   84SOPE   H9X 7823   0.430   4.411   3.441  0.6335 -1.2228 -0.8062
   84SOPE   H9Y 7824   0.471   4.244   3.507 -1.5978 -1.7105  1.5307
   84SOPE  C310 7825   0.470   4.391   3.660  0.5842  0.2393  0.3942
   84SOPE  H10X 7826   0.397   4.468   3.694  0.0103  0.4829 -1.2982
   84SOPE  H10Y 7827   0.565   4.442   3.635  1.4263 -1.1521  0.6824
   84SOPE  C311 7828   0.483   4.280   3.761 -0.2509  0.0685  0.4091
   84SOPE  H11X 7829   0.539   4.197   3.712 -1.9444 -0.5942 -0.4630
   84SOPE  H11Y 7830   0.384   4.243   3.793 -0.4166  1.1216  1.1571
   84SOPE  C312 7831   0.559   4.316   3.890 -0.5889 -0.3972 -0.5545
   84SOPE  H12X 7832   0.656   4.365   3.866  0.4106 -0.4160  2.8715
   84SOPE  H12Y 7833   0.568   4.217   3.938 -5.1816 -0.7916 -0.0578
   84SOPE  C313 7834   0.485   4.403   3.994 -0.1459 -0.0354 -0.0539
   84SOPE  H13X 7835   0.376   4.393   3.981  0.0370 -0.6237 -1.1895
   84SOPE  H13Y 7836   0.515   4.506   3.962  1.2230  0.0785  1.4619
   84SOPE  C314 7837   0.536   4.387   4.138 -0.1143  0.1194 -0.1004
   84SOPE  H14X 7838   0.502   4.471   4.202  1.2499 -1.6259  3.1209
   84SOPE  H14Y 7839   0.647   4.399   4.142  0.2079 -2.6601  1.4479
   84SOPE  C315 7840   0.498   4.253   4.203  0.0022 -0.9519  0.3171
   84SOPE  H15X 7841   0.565   4.171   4.168 -0.3018 -1.2762  0.4933
   84SOPE  H15Y 7842   0.397   4.232   4.163  0.3220  2.0165 -2.4822
   84SOPE  C316 7843   0.506   4.241   4.356 -0.1932 -0.1027 -0.4046
   84SOPE  H16X 7844   0.470   4.331   4.410 -0.3052 -1.2674  1.5530
   84SOPE  H16Y 7845   0.615   4.227   4.371 -0.1092 -0.7183 -1.4953
   84SOPE  C317 7846   0.405   4.136   4.398 -0.3026  0.1260 -0.3922
   84SOPE  H17X 7847   0.440   4.038   4.359 -0.5543 -0.0338 -0.2148
   84SOPE  H17Y 7848   0.301   4.151   4.360 -1.4456  0.5026  2.6497
   84SOPE  C318 7849   0.403   4.125   4.545 -0.0509 -0.4478  0.3700
   84SOPE  H18X 7850   0.353   4.210   4.598  1.2469  0.6754 -0.1536
   84SOPE  H18Y 7851   0.503   4.112   4.591 -0.3441 -1.8900  0.6464
   84SOPE  H18Z 7852   0.341   4.036   4.572 -2.3941  1.2869  1.0797
   85SOPE     N 7853   6.354   5.135   2.382 -0.3141 -0.0158  0.5537
   85SOPE   HN1 7854   6.414   5.215   2.353  0.6054 -0.1814  1.9232
   85SOPE   HN2 7855   6.363   5.067   2.304  1.2575  1.8180 -0.9665
   85SOPE   HN3 7856   6.263   5.173   2.412 -0.0763  1.1501 -0.1463
   85SOPE   C12 7857   6.439   5.088   2.500 -0.2785  0.4877  0.5326
   85SOPE  H12A 7858   6.540   5.130   2.481  0.2198 -0.8797  0.0155
   85SOPE  H12B 7859   6.456   4.979   2.486 -0.3463  0.5184  0.1965
   85SOPE   C11 7860   6.397   5.156   2.630  0.1615  0.6968  0.2111
   85SOPE  H11A 7861   6.477   5.128   2.702  0.2506  1.6569  0.4854
   85SOPE  H11B 7862   6.302   5.112   2.668  0.9364 -2.1236 -0.8471
   85SOPE     P 7863   6.256   5.371   2.602 -0.5587 -0.2798  0.3955
   85SOPE   O13 7864   6.175   5.299   2.502  0.2665  0.1477 -0.2767
   85SOPE   O14 7865   6.293   5.506   2.568 -0.0587 -0.2602  0.0206
   85SOPE   O12 7866   6.393   5.294   2.628 -0.0497  0.1983  0.6547
   85SOPE   O11 7867   6.186   5.383   2.740  0.1677  0.1549 -0.5078
   85SOPE    C1 7868   6.247   5.367   2.870 -0.0320 -0.3004 -0.7664
   85SOPE    HA 7869   6.332   5.296   2.869  2.1349  2.1389 -0.7840
   85SOPE    HB 7870   6.167   5.334   2.939  1.2088 -2.0918 -0.0969
   85SOPE    C2 7871   6.310   5.498   2.916  0.2595  0.4049  0.7616
   85SOPE    HS 7872   6.408   5.511   2.866 -0.5354  1.9278 -0.4867
   85SOPE   O21 7873   6.330   5.500   3.059 -0.7283 -0.5898 -0.1961
   85SOPE   C21 7874   6.446   5.450   3.095 -0.3954  0.1188  0.3849
   85SOPE   O22 7875   6.526   5.389   3.026 -0.1776  0.1126 -0.1847
   85SOPE   C22 7876   6.473   5.462   3.248 -0.4115 -1.1041  0.1192
   85SOPE   H2R 7877   6.397   5.399   3.299  0.6635 -1.6578  1.0954
   85SOPE   H2S 7878   6.457   5.567   3.280  1.2011 -1.1113  1.0885
   85SOPE    C3 7879   6.214   5.615   2.880  0.8536  1.0123 -0.1500
   85SOPE    HX 7880   6.109   5.600   2.912  1.0140  2.0279  0.9353
   85SOPE    HY 7881   6.210   5.628   2.770  0.0915 -0.8563 -0.3754
   85SOPE   O31 7882   6.250   5.745   2.939  0.1335  0.6889 -0.3996
   85SOPE   C31 7883   6.359   5.798   2.900  0.5854 -0.3297 -0.2280
   85SOPE   O32 7884   6.437   5.756   2.818  0.1495  0.6099 -0.0261
   85SOPE   C32 7885   6.386   5.920   2.988  0.0717  0.2680 -0.0048
   85SOPE   H2X 7886   6.294   5.958   3.036  0.3342 -0.3696  1.0458
   85SOPE   H2Y 7887   6.430   5.997   2.921  1.2123  1.2346  1.7877
   85SOPE   C23 7888   6.614   5.404   3.289  0.5011  0.1598  0.3393
   85SOPE   H3R 7889   6.682   5.481   3.246  0.0657  0.2191 -0.2562
   85SOPE   H3S 7890   6.635   5.304   3.245  1.6748  1.0760 -1.3089
   85SOPE   C24 7891   6.637   5.405   3.439  0.1779  0.1131  0.6753
   85SOPE   H4R 7892   6.571   5.333   3.491  0.0482  0.3263  0.8074
   85SOPE   H4S 7893   6.738   5.360   3.451  0.2850 -0.4669 -1.7728
   85SOPE   C25 7894   6.627   5.545   3.505 -0.4451 -0.1523 -0.2307
   85SOPE   H5R 7895   6.699   5.621   3.468 -0.4759 -0.2053 -0.3989
   85SOPE   H5S 7896   6.525   5.588   3.490  0.1850  1.3534 -0.3670
   85SOPE   C26 7897   6.656   5.546   3.663  0.0823  0.0741  0.2144
   85SOPE   H6R 7898   6.583   5.479   3.713 -0.3818  1.1540  1.0392
   85SOPE   H6S 7899   6.756   5.503   3.683 -0.5131 -0.2650  2.8828
   85SOPE   C27 7900   6.649   5.685   3.729  0.1192  0.3298  0.3904
   85SOPE   H7R 7901   6.713   5.757   3.674  0.5386  0.7552  1.4227
   85SOPE   H7S 7902   6.544   5.722   3.718  0.0585 -0.3571 -1.7232
   85SOPE   C28 7903   6.706   5.687   3.874  0.0916 -0.8687 -0.2374
   85SOPE   H8R 7904   6.796   5.622   3.872  0.4979 -0.2985 -0.5707
   85SOPE   H8S 7905   6.730   5.793   3.895  2.4225 -1.2574 -0.6997
   85SOPE   C29 7906   6.607   5.637   3.979 -0.7529 -0.2292  0.0586
   85SOPE   H91 7907   6.533   5.564   3.941 -1.0959 -0.2031  0.6721
   85SOPE  C210 7908   6.581   5.681   4.103 -0.1125  0.4753  0.8034
   85SOPE  H101 7909   6.498   5.634   4.158  0.5783  0.1701  1.5957
   85SOPE  C211 7910   6.646   5.785   4.185 -0.6723  0.1827  0.5444
   85SOPE  H11R 7911   6.562   5.852   4.215 -0.5695 -0.1561  1.6630
   85SOPE  H11S 7912   6.724   5.845   4.135  0.5900 -1.4123  0.5068
   85SOPE  C212 7913   6.702   5.725   4.314 -0.9002  0.4338  0.3430
   85SOPE  H12R 7914   6.634   5.655   4.366  0.5700 -0.6715  0.8487
   85SOPE  H12S 7915   6.742   5.800   4.386  1.2921 -1.4693  1.2281
   85SOPE  C213 7916   6.829   5.630   4.306 -0.0152  0.4345  0.6132
   85SOPE  H13R 7917   6.815   5.529   4.263 -1.7998  1.3281 -1.1024
   85SOPE  H13S 7918   6.858   5.606   4.410  1.8413 -1.1115 -0.1882
   85SOPE  C214 7919   6.961   5.691   4.250  0.5637 -0.2791 -0.5197
   85SOPE  H14R 7920   6.931   5.746   4.158 -1.2685  0.2921  0.3676
   85SOPE  H14S 7921   7.023   5.603   4.220  2.1178  0.0955  1.4028
   85SOPE  C215 7922   7.023   5.778   4.356  0.7268 -0.2918  0.5526
   85SOPE  H15R 7923   7.036   5.728   4.454  0.1441 -0.7314  0.4114
   85SOPE  H15S 7924   6.945   5.854   4.379 -0.0417 -1.2792  1.3145
   85SOPE  C216 7925   7.149   5.851   4.305  0.2018 -0.2374 -0.4998
   85SOPE  H16R 7926   7.143   5.911   4.212  1.3902 -0.4378 -0.7222
   85SOPE  H16S 7927   7.215   5.769   4.270 -1.2620 -1.2923 -0.8869
   85SOPE  C217 7928   7.219   5.949   4.400  0.3824 -0.1595  0.3712
   85SOPE  H17R 7929   7.305   5.992   4.345 -0.0273 -1.5096 -1.4024
   85SOPE  H17S 7930   7.249   5.894   4.492 -0.7886 -0.9538  0.3020
   85SOPE  C218 7931   7.127   6.063   4.449  0.0484 -0.3196  0.1614
   85SOPE  H18R 7932   7.069   6.093   4.359  0.8454  2.6630  0.5304
   85SOPE  H18S 7933   7.176   6.154   4.489  0.9299 -1.2339  1.2293
   85SOPE  H18T 7934   7.049   6.028   4.520  0.8712 -3.0478 -0.1390
   85SOPE   C33 7935   6.481   5.876   3.104 -0.0740 -0.3521 -0.6025
   85SOPE   H3X 7936   6.551   5.803   3.058 -1.5541 -0.8073 -2.2164
   85SOPE   H3Y 7937   6.429   5.823   3.186 -0.6623  0.2066 -0.6044
   85SOPE   C34 7938   6.548   5.996   3.177 -0.3522  0.5002  0.1599
   85SOPE   H4X 7939   6.459   6.057   3.203  0.7606  2.1728  0.1967
   85SOPE   H4Y 7940   6.613   6.046   3.102 -0.1371  0.1243  0.0924
   85SOPE   C35 7941   6.633   5.954   3.297 -0.0572 -0.6348  0.4715
   85SOPE   H5X 7942   6.726   5.910   3.256  1.2600  1.6096  0.8606
   85SOPE   H5Y 7943   6.584   5.869   3.348 -2.9316 -1.2660 -2.8663
   85SOPE   C36 7944   6.675   6.079   3.372 -0.3224 -0.7428 -0.2407
   85SOPE   H6X 7945   6.590   6.147   3.392  2.3845  2.3774  1.9153
   85SOPE   H6Y 7946   6.747   6.135   3.308  1.8701 -1.6009  1.3242
   85SOPE   C37 7947   6.747   6.038   3.502  0.2417  0.2767 -0.0177
   85SOPE   H7X 7948   6.815   5.956   3.470 -2.4556 -1.7458 -0.9882
   85SOPE   H7Y 7949   6.665   6.013   3.573  1.1039  2.9727  2.1061
   85SOPE   C38 7950   6.823   6.151   3.576 -0.4590  0.2350 -0.8373
   85SOPE   H8X 7951   6.748   6.232   3.585 -3.3908 -2.4243  0.3161
   85SOPE   H8Y 7952   6.907   6.182   3.509  2.6712 -1.7194  1.8658
   85SOPE   C39 7953   6.888   6.099   3.700  0.9163  0.1264 -0.9507
   85SOPE   H9X 7954   6.956   6.015   3.675  0.8402 -0.4982  0.8038
   85SOPE   H9Y 7955   6.820   6.052   3.774 -2.2228  2.3591 -2.1868
   85SOPE  C310 7956   6.971   6.214   3.763 -0.9058  0.3999 -0.7876
   85SOPE  H10X 7957   6.902   6.300   3.778 -1.0478  0.0052  1.1581
   85SOPE  H10Y 7958   7.051   6.253   3.696 -0.7265  1.3798 -0.0409
   85SOPE  C311 7959   7.020   6.176   3.902 -0.8713 -0.2056 -0.6826
   85SOPE  H11X 7960   7.023   6.066   3.917 -2.5599 -0.1137  0.6519
   85SOPE  H11Y 7961   6.940   6.207   3.973  0.0165 -0.5893  0.5056
   85SOPE  C312 7962   7.150   6.248   3.941  0.0941  0.0830  0.4164
   85SOPE  H12X 7963   7.117   6.353   3.926  1.3468  0.4692  0.2539
   85SOPE  H12Y 7964   7.235   6.219   3.875  0.8494  1.8587  0.5581
   85SOPE  C313 7965   7.209   6.218   4.078 -0.0782  0.5539  0.1406
   85SOPE  H13X 7966   7.256   6.117   4.081 -1.6771 -0.2000  1.2224
   85SOPE  H13Y 7967   7.133   6.208   4.158  0.4370 -1.4751  0.4412
   85SOPE  C314 7968   7.309   6.321   4.121 -0.6540 -0.1537  0.1524
   85SOPE  H14X 7969   7.263   6.422   4.123 -1.1457 -0.3818  1.4108
   85SOPE  H14Y 7970   7.396   6.329   4.052  0.9527  0.4134  2.1222
   85SOPE  C315 7971   7.382   6.289   4.255 -0.9667 -0.5883 -0.6123
   85SOPE  H15X 7972   7.427   6.188   4.242  3.4651  1.2083 -0.9256
   85SOPE  H15Y 7973   7.316   6.280   4.344 -1.8089  0.5535 -1.0924
   85SOPE  C316 7974   7.493   6.392   4.295  0.2706 -0.4397 -0.7012
   85SOPE  H16X 7975   7.569   6.419   4.220  1.9657 -0.0063  1.0799
   85SOPE  H16Y 7976   7.541   6.345   4.384  0.2707  0.8970  0.0345
   85SOPE  C317 7977   7.434   6.528   4.339  0.3661 -0.4430 -0.0511
   85SOPE  H17X 7978   7.358   6.515   4.419 -0.1224  1.7943 -0.0882
   85SOPE  H17Y 7979   7.381   6.592   4.265 -2.6657  1.5860  3.5119
   85SOPE  C318 7980   7.542   6.628   4.393 -0.1882 -0.6006 -0.1107
   85SOPE  H18X 7981   7.492   6.714   4.442 -0.4971 -0.9557  0.2028
   85SOPE  H18Y 7982   7.589   6.662   4.298  0.4233  0.0230  0.4029
   85SOPE  H18Z 7983   7.625   6.593   4.459 -1.0748 -0.6439  1.0053
   86SOPE     N 7984   4.841   1.214   2.626 -0.5253  0.0167 -0.2599
   86SOPE   HN1 7985   4.805   1.311   2.631  1.3123  0.6882  1.1644
   86SOPE   HN2 7986   4.804   1.163   2.543  0.0218  0.5214 -0.8242
   86SOPE   HN3 7987   4.802   1.164   2.709  1.0969 -0.8168  0.0340
   86SOPE   C12 7988   4.992   1.214   2.638  0.0533  0.1672 -0.3618
   86SOPE  H12A 7989   5.037   1.135   2.574  0.0216 -0.7421  0.7082
   86SOPE  H12B 7990   5.009   1.186   2.744 -1.8126  0.6274  0.0853
   86SOPE   C11 7991   5.062   1.346   2.595 -0.2431 -0.1541 -0.5229
   86SOPE  H11A 7992   5.163   1.325   2.553 -0.6780 -0.8044 -1.2820
   86SOPE  H11B 7993   5.088   1.411   2.681  1.5367 -1.2253 -0.2054
   86SOPE     P 7994   4.900   1.546   2.554 -0.4210 -0.4145  0.2161
   86SOPE   O13 7995   4.786   1.496   2.635 -0.1786  0.3103 -0.2565
   86SOPE   O14 7996   4.865   1.628   2.436  0.0031  0.2877  0.1249
   86SOPE   O12 7997   4.986   1.422   2.502  0.5947 -0.2487  0.6676
   86SOPE   O11 7998   5.005   1.622   2.642  0.5062  0.1166 -0.6580
   86SOPE    C1 7999   4.958   1.736   2.715 -0.8053 -0.5518  0.9358
   86SOPE    HA 8000   4.850   1.757   2.697 -0.8778 -1.5947  0.0227
   86SOPE    HB 8001   5.023   1.819   2.679  1.8430 -3.2741 -1.0176
   86SOPE    C2 8002   4.963   1.715   2.866 -0.5442  0.1711  0.6047
   86SOPE    HS 8003   5.062   1.680   2.903 -0.4702  1.1873  1.4114
   86SOPE   O21 8004   4.860   1.621   2.901  0.2034  0.3476 -0.3694
   86SOPE   C21 8005   4.894   1.494   2.916  0.6073  0.5111 -0.5442
   86SOPE   O22 8006   5.008   1.457   2.898  0.7123 -0.2459 -0.1101
   86SOPE   C22 8007   4.768   1.406   2.954 -0.2800  0.4969  0.3181
   86SOPE   H2R 8008   4.798   1.299   2.943  1.7650  0.8893  1.3773
   86SOPE   H2S 8009   4.698   1.436   2.874 -0.4883 -0.9702 -0.0859
   86SOPE    C3 8010   4.926   1.845   2.932  0.2636 -0.3367 -0.0228
   86SOPE    HX 8011   4.834   1.879   2.881  1.9734  3.1769 -1.1094
   86SOPE    HY 8012   5.005   1.916   2.897 -0.1838 -1.1113 -2.8442
   86SOPE   O31 8013   4.924   1.833   3.074  0.4199 -0.3473  0.0971
   86SOPE   C31 8014   4.894   1.947   3.132  0.1242 -0.3100  0.2851
   86SOPE   O32 8015   4.863   2.045   3.065 -0.8459  0.6696  0.7176
   86SOPE   C32 8016   4.883   1.931   3.289  0.4588  0.6629  0.1237
   86SOPE   H2X 8017   4.947   1.847   3.326 -0.4568 -0.0860  0.0454
   86SOPE   H2Y 8018   4.777   1.912   3.315  0.6779  1.2629  1.5407
   86SOPE   C23 8019   4.711   1.421   3.102 -0.5225 -0.2420  0.3291
   86SOPE   H3R 8020   4.618   1.362   3.120  0.2200 -1.2594  0.9243
   86SOPE   H3S 8021   4.679   1.527   3.117  2.3986  1.2715 -2.6959
   86SOPE   C24 8022   4.814   1.374   3.214  0.3069  0.1596 -0.4530
   86SOPE   H4R 8023   4.873   1.288   3.175  1.4227  0.9992 -0.6516
   86SOPE   H4S 8024   4.891   1.453   3.225  0.1038  0.3535 -0.4174
   86SOPE   C25 8025   4.738   1.354   3.349  0.0945  0.3089  0.4206
   86SOPE   H5R 8026   4.699   1.448   3.394  0.0598  0.4465  0.1056
   86SOPE   H5S 8027   4.648   1.299   3.313  0.8664  0.2652 -1.5469
   86SOPE   C26 8028   4.817   1.253   3.439 -0.6359  0.6244  0.0410
   86SOPE   H6R 8029   4.850   1.167   3.378  0.8563  1.8271 -0.8993
   86SOPE   H6S 8030   4.909   1.295   3.484  2.6453 -2.7598 -2.8254
   86SOPE   C27 8031   4.738   1.208   3.568  0.4996  0.4031  1.0124
   86SOPE   H7R 8032   4.712   1.293   3.635 -1.1677 -1.0967  2.3815
   86SOPE   H7S 8033   4.648   1.153   3.533  1.8693 -1.5493  0.3644
   86SOPE   C28 8034   4.810   1.096   3.634  0.4719  0.0884 -1.5187
   86SOPE   H8R 8035   4.802   0.998   3.582  0.9026 -1.3494  0.9939
   86SOPE   H8S 8036   4.915   1.131   3.647 -0.2980  1.5581  1.8029
   86SOPE   C29 8037   4.738   1.077   3.768 -0.0865 -0.6339 -0.1137
   86SOPE   H91 8038   4.630   1.060   3.761 -0.0242 -0.6069 -1.5879
   86SOPE  C210 8039   4.798   1.082   3.889 -0.2508 -0.1007 -0.4820
   86SOPE  H101 8040   4.737   1.064   3.979 -0.9730 -3.6312 -1.5037
   86SOPE  C211 8041   4.948   1.111   3.916 -0.1329 -0.3079 -0.8090
   86SOPE  H11R 8042   4.952   1.219   3.894 -3.9993 -0.0569 -1.0375
   86SOPE  H11S 8043   5.011   1.042   3.855 -1.5484 -2.0170 -0.4299
   86SOPE  C212 8044   4.972   1.078   4.064 -0.3882 -0.2491 -0.3443
   86SOPE  H12R 8045   4.926   0.979   4.083 -0.1992 -0.5136 -1.2092
   86SOPE  H12S 8046   4.939   1.155   4.136 -0.7184 -1.1645  0.4921
   86SOPE  C213 8047   5.120   1.056   4.091 -0.5019 -0.0433 -0.2915
   86SOPE  H13R 8048   5.163   1.156   4.068  0.2244 -0.1878  0.3685
   86SOPE  H13S 8049   5.163   0.980   4.022 -1.6845 -2.7009  1.7004
   86SOPE  C214 8050   5.145   1.049   4.246 -0.8721 -0.2881 -0.0401
   86SOPE  H14R 8051   5.255   1.040   4.255 -0.2217  3.3820 -2.3144
   86SOPE  H14S 8052   5.089   0.962   4.288 -0.9207 -0.6942 -0.9170
   86SOPE  C215 8053   5.128   1.171   4.333  0.5693 -0.2761 -0.5853
   86SOPE  H15R 8054   5.020   1.195   4.342  0.5337 -0.3050 -0.9028
   86SOPE  H15S 8055   5.182   1.247   4.272  0.1142  1.8690  1.5322
   86SOPE  C216 8056   5.193   1.145   4.471  0.4618  0.0708  0.0355
   86SOPE  H16R 8057   5.292   1.097   4.457 -0.8038 -2.0899 -2.2814
   86SOPE  H16S 8058   5.117   1.087   4.527  0.0575  0.6673  0.1122
   86SOPE  C217 8059   5.226   1.273   4.550  0.3260 -0.5664  0.0650
   86SOPE  H17R 8060   5.141   1.343   4.547 -1.1124 -2.2839 -1.1204
   86SOPE  H17S 8061   5.308   1.330   4.501  0.2152 -2.5996 -2.7411
   86SOPE  C218 8062   5.267   1.245   4.699  0.7086 -0.1798 -0.3728
   86SOPE  H18R 8063   5.271   1.343   4.751  0.9843 -0.4100  0.0473
   86SOPE  H18S 8064   5.359   1.184   4.698 -0.1674 -1.5705  0.4353
   86SOPE  H18T 8065   5.193   1.182   4.754  1.9665 -0.6277  0.8459
   86SOPE   C33 8066   4.926   2.059   3.354  0.3798  0.5193  0.1282
   86SOPE   H3X 8067   4.845   2.127   3.319  1.5635  0.8613 -2.1152
   86SOPE   H3Y 8068   5.023   2.087   3.308  1.5564  0.7205  2.5588
   86SOPE   C34 8069   4.952   2.061   3.506 -0.1656 -0.0478  0.1162
   86SOPE   H4X 8070   4.973   2.170   3.520  1.3829 -0.3772  0.5530
   86SOPE   H4Y 8071   5.043   2.004   3.535  0.1659  0.1490 -0.5124
   86SOPE   C35 8072   4.828   2.027   3.589 -0.1366 -0.8114 -0.4314
   86SOPE   H5X 8073   4.805   1.919   3.574 -0.6004 -0.6686 -0.7709
   86SOPE   H5Y 8074   4.738   2.081   3.553 -0.1832 -0.0614  0.7693
   86SOPE   C36 8075   4.850   2.059   3.731 -0.9802 -0.3312 -0.6267
   86SOPE   H6X 8076   4.831   2.165   3.756 -1.4131 -0.0070 -2.2186
   86SOPE   H6Y 8077   4.959   2.045   3.743 -0.6795  0.3416 -2.4003
   86SOPE   C37 8078   4.773   1.964   3.828 -0.6951 -0.0730 -0.0275
   86SOPE   H7X 8079   4.823   1.865   3.820 -0.0661  0.1390  1.1473
   86SOPE   H7Y 8080   4.664   1.963   3.809 -0.4275 -4.4804 -3.0287
   86SOPE   C38 8081   4.793   1.994   3.977  0.9645  0.3946 -0.6626
   86SOPE   H8X 8082   4.726   2.080   3.999 -1.4118 -1.6536  0.5187
   86SOPE   H8Y 8083   4.902   1.999   3.998  1.0075  0.0621 -0.8104
   86SOPE   C39 8084   4.732   1.886   4.070  0.3060 -0.2341  0.0912
   86SOPE   H9X 8085   4.767   1.910   4.172 -0.0595 -0.6577  0.3193
   86SOPE   H9Y 8086   4.776   1.789   4.038 -2.1500 -1.0263 -1.1749
   86SOPE  C310 8087   4.581   1.875   4.063  0.7444 -0.0295  0.1625
   86SOPE  H10X 8088   4.551   1.834   3.963 -0.2465  0.2101  0.3501
   86SOPE  H10Y 8089   4.546   1.980   4.065  0.1517 -0.2029 -0.3692
   86SOPE  C311 8090   4.521   1.781   4.165  0.5268 -0.3243  0.2192
   86SOPE  H11X 8091   4.556   1.800   4.269 -0.0104  0.5631  0.2479
   86SOPE  H11Y 8092   4.551   1.677   4.142  0.4700 -0.2507 -0.2068
   86SOPE  C312 8093   4.366   1.804   4.168 -0.2290  0.0505 -0.3730
   86SOPE  H12X 8094   4.331   1.761   4.071 -0.6789 -1.5991  0.4816
   86SOPE  H12Y 8095   4.340   1.912   4.172  2.4555  0.7243  0.4826
   86SOPE  C313 8096   4.292   1.730   4.286 -0.1369  0.9546  0.7266
   86SOPE  H13X 8097   4.321   1.781   4.379 -1.6286  1.2799  1.0458
   86SOPE  H13Y 8098   4.309   1.620   4.288 -1.0742  0.7360 -0.9483
   86SOPE  C314 8099   4.141   1.731   4.268 -0.1822 -0.5713  0.0427
   86SOPE  H14X 8100   4.107   1.669   4.182 -1.2104 -0.8871  0.6582
   86SOPE  H14Y 8101   4.124   1.838   4.245  2.4646 -0.2255 -0.5806
   86SOPE  C315 8102   4.068   1.675   4.384  0.7498  0.4181 -0.4869
   86SOPE  H15X 8103   4.051   1.754   4.461  0.8083 -1.5433  1.6288
   86SOPE  H15Y 8104   4.133   1.607   4.444  0.6741  1.3227  0.6705
   86SOPE  C316 8105   3.928   1.616   4.356  0.4781  0.0631 -0.4518
   86SOPE  H16X 8106   3.879   1.605   4.455 -0.5876  0.9479 -0.8498
   86SOPE  H16Y 8107   3.925   1.511   4.322 -1.1251 -0.6790  1.7816
   86SOPE  C317 8108   3.847   1.705   4.261  0.0579  0.1488  0.3281
   86SOPE  H17X 8109   3.912   1.730   4.174  1.7590 -0.1156  1.4695
   86SOPE  H17Y 8110   3.824   1.798   4.318 -1.9391 -0.3625  0.4217
   86SOPE  C318 8111   3.716   1.630   4.215  0.2387 -0.0631  0.2899
   86SOPE  H18X 8112   3.679   1.669   4.118  0.4974  3.6416  1.5025
   86SOPE  H18Y 8113   3.646   1.644   4.301 -0.3825 -1.5505  0.0395
   86SOPE  H18Z 8114   3.729   1.520   4.207  0.8016  0.1246 -1.9781
   87SOPE     N 8115   0.700   1.712   2.446  0.2695  0.2944 -0.1199
   87SOPE   HN1 8116   0.605   1.682   2.475  0.2322 -0.0147 -0.5412
   87SOPE   HN2 8117   0.705   1.814   2.464  0.0885  0.0148  1.6530
   87SOPE   HN3 8118   0.710   1.672   2.350  1.0371 -1.0524  0.4806
   87SOPE   C12 8119   0.802   1.639   2.529  0.6326  0.3355  0.2231
   87SOPE  H12A 8120   0.800   1.684   2.630 -0.2982 -0.2927  0.4938
   87SOPE  H12B 8121   0.900   1.643   2.476  1.2252 -2.4864  0.9161
   87SOPE   C11 8122   0.773   1.489   2.546  0.5229 -0.2070 -0.4052
   87SOPE  H11A 8123   0.867   1.450   2.591  2.6799  1.8324 -2.8415
   87SOPE  H11B 8124   0.742   1.442   2.450 -0.9364  0.4215 -0.2614
   87SOPE     P 8125   0.519   1.478   2.631 -0.1110  0.2953 -0.1013
   87SOPE   O13 8126   0.464   1.352   2.583  0.3928 -0.0857  0.3741
   87SOPE   O14 8127   0.495   1.589   2.534  0.5818 -0.4438  0.0116
   87SOPE   O12 8128   0.676   1.465   2.653  0.0945  0.2349 -0.1673
   87SOPE   O11 8129   0.462   1.515   2.773  0.1808 -0.2131  0.0395
   87SOPE    C1 8130   0.532   1.601   2.861 -0.8628  0.2444 -0.0296
   87SOPE    HA 8131   0.528   1.701   2.813 -0.5359  0.1224 -0.3196
   87SOPE    HB 8132   0.642   1.582   2.863 -0.2252  3.0344 -1.9768
   87SOPE    C2 8133   0.471   1.586   3.004 -0.5075 -0.2508  0.4186
   87SOPE    HS 8134   0.547   1.624   3.076  1.8688 -0.6823 -1.7200
   87SOPE   O21 8135   0.425   1.452   3.032 -0.4169  0.5624  0.5391
   87SOPE   C21 8136   0.525   1.379   3.090 -0.0516  0.5659 -0.8024
   87SOPE   O22 8137   0.636   1.416   3.111 -0.1762 -0.2668  0.2234
   87SOPE   C22 8138   0.476   1.236   3.110 -0.1643 -0.0335  0.0626
   87SOPE   H2R 8139   0.489   1.184   3.013  1.2199  2.0956 -0.9579
   87SOPE   H2S 8140   0.371   1.233   3.147 -0.7069  3.2915 -0.8870
   87SOPE    C3 8141   0.348   1.673   3.026  0.1763 -0.5843 -0.1234
   87SOPE    HX 8142   0.267   1.648   2.954  1.9808  0.5987 -2.7585
   87SOPE    HY 8143   0.372   1.777   2.996 -0.8477 -0.3978 -0.3169
   87SOPE   O31 8144   0.312   1.689   3.170 -0.1622  0.1063 -0.4656
   87SOPE   C31 8145   0.219   1.593   3.196 -0.3711  0.0604  0.1892
   87SOPE   O32 8146   0.157   1.525   3.121  0.0080 -0.2738 -0.2842
   87SOPE   C32 8147   0.205   1.578   3.346 -0.2295 -0.3007 -0.5913
   87SOPE   H2X 8148   0.197   1.673   3.404  0.8104 -1.1409  1.0012
   87SOPE   H2Y 8149   0.298   1.530   3.383 -0.0201  0.7788  0.3688
   87SOPE   C23 8150   0.565   1.167   3.218 -0.1481  0.1543 -0.5194
   87SOPE   H3R 8151   0.674   1.166   3.197 -0.3246  0.0513 -1.5033
   87SOPE   H3S 8152   0.532   1.061   3.214  3.5717 -1.1621  0.5691
   87SOPE   C24 8153   0.545   1.237   3.350  0.0723 -0.7505 -0.6432
   87SOPE   H4R 8154   0.604   1.331   3.344  0.1867 -0.6471  1.3267
   87SOPE   H4S 8155   0.437   1.259   3.363 -0.0005 -0.7276 -1.2848
   87SOPE   C25 8156   0.580   1.159   3.471 -0.2729  0.5017 -0.8525
   87SOPE   H5R 8157   0.504   1.078   3.474 -0.2869  0.5381 -0.2805
   87SOPE   H5S 8158   0.680   1.112   3.457 -0.3215  0.2777 -0.4430
   87SOPE   C26 8159   0.585   1.222   3.612 -0.1078  0.1992 -0.1364
   87SOPE   H6R 8160   0.597   1.130   3.674 -2.2616 -0.7600 -1.0355
   87SOPE   H6S 8161   0.672   1.291   3.619  0.1245  0.1046 -1.7432
   87SOPE   C27 8162   0.460   1.306   3.664 -0.4645 -0.5393  0.1483
   87SOPE   H7R 8163   0.458   1.395   3.597  0.0703 -0.3490  0.3773
   87SOPE   H7S 8164   0.375   1.239   3.640  0.3437 -1.3575 -0.5085
   87SOPE   C28 8165   0.481   1.367   3.800  0.1246  0.7122 -0.3536
   87SOPE   H8R 8166   0.582   1.414   3.803 -0.2337  1.5322 -0.6510
   87SOPE   H8S 8167   0.404   1.443   3.828 -1.7446 -1.3656  0.4789
   87SOPE   C29 8168   0.468   1.259   3.900 -1.1530  0.0881  0.3542
   87SOPE   H91 8169   0.361   1.233   3.908 -0.9146 -0.7095  1.0926
   87SOPE  C210 8170   0.558   1.203   3.977 -0.2323  0.4942 -0.5486
   87SOPE  H101 8171   0.530   1.125   4.049  1.5374  0.0411 -0.3003
   87SOPE  C211 8172   0.697   1.238   4.010 -0.2023 -0.1606 -0.5457
   87SOPE  H11R 8173   0.736   1.311   3.936  1.1292  0.5833  0.8246
   87SOPE  H11S 8174   0.774   1.157   4.018 -1.7630 -1.6075  0.5796
   87SOPE  C212 8175   0.714   1.297   4.157 -0.3470  0.1439 -0.4307
   87SOPE  H12R 8176   0.669   1.220   4.223 -1.7347  0.9436 -0.3986
   87SOPE  H12S 8177   0.651   1.388   4.155  1.2089  1.2873 -2.7224
   87SOPE  C213 8178   0.858   1.340   4.188  0.4959  0.5284  0.1946
   87SOPE  H13R 8179   0.916   1.246   4.174 -1.3711 -0.8382  1.1395
   87SOPE  H13S 8180   0.854   1.369   4.295  0.1532  1.5078 -0.0699
   87SOPE  C214 8181   0.903   1.458   4.101  0.2494  0.0039  0.5053
   87SOPE  H14R 8182   0.830   1.542   4.100 -0.7092 -0.7496  2.1946
   87SOPE  H14S 8183   0.927   1.419   4.000 -0.9200  0.6698 -0.0539
   87SOPE  C215 8184   1.029   1.522   4.155  0.3228 -0.5549 -0.0979
   87SOPE  H15R 8185   1.076   1.587   4.079 -0.0187 -1.3168 -0.9837
   87SOPE  H15S 8186   1.099   1.442   4.188 -0.1676 -1.4529 -1.1671
   87SOPE  C216 8187   1.013   1.619   4.277  0.2074 -0.0649 -0.4107
   87SOPE  H16R 8188   0.944   1.585   4.358 -0.2674  0.5020 -0.5719
   87SOPE  H16S 8189   0.953   1.705   4.242  1.7442  0.9718 -0.5800
   87SOPE  C217 8190   1.145   1.678   4.327  0.3594 -0.1184  0.9490
   87SOPE  H17R 8191   1.174   1.729   4.233  0.0433 -1.8732 -0.1638
   87SOPE  H17S 8192   1.221   1.607   4.365  0.6974  1.0864  2.6454
   87SOPE  C218 8193   1.121   1.772   4.443  0.4945  0.0644  0.7917
   87SOPE  H18R 8194   1.058   1.855   4.403  0.3996 -1.1176 -1.6998
   87SOPE  H18S 8195   1.225   1.790   4.478  0.8450 -1.6360  0.7082
   87SOPE  H18T 8196   1.058   1.720   4.518 -1.3458  1.8739  0.5821
   87SOPE   C33 8197   0.090   1.491   3.391 -0.5015 -0.2067  0.4681
   87SOPE   H3X 8198   0.073   1.402   3.326 -0.5859  0.1423  0.0095
   87SOPE   H3Y 8199  -0.001   1.553   3.383 -1.3579 -1.3650  0.8528
   87SOPE   C34 8200   0.117   1.433   3.525  0.1313  0.0590 -0.3173
   87SOPE   H4X 8201   0.207   1.368   3.529  0.8363  0.9748 -0.9460
   87SOPE   H4Y 8202   0.028   1.374   3.557 -2.0725  3.1256 -0.3656
   87SOPE   C35 8203   0.135   1.547   3.625 -0.2511  0.1783 -0.3262
   87SOPE   H5X 8204   0.044   1.610   3.614 -2.0667 -2.0831  0.6900
   87SOPE   H5Y 8205   0.224   1.607   3.599  0.5803 -1.0547 -0.4172
   87SOPE   C36 8206   0.134   1.504   3.770 -0.2596  0.2564 -0.0943
   87SOPE   H6X 8207   0.207   1.420   3.779  0.6812  1.0805  0.0916
   87SOPE   H6Y 8208   0.038   1.453   3.795 -0.1665 -0.4813 -1.1694
   87SOPE   C37 8209   0.172   1.616   3.864 -0.2460 -0.1588 -0.2417
   87SOPE   H7X 8210   0.127   1.706   3.817 -0.7793 -0.8494 -1.0704
   87SOPE   H7Y 8211   0.283   1.627   3.869  0.2977 -3.8538 -1.0634
   87SOPE   C38 8212   0.113   1.608   3.998  0.2677 -0.1086 -0.2787
   87SOPE   H8X 8213   0.002   1.613   3.993  0.2737  0.3939  0.0011
   87SOPE   H8Y 8214   0.130   1.691   4.070  0.1922 -1.0688  0.8701
   87SOPE   C39 8215   0.166   1.483   4.073 -0.0022 -0.0493  0.2266
   87SOPE   H9X 8216   0.277   1.480   4.068  0.1156  2.4815 -0.1849
   87SOPE   H9Y 8217   0.133   1.392   4.020 -1.5862  0.5321  0.1654
   87SOPE  C310 8218   0.119   1.469   4.218  0.0541 -0.6740 -0.4147
   87SOPE  H10X 8219   0.011   1.490   4.199  0.3206  0.0824 -1.1383
   87SOPE  H10Y 8220   0.163   1.556   4.271  1.1148 -1.3329 -0.1897
   87SOPE  C311 8221   0.146   1.339   4.298  0.0880  0.7557 -0.6202
   87SOPE  H11X 8222   0.095   1.253   4.250  0.7900  1.5042 -2.8523
   87SOPE  H11Y 8223   0.099   1.347   4.398 -0.1231  2.3604 -0.8095
   87SOPE  C312 8224   0.289   1.303   4.332  0.2646  0.8784 -0.4304
   87SOPE  H12X 8225   0.332   1.400   4.365  0.4414  0.8690 -0.6340
   87SOPE  H12Y 8226   0.357   1.282   4.247 -0.0509 -0.9044 -0.2874
   87SOPE  C313 8227   0.297   1.194   4.443  0.4707  0.8473 -0.4155
   87SOPE  H13X 8228   0.219   1.116   4.430  1.6232 -0.5318  0.5755
   87SOPE  H13Y 8229   0.271   1.236   4.542  1.2119  2.1024 -0.7179
   87SOPE  C314 8230   0.436   1.126   4.442  0.1022 -0.5385 -0.7239
   87SOPE  H14X 8231   0.451   1.103   4.335  1.0375  3.5797 -1.6441
   87SOPE  H14Y 8232   0.424   1.041   4.513 -1.4558  1.5644  1.7401
   87SOPE  C315 8233   0.557   1.213   4.495  1.1185  0.2116  0.1329
   87SOPE  H15X 8234   0.564   1.301   4.428 -0.0020 -0.2032 -0.5511
   87SOPE  H15Y 8235   0.654   1.159   4.489  0.3739 -1.6970  3.0838
   87SOPE  C316 8236   0.525   1.264   4.636 -0.4455  0.6147 -0.7639
   87SOPE  H16X 8237   0.484   1.179   4.695  0.7072  0.6361  0.1109
   87SOPE  H16Y 8238   0.442   1.338   4.631  0.3115  1.5593  0.2282
   87SOPE  C317 8239   0.643   1.332   4.704 -0.1411 -0.3259  0.0875
   87SOPE  H17X 8240   0.722   1.255   4.718 -1.3162 -1.3634  1.2674
   87SOPE  H17Y 8241   0.620   1.367   4.807 -5.2887 -1.9186 -0.2247
   87SOPE  C318 8242   0.697   1.449   4.614 -1.0542 -0.6992  0.0870
   87SOPE  H18X 8243   0.773   1.513   4.665 -0.9410  0.4035 -1.4088
   87SOPE  H18Y 8244   0.614   1.509   4.571 -1.1411 -1.1794 -0.4309
   87SOPE  H18Z 8245   0.752   1.405   4.528  1.1736 -2.2186  2.1640
   88SOPE     N 8246   3.701   0.710   2.212  0.1742  0.7555  0.6446
   88SOPE   HN1 8247   3.740   0.728   2.118  1.0754  1.9463  1.2148
   88SOPE   HN2 8248   3.775   0.707   2.285  0.5568 -0.2681  0.2221
   88SOPE   HN3 8249   3.657   0.616   2.221 -0.3132  0.8870 -0.2836
   88SOPE   C12 8250   3.601   0.810   2.261  0.2463  0.3499 -0.9680
   88SOPE  H12A 8251   3.509   0.810   2.198 -0.1093 -2.8348 -0.6393
   88SOPE  H12B 8252   3.648   0.910   2.257  0.4997  0.4941  2.7446
   88SOPE   C11 8253   3.573   0.783   2.414 -0.4682 -0.3888  0.6894
   88SOPE  H11A 8254   3.514   0.864   2.461  0.9224 -0.3834  2.5124
   88SOPE  H11B 8255   3.673   0.791   2.462 -0.2446 -3.2048  0.8817
   88SOPE     P 8256   3.360   0.649   2.448 -0.2232  0.4874 -0.1321
   88SOPE   O13 8257   3.320   0.512   2.483  0.0026  0.6042  0.1146
   88SOPE   O14 8258   3.310   0.703   2.322  0.1454  0.3146  0.2007
   88SOPE   O12 8259   3.519   0.654   2.441  0.4575 -0.7483  0.6266
   88SOPE   O11 8260   3.311   0.744   2.563  0.1275  1.2673 -0.3565
   88SOPE    C1 8261   3.359   0.764   2.690  0.2641  0.2993  0.0010
   88SOPE    HA 8262   3.398   0.868   2.694 -0.2957  0.5545 -0.9339
   88SOPE    HB 8263   3.443   0.696   2.716  1.0627  0.8806 -0.9554
   88SOPE    C2 8264   3.238   0.751   2.786  0.1481  0.5868  0.1707
   88SOPE    HS 8265   3.169   0.835   2.762  1.4450  0.8183 -3.2431
   88SOPE   O21 8266   3.284   0.757   2.928  0.4603 -0.4844 -0.3808
   88SOPE   C21 8267   3.303   0.877   2.976  0.3850 -0.4121  0.1665
   88SOPE   O22 8268   3.261   0.980   2.924 -0.8244  0.0237 -0.3350
   88SOPE   C22 8269   3.363   0.873   3.113  0.4355 -0.0999 -0.1092
   88SOPE   H2R 8270   3.390   0.766   3.127  1.8128  0.0960 -1.0385
   88SOPE   H2S 8271   3.286   0.909   3.184  0.3703  1.3851 -0.8937
   88SOPE    C3 8272   3.158   0.614   2.768  0.3435  0.5789  0.1309
   88SOPE    HX 8273   3.203   0.535   2.832  0.2103  1.8480  1.8890
   88SOPE    HY 8274   3.174   0.580   2.664  0.4895  0.5037  0.1781
   88SOPE   O31 8275   3.023   0.646   2.799 -0.1856  0.7554  0.3083
   88SOPE   C31 8276   2.956   0.537   2.841 -0.0688 -0.0378  0.2300
   88SOPE   O32 8277   2.992   0.423   2.837  0.3085 -0.5045  0.1161
   88SOPE   C32 8278   2.838   0.600   2.913 -0.9646  0.9698  0.4515
   88SOPE   H2X 8279   2.750   0.543   2.877  0.3207  0.4184 -2.0447
   88SOPE   H2Y 8280   2.827   0.707   2.887 -2.5960  0.9543  0.9669
   88SOPE   C23 8281   3.492   0.955   3.114  0.3721  0.3387  0.4369
   88SOPE   H3R 8282   3.476   1.064   3.103  0.1396  0.3031  0.4282
   88SOPE   H3S 8283   3.553   0.925   3.026 -0.3697  1.6311 -0.5416
   88SOPE   C24 8284   3.575   0.920   3.235 -0.1300 -0.0102 -0.8913
   88SOPE   H4R 8285   3.659   0.993   3.227 -0.9102  0.7613 -2.7458
   88SOPE   H4S 8286   3.533   0.930   3.337 -0.6469 -0.9908 -1.0012
   88SOPE   C25 8287   3.642   0.781   3.237 -0.0646  0.1764  0.7910
   88SOPE   H5R 8288   3.571   0.697   3.250  1.0876 -1.2613 -1.6089
   88SOPE   H5S 8289   3.683   0.761   3.136 -1.2309  1.2203  0.0868
   88SOPE   C26 8290   3.738   0.746   3.349 -0.5058  0.6760  0.6640
   88SOPE   H6R 8291   3.772   0.641   3.335 -0.2937  0.9681 -1.3209
   88SOPE   H6S 8292   3.827   0.813   3.349 -0.9764  1.3207 -0.7854
   88SOPE   C27 8293   3.677   0.746   3.491  0.4190 -0.1674 -0.5797
   88SOPE   H7R 8294   3.621   0.842   3.503  0.7882  0.2318 -1.8726
   88SOPE   H7S 8295   3.592   0.675   3.489 -0.6519  1.0653 -0.3949
   88SOPE   C28 8296   3.780   0.715   3.601  0.0970  0.3998 -0.0387
   88SOPE   H8R 8297   3.874   0.774   3.591 -0.3974  1.3463  0.7718
   88SOPE   H8S 8298   3.731   0.741   3.697 -0.1931  1.2706 -0.4081
   88SOPE   C29 8299   3.806   0.567   3.606  0.2072  0.6269 -0.2820
   88SOPE   H91 8300   3.715   0.505   3.601  0.1244  0.8394 -2.7519
   88SOPE  C210 8301   3.924   0.506   3.611 -0.2885  0.0589  0.0606
   88SOPE  H101 8302   3.936   0.397   3.602  1.7841  0.3243 -0.7764
   88SOPE  C211 8303   4.060   0.579   3.600 -0.4329  0.1579  0.1933
   88SOPE  H11R 8304   4.062   0.688   3.624 -1.5829  0.2358  0.0191
   88SOPE  H11S 8305   4.103   0.547   3.503 -0.9748 -0.6416  0.2074
   88SOPE  C212 8306   4.152   0.513   3.705  0.8296 -0.1513 -0.0683
   88SOPE  H12R 8307   4.249   0.559   3.673  0.6963  0.8676  0.9434
   88SOPE  H12S 8308   4.151   0.402   3.695  0.0650 -0.0709 -1.0100
   88SOPE  C213 8309   4.117   0.560   3.854 -0.6908  0.5548 -0.0356
   88SOPE  H13R 8310   4.027   0.505   3.891  0.2438  0.3357  2.0146
   88SOPE  H13S 8311   4.096   0.667   3.833 -2.1014  0.2555 -0.2534
   88SOPE  C214 8312   4.237   0.533   3.942  0.0197 -0.0765 -0.7893
   88SOPE  H14R 8313   4.315   0.611   3.929  1.1368 -0.7951  1.1980
   88SOPE  H14S 8314   4.298   0.445   3.913  1.5949  0.7162  0.0103
   88SOPE  C215 8315   4.204   0.526   4.088 -0.0991  0.6443 -0.1244
   88SOPE  H15R 8316   4.123   0.598   4.113 -1.5889 -1.5897  2.0592
   88SOPE  H15S 8317   4.295   0.553   4.145 -1.1657  1.0182  1.4934
   88SOPE  C216 8318   4.151   0.390   4.116  0.5466  0.3230 -0.6139
   88SOPE  H16R 8319   4.191   0.315   4.045  1.2892 -0.1452  0.2762
   88SOPE  H16S 8320   4.040   0.388   4.107  0.4680 -0.7002  0.5050
   88SOPE  C217 8321   4.183   0.339   4.266  0.2889  0.9911 -0.0167
   88SOPE  H17R 8322   4.129   0.411   4.331  1.0008  2.7001 -1.2365
   88SOPE  H17S 8323   4.291   0.354   4.284  1.0137 -0.7454 -2.3280
   88SOPE  C218 8324   4.158   0.194   4.289 -0.0539  0.3582 -0.1460
   88SOPE  H18R 8325   4.202   0.169   4.388 -1.4024  0.1995  0.4419
   88SOPE  H18S 8326   4.201   0.130   4.209 -0.2492  0.7180 -0.5452
   88SOPE  H18T 8327   4.049   0.172   4.294  0.0413 -1.0284 -2.6750
   88SOPE   C33 8328   2.852   0.577   3.064  0.4319 -0.0857 -0.5963
   88SOPE   H3X 8329   2.862   0.468   3.079  2.1089  0.0311 -0.7007
   88SOPE   H3Y 8330   2.754   0.602   3.111 -0.2810 -1.0336 -1.5342
   88SOPE   C34 8331   2.988   0.637   3.118  0.7253 -0.5081 -0.0886
   88SOPE   H4X 8332   2.969   0.745   3.101 -0.1990 -0.5048  0.8750
   88SOPE   H4Y 8333   3.078   0.604   3.062  0.4472  0.5059 -1.1748
   88SOPE   C35 8334   3.015   0.596   3.261  0.1214 -0.0845 -0.1851
   88SOPE   H5X 8335   3.011   0.485   3.271 -1.5062  0.0223  0.7155
   88SOPE   H5Y 8336   2.932   0.623   3.330  0.3997 -0.7635  0.4265
   88SOPE   C36 8337   3.141   0.664   3.325  0.6909  1.1819  0.2191
   88SOPE   H6X 8338   3.215   0.676   3.243  0.5032  0.2160 -0.1045
   88SOPE   H6Y 8339   3.173   0.586   3.397  1.0286  0.5628 -0.5819
   88SOPE   C37 8340   3.116   0.793   3.411  0.2632  0.0443 -0.0066
   88SOPE   H7X 8341   3.038   0.772   3.487  0.1173  1.5428  0.3022
   88SOPE   H7Y 8342   3.072   0.878   3.355  2.7178  2.3479  1.3192
   88SOPE   C38 8343   3.238   0.839   3.489  0.3938  0.3301  0.6395
   88SOPE   H8X 8344   3.200   0.923   3.552  2.6730  1.2401  0.9178
   88SOPE   H8Y 8345   3.317   0.887   3.428 -1.8224  0.9443 -1.8880
   88SOPE   C39 8346   3.296   0.726   3.575 -0.0799  0.3503  0.2286
   88SOPE   H9X 8347   3.369   0.667   3.515 -1.3448 -1.3347  0.2643
   88SOPE   H9Y 8348   3.212   0.663   3.611  1.5961 -3.1330 -1.4463
   88SOPE  C310 8349   3.363   0.790   3.699 -0.1167 -0.4073  0.7461
   88SOPE  H10X 8350   3.299   0.869   3.745 -1.2473 -1.3236  0.7795
   88SOPE  H10Y 8351   3.450   0.843   3.654 -1.3615  1.3008  0.2606
   88SOPE  C311 8352   3.409   0.688   3.799  0.0832  0.4632 -0.7608
   88SOPE  H11X 8353   3.463   0.603   3.751  1.8749  0.4306  1.2044
   88SOPE  H11Y 8354   3.334   0.632   3.859  0.9023  1.0193  0.8398
   88SOPE  C312 8355   3.510   0.750   3.906  0.6937 -0.1380 -0.2384
   88SOPE  H12X 8356   3.461   0.841   3.948  1.1650 -0.0605  0.1513
   88SOPE  H12Y 8357   3.599   0.785   3.850  2.2121 -2.8150  0.3311
   88SOPE  C313 8358   3.550   0.647   4.014  0.5479  0.9775  0.6817
   88SOPE  H13X 8359   3.594   0.564   3.955 -0.8454  1.0757 -0.5421
   88SOPE  H13Y 8360   3.464   0.599   4.065 -0.2642  0.8238 -0.7972
   88SOPE  C314 8361   3.645   0.694   4.121  0.1698 -0.1798  0.0394
   88SOPE  H14X 8362   3.613   0.785   4.176 -2.8676 -1.3789  0.4254
   88SOPE  H14Y 8363   3.740   0.725   4.071  0.0906 -1.3165 -0.8648
   88SOPE  C315 8364   3.701   0.590   4.217 -0.8780 -0.2749  0.6691
   88SOPE  H15X 8365   3.758   0.520   4.151 -0.2409 -1.2092  2.1625
   88SOPE  H15Y 8366   3.626   0.529   4.273 -0.4189  0.8631  2.6014
   88SOPE  C316 8367   3.796   0.650   4.318 -0.0989 -1.2344 -0.8536
   88SOPE  H16X 8368   3.758   0.732   4.382  1.9311 -0.5766 -0.3961
   88SOPE  H16Y 8369   3.890   0.687   4.271 -0.6867  0.8098 -0.5326
   88SOPE  C317 8370   3.837   0.544   4.428  0.6111  0.2557  0.6705
   88SOPE  H17X 8371   3.877   0.461   4.365 -0.5426  1.5707 -1.9739
   88SOPE  H17Y 8372   3.750   0.496   4.477 -0.3163 -1.1294 -2.0909
   88SOPE  C318 8373   3.923   0.595   4.542 -0.1709 -0.3035 -0.0535
   88SOPE  H18X 8374   3.874   0.661   4.617 -1.5953 -0.7012 -0.6018
   88SOPE  H18Y 8375   4.006   0.652   4.496  1.1152 -1.0840  1.2286
   88SOPE  H18Z 8376   3.960   0.506   4.598 -1.1047 -2.1262 -2.1438
   89SAPC     N 8377   0.595   4.715   7.099 -0.1600  0.1718 -0.2188
   89SAPC   C12 8378   0.532   4.707   6.962 -0.0177  1.1863 -0.6602
   89SAPC  H12A 8379   0.507   4.602   6.953 -0.6929  1.1652  0.9733
   89SAPC  H12B 8380   0.602   4.726   6.882  1.6236 -2.2216 -0.1934
   89SAPC   C13 8381   0.726   4.631   7.105  0.8491  0.0737  0.5171
   89SAPC  H13A 8382   0.697   4.527   7.103  1.6985 -0.2118  1.8984
   89SAPC  H13B 8383   0.793   4.663   7.026 -0.7291  2.5722  0.0864
   89SAPC  H13C 8384   0.774   4.657   7.198  0.1517 -0.4793  1.0396
   89SAPC   C14 8385   0.618   4.851   7.144  0.1263 -0.4162  0.4991
   89SAPC  H14A 8386   0.674   4.913   7.076 -1.5960  2.6427  1.6539
   89SAPC  H14B 8387   0.526   4.907   7.144  0.5651  0.3576 -1.1179
   89SAPC  H14C 8388   0.665   4.857   7.242 -0.1766  2.5012  0.5409
   89SAPC   C15 8389   0.511   4.652   7.203  0.8768  0.7266  0.1480
   89SAPC  H15A 8390   0.559   4.657   7.299  0.3972 -2.2680  0.6584
   89SAPC  H15B 8391   0.407   4.683   7.210  0.3698 -0.7319 -0.4396
   89SAPC  H15C 8392   0.499   4.546   7.185 -1.0062  1.2739 -2.5123
   89SAPC   C11 8393   0.396   4.782   6.931 -0.1480 -0.1050 -0.0446
   89SAPC  H11A 8394   0.383   4.799   6.822  0.1403 -0.6460 -0.1676
   89SAPC  H11B 8395   0.406   4.888   6.962  3.0471 -0.3197  0.0421
   89SAPC     P 8396   0.222   4.582   6.929 -0.3053 -0.1436 -0.1802
   89SAPC   O13 8397   0.325   4.478   6.944  0.1981  0.3819 -0.2455
   89SAPC   O14 8398   0.093   4.547   6.992 -0.1534  0.3024 -0.4701
   89SAPC   O12 8399   0.279   4.718   6.988 -0.0507  0.0895  0.1582
   89SAPC   O11 8400   0.199   4.618   6.777  0.1542 -0.2842 -0.8522
   89SAPC    C1 8401   0.098   4.705   6.720  0.5325 -0.2291 -0.0471
   89SAPC    HA 8402   0.061   4.770   6.802 -1.5437 -2.9036  1.3099
   89SAPC    HB 8403   0.143   4.773   6.645 -0.5257  1.4376  0.7621
   89SAPC    C2 8404  -0.033   4.637   6.672  0.1530 -0.2583  0.8950
   89SAPC    HS 8405  -0.086   4.590   6.757 -0.1083  1.4657  1.7218
   89SAPC   O21 8406   0.006   4.549   6.564 -0.3175  0.0858 -1.6177
   89SAPC   C21 8407   0.010   4.419   6.600  0.0206 -0.6418  0.0104
   89SAPC   O22 8408   0.007   4.373   6.709 -0.7825  0.3502 -0.5072
   89SAPC   C22 8409   0.008   4.336   6.469 -0.5187  0.1116 -0.5812
   89SAPC   H2R 8410  -0.009   4.230   6.497  3.2445 -0.0723  1.7363
   89SAPC   H2S 8411  -0.076   4.385   6.414  0.3615 -0.0121 -2.0807
   89SAPC    C3 8412  -0.145   4.736   6.616  0.1681  0.2977  0.2488
   89SAPC    HX 8413  -0.172   4.807   6.697  1.1298  0.0908  0.7663
   89SAPC    HY 8414  -0.229   4.673   6.580 -1.4535  2.6207 -0.2130
   89SAPC   O31 8415  -0.088   4.810   6.501  0.7909  0.3307  0.0721
   89SAPC   C31 8416  -0.177   4.867   6.422  0.4980 -0.5123 -0.3188
   89SAPC   O32 8417  -0.298   4.861   6.434  0.1433 -0.5758 -0.3391
   89SAPC   C32 8418  -0.101   4.946   6.312  0.4410  0.1103  0.4440
   89SAPC   H2X 8419  -0.034   4.875   6.258  0.0847  0.1543 -0.0528
   89SAPC   H2Y 8420  -0.044   5.025   6.365 -1.1731  0.4713  1.7302
   89SAPC   C23 8421   0.144   4.356   6.402  0.1823 -0.9672  0.7965
   89SAPC   H3R 8422   0.225   4.332   6.474  1.2393  0.8255  0.2456
   89SAPC   H3S 8423   0.156   4.463   6.378 -0.4431 -0.7010  1.6067
   89SAPC   C24 8424   0.168   4.275   6.272 -0.1315  0.4712 -0.4799
   89SAPC   H4R 8425   0.132   4.172   6.294  0.2260  0.0412 -1.7880
   89SAPC   H4S 8426   0.276   4.269   6.249 -0.0266 -0.1720  0.1526
   89SAPC   C25 8427   0.085   4.327   6.159 -0.7964 -0.4055  0.3437
   89SAPC   H5R 8428   0.000   4.392   6.186 -1.9459 -1.8314  0.2715
   89SAPC   C26 8429   0.114   4.307   6.028 -0.0127 -0.5130 -0.7055
   89SAPC   H6R 8430   0.039   4.349   5.959 -0.7634  0.0278  0.4031
   89SAPC   C27 8431   0.225   4.213   5.974 -0.3244  0.5923  0.3613
   89SAPC   H7R 8432   0.306   4.177   6.040  0.3922  1.3179 -0.1034
   89SAPC   H7S 8433   0.269   4.246   5.877  0.4939  1.0622  0.8802
   89SAPC   C28 8434   0.160   4.078   5.949 -0.2224  0.2565  0.1487
   89SAPC   H8R 8435   0.130   4.023   6.040 -3.1686  0.9247 -0.3372
   89SAPC   C29 8436   0.118   4.029   5.825 -0.1844  0.0890  0.4544
   89SAPC   H9R 8437   0.052   3.941   5.823  0.4341 -0.3983  0.8902
   89SAPC  C210 8438   0.136   4.103   5.696  0.9784 -0.4759  0.9035
   89SAPC  H10R 8439   0.232   4.158   5.685  0.3602  0.4073 -0.4548
   89SAPC  H10S 8440   0.055   4.178   5.710  1.2970  0.4328 -1.5231
   89SAPC  C211 8441   0.088   4.030   5.569  0.5648 -0.0587 -0.6559
   89SAPC  H11R 8442  -0.015   3.991   5.578  1.5067 -2.4416  0.5741
   89SAPC  C212 8443   0.163   3.987   5.461 -0.3311 -0.1643  0.5588
   89SAPC  H12R 8444   0.123   3.925   5.380  2.9802 -0.8096 -0.7465
   89SAPC  C213 8445   0.311   4.016   5.442  0.6025 -0.9864  0.6518
   89SAPC  H13R 8446   0.368   3.958   5.518 -0.3449  0.4251  2.5237
   89SAPC  H13S 8447   0.326   4.121   5.474 -1.4644 -0.6086  0.4974
   89SAPC  C214 8448   0.384   4.015   5.300 -0.1987  0.8868 -0.8161
   89SAPC  H14R 8449   0.415   4.112   5.258  0.3197  1.1128  0.0555
   89SAPC  C215 8450   0.401   3.902   5.233 -0.0833  0.2184  0.1624
   89SAPC  H15R 8451   0.440   3.900   5.130  0.7196 -2.2295  0.4530
   89SAPC  C216 8452   0.365   3.758   5.280 -0.0605 -0.0700 -0.1500
   89SAPC  H16R 8453   0.295   3.746   5.365 -1.9010 -0.2053 -1.6283
   89SAPC  H16S 8454   0.460   3.707   5.307  0.8678  1.4261 -0.4794
   89SAPC  C217 8455   0.314   3.672   5.166  0.1732 -0.2446 -0.3401
   89SAPC  H17R 8456   0.305   3.565   5.196 -0.6110 -0.6618 -1.9322
   89SAPC  H17S 8457   0.380   3.676   5.077  0.1116 -0.8915 -0.4242
   89SAPC  C218 8458   0.167   3.706   5.117 -0.1908 -0.1980 -0.8077
   89SAPC  H18R 8459   0.152   3.815   5.128 -2.0854 -0.4264 -0.9336
   89SAPC  H18S 8460   0.105   3.653   5.193  1.2905 -0.6951  0.1199
   89SAPC  C219 8461   0.131   3.660   4.974  0.2626 -0.1343 -0.1982
   89SAPC  H19R 8462   0.200   3.720   4.912  1.6276 -0.0549  1.3362
   89SAPC  H19S 8463   0.026   3.696   4.967 -0.4645 -0.1570  5.6170
   89SAPC  C220 8464   0.135   3.503   4.951  0.2279  1.1126 -0.1288
   89SAPC  H20R 8465   0.238   3.463   4.948  0.4194  1.6453 -0.8881
   89SAPC  H20S 8466   0.087   3.493   4.852 -0.7941 -0.6155  0.4895
   89SAPC  H20T 8467   0.076   3.452   5.031  1.9582 -0.1156  0.4249
   89SAPC   C33 8468  -0.198   5.027   6.220 -0.1385  0.3248  0.0167
   89SAPC   H3X 8469  -0.155   5.125   6.193  1.8240 -0.6347 -0.5357
   89SAPC   H3Y 8470  -0.285   5.065   6.277 -0.1261 -0.0125  0.2667
   89SAPC   C34 8471  -0.248   4.971   6.082 -0.1500  0.6239 -0.2502
   89SAPC   H4X 8472  -0.274   5.056   6.016  1.1361  0.5606 -0.8676
   89SAPC   H4Y 8473  -0.340   4.910   6.098 -1.5465  3.2688  2.9422
   89SAPC   C35 8474  -0.158   4.884   5.999  0.1381  0.2465 -0.0880
   89SAPC   H5X 8475  -0.133   4.786   6.044 -1.1718 -0.1934 -0.2679
   89SAPC   H5Y 8476  -0.055   4.927   5.997  0.1981  0.0934 -1.8476
   89SAPC   C36 8477  -0.221   4.845   5.856 -0.6755 -0.4419 -0.4022
   89SAPC   H6X 8478  -0.300   4.768   5.871  0.4697 -1.2115  2.3313
   89SAPC   H6Y 8479  -0.136   4.807   5.797 -0.4616  1.1462 -1.1747
   89SAPC   C37 8480  -0.274   4.958   5.772 -0.4632  0.1640 -0.2614
   89SAPC   H7X 8481  -0.197   5.035   5.751 -0.8385  0.5588 -0.2221
   89SAPC   H7Y 8482  -0.347   5.017   5.832  1.6887  0.3077  2.4102
   89SAPC   C38 8483  -0.319   4.915   5.628 -0.1815 -0.2209 -0.6332
   89SAPC   H8X 8484  -0.399   4.841   5.648 -0.3386  0.4377  1.4752
   89SAPC   H8Y 8485  -0.234   4.859   5.583  0.1143 -0.6014  0.3676
   89SAPC   C39 8486  -0.373   5.030   5.553  0.1866 -0.5500  0.5651
   89SAPC   H9X 8487  -0.457   5.084   5.603 -1.4014 -0.8501 -1.6202
   89SAPC   H9Y 8488  -0.423   4.995   5.460  2.2402 -1.4128 -0.2637
   89SAPC  C310 8489  -0.262   5.130   5.502 -0.2681 -0.1204  0.1148
   89SAPC  H10X 8490  -0.167   5.075   5.491  1.3516  2.4592  0.2826
   89SAPC  H10Y 8491  -0.232   5.210   5.574  1.1561 -1.5568  1.1774
   89SAPC  C311 8492  -0.299   5.193   5.364  0.0971 -0.6385 -0.2637
   89SAPC  H11X 8493  -0.378   5.269   5.383  1.3247  0.3964  0.9578
   89SAPC  H11Y 8494  -0.336   5.120   5.290  1.3354 -0.5098 -1.0444
   89SAPC  C312 8495  -0.178   5.259   5.293  0.6250 -0.4118 -0.3287
   89SAPC  H12X 8496  -0.096   5.185   5.287 -0.9088 -2.1106 -1.4091
   89SAPC  H12Y 8497  -0.139   5.345   5.352  1.8521 -1.2663  0.1405
   89SAPC  C313 8498  -0.212   5.318   5.156  0.4099 -0.1700  0.3607
   89SAPC  H13X 8499  -0.284   5.402   5.152  3.1920  2.3842 -1.8402
   89SAPC  H13Y 8500  -0.252   5.235   5.094  1.0030 -0.3642  0.2229
   89SAPC  C314 8501  -0.083   5.371   5.085 -0.3341  0.2997  0.1542
   89SAPC  H14X 8502  -0.005   5.295   5.104  0.5641  1.5214  1.5368
   89SAPC  H14Y 8503  -0.054   5.465   5.136  0.9047 -0.0038  0.0313
   89SAPC  C315 8504  -0.101   5.402   4.933 -0.6451  1.1258 -0.3054
   89SAPC  H15X 8505  -0.177   5.481   4.914 -1.3660  0.4692 -0.1728
   89SAPC  H15Y 8506  -0.146   5.314   4.883  2.0528  0.1400 -1.1869
   89SAPC  C316 8507   0.031   5.450   4.873  0.1081 -0.3055  0.1179
   89SAPC  H16X 8508   0.116   5.385   4.903  1.4208  0.9101 -0.8526
   89SAPC  H16Y 8509   0.073   5.548   4.905 -2.9969  1.7160 -1.4820
   89SAPC  C317 8510   0.015   5.451   4.724  0.3758 -0.3726 -0.0484
   89SAPC  H17X 8511  -0.038   5.542   4.689 -0.0798 -1.2193 -1.6771
   89SAPC  H17Y 8512  -0.043   5.358   4.710 -0.9392  0.1408  1.6286
   89SAPC  C318 8513   0.146   5.448   4.647 -0.2087  0.6054  0.2681
   89SAPC  H18X 8514   0.134   5.423   4.539 -1.1783  1.7046  0.1041
   89SAPC  H18Y 8515   0.218   5.376   4.693 -0.5417 -0.4018 -0.7373
   89SAPC  H18Z 8516   0.193   5.548   4.654 -1.6937  1.2250  1.8548
   90SAPC     N 8517   5.615   3.062   7.004  0.3628  0.1566 -0.5613
   90SAPC   C12 8518   5.621   3.089   6.861 -0.3728  0.0844  0.1206
   90SAPC  H12A 8519   5.590   3.191   6.843 -2.0884 -0.4585 -0.1408
   90SAPC  H12B 8520   5.556   3.025   6.803 -0.5629  0.1567  0.2557
   90SAPC   C13 8521   5.471   3.078   7.055  0.7122 -0.6918 -0.3670
   90SAPC  H13A 8522   5.411   3.008   6.998 -0.0035 -0.3677 -0.0333
   90SAPC  H13B 8523   5.467   3.049   7.159  0.0392  2.1534  0.5018
   90SAPC  H13C 8524   5.417   3.172   7.049 -0.1165 -1.1700 -0.5654
   90SAPC   C14 8525   5.650   2.922   7.037 -0.0686 -0.4765 -0.9406
   90SAPC  H14A 8526   5.593   2.862   6.969  0.1680 -0.4628 -1.1526
   90SAPC  H14B 8527   5.754   2.913   7.007  0.4169  0.2412  0.3996
   90SAPC  H14C 8528   5.641   2.886   7.139  1.3618 -1.6457 -1.1839
   90SAPC   C15 8529   5.698   3.156   7.079 -0.1238  0.2877 -0.9918
   90SAPC  H15A 8530   5.798   3.157   7.037  0.3813 -0.8092  0.1162
   90SAPC  H15B 8531   5.678   3.262   7.084  2.1292  0.7347 -0.0368
   90SAPC  H15C 8532   5.712   3.123   7.181 -0.2578 -0.0541 -1.0825
   90SAPC   C11 8533   5.765   3.084   6.800 -0.4244 -0.0092  0.3955
   90SAPC  H11A 8534   5.760   3.081   6.689  3.1945 -2.2625  0.1218
   90SAPC  H11B 8535   5.816   2.992   6.836 -1.3776  0.0762  2.1171
   90SAPC     P 8536   5.858   3.335   6.796 -0.2426 -0.0013 -0.3328
   90SAPC   O13 8537   5.766   3.349   6.681  0.4069 -0.2787 -0.2247
   90SAPC   O14 8538   5.825   3.424   6.914  1.0360 -0.0787 -0.7763
   90SAPC   O12 8539   5.859   3.186   6.841  0.1488  0.1648  0.2533
   90SAPC   O11 8540   6.012   3.356   6.754 -0.5062 -0.0488 -0.2322
   90SAPC    C1 8541   6.074   3.261   6.675  0.4072  0.5471 -0.0178
   90SAPC    HA 8542   6.069   3.165   6.730 -1.7162  1.0793  0.8029
   90SAPC    HB 8543   6.030   3.240   6.575  2.4049 -0.4443 -0.7576
   90SAPC    C2 8544   6.222   3.308   6.665 -0.3384  0.1169  0.1328
   90SAPC    HS 8545   6.246   3.337   6.770  0.2054  0.9342 -0.2008
   90SAPC   O21 8546   6.226   3.425   6.572  0.3442  0.0032  0.1438
   90SAPC   C21 8547   6.343   3.490   6.575 -0.5962 -0.4271 -0.0477
   90SAPC   O22 8548   6.440   3.464   6.648  0.1398 -0.3030  0.2227
   90SAPC   C22 8549   6.336   3.605   6.475  0.0456  0.6031 -0.2395
   90SAPC   H2R 8550   6.228   3.630   6.471 -0.5423 -1.7462 -0.9332
   90SAPC   H2S 8551   6.393   3.692   6.513 -0.2133  0.0711  1.4354
   90SAPC    C3 8552   6.310   3.186   6.616  0.4153 -0.1279 -0.3916
   90SAPC    HX 8553   6.292   3.109   6.694  0.3438  0.0951 -0.1870
   90SAPC    HY 8554   6.417   3.216   6.623  0.1835  0.3866  1.5786
   90SAPC   O31 8555   6.259   3.142   6.491  0.3949  0.0764  0.0271
   90SAPC   C31 8556   6.310   3.186   6.377  0.7957 -0.2471 -1.0559
   90SAPC   O32 8557   6.414   3.242   6.372 -0.5337  0.2955 -0.1842
   90SAPC   C32 8558   6.211   3.149   6.261 -0.6932 -0.1345  0.0949
   90SAPC   H2X 8559   6.120   3.206   6.285  0.1727  0.9783  0.8182
   90SAPC   H2Y 8560   6.193   3.039   6.271 -0.3499 -0.0878  1.3684
   90SAPC   C23 8561   6.390   3.572   6.331  0.0942  0.0867 -0.1054
   90SAPC   H3R 8562   6.344   3.474   6.308  1.8685 -1.1261  1.2323
   90SAPC   H3S 8563   6.500   3.562   6.328  0.0487 -0.6662  0.3981
   90SAPC   C24 8564   6.343   3.685   6.239  0.4301  0.1373  0.7228
   90SAPC   H4R 8565   6.381   3.780   6.281 -0.2906  0.7318  0.0690
   90SAPC   H4S 8566   6.233   3.697   6.243  0.1450 -2.2747  3.6309
   90SAPC   C25 8567   6.377   3.649   6.100  0.0325  0.0492  0.1797
   90SAPC   H5R 8568   6.392   3.542   6.079 -2.1747 -0.6415  1.6887
   90SAPC   C26 8569   6.412   3.734   6.000 -0.7738  0.1721 -0.2572
   90SAPC   H6R 8570   6.444   3.681   5.909  1.5030 -1.0149  1.1371
   90SAPC   C27 8571   6.419   3.879   6.019  0.4140  0.0964  0.1745
   90SAPC   H7R 8572   6.385   3.918   6.117  2.5259 -0.6964  1.2804
   90SAPC   H7S 8573   6.359   3.933   5.942  0.4438  1.5047  1.1050
   90SAPC   C28 8574   6.560   3.927   6.011 -0.0333  0.1922 -0.1308
   90SAPC   H8R 8575   6.604   3.908   6.110 -3.7284  0.9073  1.8192
   90SAPC   C29 8576   6.632   3.976   5.908  0.0066 -0.1297 -0.1890
   90SAPC   H9R 8577   6.739   3.995   5.928 -0.4677  1.0056  1.5117
   90SAPC  C210 8578   6.585   4.003   5.767  0.1589 -0.3189 -0.4032
   90SAPC  H10R 8579   6.474   3.999   5.772  0.1634 -1.6065 -1.1578
   90SAPC  H10S 8580   6.623   3.921   5.703 -0.2077  0.7424 -2.0443
   90SAPC  C211 8581   6.641   4.130   5.713 -0.0071 -0.1842 -0.3284
   90SAPC  H11R 8582   6.690   4.204   5.779  0.7738 -0.2609 -0.8082
   90SAPC  C212 8583   6.639   4.165   5.589 -0.3091 -0.3912  0.5964
   90SAPC  H12R 8584   6.690   4.259   5.562 -0.5552  0.4158  2.7269
   90SAPC  C213 8585   6.574   4.079   5.480  0.2267  0.2643  0.3169
   90SAPC  H13R 8586   6.478   4.035   5.517  1.0021 -0.8350  1.0902
   90SAPC  H13S 8587   6.639   3.990   5.468 -2.7076 -2.0548  0.4130
   90SAPC  C214 8588   6.551   4.136   5.342  0.7075  0.7662 -0.8978
   90SAPC  H14R 8589   6.457   4.194   5.345  0.2086 -0.0067 -1.3699
   90SAPC  C215 8590   6.610   4.119   5.227  0.6323 -0.5936 -0.8077
   90SAPC  H15R 8591   6.578   4.175   5.138 -1.6265  1.2028  1.0025
   90SAPC  C216 8592   6.737   4.038   5.209  0.1289  0.1157 -0.7447
   90SAPC  H16R 8593   6.777   3.990   5.300  1.0638  0.8520 -0.7562
   90SAPC  H16S 8594   6.823   4.095   5.169 -0.5289  1.7063  0.0176
   90SAPC  C217 8595   6.718   3.920   5.122  0.4790  0.2905  0.7587
   90SAPC  H17R 8596   6.816   3.870   5.111  1.4514  1.3032  3.8128
   90SAPC  H17S 8597   6.678   3.939   5.020  0.8000  0.5728  0.6861
   90SAPC  C218 8598   6.614   3.821   5.189  0.2637  0.9152 -0.2325
   90SAPC  H18R 8599   6.510   3.857   5.173 -0.2110 -1.5694 -4.2794
   90SAPC  H18S 8600   6.641   3.822   5.297 -2.8699  0.9541  0.6528
   90SAPC  C219 8601   6.611   3.678   5.140  0.7717  0.2978 -0.7669
   90SAPC  H19R 8602   6.527   3.612   5.167  0.6716  0.1850 -1.3409
   90SAPC  H19S 8603   6.697   3.618   5.178  1.0451 -0.6869 -2.8050
   90SAPC  C220 8604   6.609   3.667   4.987  0.3354 -0.0411  0.1555
   90SAPC  H20R 8605   6.677   3.745   4.945  0.2184  0.5416  1.0302
   90SAPC  H20S 8606   6.501   3.673   4.963  0.3610  0.7603  0.2041
   90SAPC  H20T 8607   6.633   3.565   4.949  0.9927 -0.1325  0.7887
   90SAPC   C33 8608   6.251   3.188   6.111  0.3084  0.1124 -0.1021
   90SAPC   H3X 8609   6.343   3.129   6.091 -0.6217 -0.8432 -1.7615
   90SAPC   H3Y 8610   6.266   3.298   6.114  1.0683  0.0048  0.6749
   90SAPC   C34 8611   6.143   3.148   6.005  0.4426 -0.4165  0.2346
   90SAPC   H4X 8612   6.040   3.182   6.031  0.3256 -1.3030  1.0094
   90SAPC   H4Y 8613   6.142   3.037   6.010 -1.4686 -0.4879 -0.6701
   90SAPC   C35 8614   6.169   3.205   5.862  0.5182 -1.3321 -0.1558
   90SAPC   H5X 8615   6.276   3.209   5.833 -0.1318 -1.0185 -2.8168
   90SAPC   H5Y 8616   6.135   3.310   5.867 -0.4135 -1.6732  1.9460
   90SAPC   C36 8617   6.088   3.121   5.763 -0.2678  0.9583  0.2649
   90SAPC   H6X 8618   5.980   3.122   5.790  0.2822  0.0599  2.7090
   90SAPC   H6Y 8619   6.118   3.015   5.777 -0.9631  0.9426  1.8025
   90SAPC   C37 8620   6.120   3.163   5.613  0.2221 -0.6310 -0.4506
   90SAPC   H7X 8621   6.229   3.170   5.590  0.4334  0.6632  0.8380
   90SAPC   H7Y 8622   6.082   3.266   5.624  0.3951 -0.5114 -0.9587
   90SAPC   C38 8623   6.041   3.081   5.506  0.1289  0.8840  0.1507
   90SAPC   H8X 8624   6.021   3.140   5.414  0.6520  1.4087  0.3609
   90SAPC   H8Y 8625   5.941   3.085   5.553 -1.2973  2.6088 -2.7734
   90SAPC   C39 8626   6.096   2.939   5.471  0.0502 -0.4954 -0.1134
   90SAPC   H9X 8627   6.100   2.879   5.565  1.2864 -0.0445  0.1468
   90SAPC   H9Y 8628   6.194   2.939   5.419  0.3831  1.5005  0.4331
   90SAPC  C310 8629   6.018   2.858   5.373 -0.1482 -0.6273 -0.2025
   90SAPC  H10X 8630   6.004   2.918   5.281  1.6965  2.3475  1.3125
   90SAPC  H10Y 8631   5.918   2.818   5.404  0.0745 -3.7573 -2.9165
   90SAPC  C311 8632   6.090   2.725   5.348  0.1550  0.4616  0.6691
   90SAPC  H11X 8633   6.087   2.669   5.444 -1.8377 -0.7922 -0.0822
   90SAPC  H11Y 8634   6.192   2.742   5.307  0.2894  1.0493  1.2403
   90SAPC  C312 8635   6.033   2.640   5.232 -0.2671  0.3294  0.0274
   90SAPC  H12X 8636   6.030   2.695   5.135  1.3501 -0.4163 -0.4721
   90SAPC  H12Y 8637   5.928   2.611   5.256  0.1990 -2.0177 -0.4389
   90SAPC  C313 8638   6.102   2.503   5.215  0.5554  0.0651 -0.3700
   90SAPC  H13X 8639   6.036   2.443   5.149  0.0595 -0.2512  0.3996
   90SAPC  H13Y 8640   6.115   2.457   5.315 -1.0726  1.9129  0.7598
   90SAPC  C314 8641   6.236   2.524   5.152 -0.7553 -0.4971 -0.0034
   90SAPC  H14X 8642   6.293   2.564   5.238 -2.1299  0.8869  0.2991
   90SAPC  H14Y 8643   6.227   2.595   5.067  1.3616 -1.4780 -1.1347
   90SAPC  C315 8644   6.304   2.402   5.096 -0.0051 -0.3880 -0.4101
   90SAPC  H15X 8645   6.261   2.380   4.996 -0.1232 -0.3782 -0.3614
   90SAPC  H15Y 8646   6.279   2.312   5.155  1.3280 -0.7273 -0.3314
   90SAPC  C316 8647   6.458   2.425   5.092 -0.7439 -0.1164  0.3527
   90SAPC  H16X 8648   6.497   2.420   5.196  3.1042  0.2379 -0.9258
   90SAPC  H16Y 8649   6.477   2.528   5.054  2.2485  0.0003  1.8420
   90SAPC  C317 8650   6.534   2.318   5.015  0.3582  0.3434 -0.2744
   90SAPC  H17X 8651   6.505   2.315   4.907 -2.5186  1.3341  0.3805
   90SAPC  H17Y 8652   6.522   2.220   5.067 -0.2625  0.1375 -0.7918
   90SAPC  C318 8653   6.682   2.344   5.012 -0.4445  0.0576  0.1426
   90SAPC  H18X 8654   6.725   2.313   5.110  0.6004  0.5281 -0.1500
   90SAPC  H18Y 8655   6.708   2.449   4.985 -1.9275  0.0898 -1.2938
   90SAPC  H18Z 8656   6.722   2.285   4.927 -0.4619 -1.8542  1.3910
   91SAPC     N 8657   2.228   3.958   7.253 -0.2048  0.9208  0.8367
   91SAPC   C12 8658   2.289   4.012   7.127 -0.4935 -0.6419 -0.1372
   91SAPC  H12A 8659   2.357   4.091   7.156 -2.0062  0.1101  1.5795
   91SAPC  H12B 8660   2.218   4.050   7.056 -0.3040 -0.6747 -0.3452
   91SAPC   C13 8661   2.335   3.898   7.342  0.9438  0.4201  0.9088
   91SAPC  H13A 8662   2.410   3.975   7.347  1.3705  0.3724 -2.5349
   91SAPC  H13B 8663   2.295   3.856   7.433 -0.2263 -3.3382 -1.1492
   91SAPC  H13C 8664   2.384   3.816   7.292  0.0458 -1.3213  2.7178
   91SAPC   C14 8665   2.168   4.071   7.328 -0.1898 -0.0040  1.0118
   91SAPC  H14A 8666   2.233   4.157   7.340  0.3876 -0.3198  0.2179
   91SAPC  H14B 8667   2.082   4.114   7.279  2.0267  2.9180 -0.6207
   91SAPC  H14C 8668   2.142   4.058   7.432 -0.3664  0.0465  0.9738
   91SAPC   C15 8669   2.118   3.850   7.228 -0.4128 -0.5821 -0.3445
   91SAPC  H15A 8670   2.150   3.758   7.181  0.8815 -0.0121 -0.6247
   91SAPC  H15B 8671   2.091   3.814   7.326 -1.1120 -2.7092 -1.2536
   91SAPC  H15C 8672   2.031   3.893   7.181  1.3486  0.4905 -2.8285
   91SAPC   C11 8673   2.374   3.911   7.046  0.2345 -0.0913  0.2637
   91SAPC  H11A 8674   2.379   3.950   6.942  2.5603 -1.0453 -0.0292
   91SAPC  H11B 8675   2.329   3.809   7.049 -1.4285  0.6337  2.2553
   91SAPC     P 8676   2.615   3.989   7.094 -0.1300 -0.2565 -0.2032
   91SAPC   O13 8677   2.578   4.132   7.121  0.4436 -0.1123 -0.0651
   91SAPC   O14 8678   2.730   3.935   7.172 -0.4592 -0.6731 -0.3617
   91SAPC   O12 8679   2.497   3.893   7.108 -0.1416  0.7690 -1.1309
   91SAPC   O11 8680   2.642   3.967   6.933  0.1870  0.0588 -0.0634
   91SAPC    C1 8681   2.645   3.832   6.885 -0.0016 -0.2240 -0.1898
   91SAPC    HA 8682   2.684   3.761   6.961 -1.8964 -0.2718  0.7893
   91SAPC    HB 8683   2.542   3.807   6.849 -0.1894  0.4412 -0.1256
   91SAPC    C2 8684   2.732   3.820   6.760 -0.1413 -0.2976  0.0905
   91SAPC    HS 8685   2.830   3.862   6.791 -1.2100 -0.0263  3.4101
   91SAPC   O21 8686   2.675   3.881   6.636  0.1153  0.2180  0.0726
   91SAPC   C21 8687   2.754   3.950   6.557  0.7949  0.6240 -1.4463
   91SAPC   O22 8688   2.866   3.988   6.596 -0.6383  0.4049 -0.1317
   91SAPC   C22 8689   2.676   3.981   6.433 -0.0121 -0.6878 -0.3054
   91SAPC   H2R 8690   2.578   3.929   6.432 -0.4941  0.2055 -1.0225
   91SAPC   H2S 8691   2.646   4.087   6.440  0.3554 -0.5817 -0.3514
   91SAPC    C3 8692   2.764   3.675   6.710  0.2296  0.1290  1.6756
   91SAPC    HX 8693   2.674   3.637   6.657  1.1922  1.0043 -0.7853
   91SAPC    HY 8694   2.787   3.619   6.803 -1.0679  1.5422  2.9001
   91SAPC   O31 8695   2.876   3.672   6.616  0.1949 -0.1284 -0.5445
   91SAPC   C31 8696   2.905   3.553   6.586 -0.6317 -0.0477 -0.0844
   91SAPC   O32 8697   2.839   3.457   6.621 -0.3817  0.0541 -0.5428
   91SAPC   C32 8698   3.047   3.539   6.517  0.2316  0.2498 -0.1807
   91SAPC   H2X 8699   3.082   3.439   6.549 -0.7858  0.2370  0.9661
   91SAPC   H2Y 8700   3.104   3.603   6.587 -0.2489 -0.1746  0.6173
   91SAPC   C23 8701   2.748   3.938   6.306 -0.1000 -0.4248  0.1963
   91SAPC   H3R 8702   2.668   3.928   6.230 -2.8460  0.6349  2.7740
   91SAPC   H3S 8703   2.805   3.844   6.322 -0.8291 -1.4931 -2.7233
   91SAPC   C24 8704   2.862   4.036   6.251 -0.0959 -0.1383 -0.1080
   91SAPC   H4R 8705   2.950   4.027   6.319 -1.2887  0.4882  1.5773
   91SAPC   H4S 8706   2.822   4.139   6.259  0.4164 -0.0001  0.7962
   91SAPC   C25 8707   2.920   4.003   6.115 -0.8506 -0.5209 -0.4737
   91SAPC   H5R 8708   2.975   3.907   6.118 -0.1334 -0.1013  0.7281
   91SAPC   C26 8709   2.909   4.077   6.005 -0.0015 -0.3343 -0.3236
   91SAPC   H6R 8710   2.953   4.030   5.916  1.6683 -1.3832  0.9728
   91SAPC   C27 8711   2.839   4.211   5.983 -0.1534 -0.0972  0.5869
   91SAPC   H7R 8712   2.897   4.259   5.900 -0.8760  1.1892  0.7899
   91SAPC   H7S 8713   2.855   4.269   6.077 -0.4352 -0.3810  0.8105
   91SAPC   C28 8714   2.695   4.182   5.952  0.4386  0.3621  0.3368
   91SAPC   H8R 8715   2.652   4.106   6.019 -1.1063  3.4252  3.0611
   91SAPC   C29 8716   2.618   4.230   5.858  0.0095  0.6346  0.0167
   91SAPC   H9R 8717   2.524   4.175   5.842  0.8102 -0.8545  0.2964
   91SAPC  C210 8718   2.657   4.339   5.758  0.2859 -0.4165  0.4258
   91SAPC  H10R 8719   2.727   4.289   5.688  0.4655 -1.6209  1.4332
   91SAPC  H10S 8720   2.714   4.422   5.806 -1.3955  0.7751  0.4559
   91SAPC  C211 8721   2.530   4.390   5.690  1.2722  0.0494  0.5830
   91SAPC  H11R 8722   2.454   4.421   5.763  1.6479 -0.1561  1.0658
   91SAPC  C212 8723   2.505   4.403   5.555 -0.5443 -0.3300  0.0999
   91SAPC  H12R 8724   2.411   4.449   5.522 -0.4160  1.4225  2.0094
   91SAPC  C213 8725   2.597   4.349   5.447  0.7182 -0.7435  0.2633
   91SAPC  H13R 8726   2.551   4.259   5.400 -0.0767  0.5975 -1.6519
   91SAPC  H13S 8727   2.689   4.299   5.483  1.3734 -0.8180 -1.4276
   91SAPC  C214 8728   2.647   4.449   5.348  0.7678 -0.5102  0.7734
   91SAPC  H14R 8729   2.742   4.502   5.365 -0.6150  2.4490 -0.0168
   91SAPC  C215 8730   2.599   4.473   5.225 -0.1416 -0.0202 -0.2889
   91SAPC  H15R 8731   2.647   4.545   5.158 -0.5166 -0.1647 -0.7119
   91SAPC  C216 8732   2.467   4.417   5.164 -0.1955  0.2099 -0.3448
   91SAPC  H16R 8733   2.384   4.491   5.159 -3.0653 -2.6095  1.7570
   91SAPC  H16S 8734   2.421   4.347   5.237  2.1324  0.2743  1.2628
   91SAPC  C217 8735   2.472   4.353   5.028 -0.0420 -0.1361 -0.4944
   91SAPC  H17R 8736   2.384   4.288   5.008 -0.3889  0.1972 -0.0717
   91SAPC  H17S 8737   2.550   4.276   5.043 -1.3662 -0.8607  4.7207
   91SAPC  C218 8738   2.512   4.437   4.907  0.4976 -0.1601 -0.2246
   91SAPC  H18R 8739   2.509   4.382   4.811  2.1723 -1.1509  0.2387
   91SAPC  H18S 8740   2.617   4.473   4.912  0.1664  0.6854  3.1771
   91SAPC  C219 8741   2.430   4.562   4.898 -0.0695 -0.6058  0.7453
   91SAPC  H19R 8742   2.456   4.624   4.987 -1.2005 -1.1938  1.5182
   91SAPC  H19S 8743   2.321   4.539   4.889 -0.1482  0.3526 -1.1590
   91SAPC  C220 8744   2.467   4.638   4.775 -1.4540  0.0365 -0.9528
   91SAPC  H20R 8745   2.576   4.655   4.763 -0.8707 -2.3446  0.5396
   91SAPC  H20S 8746   2.410   4.733   4.784 -2.1052 -0.5320  1.5195
   91SAPC  H20T 8747   2.425   4.575   4.694  0.6127 -0.3144 -1.7978
   91SAPC   C33 8748   3.055   3.597   6.374  0.2009 -0.3793  0.5050
   91SAPC   H3X 8749   2.993   3.689   6.367 -1.4459 -1.5189 -0.6217
   91SAPC   H3Y 8750   3.021   3.521   6.301 -1.0106 -2.0559  2.6932
   91SAPC   C34 8751   3.205   3.627   6.352  0.6708 -0.0629  0.7301
   91SAPC   H4X 8752   3.257   3.528   6.350 -0.9889 -0.9656 -0.8270
   91SAPC   H4Y 8753   3.239   3.692   6.435  0.1590  1.2717 -0.0738
   91SAPC   C35 8754   3.234   3.709   6.220  0.3839  0.3728  0.4801
   91SAPC   H5X 8755   3.345   3.717   6.214  0.4642 -0.6050  0.5237
   91SAPC   H5Y 8756   3.202   3.815   6.229  0.7366  0.4931  0.3457
   91SAPC   C36 8757   3.177   3.638   6.092 -0.3964 -0.3833 -0.0324
   91SAPC   H6X 8758   3.067   3.645   6.086 -0.2686  2.1698 -0.1704
   91SAPC   H6Y 8759   3.189   3.527   6.094 -2.7082 -0.6825 -0.3473
   91SAPC   C37 8760   3.225   3.705   5.960 -0.1916 -0.1639  0.1250
   91SAPC   H7X 8761   3.332   3.683   5.940 -0.1342  0.9786 -0.9065
   91SAPC   H7Y 8762   3.210   3.814   5.967 -4.0004 -0.4823 -1.1922
   91SAPC   C38 8763   3.158   3.657   5.834 -0.4078  0.5791 -0.1089
   91SAPC   H8X 8764   3.048   3.670   5.846 -0.0924  2.6827  0.9858
   91SAPC   H8Y 8765   3.167   3.546   5.832 -0.4736  0.5527 -2.8688
   91SAPC   C39 8766   3.204   3.722   5.701 -0.0286  0.5966  0.1201
   91SAPC   H9X 8767   3.314   3.706   5.697 -0.0851 -0.3657  1.7877
   91SAPC   H9Y 8768   3.196   3.832   5.715 -0.1753  0.6259 -0.1783
   91SAPC  C310 8769   3.119   3.664   5.583  0.0128 -0.5965 -0.7578
   91SAPC  H10X 8770   3.010   3.683   5.595  0.3208  1.8553 -1.2894
   91SAPC  H10Y 8771   3.121   3.553   5.591 -0.7040 -0.7588 -2.4291
   91SAPC  C311 8772   3.174   3.727   5.452  0.9382 -0.1334 -0.3173
   91SAPC  H11X 8773   3.183   3.837   5.463 -1.2644 -0.1378  3.3032
   91SAPC  H11Y 8774   3.101   3.710   5.369 -1.6804  1.8812  1.3785
   91SAPC  C312 8775   3.306   3.673   5.404  0.2030 -0.2267 -0.1899
   91SAPC  H12X 8776   3.322   3.573   5.448 -0.4428 -0.1789  0.1605
   91SAPC  H12Y 8777   3.390   3.738   5.437  0.1775  0.4684 -1.4406
   91SAPC  C313 8778   3.322   3.662   5.247  0.4609 -0.2468  0.0981
   91SAPC  H13X 8779   3.253   3.589   5.200  1.0019 -2.8308  2.9720
   91SAPC  H13Y 8780   3.427   3.636   5.222  1.0459  2.1603 -0.2519
   91SAPC  C314 8781   3.296   3.789   5.167 -0.6717 -0.4503  0.8457
   91SAPC  H14X 8782   3.396   3.832   5.145 -0.6901 -1.4418 -1.5361
   91SAPC  H14Y 8783   3.241   3.871   5.217  1.5138  4.0129 -3.2119
   91SAPC  C315 8784   3.239   3.773   5.029 -0.1908  0.4175  0.2919
   91SAPC  H15X 8785   3.133   3.741   5.023  0.3389 -1.1426 -3.0192
   91SAPC  H15Y 8786   3.298   3.690   4.984  1.6814  0.8566  1.7787
   91SAPC  C316 8787   3.257   3.896   4.951 -0.2384  0.1067  0.4875
   91SAPC  H16X 8788   3.364   3.922   4.935 -0.3144 -0.1335 -0.5261
   91SAPC  H16Y 8789   3.207   3.979   5.004  0.1458  1.2804 -0.8917
   91SAPC  C317 8790   3.185   3.899   4.810  0.1444  0.6197 -1.1210
   91SAPC  H17X 8791   3.076   3.885   4.824 -0.0630  2.8632 -0.0147
   91SAPC  H17Y 8792   3.220   3.823   4.737  1.2300  2.3560 -2.4928
   91SAPC  C318 8793   3.204   4.034   4.729 -0.0183 -0.0739 -0.1672
   91SAPC  H18X 8794   3.300   4.086   4.752 -0.0652 -0.0055 -0.1244
   91SAPC  H18Y 8795   3.120   4.103   4.753  0.3149  0.0780  0.5844
   91SAPC  H18Z 8796   3.204   4.018   4.619  1.8958  0.4647 -0.2761
   92SAPC     N 8797   1.702   1.900   6.409  0.0113  0.5625  0.4316
   92SAPC   C12 8798   1.680   2.046   6.384 -0.1373 -0.5738  0.3869
   92SAPC  H12A 8799   1.769   2.079   6.332 -0.7665 -2.2674 -1.9554
   92SAPC  H12B 8800   1.670   2.104   6.474  1.3464  0.3293  0.0165
   92SAPC   C13 8801   1.587   1.831   6.480  0.0019  0.5279  0.4758
   92SAPC  H13A 8802   1.502   1.839   6.415  0.3428  2.7068  0.2301
   92SAPC  H13B 8803   1.600   1.726   6.502 -0.0549  0.6147  0.9380
   92SAPC  H13C 8804   1.571   1.885   6.573 -0.0015  0.9813  0.2140
   92SAPC   C14 8805   1.721   1.833   6.278 -0.3106 -0.4364  0.1474
   92SAPC  H14A 8806   1.643   1.858   6.206  0.3600  1.4723  0.0130
   92SAPC  H14B 8807   1.815   1.849   6.229 -1.6342 -2.3792 -3.3602
   92SAPC  H14C 8808   1.721   1.726   6.290 -1.9286 -0.6382 -1.2235
   92SAPC   C15 8809   1.821   1.885   6.495  0.7076 -0.1091 -0.1197
   92SAPC  H15A 8810   1.807   1.961   6.571 -2.4273  0.1999 -0.8459
   92SAPC  H15B 8811   1.825   1.789   6.545  1.1005  0.7322  1.5660
   92SAPC  H15C 8812   1.916   1.907   6.449  0.4653  1.6513  0.1512
   92SAPC   C11 8813   1.550   2.075   6.304  0.0721 -1.3123 -0.4291
   92SAPC  H11A 8814   1.538   2.010   6.215 -0.5593 -0.5912 -0.8756
   92SAPC  H11B 8815   1.555   2.175   6.256  0.2964 -1.5146 -0.8355
   92SAPC     P 8816   1.404   2.164   6.505  0.3081  0.3461 -0.1900
   92SAPC   O13 8817   1.304   2.114   6.602 -0.3296 -0.1266  0.0660
   92SAPC   O14 8818   1.528   2.232   6.555 -0.4279  0.5849 -0.8121
   92SAPC   O12 8819   1.440   2.054   6.395  0.5419  0.3183 -0.0366
   92SAPC   O11 8820   1.330   2.267   6.413  0.1864 -0.1814 -0.4783
   92SAPC    C1 8821   1.242   2.231   6.308 -0.2822 -0.4080 -0.1279
   92SAPC    HA 8822   1.232   2.122   6.294 -1.7149 -0.5561  1.6228
   92SAPC    HB 8823   1.135   2.258   6.326 -0.9549 -2.3563 -0.9722
   92SAPC    C2 8824   1.297   2.301   6.173 -0.0771  0.2984  0.2219
   92SAPC    HS 8825   1.401   2.262   6.166 -0.1334  0.4444 -1.9451
   92SAPC   O21 8826   1.299   2.443   6.185  0.0142  0.4281 -0.2524
   92SAPC   C21 8827   1.407   2.514   6.156 -0.3354 -0.0126 -0.0426
   92SAPC   O22 8828   1.512   2.468   6.115  0.2061  0.4765 -0.5432
   92SAPC   C22 8829   1.368   2.657   6.186 -0.0449  0.7482  0.6284
   92SAPC   H2R 8830   1.293   2.681   6.108 -0.5605 -1.9102  0.2106
   92SAPC   H2S 8831   1.320   2.672   6.285  0.4495  2.9263  0.5720
   92SAPC    C3 8832   1.215   2.276   6.042 -0.4289 -0.2314  0.3554
   92SAPC    HX 8833   1.118   2.328   6.050  0.3167  1.1741  0.5867
   92SAPC    HY 8834   1.187   2.168   6.035 -0.6840 -0.0741 -1.6021
   92SAPC   O31 8835   1.276   2.319   5.925 -0.0926 -0.0583  0.1926
   92SAPC   C31 8836   1.381   2.246   5.882 -0.3034  0.2696  0.2919
   92SAPC   O32 8837   1.426   2.146   5.938  0.3104 -0.4430 -0.0440
   92SAPC   C32 8838   1.446   2.324   5.774 -0.0103 -0.6951  0.0250
   92SAPC   H2X 8839   1.499   2.408   5.824 -1.2233 -0.8000  1.5748
   92SAPC   H2Y 8840   1.367   2.371   5.712 -2.6088 -3.9115  0.5790
   92SAPC   C23 8841   1.486   2.748   6.180 -1.0538 -0.0060  0.0982
   92SAPC   H3R 8842   1.573   2.705   6.235 -1.5107 -0.5003  0.4428
   92SAPC   H3S 8843   1.457   2.843   6.231  2.2445  1.9639 -1.3575
   92SAPC   C24 8844   1.534   2.800   6.041  0.0218 -0.1782 -0.3808
   92SAPC   H4R 8845   1.578   2.715   5.985 -2.0552 -0.5894 -1.4789
   92SAPC   H4S 8846   1.610   2.879   6.055 -0.8175  0.5882 -0.0497
   92SAPC   C25 8847   1.420   2.862   5.961  0.0835  0.0112  0.3122
   92SAPC   H5R 8848   1.369   2.946   6.011  0.6526  0.3269  0.3661
   92SAPC   C26 8849   1.370   2.820   5.844  0.5999  0.3743 -0.4198
   92SAPC   H6R 8850   1.291   2.868   5.785  0.5882  1.1628  0.2169
   92SAPC   C27 8851   1.432   2.707   5.766  0.0612 -0.0369 -0.1105
   92SAPC   H7R 8852   1.453   2.618   5.829 -1.7971  1.5417  2.9542
   92SAPC   H7S 8853   1.526   2.742   5.718  0.5627 -0.5562  0.4743
   92SAPC   C28 8854   1.339   2.653   5.666 -0.3382  0.0745  0.3489
   92SAPC   H8R 8855   1.236   2.636   5.703  0.0431 -1.6309  0.7020
   92SAPC   C29 8856   1.362   2.622   5.539 -0.0180 -0.6051 -0.4582
   92SAPC   H9R 8857   1.274   2.597   5.477 -0.5539  0.4540 -0.1516
   92SAPC  C210 8858   1.493   2.625   5.461 -0.0250  0.5950  0.2245
   92SAPC  H10R 8859   1.576   2.621   5.534 -0.9407 -0.9054  1.2458
   92SAPC  H10S 8860   1.508   2.720   5.404 -0.3893 -1.3230 -3.3708
   92SAPC  C211 8861   1.494   2.506   5.358  0.8302 -0.0828 -0.6462
   92SAPC  H11R 8862   1.445   2.412   5.386  3.5054 -1.4684 -0.3130
   92SAPC  C212 8863   1.556   2.502   5.243  0.0785 -0.8412 -0.3298
   92SAPC  H12R 8864   1.526   2.423   5.172  1.9391  0.9614 -3.3602
   92SAPC  C213 8865   1.629   2.621   5.170  0.5226  0.0833  0.0556
   92SAPC  H13R 8866   1.723   2.580   5.128 -0.2665 -0.9647 -0.7319
   92SAPC  H13S 8867   1.662   2.699   5.243 -2.2399 -0.1785  1.7188
   92SAPC  C214 8868   1.548   2.699   5.068  0.5549  0.6212 -0.0372
   92SAPC  H14R 8869   1.454   2.742   5.105  1.0423  1.1617  0.6083
   92SAPC  C215 8870   1.564   2.697   4.931 -0.2316  1.1444 -0.0946
   92SAPC  H15R 8871   1.493   2.756   4.870 -0.7074  1.3519  0.6461
   92SAPC  C216 8872   1.677   2.619   4.865 -0.6388  0.2621 -0.6105
   92SAPC  H16R 8873   1.769   2.634   4.926  0.2566 -1.9511 -1.3029
   92SAPC  H16S 8874   1.702   2.673   4.771 -0.8238  0.9343 -0.2863
   92SAPC  C217 8875   1.653   2.470   4.853 -0.3017 -0.6483  0.6029
   92SAPC  H17R 8876   1.546   2.455   4.826 -0.0659 -0.3041 -0.5520
   92SAPC  H17S 8877   1.664   2.427   4.955 -1.8823 -0.9779  0.6548
   92SAPC  C218 8878   1.748   2.399   4.751  0.2004 -0.3035  0.1160
   92SAPC  H18R 8879   1.845   2.406   4.804  0.3522  4.8711 -0.3341
   92SAPC  H18S 8880   1.732   2.454   4.655  0.6170 -0.8999 -0.3029
   92SAPC  C219 8881   1.721   2.256   4.723 -0.2220 -0.5230  0.0969
   92SAPC  H19R 8882   1.621   2.243   4.676 -2.4661 -2.0109  4.6410
   92SAPC  H19S 8883   1.716   2.189   4.811 -3.2436 -1.7568 -0.8805
   92SAPC  C220 8884   1.816   2.204   4.608  0.5917  0.2851 -0.3281
   92SAPC  H20R 8885   1.920   2.232   4.637  0.4543  0.4568  0.0077
   92SAPC  H20S 8886   1.787   2.248   4.511 -2.5766 -1.4154 -0.2795
   92SAPC  H20T 8887   1.821   2.093   4.604 -1.0744  0.2365 -1.8347
   92SAPC   C33 8888   1.536   2.234   5.696 -0.5363  0.7919 -0.3381
   92SAPC   H3X 8889   1.581   2.148   5.750 -1.3442 -0.1442 -1.1048
   92SAPC   H3Y 8890   1.624   2.295   5.666  2.0939 -2.6929 -0.3450
   92SAPC   C34 8891   1.454   2.173   5.576 -0.1233 -1.0529 -0.1177
   92SAPC   H4X 8892   1.380   2.247   5.539 -1.5430 -0.9526  2.6761
   92SAPC   H4Y 8893   1.391   2.090   5.614 -0.9203 -0.1322  0.6221
   92SAPC   C35 8894   1.554   2.116   5.469  0.3852  0.7422  0.5719
   92SAPC   H5X 8895   1.615   2.038   5.520 -0.6929 -0.8870 -0.5433
   92SAPC   H5Y 8896   1.621   2.184   5.412 -1.4061  2.0843 -0.0220
   92SAPC   C36 8897   1.473   2.051   5.362  0.2267  0.2471  0.2599
   92SAPC   H6X 8898   1.372   2.017   5.393 -0.3166  0.7874 -0.8684
   92SAPC   H6Y 8899   1.526   1.959   5.328  0.7998  0.2242  1.1772
   92SAPC   C37 8900   1.450   2.136   5.235 -0.5551  0.5011 -0.1061
   92SAPC   H7X 8901   1.547   2.186   5.215  1.9067 -2.7101  2.6373
   92SAPC   H7Y 8902   1.375   2.212   5.264  0.4696  1.5698 -0.1890
   92SAPC   C38 8903   1.409   2.057   5.117 -0.2676 -0.6986  0.2974
   92SAPC   H8X 8904   1.311   2.005   5.125 -0.1273 -0.9240  0.5803
   92SAPC   H8Y 8905   1.485   1.976   5.116  0.5193 -0.0463  2.4393
   92SAPC   C39 8906   1.427   2.143   4.991  0.2304  0.3559 -0.1817
   92SAPC   H9X 8907   1.526   2.192   4.996  1.2735 -1.3574 -2.2726
   92SAPC   H9Y 8908   1.356   2.228   4.988  0.3681  0.5342  1.0827
   92SAPC  C310 8909   1.433   2.070   4.855 -0.0165  0.3555  0.1963
   92SAPC  H10X 8910   1.480   2.129   4.774 -0.6237  1.1923  0.4451
   92SAPC  H10Y 8911   1.329   2.039   4.833  0.7814 -2.3023 -0.2095
   92SAPC  C311 8912   1.509   1.933   4.854  0.4247 -0.6556  0.3025
   92SAPC  H11X 8913   1.466   1.869   4.934  0.8873  0.1687  1.2391
   92SAPC  H11Y 8914   1.618   1.948   4.870  0.5830 -0.4146 -0.9200
   92SAPC  C312 8915   1.495   1.867   4.722  0.3345  0.6948 -0.9709
   92SAPC  H12X 8916   1.535   1.942   4.650  0.6542  0.0005 -1.5228
   92SAPC  H12Y 8917   1.390   1.840   4.701  0.5473 -1.2194  0.1558
   92SAPC  C313 8918   1.570   1.737   4.701 -0.6366  0.8692 -0.5668
   92SAPC  H13X 8919   1.678   1.759   4.709 -0.8931  1.3259  2.6799
   92SAPC  H13Y 8920   1.566   1.716   4.592  2.2545 -0.9193 -0.4383
   92SAPC  C314 8921   1.549   1.615   4.791 -0.4738  0.3281 -0.2608
   92SAPC  H14X 8922   1.439   1.598   4.794 -0.2531 -2.4901 -2.7056
   92SAPC  H14Y 8923   1.596   1.638   4.888  1.3387 -0.6375 -0.8675
   92SAPC  C315 8924   1.621   1.491   4.742  0.2796 -0.6083  0.6616
   92SAPC  H15X 8925   1.727   1.521   4.730 -0.2411  1.0205 -0.1495
   92SAPC  H15Y 8926   1.580   1.459   4.643 -0.6638 -1.3078  1.2689
   92SAPC  C316 8927   1.616   1.367   4.828  0.2978  0.5401 -0.6284
   92SAPC  H16X 8928   1.634   1.386   4.936  0.1193 -1.2316 -0.2510
   92SAPC  H16Y 8929   1.688   1.298   4.778  0.0706  0.6470 -1.1149
   92SAPC  C317 8930   1.484   1.288   4.825  0.1687  0.7654  0.2644
   92SAPC  H17X 8931   1.412   1.354   4.878 -0.4779  0.3776 -0.1217
   92SAPC  H17Y 8932   1.498   1.192   4.879  0.1754 -0.1100 -1.2407
   92SAPC  C318 8933   1.422   1.252   4.692 -0.0472  0.1221 -0.3220
   92SAPC  H18X 8934   1.339   1.185   4.724  1.0092 -0.3514  1.5896
   92SAPC  H18Y 8935   1.494   1.199   4.626 -0.6770 -1.1258 -0.0393
   92SAPC  H18Z 8936   1.387   1.350   4.652  0.8429  0.7591  0.4023
   93SAPC     N 8937   4.780   1.968   7.069 -0.3185 -0.1777 -1.0108
   93SAPC   C12 8938   4.716   1.892   6.958  0.3611  0.0353  0.0074
   93SAPC  H12A 8939   4.626   1.942   6.925 -1.4216 -2.4297  0.8812
   93SAPC  H12B 8940   4.661   1.809   6.999 -1.1409  1.4200  0.9244
   93SAPC   C13 8941   4.872   1.896   7.149 -0.0372  0.4255 -0.1948
   93SAPC  H13A 8942   4.920   1.957   7.224  0.4571  1.7119 -1.5060
   93SAPC  H13B 8943   4.835   1.808   7.199  3.8588 -0.5840  1.2266
   93SAPC  H13C 8944   4.958   1.861   7.094 -0.7740 -0.7655 -0.6193
   93SAPC   C14 8945   4.850   2.080   7.008 -0.2774  0.1008 -0.2675
   93SAPC  H14A 8946   4.777   2.136   6.950 -1.5392 -1.6550 -0.4330
   93SAPC  H14B 8947   4.910   2.138   7.077  2.3748 -0.1234 -2.2100
   93SAPC  H14C 8948   4.916   2.032   6.938 -0.8271  1.5300 -1.8360
   93SAPC   C15 8949   4.679   2.020   7.165  0.0268  0.0231 -0.7618
   93SAPC  H15A 8950   4.737   2.076   7.237  0.7778 -1.0453 -0.4974
   93SAPC  H15B 8951   4.615   2.091   7.117 -0.8981 -0.5786 -0.4457
   93SAPC  H15C 8952   4.617   1.945   7.212  0.7030 -1.0745 -1.5502
   93SAPC   C11 8953   4.804   1.847   6.835  0.1645 -0.0851  0.2370
   93SAPC  H11A 8954   4.830   1.937   6.776  3.8679 -1.1537 -0.0159
   93SAPC  H11B 8955   4.741   1.788   6.765 -0.8845  0.5950  0.5840
   93SAPC     P 8956   5.052   1.791   6.806  0.0194 -0.0586 -0.0246
   93SAPC   O13 8957   5.094   1.932   6.818 -0.1539  0.4209  0.3105
   93SAPC   O14 8958   5.147   1.696   6.861 -0.4164  0.1090 -0.0887
   93SAPC   O12 8959   4.912   1.773   6.869  0.3659 -0.3986 -0.1590
   93SAPC   O11 8960   5.026   1.750   6.667 -0.1329  0.5682  0.2814
   93SAPC    C1 8961   5.063   1.819   6.547 -0.3365  0.0232  0.3674
   93SAPC    HA 8962   5.116   1.916   6.563 -0.8421  0.3534  0.0782
   93SAPC    HB 8963   5.121   1.751   6.482 -0.5346 -1.4049  1.6397
   93SAPC    C2 8964   4.941   1.881   6.464  0.5555  0.6791  0.3235
   93SAPC    HS 8965   4.853   1.898   6.530 -1.3076 -0.7183 -1.6709
   93SAPC   O21 8966   4.902   1.776   6.374  0.2185 -0.1913 -0.2470
   93SAPC   C21 8967   4.781   1.791   6.318 -0.0414 -0.5099  0.0177
   93SAPC   O22 8968   4.696   1.865   6.359  0.1389 -0.0694  0.4531
   93SAPC   C22 8969   4.758   1.708   6.195  0.5599 -0.3353 -0.1727
   93SAPC   H2R 8970   4.806   1.767   6.114 -0.3350 -1.1483 -1.3379
   93SAPC   H2S 8971   4.816   1.614   6.197 -0.9352 -1.3300 -1.2178
   93SAPC    C3 8972   4.965   2.021   6.395  0.7236  0.1739 -0.8763
   93SAPC    HX 8973   4.971   2.102   6.470 -2.2348 -1.5652  1.4491
   93SAPC    HY 8974   4.883   2.049   6.325  0.6238  0.5482 -0.6092
   93SAPC   O31 8975   5.101   2.025   6.340  0.6813  0.3189  0.8415
   93SAPC   C31 8976   5.101   1.975   6.212  0.1167 -0.8581 -0.1741
   93SAPC   O32 8977   5.008   1.924   6.156 -0.1961  0.5477  0.6957
   93SAPC   C32 8978   5.243   1.983   6.159  0.2596  0.3289 -0.8181
   93SAPC   H2X 8979   5.301   1.900   6.205  2.1141  1.8814 -0.2203
   93SAPC   H2Y 8980   5.294   2.072   6.200  0.4737  0.8598 -2.1866
   93SAPC   C23 8981   4.615   1.690   6.146 -0.7568  0.8799  0.1441
   93SAPC   H3R 8982   4.562   1.788   6.152  1.0698  1.8465  1.6018
   93SAPC   H3S 8983   4.548   1.625   6.206 -0.8204  0.3158 -0.5217
   93SAPC   C24 8984   4.606   1.640   5.998  0.3735  0.8451  0.7679
   93SAPC   H4R 8985   4.654   1.540   5.991 -0.9666  0.2468 -0.3063
   93SAPC   H4S 8986   4.668   1.718   5.948 -0.8573  0.9826 -0.6068
   93SAPC   C25 8987   4.474   1.626   5.933  0.5091  1.2400 -0.3597
   93SAPC   H5R 8988   4.403   1.708   5.955 -0.2427  0.5457 -0.1498
   93SAPC   C26 8989   4.429   1.520   5.866  0.2635  0.0020  0.4941
   93SAPC   H6R 8990   4.336   1.538   5.809 -0.0024  0.2131  0.9769
   93SAPC   C27 8991   4.513   1.398   5.835  0.0258 -0.0538 -0.1606
   93SAPC   H7R 8992   4.531   1.353   5.935  0.3439  0.4323  0.0087
   93SAPC   H7S 8993   4.611   1.440   5.802  0.6961 -2.0692 -0.9369
   93SAPC   C28 8994   4.444   1.312   5.736 -0.1630 -0.0650  0.4826
   93SAPC   H8R 8995   4.358   1.266   5.787 -1.8734  2.9260  0.4829
   93SAPC   C29 8996   4.483   1.273   5.611 -0.0136 -1.0805 -0.4350
   93SAPC   H9R 8997   4.418   1.207   5.552 -0.0780 -0.1433 -1.4393
   93SAPC  C210 8998   4.601   1.323   5.530  1.1965 -0.0716 -0.8875
   93SAPC  H10R 8999   4.640   1.407   5.591 -2.5728  0.9203  0.4230
   93SAPC  H10S 9000   4.559   1.366   5.437 -0.7283  0.6955  0.2672
   93SAPC  C211 9001   4.713   1.215   5.504  0.3574 -0.4791  0.2383
   93SAPC  H11R 9002   4.731   1.160   5.598 -0.4864 -0.0824  0.6461
   93SAPC  C212 9003   4.763   1.177   5.385 -0.2910 -0.5579  0.5043
   93SAPC  H12R 9004   4.836   1.096   5.371 -0.8970 -0.7235 -2.1752
   93SAPC  C213 9005   4.749   1.252   5.260  0.2000 -0.3650  0.2071
   93SAPC  H13R 9006   4.853   1.268   5.222 -0.0014 -0.5817 -0.4446
   93SAPC  H13S 9007   4.720   1.357   5.280  2.4724  0.6205 -1.1814
   93SAPC  C214 9008   4.652   1.171   5.184  0.5853 -0.0975 -0.1364
   93SAPC  H14R 9009   4.554   1.154   5.232 -0.0625 -0.7378 -1.6024
   93SAPC  C215 9010   4.655   1.132   5.056 -0.2508 -0.1315 -1.0888
   93SAPC  H15R 9011   4.573   1.085   5.000  0.8699  0.3581 -3.2718
   93SAPC  C216 9012   4.785   1.148   4.977 -0.0997 -0.0662 -0.7623
   93SAPC  H16R 9013   4.858   1.069   5.003  0.7595  0.8045 -0.4707
   93SAPC  H16S 9014   4.839   1.243   4.995 -0.4133 -0.0303  0.0355
   93SAPC  C217 9015   4.764   1.146   4.828 -0.6038 -0.3092  0.5358
   93SAPC  H17R 9016   4.696   1.230   4.802 -1.9647 -1.4148  0.4059
   93SAPC  H17S 9017   4.704   1.057   4.798 -3.1230  1.9485 -1.7362
   93SAPC  C218 9018   4.886   1.175   4.739 -0.6060  0.0803 -0.5894
   93SAPC  H18R 9019   4.961   1.094   4.752 -1.1784 -0.1819  1.4517
   93SAPC  H18S 9020   4.948   1.256   4.784 -2.3923  0.6325  1.0160
   93SAPC  C219 9021   4.845   1.201   4.596  0.1323 -0.1242 -0.4526
   93SAPC  H19R 9022   4.926   1.262   4.550  0.8975 -0.8166 -0.0334
   93SAPC  H19S 9023   4.763   1.275   4.591 -0.6965 -1.0153 -0.3247
   93SAPC  C220 9024   4.804   1.078   4.511  0.4372 -0.2676 -0.1728
   93SAPC  H20R 9025   4.802   1.114   4.406 -1.9093  0.4215  0.0410
   93SAPC  H20S 9026   4.700   1.056   4.544  0.8633 -1.0431  0.7117
   93SAPC  H20T 9027   4.880   0.999   4.527  0.1319 -0.8161 -1.3851
   93SAPC   C33 9028   5.257   1.993   6.003  0.0260  0.4422 -0.3413
   93SAPC   H3X 9029   5.224   1.899   5.954 -0.3251 -1.1189  2.6080
   93SAPC   H3Y 9030   5.366   1.993   5.979  0.2925 -2.1478  0.4762
   93SAPC   C34 9031   5.201   2.115   5.922  0.2468  0.0666  0.0764
   93SAPC   H4X 9032   5.251   2.211   5.947 -1.6021  1.1468 -0.1882
   93SAPC   H4Y 9033   5.098   2.133   5.959  0.4404 -0.4844  0.9178
   93SAPC   C35 9034   5.188   2.088   5.769  0.2540 -0.7883  0.2376
   93SAPC   H5X 9035   5.113   2.148   5.713 -0.3247 -1.8384 -0.1305
   93SAPC   H5Y 9036   5.153   1.984   5.757  0.6673 -1.1934  2.1194
   93SAPC   C36 9037   5.328   2.110   5.706 -0.5840 -0.3152  0.3917
   93SAPC   H6X 9038   5.410   2.072   5.770  2.1607 -0.9344 -3.1709
   93SAPC   H6Y 9039   5.345   2.216   5.677 -0.2622 -0.5933 -0.4706
   93SAPC   C37 9040   5.345   2.027   5.580 -0.2124 -0.5234 -0.6055
   93SAPC   H7X 9041   5.336   1.919   5.606  3.3411 -0.9524 -0.5874
   93SAPC   H7Y 9042   5.449   2.026   5.540  0.0453  1.2490 -0.0762
   93SAPC   C38 9043   5.241   2.056   5.481  0.6616 -0.4800  0.5333
   93SAPC   H8X 9044   5.237   2.161   5.444  0.3424 -0.7577 -0.2376
   93SAPC   H8Y 9045   5.140   2.030   5.519 -0.1792  0.0208 -1.2229
   93SAPC   C39 9046   5.279   1.968   5.365 -0.1840 -0.0469 -0.2664
   93SAPC   H9X 9047   5.262   1.860   5.385  0.2427  0.1031  0.9602
   93SAPC   H9Y 9048   5.387   1.981   5.343 -0.1912  0.5613  0.0416
   93SAPC  C310 9049   5.206   1.998   5.240 -0.0929  0.0348 -0.6496
   93SAPC  H10X 9050   5.220   2.105   5.213  0.6671 -0.1285 -0.9176
   93SAPC  H10Y 9051   5.101   1.973   5.266  0.5640 -0.3566  1.8791
   93SAPC  C311 9052   5.257   1.922   5.127 -0.1604 -0.5470  0.0656
   93SAPC  H11X 9053   5.262   1.814   5.154 -0.5552 -1.0192 -1.6310
   93SAPC  H11Y 9054   5.362   1.955   5.110  0.2290  0.2770  3.3884
   93SAPC  C312 9055   5.167   1.915   5.003  0.0692 -0.6141  0.0861
   93SAPC  H12X 9056   5.062   1.890   5.029  0.6218 -4.3458 -0.7222
   93SAPC  H12Y 9057   5.199   1.839   4.929 -0.2826 -0.0923 -0.6152
   93SAPC  C313 9058   5.167   2.049   4.929 -0.5700 -0.0931  0.7495
   93SAPC  H13X 9059   5.267   2.097   4.927 -0.0324 -1.2182 -0.7573
   93SAPC  H13Y 9060   5.100   2.123   4.978 -1.1223 -0.3351  0.3695
   93SAPC  C314 9061   5.113   2.031   4.789  0.5334  0.2193  1.3904
   93SAPC  H14X 9062   5.003   2.016   4.795  0.5191 -1.7636 -1.6386
   93SAPC  H14Y 9063   5.146   1.935   4.745  1.9467  1.6786 -0.9629
   93SAPC  C315 9064   5.158   2.149   4.701 -0.5190 -0.4670  0.4080
   93SAPC  H15X 9065   5.269   2.155   4.704 -0.5353 -0.4122  2.4235
   93SAPC  H15Y 9066   5.123   2.237   4.759  0.2366 -1.7176  2.9362
   93SAPC  C316 9067   5.115   2.142   4.555 -0.2078  0.1229 -0.4126
   93SAPC  H16X 9068   5.016   2.091   4.559  1.6732 -4.1082 -1.9765
   93SAPC  H16Y 9069   5.170   2.058   4.508 -1.2999 -0.7683 -0.1289
   93SAPC  C317 9070   5.141   2.275   4.488  0.2520 -0.1031  0.1284
   93SAPC  H17X 9071   5.249   2.298   4.490  0.0634  0.7731  1.1418
   93SAPC  H17Y 9072   5.097   2.355   4.551  0.8797  0.0896  0.3273
   93SAPC  C318 9073   5.092   2.263   4.344 -0.1391  0.1529 -0.3765
   93SAPC  H18X 9074   5.047   2.363   4.326  0.7615  1.3052  3.0043
   93SAPC  H18Y 9075   5.005   2.195   4.337 -0.5055  0.6398 -0.5846
   93SAPC  H18Z 9076   5.175   2.234   4.275  0.2833 -0.3368  0.3226
   94SAPC     N 9077   3.153   1.692   6.658  0.1340  0.1563 -0.0459
   94SAPC   C12 9078   3.121   1.688   6.507 -0.0807  0.0549  0.0620
   94SAPC  H12A 9079   3.206   1.731   6.455  0.8968  1.6305  2.7307
   94SAPC  H12B 9080   3.035   1.751   6.491 -0.5636 -0.3840  0.8627
   94SAPC   C13 9081   3.279   1.614   6.673  0.0102  0.2763  0.2307
   94SAPC  H13A 9082   3.270   1.511   6.644 -1.8330  0.9260 -1.7066
   94SAPC  H13B 9083   3.350   1.669   6.613  0.4723 -1.1060 -0.5190
   94SAPC  H13C 9084   3.312   1.613   6.776  0.3714 -0.7785  0.1212
   94SAPC   C14 9085   3.179   1.834   6.695  0.5081 -0.3240  0.4802
   94SAPC  H14A 9086   3.219   1.856   6.792  3.5277 -2.1842 -0.2173
   94SAPC  H14B 9087   3.245   1.881   6.624  0.0065  0.7545  0.7171
   94SAPC  H14C 9088   3.087   1.891   6.696  1.7191  1.7562 -0.9742
   94SAPC   C15 9089   3.047   1.626   6.746 -0.3056  0.0185  0.9182
   94SAPC  H15A 9090   2.957   1.687   6.749 -0.8733 -0.7566  0.3248
   94SAPC  H15B 9091   3.014   1.530   6.708  0.2486  0.0953  0.2131
   94SAPC  H15C 9092   3.088   1.618   6.845  2.6941 -1.2949 -0.3091
   94SAPC   C11 9093   3.094   1.552   6.449 -0.6915  0.1339  0.4955
   94SAPC  H11A 9094   3.168   1.473   6.475  1.6093  1.2292 -2.1445
   94SAPC  H11B 9095   3.088   1.556   6.338  0.7614 -1.2082  0.3277
   94SAPC     P 9096   2.825   1.574   6.440 -0.6915 -0.1879  0.5185
   94SAPC   O13 9097   2.715   1.497   6.498 -0.3275  0.2379  0.0361
   94SAPC   O14 9098   2.817   1.718   6.470  0.4194  0.2661  0.1751
   94SAPC   O12 9099   2.964   1.507   6.498  0.1197 -0.2922  0.2513
   94SAPC   O11 9100   2.846   1.553   6.277 -0.1814  0.5638  0.5479
   94SAPC    C1 9101   2.853   1.413   6.242  0.3513  0.1785 -0.0688
   94SAPC    HA 9102   2.943   1.369   6.290  1.0011  0.8754 -0.6041
   94SAPC    HB 9103   2.769   1.349   6.274  1.4087 -0.8156  0.8092
   94SAPC    C2 9104   2.874   1.393   6.092  0.3720 -0.9244  0.1000
   94SAPC    HS 9105   2.968   1.449   6.074  0.0071  0.0258  1.0733
   94SAPC   O21 9106   2.771   1.451   6.013 -0.0683  0.0877 -0.1058
   94SAPC   C21 9107   2.805   1.494   5.892  0.1234 -0.3897  0.2457
   94SAPC   O22 9108   2.917   1.493   5.843 -0.1104  0.0196 -0.4742
   94SAPC   C22 9109   2.680   1.551   5.829 -0.2053 -0.0454 -0.0515
   94SAPC   H2R 9110   2.609   1.466   5.815 -0.3829 -0.2329  1.7865
   94SAPC   H2S 9111   2.624   1.621   5.894  0.1364 -0.3705  0.5964
   94SAPC    C3 9112   2.888   1.238   6.071 -0.3713 -0.2138 -0.4455
   94SAPC    HX 9113   2.781   1.208   6.083 -0.7957  1.5197  0.3608
   94SAPC    HY 9114   2.952   1.188   6.147 -1.2673  0.6317  0.9120
   94SAPC   O31 9115   2.914   1.194   5.942 -0.1267  0.0002  0.4026
   94SAPC   C31 9116   3.029   1.220   5.880 -0.9745 -0.0595 -0.9152
   94SAPC   O32 9117   3.128   1.262   5.931 -0.7072  0.1157  0.3470
   94SAPC   C32 9118   3.013   1.188   5.736  0.5281 -0.4925  0.1576
   94SAPC   H2X 9119   2.921   1.240   5.703 -0.1127 -1.7471 -0.0730
   94SAPC   H2Y 9120   3.005   1.079   5.716  0.1886 -0.8729  2.1482
   94SAPC   C23 9121   2.703   1.619   5.688 -0.6534  0.4707  0.2766
   94SAPC   H3R 9122   2.725   1.539   5.614 -1.4956  0.3502  0.1479
   94SAPC   H3S 9123   2.787   1.691   5.704 -0.1657 -0.1735  0.6613
   94SAPC   C24 9124   2.593   1.715   5.636  0.0223  0.0579 -0.0137
   94SAPC   H4R 9125   2.632   1.758   5.541  1.9213  0.4334  0.8917
   94SAPC   H4S 9126   2.566   1.796   5.707 -0.5823  0.7024 -0.9535
   94SAPC   C25 9127   2.467   1.638   5.612 -0.1936 -0.8410 -0.3859
   94SAPC   H5R 9128   2.474   1.530   5.633  1.5800 -0.6299  0.2862
   94SAPC   C26 9129   2.347   1.681   5.571  0.6851 -0.0393 -0.9283
   94SAPC   H6R 9130   2.264   1.610   5.577 -0.6479  1.5008 -0.2902
   94SAPC   C27 9131   2.310   1.820   5.527 -0.2087 -0.5409 -0.1946
   94SAPC   H7R 9132   2.394   1.893   5.526  1.4916 -2.4179 -0.7512
   94SAPC   H7S 9133   2.242   1.876   5.596  0.9410  1.0730 -0.3123
   94SAPC   C28 9134   2.232   1.832   5.400 -0.1779 -0.5308 -0.3580
   94SAPC   H8R 9135   2.125   1.827   5.425  0.2033 -3.8817  1.1889
   94SAPC   C29 9136   2.268   1.845   5.266  0.1116  0.5036  0.3165
   94SAPC   H9R 9137   2.191   1.861   5.189  0.2315  0.9109  0.2787
   94SAPC  C210 9138   2.409   1.846   5.207  0.4322  0.1921  0.5499
   94SAPC  H10R 9139   2.488   1.863   5.283  0.0307 -0.0577  1.0336
   94SAPC  H10S 9140   2.430   1.935   5.144 -0.4765 -1.0635 -1.6251
   94SAPC  C211 9141   2.440   1.719   5.130  0.2188 -0.1518  0.4696
   94SAPC  H11R 9142   2.478   1.646   5.202  0.5627 -0.2059  0.2319
   94SAPC  C212 9143   2.440   1.691   4.999  0.1735 -0.0663 -0.0188
   94SAPC  H12R 9144   2.484   1.593   4.976 -0.0778 -0.6326  1.7970
   94SAPC  C213 9145   2.403   1.777   4.879  0.0683 -0.0151  0.3711
   94SAPC  H13R 9146   2.486   1.786   4.806  1.8358 -1.6291  2.0749
   94SAPC  H13S 9147   2.390   1.884   4.908 -0.7583  1.7407 -5.2145
   94SAPC  C214 9148   2.280   1.717   4.818  1.0224  0.7975  0.2293
   94SAPC  H14R 9149   2.270   1.608   4.818 -0.3355  0.9051  0.8171
   94SAPC  C215 9150   2.190   1.770   4.733  0.0305 -0.2034  0.2156
   94SAPC  H15R 9151   2.106   1.710   4.693 -0.8400  2.4695 -2.3750
   94SAPC  C216 9152   2.168   1.920   4.701 -0.1289  0.1833  0.0969
   94SAPC  H16R 9153   2.231   1.983   4.767 -1.2887  0.3151  1.1256
   94SAPC  H16S 9154   2.066   1.959   4.721  0.1345 -0.0567  2.1159
   94SAPC  C217 9155   2.196   1.942   4.555  0.2508 -0.0739  0.6328
   94SAPC  H17R 9156   2.126   1.878   4.497 -1.5858  1.6761  0.7951
   94SAPC  H17S 9157   2.296   1.900   4.533  0.0195 -1.1157  1.4749
   94SAPC  C218 9158   2.183   2.084   4.510 -0.1450 -0.1280  0.2758
   94SAPC  H18R 9159   2.259   2.156   4.548  0.3294 -0.5670  0.1651
   94SAPC  H18S 9160   2.091   2.112   4.566 -1.8008  0.0965 -2.3590
   94SAPC  C219 9161   2.150   2.106   4.361  0.1815  1.3037  0.0448
   94SAPC  H19R 9162   2.098   2.203   4.348 -0.2322  1.0513 -0.1827
   94SAPC  H19S 9163   2.082   2.024   4.330  2.3352 -0.6206  0.1333
   94SAPC  C220 9164   2.273   2.099   4.271 -0.2582 -0.3774 -0.3140
   94SAPC  H20R 9165   2.248   2.147   4.173 -0.4117  0.3406  0.0673
   94SAPC  H20S 9166   2.307   1.994   4.264 -1.1927 -0.7074 -0.0507
   94SAPC  H20T 9167   2.359   2.154   4.315  1.1591 -1.4809 -1.6076
   94SAPC   C33 9168   3.132   1.232   5.641  0.5931 -0.0256 -0.2279
   94SAPC   H3X 9169   3.222   1.175   5.671  0.5221 -0.2317 -0.4132
   94SAPC   H3Y 9170   3.146   1.342   5.649  1.8039 -0.2560  1.2233
   94SAPC   C34 9171   3.089   1.207   5.503  0.0622 -0.7496  0.3637
   94SAPC   H4X 9172   2.993   1.256   5.476 -0.2070 -1.5686 -0.1937
   94SAPC   H4Y 9173   3.079   1.098   5.489  3.3558 -1.1662  0.5467
   94SAPC   C35 9174   3.190   1.270   5.404 -0.0962 -0.0883 -0.0171
   94SAPC   H5X 9175   3.292   1.248   5.443  1.1332 -0.1977 -3.0520
   94SAPC   H5Y 9176   3.167   1.379   5.410 -2.9198 -0.6335  0.7369
   94SAPC   C36 9177   3.174   1.235   5.255  0.3305  0.1163  0.1106
   94SAPC   H6X 9178   3.072   1.254   5.215  0.9136  0.4999 -1.2462
   94SAPC   H6Y 9179   3.186   1.127   5.229 -0.4403  0.0240  0.1058
   94SAPC   C37 9180   3.275   1.311   5.167 -0.1867  0.0711  0.5414
   94SAPC   H7X 9181   3.382   1.296   5.191  0.4110  2.8017 -0.0847
   94SAPC   H7Y 9182   3.243   1.417   5.176 -0.8707 -0.1262  0.5130
   94SAPC   C38 9183   3.275   1.269   5.011  0.2983  0.3769 -0.4801
   94SAPC   H8X 9184   3.174   1.273   4.964  0.2454 -0.8203 -0.5015
   94SAPC   H8Y 9185   3.311   1.164   5.008 -1.9442 -0.4565 -0.4416
   94SAPC   C39 9186   3.363   1.368   4.930  0.0077 -0.4847  0.5190
   94SAPC   H9X 9187   3.468   1.365   4.966 -0.3330  2.9734  2.2709
   94SAPC   H9Y 9188   3.316   1.467   4.949 -0.2255 -0.6233  0.6650
   94SAPC  C310 9189   3.368   1.344   4.785 -0.1893 -0.0856 -0.1040
   94SAPC  H10X 9190   3.436   1.417   4.736 -1.5076  0.0860 -1.7720
   94SAPC  H10Y 9191   3.264   1.355   4.748 -1.1462 -0.6005  2.2408
   94SAPC  C311 9192   3.412   1.204   4.743 -0.2121  0.4132  0.1319
   94SAPC  H11X 9193   3.360   1.121   4.795  0.0810 -0.2858 -0.6634
   94SAPC  H11Y 9194   3.521   1.191   4.763 -0.3922 -0.8230  0.4454
   94SAPC  C312 9195   3.400   1.189   4.597  0.6832 -0.6662 -0.3200
   94SAPC  H12X 9196   3.422   1.281   4.538  0.1448  0.5396  1.3021
   94SAPC  H12Y 9197   3.292   1.168   4.579  0.4040  0.3421  0.1138
   94SAPC  C313 9198   3.480   1.075   4.531 -0.6753  0.9381  0.5419
   94SAPC  H13X 9199   3.590   1.088   4.541 -0.6405  0.1889  1.3007
   94SAPC  H13Y 9200   3.464   1.074   4.422 -0.4046  0.7103  0.5022
   94SAPC  C314 9201   3.444   0.942   4.588 -0.0703  0.8346 -0.2473
   94SAPC  H14X 9202   3.335   0.926   4.600 -0.1476 -0.2812 -2.0713
   94SAPC  H14Y 9203   3.488   0.943   4.690 -1.4143  1.1609  0.3486
   94SAPC  C315 9204   3.508   0.834   4.498  0.2397  0.7000 -0.3313
   94SAPC  H15X 9205   3.616   0.826   4.519  0.0223 -1.6990  0.2551
   94SAPC  H15Y 9206   3.491   0.842   4.388 -1.6324  0.1578 -0.1276
   94SAPC  C316 9207   3.459   0.695   4.532  0.2795 -0.2154 -0.5544
   94SAPC  H16X 9208   3.518   0.622   4.473 -0.6147 -0.6103 -0.9742
   94SAPC  H16Y 9209   3.359   0.675   4.488 -0.1323 -0.5453  0.4915
   94SAPC  C317 9210   3.460   0.653   4.683  0.0359 -0.3489  0.5732
   94SAPC  H17X 9211   3.371   0.701   4.730 -1.4030 -0.0522 -2.2156
   94SAPC  H17Y 9212   3.548   0.689   4.740 -0.3453  1.0164  0.3478
   94SAPC  C318 9213   3.452   0.500   4.701 -0.8521 -0.4042  0.9942
   94SAPC  H18X 9214   3.471   0.477   4.808  1.9275 -0.1395  0.6382
   94SAPC  H18Y 9215   3.544   0.455   4.659  0.8241  0.6462  3.2754
   94SAPC  H18Z 9216   3.361   0.457   4.655 -0.9929  1.1821 -0.3114
   95SAPC     N 9217   4.153   6.441   2.187 -0.3863 -0.5671  0.0446
   95SAPC   C12 9218   4.141   6.508   2.317 -0.2875 -0.2740 -0.9696
   95SAPC  H12A 9219   4.042   6.545   2.340  0.4382 -0.5094  3.4616
   95SAPC  H12B 9220   4.199   6.599   2.311 -0.8807  0.0487 -1.9712
   95SAPC   C13 9221   4.075   6.520   2.084 -0.6520 -0.3770  0.8499
   95SAPC  H13A 9222   4.056   6.463   1.994 -2.1820  0.8977  0.3179
   95SAPC  H13B 9223   3.974   6.537   2.118 -1.2461 -1.0167 -0.4953
   95SAPC  H13C 9224   4.122   6.614   2.059 -0.9457 -1.3011 -4.2732
   95SAPC   C14 9225   4.297   6.415   2.156  0.3708 -0.4350 -0.8467
   95SAPC  H14A 9226   4.325   6.347   2.235 -1.0575 -0.7819 -0.6137
   95SAPC  H14B 9227   4.305   6.351   2.069 -0.2255 -0.8565 -0.5953
   95SAPC  H14C 9228   4.358   6.504   2.159 -1.3951  0.7902  1.3831
   95SAPC   C15 9229   4.096   6.300   2.189  0.2379 -0.0384  0.4545
   95SAPC  H15A 9230   3.992   6.300   2.217  0.3870 -1.3752  1.0430
   95SAPC  H15B 9231   4.098   6.253   2.092 -0.7631  0.7312  0.0446
   95SAPC  H15C 9232   4.153   6.235   2.254  0.5529 -2.0969 -1.7140
   95SAPC   C11 9233   4.197   6.441   2.445  0.0480  0.5352 -1.0414
   95SAPC  H11A 9234   4.202   6.522   2.521  1.5874 -0.9760  0.5612
   95SAPC  H11B 9235   4.303   6.406   2.444 -0.7354 -2.3505  1.8745
   95SAPC     P 9236   4.143   6.264   2.622  0.2526  0.2823  0.0714
   95SAPC   O13 9237   4.031   6.171   2.661  0.1576 -0.3729  0.5582
   95SAPC   O14 9238   4.273   6.202   2.610 -0.2589  0.4055 -0.0346
   95SAPC   O12 9239   4.111   6.343   2.489  0.2001 -0.1566 -0.1229
   95SAPC   O11 9240   4.138   6.378   2.739  0.0686  0.4653  0.0176
   95SAPC    C1 9241   4.256   6.438   2.789  0.5649  0.1174 -0.7718
   95SAPC    HA 9242   4.350   6.385   2.761 -0.9726 -2.6457 -1.0508
   95SAPC    HB 9243   4.273   6.541   2.751 -0.4319  1.5785  2.4216
   95SAPC    C2 9244   4.252   6.477   2.940  0.1522  0.0509  0.1052
   95SAPC    HS 9245   4.347   6.532   2.955  0.4043  0.1312 -1.6138
   95SAPC   O21 9246   4.244   6.373   3.037  0.3401  0.5278  0.0827
   95SAPC   C21 9247   4.307   6.259   3.021 -0.5268 -0.1659 -0.6266
   95SAPC   O22 9248   4.396   6.227   2.942  0.2039 -0.3400 -0.4719
   95SAPC   C22 9249   4.246   6.165   3.121 -0.0333 -0.3556 -0.5300
   95SAPC   H2R 9250   4.312   6.161   3.210  0.9630  3.2639 -0.9328
   95SAPC   H2S 9251   4.148   6.211   3.143 -0.6684 -1.2322 -1.4621
   95SAPC    C3 9252   4.141   6.579   2.965 -0.2742 -0.2391 -0.1357
   95SAPC    HX 9253   4.041   6.532   2.953 -2.0420  3.2663 -0.2022
   95SAPC    HY 9254   4.154   6.660   2.890  2.1000  0.7816  1.2525
   95SAPC   O31 9255   4.149   6.632   3.099 -0.6461 -0.3592  0.0461
   95SAPC   C31 9256   4.072   6.732   3.127  0.0076 -0.1461  0.8274
   95SAPC   O32 9257   4.002   6.794   3.045 -0.5240  0.4668 -0.2756
   95SAPC   C32 9258   4.050   6.736   3.277  0.1192 -0.3714 -0.0628
   95SAPC   H2X 9259   4.138   6.781   3.327 -0.5730 -0.1812  1.0161
   95SAPC   H2Y 9260   4.041   6.632   3.313  1.2696  0.0822  1.6518
   95SAPC   C23 9261   4.203   6.032   3.054 -0.0961  0.2854 -0.0516
   95SAPC   H3R 9262   4.292   5.990   3.002 -1.1097 -0.6206 -1.1185
   95SAPC   H3S 9263   4.136   6.057   2.969 -0.5627 -1.1629 -0.1307
   95SAPC   C24 9264   4.142   5.939   3.167 -0.3523  0.6542 -0.4561
   95SAPC   H4R 9265   4.214   5.924   3.251 -1.0224 -2.5099 -0.3062
   95SAPC   H4S 9266   4.137   5.835   3.129  1.4251  0.1723  0.5251
   95SAPC   C25 9267   4.010   5.995   3.215 -0.6371 -0.1561 -0.1758
   95SAPC   H5R 9268   3.925   5.996   3.146 -1.5466 -0.0489  0.9239
   95SAPC   C26 9269   3.976   6.030   3.341  0.3453 -0.3331 -0.0171
   95SAPC   H6R 9270   3.877   6.076   3.353 -0.8149 -2.1282 -2.1302
   95SAPC   C27 9271   4.076   6.051   3.449  0.4779 -0.5644 -1.1757
   95SAPC   H7R 9272   4.089   6.161   3.452  0.7015 -0.6075  0.7122
   95SAPC   H7S 9273   4.180   6.018   3.428  0.2071 -1.1019 -1.6889
   95SAPC   C28 9274   4.029   5.996   3.587 -0.5335 -0.5247 -0.2399
   95SAPC   H8R 9275   3.921   5.976   3.588 -0.6265 -0.0536 -0.6690
   95SAPC   C29 9276   4.109   5.970   3.698 -0.5319 -0.4087  0.2229
   95SAPC   H9R 9277   4.057   5.953   3.793  1.2507  0.3748  1.4090
   95SAPC  C210 9278   4.258   5.991   3.701 -0.0750  0.4814 -0.0988
   95SAPC  H10R 9279   4.294   6.077   3.640  1.3102 -0.8579 -1.2768
   95SAPC  H10S 9280   4.291   5.900   3.647  0.0591 -0.5956  1.7172
   95SAPC  C211 9281   4.328   5.980   3.836 -0.1359  0.2125  0.0286
   95SAPC  H11R 9282   4.422   5.923   3.836  0.0910  0.4847  2.2681
   95SAPC  C212 9283   4.297   6.041   3.950 -0.7133  0.1526 -0.5692
   95SAPC  H12R 9284   4.356   6.007   4.037 -2.0956 -0.0474  0.3224
   95SAPC  C213 9285   4.188   6.139   3.989 -0.3149 -0.0912  0.1627
   95SAPC  H13R 9286   4.125   6.092   4.068 -2.6616  0.9282 -0.9939
   95SAPC  H13S 9287   4.124   6.163   3.901  0.0840 -0.2906 -0.1824
   95SAPC  C214 9288   4.239   6.269   4.045 -0.7768 -0.1414 -0.1235
   95SAPC  H14R 9289   4.279   6.272   4.147  0.5840  1.0532 -0.6533
   95SAPC  C215 9290   4.224   6.388   3.990  0.1645  0.5758 -0.3861
   95SAPC  H15R 9291   4.289   6.468   4.030  1.3451 -1.2874  1.6385
   95SAPC  C216 9292   4.162   6.417   3.857 -0.1178  0.0813  0.5555
   95SAPC  H16R 9293   4.106   6.513   3.863 -0.0430  0.2601 -1.2113
   95SAPC  H16S 9294   4.083   6.347   3.824 -1.4885  2.0129 -0.4417
   95SAPC  C217 9295   4.270   6.414   3.746  0.0190  0.9596  0.0771
   95SAPC  H17R 9296   4.309   6.310   3.752 -0.2095  0.9646  2.3768
   95SAPC  H17S 9297   4.355   6.484   3.765  2.9814 -1.3097 -3.3972
   95SAPC  C218 9298   4.221   6.417   3.604 -0.2532  1.0611 -0.5062
   95SAPC  H18R 9299   4.165   6.512   3.588 -1.0566  0.7238  0.2276
   95SAPC  H18S 9300   4.147   6.336   3.589  0.4149  0.7395 -2.3184
   95SAPC  C219 9301   4.336   6.400   3.493  0.6186 -0.1920 -0.9562
   95SAPC  H19R 9302   4.370   6.294   3.489 -1.8070 -1.0919  0.2772
   95SAPC  H19S 9303   4.425   6.461   3.521  0.2596  0.4300 -1.1380
   95SAPC  C220 9304   4.296   6.441   3.353 -0.7384 -1.2533  0.0583
   95SAPC  H20R 9305   4.218   6.377   3.307 -2.8461  0.0245  1.6804
   95SAPC  H20S 9306   4.384   6.448   3.286 -0.1551  1.6203  0.9783
   95SAPC  H20T 9307   4.261   6.546   3.362 -1.0645 -1.4068  0.6604
   95SAPC   C33 9308   3.931   6.819   3.337  0.0385 -0.3642  0.8427
   95SAPC   H3X 9309   3.835   6.770   3.309  0.6372 -0.4099 -1.3212
   95SAPC   H3Y 9310   3.929   6.917   3.285  1.1879 -1.4078 -1.3129
   95SAPC   C34 9311   3.945   6.840   3.491 -0.3890 -0.8885  0.2885
   95SAPC   H4X 9312   4.033   6.907   3.506 -0.5785 -0.9180  1.6793
   95SAPC   H4Y 9313   3.968   6.741   3.535  0.6597 -0.7484  0.0871
   95SAPC   C35 9314   3.817   6.901   3.559 -0.3666  0.2952  0.4493
   95SAPC   H5X 9315   3.733   6.848   3.508  1.6986 -1.1131 -1.7614
   95SAPC   H5Y 9316   3.804   7.007   3.530 -0.9051 -0.1013 -0.8654
   95SAPC   C36 9317   3.803   6.886   3.708 -0.2456 -0.6894  0.2108
   95SAPC   H6X 9318   3.822   6.779   3.733  0.5275 -0.6128 -0.0341
   95SAPC   H6Y 9319   3.699   6.908   3.738 -1.6030 -1.2997 -3.4868
   95SAPC   C37 9320   3.907   6.970   3.784  0.1788  0.5762  0.0024
   95SAPC   H7X 9321   3.902   7.074   3.745 -2.5579  1.4616  2.3733
   95SAPC   H7Y 9322   4.008   6.924   3.776  0.2947  0.4646  1.7294
   95SAPC   C38 9323   3.880   6.974   3.933  0.2709 -0.3405 -0.4632
   95SAPC   H8X 9324   3.960   7.038   3.977 -0.3252 -0.4341  0.8139
   95SAPC   H8Y 9325   3.887   6.876   3.984 -1.1315 -0.1660  0.1278
   95SAPC   C39 9326   3.753   7.049   3.980 -0.1435  0.3624  0.1430
   95SAPC   H9X 9327   3.665   7.001   3.933  0.2467 -1.4015  1.1244
   95SAPC   H9Y 9328   3.769   7.150   3.937 -1.3900  1.8112  2.7895
   95SAPC  C310 9329   3.746   7.055   4.137 -0.1576  0.4209  0.8850
   95SAPC  H10X 9330   3.831   7.118   4.171  0.8172  0.4964 -1.5186
   95SAPC  H10Y 9331   3.763   6.951   4.172 -1.0126 -0.4392 -1.1252
   95SAPC  C311 9332   3.613   7.101   4.192 -0.0200  0.0468  0.5245
   95SAPC  H11X 9333   3.527   7.038   4.161 -0.3882  0.1818  1.2676
   95SAPC  H11Y 9334   3.595   7.204   4.154  0.0169 -0.5132 -1.0999
   95SAPC  C312 9335   3.592   7.123   4.348  0.0762  0.5018  0.9525
   95SAPC  H12X 9336   3.525   7.211   4.358  0.0199  1.0845 -2.8504
   95SAPC  H12Y 9337   3.684   7.158   4.399  0.0902  1.8626  0.0634
   95SAPC  C313 9338   3.527   7.001   4.412  0.5379  0.0734 -0.7859
   95SAPC  H13X 9339   3.593   6.911   4.407  2.3978  1.4325 -2.3197
   95SAPC  H13Y 9340   3.438   6.973   4.351 -0.6790 -0.6071  1.2246
   95SAPC  C314 9341   3.477   7.024   4.556 -0.8785  0.2386  0.6037
   95SAPC  H14X 9342   3.430   6.934   4.600  0.2605  0.2290  1.8727
   95SAPC  H14Y 9343   3.408   7.111   4.554  0.7779  1.5877 -0.1873
   95SAPC  C315 9344   3.600   7.049   4.643 -0.3984  0.2106  0.0543
   95SAPC  H15X 9345   3.631   7.155   4.627 -1.8699  0.5295 -0.8929
   95SAPC  H15Y 9346   3.678   6.975   4.615 -0.1404  1.4092 -2.6464
   95SAPC  C316 9347   3.572   7.045   4.788 -0.4341 -0.3918 -0.1458
   95SAPC  H16X 9348   3.531   6.947   4.823  0.0561 -0.3076  0.6661
   95SAPC  H16Y 9349   3.503   7.129   4.808 -0.6764 -0.4802 -0.5931
   95SAPC  C317 9350   3.689   7.074   4.883 -0.3584 -0.0946 -0.1860
   95SAPC  H17X 9351   3.745   6.982   4.911  1.4334  1.3620  1.2722
   95SAPC  H17Y 9352   3.656   7.123   4.977 -0.7948 -0.9424  0.1099
   95SAPC  C318 9353   3.788   7.179   4.835 -1.1190  0.0318 -0.0151
   95SAPC  H18X 9354   3.891   7.173   4.878 -0.1599 -2.3393 -2.3516
   95SAPC  H18Y 9355   3.744   7.281   4.843  2.4885  1.6817  1.4024
   95SAPC  H18Z 9356   3.807   7.177   4.726  3.3201 -1.3063  0.5510
   96SAPC     N 9357   2.679   2.672   1.972 -0.5520 -0.0633  0.1486
   96SAPC   C12 9358   2.685   2.768   2.087 -0.5495  0.3103 -0.7090
   96SAPC  H12A 9359   2.705   2.717   2.180  3.6714  3.4346  0.4094
   96SAPC  H12B 9360   2.585   2.804   2.110  0.5915  5.0264 -1.9003
   96SAPC   C13 9361   2.808   2.602   1.945 -0.0217 -0.0464 -0.1912
   96SAPC  H13A 9362   2.836   2.540   2.029 -0.9180 -0.6972 -0.3567
   96SAPC  H13B 9363   2.799   2.538   1.858 -0.2645  0.9451 -0.9042
   96SAPC  H13C 9364   2.885   2.676   1.928  0.2017 -0.3635 -0.5926
   96SAPC   C14 9365   2.582   2.563   1.998 -0.1745  0.3752  0.0232
   96SAPC  H14A 9366   2.613   2.498   2.078 -0.2176 -0.4088 -0.5852
   96SAPC  H14B 9367   2.490   2.605   2.035  0.0996  0.9556  0.0645
   96SAPC  H14C 9368   2.563   2.501   1.911 -0.2518  0.3082  0.0875
   96SAPC   C15 9369   2.633   2.742   1.850  0.2728 -0.4802  0.0183
   96SAPC  H15A 9370   2.711   2.806   1.811  0.8074 -1.4351 -0.5224
   96SAPC  H15B 9371   2.608   2.677   1.768 -0.1289  0.2935 -0.4893
   96SAPC  H15C 9372   2.544   2.801   1.866  1.4382  1.1124  1.0047
   96SAPC   C11 9373   2.766   2.896   2.077 -0.2633  0.0241  0.2682
   96SAPC  H11A 9374   2.774   2.944   2.177 -0.3206  0.2509  0.1656
   96SAPC  H11B 9375   2.704   2.967   2.017 -1.7788 -0.3739  1.3051
   96SAPC     P 9376   3.028   2.858   2.098 -0.0319 -0.4312 -0.2441
   96SAPC   O13 9377   3.062   2.715   2.081  0.1071  0.4565  0.6552
   96SAPC   O14 9378   3.134   2.953   2.043  0.2004  0.3539  0.3957
   96SAPC   O12 9379   2.897   2.873   2.017 -0.3823  0.3045  0.2299
   96SAPC   O11 9380   2.998   2.892   2.245  0.0383  0.2109 -0.1677
   96SAPC    C1 9381   2.946   2.801   2.348  0.1369  0.0545 -0.1211
   96SAPC    HA 9382   2.846   2.835   2.384  0.2816  1.0067 -0.5763
   96SAPC    HB 9383   2.932   2.698   2.310 -3.5772  0.6118 -0.6633
   96SAPC    C2 9384   3.043   2.792   2.473  0.9969 -0.0437 -0.1955
   96SAPC    HS 9385   3.147   2.795   2.434  0.1235  0.3196 -2.6818
   96SAPC   O21 9386   3.009   2.683   2.560 -0.2954  0.8691  0.1970
   96SAPC   C21 9387   3.047   2.564   2.523  0.2742  0.9295 -0.0609
   96SAPC   O22 9388   3.102   2.537   2.420  0.7906  0.1117  0.2868
   96SAPC   C22 9389   3.003   2.454   2.624 -0.6214  0.7952  0.6888
   96SAPC   H2R 9390   2.943   2.489   2.710 -0.6616 -1.5140  1.6711
   96SAPC   H2S 9391   2.933   2.383   2.575 -0.5309 -0.0530  1.7564
   96SAPC    C3 9392   3.039   2.925   2.552 -0.2223  0.6075 -0.0000
   96SAPC    HX 9393   2.937   2.966   2.557 -1.1948 -1.7624  1.5723
   96SAPC    HY 9394   3.093   3.001   2.492  0.1835  0.5360  0.2665
   96SAPC   O31 9395   3.092   2.915   2.688 -0.8932  0.1991 -0.3638
   96SAPC   C31 9396   3.223   2.878   2.707  0.0325 -0.5883 -0.6109
   96SAPC   O32 9397   3.303   2.854   2.618 -0.0005  0.3180 -0.2635
   96SAPC   C32 9398   3.258   2.881   2.853 -0.5473  0.3136 -0.4645
   96SAPC   H2X 9399   3.246   2.776   2.889  0.5362  0.7268  1.1984
   96SAPC   H2Y 9400   3.172   2.923   2.908 -1.0997  0.6680 -1.5769
   96SAPC   C23 9401   3.118   2.367   2.689 -1.0894  0.5351  0.2675
   96SAPC   H3R 9402   3.184   2.319   2.614 -0.6976  0.8672  0.3975
   96SAPC   H3S 9403   3.065   2.285   2.742 -1.4496 -0.4526 -1.5182
   96SAPC   C24 9404   3.211   2.459   2.779  0.4584  0.1572  0.4543
   96SAPC   H4R 9405   3.262   2.528   2.708 -0.2462 -1.4145 -1.6945
   96SAPC   H4S 9406   3.285   2.381   2.810  1.0927 -0.0038 -1.3200
   96SAPC   C25 9407   3.142   2.518   2.897 -0.2258  0.1227 -0.3618
   96SAPC   H5R 9408   3.048   2.570   2.871 -1.9368 -2.4389  0.3402
   96SAPC   C26 9409   3.182   2.519   3.023  0.5428  0.1374 -0.9550
   96SAPC   H6R 9410   3.117   2.568   3.097  1.2994 -2.4163  1.5911
   96SAPC   C27 9411   3.305   2.476   3.097  0.0425  0.2671  0.1413
   96SAPC   H7R 9412   3.346   2.570   3.138 -0.9469  0.1062  1.5764
   96SAPC   H7S 9413   3.380   2.430   3.029  0.6337 -0.3047  1.1452
   96SAPC   C28 9414   3.258   2.375   3.203  0.4995 -0.3597  0.8093
   96SAPC   H8R 9415   3.169   2.314   3.182  0.1582 -0.7363  3.1683
   96SAPC   C29 9416   3.304   2.368   3.328  0.0041 -0.5520 -0.8347
   96SAPC   H9R 9417   3.262   2.293   3.396  1.3316  0.4865  1.2223
   96SAPC  C210 9418   3.428   2.434   3.375  0.5622 -0.0044 -0.3964
   96SAPC  H10R 9419   3.390   2.527   3.422 -0.5925 -0.9386  0.5833
   96SAPC  H10S 9420   3.493   2.473   3.293  1.2320 -0.5757 -0.1462
   96SAPC  C211 9421   3.517   2.367   3.473 -0.2169 -0.2666 -0.3494
   96SAPC  H11R 9422   3.616   2.347   3.431  0.8673 -0.1207  1.9942
   96SAPC  C212 9423   3.500   2.354   3.605 -0.0149  0.1592 -0.1157
   96SAPC  H12R 9424   3.576   2.311   3.672  0.2976 -0.2584 -0.7300
   96SAPC  C213 9425   3.374   2.400   3.679  0.0715 -0.3646  0.5056
   96SAPC  H13R 9426   3.285   2.370   3.619  0.8343 -1.3089 -0.1895
   96SAPC  H13S 9427   3.372   2.511   3.684  1.5301 -0.0843 -2.6463
   96SAPC  C214 9428   3.362   2.333   3.816  0.3242  0.1530 -0.0673
   96SAPC  H14R 9429   3.308   2.238   3.820  1.3655 -0.4320  0.5971
   96SAPC  C215 9430   3.435   2.362   3.922 -0.4702  0.4158 -0.1182
   96SAPC  H15R 9431   3.420   2.300   4.011 -1.1232 -0.1233 -0.5855
   96SAPC  C216 9432   3.523   2.482   3.938  0.2248  0.1115  0.1557
   96SAPC  H16R 9433   3.475   2.567   3.885 -0.6951  0.5198  1.5956
   96SAPC  H16S 9434   3.627   2.457   3.906  0.7533  0.2656  1.6954
   96SAPC  C217 9435   3.532   2.516   4.092 -0.2978  0.1366  0.7692
   96SAPC  H17R 9436   3.431   2.514   4.137 -0.5836  1.2756  0.2266
   96SAPC  H17S 9437   3.583   2.613   4.111 -1.8575  0.8584  1.4500
   96SAPC  C218 9438   3.607   2.403   4.160 -0.2591  0.1853  0.6297
   96SAPC  H18R 9439   3.716   2.397   4.137 -0.4749 -0.5404 -0.2457
   96SAPC  H18S 9440   3.570   2.301   4.138  0.4684  0.2438 -1.0576
   96SAPC  C219 9441   3.588   2.398   4.319  1.1463  0.6001 -0.6221
   96SAPC  H19R 9442   3.479   2.381   4.324  0.5075  3.9452 -1.1814
   96SAPC  H19S 9443   3.609   2.493   4.373  1.1929 -1.0054  2.3872
   96SAPC  C220 9444   3.657   2.281   4.392 -0.5565 -0.2157 -0.0129
   96SAPC  H20R 9445   3.681   2.192   4.332 -0.0047 -1.3215  1.7602
   96SAPC  H20S 9446   3.600   2.249   4.482 -0.2343  0.3618  0.4064
   96SAPC  H20T 9447   3.750   2.324   4.437 -2.0244  1.1055  1.9820
   96SAPC   C33 9448   3.401   2.935   2.886 -0.2969 -0.2208  0.2197
   96SAPC   H3X 9449   3.424   3.011   2.809 -2.0858 -1.3649 -1.5324
   96SAPC   H3Y 9450   3.471   2.849   2.876  0.0583  0.1427 -0.4514
   96SAPC   C34 9451   3.418   2.982   3.036 -0.1753 -0.3838 -0.2388
   96SAPC   H4X 9452   3.341   3.061   3.048 -0.9291 -0.9998 -0.8683
   96SAPC   H4Y 9453   3.525   3.010   3.046  0.9443 -4.1799  0.2372
   96SAPC   C35 9454   3.386   2.878   3.135 -0.2416 -0.5192 -0.0874
   96SAPC   H5X 9455   3.448   2.786   3.135  0.0652 -0.3227 -1.0973
   96SAPC   H5Y 9456   3.278   2.863   3.115 -0.0057  0.4521 -2.4042
   96SAPC   C36 9457   3.409   2.931   3.281 -0.0649  0.0530 -0.1362
   96SAPC   H6X 9458   3.339   3.016   3.294 -0.0304  0.1366 -0.4975
   96SAPC   H6Y 9459   3.511   2.976   3.281  0.0822 -0.2547  0.7244
   96SAPC   C37 9460   3.398   2.837   3.403  0.3077 -0.7605 -0.2719
   96SAPC   H7X 9461   3.485   2.769   3.389 -1.0015 -2.8575  1.2154
   96SAPC   H7Y 9462   3.305   2.777   3.396 -0.6346  0.7013 -0.8287
   96SAPC   C38 9463   3.401   2.919   3.536  0.7041  0.1315  0.6896
   96SAPC   H8X 9464   3.300   2.950   3.570  0.7574  1.6036 -0.4021
   96SAPC   H8Y 9465   3.460   3.011   3.518 -2.2331  2.1144  0.5314
   96SAPC   C39 9466   3.456   2.830   3.648 -0.4100 -0.6338  0.8219
   96SAPC   H9X 9467   3.566   2.825   3.634 -0.5413 -1.1141 -0.1458
   96SAPC   H9Y 9468   3.414   2.729   3.626  0.5422 -0.8221 -0.2289
   96SAPC  C310 9469   3.423   2.871   3.784 -0.1979  0.6773 -0.1584
   96SAPC  H10X 9470   3.474   2.801   3.854 -2.1407 -0.5048  0.1526
   96SAPC  H10Y 9471   3.314   2.852   3.797 -0.0907 -2.0148 -2.2516
   96SAPC  C311 9472   3.440   3.014   3.819  0.6880  0.3625 -0.6126
   96SAPC  H11X 9473   3.360   3.070   3.766 -0.4194 -0.4024  0.1736
   96SAPC  H11Y 9474   3.543   3.048   3.799  0.4894  0.6073 -1.2442
   96SAPC  C312 9475   3.409   3.045   3.968  0.4349 -0.3684  0.1248
   96SAPC  H12X 9476   3.477   2.994   4.040  0.7047  2.0905  1.7609
   96SAPC  H12Y 9477   3.303   3.024   3.995  0.1713 -0.4698 -0.9527
   96SAPC  C313 9478   3.456   3.193   4.005 -0.3121 -0.2448  0.7181
   96SAPC  H13X 9479   3.430   3.248   3.912 -0.4029 -1.6614 -0.1203
   96SAPC  H13Y 9480   3.567   3.190   4.016  0.1944  0.7235 -2.8746
   96SAPC  C314 9481   3.372   3.250   4.112  0.0162  0.0756  0.3011
   96SAPC  H14X 9482   3.262   3.241   4.098 -0.0856  0.4810  0.7988
   96SAPC  H14Y 9483   3.387   3.360   4.117  0.3824 -0.0000  1.0372
   96SAPC  C315 9484   3.410   3.203   4.252  0.5254  0.1332  0.5745
   96SAPC  H15X 9485   3.381   3.097   4.267  0.8553 -0.0958 -0.2895
   96SAPC  H15Y 9486   3.352   3.258   4.329  0.1542  2.2468 -1.1203
   96SAPC  C316 9487   3.559   3.202   4.287  0.4547 -0.0999  0.5258
   96SAPC  H16X 9488   3.607   3.129   4.219 -0.0947  0.7667 -0.8266
   96SAPC  H16Y 9489   3.578   3.156   4.386  0.5501 -1.7396 -0.2323
   96SAPC  C317 9490   3.615   3.343   4.277 -0.4247 -0.5366  0.5881
   96SAPC  H17X 9491   3.574   3.405   4.359 -1.8734 -2.0664  1.0975
   96SAPC  H17Y 9492   3.591   3.391   4.180  0.3291 -1.9425 -0.3269
   96SAPC  C318 9493   3.762   3.347   4.303  0.4586 -0.4759 -0.5951
   96SAPC  H18X 9494   3.785   3.329   4.410  1.3563 -1.0443 -0.8664
   96SAPC  H18Y 9495   3.820   3.435   4.268  3.4642 -2.0210  0.1358
   96SAPC  H18Z 9496   3.809   3.260   4.253  1.4858 -0.2969  0.0247
   97SAPC     N 9497   3.091   1.343   2.243  0.3018 -0.5127  0.1443
   97SAPC   C12 9498   3.161   1.380   2.113  0.4153 -0.2313  0.2943
   97SAPC  H12A 9499   3.155   1.487   2.101  2.2522 -0.1040  0.1903
   97SAPC  H12B 9500   3.107   1.346   2.026  1.3920  0.1907 -0.4969
   97SAPC   C13 9501   3.093   1.463   2.337 -0.0792 -0.1444 -0.5151
   97SAPC  H13A 9502   3.194   1.500   2.344 -0.8972  3.1882 -3.3720
   97SAPC  H13B 9503   3.026   1.541   2.301 -2.0935 -2.7965 -3.0086
   97SAPC  H13C 9504   3.071   1.438   2.440  2.0342  1.0284  0.2848
   97SAPC   C14 9505   2.938   1.334   2.213  0.6049 -0.5725 -0.3844
   97SAPC  H14A 9506   2.919   1.249   2.149  1.8170 -0.8595 -0.3912
   97SAPC  H14B 9507   2.883   1.315   2.304  2.2973  0.7965  0.9844
   97SAPC  H14C 9508   2.886   1.418   2.171 -0.6370 -0.5329  1.1363
   97SAPC   C15 9509   3.148   1.221   2.302  0.5557  0.3675 -0.7752
   97SAPC  H15A 9510   3.256   1.233   2.299  0.5422  0.6929 -4.3451
   97SAPC  H15B 9511   3.124   1.214   2.407 -1.0501  1.9260 -0.9918
   97SAPC  H15C 9512   3.125   1.128   2.253 -1.8356  0.1038  0.6906
   97SAPC   C11 9513   3.305   1.324   2.101  0.6952  0.2444  0.0726
   97SAPC  H11A 9514   3.344   1.356   2.002  0.8752 -0.9136 -0.2491
   97SAPC  H11B 9515   3.281   1.216   2.090 -1.1247  0.6003  0.2017
   97SAPC     P 9516   3.494   1.464   2.198 -0.2276 -0.0640 -0.1128
   97SAPC   O13 9517   3.629   1.420   2.150  0.2862 -0.1366 -0.1406
   97SAPC   O14 9518   3.439   1.586   2.138  0.1213 -0.2605  0.3095
   97SAPC   O12 9519   3.394   1.354   2.208  0.3315 -0.5637  0.5880
   97SAPC   O11 9520   3.511   1.492   2.357  0.1636 -0.0696  0.5926
   97SAPC    C1 9521   3.484   1.380   2.445  0.2408 -0.4063 -0.6217
   97SAPC    HA 9522   3.378   1.350   2.426 -0.2641  1.6655 -1.3520
   97SAPC    HB 9523   3.566   1.306   2.433  1.7530  0.7624  1.7962
   97SAPC    C2 9524   3.490   1.420   2.601 -0.2139 -0.2440 -0.0679
   97SAPC    HS 9525   3.418   1.362   2.663 -1.7488 -0.2023 -1.7470
   97SAPC   O21 9526   3.460   1.557   2.624 -0.1657  0.2827  0.0235
   97SAPC   C21 9527   3.338   1.592   2.584 -0.1794  0.2702  0.4119
   97SAPC   O22 9528   3.237   1.522   2.575  0.2639  0.4157 -0.0642
   97SAPC   C22 9529   3.346   1.743   2.548  0.4887  0.9655  0.0716
   97SAPC   H2R 9530   3.407   1.797   2.623  1.0443  0.2425  0.1467
   97SAPC   H2S 9531   3.395   1.748   2.448  3.7194 -0.1833  1.4639
   97SAPC    C3 9532   3.630   1.403   2.666  0.5034  0.2529  0.5363
   97SAPC    HX 9533   3.704   1.456   2.602  0.1034  0.9504  0.6507
   97SAPC    HY 9534   3.664   1.297   2.658  0.3644  0.1740  0.9705
   97SAPC   O31 9535   3.645   1.445   2.803  0.5087 -0.0046 -0.2887
   97SAPC   C31 9536   3.613   1.352   2.892  0.7214  0.2383  0.9308
   97SAPC   O32 9537   3.575   1.242   2.863  0.3966  0.8794 -0.1673
   97SAPC   C32 9538   3.596   1.419   3.022  0.3656  0.0082 -0.2575
   97SAPC   H2X 9539   3.518   1.369   3.083 -0.4685  2.1740  0.5450
   97SAPC   H2Y 9540   3.562   1.524   3.007  1.3182  0.3962  0.1985
   97SAPC   C23 9541   3.219   1.824   2.522  0.8499 -0.2542 -0.4737
   97SAPC   H3R 9542   3.156   1.784   2.440 -0.3246 -1.2074  0.8591
   97SAPC   H3S 9543   3.266   1.919   2.488  1.1427 -0.0145  0.5405
   97SAPC   C24 9544   3.124   1.851   2.646 -0.8163  0.0637  0.8038
   97SAPC   H4R 9545   3.090   1.755   2.691 -2.1926  0.3635  0.4454
   97SAPC   H4S 9546   3.034   1.890   2.594 -0.7711 -0.3404  0.4119
   97SAPC   C25 9547   3.196   1.944   2.737  0.2108 -0.4283 -0.2573
   97SAPC   H5R 9548   3.177   2.048   2.707  0.6734 -0.9130 -2.3920
   97SAPC   C26 9549   3.242   1.931   2.860  0.2391 -0.1556  0.5647
   97SAPC   H6R 9550   3.273   2.027   2.905  0.0564 -0.3745  1.1638
   97SAPC   C27 9551   3.232   1.816   2.947 -0.5036 -1.0863  0.2830
   97SAPC   H7R 9552   3.208   1.723   2.891 -0.0533 -1.3910  0.5884
   97SAPC   H7S 9553   3.138   1.825   3.005 -1.0472  0.3308 -0.7650
   97SAPC   C28 9554   3.359   1.801   3.026 -0.3214 -0.3054 -0.0582
   97SAPC   H8R 9555   3.445   1.857   2.987 -1.9138  2.0012 -0.4453
   97SAPC   C29 9556   3.367   1.718   3.133 -0.3276 -0.7065 -0.8447
   97SAPC   H9R 9557   3.464   1.715   3.184 -0.4405 -3.4910 -0.6414
   97SAPC  C210 9558   3.254   1.655   3.213  0.0937 -0.1463 -0.1763
   97SAPC  H10R 9559   3.170   1.728   3.217  1.0079  0.9590 -0.3972
   97SAPC  H10S 9560   3.291   1.642   3.317 -1.8743  0.3197  0.6339
   97SAPC  C211 9561   3.216   1.526   3.148 -0.2275 -0.6633 -0.1071
   97SAPC  H11R 9562   3.189   1.528   3.041  1.2579  1.4437 -0.4980
   97SAPC  C212 9563   3.217   1.405   3.207  0.2834 -0.3101  0.0236
   97SAPC  H12R 9564   3.195   1.320   3.141 -1.0903 -1.3017  1.7040
   97SAPC  C213 9565   3.249   1.367   3.354 -0.6561 -0.3412  0.2203
   97SAPC  H13R 9566   3.154   1.336   3.403  0.8898 -3.9612  1.2497
   97SAPC  H13S 9567   3.301   1.451   3.405  0.7249  0.3940 -2.2520
   97SAPC  C214 9568   3.324   1.235   3.359 -0.1554 -0.2448 -0.3455
   97SAPC  H14R 9569   3.354   1.198   3.260  0.5968  2.7715 -1.3703
   97SAPC  C215 9570   3.356   1.170   3.472 -0.6008 -0.3915  0.1677
   97SAPC  H15R 9571   3.399   1.068   3.475  2.3861  0.7946  1.1318
   97SAPC  C216 9572   3.329   1.217   3.614  0.3216 -0.7202 -0.1976
   97SAPC  H16R 9573   3.236   1.169   3.650  0.4152 -0.8717 -0.1556
   97SAPC  H16S 9574   3.312   1.327   3.610  2.7331 -0.3190 -1.1981
   97SAPC  C217 9575   3.438   1.186   3.713  0.1885  0.1362 -1.0817
   97SAPC  H17R 9576   3.536   1.233   3.687 -0.9309  1.7434 -2.6460
   97SAPC  H17S 9577   3.445   1.076   3.718 -0.8559  0.1102  0.4581
   97SAPC  C218 9578   3.394   1.238   3.860  0.0982  0.2289  0.1463
   97SAPC  H18R 9579   3.296   1.197   3.891  0.6713  0.0282  1.8189
   97SAPC  H18S 9580   3.385   1.349   3.862 -1.2163  0.1387 -0.1882
   97SAPC  C219 9581   3.487   1.184   3.972 -0.6195  0.6213  0.2643
   97SAPC  H19R 9582   3.589   1.226   3.963  0.6422 -2.3369 -0.2745
   97SAPC  H19S 9583   3.499   1.074   3.970  0.0729  0.6852  0.8287
   97SAPC  C220 9584   3.436   1.238   4.105  0.0557 -0.5110 -0.1460
   97SAPC  H20R 9585   3.344   1.183   4.134 -0.9389 -0.3197 -2.7338
   97SAPC  H20S 9586   3.402   1.343   4.110 -3.0203 -1.4424  0.9311
   97SAPC  H20T 9587   3.501   1.218   4.193  0.0683 -1.6696 -0.3984
   97SAPC   C33 9588   3.725   1.434   3.101 -1.1257  0.2032  0.1448
   97SAPC   H3X 9589   3.696   1.498   3.187 -1.6999  2.7697 -1.8483
   97SAPC   H3Y 9590   3.801   1.497   3.051  0.2379 -0.3823  1.3937
   97SAPC   C34 9591   3.777   1.300   3.166  0.0193 -0.1354 -0.0389
   97SAPC   H4X 9592   3.790   1.227   3.084 -1.7073 -1.4369  0.7923
   97SAPC   H4Y 9593   3.694   1.270   3.233 -0.3011  2.0407  0.6362
   97SAPC   C35 9594   3.906   1.309   3.244 -0.3851 -0.1071  0.4046
   97SAPC   H5X 9595   3.901   1.391   3.319 -3.0137  1.6517 -1.5298
   97SAPC   H5Y 9596   3.987   1.324   3.170  0.1274  0.9498  1.1619
   97SAPC   C36 9597   3.936   1.186   3.332  0.4103  0.2120  0.2810
   97SAPC   H6X 9598   4.043   1.193   3.360  0.6970 -2.2504 -0.0229
   97SAPC   H6Y 9599   3.911   1.095   3.273  0.0492  1.4106 -1.5308
   97SAPC   C37 9600   3.838   1.188   3.452 -0.5902 -0.7905  0.9886
   97SAPC   H7X 9601   3.732   1.170   3.426 -0.0651 -0.1215 -1.9434
   97SAPC   H7Y 9602   3.846   1.286   3.504 -2.0034 -0.3179  0.3672
   97SAPC   C38 9603   3.884   1.079   3.546 -0.0835  0.3806  0.4194
   97SAPC   H8X 9604   3.995   1.075   3.544 -0.0600  0.2583  1.6588
   97SAPC   H8Y 9605   3.846   0.983   3.504  0.0678  0.2584  0.5619
   97SAPC   C39 9606   3.833   1.096   3.689  0.0460 -0.0633  0.3940
   97SAPC   H9X 9607   3.727   1.064   3.693 -0.1283  0.6723  2.6019
   97SAPC   H9Y 9608   3.830   1.207   3.699  1.5981  0.2891 -2.0536
   97SAPC  C310 9609   3.913   1.029   3.804  0.8822 -0.2203 -0.3153
   97SAPC  H10X 9610   4.017   1.068   3.803  1.7054 -2.3162 -0.9184
   97SAPC  H10Y 9611   3.916   0.922   3.776  0.8891 -0.4710  0.6136
   97SAPC  C311 9612   3.853   1.040   3.942 -0.3168 -0.2587  0.7451
   97SAPC  H11X 9613   3.755   0.988   3.958 -0.0366  0.1905  5.4480
   97SAPC  H11Y 9614   3.838   1.147   3.966 -0.3984  0.2571 -1.4002
   97SAPC  C312 9615   3.941   0.985   4.057  0.1111 -0.6451 -0.0184
   97SAPC  H12X 9616   4.037   1.042   4.057 -0.1633 -0.1497 -1.3978
   97SAPC  H12Y 9617   3.964   0.877   4.050  0.9746 -0.5455  1.0583
   97SAPC  C313 9618   3.871   1.003   4.192  0.0752 -0.1389 -0.4041
   97SAPC  H13X 9619   3.908   0.927   4.265 -1.4321  0.0601  0.6034
   97SAPC  H13Y 9620   3.767   0.967   4.180  0.8539 -1.5855 -4.5793
   97SAPC  C314 9621   3.887   1.142   4.256 -0.0925  0.2190 -0.4507
   97SAPC  H14X 9622   3.895   1.225   4.181 -1.9122 -0.5907 -1.6061
   97SAPC  H14Y 9623   3.986   1.134   4.304  0.6078 -2.6760 -2.1732
   97SAPC  C315 9624   3.793   1.172   4.374  0.2282 -0.7332  0.1666
   97SAPC  H15X 9625   3.819   1.098   4.454  0.6067  0.3360  1.0581
   97SAPC  H15Y 9626   3.688   1.154   4.346  0.4194  0.2030 -1.2318
   97SAPC  C316 9627   3.809   1.301   4.443 -0.8722  0.1139 -0.0267
   97SAPC  H16X 9628   3.778   1.387   4.380 -2.2422  0.7202  1.3849
   97SAPC  H16Y 9629   3.919   1.315   4.447 -0.8640  0.0016  0.1774
   97SAPC  C317 9630   3.740   1.309   4.577  0.3591 -0.3842 -0.0795
   97SAPC  H17X 9631   3.762   1.226   4.648  4.5080  1.3305  0.9650
   97SAPC  H17Y 9632   3.632   1.312   4.550  0.5848  1.7806 -0.8923
   97SAPC  C318 9633   3.766   1.438   4.655  0.6331 -1.0262 -0.5191
   97SAPC  H18X 9634   3.738   1.531   4.601  0.8479 -0.0478  1.0104
   97SAPC  H18Y 9635   3.874   1.443   4.677  0.5031  0.0151 -0.0381
   97SAPC  H18Z 9636   3.701   1.441   4.745  1.5369  0.0813  0.1206
   98SAPC     N 9637   0.407   2.994   2.329 -0.3854 -0.0858  0.0131
   98SAPC   C12 9638   0.411   2.853   2.380  0.5784  0.5787 -0.4034
   98SAPC  H12A 9639   0.507   2.802   2.382 -1.0132 -2.6545  0.1143
   98SAPC  H12B 9640   0.346   2.788   2.323  1.3012  0.7831 -1.5171
   98SAPC   C13 9641   0.468   3.007   2.186 -0.1452  0.2248 -0.0197
   98SAPC  H13A 9642   0.447   3.103   2.141 -0.2813 -0.1545 -0.7694
   98SAPC  H13B 9643   0.575   3.001   2.197 -0.4564 -0.2560  5.7549
   98SAPC  H13C 9644   0.426   2.938   2.115 -0.3485  0.4532 -0.1233
   98SAPC   C14 9645   0.277   3.058   2.328 -0.3227  0.0870  0.8561
   98SAPC  H14A 9646   0.212   3.014   2.254  1.2267  1.0834 -1.1898
   98SAPC  H14B 9647   0.224   3.039   2.421 -2.0438 -1.7320 -0.4004
   98SAPC  H14C 9648   0.279   3.162   2.299 -1.7949 -0.0960  0.0018
   98SAPC   C15 9649   0.488   3.082   2.417  0.1251  0.2805  0.5348
   98SAPC  H15A 9650   0.480   3.184   2.383 -0.4783  0.0570  0.0021
   98SAPC  H15B 9651   0.453   3.075   2.519 -2.5029  1.6221 -0.1832
   98SAPC  H15C 9652   0.591   3.056   2.397 -0.6771 -2.7983 -0.0706
   98SAPC   C11 9653   0.363   2.834   2.525  0.5860 -0.6728  0.5381
   98SAPC  H11A 9654   0.426   2.908   2.581 -0.9825  0.6495  0.6280
   98SAPC  H11B 9655   0.389   2.735   2.567 -1.3049 -1.0611  0.8802
   98SAPC     P 9656   0.114   2.754   2.497  0.1663  0.1345  0.5611
   98SAPC   O13 9657  -0.016   2.811   2.518 -0.2068  0.3139 -0.6149
   98SAPC   O14 9658   0.155   2.706   2.364 -0.1712 -0.0435  0.0767
   98SAPC   O12 9659   0.224   2.857   2.544  0.0222 -0.3413 -0.7025
   98SAPC   O11 9660   0.127   2.637   2.600  0.0476  0.3068  0.1696
   98SAPC    C1 9661   0.139   2.654   2.742  0.2444 -0.2440 -0.6286
   98SAPC    HA 9662   0.218   2.582   2.771  3.0234  2.6123 -0.5353
   98SAPC    HB 9663   0.166   2.756   2.776 -0.0123 -0.9652  1.9293
   98SAPC    C2 9664   0.006   2.614   2.818  0.6970 -0.0983  0.0177
   98SAPC    HS 9665  -0.064   2.697   2.798 -1.9237 -1.3211  3.0968
   98SAPC   O21 9666   0.026   2.604   2.961 -0.6026  0.1041  0.0610
   98SAPC   C21 9667   0.057   2.717   3.028  0.6335 -0.5208 -0.4224
   98SAPC   O22 9668   0.062   2.829   2.980  0.6062 -0.5545  0.4027
   98SAPC   C22 9669   0.074   2.677   3.175 -0.3968  0.2926  0.1411
   98SAPC   H2R 9670  -0.027   2.641   3.205 -0.2573 -1.6305 -1.5384
   98SAPC   H2S 9671   0.157   2.603   3.173  0.3841  1.0849  1.5594
   98SAPC    C3 9672  -0.050   2.484   2.752 -0.0582  0.3815 -1.2525
   98SAPC    HX 9673   0.022   2.401   2.732 -0.6531 -0.1732 -1.1256
   98SAPC    HY 9674  -0.095   2.512   2.654 -1.2613 -0.5746 -1.0001
   98SAPC   O31 9675  -0.157   2.429   2.829 -0.2597 -0.5796 -0.9141
   98SAPC   C31 9676  -0.279   2.491   2.827  0.3257 -0.1338 -0.7753
   98SAPC   O32 9677  -0.307   2.582   2.753 -0.0254 -0.2921 -0.5002
   98SAPC   C32 9678  -0.361   2.436   2.946 -0.7984  0.2572 -0.1794
   98SAPC   H2X 9679  -0.342   2.327   2.953  0.0288  0.3542 -0.7634
   98SAPC   H2Y 9680  -0.466   2.455   2.917 -0.0200  0.9904 -2.8140
   98SAPC   C23 9681   0.121   2.802   3.257 -0.8344 -0.1289  0.5372
   98SAPC   H3R 9682   0.067   2.895   3.228 -0.8853 -0.0206  0.9854
   98SAPC   H3S 9683   0.224   2.838   3.237 -1.0420  0.0248 -0.3051
   98SAPC   C24 9684   0.104   2.782   3.402  0.1473  0.1795 -0.6516
   98SAPC   H4R 9685   0.166   2.696   3.436  1.1985  1.8006  1.8168
   98SAPC   H4S 9686  -0.002   2.748   3.408  1.0140 -3.1882 -2.1016
   98SAPC   C25 9687   0.139   2.910   3.474  0.2694  0.0698  0.0002
   98SAPC   H5R 9688   0.163   2.997   3.411 -3.0600  1.9060  1.0566
   98SAPC   C26 9689   0.152   2.916   3.609 -0.6597 -0.1758  0.3833
   98SAPC   H6R 9690   0.178   3.015   3.650 -1.3818  0.1047  0.1731
   98SAPC   C27 9691   0.125   2.805   3.704  0.0549  0.4518  0.0355
   98SAPC   H7R 9692   0.221   2.750   3.717 -1.1436 -1.0795  3.3171
   98SAPC   H7S 9693   0.054   2.736   3.655 -0.9165  1.0929  0.5091
   98SAPC   C28 9694   0.063   2.849   3.831 -0.2403 -0.2351 -0.3310
   98SAPC   H8R 9695   0.041   2.957   3.834  0.8611 -0.0122  1.5348
   98SAPC   C29 9696   0.016   2.772   3.929 -0.6662  0.0153 -0.6926
   98SAPC   H9R 9697  -0.031   2.819   4.017 -1.5774 -2.3224  0.1842
   98SAPC  C210 9698   0.030   2.625   3.924  0.2048  0.0075 -0.2307
   98SAPC  H10R 9699   0.111   2.600   3.852  0.0689  0.2691 -0.4748
   98SAPC  H10S 9700  -0.058   2.573   3.881  1.7996 -3.0995 -0.0755
   98SAPC  C211 9701   0.053   2.557   4.059 -0.4152  0.0051 -0.1977
   98SAPC  H11R 9702   0.154   2.513   4.063 -1.1447 -1.7912 -0.4870
   98SAPC  C212 9703  -0.032   2.531   4.164  0.4429  0.1016  0.1564
   98SAPC  H12R 9704   0.009   2.483   4.254  1.7942  0.5541 -0.1874
   98SAPC  C213 9705  -0.178   2.571   4.173 -0.0311 -0.5085 -0.4756
   98SAPC  H13R 9706  -0.236   2.479   4.195 -1.4426  0.7227  1.1392
   98SAPC  H13S 9707  -0.215   2.598   4.072 -1.1735  0.7863  0.2584
   98SAPC  C214 9708  -0.206   2.683   4.279  0.0729  0.7023 -0.2998
   98SAPC  H14R 9709  -0.215   2.777   4.222  0.6494 -0.8066 -3.0170
   98SAPC  C215 9710  -0.190   2.675   4.413 -0.2398 -0.1002 -0.7949
   98SAPC  H15R 9711  -0.238   2.751   4.478  0.5165 -0.2006 -0.1054
   98SAPC  C216 9712  -0.154   2.556   4.490  0.3486  0.1295  0.0599
   98SAPC  H16R 9713  -0.048   2.561   4.523 -0.2103  1.9811  1.7704
   98SAPC  H16S 9714  -0.153   2.471   4.418 -0.6916 -1.3720  1.7481
   98SAPC  C217 9715  -0.232   2.529   4.617  0.1604  0.0788 -0.5756
   98SAPC  H17R 9716  -0.183   2.434   4.650 -1.4398 -0.7157 -0.3787
   98SAPC  H17S 9717  -0.326   2.511   4.562  0.9827  0.2271 -2.0771
   98SAPC  C218 9718  -0.236   2.633   4.726 -0.8706  0.3802 -0.6785
   98SAPC  H18R 9719  -0.272   2.591   4.823  2.4294 -1.0397  0.0890
   98SAPC  H18S 9720  -0.307   2.714   4.700 -0.4454  0.9106 -0.2116
   98SAPC  C219 9721  -0.090   2.677   4.760  0.8874 -0.1163 -0.2482
   98SAPC  H19R 9722  -0.049   2.743   4.680  0.9759 -0.6200 -0.6253
   98SAPC  H19S 9723  -0.033   2.586   4.786  0.1759 -0.1870  1.1690
   98SAPC  C220 9724  -0.098   2.759   4.893 -0.0152 -0.6391  0.5435
   98SAPC  H20R 9725   0.003   2.801   4.912  0.3729  0.2965 -2.9181
   98SAPC  H20S 9726  -0.119   2.686   4.975  0.5697  1.1176  2.3472
   98SAPC  H20T 9727  -0.180   2.834   4.901  0.7687  0.0588  3.5020
   98SAPC   C33 9728  -0.330   2.500   3.080  0.6958  0.0719  0.5602
   98SAPC   H3X 9729  -0.383   2.598   3.078  1.5258  0.5556 -2.3787
   98SAPC   H3Y 9730  -0.222   2.509   3.102  1.0950 -0.6837 -0.9304
   98SAPC   C34 9731  -0.383   2.412   3.195  0.8403  0.3228  0.5320
   98SAPC   H4X 9732  -0.317   2.323   3.189 -0.1489 -0.3378 -1.1464
   98SAPC   H4Y 9733  -0.484   2.381   3.162 -0.6009  1.6713  3.3052
   98SAPC   C35 9734  -0.381   2.468   3.337 -0.3616 -0.3814 -0.3936
   98SAPC   H5X 9735  -0.451   2.417   3.406  0.4911 -0.8118  0.1642
   98SAPC   H5Y 9736  -0.409   2.573   3.314  0.4226  0.0316  0.4558
   98SAPC   C36 9737  -0.244   2.478   3.401  0.2468 -0.0812  0.3534
   98SAPC   H6X 9738  -0.163   2.520   3.338 -0.0593  1.3215  0.8520
   98SAPC   H6Y 9739  -0.210   2.382   3.444 -1.7303 -1.7888 -1.6862
   98SAPC   C37 9740  -0.243   2.575   3.518 -0.1130 -0.6779 -1.1610
   98SAPC   H7X 9741  -0.267   2.676   3.479  0.0044  0.4314  1.4262
   98SAPC   H7Y 9742  -0.147   2.593   3.570 -0.2477  0.6238 -1.3403
   98SAPC   C38 9743  -0.353   2.547   3.626  0.3119  0.2716 -0.5582
   98SAPC   H8X 9744  -0.328   2.448   3.671  1.0088 -0.3832 -2.2955
   98SAPC   H8Y 9745  -0.455   2.522   3.587  0.6907  0.0121 -1.4181
   98SAPC   C39 9746  -0.367   2.645   3.742  0.4620  0.0820  0.4457
   98SAPC   H9X 9747  -0.422   2.735   3.707 -0.9196 -0.3061  1.5358
   98SAPC   H9Y 9748  -0.264   2.681   3.762  1.0653 -2.4921  2.6167
   98SAPC  C310 9749  -0.430   2.588   3.868  0.3591  0.2546  0.4065
   98SAPC  H10X 9750  -0.370   2.506   3.913  1.3222  0.9989  0.5083
   98SAPC  H10Y 9751  -0.527   2.547   3.831 -1.2940  1.4971  3.0156
   98SAPC  C311 9752  -0.466   2.698   3.971  0.4294  0.6697 -0.0992
   98SAPC  H11X 9753  -0.504   2.789   3.920 -1.0665 -0.9653 -2.0615
   98SAPC  H11Y 9754  -0.377   2.725   4.032  1.3335 -1.6805 -0.2877
   98SAPC  C312 9755  -0.569   2.642   4.076  0.5570 -0.5578  0.1256
   98SAPC  H12X 9756  -0.516   2.560   4.129  2.1360 -0.2993 -0.9700
   98SAPC  H12Y 9757  -0.660   2.613   4.020 -1.3307 -1.1610  3.2857
   98SAPC  C313 9758  -0.616   2.744   4.190 -0.3739 -0.2549 -0.2890
   98SAPC  H13X 9759  -0.673   2.825   4.139 -1.7439  0.0028  1.5711
   98SAPC  H13Y 9760  -0.530   2.792   4.240 -0.8980  1.2566 -0.7965
   98SAPC  C314 9761  -0.685   2.682   4.310  0.3014 -0.5145  0.6258
   98SAPC  H14X 9762  -0.780   2.634   4.279 -0.9546  2.0244  0.3113
   98SAPC  H14Y 9763  -0.712   2.759   4.384  0.8808  1.4430 -1.0913
   98SAPC  C315 9764  -0.604   2.578   4.388 -0.6161 -0.1284  0.7186
   98SAPC  H15X 9765  -0.504   2.622   4.403  0.5907 -2.8449  1.2036
   98SAPC  H15Y 9766  -0.580   2.497   4.315  0.1724 -2.3032  3.2278
   98SAPC  C316 9767  -0.671   2.518   4.519  0.0992 -0.0925  0.5203
   98SAPC  H16X 9768  -0.603   2.438   4.556  0.5218 -1.0731 -2.1309
   98SAPC  H16Y 9769  -0.771   2.476   4.497 -1.2441  2.4478  1.3896
   98SAPC  C317 9770  -0.679   2.627   4.631 -0.3114 -0.7969  0.2457
   98SAPC  H17X 9771  -0.704   2.730   4.596 -0.6244 -0.5633  1.1210
   98SAPC  H17Y 9772  -0.582   2.636   4.685 -0.3894 -0.4104  0.3239
   98SAPC  C318 9773  -0.778   2.607   4.743  0.4247  0.1681  0.2783
   98SAPC  H18X 9774  -0.759   2.687   4.817 -0.8905  0.4247  0.3685
   98SAPC  H18Y 9775  -0.754   2.511   4.794 -0.5522 -0.0475  0.3606
   98SAPC  H18Z 9776  -0.883   2.603   4.706  0.8089 -1.7132 -0.7399
   99SAPC     N 9777   6.429   6.500   2.644 -0.0087  0.4804  0.2592
   99SAPC   C12 9778   6.300   6.425   2.698 -0.4713  0.1225  0.2579
   99SAPC  H12A 9779   6.227   6.486   2.748 -1.6211 -0.3098 -0.8336
   99SAPC  H12B 9780   6.350   6.358   2.766  0.2439  0.2570 -0.1266
   99SAPC   C13 9781   6.390   6.594   2.543  0.7498  0.1302 -0.4241
   99SAPC  H13A 9782   6.318   6.664   2.582 -1.9693 -3.1737  1.0303
   99SAPC  H13B 9783   6.468   6.655   2.500 -0.0701  1.9711  0.5809
   99SAPC  H13C 9784   6.348   6.538   2.460  0.0657 -1.2146  0.7797
   99SAPC   C14 9785   6.484   6.573   2.756 -0.5123  0.2169 -0.1846
   99SAPC  H14A 9786   6.428   6.653   2.803  0.3729 -0.2897  1.8385
   99SAPC  H14B 9787   6.516   6.510   2.838  0.0954  2.2738  1.2708
   99SAPC  H14C 9788   6.574   6.621   2.719  0.1163 -0.2842  0.6526
   99SAPC   C15 9789   6.536   6.414   2.579  0.6166 -0.1075  0.2511
   99SAPC  H15A 9790   6.609   6.464   2.516  1.2486 -0.3833  0.7453
   99SAPC  H15B 9791   6.582   6.351   2.654  0.2905  1.2512  1.6339
   99SAPC  H15C 9792   6.484   6.339   2.522 -0.2522  0.5036  0.2366
   99SAPC   C11 9793   6.224   6.326   2.602 -0.2686 -0.2834  0.1880
   99SAPC  H11A 9794   6.184   6.380   2.513 -0.7263  1.7534  1.5422
   99SAPC  H11B 9795   6.135   6.285   2.655 -0.4416  1.4918  1.3638
   99SAPC     P 9796   6.333   6.085   2.646  0.0831 -0.1652 -0.5803
   99SAPC   O13 9797   6.276   5.962   2.574  0.2326  0.0602  0.1142
   99SAPC   O14 9798   6.475   6.088   2.679 -0.2991 -0.0169 -0.2125
   99SAPC   O12 9799   6.304   6.220   2.563  0.8076 -0.2989  0.0319
   99SAPC   O11 9800   6.243   6.116   2.775 -0.1996 -0.4764 -0.2422
   99SAPC    C1 9801   6.116   6.058   2.805  1.1626  0.0879 -0.0026
   99SAPC    HA 9802   6.069   6.018   2.713  2.4429  0.8416 -1.0220
   99SAPC    HB 9803   6.133   5.978   2.880  2.0956 -0.3940 -0.7198
   99SAPC    C2 9804   6.020   6.161   2.873  0.0850 -0.3025 -0.2213
   99SAPC    HS 9805   6.004   6.255   2.816 -3.9001 -1.7533 -1.9250
   99SAPC   O21 9806   6.079   6.189   3.004 -0.2404  0.5268  0.9268
   99SAPC   C21 9807   6.139   6.308   3.023  0.0905  0.3558 -0.0577
   99SAPC   O22 9808   6.144   6.397   2.941 -0.5217  0.6565 -0.3137
   99SAPC   C22 9809   6.206   6.311   3.163  0.4703  0.9279  1.1833
   99SAPC   H2R 9810   6.287   6.235   3.162  1.1577  1.6426 -0.0513
   99SAPC   H2S 9811   6.248   6.412   3.181  1.3037  0.3762  2.5391
   99SAPC    C3 9812   5.878   6.088   2.894  0.3904  0.6757  0.1185
   99SAPC    HX 9813   5.887   5.998   2.958  0.8168  0.0165 -0.8422
   99SAPC    HY 9814   5.850   6.053   2.792  1.2158  1.1477 -0.2839
   99SAPC   O31 9815   5.776   6.193   2.937 -0.3421  0.5103  0.0059
   99SAPC   C31 9816   5.663   6.133   2.961 -0.6383 -0.2050  0.1933
   99SAPC   O32 9817   5.640   6.013   2.947 -1.0965 -0.6458 -0.1534
   99SAPC   C32 9818   5.563   6.229   3.022  0.0621 -1.1535 -0.6969
   99SAPC   H2X 9819   5.462   6.183   3.019  0.4179 -2.0204  0.0474
   99SAPC   H2Y 9820   5.559   6.323   2.964  0.0441 -0.1751  0.8119
   99SAPC   C23 9821   6.104   6.282   3.274 -0.7934  0.1044  0.0159
   99SAPC   H3R 9822   6.047   6.187   3.267  0.2179 -0.7758  2.5651
   99SAPC   H3S 9823   6.027   6.361   3.277 -0.3928  0.6133 -1.7857
   99SAPC   C24 9824   6.172   6.274   3.415 -0.1143 -0.1881 -0.3848
   99SAPC   H4R 9825   6.085   6.282   3.483  0.5047  2.4902  0.1938
   99SAPC   H4S 9826   6.215   6.375   3.433 -0.7577 -0.0513  0.4556
   99SAPC   C25 9827   6.272   6.169   3.442 -0.0666  0.7445 -1.4592
   99SAPC   H5R 9828   6.274   6.086   3.370  0.5703 -1.1554  0.6383
   99SAPC   C26 9829   6.353   6.165   3.550  0.4142 -0.0559  0.4022
   99SAPC   H6R 9830   6.411   6.071   3.558 -1.3996 -1.3250 -0.7338
   99SAPC   C27 9831   6.365   6.270   3.658 -0.1172  0.5835 -0.9661
   99SAPC   H7R 9832   6.339   6.215   3.751  1.6680 -1.2257 -1.4618
   99SAPC   H7S 9833   6.294   6.354   3.641 -1.3703 -0.3880 -0.6752
   99SAPC   C28 9834   6.515   6.315   3.682 -0.1697  0.6778  0.4121
   99SAPC   H8R 9835   6.564   6.353   3.591 -1.5016  0.2176 -0.5337
   99SAPC   C29 9836   6.590   6.318   3.791  0.1821  0.7179  0.0388
   99SAPC   H9R 9837   6.698   6.339   3.794  0.6922 -1.7303  1.5412
   99SAPC  C210 9838   6.535   6.282   3.925  0.0667  0.2844 -0.0719
   99SAPC  H10R 9839   6.475   6.190   3.913  2.4855 -1.2827 -0.8577
   99SAPC  H10S 9840   6.460   6.361   3.948 -2.3781 -1.8541 -0.1788
   99SAPC  C211 9841   6.627   6.275   4.048  0.0993 -0.4124  0.0609
   99SAPC  H11R 9842   6.627   6.183   4.109  0.0163 -0.2203  0.3505
   99SAPC  C212 9843   6.699   6.374   4.104 -0.1827 -0.4360 -0.3579
   99SAPC  H12R 9844   6.754   6.359   4.198  1.0448  0.9741 -0.7965
   99SAPC  C213 9845   6.718   6.516   4.048  0.5481 -0.0004 -0.9904
   99SAPC  H13R 9846   6.674   6.521   3.946 -0.8911  0.0763 -0.3874
   99SAPC  H13S 9847   6.826   6.536   4.030  0.6526  1.7059  1.1220
   99SAPC  C214 9848   6.663   6.628   4.140 -0.0699  0.9237  0.0509
   99SAPC  H14R 9849   6.555   6.645   4.131  0.0809  0.8836 -2.7850
   99SAPC  C215 9850   6.731   6.712   4.211  0.6221  0.1143  0.7471
   99SAPC  H15R 9851   6.681   6.792   4.268 -0.4579 -0.1408  0.1684
   99SAPC  C216 9852   6.879   6.708   4.216 -0.7721  0.5949  0.2155
   99SAPC  H16R 9853   6.914   6.814   4.209  1.6384 -0.2590 -1.9168
   99SAPC  H16S 9854   6.926   6.659   4.128 -1.0587 -0.3902  0.6047
   99SAPC  C217 9855   6.931   6.650   4.352 -0.5557  0.5279  0.3648
   99SAPC  H17R 9856   6.916   6.541   4.360 -1.8785  0.6918  0.4124
   99SAPC  H17S 9857   6.871   6.710   4.425  1.9427  4.1296 -0.2641
   99SAPC  C218 9858   7.085   6.677   4.358 -0.6301  0.3377 -0.7961
   99SAPC  H18R 9859   7.112   6.768   4.299  2.4049 -0.2248 -0.3918
   99SAPC  H18S 9860   7.139   6.593   4.309  1.1160  0.8079  0.2403
   99SAPC  C219 9861   7.137   6.673   4.508 -0.4632 -0.5136  0.0496
   99SAPC  H19R 9862   7.246   6.690   4.493 -0.8215  3.2715  0.7583
   99SAPC  H19S 9863   7.125   6.572   4.552  1.9602 -1.9294 -2.2104
   99SAPC  C220 9864   7.093   6.794   4.598 -0.2598  0.5908  0.9026
   99SAPC  H20R 9865   7.131   6.884   4.544  1.6003 -0.3168  0.5919
   99SAPC  H20S 9866   7.131   6.778   4.701 -1.2842 -3.0955  0.8535
   99SAPC  H20T 9867   6.983   6.797   4.612 -0.3697  0.4924  0.1000
   99SAPC   C33 9868   5.593   6.263   3.173  0.5126  0.3504  0.2190
   99SAPC   H3X 9869   5.504   6.303   3.226  2.3190  2.5258  1.7647
   99SAPC   H3Y 9870   5.661   6.350   3.176  0.0538  0.8105 -1.5294
   99SAPC   C34 9871   5.665   6.162   3.266  0.5845 -1.0460 -0.4486
   99SAPC   H4X 9872   5.772   6.153   3.240  0.7512  1.2179 -0.7065
   99SAPC   H4Y 9873   5.617   6.061   3.262  1.1729 -1.3268 -0.4873
   99SAPC   C35 9874   5.681   6.223   3.410  0.1445 -0.8865 -0.2952
   99SAPC   H5X 9875   5.749   6.310   3.415  0.4312 -0.9967 -1.9090
   99SAPC   H5Y 9876   5.724   6.139   3.469  1.2944  0.2077  0.4558
   99SAPC   C36 9877   5.547   6.241   3.478 -0.3782  0.1772  0.0056
   99SAPC   H6X 9878   5.486   6.150   3.461 -0.8384  0.2342  1.2807
   99SAPC   H6Y 9879   5.496   6.334   3.446 -0.0732  1.2011  2.3455
   99SAPC   C37 9880   5.559   6.267   3.630 -0.0483  0.2718  0.3187
   99SAPC   H7X 9881   5.457   6.286   3.671 -0.1304  1.6933 -0.4661
   99SAPC   H7Y 9882   5.600   6.369   3.648 -0.7328  0.8533 -1.3054
   99SAPC   C38 9883   5.637   6.171   3.718 -0.1898 -0.6114 -0.5737
   99SAPC   H8X 9884   5.746   6.188   3.703  0.2333 -0.7479  1.9268
   99SAPC   H8Y 9885   5.617   6.069   3.678  1.5058 -0.6191 -1.4845
   99SAPC   C39 9886   5.605   6.178   3.868 -0.3495 -0.4666  0.6824
   99SAPC   H9X 9887   5.665   6.103   3.924 -1.4646 -0.7332  1.5447
   99SAPC   H9Y 9888   5.497   6.172   3.893 -0.4458 -0.5783  0.2584
   99SAPC  C310 9889   5.624   6.322   3.918  0.0276  0.2833  0.8038
   99SAPC  H10X 9890   5.541   6.388   3.884 -2.1806 -2.5064  0.3930
   99SAPC  H10Y 9891   5.711   6.366   3.866  0.2532  0.0479  0.9790
   99SAPC  C311 9892   5.640   6.321   4.073 -0.1025  0.2914 -0.1542
   99SAPC  H11X 9893   5.730   6.257   4.088 -0.7514 -0.3432  1.1945
   99SAPC  H11Y 9894   5.556   6.261   4.114 -0.2231 -1.2802 -2.4907
   99SAPC  C312 9895   5.643   6.461   4.133 -0.0195 -0.2763  0.4784
   99SAPC  H12X 9896   5.572   6.531   4.084  0.6754  0.4682  0.5167
   99SAPC  H12Y 9897   5.741   6.511   4.121 -1.6666  3.9252  2.2958
   99SAPC  C313 9898   5.621   6.474   4.288  0.0882  0.4176 -0.4994
   99SAPC  H13X 9899   5.715   6.439   4.335 -0.8199  0.0456  1.0943
   99SAPC  H13Y 9900   5.530   6.422   4.324  0.1999 -0.2217 -1.1217
   99SAPC  C314 9901   5.605   6.620   4.348  0.5143 -0.0593  0.1338
   99SAPC  H14X 9902   5.580   6.611   4.455 -3.2195  0.2326 -0.5801
   99SAPC  H14Y 9903   5.515   6.655   4.293  0.7613 -0.9329 -0.8582
   99SAPC  C315 9904   5.712   6.728   4.347  0.8038 -0.6340  0.5614
   99SAPC  H15X 9905   5.807   6.691   4.390  0.7711  0.1225  1.3088
   99SAPC  H15Y 9906   5.673   6.814   4.406  1.7423  0.7355 -0.7327
   99SAPC  C316 9907   5.759   6.776   4.208  1.0675 -0.1850  0.0505
   99SAPC  H16X 9908   5.674   6.792   4.137 -1.4419 -1.0348  2.6637
   99SAPC  H16Y 9909   5.818   6.695   4.160  0.6632 -1.4051  1.5384
   99SAPC  C317 9910   5.839   6.909   4.213 -0.0174  0.1707  0.6024
   99SAPC  H17X 9911   5.773   6.993   4.243 -2.1213 -0.9073 -0.7735
   99SAPC  H17Y 9912   5.880   6.938   4.114  1.6372 -2.6365  0.3660
   99SAPC  C318 9913   5.954   6.887   4.308 -0.2395  0.6275 -0.8659
   99SAPC  H18X 9914   6.019   6.977   4.303  0.2726  0.4403  1.3249
   99SAPC  H18Y 9915   6.017   6.802   4.275  0.5841  0.3449  1.2783
   99SAPC  H18Z 9916   5.919   6.878   4.414 -0.3252 -1.8494 -1.0570
  100SAPC     N 9917   1.268   6.428   2.190 -0.4628  0.0622 -0.6190
  100SAPC   C12 9918   1.274   6.488   2.328 -0.3375 -0.1239 -0.4241
  100SAPC  H12A 9919   1.338   6.437   2.398 -3.0850 -0.0939  2.3197
  100SAPC  H12B 9920   1.177   6.470   2.371 -0.3596  1.1916  0.1183
  100SAPC   C13 9921   1.144   6.471   2.126  0.9293  0.7093  0.2419
  100SAPC  H13A 9922   1.142   6.578   2.117  1.0235  0.9498  2.4273
  100SAPC  H13B 9923   1.150   6.433   2.025  0.5667 -1.2698  0.9118
  100SAPC  H13C 9924   1.051   6.436   2.168  1.0564  0.3772  0.2540
  100SAPC   C14 9925   1.378   6.473   2.104 -0.3583 -0.4621 -0.1637
  100SAPC  H14A 9926   1.386   6.580   2.113 -0.5715 -0.3023 -1.5851
  100SAPC  H14B 9927   1.467   6.424   2.138 -1.2735 -1.1339  1.3620
  100SAPC  H14C 9928   1.356   6.457   1.999  0.4292  2.1031 -0.7907
  100SAPC   C15 9929   1.268   6.283   2.209 -0.2010 -0.2864  0.1489
  100SAPC  H15A 9930   1.300   6.245   2.113  2.2518  2.2851 -0.1740
  100SAPC  H15B 9931   1.352   6.256   2.271  1.4203  0.3630 -1.6562
  100SAPC  H15C 9932   1.179   6.238   2.252  0.5040 -1.2206  0.6604
  100SAPC   C11 9933   1.300   6.642   2.340 -0.6609 -0.3830  0.1711
  100SAPC  H11A 9934   1.270   6.682   2.439 -0.5564 -2.0904  0.9317
  100SAPC  H11B 9935   1.246   6.705   2.267  2.6649  1.2640 -1.0977
  100SAPC     P 9936   1.562   6.620   2.400  0.4774  0.1525 -0.2082
  100SAPC   O13 9937   1.559   6.474   2.416 -0.7385 -0.0457  0.2723
  100SAPC   O14 9938   1.679   6.673   2.335 -0.6388  0.3938 -0.6921
  100SAPC   O12 9939   1.439   6.671   2.316  0.1274 -0.3109  0.1244
  100SAPC   O11 9940   1.537   6.683   2.538  0.0685 -0.2108 -0.4677
  100SAPC    C1 9941   1.542   6.827   2.551 -0.0843  0.0996  0.1090
  100SAPC    HA 9942   1.646   6.855   2.523 -0.5404 -0.6001 -2.5217
  100SAPC    HB 9943   1.477   6.879   2.478  0.6569  0.2127 -0.4767
  100SAPC    C2 9944   1.505   6.883   2.692 -0.3678 -0.0612  0.2154
  100SAPC    HS 9945   1.493   6.992   2.673 -2.5901 -0.3770 -0.5658
  100SAPC   O21 9946   1.612   6.861   2.785 -0.7016  0.1872 -0.0431
  100SAPC   C21 9947   1.708   6.946   2.780 -0.0436 -0.4272 -0.6966
  100SAPC   O22 9948   1.717   7.039   2.704 -0.0528  0.5559  0.3278
  100SAPC   C22 9949   1.818   6.917   2.882 -0.0301 -0.6934  0.0171
  100SAPC   H2R 9950   1.793   6.835   2.953 -2.4358 -0.2294 -0.1833
  100SAPC   H2S 9951   1.916   6.897   2.835  0.4064  0.4902  0.3760
  100SAPC    C3 9952   1.382   6.819   2.752 -0.3699 -0.0797  0.3232
  100SAPC    HX 9953   1.419   6.730   2.806  0.3032 -1.0903 -1.7117
  100SAPC    HY 9954   1.317   6.787   2.668 -0.2943  1.5972 -0.4124
  100SAPC   O31 9955   1.316   6.908   2.848  0.0893 -0.0563  0.4895
  100SAPC   C31 9956   1.237   6.995   2.793  0.8651  0.0409 -0.0909
  100SAPC   O32 9957   1.209   7.008   2.676 -0.3855 -0.0101  0.1040
  100SAPC   C32 9958   1.190   7.106   2.888  0.1703 -0.1834 -0.5857
  100SAPC   H2X 9959   1.079   7.116   2.894  0.2654 -0.0867  2.5019
  100SAPC   H2Y 9960   1.237   7.196   2.841  0.8077 -0.5049 -0.5717
  100SAPC   C23 9961   1.855   7.047   2.966 -0.2594 -0.1169 -0.2678
  100SAPC   H3R 9962   1.884   7.130   2.898  0.7666 -0.7317 -0.5863
  100SAPC   H3S 9963   1.947   7.032   3.026 -0.2840  1.7312  0.3099
  100SAPC   C24 9964   1.731   7.105   3.046  0.3388  0.3648  0.6136
  100SAPC   H4R 9965   1.647   7.118   2.974 -0.5616  0.9104  1.7426
  100SAPC   H4S 9966   1.763   7.202   3.091  2.9876  0.2217 -0.7427
  100SAPC   C25 9967   1.694   7.000   3.146  0.0349  0.3501  0.3738
  100SAPC   H5R 9968   1.624   6.923   3.111  1.4536 -1.1448  0.6623
  100SAPC   C26 9969   1.726   6.989   3.277  0.3344  0.0080  0.6240
  100SAPC   H6R 9970   1.689   6.907   3.342 -2.4686  0.9182  0.3156
  100SAPC   C27 9971   1.829   7.084   3.343  0.3565  0.1276 -0.1853
  100SAPC   H7R 9972   1.869   7.150   3.263  0.6698 -0.9320 -0.9396
  100SAPC   H7S 9973   1.918   7.027   3.379 -0.1564  0.3218  1.4528
  100SAPC   C28 9974   1.778   7.176   3.447  0.2210 -0.2104  0.5956
  100SAPC   H8R 9975   1.707   7.256   3.422 -0.8129 -0.8920  1.2434
  100SAPC   C29 9976   1.821   7.169   3.576 -0.3276 -0.2965 -0.1378
  100SAPC   H9R 9977   1.784   7.236   3.655 -0.5098 -3.2387  2.4707
  100SAPC  C210 9978   1.929   7.069   3.639 -0.2931 -0.9022 -0.0712
  100SAPC  H10R 9979   2.023   7.068   3.579  1.9018 -0.9624  3.1352
  100SAPC  H10S 9980   1.884   6.967   3.637  1.0537 -1.5949  2.0833
  100SAPC  C211 9981   1.969   7.103   3.780  0.5792  0.2546 -0.6448
  100SAPC  H11R 9982   2.063   7.161   3.787  1.1493 -0.7856  0.9248
  100SAPC  C212 9983   1.926   7.048   3.895 -0.1733 -0.6612  0.0173
  100SAPC  H12R 9984   1.949   7.100   3.989 -1.6893  0.4189 -0.1715
  100SAPC  C213 9985   1.806   6.951   3.907  0.1056  0.4607 -0.0246
  100SAPC  H13R 9986   1.747   6.961   3.814  0.2178 -1.2926 -0.3286
  100SAPC  H13S 9987   1.743   6.984   3.992  0.3436  0.6371  0.0853
  100SAPC  C214 9988   1.854   6.809   3.922 -0.0867  0.3604  0.1777
  100SAPC  H14R 9989   1.921   6.785   4.006  0.9733 -1.4973 -1.1271
  100SAPC  C215 9990   1.818   6.698   3.849 -0.0575  0.2925  0.5274
  100SAPC  H15R 9991   1.871   6.603   3.867 -1.6021 -0.6637  0.2192
  100SAPC  C216 9992   1.730   6.699   3.725 -0.4326  0.6990 -0.5427
  100SAPC  H16R 9993   1.715   6.805   3.693 -1.3071  0.7124 -0.0958
  100SAPC  H16S 9994   1.641   6.649   3.769  0.9642  0.0615  1.7217
  100SAPC  C217 9995   1.795   6.625   3.605  0.3648 -0.1854 -0.4359
  100SAPC  H17R 9996   1.826   6.521   3.630 -0.6767 -1.1611 -2.8545
  100SAPC  H17S 9997   1.873   6.682   3.551  2.8659 -2.0083  1.0463
  100SAPC  C218 9998   1.681   6.594   3.499 -0.5493  0.3953  0.2236
  100SAPC  H18R 9999   1.656   6.695   3.460  0.3968  0.3323 -0.5644
  100SAPC  H18S10000   1.596   6.539   3.546 -1.0046  1.2910  0.4654
  100SAPC  C21910001   1.729   6.513   3.383  0.4733 -0.1784 -0.1377
  100SAPC  H19R10002   1.647   6.465   3.325  0.9621 -0.2175 -0.8096
  100SAPC  H19S10003   1.782   6.426   3.426  0.3773 -0.7337 -1.0919
  100SAPC  C22010004   1.812   6.598   3.292  0.0510 -0.4108 -0.0536
  100SAPC  H20R10005   1.892   6.652   3.347 -0.6608 -0.1024  0.6973
  100SAPC  H20S10006   1.749   6.678   3.247 -1.0447 -1.7104 -0.8997
  100SAPC  H20T10007   1.866   6.543   3.212  2.1174  1.8669 -0.3424
  100SAPC   C3310008   1.242   7.107   3.038 -0.2658  0.1649  0.5193
  100SAPC   H3X10009   1.349   7.134   3.046 -0.3543  1.6688 -2.1348
  100SAPC   H3Y10010   1.236   7.004   3.080 -3.2190  0.4344  0.9990
  100SAPC   C3410011   1.160   7.193   3.132  0.4795 -0.6814  0.8523
  100SAPC   H4X10012   1.051   7.193   3.115  0.4957  0.4404  0.6449
  100SAPC   H4Y10013   1.191   7.294   3.097 -0.6320 -0.5648  0.1499
  100SAPC   C3510014   1.197   7.179   3.277 -0.2297 -0.6769  0.0830
  100SAPC   H5X10015   1.303   7.207   3.296 -0.6245 -0.0218  1.4921
  100SAPC   H5Y10016   1.172   7.078   3.316 -0.5134 -2.2238 -3.7443
  100SAPC   C3610017   1.103   7.271   3.362 -0.0621  1.2765  1.5179
  100SAPC   H6X10018   1.001   7.266   3.317  0.5570  2.1254 -0.0726
  100SAPC   H6Y10019   1.142   7.372   3.335  1.6961  0.5139  1.1316
  100SAPC   C3710020   1.109   7.235   3.507  0.4413  0.1965  0.0049
  100SAPC   H7X10021   1.209   7.190   3.522 -0.4044 -1.9967 -0.5231
  100SAPC   H7Y10022   1.050   7.144   3.533 -0.4694  0.4222 -1.2025
  100SAPC   C3810023   1.066   7.345   3.600  0.1470  0.6072  0.7312
  100SAPC   H8X10024   0.966   7.385   3.572  0.2530  0.5269  0.2285
  100SAPC   H8Y10025   1.125   7.437   3.580 -0.3770  0.5058 -1.5122
  100SAPC   C3910026   1.055   7.315   3.751  0.2238  0.3205 -0.3028
  100SAPC   H9X10027   1.157   7.281   3.777 -0.1116  0.1494  0.8304
  100SAPC   H9Y10028   0.985   7.229   3.761 -0.9386  1.3626  0.9661
  100SAPC  C31010029   1.006   7.430   3.834  0.0439 -0.3679 -0.6968
  100SAPC  H10X10030   0.897   7.435   3.811  0.3704 -0.1204 -2.2841
  100SAPC  H10Y10031   1.048   7.529   3.807 -0.5757  0.5380  1.4355
  100SAPC  C31110032   1.010   7.418   3.989  0.7523 -0.0936 -0.4923
  100SAPC  H11X10033   0.998   7.313   4.026  3.3248  0.2368  1.5891
  100SAPC  H11Y10034   0.920   7.467   4.032  1.6813 -1.6725  3.8628
  100SAPC  C31210035   1.140   7.465   4.046 -0.4897  0.3281 -0.2479
  100SAPC  H12X10036   1.131   7.574   4.028  1.4050  0.6536  0.4491
  100SAPC  H12Y10037   1.217   7.421   3.979 -0.0120  1.8054 -0.7052
  100SAPC  C31310038   1.164   7.441   4.196 -0.0892 -0.3247 -0.9368
  100SAPC  H13X10039   1.257   7.488   4.232  0.5215 -2.6469  0.7536
  100SAPC  H13Y10040   1.174   7.331   4.210 -0.3450 -0.1080  1.1641
  100SAPC  C31410041   1.050   7.490   4.287  0.2412 -0.5004 -0.0800
  100SAPC  H14X10042   0.968   7.417   4.272 -0.5714 -0.1031  2.0401
  100SAPC  H14Y10043   1.023   7.593   4.257 -0.3773 -0.8304 -0.6675
  100SAPC  C31510044   1.073   7.501   4.438  0.1723  0.3999 -0.2719
  100SAPC  H15X10045   1.105   7.401   4.476 -0.7017 -0.4371 -1.6476
  100SAPC  H15Y10046   0.980   7.520   4.495  0.7466  1.1789  0.4336
  100SAPC  C31610047   1.181   7.605   4.473  0.6282  0.1568 -0.1524
  100SAPC  H16X10048   1.134   7.696   4.430 -0.4065 -0.5305 -0.5200
  100SAPC  H16Y10049   1.270   7.581   4.412  1.1985 -1.1434  1.1465
  100SAPC  C31710050   1.210   7.616   4.621 -0.6434  0.0229 -0.1400
  100SAPC  H17X10051   1.110   7.606   4.669  0.0453 -0.1075  1.3384
  100SAPC  H17Y10052   1.250   7.719   4.634 -1.8970  0.5805 -0.5947
  100SAPC  C31810053   1.298   7.507   4.686 -0.9242 -0.4376  0.2815
  100SAPC  H18X10054   1.388   7.488   4.624 -1.1039 -1.3508  0.2984
  100SAPC  H18Y10055   1.255   7.407   4.709 -1.4802 -0.8462 -2.2408
  100SAPC  H18Z10056   1.337   7.547   4.782 -2.1300  0.4899  0.4145
  101OSM      N10057   5.927   6.452   7.152 -0.6441 -0.4555 -0.2381
  101OSM    C1510058   5.795   6.500   7.096  0.9670  0.6664  0.4248
  101OSM   H15A10059   5.798   6.592   7.040  1.3075  0.8098  0.6679
  101OSM   H15B10060   5.736   6.525   7.182 -0.3957 -2.9425  0.7147
  101OSM   H15C10061   5.747   6.421   7.041 -0.6042  2.6167 -1.1638
  101OSM    C1410062   6.004   6.574   7.201  0.3488  0.6333  1.0090
  101OSM   H14A10063   6.103   6.543   7.231  0.1079  0.4094  1.5943
  101OSM   H14B10064   5.947   6.631   7.273 -0.0052  1.5851  0.0017
  101OSM   H14C10065   6.022   6.637   7.115 -1.4403  0.4660  0.4761
  101OSM    C1310066   5.896   6.366   7.265 -0.4722 -0.0603 -0.1540
  101OSM   H13A10067   5.984   6.320   7.309 -1.7508 -1.7746  0.7341
  101OSM   H13B10068   5.835   6.280   7.242 -0.7754  0.2439 -0.5004
  101OSM   H13C10069   5.842   6.428   7.335 -1.9087 -1.5736  0.1399
  101OSM    C1210070   6.010   6.383   7.044 -0.0708  0.3588  0.1408
  101OSM   H12A10071   5.965   6.290   7.013  0.8209  0.1156 -0.4775
  101OSM   H12B10072   6.103   6.343   7.083 -0.6880 -1.8322 -0.5293
  101OSM    C1110073   6.047   6.457   6.919  0.2427 -0.7995  0.9761
  101OSM   H11A10074   5.955   6.501   6.876  1.0822 -1.2984 -1.5079
  101OSM   H11B10075   6.083   6.386   6.840  1.8607  1.4526 -0.4210
  101OSM      P10076   6.292   6.543   6.963  0.1487  0.3850  0.0711
  101OSM    O1310077   6.367   6.664   6.946 -0.1926 -0.1085  1.1493
  101OSM    O1410078   6.321   6.466   7.088 -0.0412  0.0600  0.1804
  101OSM    O1110079   6.330   6.451   6.838  0.0529  0.1935  0.4683
  101OSM    O1210080   6.135   6.561   6.950 -0.4146 -0.2411  0.2186
  101OSM    C1S10081   6.323   6.506   6.704  0.1129 -0.2090 -0.1533
  101OSM    H1S10082   6.407   6.578   6.693 -0.2720  0.4369  0.9380
  101OSM    H1T10083   6.229   6.565   6.693  0.2302  0.3380  1.4132
  101OSM     NF10084   6.379   6.480   6.470 -0.4084 -0.2347 -0.3211
  101OSM    HNF10085   6.305   6.481   6.404 -0.4184  1.1160 -0.3013
  101OSM    C2S10086   6.357   6.411   6.600 -0.5870  0.0359  0.6492
  101OSM    H2S10087   6.452   6.364   6.631  0.1327 -0.9304 -2.6268
  101OSM    C3S10088   6.255   6.292   6.595  0.3616  0.8494 -0.2843
  101OSM    H3S10089   6.152   6.330   6.577 -0.1337  0.7107  1.9877
  101OSM     O310090   6.236   6.219   6.714 -0.0645  1.1322  0.4076
  101OSM    HO310091   6.261   6.280   6.784 -0.3955  0.5659  1.0315
  101OSM    C4S10092   6.301   6.208   6.476  0.4243  0.2423  0.1469
  101OSM    H4S10093   6.268   6.265   6.387 -2.6006  3.0212  2.7686
  101OSM    C5S10094   6.376   6.100   6.473  0.2603  0.1749 -0.0192
  101OSM    H5S10095   6.428   6.072   6.566 -2.2086 -2.7173  0.6584
  101OSM    C6S10096   6.416   6.029   6.347 -0.6694  0.5283  0.4380
  101OSM    H6S10097   6.358   5.935   6.338 -0.9451  0.5982  1.3838
  101OSM    H6T10098   6.525   6.007   6.348 -0.6249  0.7383  1.0014
  101OSM    C7S10099   6.391   6.102   6.215 -0.4889 -0.2934  0.2861
  101OSM    H7S10100   6.444   6.200   6.219 -0.5583 -0.2834  1.2653
  101OSM    H7T10101   6.282   6.100   6.194 -1.1953 -1.7524  3.4705
  101OSM    C8S10102   6.455   6.023   6.095  0.0905  0.0507  0.2945
  101OSM    H8S10103   6.411   5.922   6.084  0.8571 -0.3063  0.5237
  101OSM    H8T10104   6.565   6.018   6.099  0.1757  1.2372 -0.0861
  101OSM    C9S10105   6.421   6.091   5.957  0.0678  0.4222 -0.8126
  101OSM    H9S10106   6.428   6.201   5.965 -1.8560  0.6236 -1.2661
  101OSM    H9T10107   6.315   6.061   5.936 -0.3675  1.4267 -0.1087
  101OSM   C10S10108   6.504   6.039   5.839 -0.7121 -0.1882 -0.1552
  101OSM   H10S10109   6.519   5.929   5.829  0.7739 -0.2016  1.6582
  101OSM   H10T10110   6.596   6.100   5.825 -1.8308  1.5081 -0.4332
  101OSM   C11S10111   6.432   6.082   5.706 -0.2218  0.0351 -0.0487
  101OSM   H11S10112   6.417   6.192   5.708  1.3899  0.3316 -1.4486
  101OSM   H11T10113   6.340   6.021   5.701 -0.4720  0.5103 -2.3238
  101OSM   C12S10114   6.519   6.050   5.580  0.3712 -0.4167 -0.7277
  101OSM   H12S10115   6.513   5.944   5.549 -1.1663 -0.1827 -1.3306
  101OSM   H12T10116   6.626   6.075   5.592  0.9549 -2.3467 -1.5460
  101OSM   C13S10117   6.469   6.127   5.460  1.0788 -0.4178 -0.6104
  101OSM   H13S10118   6.472   6.235   5.482  0.5696 -0.3517 -0.8526
  101OSM   H13T10119   6.367   6.096   5.427  1.3291  0.6492 -2.5053
  101OSM   C14S10120   6.561   6.090   5.342  0.1432 -0.2885 -0.1778
  101OSM   H14S10121   6.535   5.993   5.294 -0.2690 -0.7569  0.9457
  101OSM   H14T10122   6.664   6.079   5.383 -0.3355 -3.2770  0.5029
  101OSM   C15S10123   6.561   6.185   5.222 -0.7722 -0.2481  0.5093
  101OSM   H15S10124   6.655   6.181   5.163 -2.1390  0.3276 -1.8006
  101OSM   H15T10125   6.583   6.284   5.268 -1.0606  0.7092 -1.3146
  101OSM   C16S10126   6.426   6.194   5.151 -0.4199  0.5576  0.3618
  101OSM   H16S10127   6.342   6.172   5.220  0.5078  1.5600  1.8630
  101OSM   H16T10128   6.429   6.102   5.089 -0.0391  0.6027  0.3105
  101OSM   C17S10129   6.408   6.327   5.073  0.9953  0.2268  0.1533
  101OSM   H17S10130   6.395   6.408   5.147  2.0788 -1.3216  2.1415
  101OSM   H17T10131   6.315   6.314   5.013  0.4514 -2.6632  1.4289
  101OSM   C18S10132   6.525   6.366   4.974  0.2361  0.8523  0.2180
  101OSM   H18S10133   6.621   6.363   5.030  0.3576  2.5909  0.1652
  101OSM   H18T10134   6.515   6.470   4.934 -1.4734  0.1616 -1.2938
  101OSM   H18U10135   6.529   6.290   4.893 -1.3519  0.6993  0.2470
  101OSM    C1F10136   6.503   6.533   6.451 -0.7438 -0.0062  0.4765
  101OSM     OF10137   6.588   6.528   6.540  0.1079 -0.5251 -0.2001
  101OSM    C2F10138   6.533   6.588   6.310  0.5187  0.1569 -0.1591
  101OSM    H2F10139   6.551   6.697   6.308  3.3813 -0.2493 -0.0073
  101OSM    H2G10140   6.445   6.565   6.245  1.8191  0.1757 -2.0125
  101OSM    C3F10141   6.656   6.530   6.229  0.4473  0.4111  0.0148
  101OSM    H3F10142   6.633   6.421   6.226  0.4237  0.3476  1.4477
  101OSM    H3G10143   6.745   6.536   6.295  1.4192 -2.6619 -0.8211
  101OSM    C4F10144   6.695   6.587   6.084  0.1859  0.8820 -0.4133
  101OSM    H4F10145   6.603   6.595   6.022  0.2393  1.1908 -0.4509
  101OSM    H4G10146   6.766   6.514   6.040 -0.0887  0.1935  0.2533
  101OSM    C5F10147   6.756   6.718   6.089  0.0703  0.3922 -0.9443
  101OSM    H5F10148   6.863   6.703   6.114 -0.5834 -0.4143  1.6220
  101OSM    H5G10149   6.704   6.786   6.160 -0.7915  1.0518 -2.1690
  101OSM    C6F10150   6.750   6.784   5.949  0.5673  0.2388  0.2744
  101OSM    H6F10151   6.644   6.782   5.916  0.7240  0.9886 -0.2952
  101OSM    H6G10152   6.798   6.714   5.876 -0.1464  1.6596 -1.6319
  101OSM    C7F10153   6.808   6.928   5.940  0.4386 -1.0473 -0.1605
  101OSM    H7F10154   6.917   6.921   5.963  0.1308  0.6873  2.2481
  101OSM    H7G10155   6.766   6.986   6.025  1.5062 -0.8912  0.2771
  101OSM    C8F10156   6.781   7.003   5.811  0.4825 -0.4034  0.4637
  101OSM    H8F10157   6.807   7.108   5.834 -2.8034  1.0055 -1.4768
  101OSM    H8G10158   6.674   6.989   5.785  0.2448 -1.7292  1.9608
  101OSM    C9F10159   6.876   6.957   5.706 -0.1152 -0.6354  0.0939
  101OSM    H9F10160   6.984   6.969   5.723 -0.6317  3.0992  1.8151
  101OSM   C10F10161   6.836   6.890   5.591 -0.1116 -0.5675 -0.0997
  101OSM   H10F10162   6.910   6.866   5.513  3.1980  0.6154  2.4289
  101OSM   C11F10163   6.696   6.859   5.546 -0.7940 -0.4102 -0.3231
  101OSM   H11F10164   6.618   6.892   5.618 -0.3604 -0.2321  0.0727
  101OSM   H11G10165   6.673   6.751   5.545 -0.6353 -0.4423 -0.3772
  101OSM   C12F10166   6.666   6.924   5.408  0.5109  0.1330  0.3294
  101OSM   H12F10167   6.741   6.879   5.339  1.3062  2.3759 -0.3729
  101OSM   H12G10168   6.687   7.032   5.426 -1.4362  0.8233 -1.1553
  101OSM   C13F10169   6.528   6.909   5.342 -0.0855  0.8998  0.7715
  101OSM   H13F10170   6.451   6.912   5.422  0.6145  0.0432  1.5020
  101OSM   H13G10171   6.518   6.801   5.315  1.5518  0.7022  0.8154
  101OSM   C14F10172   6.492   6.996   5.225  0.5089  0.5487  0.5231
  101OSM   H14F10173   6.480   7.098   5.267  1.3456  0.0893  1.9657
  101OSM   H14G10174   6.398   6.960   5.178  0.9381 -0.3487  0.3204
  101OSM   C15F10175   6.601   6.994   5.118 -0.0298 -0.3617  0.7876
  101OSM   H15F10176   6.651   6.895   5.123  1.8420  0.5105  0.1950
  101OSM   H15G10177   6.684   7.065   5.138  0.6086 -0.6694 -0.5922
  101OSM   C16F10178   6.541   7.006   4.979  0.2936 -0.5578  0.0102
  101OSM   H16F10179   6.623   7.012   4.903  0.4387  0.7606  0.2480
  101OSM   H16G10180   6.501   7.109   4.962  3.1274  0.7574  0.6523
  101OSM   C17F10181   6.453   6.900   4.922  0.5627 -0.4926 -0.5424
  101OSM   H17F10182   6.413   6.939   4.826  0.4900  1.1601  0.1134
  101OSM   H17G10183   6.375   6.868   4.994 -0.2726 -3.4074 -2.5770
  101OSM   C18F10184   6.538   6.770   4.896 -0.0356  0.3106  0.5187
  101OSM   H18F10185   6.483   6.679   4.864  0.9467 -0.5826  1.3036
  101OSM   H18G10186   6.583   6.745   4.995 -1.1982  2.7571  1.7562
  101OSM   H18H10187   6.626   6.794   4.833 -0.2689  1.2813  0.5468
  102OSM      N10188   6.200   5.634   6.904 -0.0532 -0.4372  0.4815
  102OSM    C1510189   6.127   5.750   6.959 -0.0714 -0.4787  0.2421
  102OSM   H15A10190   6.077   5.730   7.052 -2.8520 -0.3782 -1.1389
  102OSM   H15B10191   6.045   5.769   6.892 -0.0593 -0.9558  0.0863
  102OSM   H15C10192   6.193   5.835   6.949  0.2107 -0.8858 -2.1321
  102OSM    C1410193   6.296   5.597   7.015  0.3770  0.5051  0.0126
  102OSM   H14A10194   6.352   5.689   7.028  0.1659  1.0762 -2.5417
  102OSM   H14B10195   6.340   5.509   6.972 -2.9188 -0.3266 -2.0459
  102OSM   H14C10196   6.238   5.564   7.099  0.3581  1.1279  0.2475
  102OSM    C1310197   6.109   5.516   6.892  0.6309 -0.5119 -0.0167
  102OSM   H13A10198   6.025   5.536   6.827  1.4206 -0.3129 -1.0058
  102OSM   H13B10199   6.067   5.475   6.983 -2.4355 -1.9175 -1.9017
  102OSM   H13C10200   6.169   5.447   6.835  2.0134 -0.5878  1.4654
  102OSM    C1210201   6.272   5.664   6.776 -0.7991 -0.4269  0.1455
  102OSM   H12A10202   6.355   5.727   6.803 -0.1404 -1.1185 -0.2322
  102OSM   H12B10203   6.205   5.708   6.703 -1.8796 -1.8737  0.2373
  102OSM    C1110204   6.332   5.540   6.698 -0.3138 -0.0862 -0.4411
  102OSM   H11A10205   6.372   5.595   6.610  0.2065  0.8671  0.3692
  102OSM   H11B10206   6.256   5.466   6.666 -1.1440  0.2213  0.7304
  102OSM      P10207   6.570   5.419   6.736 -0.0126  0.3884  0.3073
  102OSM    O1310208   6.656   5.433   6.858 -0.0228 -0.6476 -0.3285
  102OSM    O1410209   6.554   5.289   6.670  0.1415  0.6083 -0.3862
  102OSM    O1110210   6.612   5.511   6.615  0.0815 -0.2413  0.3483
  102OSM    O1210211   6.426   5.470   6.773  0.0337 -0.3952 -0.6045
  102OSM    C1S10212   6.751   5.504   6.572 -0.5249  0.6778  0.0803
  102OSM    H1S10213   6.804   5.409   6.594  1.2553  1.0671 -2.2411
  102OSM    H1T10214   6.815   5.585   6.612  2.0986  0.3884 -3.1099
  102OSM     NF10215   6.905   5.478   6.385 -0.5597  0.3858  0.0873
  102OSM    HNF10216   6.977   5.541   6.412 -0.4830 -0.6085  2.4546
  102OSM    C2S10217   6.770   5.513   6.417 -0.4109 -0.1235 -0.3559
  102OSM    H2S10218   6.697   5.442   6.373 -2.3971  0.8131  1.2695
  102OSM    C3S10219   6.733   5.653   6.367  0.3450 -0.2350  0.1673
  102OSM    H3S10220   6.817   5.715   6.405  0.2534 -1.2014  2.0609
  102OSM     O310221   6.619   5.707   6.428 -0.0843 -0.4327 -0.4764
  102OSM    HO310222   6.594   5.642   6.494 -1.6607  1.4167  0.8912
  102OSM    C4S10223   6.723   5.666   6.218  0.0728 -0.1057 -0.2731
  102OSM    H4S10224   6.814   5.683   6.159  0.1679  0.7773  0.1123
  102OSM    C5S10225   6.607   5.654   6.151  0.3117 -0.9925 -0.5491
  102OSM    H5S10226   6.518   5.637   6.213  0.6003 -0.7638 -0.0646
  102OSM    C6S10227   6.588   5.642   6.003  0.5829 -0.3758 -0.5053
  102OSM    H6S10228   6.526   5.730   5.974  1.1937  0.0941 -0.4109
  102OSM    H6T10229   6.549   5.540   5.984 -0.6969 -0.1867  0.8968
  102OSM    C7S10230   6.716   5.673   5.922  0.0851  0.7246  0.8772
  102OSM    H7S10231   6.785   5.592   5.953  1.4515  1.0827 -1.0711
  102OSM    H7T10232   6.760   5.773   5.937  0.6515  1.5273 -4.2278
  102OSM    C8S10233   6.698   5.630   5.778  0.7010 -0.2280  0.3955
  102OSM    H8S10234   6.629   5.708   5.738  1.3654  1.6308  2.6486
  102OSM    H8T10235   6.650   5.530   5.771 -0.0733  0.0542  1.3588
  102OSM    C9S10236   6.820   5.641   5.696 -0.0100 -0.4019  0.7220
  102OSM    H9S10237   6.901   5.579   5.739  0.2477 -0.0682  0.7211
  102OSM    H9T10238   6.852   5.746   5.716  0.7462 -0.3865 -0.5306
  102OSM   C10S10239   6.800   5.601   5.552 -0.3858  0.2903  0.5379
  102OSM   H10S10240   6.768   5.494   5.555  0.0557  0.1590  0.5350
  102OSM   H10T10241   6.900   5.607   5.505  0.4866  1.0555  2.3919
  102OSM   C11S10242   6.704   5.688   5.472 -0.2942  0.6270  0.2588
  102OSM   H11S10243   6.734   5.793   5.492  2.6905 -0.4919  2.5116
  102OSM   H11T10244   6.605   5.663   5.515  0.0001 -0.1320  0.5216
  102OSM   C12S10245   6.713   5.658   5.324 -0.5882  0.8232 -0.6928
  102OSM   H12S10246   6.677   5.557   5.297  1.8188 -0.4557  0.5464
  102OSM   H12T10247   6.821   5.661   5.296  0.0443  0.4434  1.5416
  102OSM   C13S10248   6.640   5.760   5.242  0.6618  0.0516 -0.1911
  102OSM   H13S10249   6.679   5.857   5.280 -0.2352  0.2649  0.2085
  102OSM   H13T10250   6.530   5.766   5.259  0.7736  2.0248  0.0037
  102OSM   C14S10251   6.682   5.762   5.092 -0.2316 -0.2125  0.5076
  102OSM   H14S10252   6.672   5.661   5.048  0.2693  1.0522 -2.7861
  102OSM   H14T10253   6.789   5.790   5.083 -0.1814 -0.7606 -0.7338
  102OSM   C15S10254   6.604   5.866   5.006 -0.4520  0.2507 -0.0892
  102OSM   H15S10255   6.633   5.966   5.044  0.8179 -0.5646  1.2164
  102OSM   H15T10256   6.493   5.861   5.006 -0.4258 -1.2129  1.5874
  102OSM   C16S10257   6.649   5.853   4.856  0.6747  0.0629  0.4882
  102OSM   H16S10258   6.591   5.765   4.820 -3.9767  1.9850  2.4155
  102OSM   H16T10259   6.755   5.821   4.848  0.0634 -3.0930  2.7812
  102OSM   C17S10260   6.620   5.975   4.764  0.5015 -0.5535  0.2730
  102OSM   H17S10261   6.536   6.023   4.819  1.8130  1.0093  1.0078
  102OSM   H17T10262   6.594   5.943   4.661  0.5448  1.0053 -0.2493
  102OSM   C18S10263   6.744   6.064   4.766  0.4610 -0.2156 -0.4036
  102OSM   H18S10264   6.843   6.032   4.725  1.3843  0.9568  0.8268
  102OSM   H18T10265   6.764   6.074   4.875  1.7500 -0.3022 -0.6183
  102OSM   H18U10266   6.722   6.163   4.722 -1.4940 -0.7655 -0.7608
  102OSM    C1F10267   6.945   5.356   6.345  0.1856 -0.1353  0.4979
  102OSM     OF10268   6.864   5.265   6.357 -0.2918  0.6902  0.3502
  102OSM    C2F10269   7.083   5.346   6.284  0.0430 -0.4227  0.2313
  102OSM    H2F10270   7.157   5.324   6.364 -0.2529 -1.4364  0.2418
  102OSM    H2G10271   7.113   5.447   6.249 -1.8051  0.1531  0.2190
  102OSM    C3F10272   7.097   5.237   6.173  0.6767 -0.2103 -0.4493
  102OSM    H3F10273   7.087   5.131   6.202  2.0743 -0.3278 -0.2981
  102OSM    H3G10274   7.199   5.262   6.136 -0.2946 -0.0190 -3.2116
  102OSM    C4F10275   7.014   5.262   6.045  0.0025 -0.2491 -0.2416
  102OSM    H4F10276   7.022   5.369   6.018 -0.8076 -0.5228 -1.6785
  102OSM    H4G10277   6.906   5.235   6.049 -0.3292  1.0044 -0.5046
  102OSM    C5F10278   7.072   5.171   5.939  0.1027 -0.4121 -0.3514
  102OSM    H5F10279   7.082   5.068   5.979  0.3086 -0.2321  0.0680
  102OSM    H5G10280   7.169   5.214   5.906  0.0179  0.5573  0.5942
  102OSM    C6F10281   6.989   5.147   5.816  0.4665  0.0000  0.8882
  102OSM    H6F10282   6.971   5.235   5.750 -0.6631 -1.9509 -1.5788
  102OSM    H6G10283   6.895   5.099   5.850  0.2252 -1.9911 -2.1856
  102OSM    C7F10284   7.058   5.042   5.721  0.1674  0.1389 -0.7140
  102OSM    H7F10285   7.072   4.948   5.778 -1.2191 -0.4962 -1.3747
  102OSM    H7G10286   7.160   5.077   5.694  0.1737  0.5645 -0.1565
  102OSM    C8F10287   6.973   5.002   5.596  0.3290 -0.1851  0.5406
  102OSM    H8F10288   6.946   5.095   5.541 -1.5250  0.2911  2.1400
  102OSM    H8G10289   6.883   4.957   5.644  0.8631 -2.4769 -0.5196
  102OSM    C9F10290   7.046   4.897   5.516  0.6599  0.1283 -0.1318
  102OSM    H9F10291   7.100   4.825   5.580  0.5934 -0.0094 -0.2318
  102OSM   C10F10292   7.068   4.883   5.388  0.0052 -0.1001  0.1760
  102OSM   H10F10293   7.132   4.800   5.353  0.1929  0.3045 -0.4516
  102OSM   C11F10294   7.011   4.967   5.284  0.2931  0.1776  0.0537
  102OSM   H11F10295   7.089   4.995   5.211 -0.2726 -1.5828 -1.2992
  102OSM   H11G10296   6.964   5.063   5.314  0.7529  0.0859  1.1329
  102OSM   C12F10297   6.900   4.885   5.210  0.0599  0.0735 -0.3921
  102OSM   H12F10298   6.815   4.856   5.275  0.0849  1.5584  0.3507
  102OSM   H12G10299   6.950   4.791   5.177  0.7892 -0.0316  0.9270
  102OSM   C13F10300   6.843   4.955   5.088  0.0427 -0.7304 -0.5969
  102OSM   H13F10301   6.795   5.053   5.107 -0.7349 -1.1260 -0.4632
  102OSM   H13G10302   6.763   4.888   5.051  0.6520 -0.8935 -1.6499
  102OSM   C14F10303   6.938   4.959   4.973  0.7186  0.0653 -0.0685
  102OSM   H14F10304   6.983   4.860   4.950  0.3658 -0.2540  0.5861
  102OSM   H14G10305   7.025   5.014   5.014  0.9091 -1.4361  1.6714
  102OSM   C15F10306   6.887   5.025   4.847  0.6844  0.3496  0.1152
  102OSM   H15F10307   6.856   5.129   4.870  0.7245  0.8480 -1.8644
  102OSM   H15G10308   6.804   4.970   4.797 -0.0744 -0.7199  2.4067
  102OSM   C16F10309   6.989   5.063   4.738  1.0771  0.0287 -0.0009
  102OSM   H16F10310   7.067   5.130   4.779  0.8999 -0.1165  0.5778
  102OSM   H16G10311   6.929   5.126   4.668  1.4609 -0.2581 -0.5992
  102OSM   C17F10312   7.042   4.945   4.658 -0.0715 -0.0414 -0.4274
  102OSM   H17F10313   6.957   4.883   4.622  0.2901 -1.9483  1.7453
  102OSM   H17G10314   7.113   4.879   4.712  0.8449 -1.3577 -3.0290
  102OSM   C18F10315   7.122   5.006   4.538 -0.1137 -0.2390  0.6305
  102OSM   H18F10316   7.163   4.928   4.470 -4.4478 -1.3951 -1.0095
  102OSM   H18G10317   7.203   5.071   4.577 -0.4286  0.6665 -0.2036
  102OSM   H18H10318   7.059   5.052   4.459 -3.1172 -1.5333  2.0987
  103OSM      N10319   5.188   5.877   7.671  0.2496  0.3837  0.0765
  103OSM    C1510320   5.123   5.741   7.676 -0.3905 -0.4143 -0.4196
  103OSM   H15A10321   5.019   5.743   7.647 -1.0924 -1.1742  1.8236
  103OSM   H15B10322   5.126   5.704   7.777  0.3571 -1.3140 -0.7591
  103OSM   H15C10323   5.177   5.673   7.612 -0.3806 -2.2925  1.4788
  103OSM    C1410324   5.142   5.960   7.780 -0.3555 -0.5971 -0.8016
  103OSM   H14A10325   5.145   6.066   7.759 -1.3977 -0.8275 -2.2491
  103OSM   H14B10326   5.202   5.945   7.868  0.1914  0.6321 -0.9540
  103OSM   H14C10327   5.041   5.939   7.812 -0.2232 -1.3560 -0.8531
  103OSM    C1310328   5.331   5.855   7.684 -0.4071 -0.5695 -0.0479
  103OSM   H13A10329   5.376   5.801   7.602  3.3108  1.7291  0.2683
  103OSM   H13B10330   5.358   5.803   7.775  0.9412 -0.3461 -0.3004
  103OSM   H13C10331   5.385   5.948   7.678  0.2571 -0.8928  0.6759
  103OSM    C1210332   5.150   5.916   7.530  0.1717 -0.7277 -0.0690
  103OSM   H12A10333   5.177   6.018   7.507 -2.0071  0.2151  1.2672
  103OSM   H12B10334   5.043   5.903   7.528  0.2504 -2.5255  2.4431
  103OSM    C1110335   5.221   5.839   7.413  0.0472  0.0602 -0.4417
  103OSM   H11A10336   5.161   5.867   7.324  0.0612  2.3786  0.2199
  103OSM   H11B10337   5.204   5.730   7.422  1.8172 -0.1342  1.1285
  103OSM      P10338   5.419   5.986   7.309  0.6175  0.2344  0.2611
  103OSM    O1310339   5.311   6.084   7.285  0.1460 -0.1653  0.4444
  103OSM    O1410340   5.553   6.026   7.363  0.6416 -0.6747  0.1778
  103OSM    O1110341   5.453   5.897   7.179 -0.3636 -0.1539 -0.1030
  103OSM    O1210342   5.358   5.867   7.389 -0.4188  0.5262 -0.0068
  103OSM    C1S10343   5.362   5.868   7.079  0.3543 -0.2928  0.1365
  103OSM    H1S10344   5.325   5.968   7.049 -1.3081  0.0572  3.0685
  103OSM    H1T10345   5.286   5.799   7.119  0.7657 -0.5508  0.4798
  103OSM     NF10346   5.329   5.796   6.853 -0.7261  0.8461  0.4179
  103OSM    HNF10347   5.293   5.703   6.852  3.9479 -1.3455 -2.8187
  103OSM    C2S10348   5.435   5.814   6.956 -0.1911 -0.0983  0.3495
  103OSM    H2S10349   5.509   5.888   6.917  0.1545 -0.7210 -0.1952
  103OSM    C3S10350   5.529   5.699   6.990  0.2245 -0.3219  0.5553
  103OSM    H3S10351   5.465   5.622   7.038 -1.4732  0.9070  0.3534
  103OSM     O310352   5.629   5.728   7.090  0.1416 -0.3785  0.2338
  103OSM    HO310353   5.592   5.802   7.139 -0.0049 -0.0329 -0.3917
  103OSM    C4S10354   5.596   5.654   6.861 -0.2131  0.8272 -0.3497
  103OSM    H4S10355   5.669   5.728   6.827 -0.8737  0.5541 -2.5096
  103OSM    C5S10356   5.584   5.533   6.805 -0.1344 -0.7311  1.1094
  103OSM    H5S10357   5.522   5.453   6.848 -1.0349 -0.0564  1.1213
  103OSM    C6S10358   5.655   5.488   6.674  0.7498 -0.3990  0.7367
  103OSM    H6S10359   5.703   5.393   6.705  1.4967  0.5670  2.6883
  103OSM    H6T10360   5.732   5.558   6.636  0.6326 -1.1514 -0.9782
  103OSM    C7S10361   5.545   5.478   6.562  0.6862 -0.3167  0.2231
  103OSM    H7S10362   5.459   5.416   6.596 -0.4359  0.2274 -1.4654
  103OSM    H7T10363   5.597   5.431   6.476 -0.6441 -1.0472 -0.2140
  103OSM    C8S10364   5.486   5.612   6.519  0.1105  0.3218 -0.2786
  103OSM    H8S10365   5.566   5.687   6.502  0.4898 -0.0166 -0.0091
  103OSM    H8T10366   5.428   5.636   6.611 -1.2676 -2.5760 -0.2525
  103OSM    C9S10367   5.391   5.624   6.389 -0.2706 -0.7028 -0.5280
  103OSM    H9S10368   5.375   5.732   6.370 -0.4313 -0.7839 -0.8439
  103OSM    H9T10369   5.293   5.591   6.429  0.7757 -2.8978  0.4733
  103OSM   C10S10370   5.449   5.545   6.270  0.7780 -0.0273  0.4112
  103OSM   H10S10371   5.468   5.438   6.290 -1.8620 -0.9097 -1.3059
  103OSM   H10T10372   5.548   5.590   6.246  1.4642 -0.5632  2.1067
  103OSM   C11S10373   5.356   5.561   6.144 -1.0000 -0.1116  0.0637
  103OSM   H11S10374   5.269   5.492   6.152  1.1926 -2.8810  2.5223
  103OSM   H11T10375   5.422   5.531   6.060  0.7429  2.1887  0.4917
  103OSM   C12S10376   5.308   5.708   6.121 -0.7085  0.2133  0.4973
  103OSM   H12S10377   5.396   5.776   6.129 -0.0128 -0.3095 -1.9898
  103OSM   H12T10378   5.232   5.743   6.194 -1.7369  0.4096 -0.6249
  103OSM   C13S10379   5.240   5.718   5.988 -0.2345 -0.2583 -0.2140
  103OSM   H13S10380   5.155   5.790   5.988  0.0346  0.1450  2.0879
  103OSM   H13T10381   5.191   5.626   5.950 -0.5175  0.9014 -2.9088
  103OSM   C14S10382   5.331   5.765   5.871  0.5108  0.0981 -1.0597
  103OSM   H14S10383   5.403   5.683   5.853  2.3150  0.9002  1.8376
  103OSM   H14T10384   5.399   5.849   5.898  0.5663 -0.2658 -0.0425
  103OSM   C15S10385   5.246   5.803   5.755 -0.1924 -0.4857  0.0594
  103OSM   H15S10386   5.179   5.889   5.778  0.0777  0.7226 -3.1396
  103OSM   H15T10387   5.187   5.711   5.735 -0.7250 -0.4969  1.5500
  103OSM   C16S10388   5.324   5.822   5.631 -0.1984 -0.5914 -0.7962
  103OSM   H16S10389   5.398   5.739   5.628 -1.3274 -1.7231  0.9794
  103OSM   H16T10390   5.387   5.914   5.631  0.7565 -1.2011  0.5983
  103OSM   C17S10391   5.246   5.803   5.495  0.2038  0.3224  0.1399
  103OSM   H17S10392   5.160   5.874   5.499  0.0520  0.1589 -0.1825
  103OSM   H17T10393   5.207   5.699   5.486  0.2160  0.1923  1.3565
  103OSM   C18S10394   5.331   5.842   5.370  0.2563  0.0064  0.2328
  103OSM   H18S10395   5.433   5.800   5.385  0.0678  0.5250  4.1737
  103OSM   H18T10396   5.338   5.953   5.364  1.1767 -0.1101 -1.3987
  103OSM   H18U10397   5.290   5.799   5.276 -0.7546 -1.4320  1.2804
  103OSM    C1F10398   5.260   5.904   6.808  0.0501 -0.2586  0.1288
  103OSM     OF10399   5.319   6.011   6.790 -0.2940  0.4390 -0.2687
  103OSM    C2F10400   5.110   5.888   6.783  0.2329 -0.5459 -0.1534
  103OSM    H2F10401   5.053   5.968   6.836  0.0195 -0.5540 -0.3694
  103OSM    H2G10402   5.077   5.795   6.834  0.0618  0.3241  1.3920
  103OSM    C3F10403   5.068   5.873   6.637  0.1650 -1.0171  0.3128
  103OSM    H3F10404   5.120   5.788   6.588  1.3834  1.8470 -3.9708
  103OSM    H3G10405   5.101   5.957   6.572 -0.5940 -1.3820 -0.5717
  103OSM    C4F10406   4.918   5.863   6.628  0.2826  0.0778  0.2789
  103OSM    H4F10407   4.869   5.960   6.650 -1.0102 -0.4627 -0.1145
  103OSM    H4G10408   4.879   5.779   6.690  1.5412 -0.5474  0.2727
  103OSM    C5F10409   4.861   5.824   6.491  0.4024  0.1528 -0.4236
  103OSM    H5F10410   4.898   5.897   6.416 -1.1354  1.2209 -0.1626
  103OSM    H5G10411   4.751   5.824   6.500  0.0980  0.2788 -3.1916
  103OSM    C6F10412   4.891   5.677   6.460  0.0443  0.0274  0.5030
  103OSM    H6F10413   4.898   5.619   6.555  2.7039 -0.5088  0.0408
  103OSM    H6G10414   4.996   5.676   6.426 -0.5006 -1.7781 -1.2403
  103OSM    C7F10415   4.782   5.602   6.370 -0.3632 -0.4579  0.2569
  103OSM    H7F10416   4.794   5.625   6.263 -3.5522 -1.7529 -0.4978
  103OSM    H7G10417   4.683   5.644   6.397 -0.5744 -0.3113 -0.7114
  103OSM    C8F10418   4.785   5.453   6.387 -0.1934  0.1417 -1.1027
  103OSM    H8F10419   4.698   5.402   6.340 -1.4580  1.1063  0.0852
  103OSM    H8G10420   4.777   5.426   6.495 -0.1169  1.2429 -0.8115
  103OSM    C9F10421   4.913   5.390   6.340 -0.7111  0.6523  0.6321
  103OSM    H9F10422   4.987   5.377   6.421 -1.0565 -1.0532  0.7143
  103OSM   C10F10423   4.945   5.359   6.213  0.7542  0.1673 -1.2132
  103OSM   H10F10424   5.049   5.325   6.206  0.4652 -1.6364  1.7168
  103OSM   C11F10425   4.855   5.371   6.091  0.0890  0.0828  0.2105
  103OSM   H11F10426   4.750   5.403   6.109 -1.4110 -2.2861 -3.3691
  103OSM   H11G10427   4.856   5.278   6.032  0.9371  1.1696 -1.5768
  103OSM   C12F10428   4.919   5.487   6.011  0.3392  0.7305 -0.4582
  103OSM   H12F10429   5.028   5.463   6.008  0.2559 -0.3995  2.2275
  103OSM   H12G10430   4.908   5.588   6.054  1.7077  0.2078  1.2703
  103OSM   C13F10431   4.874   5.475   5.863  0.2232  0.0057 -0.3300
  103OSM   H13F10432   4.923   5.389   5.812  0.8708  0.1343  0.0619
  103OSM   H13G10433   4.922   5.561   5.810  0.3177  0.0738 -0.1352
  103OSM   C14F10434   4.721   5.500   5.852 -0.3326  0.1123  1.0600
  103OSM   H14F10435   4.692   5.592   5.908  0.5992  0.5051  0.9178
  103OSM   H14G10436   4.661   5.416   5.891 -0.1289 -0.4366  0.2134
  103OSM   C15F10437   4.669   5.524   5.705 -0.0154  0.3986 -0.4492
  103OSM   H15F10438   4.696   5.440   5.638  1.4234  0.8234 -0.4253
  103OSM   H15G10439   4.725   5.613   5.669 -0.4899  0.9868  0.2338
  103OSM   C16F10440   4.524   5.553   5.692  0.5253  0.1094  0.1615
  103OSM   H16F10441   4.505   5.647   5.748 -0.2122 -0.2367  0.4982
  103OSM   H16G10442   4.455   5.477   5.733 -1.2257  1.0248 -0.9667
  103OSM   C17F10443   4.469   5.571   5.549  0.5916  0.2969 -0.5606
  103OSM   H17F10444   4.525   5.657   5.506 -0.5962  1.0284 -0.6914
  103OSM   H17G10445   4.367   5.615   5.560  1.3753  1.8031  1.4083
  103OSM   C18F10446   4.471   5.453   5.452  0.0580 -0.4212 -0.2739
  103OSM   H18F10447   4.418   5.363   5.491 -0.4365 -0.1825 -0.3801
  103OSM   H18G10448   4.572   5.409   5.441  0.3291  0.0819  0.1671
  103OSM   H18H10449   4.425   5.480   5.354  0.0445 -0.2825 -0.2297
  104OSM      N10450   0.750   0.296   6.984 -0.2824  0.4789 -0.5874
  104OSM    C1510451   0.712   0.170   7.057  0.7363 -0.4049 -0.2743
  104OSM   H15A10452   0.607   0.152   7.038  0.8255 -1.5856  0.3262
  104OSM   H15B10453   0.731   0.169   7.163 -2.0903 -0.9449  0.3162
  104OSM   H15C10454   0.765   0.085   7.018 -1.2165 -1.7275 -0.1742
  104OSM    C1410455   0.671   0.408   7.040 -0.0576  0.2995 -0.1401
  104OSM   H14A10456   0.689   0.430   7.144  0.5885 -1.1834  0.0911
  104OSM   H14B10457   0.566   0.385   7.041  0.0005 -0.0230 -0.7375
  104OSM   H14C10458   0.687   0.495   6.978 -1.3029 -0.5850 -1.7762
  104OSM    C1310459   0.896   0.317   7.005 -0.5087  0.0738  0.0448
  104OSM   H13A10460   0.946   0.225   6.977  0.9332  0.3873  1.3775
  104OSM   H13B10461   0.922   0.327   7.110  2.7376 -1.6833 -0.4634
  104OSM   H13C10462   0.933   0.401   6.947  1.2229 -0.2667  0.5788
  104OSM    C1210463   0.722   0.278   6.833  0.7071  0.5420 -0.1594
  104OSM   H12A10464   0.740   0.372   6.782  1.0999 -0.1221 -1.2937
  104OSM   H12B10465   0.616   0.261   6.820  0.8009 -2.3211  1.9408
  104OSM    C1110466   0.804   0.176   6.753 -0.1445  0.3903  0.1915
  104OSM   H11A10467   0.909   0.212   6.755 -0.7603  2.3969 -0.6024
  104OSM   H11B10468   0.785   0.180   6.643 -2.3575 -1.9827  0.3894
  104OSM      P10469   0.665  -0.052   6.753  0.2921 -0.3602  0.8624
  104OSM    O1310470   0.641  -0.154   6.856 -0.0139  0.0646  0.1097
  104OSM    O1410471   0.553   0.028   6.709 -0.2362 -0.1720  0.2788
  104OSM    O1110472   0.728  -0.116   6.625 -0.1788 -0.3827 -0.2095
  104OSM    O1210473   0.777   0.046   6.800 -0.1986  0.2688 -0.9500
  104OSM    C1S10474   0.870  -0.126   6.607 -0.6187 -0.7025 -0.1694
  104OSM    H1S10475   0.916  -0.207   6.668  1.4622  0.5653  0.0496
  104OSM    H1T10476   0.924  -0.035   6.642 -2.9368  1.0093 -0.8083
  104OSM     NF10477   1.042  -0.192   6.440  0.3451  0.2111  0.2445
  104OSM    HNF10478   1.106  -0.120   6.412  1.2185 -0.6464 -0.0092
  104OSM    C2S10479   0.895  -0.157   6.456 -0.4606 -0.1024  0.1086
  104OSM    H2S10480   0.831  -0.246   6.437  0.6696 -1.2313  1.3820
  104OSM    C3S10481   0.849  -0.042   6.364 -0.0549  0.0771  0.2578
  104OSM    H3S10482   0.911   0.046   6.393  0.8639 -0.5963  0.3775
  104OSM     O310483   0.707  -0.017   6.388  0.3083  0.4453 -0.1550
  104OSM    HO310484   0.701  -0.060   6.474 -1.3385  1.2299  0.1563
  104OSM    C4S10485   0.866  -0.076   6.219 -0.6389 -0.0785 -0.1095
  104OSM    H4S10486   0.781  -0.136   6.185 -1.6031  0.5693  1.1008
  104OSM    C5S10487   0.971  -0.047   6.141 -0.7388  0.2795 -0.0613
  104OSM    H5S10488   1.058   0.002   6.188  0.3273 -0.2070 -1.4644
  104OSM    C6S10489   0.989  -0.091   6.002 -0.1567 -0.0728  0.2848
  104OSM    H6S10490   1.087  -0.142   5.990  0.4684  1.2645 -0.4649
  104OSM    H6T10491   0.991  -0.006   5.931  1.3054  0.0267  0.4115
  104OSM    C7S10492   0.887  -0.190   5.946  0.6142 -0.3639 -0.4874
  104OSM    H7S10493   0.789  -0.138   5.952  0.4469 -0.7289  0.0394
  104OSM    H7T10494   0.888  -0.270   6.022 -1.0323  0.8365  0.8735
  104OSM    C8S10495   0.922  -0.241   5.807  0.0760 -0.5953 -0.0172
  104OSM    H8S10496   0.866  -0.335   5.788 -0.9969 -0.2582  1.3784
  104OSM    H8T10497   1.028  -0.271   5.800  0.4881  1.0141 -1.5377
  104OSM    C9S10498   0.899  -0.141   5.691 -0.5730 -0.6246 -0.9582
  104OSM    H9S10499   0.990  -0.078   5.677  1.7994 -3.2354  1.3732
  104OSM    H9T10500   0.818  -0.070   5.719  0.9584  0.9083 -0.2276
  104OSM   C10S10501   0.857  -0.219   5.562  0.1787 -0.1524 -0.6783
  104OSM   H10S10502   0.781  -0.296   5.589  0.7071 -1.0060 -1.6040
  104OSM   H10T10503   0.942  -0.276   5.520  0.6740 -0.2501  0.4222
  104OSM   C11S10504   0.787  -0.130   5.464  0.1641 -0.3440  0.3967
  104OSM   H11S10505   0.846  -0.040   5.435  0.9271 -0.6536  0.9577
  104OSM   H11T10506   0.697  -0.086   5.510  0.4763  0.4801  0.2393
  104OSM   C12S10507   0.744  -0.208   5.338 -0.0532 -0.1541  0.1912
  104OSM   H12S10508   0.677  -0.293   5.365  0.6592 -0.9747 -0.5643
  104OSM   H12T10509   0.836  -0.260   5.302 -0.0371  0.3476 -0.5140
  104OSM   C13S10510   0.701  -0.129   5.214 -0.0552 -1.2136 -0.6550
  104OSM   H13S10511   0.753  -0.168   5.123  1.5586 -0.7090  0.0184
  104OSM   H13T10512   0.746  -0.027   5.212  1.3335 -1.7610  0.6017
  104OSM   C14S10513   0.550  -0.117   5.184 -0.1107 -0.9798 -0.1835
  104OSM   H14S10514   0.502  -0.043   5.252 -2.6183 -1.6385 -1.0995
  104OSM   H14T10515   0.493  -0.209   5.207 -1.9899  0.2099  0.1655
  104OSM   C15S10516   0.515  -0.079   5.040 -0.3345  0.8021  0.0686
  104OSM   H15S10517   0.407  -0.055   5.033 -0.2399  0.6246 -3.3428
  104OSM   H15T10518   0.527  -0.169   4.976 -0.8215  0.7876 -0.0052
  104OSM   C16S10519   0.598   0.030   4.974  0.4768 -0.0394  0.3799
  104OSM   H16S10520   0.706   0.004   4.966  0.2974 -0.7304  0.1544
  104OSM   H16T10521   0.601   0.128   5.027  1.1450 -0.3548  0.9445
  104OSM   C17S10522   0.565   0.042   4.819  0.2681  0.0507  0.1277
  104OSM   H17S10523   0.554  -0.061   4.779  1.7010 -0.0386 -0.0772
  104OSM   H17T10524   0.650   0.076   4.755 -0.8244 -0.5504 -1.7293
  104OSM   C18S10525   0.452   0.134   4.767  0.1223 -0.3408 -0.1239
  104OSM   H18S10526   0.366   0.138   4.839 -1.1391  0.3786 -1.6097
  104OSM   H18T10527   0.405   0.095   4.674  1.9845 -1.0181 -0.8255
  104OSM   H18U10528   0.483   0.239   4.750  1.1458 -0.5889  0.1804
  104OSM    C1F10529   1.097  -0.305   6.484 -0.4428 -0.2472  0.0282
  104OSM     OF10530   1.035  -0.400   6.526 -0.5364 -0.7191  0.4866
  104OSM    C2F10531   1.242  -0.307   6.469 -0.3103  0.7017  0.7187
  104OSM    H2F10532   1.284  -0.331   6.569 -0.4717  1.8818  1.0940
  104OSM    H2G10533   1.279  -0.203   6.454 -0.6298  0.8324  0.8232
  104OSM    C3F10534   1.292  -0.409   6.355  0.5165 -0.0580 -0.1971
  104OSM    H3F10535   1.280  -0.516   6.379  2.0494 -0.3557 -0.6495
  104OSM    H3G10536   1.401  -0.398   6.331  0.2990 -0.4868 -1.4611
  104OSM    C4F10537   1.223  -0.367   6.223 -0.4916 -0.2773  0.2226
  104OSM    H4F10538   1.253  -0.260   6.212 -0.1823 -0.2414  1.3455
  104OSM    H4G10539   1.112  -0.370   6.223 -0.5029 -0.4338  1.7544
  104OSM    C5F10540   1.275  -0.458   6.111 -1.3105  0.3578  0.1009
  104OSM    H5F10541   1.269  -0.565   6.140 -0.6617  0.1940 -0.3485
  104OSM    H5G10542   1.380  -0.428   6.094 -1.2067 -0.3417 -0.5196
  104OSM    C6F10543   1.192  -0.448   5.988 -0.1133 -0.5310 -0.6755
  104OSM    H6F10544   1.222  -0.349   5.949  1.6142 -0.6216  0.3464
  104OSM    H6G10545   1.085  -0.448   6.018 -0.2063  1.2811 -0.9048
  104OSM    C7F10546   1.223  -0.555   5.886  0.3477 -0.1174  0.3250
  104OSM    H7F10547   1.206  -0.654   5.934  1.7519  0.3765  1.9637
  104OSM    H7G10548   1.330  -0.553   5.857  0.1947 -0.3121 -0.2523
  104OSM    C8F10549   1.132  -0.542   5.752 -0.4719  0.0071 -1.0800
  104OSM    H8F10550   1.152  -0.440   5.713 -0.5267  0.9742  1.2263
  104OSM    H8G10551   1.022  -0.552   5.764 -1.1496  2.8415 -3.6402
  104OSM    C9F10552   1.172  -0.654   5.657 -0.9349 -0.1181 -0.4028
  104OSM    H9F10553   1.264  -0.701   5.697 -0.0284  1.8925  0.0133
  104OSM   C10F10554   1.096  -0.698   5.552  0.2711  0.3286  0.0179
  104OSM   H10F10555   1.143  -0.767   5.480  1.4538  0.0599  1.0015
  104OSM   C11F10556   0.956  -0.639   5.513 -0.2527  0.0778  0.0973
  104OSM   H11F10557   0.931  -0.572   5.599  0.2382  0.1261  0.2066
  104OSM   H11G10558   0.877  -0.717   5.508  0.0369 -0.2044 -0.0897
  104OSM   C12F10559   0.962  -0.550   5.385  0.2951 -0.0150 -0.7502
  104OSM   H12F10560   1.032  -0.468   5.412 -0.0584  0.1154 -0.2125
  104OSM   H12G10561   0.867  -0.493   5.372  0.9695  1.9653  2.0278
  104OSM   C13F10562   0.997  -0.623   5.258 -0.5508  0.1147 -0.3670
  104OSM   H13F10563   0.903  -0.678   5.238 -0.7522  0.4875 -0.4426
  104OSM   H13G10564   1.076  -0.701   5.269  0.0746  0.5964 -1.3435
  104OSM   C14F10565   1.032  -0.530   5.139  0.3607 -0.0720 -0.0945
  104OSM   H14F10566   1.138  -0.497   5.151  0.6053  0.0551 -2.2173
  104OSM   H14G10567   0.963  -0.445   5.125  0.7310  0.2632  0.0961
  104OSM   C15F10568   1.032  -0.606   5.009  0.2333 -0.1403  0.2744
  104OSM   H15F10569   0.949  -0.680   5.017  2.0545 -2.1069  1.9776
  104OSM   H15G10570   1.116  -0.676   4.995 -0.5916 -1.1140  0.0504
  104OSM   C16F10571   1.017  -0.513   4.883 -0.2767  1.3487  0.1398
  104OSM   H16F10572   1.119  -0.474   4.862  0.5208 -0.9479 -0.5420
  104OSM   H16G10573   0.941  -0.436   4.908  1.4120  2.6786  1.4864
  104OSM   C17F10574   0.982  -0.601   4.758 -0.2757 -0.5811  0.2604
  104OSM   H17F10575   0.901  -0.668   4.792  0.3163 -1.2782  0.3221
  104OSM   H17G10576   1.068  -0.666   4.733  2.2926  0.8829  4.2308
  104OSM   C18F10577   0.939  -0.508   4.643 -0.0664  0.3220 -0.4632
  104OSM   H18F10578   0.915  -0.563   4.549  0.0471 -0.1289 -0.2304
  104OSM   H18G10579   1.021  -0.438   4.616  0.0111 -0.1237 -1.4312
  104OSM   H18H10580   0.856  -0.438   4.664 -0.5910 -0.0729 -1.1459
  105OSM      N10581   0.176   1.822   7.033 -0.0321  0.1902 -0.3787
  105OSM    C1510582   0.294   1.732   7.031 -0.3483  0.2261  0.1881
  105OSM   H15A10583   0.315   1.675   7.121  2.5883 -0.7300 -1.0041
  105OSM   H15B10584   0.376   1.789   6.990  0.0752 -2.5099 -3.2085
  105OSM   H15C10585   0.282   1.658   6.953  0.9916  1.4476 -1.2280
  105OSM    C1410586   0.063   1.757   7.107  0.1060 -0.1079  0.3141
  105OSM   H14A10587   0.093   1.711   7.201  0.6350 -1.0942 -0.3186
  105OSM   H14B10588   0.032   1.674   7.046  1.1441  0.5470 -1.1681
  105OSM   H14C10589  -0.018   1.820   7.139 -0.4430 -0.9906  0.6826
  105OSM    C1310590   0.221   1.938   7.115 -0.3043  0.9967  0.4644
  105OSM   H13A10591   0.295   1.997   7.063 -1.6988  4.3927  1.9671
  105OSM   H13B10592   0.282   1.908   7.198 -0.3899 -0.7072 -0.0580
  105OSM   H13C10593   0.138   2.003   7.140 -2.1899 -0.2070 -2.1738
  105OSM    C1210594   0.129   1.875   6.896 -0.1421  0.1599 -0.5344
  105OSM   H12A10595   0.204   1.947   6.866 -0.1748  1.1607  1.6228
  105OSM   H12B10596   0.036   1.927   6.907 -1.2546 -1.4508 -1.7836
  105OSM    C1110597   0.106   1.773   6.793 -0.0199  0.4325  0.2476
  105OSM   H11A10598   0.197   1.711   6.776 -1.1438 -1.0458 -0.7455
  105OSM   H11B10599   0.090   1.822   6.694 -0.2819 -0.2961 -0.0806
  105OSM      P10600  -0.139   1.711   6.769  0.1113  0.0346 -0.1493
  105OSM    O1310601  -0.229   1.607   6.825  0.6081  0.3760  0.3098
  105OSM    O1410602  -0.184   1.854   6.785 -0.2703 -0.3090  0.0062
  105OSM    O1110603  -0.099   1.688   6.618  0.2513  0.2766  0.2878
  105OSM    O1210604  -0.001   1.690   6.843  0.7210  0.5712  0.5686
  105OSM    C1S10605  -0.034   1.568   6.569  0.1930  0.8103 -0.3155
  105OSM    H1S10606  -0.087   1.480   6.610 -1.0277  1.5869 -0.1740
  105OSM    H1T10607   0.075   1.571   6.586  0.2248  0.9189 -0.5306
  105OSM     NF10608   0.039   1.443   6.364 -0.4335 -0.1791  0.3405
  105OSM    HNF10609   0.137   1.450   6.346 -0.5549 -1.3488 -0.9355
  105OSM    C2S10610  -0.032   1.557   6.416 -0.4524 -0.3213  0.1392
  105OSM    H2S10611  -0.140   1.546   6.392 -1.8683  2.6868  3.9282
  105OSM    C3S10612   0.019   1.694   6.349  0.3502 -0.2736  0.4406
  105OSM    H3S10613   0.116   1.725   6.394 -0.0664  1.4229  0.2433
  105OSM     O310614  -0.073   1.798   6.379  0.3232 -0.2447  0.1580
  105OSM    HO310615  -0.104   1.775   6.467 -1.2607  0.8352 -0.0649
  105OSM    C4S10616   0.044   1.684   6.199 -0.0534  0.3119  0.3848
  105OSM    H4S10617   0.142   1.721   6.167 -0.5539  2.0366  0.7050
  105OSM    C5S10618  -0.038   1.633   6.104 -0.2564 -0.1281 -0.0899
  105OSM    H5S10619  -0.134   1.594   6.142 -0.1868  1.1434  1.4704
  105OSM    C6S10620  -0.010   1.616   5.956 -0.3621 -0.0271 -0.1902
  105OSM    H6S10621   0.059   1.692   5.912 -1.5793  0.6953 -0.8983
  105OSM    H6T10622  -0.106   1.644   5.909 -0.7896 -1.3107 -0.1244
  105OSM    C7S10623   0.033   1.474   5.917 -0.3822 -0.8414  0.2297
  105OSM    H7S10624  -0.054   1.404   5.916 -0.7757 -0.3568 -0.6561
  105OSM    H7T10625   0.102   1.430   5.992  0.2605 -1.0144 -0.4559
  105OSM    C8S10626   0.105   1.465   5.779  0.9039  0.3989 -0.0738
  105OSM    H8S10627   0.137   1.359   5.772 -1.7719 -0.4449 -0.7283
  105OSM    H8T10628   0.191   1.534   5.772 -0.3473  1.8962 -1.3321
  105OSM    C9S10629   0.016   1.501   5.651  0.1141 -0.0604 -0.9633
  105OSM    H9S10630  -0.007   1.609   5.651  0.2199  0.0134  1.3416
  105OSM    H9T10631  -0.082   1.452   5.672 -0.4802  1.7844  0.9198
  105OSM   C10S10632   0.085   1.451   5.524  0.7287  0.4603 -0.0378
  105OSM   H10S10633   0.122   1.347   5.540  1.1198  0.6626  0.3885
  105OSM   H10T10634   0.174   1.515   5.511  1.1160  0.3781  1.8739
  105OSM   C11S10635   0.007   1.445   5.394 -0.2403  0.5445 -0.1572
  105OSM   H11S10636  -0.057   1.536   5.387 -1.4076 -0.3926 -2.6129
  105OSM   H11T10637  -0.070   1.367   5.409 -1.1762  1.5989  0.7133
  105OSM   C12S10638   0.085   1.408   5.268  0.2963  0.0357  0.4002
  105OSM   H12S10639   0.018   1.417   5.181 -1.7822  1.5333  2.0652
  105OSM   H12T10640   0.122   1.304   5.282 -0.6249 -0.3973 -0.2882
  105OSM   C13S10641   0.192   1.503   5.243  0.0418 -0.1248 -0.3566
  105OSM   H13S10642   0.282   1.474   5.301  0.5546 -0.2083 -1.1959
  105OSM   H13T10643   0.161   1.602   5.284  0.2706  0.5596 -1.7671
  105OSM   C14S10644   0.222   1.514   5.096 -0.4721 -0.5664  0.3076
  105OSM   H14S10645   0.122   1.530   5.050  0.4438  0.7851 -1.3220
  105OSM   H14T10646   0.257   1.418   5.053  0.0474 -0.8480  1.3317
  105OSM   C15S10647   0.336   1.619   5.068  0.2799 -0.3516 -0.5433
  105OSM   H15S10648   0.426   1.593   5.127 -0.5116 -1.5343  0.1719
  105OSM   H15T10649   0.299   1.720   5.098  0.1258 -0.5090 -0.1955
  105OSM   C16S10650   0.377   1.642   4.931  0.6907 -0.0275  0.5586
  105OSM   H16S10651   0.390   1.539   4.890 -0.8053  0.1012 -0.3156
  105OSM   H16T10652   0.479   1.682   4.915  1.3808 -1.5773  0.8533
  105OSM   C17S10653   0.271   1.707   4.842  0.3955 -0.4756 -0.3813
  105OSM   H17S10654   0.273   1.817   4.856 -0.4864 -0.5612  0.5084
  105OSM   H17T10655   0.170   1.680   4.880  1.0024 -3.3864 -0.5907
  105OSM   C18S10656   0.280   1.666   4.696 -0.4593 -0.3230  0.0836
  105OSM   H18S10657   0.265   1.557   4.682  0.1286 -0.4405  0.3457
  105OSM   H18T10658   0.374   1.695   4.646 -0.8599 -0.6710 -0.8955
  105OSM   H18U10659   0.203   1.732   4.649  0.3873  1.0857  0.6097
  105OSM    C1F10660   0.003   1.320   6.367  0.1436  0.1950 -0.1263
  105OSM     OF10661  -0.097   1.295   6.430 -0.4316  0.5468 -0.4863
  105OSM    C2F10662   0.081   1.217   6.296 -0.3551  0.2249  0.2917
  105OSM    H2F10663   0.154   1.167   6.363  0.3582  1.0661  0.1647
  105OSM    H2G10664   0.139   1.274   6.219 -0.7214  0.2420  0.0270
  105OSM    C3F10665  -0.016   1.115   6.243 -0.8134 -0.6477  0.2948
  105OSM    H3F10666  -0.106   1.087   6.302 -1.5915 -0.9875 -1.0073
  105OSM    H3G10667   0.022   1.015   6.217 -2.0075 -1.9813  3.2002
  105OSM    C4F10668  -0.081   1.169   6.115 -0.0720  0.0292  0.6072
  105OSM    H4F10669   0.004   1.188   6.045 -0.9443  2.4319  0.1046
  105OSM    H4G10670  -0.127   1.269   6.124 -0.0925 -0.0410  1.3684
  105OSM    C5F10671  -0.175   1.061   6.061  0.3339 -0.4370  0.2664
  105OSM    H5F10672  -0.263   1.055   6.128 -0.3072 -0.6934 -0.5722
  105OSM    H5G10673  -0.131   0.960   6.047  0.8620  0.1060 -2.7404
  105OSM    C6F10674  -0.247   1.107   5.931  0.0037 -0.1164  0.4013
  105OSM    H6F10675  -0.295   1.207   5.938  1.3387  0.7348 -1.7355
  105OSM    H6G10676  -0.327   1.034   5.904 -2.1352  1.9964  0.7400
  105OSM    C7F10677  -0.155   1.136   5.806  0.4720 -0.0034 -0.8544
  105OSM    H7F10678  -0.107   1.037   5.791  2.4220  0.8877 -0.8384
  105OSM    H7G10679  -0.080   1.210   5.842  1.5498 -1.2476 -0.4295
  105OSM    C8F10680  -0.232   1.176   5.680 -0.3983 -0.1494  0.1984
  105OSM    H8F10681  -0.155   1.209   5.607 -1.1465  0.1962 -0.4479
  105OSM    H8G10682  -0.294   1.263   5.706  0.6999  0.3382  1.2674
  105OSM    C9F10683  -0.313   1.065   5.629  0.3016  0.1630  0.4554
  105OSM    H9F10684  -0.260   0.978   5.587  3.2519  0.8690  2.4032
  105OSM   C10F10685  -0.446   1.064   5.627  0.4117  0.6321  0.1028
  105OSM   H10F10686  -0.491   0.976   5.579  0.0911  0.6281  0.4090
  105OSM   C11F10687  -0.543   1.155   5.685  0.6640 -0.2386  0.2146
  105OSM   H11F10688  -0.493   1.242   5.734 -1.0723  0.0885  1.5032
  105OSM   H11G10689  -0.592   1.102   5.770  0.5162  0.5340  0.6236
  105OSM   C12F10690  -0.656   1.210   5.591  0.9055  0.2466  0.7321
  105OSM   H12F10691  -0.599   1.259   5.509  0.8133 -0.4474  0.2450
  105OSM   H12G10692  -0.713   1.287   5.647  1.7896  2.2555 -0.9948
  105OSM   C13F10693  -0.763   1.109   5.530  0.2002  0.2901  0.3122
  105OSM   H13F10694  -0.702   1.037   5.471  0.5901 -0.4147  1.5517
  105OSM   H13G10695  -0.809   1.177   5.454  0.8425 -0.2541 -0.5904
  105OSM   C14F10696  -0.870   1.040   5.617  0.8409  0.3339  0.2297
  105OSM   H14F10697  -0.945   1.121   5.630  0.4291 -0.3254  2.1997
  105OSM   H14G10698  -0.819   1.015   5.712  1.0878 -0.9550 -0.2256
  105OSM   C15F10699  -0.935   0.923   5.547  0.4385 -0.4845  0.0112
  105OSM   H15F10700  -1.008   0.881   5.620 -1.5766  1.0649 -1.0217
  105OSM   H15G10701  -0.858   0.846   5.526 -0.1547 -1.1855  0.3775
  105OSM   C16F10702  -1.025   0.965   5.423  0.2880 -0.3523 -1.0582
  105OSM   H16F10703  -0.986   1.059   5.380  0.1922  0.0216 -0.3411
  105OSM   H16G10704  -1.130   0.980   5.458 -0.4582 -0.8242 -2.9814
  105OSM   C17F10705  -1.032   0.851   5.321 -0.7185 -0.5253  0.2411
  105OSM   H17F10706  -0.927   0.826   5.293  0.1284  1.6608  1.2019
  105OSM   H17G10707  -1.064   0.895   5.224 -2.7019  6.2245  3.3070
  105OSM   C18F10708  -1.102   0.723   5.352  0.1261  0.4953 -0.2855
  105OSM   H18F10709  -1.055   0.667   5.436 -0.4090  1.7292  0.8746
  105OSM   H18G10710  -1.097   0.657   5.263  4.1697 -1.7099  1.3187
  105OSM   H18H10711  -1.206   0.746   5.385 -2.5794 -4.7320 -3.6267
  106OSM      N10712   6.114   4.282   7.293  0.1216 -0.3436 -0.7715
  106OSM    C1510713   6.184   4.182   7.384 -0.1024  0.0336 -0.5818
  106OSM   H15A10714   6.275   4.224   7.424 -0.2746 -1.3759  1.4661
  106OSM   H15B10715   6.197   4.082   7.346 -0.3064 -0.2120 -0.0135
  106OSM   H15C10716   6.120   4.171   7.470 -0.0512  0.9558 -0.4105
  106OSM    C1410717   5.978   4.226   7.262  0.3890  1.0170 -0.3644
  106OSM   H14A10718   5.982   4.147   7.188 -4.2194 -0.9165  1.0615
  106OSM   H14B10719   5.907   4.302   7.232  0.3892  1.3775  0.5017
  106OSM   H14C10720   5.940   4.188   7.356  1.7480  1.9940  0.6128
  106OSM    C1310721   6.082   4.412   7.362 -0.1911 -0.2337  0.1123
  106OSM   H13A10722   6.058   4.489   7.290  0.9830 -0.0430 -0.0874
  106OSM   H13B10723   6.168   4.433   7.423  0.0790  0.5158 -0.5087
  106OSM   H13C10724   6.008   4.404   7.441 -0.1153 -1.5875  0.0604
  106OSM    C1210725   6.199   4.319   7.173  0.4375  0.5906 -0.1034
  106OSM   H12A10726   6.215   4.226   7.121  1.9752 -0.1639  1.6074
  106OSM   H12B10727   6.295   4.357   7.205  0.0919  0.4326  1.1905
  106OSM    C1110728   6.148   4.428   7.076  0.5434  0.1092  0.9175
  106OSM   H11A10729   6.220   4.458   6.998 -0.6043 -1.1584 -0.7091
  106OSM   H11B10730   6.136   4.518   7.140  0.6625  0.6783  0.1447
  106OSM      P10731   6.022   4.276   6.898 -0.1619  0.1393 -0.1356
  106OSM    O1310732   6.146   4.197   6.889  0.1551  0.2298  0.5699
  106OSM    O1410733   5.904   4.188   6.928 -0.5292  0.3226  0.1174
  106OSM    O1110734   5.986   4.351   6.768 -0.0787  0.6119  0.7769
  106OSM    O1210735   6.030   4.382   7.010 -0.0283 -0.9497  0.0580
  106OSM    C1S10736   6.069   4.454   6.707 -0.1144 -0.6640 -0.1947
  106OSM    H1S10737   6.173   4.449   6.744  0.4290 -0.2151 -1.5834
  106OSM    H1T10738   6.037   4.557   6.734  2.8158  1.2450 -3.1763
  106OSM     NF10739   6.164   4.537   6.508  0.1086  0.1276 -0.0800
  106OSM    HNF10740   6.132   4.628   6.482 -0.2608  0.5968  1.8785
  106OSM    C2S10741   6.061   4.448   6.556  0.2587  0.6193  0.6487
  106OSM    H2S10742   6.089   4.347   6.520  1.8071  1.8585 -1.8837
  106OSM    C3S10743   5.915   4.482   6.510  0.6187  0.1678  0.1185
  106OSM    H3S10744   5.886   4.582   6.549  2.9567  1.9846 -2.3820
  106OSM     O310745   5.821   4.386   6.552 -0.1239 -0.8198 -0.5233
  106OSM    HO310746   5.875   4.330   6.609 -0.4316  0.7751  1.4288
  106OSM    C4S10747   5.915   4.502   6.358 -0.1673  0.8204  0.0899
  106OSM    H4S10748   5.948   4.601   6.324  0.1564  0.6024 -0.2309
  106OSM    C5S10749   5.884   4.407   6.264 -0.3287 -0.7915 -0.6772
  106OSM    H5S10750   5.866   4.303   6.294 -0.5955 -0.6853 -0.4640
  106OSM    C6S10751   5.886   4.427   6.113  0.1405 -0.3479 -0.4075
  106OSM    H6S10752   5.839   4.343   6.058  1.0233 -1.3531  0.3430
  106OSM    H6T10753   5.992   4.434   6.080  0.0200 -1.3070 -1.0221
  106OSM    C7S10754   5.833   4.559   6.055  0.6110 -0.3908 -0.9798
  106OSM    H7S10755   5.874   4.636   6.124  1.8620 -1.2825 -0.6901
  106OSM    H7T10756   5.722   4.555   6.059  0.5499  1.4131  0.9211
  106OSM    C8S10757   5.876   4.601   5.917  0.4253 -0.4559  0.0234
  106OSM    H8S10758   5.985   4.581   5.906  1.3076  3.4707 -0.0904
  106OSM    H8T10759   5.860   4.711   5.907 -1.5279 -0.6171  0.8943
  106OSM    C9S10760   5.799   4.539   5.807 -0.4134 -0.1678  0.3112
  106OSM    H9S10761   5.697   4.583   5.809 -1.1308 -1.7444  0.0006
  106OSM    H9T10762   5.796   4.430   5.829  0.8566 -0.8017 -2.3287
  106OSM   C10S10763   5.864   4.537   5.673  0.4065  0.2506 -0.0418
  106OSM   H10S10764   5.953   4.470   5.674  1.5864  1.7327 -1.1024
  106OSM   H10T10765   5.902   4.637   5.645  1.8986 -0.4413 -0.6016
  106OSM   C11S10766   5.769   4.486   5.560 -0.0274 -0.5164 -0.4296
  106OSM   H11S10767   5.683   4.556   5.558  0.1199 -0.2652  0.8109
  106OSM   H11T10768   5.729   4.388   5.594  2.6659 -1.1229  1.3225
  106OSM   C12S10769   5.831   4.483   5.411 -0.4813 -0.6357 -0.5421
  106OSM   H12S10770   5.902   4.398   5.400 -0.0937 -0.3261 -0.4675
  106OSM   H12T10771   5.881   4.581   5.398  0.5452 -1.0295  0.3120
  106OSM   C13S10772   5.725   4.446   5.297  0.5192 -0.2584 -0.0799
  106OSM   H13S10773   5.652   4.530   5.286 -0.0059 -0.7049 -0.0492
  106OSM   H13T10774   5.671   4.351   5.315 -2.2291  1.4011  1.0658
  106OSM   C14S10775   5.804   4.443   5.173  0.2099  0.4039  0.0831
  106OSM   H14S10776   5.891   4.374   5.175  0.5420  0.6806 -2.1303
  106OSM   H14T10777   5.849   4.542   5.150  0.1313  0.2523 -0.7371
  106OSM   C15S10778   5.712   4.399   5.051  0.1815 -0.0907  0.4141
  106OSM   H15S10779   5.616   4.454   5.059  0.8405  1.1741 -0.0607
  106OSM   H15T10780   5.695   4.291   5.074  2.0105 -0.0509  2.1443
  106OSM   C16S10781   5.764   4.442   4.914  0.3426 -0.3983 -0.1026
  106OSM   H16S10782   5.856   4.384   4.889 -1.4754 -2.5079 -2.4419
  106OSM   H16T10783   5.799   4.547   4.922  4.2591 -1.5921  0.7923
  106OSM   C17S10784   5.671   4.417   4.792 -0.2706  0.2615  0.1162
  106OSM   H17S10785   5.591   4.494   4.780  0.2465  0.6494 -0.9770
  106OSM   H17T10786   5.627   4.315   4.798  2.8141 -1.3378 -2.0549
  106OSM   C18S10787   5.732   4.436   4.652 -0.8385  0.7106  0.4312
  106OSM   H18S10788   5.659   4.442   4.568 -2.5975 -2.2437  1.6034
  106OSM   H18T10789   5.795   4.346   4.635  0.2635  1.2640  1.4088
  106OSM   H18U10790   5.802   4.522   4.650  0.7476 -0.5431  0.8438
  106OSM    C1F10791   6.289   4.494   6.516  0.0853  0.2063  0.2108
  106OSM     OF10792   6.312   4.379   6.559 -0.1431 -0.4498 -0.3470
  106OSM    C2F10793   6.400   4.579   6.462 -0.4789  0.8098 -0.0713
  106OSM    H2F10794   6.461   4.612   6.548 -1.5400 -0.5417  1.2780
  106OSM    H2G10795   6.364   4.671   6.412  0.5532  0.7399 -0.9685
  106OSM    C3F10796   6.477   4.498   6.371 -0.8779 -0.2628 -0.2863
  106OSM    H3F10797   6.509   4.394   6.395  1.9984 -0.1882 -3.0907
  106OSM    H3G10798   6.571   4.552   6.346 -1.6709  1.1342 -0.2890
  106OSM    C4F10799   6.408   4.469   6.235 -0.8594 -0.3006 -0.1473
  106OSM    H4F10800   6.382   4.567   6.188  0.2731 -0.5728 -1.3979
  106OSM    H4G10801   6.315   4.411   6.255 -1.1974 -0.3628 -1.8060
  106OSM    C5F10802   6.503   4.393   6.139 -0.2214 -0.3973  0.5635
  106OSM    H5F10803   6.538   4.303   6.195 -0.4028 -0.4932  0.5233
  106OSM    H5G10804   6.584   4.466   6.116 -0.9459 -0.0692 -1.0451
  106OSM    C6F10805   6.451   4.358   5.997 -0.4585 -0.2937  0.1360
  106OSM    H6F10806   6.368   4.284   5.995 -0.3688 -0.3867 -1.6719
  106OSM    H6G10807   6.545   4.316   5.954  0.6176 -0.6708  2.6954
  106OSM    C7F10808   6.399   4.481   5.922  0.2628  0.4424 -0.4531
  106OSM    H7F10809   6.472   4.565   5.926  0.7052  0.1549 -1.7527
  106OSM    H7G10810   6.303   4.515   5.966  0.0199  1.1098 -1.4806
  106OSM    C8F10811   6.366   4.452   5.771 -0.2050 -0.1159  0.3240
  106OSM    H8F10812   6.268   4.398   5.764  0.2193 -1.2069  2.1168
  106OSM    H8G10813   6.439   4.378   5.733 -0.4648 -1.0301  1.5062
  106OSM    C9F10814   6.345   4.572   5.675 -0.8273  0.2407 -0.1330
  106OSM    H9F10815   6.320   4.662   5.733 -2.4698 -0.9539  1.1264
  106OSM   C10F10816   6.371   4.572   5.544  0.1646 -0.1185 -0.0260
  106OSM   H10F10817   6.359   4.665   5.485 -0.4248 -0.9394 -1.2475
  106OSM   C11F10818   6.416   4.457   5.452  0.6570  0.4465  0.0758
  106OSM   H11F10819   6.335   4.427   5.383 -0.3854  2.0347  0.5406
  106OSM   H11G10820   6.434   4.360   5.503 -0.6041  0.3569  0.3861
  106OSM   C12F10821   6.544   4.488   5.373 -0.1964  0.1901  0.0803
  106OSM   H12F10822   6.563   4.404   5.304 -2.4806  0.0502 -0.4590
  106OSM   H12G10823   6.628   4.506   5.444 -1.3764  1.4895  1.2092
  106OSM   C13F10824   6.546   4.617   5.278  0.8582 -0.4168 -0.3195
  106OSM   H13F10825   6.540   4.703   5.347  1.6891 -0.2973 -0.3824
  106OSM   H13G10826   6.464   4.611   5.203 -0.8012  2.3797  1.1346
  106OSM   C14F10827   6.673   4.630   5.194 -0.3845  0.1462 -0.1224
  106OSM   H14F10828   6.763   4.626   5.259 -1.5394 -0.5755  1.5185
  106OSM   H14G10829   6.665   4.716   5.125  1.4266  0.0958 -0.4503
  106OSM   C15F10830   6.689   4.505   5.102 -0.6709  0.0313 -0.3696
  106OSM   H15F10831   6.700   4.411   5.160 -2.0899 -0.3799 -0.7261
  106OSM   H15G10832   6.782   4.524   5.044 -1.0808  0.0327 -1.0381
  106OSM   C16F10833   6.581   4.470   4.995  0.2895 -0.5216  0.6860
  106OSM   H16F10834   6.545   4.561   4.941 -1.3094 -0.4246  1.8418
  106OSM   H16G10835   6.487   4.421   5.028 -0.1235  0.7126  1.3850
  106OSM   C17F10836   6.639   4.370   4.893 -0.0430 -0.2021  0.0292
  106OSM   H17F10837   6.656   4.278   4.953 -1.1585  0.8180  1.9938
  106OSM   H17G10838   6.737   4.407   4.856 -0.6896 -0.3928 -2.0111
  106OSM   C18F10839   6.552   4.346   4.767 -0.9974 -0.7680 -0.6591
  106OSM   H18F10840   6.614   4.292   4.693  0.0829  1.3387 -1.3728
  106OSM   H18G10841   6.530   4.444   4.718  0.4619 -0.1511 -0.1381
  106OSM   H18H10842   6.451   4.308   4.796 -1.5166 -0.3010 -1.7752
  107OSM      N10843   0.475   2.588   6.753  0.0676  0.5457  0.7326
  107OSM    C1510844   0.478   2.624   6.895 -0.5447  0.4666 -0.7596
  107OSM   H15A10845   0.548   2.568   6.956 -0.7117  1.4570  0.3704
  107OSM   H15B10846   0.383   2.608   6.943 -0.2928 -0.1098 -0.4448
  107OSM   H15C10847   0.530   2.719   6.898  1.8300 -0.7830  0.3958
  107OSM    C1410848   0.438   2.446   6.756 -0.1156 -0.3795 -0.0811
  107OSM   H14A10849   0.414   2.404   6.659 -0.1828 -1.0660  0.2227
  107OSM   H14B10850   0.356   2.432   6.825  0.2082 -1.9450  0.0287
  107OSM   H14C10851   0.518   2.386   6.797  0.3988 -0.0536 -0.5969
  107OSM    C1310852   0.385   2.670   6.665 -0.2975 -0.5316  0.0943
  107OSM   H13A10853   0.442   2.762   6.660 -0.4615 -0.4313  0.0291
  107OSM   H13B10854   0.298   2.703   6.719 -0.2081 -1.6590  0.9521
  107OSM   H13C10855   0.366   2.619   6.571  1.2604 -0.9742 -0.0065
  107OSM    C1210856   0.610   2.595   6.681  0.1296 -0.7569 -0.2012
  107OSM   H12A10857   0.611   2.564   6.578 -0.4115  1.2055 -0.8293
  107OSM   H12B10858   0.676   2.535   6.742 -0.2831  0.0603  1.0880
  107OSM    C1110859   0.664   2.747   6.675  0.0535  0.1485 -0.3570
  107OSM   H11A10860   0.628   2.797   6.582  1.8925 -0.0363 -1.2151
  107OSM   H11B10861   0.771   2.741   6.644  0.2570  0.9615  0.1704
  107OSM      P10862   0.701   2.975   6.792  0.0106 -0.2408 -0.1453
  107OSM    O1310863   0.598   3.078   6.816  0.2444  0.4601 -0.0102
  107OSM    O1410864   0.822   2.958   6.882 -0.4917  0.1986 -0.0949
  107OSM    O1110865   0.759   2.992   6.651  0.1848  0.2822 -0.5933
  107OSM    O1210866   0.633   2.828   6.792  0.0343 -0.2929 -0.5045
  107OSM    C1S10867   0.811   3.119   6.605 -0.2698 -0.7162 -0.4245
  107OSM    H1S10868   0.914   3.123   6.647 -0.8405 -3.4183  1.5587
  107OSM    H1T10869   0.763   3.212   6.642 -0.0908 -0.6871 -0.2651
  107OSM     NF10870   0.902   3.228   6.414  0.2045 -0.2266  0.9155
  107OSM    HNF10871   0.869   3.320   6.395  0.5575 -0.4988 -1.3365
  107OSM    C2S10872   0.805   3.129   6.452 -0.0246  0.3889 -0.3046
  107OSM    H2S10873   0.828   3.028   6.413  0.0166  0.1087  0.4246
  107OSM    C3S10874   0.658   3.158   6.401 -0.5549 -0.1232  0.0272
  107OSM    H3S10875   0.614   3.249   6.447 -1.8830 -1.4856  1.5874
  107OSM     O310876   0.567   3.059   6.446 -0.0763  0.5031  1.0588
  107OSM    HO310877   0.627   3.014   6.507  1.8769 -0.3817 -1.2998
  107OSM    C4S10878   0.663   3.185   6.249  0.3348  0.3551  0.1737
  107OSM    H4S10879   0.671   3.087   6.199 -0.8087  0.3521 -0.0379
  107OSM    C5S10880   0.638   3.289   6.173 -0.2019 -0.4384 -0.1159
  107OSM    H5S10881   0.596   3.375   6.227  0.9841 -0.7346  1.3653
  107OSM    C6S10882   0.627   3.304   6.022  0.2342  0.5496 -0.2558
  107OSM    H6S10883   0.703   3.379   5.990  1.1375 -0.4769 -0.5628
  107OSM    H6T10884   0.531   3.351   5.993  0.5661  0.8002 -0.9664
  107OSM    C7S10885   0.637   3.168   5.943 -0.0166 -0.3367 -0.0435
  107OSM    H7S10886   0.580   3.090   5.999 -0.3020  0.4593  0.7981
  107OSM    H7T10887   0.738   3.121   5.939 -0.5363 -1.3734 -2.1244
  107OSM    C8S10888   0.592   3.179   5.796  0.1633 -0.0894  0.2237
  107OSM    H8S10889   0.500   3.240   5.789  1.7611  2.3505 -0.8248
  107OSM    H8T10890   0.576   3.081   5.746 -2.7227  0.1976  0.4324
  107OSM    C9S10891   0.709   3.242   5.715 -0.3624 -0.2546 -0.5103
  107OSM    H9S10892   0.806   3.203   5.752 -0.5349  0.9708  1.3158
  107OSM    H9T10893   0.717   3.352   5.729 -1.0730 -0.2357 -0.1880
  107OSM   C10S10894   0.697   3.203   5.574  0.5393 -0.4785  0.5068
  107OSM   H10S10895   0.713   3.094   5.559 -0.4405 -0.7236  1.1115
  107OSM   H10T10896   0.773   3.266   5.522 -1.9304  1.9387 -0.4458
  107OSM   C11S10897   0.560   3.231   5.511 -0.4035  0.3152  0.0933
  107OSM   H11S10898   0.545   3.336   5.544 -0.0619  0.4627 -0.2142
  107OSM   H11T10899   0.480   3.166   5.553  0.0327 -0.2061  0.1262
  107OSM   C12S10900   0.574   3.228   5.358  0.1269  0.0781  0.7185
  107OSM   H12S10901   0.558   3.126   5.317 -2.8864  0.1415  1.4511
  107OSM   H12T10902   0.675   3.266   5.332 -0.6361  0.1834 -2.5163
  107OSM   C13S10903   0.469   3.313   5.289  0.3777  0.7497  0.2043
  107OSM   H13S10904   0.478   3.412   5.338 -0.1362  0.4924  0.8429
  107OSM   H13T10905   0.373   3.269   5.324  1.1380 -2.5030 -1.3945
  107OSM   C14S10906   0.466   3.291   5.132 -0.1254 -0.3037 -0.7396
  107OSM   H14S10907   0.364   3.322   5.100  0.4691  0.2715 -2.1860
  107OSM   H14T10908   0.479   3.185   5.102 -2.9160 -0.9435  0.0038
  107OSM   C15S10909   0.565   3.385   5.050 -0.1952  0.2026 -0.4781
  107OSM   H15S10910   0.670   3.355   5.072 -0.0391  1.1131  0.0705
  107OSM   H15T10911   0.560   3.494   5.073  4.4107 -0.1776  4.1020
  107OSM   C16S10912   0.580   3.355   4.900 -0.3651  0.0911 -0.3104
  107OSM   H16S10913   0.676   3.400   4.870 -0.3389  1.3232  1.4866
  107OSM   H16T10914   0.501   3.402   4.837 -0.4522  1.1686  0.5858
  107OSM   C17S10915   0.571   3.193   4.867 -0.2519  0.5039 -0.0022
  107OSM   H17S10916   0.468   3.158   4.888  0.3410 -2.4798 -1.4304
  107OSM   H17T10917   0.649   3.152   4.935  0.5613  1.0561 -0.5796
  107OSM   C18S10918   0.602   3.175   4.720 -0.7912  0.4079  0.7931
  107OSM   H18S10919   0.529   3.110   4.667  0.1381  0.2673 -0.3673
  107OSM   H18T10920   0.699   3.121   4.723 -2.1211 -2.1073  2.1131
  107OSM   H18U10921   0.589   3.270   4.663 -0.8610  1.5593  2.6312
  107OSM    C1F10922   1.034   3.199   6.420 -0.0510  0.1427 -0.0791
  107OSM     OF10923   1.069   3.098   6.478  0.3393  0.1483 -0.0608
  107OSM    C2F10924   1.129   3.298   6.363  0.0042 -0.2231  0.1807
  107OSM    H2F10925   1.234   3.264   6.381 -0.5866 -1.7782  0.8192
  107OSM    H2G10926   1.126   3.394   6.418 -0.0218  0.0496 -0.2867
  107OSM    C3F10927   1.104   3.322   6.210  0.2045  0.4814  0.3958
  107OSM    H3F10928   1.163   3.414   6.188 -0.5034  0.8135 -0.1471
  107OSM    H3G10929   0.995   3.333   6.191  0.3223 -0.9885 -1.4444
  107OSM    C4F10930   1.163   3.215   6.119  0.1124 -0.9429 -0.5013
  107OSM    H4F10931   1.114   3.119   6.148 -1.3220  0.3052  1.5085
  107OSM    H4G10932   1.273   3.212   6.133  0.0383 -1.5456 -0.0249
  107OSM    C5F10933   1.105   3.242   5.981  0.3296  0.1749  0.2446
  107OSM    H5F10934   1.109   3.346   5.944  1.0824 -0.3583 -1.2608
  107OSM    H5G10935   0.997   3.214   5.986  0.0158  1.4522  1.1207
  107OSM    C6F10936   1.187   3.162   5.878 -0.0958  0.0195  0.3334
  107OSM    H6F10937   1.161   3.056   5.898  0.0320 -0.2160 -0.6798
  107OSM    H6G10938   1.297   3.165   5.893  0.2982  0.4164 -2.0986
  107OSM    C7F10939   1.165   3.208   5.726 -0.1353 -0.3672 -0.6433
  107OSM    H7F10940   1.189   3.316   5.713  1.2965 -0.7015 -0.9477
  107OSM    H7G10941   1.056   3.193   5.718 -0.2920 -0.4618  1.2692
  107OSM    C8F10942   1.246   3.125   5.620 -0.0026  0.0976  0.4652
  107OSM    H8F10943   1.202   3.024   5.632 -0.7167  0.4215  0.6139
  107OSM    H8G10944   1.352   3.115   5.655 -0.6290  0.9624  2.8103
  107OSM    C9F10945   1.234   3.161   5.473  0.0838 -0.2762 -0.1666
  107OSM    H9F10946   1.318   3.219   5.431  1.1894  0.3434  2.6414
  107OSM   C10F10947   1.130   3.129   5.401  0.3320  0.0683  0.1097
  107OSM   H10F10948   1.136   3.149   5.293 -0.9649 -1.2130 -0.2384
  107OSM   C11F10949   1.005   3.053   5.432  0.1205 -0.3085 -0.5681
  107OSM   H11F10950   0.920   3.124   5.444 -1.9832 -2.1513 -3.3030
  107OSM   H11G10951   1.013   3.007   5.532  1.2542 -0.8127 -0.8741
  107OSM   C12F10952   0.975   2.936   5.333 -0.3154  0.1805 -0.3056
  107OSM   H12F10953   0.960   2.979   5.232  3.1172 -1.1147 -1.5252
  107OSM   H12G10954   0.879   2.900   5.375 -1.8070  1.9611 -2.0053
  107OSM   C13F10955   1.075   2.824   5.314  0.1087  0.0357  0.6993
  107OSM   H13F10956   1.096   2.773   5.410 -0.0850 -0.0619  0.6906
  107OSM   H13G10957   1.169   2.869   5.277 -1.2397  3.2405  0.8712
  107OSM   C14F10958   1.016   2.721   5.210  0.3563 -0.0644 -0.1928
  107OSM   H14F10959   0.992   2.785   5.121 -0.8227  0.9204  0.7896
  107OSM   H14G10960   0.919   2.679   5.242  0.8294 -1.3741 -0.4221
  107OSM   C15F10961   1.106   2.610   5.158 -0.1587  0.0806 -0.0002
  107OSM   H15F10962   1.156   2.550   5.237  0.8734  1.0445  0.0970
  107OSM   H15G10963   1.184   2.666   5.103 -0.2543  1.0312  0.8023
  107OSM   C16F10964   1.038   2.511   5.061  0.4918 -0.1443  0.7743
  107OSM   H16F10965   0.994   2.571   4.979 -0.0759  0.4251  1.4819
  107OSM   H16G10966   0.953   2.463   5.114  0.8111 -0.9531  0.5699
  107OSM   C17F10967   1.139   2.408   5.005  0.3148  0.1023 -0.4014
  107OSM   H17F10968   1.212   2.362   5.075 -0.0759 -0.0123 -0.0691
  107OSM   H17G10969   1.200   2.462   4.928  0.9741  1.7308  1.1876
  107OSM   C18F10970   1.080   2.296   4.925  0.5289  0.1068  0.6883
  107OSM   H18F10971   1.011   2.237   4.990 -0.1838 -0.1676 -0.2923
  107OSM   H18G10972   1.158   2.230   4.882 -1.1517 -0.2254 -2.1128
  107OSM   H18H10973   1.008   2.337   4.852 -0.5433 -0.8949  1.1499
  108OSM      N10974   1.984   5.084   7.129  0.1532 -0.0960  0.0204
  108OSM    C1510975   2.001   5.052   7.279  1.1762  0.4979  0.5568
  108OSM   H15A10976   2.103   5.018   7.289  0.6216 -2.3252 -2.0327
  108OSM   H15B10977   1.932   4.971   7.299  1.2745 -0.2406 -1.7615
  108OSM   H15C10978   1.987   5.137   7.344  0.9527 -0.7736  2.2650
  108OSM    C1410979   2.003   4.953   7.052 -0.8421 -0.2654  0.2273
  108OSM   H14A10980   2.013   4.982   6.949  0.7592 -0.6463  0.2601
  108OSM   H14B10981   1.920   4.885   7.064 -1.1763  0.0656 -0.1503
  108OSM   H14C10982   2.098   4.912   7.082 -0.3941 -0.0382 -0.8355
  108OSM    C1310983   1.844   5.132   7.105  0.2325  0.1765  0.3102
  108OSM   H13A10984   1.827   5.236   7.127  0.6376  0.6295 -1.3270
  108OSM   H13B10985   1.776   5.071   7.163 -0.8386  0.6179 -0.4314
  108OSM   H13C10986   1.804   5.123   7.005  1.7382  0.8446 -0.3844
  108OSM    C1210987   2.086   5.184   7.079 -1.4711 -0.7018 -0.4065
  108OSM   H12A10988   2.069   5.283   7.119 -4.4768 -1.2290 -0.1835
  108OSM   H12B10989   2.077   5.191   6.971 -0.8119 -1.8945 -0.5502
  108OSM    C1110990   2.239   5.159   7.101  0.3363 -0.0167 -0.2592
  108OSM   H11A10991   2.258   5.153   7.211 -2.2599  1.4472  0.3460
  108OSM   H11B10992   2.288   5.249   7.061  0.2972 -0.7796 -2.0956
  108OSM      P10993   2.354   5.048   6.892  0.0998  0.2052  0.0573
  108OSM    O1310994   2.474   5.126   6.925 -0.1960  0.1127 -0.0076
  108OSM    O1410995   2.369   4.912   6.833 -0.1441 -0.4851 -0.3597
  108OSM    O1110996   2.257   5.126   6.792 -0.3153 -0.1479  0.0310
  108OSM    O1210997   2.276   5.044   7.027 -0.0221 -0.1327  0.1840
  108OSM    C1S10998   2.189   5.050   6.684 -0.1870  0.2144 -0.2104
  108OSM    H1S10999   2.101   4.992   6.721  0.7235 -0.1610  1.5088
  108OSM    H1T11000   2.263   4.977   6.643  2.6114  1.0858  2.7656
  108OSM     NF11001   2.100   5.070   6.467  0.1021  0.2464 -0.1242
  108OSM    HNF11002   2.166   5.060   6.393  0.1577  1.3791 -0.2435
  108OSM    C2S11003   2.136   5.149   6.583  0.3809 -0.3688  0.7077
  108OSM    H2S11004   2.050   5.207   6.625 -1.3236 -2.4459  0.2615
  108OSM    C3S11005   2.229   5.267   6.540 -0.7467 -0.2566  0.5509
  108OSM    H3S11006   2.308   5.212   6.484 -0.9135  0.8907 -0.8751
  108OSM     O311007   2.316   5.317   6.640  0.7469 -0.5020  0.0877
  108OSM    HO311008   2.318   5.251   6.709  0.8446  1.1446  1.7368
  108OSM    C4S11009   2.167   5.377   6.457  0.9353 -0.9388 -0.1853
  108OSM    H4S11010   2.169   5.362   6.348 -1.2709 -0.4400 -0.3340
  108OSM    C5S11011   2.089   5.478   6.505 -0.1469  0.2969  0.2391
  108OSM    H5S11012   2.059   5.486   6.610 -3.2568  0.4001 -0.5428
  108OSM    C6S11013   2.030   5.587   6.414  0.2567 -0.3962 -0.0962
  108OSM    H6S11014   2.081   5.683   6.442  1.9192 -0.9332 -1.1365
  108OSM    H6T11015   1.924   5.604   6.441  0.1184  0.0560 -0.8880
  108OSM    C7S11016   2.029   5.576   6.261  0.2766  0.0741  0.2852
  108OSM    H7S11017   1.969   5.486   6.233  1.7458 -0.4766 -1.2438
  108OSM    H7T11018   2.132   5.575   6.221 -0.0173  0.4716 -0.4891
  108OSM    C8S11019   1.948   5.689   6.204 -0.4013 -0.0473  0.7700
  108OSM    H8S11020   1.972   5.792   6.240 -2.2706 -0.4883  3.5900
  108OSM    H8T11021   1.839   5.674   6.221 -0.1707 -0.9791  1.4784
  108OSM    C9S11022   1.959   5.688   6.046  0.6316 -0.1401 -0.0759
  108OSM    H9S11023   1.931   5.591   6.000 -0.5985  0.2610 -0.1970
  108OSM    H9T11024   2.067   5.709   6.026  0.5809  0.2462  0.0429
  108OSM   C10S11025   1.854   5.788   5.986  0.1451  0.6310  0.0453
  108OSM   H10S11026   1.860   5.893   6.021 -0.4448  0.5244  0.4715
  108OSM   H10T11027   1.758   5.753   6.028 -1.4620  2.1691 -2.0820
  108OSM   C11S11028   1.834   5.780   5.834  0.4802  0.9292 -0.7464
  108OSM   H11S11029   1.738   5.827   5.807  0.1866  1.8275  1.6448
  108OSM   H11T11030   1.839   5.671   5.809  0.7113  1.1669 -1.7737
  108OSM   C12S11031   1.948   5.832   5.751 -0.0517 -0.4168 -0.5280
  108OSM   H12S11032   2.046   5.813   5.801  0.1375 -0.2696 -0.8418
  108OSM   H12T11033   1.960   5.941   5.735  1.7570 -0.3370  0.9047
  108OSM   C13S11034   1.958   5.766   5.611 -0.1839 -0.7610  0.6012
  108OSM   H13S11035   1.971   5.658   5.636  4.1742 -1.0242 -1.7193
  108OSM   H13T11036   2.052   5.801   5.562  0.0593 -0.9522  0.9321
  108OSM   C14S11037   1.829   5.790   5.525 -0.4537 -0.2570 -0.0239
  108OSM   H14S11038   1.735   5.778   5.583 -0.5634 -0.5881 -0.2669
  108OSM   H14T11039   1.841   5.707   5.452 -0.0017  0.2975 -0.5949
  108OSM   C15S11040   1.836   5.924   5.446  0.4151 -0.7907 -0.5392
  108OSM   H15S11041   1.864   6.010   5.511  0.6393 -1.5752  0.4285
  108OSM   H15T11042   1.735   5.948   5.405  0.8030  0.6280 -0.7191
  108OSM   C16S11043   1.933   5.909   5.332 -0.1374 -0.2336  0.5008
  108OSM   H16S11044   1.931   5.804   5.296  0.1980 -0.3115  0.7155
  108OSM   H16T11045   2.037   5.914   5.369  0.0995  0.2717 -0.1983
  108OSM   C17S11046   1.917   6.010   5.215 -0.1033 -0.4302  0.2548
  108OSM   H17S11047   1.949   6.105   5.262 -0.7667 -0.2513  0.3438
  108OSM   H17T11048   1.811   6.018   5.182 -0.0982  0.0451  0.3402
  108OSM   C18S11049   2.016   5.985   5.097 -0.0482 -0.1233 -0.0525
  108OSM   H18S11050   1.994   5.883   5.059 -0.9652 -0.9007  2.3211
  108OSM   H18T11051   2.120   5.995   5.134 -0.8371 -1.2471  2.7820
  108OSM   H18U11052   1.995   6.063   5.021 -0.8879 -2.8384 -2.8010
  108OSM    C1F11053   1.993   4.988   6.467 -0.1836 -0.0222  0.0107
  108OSM     OF11054   1.918   4.989   6.565  0.1062 -0.1904 -0.2736
  108OSM    C2F11055   1.976   4.901   6.352 -0.2370  0.3094 -0.7944
  108OSM    H2F11056   1.958   4.801   6.396 -1.0919  0.8213  0.0651
  108OSM    H2G11057   2.070   4.915   6.294  0.5178  1.4623  0.6505
  108OSM    C3F11058   1.859   4.948   6.259  0.1735 -0.4034  0.1580
  108OSM    H3F11059   1.884   5.053   6.233  1.7050 -0.9651 -0.7958
  108OSM    H3G11060   1.759   4.936   6.306 -0.5982  1.9739 -0.7172
  108OSM    C4F11061   1.856   4.871   6.128  0.8408 -0.2189  0.2838
  108OSM    H4F11062   1.871   4.763   6.150  2.5877 -0.0402  0.0664
  108OSM    H4G11063   1.940   4.897   6.061  1.2046 -3.3845 -0.6437
  108OSM    C5F11064   1.715   4.884   6.060  0.9124 -0.4386 -0.1171
  108OSM    H5F11065   1.710   4.988   6.021  2.7127 -0.4767 -0.5159
  108OSM    H5G11066   1.630   4.876   6.131 -1.1626 -1.1923 -2.5076
  108OSM    C6F11067   1.689   4.782   5.949 -0.3260  0.2035 -0.0306
  108OSM    H6F11068   1.581   4.759   5.943  0.1969 -2.4936 -0.5986
  108OSM    H6G11069   1.732   4.688   5.990 -3.3335 -0.9593  0.7021
  108OSM    C7F11070   1.751   4.818   5.813 -0.0941 -0.1687 -0.2661
  108OSM    H7F11071   1.750   4.723   5.754 -0.6269 -1.7422  2.1221
  108OSM    H7G11072   1.858   4.838   5.836 -0.4734 -0.5112  2.0829
  108OSM    C8F11073   1.690   4.934   5.732  0.4632  0.7329 -0.0996
  108OSM    H8F11074   1.666   5.024   5.793  0.6283  0.8695 -0.2335
  108OSM    H8G11075   1.592   4.899   5.694 -0.2895 -0.6363  2.8205
  108OSM    C9F11076   1.789   4.966   5.621  0.4515  0.1941  1.1833
  108OSM    H9F11077   1.897   4.956   5.639  1.0674  1.2228 -1.4414
  108OSM   C10F11078   1.764   4.996   5.493 -0.1885  0.5638 -0.3239
  108OSM   H10F11079   1.846   5.014   5.423 -0.2272  2.4240  0.0675
  108OSM   C11F11080   1.629   4.998   5.433  0.0797  0.4805  0.0568
  108OSM   H11F11081   1.548   5.042   5.496  0.1931 -1.9209  2.0149
  108OSM   H11G11082   1.599   4.891   5.427  1.3496  0.1978 -2.1870
  108OSM   C12F11083   1.610   5.055   5.293  0.1229  0.0193  1.2454
  108OSM   H12F11084   1.675   5.010   5.215  0.3728  0.5035  1.1687
  108OSM   H12G11085   1.629   5.164   5.303  2.1096 -0.2995  1.4171
  108OSM   C13F11086   1.469   5.036   5.228  0.6457  0.0257  0.1050
  108OSM   H13F11087   1.384   5.041   5.300 -1.1323  2.3867 -1.9639
  108OSM   H13G11088   1.465   4.934   5.186 -1.2192  0.7553 -1.6442
  108OSM   C14F11089   1.450   5.115   5.099  0.1148  0.0525 -0.9221
  108OSM   H14F11090   1.443   5.218   5.142  2.7777 -0.4522  0.9602
  108OSM   H14G11091   1.349   5.086   5.064  0.8952 -2.6704 -1.0972
  108OSM   C15F11092   1.553   5.109   4.996  0.0568 -0.5400  0.3273
  108OSM   H15F11093   1.572   5.007   4.955  0.5980 -0.0759 -0.6267
  108OSM   H15G11094   1.639   5.155   5.050  0.1212  1.6601 -1.4827
  108OSM   C16F11095   1.524   5.202   4.876  0.0160  0.7876  0.0392
  108OSM   H16F11096   1.505   5.304   4.915  0.1322  1.3854 -1.3821
  108OSM   H16G11097   1.452   5.147   4.812  1.9904  0.4486 -2.0251
  108OSM   C17F11098   1.652   5.228   4.790  0.1369  0.3257  0.2603
  108OSM   H17F11099   1.740   5.226   4.857  0.6631  1.5345 -0.3739
  108OSM   H17G11100   1.661   5.327   4.742 -0.5955  0.1955 -0.1613
  108OSM   C18F11101   1.659   5.133   4.680 -0.1723  0.3220  0.0821
  108OSM   H18F11102   1.740   5.160   4.609  0.3645  1.0450  0.9580
  108OSM   H18G11103   1.573   5.123   4.611 -0.4377 -3.3596  0.7067
  108OSM   H18H11104   1.682   5.029   4.712  1.5543  0.4624 -0.5894
  109OSM      N11105   5.666   4.548   6.894 -0.0997 -0.1421  0.1581
  109OSM    C1511106   5.598   4.420   6.857 -0.2510  0.1098  0.0720
  109OSM   H15A11107   5.667   4.338   6.849 -1.7962 -1.3101  0.6728
  109OSM   H15B11108   5.540   4.432   6.766  0.1648  1.3661 -0.0427
  109OSM   H15C11109   5.528   4.394   6.936 -0.1544 -0.5280 -0.0446
  109OSM    C1411110   5.563   4.653   6.929  0.8755  0.6087 -0.2518
  109OSM   H14A11111   5.498   4.668   6.844  1.7778 -2.4877 -1.6269
  109OSM   H14B11112   5.612   4.744   6.961  0.6009  1.0076 -0.9363
  109OSM   H14C11113   5.499   4.614   7.007 -1.9895  0.9559 -2.2460
  109OSM    C1311114   5.771   4.520   7.008 -0.4697 -0.2514 -0.1889
  109OSM   H13A11115   5.835   4.602   7.035  0.0637 -1.0997  1.2274
  109OSM   H13B11116   5.841   4.440   6.989  0.1761 -0.3915  2.4231
  109OSM   H13C11117   5.718   4.482   7.095  0.3490 -0.1750  0.3558
  109OSM    C1211118   5.745   4.604   6.776 -0.0390  0.5886  0.4338
  109OSM   H12A11119   5.672   4.610   6.696  0.4712 -0.5649 -0.1450
  109OSM   H12B11120   5.815   4.528   6.746 -1.9625 -1.9056  1.9195
  109OSM    C1111121   5.815   4.739   6.790 -0.4029  0.1309 -0.7401
  109OSM   H11A11122   5.742   4.812   6.829 -0.0584  0.5468 -0.8673
  109OSM   H11B11123   5.844   4.775   6.689 -0.7179 -1.7609 -1.5487
  109OSM      P11124   6.016   4.850   6.919  0.0767 -0.7660 -0.1171
  109OSM    O1311125   5.939   4.908   7.037 -0.0706  0.3014  0.0196
  109OSM    O1411126   6.156   4.816   6.954 -0.9739 -0.4643  0.5747
  109OSM    O1111127   5.999   4.950   6.794 -0.0804  0.6688  0.3141
  109OSM    O1211128   5.933   4.719   6.871  0.1389  0.3249 -0.5446
  109OSM    C1S11129   6.095   4.963   6.687  0.2385 -0.7255  0.5027
  109OSM    H1S11130   6.130   4.864   6.651  2.8161  0.5841 -0.9173
  109OSM    H1T11131   6.186   5.014   6.726 -0.8179  1.4376  0.2661
  109OSM     NF11132   6.123   5.013   6.448 -0.5371  0.7307 -0.0913
  109OSM    HNF11133   6.202   5.075   6.445  0.3452 -0.3625 -0.3165
  109OSM    C2S11134   6.030   5.036   6.566 -0.3066  0.1236 -0.1045
  109OSM    H2S11135   5.930   4.990   6.549 -1.4788  2.4253  0.0577
  109OSM    C3S11136   6.000   5.188   6.591  0.2381  0.4433 -0.0227
  109OSM    H3S11137   6.093   5.245   6.613  0.4513  0.8836 -1.9202
  109OSM     O311138   5.904   5.211   6.698  0.0046  0.2008  0.0938
  109OSM    HO311139   5.896   5.127   6.743  0.9813  0.4634  0.7808
  109OSM    C4S11140   5.949   5.257   6.466 -0.7350 -0.0837 -0.6547
  109OSM    H4S11141   6.032   5.278   6.397 -1.6379 -0.7632 -1.9748
  109OSM    C5S11142   5.825   5.279   6.423 -0.3200 -0.1786 -0.7096
  109OSM    H5S11143   5.739   5.233   6.474 -0.2581 -0.1385 -0.5679
  109OSM    C6S11144   5.796   5.336   6.286 -0.2354  0.5175  1.0409
  109OSM    H6S11145   5.891   5.329   6.228  0.6443 -0.5059  2.5255
  109OSM    H6T11146   5.764   5.441   6.299  0.9463  0.9218  0.8387
  109OSM    C7S11147   5.691   5.262   6.210  0.2464 -0.9454  0.7214
  109OSM    H7S11148   5.601   5.239   6.271  0.3152 -0.1843  1.1209
  109OSM    H7T11149   5.720   5.160   6.176  0.0933  0.1341 -2.9931
  109OSM    C8S11150   5.668   5.339   6.073  0.1689  0.3669  0.5180
  109OSM    H8S11151   5.771   5.339   6.030 -0.7272  0.8212 -1.7565
  109OSM    H8T11152   5.638   5.443   6.096 -1.1872  0.0094  0.4815
  109OSM    C9S11153   5.566   5.267   5.978 -0.7987 -0.1024 -0.0058
  109OSM    H9S11154   5.473   5.275   6.038 -0.5952  4.3386  0.0962
  109OSM    H9T11155   5.596   5.162   5.960 -1.3519 -0.2267 -0.1993
  109OSM   C10S11156   5.561   5.325   5.840  0.4557 -0.0486 -0.2743
  109OSM   H10S11157   5.514   5.424   5.854  1.5289  0.4903 -0.3918
  109OSM   H10T11158   5.497   5.270   5.767  0.5612 -2.3258  1.2240
  109OSM   C11S11159   5.698   5.340   5.766 -0.6247  0.5179 -0.1979
  109OSM   H11S11160   5.749   5.241   5.763 -3.1247 -0.8144 -1.7533
  109OSM   H11T11161   5.753   5.411   5.832 -1.0459  0.4105  0.2716
  109OSM   C12S11162   5.684   5.399   5.626  0.6564 -0.0258  0.2843
  109OSM   H12S11163   5.782   5.430   5.584  1.4772 -1.9154  0.6941
  109OSM   H12T11164   5.617   5.487   5.635  1.1401  0.2021  2.0506
  109OSM   C13S11165   5.644   5.298   5.522 -0.3316  0.2407  0.5429
  109OSM   H13S11166   5.556   5.254   5.573  0.5685 -0.8904  1.1817
  109OSM   H13T11167   5.728   5.225   5.529  0.5922  1.2450  0.3151
  109OSM   C14S11168   5.622   5.347   5.381 -0.3220 -0.2176 -0.1258
  109OSM   H14S11169   5.519   5.385   5.363 -0.1685 -0.3536 -1.3872
  109OSM   H14T11170   5.622   5.254   5.321  1.2449  1.1666 -2.3992
  109OSM   C15S11171   5.739   5.430   5.324  0.8122 -0.3795 -0.2794
  109OSM   H15S11172   5.832   5.370   5.327  1.5826  0.7684 -0.3255
  109OSM   H15T11173   5.750   5.524   5.384 -3.9021  0.9815 -1.1028
  109OSM   C16S11174   5.717   5.474   5.181  0.0889  0.5615  0.1194
  109OSM   H16S11175   5.813   5.527   5.160  0.2110  0.5471  0.6171
  109OSM   H16T11176   5.631   5.544   5.171 -0.9746 -0.8377 -0.8556
  109OSM   C17S11177   5.699   5.368   5.072  0.8323 -0.5903  0.5018
  109OSM   H17S11178   5.683   5.432   4.982 -1.1971  1.3445  2.1456
  109OSM   H17T11179   5.611   5.303   5.087 -1.0877  1.1472 -2.3212
  109OSM   C18S11180   5.807   5.273   5.054 -0.4289 -0.0743  0.3131
  109OSM   H18S11181   5.906   5.322   5.047 -0.7781  1.0965  2.5735
  109OSM   H18T11182   5.787   5.217   4.960 -1.0211  1.3340 -0.4249
  109OSM   H18U11183   5.820   5.197   5.134  1.0808  0.9736  1.1001
  109OSM    C1F11184   6.129   4.897   6.376  0.1261  0.3031 -0.0363
  109OSM     OF11185   6.066   4.790   6.403 -0.2838 -0.4553  0.2585
  109OSM    C2F11186   6.224   4.897   6.254  0.2089  0.0961 -0.4615
  109OSM    H2F11187   6.320   4.855   6.291 -1.2209 -0.6224  2.7623
  109OSM    H2G11188   6.251   5.002   6.228  3.6900  0.1775  2.6333
  109OSM    C3F11189   6.175   4.806   6.138 -0.0131  0.4203  0.4400
  109OSM    H3F11190   6.072   4.842   6.113  0.8474  2.5571 -0.2945
  109OSM    H3G11191   6.179   4.704   6.181  0.8090  0.8262  1.3610
  109OSM    C4F11192   6.265   4.806   6.012 -0.2930  0.0556  0.3387
  109OSM    H4F11193   6.232   4.729   5.938 -0.3049 -0.4234  0.8369
  109OSM    H4G11194   6.372   4.780   6.024  0.2313  0.9226 -1.9057
  109OSM    C5F11195   6.252   4.936   5.923  0.3112  0.6303 -0.0461
  109OSM    H5F11196   6.347   4.991   5.902 -0.3492  1.0632 -2.0724
  109OSM    H5G11197   6.189   5.000   5.989 -1.7702 -0.6208 -0.7280
  109OSM    C6F11198   6.193   4.905   5.785  0.3677  0.0972 -0.2708
  109OSM    H6F11199   6.099   4.848   5.796 -0.4860  1.6668  0.9911
  109OSM    H6G11200   6.260   4.852   5.714 -0.0994  0.8695 -1.3146
  109OSM    C7F11201   6.138   5.033   5.713 -0.7728  0.9829  0.2872
  109OSM    H7F11202   6.222   5.106   5.706 -0.4474  0.7462  1.4259
  109OSM    H7G11203   6.056   5.081   5.771 -0.7300  0.6374  0.6391
  109OSM    C8F11204   6.086   5.000   5.574 -0.1696  0.7867 -0.6937
  109OSM    H8F11205   5.999   4.933   5.592 -0.2611  0.6565 -1.6001
  109OSM    H8G11206   6.169   4.942   5.528 -0.3692 -0.2832  0.2557
  109OSM    C9F11207   6.040   5.117   5.495  0.0805 -0.8302  0.4074
  109OSM    H9F11208   6.032   5.201   5.565 -1.7330 -0.4298 -0.2128
  109OSM   C10F11209   6.010   5.123   5.362  0.7068 -0.4265  0.4792
  109OSM   H10F11210   5.975   5.213   5.309 -2.2474 -1.7861 -0.0879
  109OSM   C11F11211   6.020   5.012   5.262 -0.2187  0.2371  0.2083
  109OSM   H11F11212   5.941   5.029   5.186 -0.8410 -1.1746  0.5252
  109OSM   H11G11213   6.001   4.915   5.312  1.1967  0.0504  0.4380
  109OSM   C12F11214   6.166   5.010   5.192 -0.1308 -0.3447  0.5570
  109OSM   H12F11215   6.246   4.985   5.265 -0.2171  1.1421  1.1987
  109OSM   H12G11216   6.187   5.114   5.157  1.7281 -0.9418 -0.2237
  109OSM   C13F11217   6.186   4.924   5.069  0.4748  0.8169  0.3354
  109OSM   H13F11218   6.161   4.984   4.978  1.4583 -0.0609 -0.5364
  109OSM   H13G11219   6.121   4.835   5.083  0.5275  0.8991  1.1044
  109OSM   C14F11220   6.331   4.875   5.051  0.9048 -0.1624 -0.3127
  109OSM   H14F11221   6.357   4.817   4.960  3.1722 -2.2308  1.5125
  109OSM   H14G11222   6.352   4.815   5.142 -0.0555  0.7423  0.5215
  109OSM   C15F11223   6.432   4.995   5.037  0.4431 -0.2369 -0.3498
  109OSM   H15F11224   6.531   4.955   5.007  0.5931  0.7573 -1.2364
  109OSM   H15G11225   6.450   5.045   5.134  1.1431 -0.0062 -0.5895
  109OSM   C16F11226   6.391   5.096   4.932 -0.4900 -0.7198 -0.0949
  109OSM   H16F11227   6.463   5.179   4.945  1.5685 -2.3323 -0.7035
  109OSM   H16G11228   6.287   5.135   4.944  0.4301  1.4793  1.5711
  109OSM   C17F11229   6.407   5.054   4.783  0.5652  0.2583  0.6662
  109OSM   H17F11230   6.369   4.951   4.769  2.9408 -0.6278  0.2806
  109OSM   H17G11231   6.512   5.044   4.749  0.4695 -0.0832  0.4749
  109OSM   C18F11232   6.340   5.147   4.680 -0.0238 -0.1302  0.2670
  109OSM   H18F11233   6.362   5.123   4.573  0.7927  1.5574  0.0250
  109OSM   H18G11234   6.375   5.247   4.715  1.4061 -0.6781  0.4597
  109OSM   H18H11235   6.231   5.142   4.699 -0.3493  1.0585 -1.0402
  110OSM      N11236   3.387   2.927   6.916  0.3423  0.4710 -0.7354
  110OSM    C1511237   3.302   3.049   6.899 -0.4865  0.4774  0.9315
  110OSM   H15A11238   3.292   3.097   6.996  0.1297  2.5336  0.0220
  110OSM   H15B11239   3.202   3.032   6.862  0.3951  0.8349 -1.8639
  110OSM   H15C11240   3.352   3.125   6.841 -1.6465  0.6043  0.0446
  110OSM    C1411241   3.513   2.986   6.970 -0.4331  0.4493  0.3216
  110OSM   H14A11242   3.496   3.016   7.072 -2.7544  1.0006 -0.1601
  110OSM   H14B11243   3.536   3.076   6.916  0.9645  0.7746  1.3942
  110OSM   H14C11244   3.599   2.921   6.960  0.4528  1.8460 -1.7758
  110OSM    C1311245   3.326   2.828   7.019 -0.2773 -0.5111 -0.0171
  110OSM   H13A11246   3.223   2.817   6.992  0.1309 -2.3304 -0.9849
  110OSM   H13B11247   3.327   2.869   7.119 -1.0359 -0.5155 -0.0070
  110OSM   H13C11248   3.377   2.733   7.029  0.2574 -0.2642 -0.3722
  110OSM    C1211249   3.407   2.854   6.791 -0.2887  0.1916 -0.2621
  110OSM   H12A11250   3.459   2.761   6.802 -0.3098  0.1098 -0.8298
  110OSM   H12B11251   3.484   2.912   6.741  2.6708 -1.3086  2.2119
  110OSM    C1111252   3.289   2.840   6.697  0.0425 -0.0266  1.0424
  110OSM   H11A11253   3.324   2.781   6.610  0.1777 -1.0731  1.7831
  110OSM   H11B11254   3.254   2.939   6.662  0.9923  0.2383  0.7980
  110OSM      P11255   3.037   2.805   6.750 -0.1018 -0.2887 -0.1933
  110OSM    O1311256   2.951   2.708   6.831 -0.6457 -0.1683 -0.0669
  110OSM    O1411257   3.020   2.947   6.789 -0.4288  0.3388  0.2599
  110OSM    O1111258   3.014   2.783   6.599  0.5367  0.1623  0.0084
  110OSM    O1211259   3.187   2.764   6.763  0.9139  0.4009  0.3934
  110OSM    C1S11260   3.036   2.662   6.534  0.0941  0.4756 -0.5758
  110OSM    H1S11261   2.962   2.588   6.570  0.5064  0.8754  1.2292
  110OSM    H1T11262   3.132   2.614   6.563 -0.1029  1.6675  2.4210
  110OSM     NF11263   3.068   2.544   6.312  0.0986 -0.0499  0.2139
  110OSM    HNF11264   3.163   2.527   6.289 -0.5636 -1.1886 -2.0261
  110OSM    C2S11265   3.037   2.675   6.374 -0.7607  0.4763 -0.3745
  110OSM    H2S11266   2.932   2.702   6.350 -0.4712  3.0504  0.8709
  110OSM    C3S11267   3.123   2.798   6.320  0.1572 -0.3701  0.3283
  110OSM    H3S11268   3.223   2.795   6.367 -0.0704 -0.7327  0.7980
  110OSM     O311269   3.064   2.918   6.374 -1.0574 -0.3699  0.0310
  110OSM    HO311270   3.016   2.891   6.453 -1.1830  1.4320  0.6178
  110OSM    C4S11271   3.132   2.803   6.171 -0.0452 -0.3624 -0.3314
  110OSM    H4S11272   3.228   2.761   6.135 -0.1483 -0.3953 -0.5658
  110OSM    C5S11273   3.048   2.852   6.082 -0.7243  0.1431 -0.7575
  110OSM    H5S11274   2.964   2.910   6.123 -1.2230 -0.2587 -1.1926
  110OSM    C6S11275   3.070   2.853   5.932  0.0420 -0.1058 -0.7782
  110OSM    H6S11276   3.158   2.800   5.890  0.3336  0.3124 -0.7099
  110OSM    H6T11277   3.093   2.960   5.911 -0.0069  0.1695  0.4715
  110OSM    C7S11278   2.945   2.809   5.857  0.6844  0.1531  0.3241
  110OSM    H7S11279   2.853   2.857   5.897  0.3422 -1.4166  1.5443
  110OSM    H7T11280   2.922   2.702   5.875  2.4779 -0.0686  1.6382
  110OSM    C8S11281   2.963   2.832   5.709  0.0143  0.5150  0.7944
  110OSM    H8S11282   2.864   2.805   5.666 -0.5217  2.1944  0.9071
  110OSM    H8T11283   3.042   2.762   5.674 -1.8283 -2.5287  2.2516
  110OSM    C9S11284   3.006   2.968   5.643 -0.3077 -0.3265 -0.1798
  110OSM    H9S11285   3.106   2.992   5.685  0.7201 -0.7201 -2.2642
  110OSM    H9T11286   2.940   3.051   5.674 -0.2247 -0.5633  0.6741
  110OSM   C10S11287   3.032   2.956   5.494  0.6828  0.0197 -0.3447
  110OSM   H10S11288   2.940   2.917   5.445  1.7050 -2.6857 -0.2623
  110OSM   H10T11289   3.107   2.879   5.465 -0.2235 -1.2283  0.5352
  110OSM   C11S11290   3.064   3.081   5.411  0.8010 -0.0906 -0.1943
  110OSM   H11S11291   3.156   3.131   5.446 -0.0747  0.8831  0.8066
  110OSM   H11T11292   2.972   3.139   5.433 -0.3835 -1.0576 -2.2064
  110OSM   C12S11293   3.071   3.058   5.259 -0.4857  0.7113  0.7207
  110OSM   H12S11294   2.987   2.994   5.224 -0.2071  0.8991 -0.3067
  110OSM   H12T11295   3.160   2.992   5.248  0.0339  1.7446 -1.9499
  110OSM   C13S11296   3.086   3.189   5.189  0.6220 -0.8436  0.1643
  110OSM   H13S11297   3.149   3.258   5.249  1.3096 -0.2831 -1.1562
  110OSM   H13T11298   2.987   3.240   5.192  1.0202 -0.1256  1.9275
  110OSM   C14S11299   3.139   3.177   5.047 -0.0593  0.2988  0.1561
  110OSM   H14S11300   3.241   3.136   5.060 -0.1888 -0.4823 -1.1172
  110OSM   H14T11301   3.155   3.279   5.006 -1.6825  0.0671 -1.1835
  110OSM   C15S11302   3.068   3.081   4.946 -0.3710  0.4411  0.2140
  110OSM   H15S11303   2.985   3.139   4.899  1.5709  1.8245 -1.7034
  110OSM   H15T11304   3.038   2.987   4.997 -0.8398 -0.8143 -2.2195
  110OSM   C16S11305   3.164   3.043   4.834  0.0913 -0.0734  0.4434
  110OSM   H16S11306   3.116   3.011   4.739  3.4300 -1.0981 -1.0624
  110OSM   H16T11307   3.214   2.954   4.877 -1.2553  0.9021  4.4335
  110OSM   C17S11308   3.274   3.143   4.791 -0.2051  0.4515 -0.7812
  110OSM   H17S11309   3.324   3.086   4.710 -1.8991 -0.0578 -1.5041
  110OSM   H17T11310   3.343   3.176   4.872 -1.6571  0.6836  0.3900
  110OSM   C18S11311   3.215   3.263   4.716 -0.0803  0.5118  0.4553
  110OSM   H18S11312   3.133   3.224   4.653  0.7011 -0.1438 -0.1704
  110OSM   H18T11313   3.291   3.317   4.656  1.9749 -2.5008  0.1345
  110OSM   H18U11314   3.161   3.337   4.780  0.8884  1.1757  0.5210
  110OSM    C1F11315   2.988   2.441   6.299 -0.5958 -0.1259 -0.6504
  110OSM     OF11316   2.880   2.439   6.354 -0.4369 -1.0163  0.3770
  110OSM    C2F11317   3.039   2.331   6.213  0.0538  0.2170  0.7507
  110OSM    H2F11318   3.096   2.259   6.275  2.4161  2.8563  1.9347
  110OSM    H2G11319   3.119   2.373   6.148 -0.0640  1.0867  1.1538
  110OSM    C3F11320   2.918   2.263   6.140  0.3454 -0.3270 -0.7224
  110OSM    H3F11321   2.845   2.227   6.216  2.4744 -1.6641  0.8125
  110OSM    H3G11322   2.962   2.177   6.085  1.3634  0.6521 -1.4890
  110OSM    C4F11323   2.851   2.344   6.028 -0.5175 -0.2873 -0.0754
  110OSM    H4F11324   2.801   2.437   6.064  1.5770  0.3209  1.4398
  110OSM    H4G11325   2.770   2.285   5.980 -2.3093  1.6184  0.3956
  110OSM    C5F11326   2.958   2.388   5.926 -0.4470  0.3658  0.1023
  110OSM    H5F11327   3.046   2.321   5.918  0.1494  1.0766  0.5688
  110OSM    H5G11328   2.989   2.490   5.957  0.9814  0.5472 -1.7515
  110OSM    C6F11329   2.904   2.397   5.779  0.1588  0.5023 -0.5689
  110OSM    H6F11330   2.826   2.475   5.772 -1.0667 -0.3848  2.0098
  110OSM    H6G11331   2.861   2.296   5.759  1.7224 -0.4342  0.6099
  110OSM    C7F11332   3.026   2.415   5.679  0.7184 -0.7011  0.1316
  110OSM    H7F11333   3.087   2.326   5.705 -1.5576 -1.5874  3.0390
  110OSM    H7G11334   3.071   2.510   5.714 -1.7011  0.0650  1.3922
  110OSM    C8F11335   2.988   2.411   5.530  0.5050  0.7774  0.6114
  110OSM    H8F11336   2.985   2.301   5.515  1.1186  0.5456  1.9624
  110OSM    H8G11337   3.081   2.439   5.476  1.5404 -2.4742  0.4820
  110OSM    C9F11338   2.866   2.478   5.476  0.3854 -0.6447  0.8942
  110OSM    H9F11339   2.766   2.443   5.507 -0.2143 -0.8977 -1.1905
  110OSM   C10F11340   2.861   2.567   5.377  0.1540 -0.5365  0.1701
  110OSM   H10F11341   2.762   2.604   5.346 -1.0724 -0.7045  3.4988
  110OSM   C11F11342   2.981   2.627   5.313  0.4053  0.0823  0.2717
  110OSM   H11F11343   3.057   2.550   5.286 -0.7807 -1.0931  0.1781
  110OSM   H11G11344   3.041   2.695   5.376  0.4066  0.2677  0.0727
  110OSM   C12F11345   2.947   2.701   5.177  0.2810 -0.5295  0.4621
  110OSM   H12F11346   3.036   2.750   5.133 -0.7782  2.6754  1.6113
  110OSM   H12G11347   2.881   2.785   5.206  3.3180  1.9091  0.7588
  110OSM   C13F11348   2.878   2.620   5.066  0.1522  0.8141 -0.4008
  110OSM   H13F11349   2.794   2.569   5.118  0.4843 -1.1089 -1.6642
  110OSM   H13G11350   2.948   2.541   5.032  1.5715  2.3448 -1.2150
  110OSM   C14F11351   2.828   2.707   4.950 -0.9313 -0.4020 -0.0727
  110OSM   H14F11352   2.915   2.759   4.905 -1.1251  1.0278  1.0865
  110OSM   H14G11353   2.770   2.790   4.995  1.8264  1.7628 -0.2417
  110OSM   C15F11354   2.747   2.635   4.840  0.3599  0.2422 -0.5286
  110OSM   H15F11355   2.664   2.593   4.901  0.3565  1.7484  0.5693
  110OSM   H15G11356   2.799   2.560   4.778  0.6133 -0.8812  0.9887
  110OSM   C16F11357   2.678   2.723   4.727  0.8085  0.2862  0.0885
  110OSM   H16F11358   2.737   2.748   4.637  0.5526 -2.6675 -1.0086
  110OSM   H16G11359   2.652   2.819   4.776 -0.0765  0.1971 -0.1894
  110OSM   C17F11360   2.551   2.660   4.668  0.2166 -0.2810 -0.0313
  110OSM   H17F11361   2.474   2.735   4.642  0.1005  0.0011  1.0718
  110OSM   H17G11362   2.496   2.604   4.747 -0.5925  0.4101 -0.0923
  110OSM   C18F11363   2.575   2.559   4.561  0.1394 -0.0900  0.3273
  110OSM   H18F11364   2.627   2.468   4.597  0.0484  0.2753  1.4134
  110OSM   H18G11365   2.645   2.595   4.483  0.4474 -1.3666 -0.0233
  110OSM   H18H11366   2.483   2.516   4.516 -0.4587 -0.9488  2.2630
  111OSM      N11367   1.246   6.529   6.916 -0.0415 -0.3644  0.0859
  111OSM    C1511368   1.370   6.566   6.834  0.1825  0.0368  0.4207
  111OSM   H15A11369   1.437   6.634   6.885  0.5063  1.6021 -1.9060
  111OSM   H15B11370   1.348   6.620   6.743 -0.5036  0.6515  0.9507
  111OSM   H15C11371   1.420   6.473   6.808 -0.2921 -0.0448 -0.2142
  111OSM    C1411372   1.162   6.436   6.841  0.2224 -0.0533 -0.0730
  111OSM   H14A11373   1.125   6.479   6.749  1.2306  1.4364  0.1727
  111OSM   H14B11374   1.073   6.395   6.887  0.0213  0.6053  0.1324
  111OSM   H14C11375   1.218   6.347   6.816  2.0017  1.2486 -0.9345
  111OSM    C1311376   1.292   6.463   7.044 -0.3915  0.3315 -0.9586
  111OSM   H13A11377   1.226   6.451   7.128 -0.0949 -1.6752 -0.9630
  111OSM   H13B11378   1.380   6.513   7.083 -0.1229 -0.5379 -0.4252
  111OSM   H13C11379   1.317   6.360   7.024 -2.9141 -0.1680 -1.9241
  111OSM    C1211380   1.172   6.657   6.949 -0.1169  1.1780  0.0850
  111OSM   H12A11381   1.215   6.704   7.035  0.3071 -1.2906  1.3076
  111OSM   H12B11382   1.074   6.618   6.973  0.8961 -1.8085 -0.2496
  111OSM    C1111383   1.150   6.758   6.835 -0.1553 -0.4977  0.8233
  111OSM   H11A11384   1.053   6.807   6.857 -1.0042 -2.0051  0.5624
  111OSM   H11B11385   1.138   6.701   6.741  1.1646 -2.7581  1.9381
  111OSM      P11386   1.257   6.993   6.885  0.2403 -0.3587 -0.2673
  111OSM    O1311387   1.138   7.009   6.977 -0.4020 -0.1866 -0.1479
  111OSM    O1411388   1.386   7.046   6.934 -0.0623 -0.6274  0.1605
  111OSM    O1111389   1.227   7.087   6.759 -0.0500 -0.4714 -0.1059
  111OSM    O1211390   1.262   6.845   6.825 -0.2285  0.3067  0.3489
  111OSM    C1S11391   1.301   7.053   6.639  0.2929 -0.3268  0.7853
  111OSM    H1S11392   1.284   6.947   6.612 -1.3596 -0.1871  1.1622
  111OSM    H1T11393   1.412   7.059   6.646  0.3627  0.4471 -0.4946
  111OSM     NF11394   1.337   7.097   6.395  0.3790 -0.1931  0.2326
  111OSM    HNF11395   1.435   7.114   6.385  0.0890  0.8845 -1.3438
  111OSM    C2S11396   1.272   7.147   6.512 -0.6106  0.1403 -0.7343
  111OSM    H2S11397   1.162   7.155   6.501 -0.5455  1.2403 -0.7267
  111OSM    C3S11398   1.311   7.288   6.553  0.0188 -0.0897  0.2674
  111OSM    H3S11399   1.420   7.285   6.577  0.1132 -0.2354 -0.1667
  111OSM     O311400   1.245   7.340   6.668  0.1419  0.0765  0.4722
  111OSM    HO311401   1.203   7.260   6.702 -0.5424  0.2927  0.1532
  111OSM    C4S11402   1.285   7.391   6.438  0.4385  0.8716  0.0098
  111OSM    H4S11403   1.179   7.419   6.432 -0.1849 -1.1514  0.7696
  111OSM    C5S11404   1.377   7.427   6.346  0.4588  0.5072  0.0805
  111OSM    H5S11405   1.479   7.394   6.370 -0.2482 -0.7260  1.5859
  111OSM    C6S11406   1.341   7.514   6.228 -0.0323  0.4664  0.2183
  111OSM    H6S11407   1.424   7.588   6.230  0.7250 -0.3629  2.8824
  111OSM    H6T11408   1.252   7.579   6.239  1.3701  2.1979  2.3585
  111OSM    C7S11409   1.364   7.427   6.108  0.7057 -0.3694  0.4346
  111OSM    H7S11410   1.293   7.343   6.091  0.6232 -0.6161  1.8676
  111OSM    H7T11411   1.464   7.378   6.111  1.2491  0.7266  0.4196
  111OSM    C8S11412   1.343   7.498   5.974  0.6217  0.2025 -0.1574
  111OSM    H8S11413   1.426   7.466   5.907 -0.0110 -3.8267  0.6904
  111OSM    H8T11414   1.344   7.608   5.987 -0.2838  0.0166  1.9040
  111OSM    C9S11415   1.208   7.464   5.913  0.3071  0.4513 -0.4317
  111OSM    H9S11416   1.130   7.506   5.980 -0.3441 -2.1851  0.5906
  111OSM    H9T11417   1.207   7.353   5.911  1.4816  0.4361 -1.1675
  111OSM   C10S11418   1.179   7.500   5.766  0.7758  0.1592  0.1267
  111OSM   H10S11419   1.221   7.603   5.765  1.4103 -0.0864  0.7489
  111OSM   H10T11420   1.071   7.497   5.743  0.9747 -0.5555 -0.7717
  111OSM   C11S11421   1.264   7.431   5.662 -0.2176  0.6625 -0.0175
  111OSM   H11S11422   1.246   7.322   5.654  2.8355  0.1832 -2.9541
  111OSM   H11T11423   1.368   7.426   5.699 -0.7046 -1.3293  1.2505
  111OSM   C12S11424   1.255   7.487   5.527  0.6535 -0.4216  0.0682
  111OSM   H12S11425   1.293   7.592   5.528 -0.7993  0.1558 -1.1774
  111OSM   H12T11426   1.145   7.481   5.512  0.1964  1.0726  2.3753
  111OSM   C13S11427   1.321   7.409   5.414 -0.4501 -0.0201  0.7389
  111OSM   H13S11428   1.350   7.308   5.450  2.1531  0.0636 -0.8572
  111OSM   H13T11429   1.417   7.460   5.390 -0.9409  0.4041 -0.3397
  111OSM   C14S11430   1.237   7.393   5.293 -0.4855 -0.5694  0.4494
  111OSM   H14S11431   1.172   7.474   5.255 -1.8326 -0.6770  2.3437
  111OSM   H14T11432   1.167   7.312   5.324 -2.1628  0.3612 -0.7592
  111OSM   C15S11433   1.330   7.334   5.185 -0.1039 -0.0446 -0.2371
  111OSM   H15S11434   1.414   7.268   5.215  0.4268  0.6605 -0.1416
  111OSM   H15T11435   1.380   7.424   5.143  0.3683  0.2404  0.8887
  111OSM   C16S11436   1.247   7.263   5.071  0.0979 -0.1676  0.2635
  111OSM   H16S11437   1.177   7.340   5.031  0.9983  0.3607 -0.3319
  111OSM   H16T11438   1.190   7.170   5.093 -1.6566  0.5274 -1.0485
  111OSM   C17S11439   1.339   7.232   4.950  0.2263  0.0171  0.3715
  111OSM   H17S11440   1.439   7.215   4.994  0.2762 -0.9422 -0.1030
  111OSM   H17T11441   1.349   7.327   4.892 -0.8615  0.5467  0.9997
  111OSM   C18S11442   1.309   7.101   4.884  0.8517  0.7080 -0.3504
  111OSM   H18S11443   1.320   7.008   4.945  0.0198  1.6039  1.2222
  111OSM   H18T11444   1.372   7.093   4.793 -0.7691 -1.0412 -1.4122
  111OSM   H18U11445   1.202   7.100   4.854  0.4225  2.2233  0.9792
  111OSM    C1F11446   1.289   6.994   6.333 -0.6438 -0.2718  0.7353
  111OSM     OF11447   1.186   6.938   6.375  0.4579 -0.5614 -0.3600
  111OSM    C2F11448   1.374   6.934   6.223 -0.2326  0.2992  0.7943
  111OSM    H2F11449   1.329   6.834   6.206 -0.2461  0.7249 -2.1009
  111OSM    H2G11450   1.479   6.924   6.257 -0.6287 -4.2478  1.2186
  111OSM    C3F11451   1.370   7.018   6.091 -0.2647  0.3699  0.0688
  111OSM    H3F11452   1.449   7.095   6.100  1.0969 -1.1506  1.8758
  111OSM    H3G11453   1.274   7.074   6.087  0.3315  1.5159  1.0517
  111OSM    C4F11454   1.377   6.926   5.967  0.2960 -0.0932 -0.1446
  111OSM    H4F11455   1.285   6.863   5.969 -0.4464  0.9713  0.2290
  111OSM    H4G11456   1.472   6.869   5.966 -0.1382 -0.9026  1.6486
  111OSM    C5F11457   1.361   7.006   5.834  0.1549 -0.0943  0.2165
  111OSM    H5F11458   1.446   7.077   5.830 -1.5122  2.0393  0.6625
  111OSM    H5G11459   1.272   7.071   5.848  0.2754 -0.1055  1.0668
  111OSM    C6F11460   1.351   6.918   5.708  0.5917 -0.3290 -0.3539
  111OSM    H6F11461   1.272   6.841   5.717  1.1348 -0.6700  1.9975
  111OSM    H6G11462   1.449   6.865   5.707  0.8348  0.1155 -0.1432
  111OSM    C7F11463   1.333   7.006   5.584  0.2615  0.3439  0.2304
  111OSM    H7F11464   1.423   7.071   5.574  0.0553  0.6359  0.2506
  111OSM    H7G11465   1.243   7.071   5.593 -1.5760 -1.5140 -3.0230
  111OSM    C8F11466   1.315   6.926   5.456  0.6058  0.2008  0.3566
  111OSM    H8F11467   1.403   6.859   5.449  0.7269  0.3676  0.2678
  111OSM    H8G11468   1.322   6.996   5.370  0.5787 -0.0155  0.1770
  111OSM    C9F11469   1.189   6.837   5.440 -0.9176 -0.1978  0.0655
  111OSM    H9F11470   1.159   6.795   5.537 -1.2665 -2.5700 -1.0167
  111OSM   C10F11471   1.114   6.812   5.333  0.0836  0.0383  0.4253
  111OSM   H10F11472   1.053   6.721   5.344 -1.5921  0.8832 -1.1752
  111OSM   C11F11473   1.128   6.866   5.184 -0.2454 -0.4922 -0.5026
  111OSM   H11F11474   1.191   6.957   5.180  0.6016 -1.0017  0.7463
  111OSM   H11G11475   1.028   6.894   5.144 -1.0694  0.0818  1.8060
  111OSM   C12F11476   1.189   6.756   5.097  0.1042  0.3337  0.6368
  111OSM   H12F11477   1.198   6.807   4.999  1.5061 -1.7781 -0.4091
  111OSM   H12G11478   1.133   6.662   5.077  0.0257  1.0218 -3.0464
  111OSM   C13F11479   1.324   6.709   5.136 -0.2323  0.1152  0.3854
  111OSM   H13F11480   1.331   6.659   5.235  1.9853 -1.9879 -0.7121
  111OSM   H13G11481   1.394   6.796   5.138  0.3611 -0.2948 -1.2638
  111OSM   C14F11482   1.382   6.598   5.046 -0.3092  0.4033 -0.3815
  111OSM   H14F11483   1.385   6.633   4.940 -1.8697 -0.4233 -0.7161
  111OSM   H14G11484   1.318   6.513   5.074  0.5111 -0.6666 -1.6206
  111OSM   C15F11485   1.527   6.550   5.088 -0.2425  0.5424 -0.5387
  111OSM   H15F11486   1.526   6.530   5.197 -0.3418 -0.6652 -0.7491
  111OSM   H15G11487   1.605   6.628   5.075 -0.3391  0.8667  0.6972
  111OSM   C16F11488   1.587   6.418   5.024  0.4615 -0.1123  0.3428
  111OSM   H16F11489   1.506   6.342   5.022 -0.0931  0.4411  1.1175
  111OSM   H16G11490   1.669   6.381   5.090  0.9417  0.1345 -0.1065
  111OSM   C17F11491   1.642   6.445   4.880  0.1872  0.3605  0.0504
  111OSM   H17F11492   1.728   6.515   4.886  0.7760 -0.2251 -1.2364
  111OSM   H17G11493   1.569   6.496   4.814  1.2267  1.0822 -0.5708
  111OSM   C18F11494   1.703   6.316   4.809  0.3566  0.1941 -0.4098
  111OSM   H18F11495   1.769   6.333   4.721  0.5459  0.4672 -0.2185
  111OSM   H18G11496   1.622   6.242   4.791  1.4910 -1.1721 -0.0334
  111OSM   H18H11497   1.764   6.271   4.890 -1.3011  1.4831  1.6526
  112OSM      N11498   0.813   3.265   7.159  0.1981  0.1271 -0.0793
  112OSM    C1511499   0.897   3.373   7.215 -0.5062  0.3443  0.5701
  112OSM   H15A11500   0.947   3.434   7.140 -0.2065  2.1003  2.1331
  112OSM   H15B11501   0.973   3.324   7.274  2.0160  1.5144 -1.4853
  112OSM   H15C11502   0.845   3.445   7.275  0.3008  1.7417 -0.3267
  112OSM    C1411503   0.908   3.168   7.092  0.1267 -0.6104  0.2107
  112OSM   H14A11504   0.969   3.224   7.023  1.4835 -0.7984  1.2236
  112OSM   H14B11505   0.862   3.093   7.028 -0.7063 -0.3255  0.4596
  112OSM   H14C11506   0.977   3.129   7.166  0.9725 -2.4245 -1.4346
  112OSM    C1311507   0.751   3.193   7.273  0.9410 -0.4814  0.3381
  112OSM   H13A11508   0.670   3.129   7.241  0.4368  0.4073 -0.2059
  112OSM   H13B11509   0.714   3.251   7.356  0.0329 -1.9109  0.9778
  112OSM   H13C11510   0.823   3.121   7.309  1.5540  0.4007  0.8999
  112OSM    C1211511   0.699   3.305   7.071 -0.0802  0.2772 -0.0740
  112OSM   H12A11512   0.635   3.377   7.120  0.3255  1.6717 -1.4881
  112OSM   H12B11513   0.637   3.218   7.055  0.9572 -0.3072 -1.0858
  112OSM    C1111514   0.737   3.368   6.932 -0.8085  1.4583 -0.6374
  112OSM   H11A11515   0.648   3.390   6.868 -0.8790  1.8175 -0.4167
  112OSM   H11B11516   0.795   3.299   6.868 -1.0877 -0.7455  1.3477
  112OSM      P11517   0.751   3.621   6.974 -0.2215  0.6028 -0.2307
  112OSM    O1311518   0.662   3.612   7.087  0.2928  0.6637  0.2970
  112OSM    O1411519   0.856   3.728   6.979 -0.5631 -0.0721 -0.5555
  112OSM    O1111520   0.652   3.647   6.856 -0.3486  0.3184  0.0377
  112OSM    O1211521   0.821   3.483   6.947 -0.2325  0.0749  0.0005
  112OSM    C1S11522   0.692   3.689   6.726 -0.4123 -0.5306  0.5934
  112OSM    H1S11523   0.799   3.664   6.709 -0.4463 -0.0904 -0.3613
  112OSM    H1T11524   0.670   3.797   6.711  0.6298 -0.3868 -0.0157
  112OSM     NF11525   0.654   3.659   6.486 -0.4061  0.4421  0.6123
  112OSM    HNF11526   0.618   3.744   6.449  1.3898  2.0500  2.3662
  112OSM    C2S11527   0.612   3.613   6.610  0.0870  0.3930 -0.2416
  112OSM    H2S11528   0.636   3.505   6.620 -0.6967  0.3989  2.2330
  112OSM    C3S11529   0.459   3.634   6.638 -0.5402 -0.1446 -0.1349
  112OSM    H3S11530   0.442   3.742   6.620  0.4823  0.0339 -0.0697
  112OSM     O311531   0.412   3.616   6.777  0.1745  0.3718  0.3319
  112OSM    HO311532   0.490   3.632   6.831  0.4438  1.3366 -0.3191
  112OSM    C4S11533   0.379   3.552   6.540 -0.0195  0.1890 -0.1306
  112OSM    H4S11534   0.353   3.614   6.453  0.8354 -1.5546 -1.6799
  112OSM    C5S11535   0.342   3.427   6.555  0.6332  1.5695  0.3389
  112OSM    H5S11536   0.375   3.369   6.642 -0.8191 -0.1624 -0.1935
  112OSM    C6S11537   0.257   3.349   6.454 -0.1884 -0.1666  0.6409
  112OSM    H6S11538   0.155   3.342   6.497 -0.2376 -0.2604  0.5091
  112OSM    H6T11539   0.298   3.246   6.457  0.7395  0.1840  0.5502
  112OSM    C7S11540   0.247   3.400   6.307  0.1044 -0.3489 -0.0760
  112OSM    H7S11541   0.347   3.440   6.278 -0.7862  1.3060 -0.9644
  112OSM    H7T11542   0.183   3.490   6.301 -0.3678 -0.7543 -1.8290
  112OSM    C8S11543   0.200   3.298   6.206  0.2520  0.3500 -0.3653
  112OSM    H8S11544   0.103   3.253   6.236 -0.1273  0.3773 -1.5040
  112OSM    H8T11545   0.270   3.212   6.215  0.2550  0.2950 -0.8883
  112OSM    C9S11546   0.195   3.350   6.059 -0.6967 -0.1004 -0.1511
  112OSM    H9S11547   0.286   3.413   6.052 -0.4429 -0.5448 -1.0751
  112OSM    H9T11548   0.108   3.417   6.042 -0.0695  0.7542 -0.0805
  112OSM   C10S11549   0.208   3.246   5.955 -0.6517 -0.1631  0.2636
  112OSM   H10S11550   0.140   3.161   5.975  0.8643 -1.6075 -0.4783
  112OSM   H10T11551   0.312   3.207   5.963 -0.9439 -1.3583 -1.3353
  112OSM   C11S11552   0.193   3.304   5.812  0.0004  0.2540 -0.3297
  112OSM   H11S11553   0.267   3.385   5.793  2.8071 -1.0472  3.7755
  112OSM   H11T11554   0.089   3.342   5.808 -1.6468 -3.8017 -0.5098
  112OSM   C12S11555   0.193   3.184   5.720 -0.0155 -0.0308  0.7146
  112OSM   H12S11556   0.270   3.109   5.748  2.9979  2.5328 -0.1271
  112OSM   H12T11557   0.200   3.208   5.612  0.7703 -1.5809  0.3900
  112OSM   C13S11558   0.056   3.118   5.723  0.2271 -0.7417  0.1778
  112OSM   H13S11559  -0.015   3.187   5.674 -0.1286 -1.3657 -0.2092
  112OSM   H13T11560   0.011   3.102   5.824 -2.0994  2.5326 -0.1719
  112OSM   C14S11561   0.040   2.990   5.638 -0.6824  0.7466  0.3963
  112OSM   H14S11562   0.097   2.909   5.688  0.3103  0.9561 -0.3656
  112OSM   H14T11563   0.094   3.003   5.542  1.2496 -0.4900  1.2657
  112OSM   C15S11564  -0.105   2.953   5.605 -0.5700 -1.0098  0.2967
  112OSM   H15S11565  -0.105   2.856   5.550  0.5226  0.3164 -2.1853
  112OSM   H15T11566  -0.150   3.039   5.552 -2.3351 -0.4911  2.4906
  112OSM   C16S11567  -0.193   2.911   5.727 -0.2576 -0.2119 -0.1658
  112OSM   H16S11568  -0.301   2.900   5.703 -0.3115 -0.5804  0.2328
  112OSM   H16T11569  -0.194   2.994   5.801  0.0341  0.6403 -1.1003
  112OSM   C17S11570  -0.155   2.780   5.796  0.2218  0.3846  0.5278
  112OSM   H17S11571  -0.074   2.815   5.864  2.7273  0.4550 -2.2868
  112OSM   H17T11572  -0.115   2.713   5.717  1.2087  0.9563  0.5305
  112OSM   C18S11573  -0.272   2.702   5.858 -0.2516 -0.1390  0.3389
  112OSM   H18S11574  -0.246   2.610   5.916  0.8147 -1.2721 -1.8443
  112OSM   H18T11575  -0.337   2.663   5.777  0.7010 -1.9449  0.3849
  112OSM   H18U11576  -0.326   2.772   5.926  1.6538  1.4854  0.2527
  112OSM    C1F11577   0.760   3.608   6.420 -0.1794 -0.4265  0.5408
  112OSM     OF11578   0.827   3.513   6.459  0.2356 -0.4812 -0.9410
  112OSM    C2F11579   0.778   3.664   6.280 -0.6153 -0.3600 -0.3298
  112OSM    H2F11580   0.817   3.767   6.289  2.4877 -1.5025  0.6266
  112OSM    H2G11581   0.678   3.664   6.231 -1.3758  1.4854  1.1215
  112OSM    C3F11582   0.870   3.585   6.183  0.2791  0.0929  0.0563
  112OSM    H3F11583   0.829   3.483   6.169 -2.0418  1.1611 -1.5551
  112OSM    H3G11584   0.972   3.576   6.226  0.4686 -1.7530 -0.6684
  112OSM    C4F11585   0.868   3.643   6.040  0.3934  0.1192  0.4155
  112OSM    H4F11586   0.918   3.742   6.040  0.2200  0.2385 -1.0384
  112OSM    H4G11587   0.764   3.663   6.006  0.1337 -0.0091  1.1269
  112OSM    C5F11588   0.930   3.545   5.933  0.1705 -0.0225  0.2789
  112OSM    H5F11589   0.907   3.438   5.950  1.8910 -0.1862  1.9307
  112OSM    H5G11590   1.036   3.559   5.963 -0.1413  1.0233  0.9658
  112OSM    C6F11591   0.909   3.592   5.795 -0.2786 -0.3401  0.1566
  112OSM    H6F11592   0.941   3.697   5.777  0.9351 -0.9215 -1.2814
  112OSM    H6G11593   0.801   3.597   5.766  0.0167  1.0970 -0.8529
  112OSM    C7F11594   0.998   3.509   5.701 -0.0436 -0.1658 -0.0507
  112OSM    H7F11595   0.968   3.402   5.707  1.7886 -0.8055 -1.2944
  112OSM    H7G11596   1.102   3.506   5.739 -0.3058 -1.7766  0.6405
  112OSM    C8F11597   1.006   3.552   5.554 -0.1315  0.4146  0.5474
  112OSM    H8F11598   1.096   3.505   5.510  0.3840  1.6745  0.2175
  112OSM    H8G11599   1.030   3.660   5.547  0.0158  0.4084  0.9631
  112OSM    C9F11600   0.879   3.529   5.469 -0.3142 -0.1867 -0.0452
  112OSM    H9F11601   0.784   3.515   5.524  0.6877 -1.3620  1.4918
  112OSM   C10F11602   0.871   3.519   5.335  0.3029 -0.8192 -1.2568
  112OSM   H10F11603   0.773   3.493   5.293 -1.1558  1.4768  0.5200
  112OSM   C11F11604   0.986   3.524   5.241 -0.3177 -0.1585 -0.1492
  112OSM   H11F11605   1.080   3.562   5.288 -1.0809 -0.1489  1.4185
  112OSM   H11G11606   0.959   3.606   5.171 -1.3946 -0.4988 -0.1384
  112OSM   C12F11607   1.010   3.393   5.163  0.7049 -0.2197  0.6330
  112OSM   H12F11608   0.917   3.371   5.106  0.9102 -0.6889  0.4741
  112OSM   H12G11609   1.026   3.307   5.230  0.9411 -0.8651 -0.2263
  112OSM   C13F11610   1.130   3.397   5.062 -0.0840  0.3128 -0.5469
  112OSM   H13F11611   1.221   3.422   5.121  1.3625 -0.2851 -2.4284
  112OSM   H13G11612   1.113   3.475   4.985 -2.1388  0.0549 -0.4040
  112OSM   C14F11613   1.164   3.265   4.990 -0.8107  0.9396  0.2361
  112OSM   H14F11614   1.218   3.198   5.061  0.0617 -0.9307 -2.0560
  112OSM   H14G11615   1.238   3.290   4.912 -1.4937  1.7095 -0.1794
  112OSM   C15F11616   1.043   3.194   4.931 -0.1320 -0.5165  0.0011
  112OSM   H15F11617   0.999   3.267   4.859  0.8063  1.2871  1.1841
  112OSM   H15G11618   0.967   3.168   5.007 -0.2238  0.3516  0.2211
  112OSM   C16F11619   1.071   3.071   4.854 -0.1758  0.3422 -0.5340
  112OSM   H16F11620   1.121   3.100   4.759  0.7211  3.6195  0.7828
  112OSM   H16G11621   0.974   3.021   4.834 -0.2025  0.8891 -1.8975
  112OSM   C17F11622   1.155   2.963   4.936 -0.1330  0.6727  0.6629
  112OSM   H17F11623   1.092   2.937   5.024  1.1575  0.1026  1.4490
  112OSM   H17G11624   1.238   3.012   4.992 -0.6351  0.0222  2.0170
  112OSM   C18F11625   1.205   2.846   4.841 -0.3706 -0.2484  0.0377
  112OSM   H18F11626   1.127   2.827   4.764 -0.6689  2.6876 -0.4948
  112OSM   H18G11627   1.224   2.753   4.900 -0.4746  1.4074  2.8647
  112OSM   H18H11628   1.295   2.879   4.785 -1.1437  3.2358  0.6420
  113OSM      N11629   2.810   5.977   7.328 -0.1743  0.2179  0.1484
  113OSM    C1511630   2.671   6.005   7.353  0.0894 -0.2871 -0.4957
  113OSM   H15A11631   2.640   6.096   7.304 -1.6856 -2.1483 -3.1182
  113OSM   H15B11632   2.655   6.016   7.459  3.8585 -1.3714  0.3395
  113OSM   H15C11633   2.610   5.921   7.322  0.6753 -1.1641  0.6703
  113OSM    C1411634   2.887   6.090   7.388 -0.1836  0.3805  0.5035
  113OSM   H14A11635   2.876   6.182   7.333  0.3317 -0.5748 -1.2915
  113OSM   H14B11636   2.993   6.067   7.386 -0.1667  0.2845 -2.3275
  113OSM   H14C11637   2.856   6.102   7.491 -1.6346 -2.7008  0.5398
  113OSM    C1311638   2.839   5.843   7.389  0.2695 -0.5193 -0.3222
  113OSM   H13A11639   2.779   5.769   7.338  0.0799 -0.2556 -0.4782
  113OSM   H13B11640   2.799   5.837   7.489 -1.7401  1.9832 -0.8598
  113OSM   H13C11641   2.946   5.826   7.391  0.6768  1.7695 -0.2228
  113OSM    C1211642   2.838   5.963   7.175 -0.6086  0.4138  1.2978
  113OSM   H12A11643   2.776   5.880   7.146 -3.8135  1.7411  3.7155
  113OSM   H12B11644   2.941   5.931   7.163 -0.3907  0.1904  3.3558
  113OSM    C1111645   2.795   6.082   7.089  0.6484  0.7227  0.3879
  113OSM   H11A11646   2.835   6.064   6.987 -1.8801  1.4968 -0.8013
  113OSM   H11B11647   2.841   6.178   7.121  0.7871  0.6198  0.5038
  113OSM      P11648   2.562   5.994   6.996 -0.0435 -0.0127  0.2231
  113OSM    O1311649   2.630   5.860   7.008  0.3355  0.0494  0.4128
  113OSM    O1411650   2.422   6.007   7.026  0.2212 -0.5686 -0.3223
  113OSM    O1111651   2.596   6.052   6.849  0.1963 -0.4562  0.2395
  113OSM    O1211652   2.651   6.096   7.081 -0.3831  0.0402 -0.4038
  113OSM    C1S11653   2.589   5.977   6.733 -0.7589 -0.2325  0.2564
  113OSM    H1S11654   2.498   5.913   6.727  0.2096 -1.6135 -0.1799
  113OSM    H1T11655   2.681   5.916   6.720 -0.1906 -0.4115  4.1127
  113OSM     NF11656   2.592   5.984   6.486  0.2215  0.9327  0.7395
  113OSM    HNF11657   2.656   6.016   6.417  0.5544  0.7287  0.9486
  113OSM    C2S11658   2.581   6.066   6.600 -0.1795 -0.9591  0.4080
  113OSM    H2S11659   2.474   6.098   6.602  0.1050 -0.0056  0.4201
  113OSM    C3S11660   2.660   6.203   6.592  0.6696 -0.9157 -0.1023
  113OSM    H3S11661   2.764   6.200   6.553 -0.1953  1.3971 -2.9009
  113OSM     O311662   2.660   6.271   6.717  0.0200 -0.7632 -0.3192
  113OSM    HO311663   2.637   6.206   6.785 -1.5479 -0.6339 -0.6822
  113OSM    C4S11664   2.585   6.301   6.496 -0.1899 -0.0539 -0.1598
  113OSM    H4S11665   2.489   6.347   6.523  0.6103  0.6524  1.6181
  113OSM    C5S11666   2.619   6.326   6.364 -0.2873  0.2051  0.7748
  113OSM    H5S11667   2.708   6.275   6.324 -0.3341  1.2248 -0.6992
  113OSM    C6S11668   2.557   6.421   6.270  0.3997  0.0220 -0.6564
  113OSM    H6S11669   2.602   6.522   6.278  1.5542 -0.1000 -4.1333
  113OSM    H6T11670   2.446   6.427   6.275  0.4896  0.7235  2.5314
  113OSM    C7S11671   2.594   6.383   6.126 -0.0081  0.4229  0.0445
  113OSM    H7S11672   2.524   6.301   6.101 -0.4561 -0.4297  3.6227
  113OSM    H7T11673   2.695   6.341   6.109 -0.2685  0.1981 -1.0757
  113OSM    C8S11674   2.576   6.503   6.032  0.2162  0.3220  0.2836
  113OSM    H8S11675   2.646   6.584   6.059 -1.0251  2.1710 -1.6785
  113OSM    H8T11676   2.471   6.537   6.045  0.0992 -0.0877  0.4582
  113OSM    C9S11677   2.599   6.453   5.886 -0.6142  0.2185  0.9974
  113OSM    H9S11678   2.530   6.368   5.866  2.3861 -2.1630 -0.0605
  113OSM    H9T11679   2.695   6.397   5.882 -0.7008  0.1110 -1.5785
  113OSM   C10S11680   2.597   6.570   5.783  0.0856  0.4355 -0.2412
  113OSM   H10S11681   2.646   6.657   5.832  0.7410  0.5487 -1.0877
  113OSM   H10T11682   2.493   6.607   5.770  0.3994  2.0461  1.3724
  113OSM   C11S11683   2.669   6.525   5.659 -0.4316  0.0567 -0.3071
  113OSM   H11S11684   2.635   6.423   5.630 -0.5476 -0.0672  0.2569
  113OSM   H11T11685   2.778   6.513   5.674 -0.2281  0.7835 -1.1268
  113OSM   C12S11686   2.638   6.605   5.526  0.0245  0.2432 -0.2223
  113OSM   H12S11687   2.651   6.715   5.533 -0.1935  0.3670 -1.4338
  113OSM   H12T11688   2.529   6.595   5.507 -0.0211 -0.3049  0.2886
  113OSM   C13S11689   2.721   6.566   5.401 -0.6357  0.3606  0.2190
  113OSM   H13S11690   2.720   6.459   5.372  1.2105  0.2912  0.2602
  113OSM   H13T11691   2.828   6.590   5.423  0.4408 -2.4542 -1.3773
  113OSM   C14S11692   2.675   6.637   5.278 -0.1419 -0.3792 -0.1050
  113OSM   H14S11693   2.715   6.739   5.292 -0.4633 -0.0098 -1.6783
  113OSM   H14T11694   2.565   6.653   5.266 -0.3110 -1.8235 -0.6625
  113OSM   C15S11695   2.729   6.578   5.145  0.1966  0.3085 -0.1123
  113OSM   H15S11696   2.682   6.477   5.149  2.4305 -0.7939  0.6720
  113OSM   H15T11697   2.840   6.580   5.148  0.3214 -0.7440 -2.2877
  113OSM   C16S11698   2.679   6.662   5.023  0.2042  0.0170 -0.2944
  113OSM   H16S11699   2.595   6.726   5.058  0.8159  2.3214 -2.6673
  113OSM   H16T11700   2.641   6.608   4.934  0.3486 -2.0724  0.8530
  113OSM   C17S11701   2.791   6.757   4.978 -0.3264 -0.5131 -0.0876
  113OSM   H17S11702   2.878   6.693   4.954  0.3661 -0.0429  1.0953
  113OSM   H17T11703   2.807   6.831   5.059 -2.2371  1.0762 -1.0412
  113OSM   C18S11704   2.758   6.835   4.849 -0.0946  0.9035 -0.5025
  113OSM   H18S11705   2.713   6.758   4.784  1.0887  0.2254 -0.5507
  113OSM   H18T11706   2.858   6.874   4.820  0.9995 -0.5261  1.1627
  113OSM   H18U11707   2.684   6.917   4.863 -0.3937  0.7036 -0.9037
  113OSM    C1F11708   2.520   5.873   6.456  0.1941 -0.2240  0.0443
  113OSM     OF11709   2.416   5.845   6.516  0.5281 -0.4728  0.2494
  113OSM    C2F11710   2.573   5.781   6.353  0.4571 -0.0441  0.2397
  113OSM    H2F11711   2.588   5.682   6.401  0.8010  0.7544  1.8713
  113OSM    H2G11712   2.672   5.821   6.323  1.4566 -1.5208  1.4148
  113OSM    C3F11713   2.476   5.781   6.234 -0.0023 -0.2215  0.1296
  113OSM    H3F11714   2.484   5.881   6.187  0.8809  0.9463  2.5991
  113OSM    H3G11715   2.371   5.760   6.265  0.1302  1.1588  1.6598
  113OSM    C4F11716   2.514   5.670   6.135 -0.4153 -0.5326  0.1898
  113OSM    H4F11717   2.516   5.570   6.182 -0.1616 -0.0281  1.2852
  113OSM    H4G11718   2.617   5.686   6.096  0.0169 -0.9930  1.0986
  113OSM    C5F11719   2.417   5.661   6.012 -0.5045  0.6368  1.0352
  113OSM    H5F11720   2.314   5.675   6.052 -0.7236 -1.4276  1.3424
  113OSM    H5G11721   2.428   5.555   5.979  0.8771  0.8761  0.6824
  113OSM    C6F11722   2.464   5.754   5.903 -0.5324 -0.6342 -0.1028
  113OSM    H6F11723   2.562   5.708   5.877 -0.7991 -0.3491 -1.7468
  113OSM    H6G11724   2.477   5.858   5.939 -0.1313 -0.6040 -0.3390
  113OSM    C7F11725   2.368   5.747   5.784  0.3222  0.4295  0.8391
  113OSM    H7F11726   2.271   5.796   5.803  0.4233  1.6826 -1.4242
  113OSM    H7G11727   2.349   5.641   5.759 -0.6678  0.7769  0.0095
  113OSM    C8F11728   2.423   5.812   5.656 -0.2042 -0.5781 -0.0881
  113OSM    H8F11729   2.475   5.909   5.671  0.0951 -0.8322  0.5216
  113OSM    H8G11730   2.333   5.825   5.592 -0.9918 -0.2781  1.0439
  113OSM    C9F11731   2.541   5.744   5.582 -0.2965  0.1195  0.2580
  113OSM    H9F11732   2.633   5.730   5.641 -0.3221  1.3728  0.6235
  113OSM   C10F11733   2.542   5.700   5.456 -0.0430  0.0406 -0.7336
  113OSM   H10F11734   2.640   5.670   5.416 -0.5507  0.6153 -2.5135
  113OSM   C11F11735   2.444   5.717   5.346 -0.0185  0.7837  0.3291
  113OSM   H11F11736   2.348   5.759   5.381  0.2238  2.4054 -0.8363
  113OSM   H11G11737   2.421   5.611   5.321  0.1354  1.1275 -1.4737
  113OSM   C12F11738   2.498   5.794   5.219 -0.1173 -0.1129  0.3128
  113OSM   H12F11739   2.589   5.745   5.178  1.3317  1.0943  1.9636
  113OSM   H12G11740   2.530   5.894   5.254  1.2631 -0.0538 -1.0470
  113OSM   C13F11741   2.408   5.812   5.093 -0.2066 -0.9148 -0.6225
  113OSM   H13F11742   2.316   5.869   5.120  0.5839 -0.6129  1.6739
  113OSM   H13G11743   2.382   5.707   5.068 -1.9528 -0.7188  0.1640
  113OSM   C14F11744   2.481   5.885   4.980  0.1067  0.6643 -0.1419
  113OSM   H14F11745   2.536   5.816   4.912 -2.0428 -0.1394 -1.1378
  113OSM   H14G11746   2.560   5.949   5.025  1.8748 -1.0848 -0.5688
  113OSM   C15F11747   2.386   5.966   4.900 -0.1752  0.1702 -0.2351
  113OSM   H15F11748   2.317   6.016   4.971  0.8373 -1.4581  1.9882
  113OSM   H15G11749   2.324   5.894   4.841 -0.8266  0.8674 -0.4119
  113OSM   C16F11750   2.469   6.062   4.814  0.8163 -0.6217 -1.0643
  113OSM   H16F11751   2.546   6.007   4.756  0.7930 -0.8930 -0.8420
  113OSM   H16G11752   2.520   6.144   4.868  0.0427 -0.3802 -0.6839
  113OSM   C17F11753   2.376   6.152   4.730 -0.6578 -0.0664 -0.2241
  113OSM   H17F11754   2.297   6.191   4.798 -1.4082 -0.7206 -0.7005
  113OSM   H17G11755   2.328   6.084   4.656 -1.3949 -1.2978  1.3322
  113OSM   C18F11756   2.446   6.263   4.648  0.2072  0.5850 -0.5390
  113OSM   H18F11757   2.499   6.221   4.559  0.3462 -1.1008  0.2944
  113OSM   H18G11758   2.513   6.315   4.719  0.1317 -0.2455  0.1581
  113OSM   H18H11759   2.367   6.335   4.618 -0.0678 -0.3902 -2.3214
  114OSM      N11760   3.406   4.013   7.262 -0.2476 -0.4708 -0.0221
  114OSM    C1511761   3.261   4.023   7.240 -0.1103  0.3205  0.0222
  114OSM   H15A11762   3.227   4.086   7.321  0.4461 -0.2125  0.6870
  114OSM   H15B11763   3.214   3.926   7.239 -1.9396  1.1740  0.4644
  114OSM   H15C11764   3.235   4.084   7.155 -0.2706  2.1301  1.2966
  114OSM    C1411765   3.463   4.154   7.268  0.0839  0.9776  0.0219
  114OSM   H14A11766   3.410   4.213   7.342 -1.4904 -0.3231 -0.0118
  114OSM   H14B11767   3.447   4.204   7.174 -0.3616  1.2688  0.2450
  114OSM   H14C11768   3.568   4.148   7.292 -0.0074 -0.7374  0.0616
  114OSM    C1311769   3.424   3.955   7.394 -0.5429 -0.2013  0.5915
  114OSM   H13A11770   3.529   3.944   7.415 -0.1928  2.2725  0.4631
  114OSM   H13B11771   3.380   3.857   7.409  0.1221 -0.3654  1.5710
  114OSM   H13C11772   3.391   4.026   7.468 -0.4965  0.4158  0.0305
  114OSM    C1211773   3.475   3.925   7.157  0.1277  0.1178 -0.3365
  114OSM   H12A11774   3.429   3.829   7.174  0.8145  0.1255  1.8701
  114OSM   H12B11775   3.576   3.904   7.188  0.2577  1.3468  0.1342
  114OSM    C1111776   3.471   3.962   7.007 -0.0945  0.7354 -0.2164
  114OSM   H11A11777   3.362   3.960   6.986 -0.1755  2.1368 -0.0274
  114OSM   H11B11778   3.534   3.883   6.959 -1.0118 -1.2595  1.6934
  114OSM      P11779   3.438   4.189   6.892 -0.2774 -0.4465 -0.2678
  114OSM    O1311780   3.296   4.157   6.912  0.0170 -0.3145 -0.2028
  114OSM    O1411781   3.481   4.324   6.936 -0.7946 -0.2320 -0.0279
  114OSM    O1111782   3.491   4.179   6.739  0.3821 -0.2627  0.1098
  114OSM    O1211783   3.524   4.087   6.978  0.7042  0.6271 -0.2108
  114OSM    C1S11784   3.563   4.067   6.694  0.0659 -0.0337 -0.0373
  114OSM    H1S11785   3.508   3.971   6.707  0.7969 -0.7093 -1.6828
  114OSM    H1T11786   3.663   4.057   6.741 -0.1437  1.0487  0.6634
  114OSM     NF11787   3.646   3.940   6.491  0.7330 -0.1524 -0.1225
  114OSM    HNF11788   3.744   3.923   6.481  0.7900 -0.3485  0.7371
  114OSM    C2S11789   3.593   4.071   6.534  0.1759 -0.0286  0.8947
  114OSM    H2S11790   3.491   4.078   6.493 -0.6011 -3.0997  2.0642
  114OSM    C3S11791   3.690   4.190   6.505  0.0477  0.0018  0.0966
  114OSM    H3S11792   3.789   4.177   6.553  0.2656  3.1801  0.7673
  114OSM     O311793   3.639   4.307   6.564  0.0008 -0.1878 -0.0685
  114OSM    HO311794   3.562   4.276   6.612 -1.1560  0.8238 -1.1957
  114OSM    C4S11795   3.715   4.217   6.357  0.0722  0.3294 -0.4981
  114OSM    H4S11796   3.645   4.296   6.326 -0.4165  0.1414  0.0872
  114OSM    C5S11797   3.818   4.177   6.273  0.1292  0.6876 -0.0124
  114OSM    H5S11798   3.902   4.121   6.317  0.0697  0.6951  0.1102
  114OSM    C6S11799   3.837   4.202   6.127 -0.7240 -0.0265  0.7009
  114OSM    H6S11800   3.834   4.102   6.078 -0.8363 -0.1378  0.9317
  114OSM    H6T11801   3.927   4.263   6.106 -1.9951  1.2309 -1.4536
  114OSM    C7S11802   3.731   4.310   6.076 -0.8868 -0.3302  0.1111
  114OSM    H7S11803   3.737   4.405   6.133 -2.0901  0.8226 -1.5842
  114OSM    H7T11804   3.632   4.267   6.101 -2.1212  1.8609 -0.7540
  114OSM    C8S11805   3.722   4.325   5.924 -0.0459 -0.0065  0.2437
  114OSM    H8S11806   3.699   4.226   5.880  1.7368 -0.0868 -0.6174
  114OSM    H8T11807   3.820   4.356   5.882  0.6007 -1.7939  0.3784
  114OSM    C9S11808   3.619   4.423   5.873  0.4481 -0.0335  0.1852
  114OSM    H9S11809   3.632   4.525   5.915  1.3345  0.2997 -0.8528
  114OSM    H9T11810   3.520   4.376   5.892 -1.1032  1.8753 -2.5290
  114OSM   C10S11811   3.623   4.447   5.718  0.7983  0.1768 -0.0825
  114OSM   H10S11812   3.606   4.357   5.655  0.4368  0.7755 -0.8604
  114OSM   H10T11813   3.722   4.491   5.693  0.0098  1.9101 -0.3681
  114OSM   C11S11814   3.527   4.553   5.671  0.0110 -0.2156  0.1307
  114OSM   H11S11815   3.556   4.647   5.721  0.4934 -0.6669  0.7076
  114OSM   H11T11816   3.420   4.535   5.697 -0.2935 -0.2112 -1.0478
  114OSM   C12S11817   3.529   4.563   5.516 -0.1328  0.1314 -0.3229
  114OSM   H12S11818   3.471   4.654   5.489  1.5448  1.9943  1.8656
  114OSM   H12T11819   3.479   4.471   5.480  1.7302 -0.5461 -1.3576
  114OSM   C13S11820   3.669   4.557   5.449 -0.5503  0.2066 -0.7033
  114OSM   H13S11821   3.643   4.556   5.341 -0.3964 -1.4271 -0.7596
  114OSM   H13T11822   3.716   4.463   5.484  1.9252  1.7367  0.3169
  114OSM   C14S11823   3.757   4.675   5.486  0.3334 -0.4296 -0.3378
  114OSM   H14S11824   3.766   4.681   5.597 -1.7612 -1.0565 -0.0810
  114OSM   H14T11825   3.712   4.769   5.448 -1.3962 -1.3960 -0.7813
  114OSM   C15S11826   3.899   4.659   5.431 -0.6250  0.2767 -0.7262
  114OSM   H15S11827   3.900   4.635   5.323 -2.0509 -0.3963 -0.5993
  114OSM   H15T11828   3.940   4.575   5.491 -2.5028  1.1783  1.9620
  114OSM   C16S11829   4.000   4.778   5.462 -0.0450 -0.6200  0.1476
  114OSM   H16S11830   4.006   4.799   5.571  0.2309  1.1854 -0.1841
  114OSM   H16T11831   3.954   4.859   5.401  1.3170 -1.0220 -1.5028
  114OSM   C17S11832   4.144   4.745   5.417 -0.8593 -0.1473 -0.0505
  114OSM   H17S11833   4.205   4.838   5.410 -0.9984 -0.1229 -1.1235
  114OSM   H17T11834   4.130   4.716   5.311 -1.2978  0.9323 -0.3056
  114OSM   C18S11835   4.219   4.648   5.504 -0.0218  0.3996  0.2497
  114OSM   H18S11836   4.167   4.551   5.518  2.7802 -1.1234  0.8716
  114OSM   H18T11837   4.214   4.691   5.607 -0.4497 -2.9324  1.7422
  114OSM   H18U11838   4.321   4.633   5.464  1.1852  3.4212  1.7836
  114OSM    C1F11839   3.563   3.841   6.470  0.0561  0.5513  0.3677
  114OSM     OF11840   3.449   3.845   6.511  0.3892 -0.2877  0.0077
  114OSM    C2F11841   3.623   3.715   6.412  0.3689  1.0428 -1.1838
  114OSM    H2F11842   3.541   3.643   6.391 -1.6666  2.1138  2.2345
  114OSM    H2G11843   3.690   3.670   6.488 -0.2428  0.4529 -0.9807
  114OSM    C3F11844   3.708   3.730   6.281  0.4786  0.0847  0.4211
  114OSM    H3F11845   3.731   3.626   6.250 -2.2470 -0.1362 -1.0980
  114OSM    H3G11846   3.808   3.776   6.299  2.6685 -3.5401 -1.2668
  114OSM    C4F11847   3.626   3.785   6.164  0.0929 -0.2531  0.3774
  114OSM    H4F11848   3.571   3.879   6.186  2.1971  0.9371  0.8515
  114OSM    H4G11849   3.548   3.710   6.141 -0.7149 -0.2353  2.8175
  114OSM    C5F11850   3.710   3.804   6.036 -1.0212  0.6882 -0.4000
  114OSM    H5F11851   3.743   3.706   5.995  1.9889  0.9283  1.1557
  114OSM    H5G11852   3.799   3.865   6.061 -1.8692  1.4768  0.7665
  114OSM    C6F11853   3.635   3.879   5.928 -0.0680  0.7964  0.2896
  114OSM    H6F11854   3.601   3.978   5.963  0.3040  1.2754 -0.6652
  114OSM    H6G11855   3.541   3.825   5.903 -0.5130  2.6904 -2.5869
  114OSM    C7F11856   3.724   3.906   5.796 -0.1465  0.1079  0.1121
  114OSM    H7F11857   3.816   3.959   5.830  0.7481 -0.5512 -1.1828
  114OSM    H7G11858   3.675   3.987   5.738  0.0768  0.0304 -0.1898
  114OSM    C8F11859   3.751   3.787   5.707 -0.4372  0.3700 -0.1569
  114OSM    H8F11860   3.654   3.765   5.657 -0.3392  0.0067 -0.1892
  114OSM    H8G11861   3.789   3.699   5.764  1.7804  0.3059 -1.6085
  114OSM    C9F11862   3.855   3.818   5.602 -0.1681  0.7923  0.1798
  114OSM    H9F11863   3.959   3.833   5.635  0.0372  0.6066 -0.3756
  114OSM   C10F11864   3.833   3.833   5.469 -0.5867  0.1708 -0.4965
  114OSM   H10F11865   3.917   3.860   5.404  0.0777 -0.1771  0.1910
  114OSM   C11F11866   3.702   3.816   5.397 -0.1203  1.0479 -0.3145
  114OSM   H11F11867   3.642   3.909   5.404 -0.6457  0.8636 -1.9748
  114OSM   H11G11868   3.639   3.746   5.457  0.0624  1.7284  0.7053
  114OSM   C12F11869   3.723   3.763   5.251  0.6931  0.4120 -0.1171
  114OSM   H12F11870   3.630   3.728   5.200  0.8687 -0.8035  0.3757
  114OSM   H12G11871   3.794   3.680   5.268  2.9633  2.2586 -0.0182
  114OSM   C13F11872   3.790   3.862   5.151 -0.4605 -0.0719 -0.1909
  114OSM   H13F11873   3.875   3.914   5.198  1.2552 -2.4081 -0.5300
  114OSM   H13G11874   3.711   3.936   5.123 -0.2005  1.1389  2.0743
  114OSM   C14F11875   3.869   3.798   5.043  0.5238  0.0812  0.1975
  114OSM   H14F11876   3.814   3.718   4.989 -0.4695 -0.2639  1.6544
  114OSM   H14G11877   3.950   3.736   5.088 -1.0543 -1.7780  0.6253
  114OSM   C15F11878   3.930   3.887   4.935  0.4885 -0.0018  0.4085
  114OSM   H15F11879   4.009   3.961   4.960 -2.4036  3.9760 -1.2060
  114OSM   H15G11880   3.855   3.954   4.889  3.1474  0.7837 -3.2517
  114OSM   C16F11881   3.987   3.814   4.821  0.1112  0.0339 -0.2277
  114OSM   H16F11882   3.914   3.752   4.764  0.5626 -0.3470 -0.3994
  114OSM   H16G11883   4.062   3.735   4.844  0.8791  1.1707  1.2893
  114OSM   C17F11884   4.039   3.912   4.712 -0.3558  0.1494  0.2747
  114OSM   H17F11885   4.130   3.965   4.747 -0.9068  0.2925  1.5558
  114OSM   H17G11886   3.962   3.986   4.685  2.2452  2.4429 -1.4273
  114OSM   C18F11887   4.080   3.837   4.582 -0.1794 -0.3457  0.1582
  114OSM   H18F11888   4.137   3.747   4.613  2.7964  1.5359  0.5274
  114OSM   H18G11889   4.151   3.886   4.512 -0.1262 -1.4154 -0.5718
  114OSM   H18H11890   3.986   3.807   4.532 -2.2418  1.1778  2.8431
  115OSM      N11891   0.059   5.185   6.918  0.0265  0.3864 -0.0971
  115OSM    C1511892   0.204   5.172   6.953  0.3753  0.2449  0.0160
  115OSM   H15A11893   0.252   5.268   6.964 -0.5921  1.3178 -3.7462
  115OSM   H15B11894   0.260   5.116   6.880 -0.1953  0.5616 -0.6759
  115OSM   H15C11895   0.220   5.111   7.041 -0.8833 -1.3882 -0.8242
  115OSM    C1411896  -0.006   5.057   6.888 -0.4229 -0.3623  0.1183
  115OSM   H14A11897   0.004   4.987   6.970 -1.6420 -0.4137  0.2463
  115OSM   H14B11898   0.023   5.019   6.791  1.3097  3.5507 -1.1009
  115OSM   H14C11899  -0.110   5.078   6.866  0.1224  0.6829 -1.6728
  115OSM    C1311900  -0.019   5.249   7.032 -0.1534  0.1008 -0.3565
  115OSM   H13A11901   0.000   5.196   7.124 -0.2003  0.5239 -0.1014
  115OSM   H13B11902  -0.125   5.241   7.015 -0.4619 -0.5274  1.6223
  115OSM   H13C11903   0.007   5.354   7.041 -0.2458  0.2344 -1.5404
  115OSM    C1211904   0.038   5.277   6.806  0.5719 -0.1946  0.5733
  115OSM   H12A11905  -0.068   5.285   6.786  0.2087 -1.1291  2.0168
  115OSM   H12B11906   0.084   5.232   6.720  0.5554 -1.3317  1.1447
  115OSM    C1111907   0.097   5.426   6.816 -0.6651  0.2669  0.2513
  115OSM   H11A11908   0.038   5.480   6.892 -0.4496 -0.2999  0.8317
  115OSM   H11B11909   0.074   5.481   6.722  1.8289  0.7262 -0.1569
  115OSM      P11910   0.308   5.559   6.906  0.7127  0.3972  0.1641
  115OSM    O1311911   0.268   5.569   7.047 -1.2598 -0.0572  0.0970
  115OSM    O1411912   0.456   5.557   6.878  0.6031  0.1958 -0.6230
  115OSM    O1111913   0.236   5.675   6.835  0.0974 -0.1330  0.0292
  115OSM    O1211914   0.238   5.431   6.841 -0.1414  0.0612 -0.1843
  115OSM    C1S11915   0.289   5.767   6.736 -0.4388 -0.0448 -0.9960
  115OSM    H1S11916   0.353   5.711   6.664 -0.3348 -1.3751  0.0908
  115OSM    H1T11917   0.349   5.839   6.797 -2.2069  1.7378 -1.2651
  115OSM     NF11918   0.232   5.888   6.527  0.2460  0.2795  0.7039
  115OSM    HNF11919   0.279   5.976   6.519  1.2610 -0.4154 -2.6250
  115OSM    C2S11920   0.182   5.845   6.654  0.2137  0.2371  0.2295
  115OSM    H2S11921   0.104   5.768   6.636  1.0592 -0.7482  0.6542
  115OSM    C3S11922   0.128   5.951   6.745  0.2981  0.5287  0.4812
  115OSM    H3S11923   0.202   6.033   6.759 -0.0949  0.5606  2.9356
  115OSM     O311924   0.093   5.908   6.875  0.2587  0.6639  0.5045
  115OSM    HO311925   0.107   5.814   6.873  0.1276  0.6352  0.8014
  115OSM    C4S11926   0.004   6.005   6.685  0.3763 -0.2400  0.1913
  115OSM    H4S11927  -0.064   5.927   6.647  1.1442 -1.1004  0.5307
  115OSM    C5S11928  -0.031   6.132   6.659 -0.0286 -0.1688 -0.2118
  115OSM    H5S11929   0.038   6.206   6.704  2.3422 -3.1126  1.3854
  115OSM    C6S11930  -0.149   6.161   6.577  0.7571 -0.3256  0.2117
  115OSM    H6S11931  -0.205   6.242   6.628  0.8071  0.1204 -0.4270
  115OSM    H6T11932  -0.223   6.080   6.561  0.9805  0.0070 -3.2241
  115OSM    C7S11933  -0.111   6.205   6.435  0.4347  0.8854 -0.1974
  115OSM    H7S11934  -0.050   6.297   6.448 -0.2002  1.3088 -0.1633
  115OSM    H7T11935  -0.202   6.233   6.377  1.7821 -2.9260 -4.8390
  115OSM    C8S11936  -0.035   6.110   6.345  0.1522 -0.4122  0.6635
  115OSM    H8S11937  -0.119   6.042   6.321  0.1852 -0.5615  0.9555
  115OSM    H8T11938   0.040   6.045   6.396 -0.0693 -1.1256  0.0846
  115OSM    C9S11939   0.020   6.172   6.217 -0.1179  0.7609 -0.9206
  115OSM    H9S11940  -0.055   6.244   6.178 -2.4438  0.3441  2.4118
  115OSM    H9T11941   0.032   6.100   6.133  1.0838  2.0066 -1.8658
  115OSM   C10S11942   0.157   6.231   6.255 -0.2261 -0.0888  0.2217
  115OSM   H10S11943   0.220   6.146   6.289  1.4546  0.5877 -1.0676
  115OSM   H10T11944   0.132   6.305   6.333 -2.5346  0.0919 -0.6120
  115OSM   C11S11945   0.214   6.295   6.134 -0.9093 -0.2592  0.1483
  115OSM   H11S11946   0.197   6.241   6.039 -2.9751  3.0649 -1.5596
  115OSM   H11T11947   0.322   6.314   6.155 -0.5815  0.6485 -2.0638
  115OSM   C12S11948   0.167   6.435   6.098 -0.5239  0.2398  0.4157
  115OSM   H12S11949   0.160   6.500   6.188 -0.5218  1.0128 -0.1280
  115OSM   H12T11950   0.063   6.436   6.057 -1.4353 -0.5699  2.5718
  115OSM   C13S11951   0.262   6.501   5.997  0.0540  0.6064  0.1379
  115OSM   H13S11952   0.243   6.445   5.903 -1.0539  0.6698  0.3062
  115OSM   H13T11953   0.370   6.482   6.014 -0.6134 -1.3473  2.9135
  115OSM   C14S11954   0.261   6.650   5.977  0.5359 -0.2415 -0.1609
  115OSM   H14S11955   0.291   6.697   6.072 -0.7730 -2.4937  1.4712
  115OSM   H14T11956   0.155   6.683   5.963  0.6318  1.7938  2.9702
  115OSM   C15S11957   0.342   6.713   5.861  0.5086  0.7160  0.0451
  115OSM   H15S11958   0.452   6.700   5.871  0.3634 -0.0560  0.7942
  115OSM   H15T11959   0.321   6.822   5.862  1.2946  0.9022  2.0255
  115OSM   C16S11960   0.294   6.654   5.727 -0.5763  0.3307 -0.3990
  115OSM   H16S11961   0.185   6.645   5.711 -0.4246 -1.4729 -0.6547
  115OSM   H16T11962   0.325   6.550   5.703 -3.3275 -0.3449 -1.3601
  115OSM   C17S11963   0.329   6.746   5.607 -0.2668 -0.4598  0.0528
  115OSM   H17S11964   0.436   6.777   5.611 -0.6073  0.7806  0.1328
  115OSM   H17T11965   0.266   6.837   5.605 -0.0856 -0.3146  0.6384
  115OSM   C18S11966   0.307   6.677   5.473  0.6133  0.8028  0.5609
  115OSM   H18S11967   0.387   6.602   5.460 -0.1153 -0.0338  0.7799
  115OSM   H18T11968   0.307   6.746   5.386 -1.5334  0.5569  0.3073
  115OSM   H18U11969   0.213   6.620   5.458  0.8361  0.9303 -1.5884
  115OSM    C1F11970   0.236   5.815   6.415  0.4160  0.9939 -0.5957
  115OSM     OF11971   0.184   5.700   6.417 -0.9013 -0.2244 -0.0257
  115OSM    C2F11972   0.289   5.876   6.289 -0.8751 -0.3818  0.2977
  115OSM    H2F11973   0.381   5.818   6.271 -1.5544 -1.2066 -0.5772
  115OSM    H2G11974   0.313   5.982   6.315 -2.5882  0.0737  0.1517
  115OSM    C3F11975   0.203   5.859   6.165  0.3571 -0.0523 -0.4874
  115OSM    H3F11976   0.119   5.928   6.184  0.9545  0.1969  1.4977
  115OSM    H3G11977   0.158   5.758   6.157  0.7698 -0.1104 -2.6738
  115OSM    C4F11978   0.265   5.902   6.036 -0.1140  0.2984  0.3894
  115OSM    H4F11979   0.341   5.824   6.014  0.7114 -0.2485  4.4423
  115OSM    H4G11980   0.320   5.999   6.038 -2.5504  1.7299  1.5673
  115OSM    C5F11981   0.161   5.905   5.924  0.1666  0.3537  0.2453
  115OSM    H5F11982   0.061   5.920   5.971  0.3090 -0.9309  1.0028
  115OSM    H5G11983   0.160   5.801   5.887  0.4453 -0.3235  2.0471
  115OSM    C6F11984   0.186   6.007   5.815 -0.0124  0.2029 -0.0979
  115OSM    H6F11985   0.273   5.964   5.760 -1.4217 -0.1660 -2.1797
  115OSM    H6G11986   0.221   6.106   5.849 -1.2082  1.2960 -1.8682
  115OSM    C7F11987   0.064   6.036   5.728 -0.2299 -0.4710  0.4721
  115OSM    H7F11988  -0.021   6.041   5.799 -0.6799  2.0969 -0.1503
  115OSM    H7G11989   0.053   5.951   5.657 -0.2887  0.2581 -0.4033
  115OSM    C8F11990   0.075   6.159   5.642 -0.1186 -0.2704 -0.5197
  115OSM    H8F11991   0.005   6.153   5.556 -0.2365  0.1274 -0.4562
  115OSM    H8G11992   0.179   6.155   5.604  0.3243 -1.0076  0.7263
  115OSM    C9F11993   0.051   6.282   5.729 -0.1022 -0.1680  0.1507
  115OSM    H9F11994   0.114   6.300   5.817  0.0851  3.4192 -0.5823
  115OSM   C10F11995  -0.050   6.374   5.711  0.4759 -0.0368  0.4689
  115OSM   H10F11996  -0.065   6.454   5.784  0.1411  0.6150 -0.2977
  115OSM   C11F11997  -0.168   6.382   5.611  0.2828  0.1297 -0.3726
  115OSM   H11F11998  -0.258   6.426   5.658  0.8517  2.5358 -1.3735
  115OSM   H11G11999  -0.196   6.276   5.596  1.8135 -0.3113 -0.2727
  115OSM   C12F12000  -0.133   6.456   5.479 -0.5312 -0.6508 -0.1982
  115OSM   H12F12001  -0.091   6.557   5.498 -1.4737 -0.0833 -1.0049
  115OSM   H12G12002  -0.230   6.470   5.425 -1.6462  0.4555  1.9771
  115OSM   C13F12003  -0.039   6.383   5.382  0.6786  0.8056  0.1874
  115OSM   H13F12004  -0.057   6.274   5.386  0.6581  0.8284  2.2870
  115OSM   H13G12005   0.065   6.391   5.422  1.1019 -0.1489 -0.6723
  115OSM   C14F12006  -0.052   6.447   5.247 -0.1483  0.1964 -0.1964
  115OSM   H14F12007  -0.161   6.446   5.224  0.0528 -0.3382 -1.1872
  115OSM   H14G12008  -0.010   6.373   5.176 -1.5612 -0.7529 -0.0755
  115OSM   C15F12009   0.007   6.587   5.236 -0.4016 -0.0365  0.4463
  115OSM   H15F12010   0.115   6.589   5.261 -0.0864  0.8007 -0.8887
  115OSM   H15G12011  -0.052   6.653   5.304 -0.8257  0.5234 -0.4572
  115OSM   C16F12012  -0.013   6.642   5.099  0.5289 -0.5688  0.5417
  115OSM   H16F12013  -0.120   6.641   5.070  1.0897 -1.2110 -1.6953
  115OSM   H16G12014   0.041   6.571   5.033  2.7140 -1.2199  2.8571
  115OSM   C17F12015   0.041   6.781   5.075  0.3433 -0.3975 -0.2674
  115OSM   H17F12016   0.146   6.789   5.111  0.2149 -0.5518  0.1448
  115OSM   H17G12017  -0.003   6.853   5.148  0.1118 -0.3090 -0.4956
  115OSM   C18F12018   0.031   6.832   4.936  0.0540  0.4018 -0.0542
  115OSM   H18F12019   0.027   6.942   4.930 -0.8073  0.4621  1.2174
  115OSM   H18G12020  -0.064   6.793   4.893 -0.1244 -0.1146  0.7941
  115OSM   H18H12021   0.113   6.790   4.873 -1.4092 -1.0100 -1.1034
  116OSM      N12022   4.809   3.295   6.996  0.3418 -0.2009  0.2755
  116OSM    C1512023   4.822   3.244   7.132  0.0684 -0.3672 -0.4726
  116OSM   H15A12024   4.905   3.177   7.148 -2.1335 -2.7939  1.9080
  116OSM   H15B12025   4.735   3.190   7.167  0.1120 -0.7834 -0.9807
  116OSM   H15C12026   4.843   3.329   7.194  0.0575 -0.0856 -0.8548
  116OSM    C1412027   4.937   3.356   6.945  0.5864  0.5618 -0.2496
  116OSM   H14A12028   4.950   3.371   6.839  2.8667  2.2853  0.1811
  116OSM   H14B12029   5.020   3.290   6.966  0.5184  0.0434 -1.5026
  116OSM   H14C12030   4.956   3.455   6.985 -0.1202  2.2447 -3.6954
  116OSM    C1312031   4.778   3.177   6.916 -0.2553 -0.0678  0.2331
  116OSM   H13A12032   4.686   3.135   6.954 -0.3104 -0.6990 -0.5920
  116OSM   H13B12033   4.855   3.102   6.921  0.0977  0.3344  1.0625
  116OSM   H13C12034   4.759   3.190   6.811 -1.4984 -0.5538  0.3884
  116OSM    C1212035   4.695   3.400   6.993 -0.3307  0.0320  0.1196
  116OSM   H12A12036   4.609   3.341   7.022 -1.9208  1.5300 -1.3287
  116OSM   H12B12037   4.694   3.448   6.896  1.6420  0.1882  0.1422
  116OSM    C1112038   4.707   3.522   7.092 -0.4563  0.1046 -0.1372
  116OSM   H11A12039   4.799   3.575   7.060 -1.4926  2.1027  0.0303
  116OSM   H11B12040   4.722   3.483   7.196  4.2047  0.0261 -0.6165
  116OSM      P12041   4.593   3.750   7.052  0.1744  0.2613  0.0452
  116OSM    O1312042   4.456   3.811   7.034 -0.0814 -0.3473 -0.4830
  116OSM    O1412043   4.681   3.795   7.157 -0.0602  0.4973  0.0529
  116OSM    O1112044   4.672   3.743   6.917  0.0450 -0.1984  0.4565
  116OSM    O1212045   4.582   3.592   7.074  0.5562 -0.0291 -0.0376
  116OSM    C1S12046   4.615   3.729   6.781 -0.6675  0.0931 -0.4283
  116OSM    H1S12047   4.528   3.797   6.771 -1.5074 -0.8984 -0.0846
  116OSM    H1T12048   4.579   3.627   6.756  1.9299 -1.5328  1.9036
  116OSM     NF12049   4.655   3.797   6.549 -0.3770  0.4805 -0.2545
  116OSM    HNF12050   4.669   3.733   6.475  0.2905  1.8585 -1.3718
  116OSM    C2S12051   4.721   3.764   6.675  0.5937 -0.1822 -0.3173
  116OSM    H2S12052   4.758   3.860   6.716 -0.7915 -0.3518  1.4842
  116OSM    C3S12053   4.835   3.666   6.670 -0.2074  0.2565 -0.4127
  116OSM    H3S12054   4.807   3.566   6.632 -1.6403  1.1821 -1.9349
  116OSM     O312055   4.889   3.633   6.799  0.4395  1.0006 -0.1325
  116OSM    HO312056   4.820   3.644   6.865  0.7879  1.1482  0.2140
  116OSM    C4S12057   4.941   3.714   6.583 -0.1288 -0.2413  0.5975
  116OSM    H4S12058   4.943   3.661   6.486 -0.9925 -1.1965  1.0781
  116OSM    C5S12059   5.031   3.815   6.608 -0.1364  0.0726  0.5393
  116OSM    H5S12060   5.038   3.876   6.699 -0.4148  0.5937  0.2140
  116OSM    C6S12061   5.120   3.868   6.501  0.5464 -0.2916 -0.3713
  116OSM    H6S12062   5.089   3.822   6.404 -2.5689 -1.1288  0.8946
  116OSM    H6T12063   5.225   3.841   6.522  0.2745 -0.2591  1.1311
  116OSM    C7S12064   5.113   4.017   6.470  0.2164 -0.5784  0.3690
  116OSM    H7S12065   5.177   4.044   6.383  1.0333 -1.0668  0.8080
  116OSM    H7T12066   5.160   4.065   6.559  3.7703  0.1553 -1.7118
  116OSM    C8S12067   4.974   4.088   6.469 -0.7986 -0.0014  0.0412
  116OSM    H8S12068   4.989   4.198   6.472  0.4115 -0.1778  2.3036
  116OSM    H8T12069   4.912   4.054   6.555  0.0589 -1.8735 -0.0311
  116OSM    C9S12070   4.888   4.063   6.344 -0.0717 -0.3227  0.8090
  116OSM    H9S12071   4.786   4.104   6.361 -0.4042 -1.6921  2.3239
  116OSM    H9T12072   4.884   3.952   6.338 -2.2419 -0.2202 -0.7500
  116OSM   C10S12073   4.958   4.120   6.216 -0.0991 -0.6824 -0.2598
  116OSM   H10S12074   5.068   4.127   6.231 -0.3363  0.5609  1.2639
  116OSM   H10T12075   4.908   4.219   6.206 -1.1027 -1.1648 -0.0407
  116OSM   C11S12076   4.934   4.044   6.080 -0.5193 -0.1940  0.3543
  116OSM   H11S12077   4.827   4.017   6.064 -1.1299  1.3755  1.5685
  116OSM   H11T12078   4.999   3.954   6.085 -1.1223 -0.7185 -0.8277
  116OSM   C12S12079   4.980   4.120   5.957 -0.8979  0.0629 -0.0037
  116OSM   H12S12080   5.090   4.108   5.955 -0.8776 -1.4206  3.5936
  116OSM   H12T12081   4.961   4.230   5.965 -0.4433  0.1611 -0.2320
  116OSM   C13S12082   4.911   4.071   5.821 -0.3173 -0.6284 -0.0873
  116OSM   H13S12083   4.801   4.084   5.824 -0.2516  0.0523 -0.3925
  116OSM   H13T12084   4.937   3.964   5.805  0.7189 -0.0271 -3.0283
  116OSM   C14S12085   4.971   4.133   5.702 -0.3179  0.1142  0.3176
  116OSM   H14S12086   5.079   4.108   5.699 -0.4940 -0.6499  0.0464
  116OSM   H14T12087   4.960   4.242   5.716  2.5093  0.3265  1.4397
  116OSM   C15S12088   4.908   4.094   5.570  0.0864 -0.1275 -0.5660
  116OSM   H15S12089   4.801   4.122   5.577 -0.1698 -1.4571  1.8949
  116OSM   H15T12090   4.919   3.984   5.570  0.5587 -0.0846 -0.4001
  116OSM   C16S12091   4.984   4.137   5.441  0.6748  0.0056 -0.5591
  116OSM   H16S12092   5.089   4.101   5.451  0.0830 -1.2888  1.8759
  116OSM   H16T12093   4.981   4.248   5.433  0.8942 -0.0806 -1.9555
  116OSM   C17S12094   4.917   4.069   5.316 -0.4578  0.2588  0.0294
  116OSM   H17S12095   4.809   4.092   5.315 -0.6863 -0.7250  0.6733
  116OSM   H17T12096   4.924   3.959   5.334  0.2820  0.4730  1.1715
  116OSM   C18S12097   4.971   4.129   5.183 -0.2572 -0.4773  0.1724
  116OSM   H18S12098   4.962   4.239   5.177  0.0419 -0.4909 -0.6334
  116OSM   H18T12099   4.921   4.094   5.089  2.7941 -0.2498 -1.6560
  116OSM   H18U12100   5.081   4.116   5.180 -0.2906 -0.6298 -0.8919
  116OSM    C1F12101   4.581   3.907   6.529  0.0942  0.1528  0.1418
  116OSM     OF12102   4.575   3.991   6.620 -0.3427  0.2119 -0.4283
  116OSM    C2F12103   4.496   3.911   6.396 -0.2582 -0.8691 -0.0631
  116OSM    H2F12104   4.404   3.849   6.401  0.1061 -1.3593  0.8223
  116OSM    H2G12105   4.562   3.873   6.315 -1.4255 -0.2503 -1.3401
  116OSM    C3F12106   4.463   4.054   6.358  0.0749 -0.8587 -0.8130
  116OSM    H3F12107   4.558   4.111   6.355 -0.2335 -0.3490 -0.9797
  116OSM    H3G12108   4.397   4.101   6.433 -1.0442 -1.5658 -1.3209
  116OSM    C4F12109   4.403   4.065   6.222 -0.3336 -0.0807  1.0410
  116OSM    H4F12110   4.398   4.173   6.200 -0.8440 -0.5857 -1.6595
  116OSM    H4G12111   4.297   4.032   6.228 -0.7593  0.9672 -0.3521
  116OSM    C5F12112   4.474   3.990   6.106 -0.0449  0.2010  0.0015
  116OSM    H5F12113   4.487   3.881   6.125  2.2844  0.6371  1.2674
  116OSM    H5G12114   4.578   4.030   6.103  0.1889 -0.4195 -1.0691
  116OSM    C6F12115   4.390   4.025   5.977 -0.3006  0.1560  0.7944
  116OSM    H6F12116   4.377   4.135   5.973  1.0651  0.2948 -1.0541
  116OSM    H6G12117   4.290   3.977   5.983 -1.3927  2.2793  0.5430
  116OSM    C7F12118   4.457   3.982   5.844  0.3467  0.9167  0.0720
  116OSM    H7F12119   4.504   3.883   5.857 -0.4555  0.3082 -1.3874
  116OSM    H7G12120   4.536   4.056   5.818  1.5702 -0.4510 -0.2173
  116OSM    C8F12121   4.354   3.972   5.724 -0.2332  0.3558  0.1073
  116OSM    H8F12122   4.377   4.072   5.681  0.5861  0.5485  0.9612
  116OSM    H8G12123   4.249   3.977   5.760  0.2524  1.0142  1.5131
  116OSM    C9F12124   4.373   3.864   5.620  0.4921  0.0442  0.4900
  116OSM    H9F12125   4.392   3.762   5.658  3.1619  0.4623  0.5155
  116OSM   C10F12126   4.391   3.875   5.488  0.0097  0.5797 -0.5890
  116OSM   H10F12127   4.404   3.782   5.431  0.6430  0.8844 -0.9538
  116OSM   C11F12128   4.398   4.001   5.410  0.4179  0.2678  0.1624
  116OSM   H11F12129   4.470   3.987   5.326  0.7366 -0.7627  0.5924
  116OSM   H11G12130   4.428   4.094   5.463 -3.4216  0.8534  1.6235
  116OSM   C12F12131   4.268   4.039   5.332  0.3318  0.1447  0.3785
  116OSM   H12F12132   4.284   4.131   5.271 -2.4030 -0.2620 -1.1211
  116OSM   H12G12133   4.192   4.061   5.410  1.1050  1.5212  0.7931
  116OSM   C13F12134   4.205   3.934   5.235  0.4991  0.6095  1.1207
  116OSM   H13F12135   4.107   3.957   5.188  0.7262  0.1103  0.3715
  116OSM   H13G12136   4.186   3.838   5.286 -3.4378  0.0569 -0.9486
  116OSM   C14F12137   4.300   3.901   5.112  0.4405 -0.0245 -1.0860
  116OSM   H14F12138   4.254   3.832   5.038  0.2098  0.0372 -1.0017
  116OSM   H14G12139   4.398   3.860   5.145  1.7600  3.9895  0.6242
  116OSM   C15F12140   4.327   4.026   5.035 -0.5022 -0.0817  0.4337
  116OSM   H15F12141   4.380   4.107   5.088  1.4510 -0.2731 -1.1269
  116OSM   H15G12142   4.234   4.069   4.991  0.4767  2.9240  1.0782
  116OSM   C16F12143   4.419   3.991   4.905  0.1767 -0.2457 -0.7044
  116OSM   H16F12144   4.439   4.090   4.859  2.5748  0.2624  1.2486
  116OSM   H16G12145   4.362   3.921   4.840  1.2007 -1.8276  0.0283
  116OSM   C17F12146   4.552   3.942   4.939 -0.2465  0.2206 -0.2254
  116OSM   H17F12147   4.607   3.922   4.845  1.8307 -0.4543  1.0636
  116OSM   H17G12148   4.548   3.844   4.992  2.3563 -0.5979 -1.3527
  116OSM   C18F12149   4.645   4.038   5.018 -0.9276 -0.5006  0.2568
  116OSM   H18F12150   4.734   3.985   5.057 -1.7101 -2.0134  0.0566
  116OSM   H18G12151   4.595   4.062   5.114  0.6145 -1.0658  1.2213
  116OSM   H18H12152   4.671   4.123   4.951  0.7985  0.2865  1.8495
  117OSM      N12153   1.557   0.633   6.894 -0.3275 -0.2004  0.0735
  117OSM    C1512154   1.488   0.587   6.772  0.4756  0.0892  0.0488
  117OSM   H15A12155   1.394   0.544   6.803  2.1265 -2.6853  1.6027
  117OSM   H15B12156   1.549   0.514   6.720 -0.2948  0.6674 -1.7340
  117OSM   H15C12157   1.474   0.661   6.695  0.5953 -0.4149 -0.4682
  117OSM    C1412158   1.459   0.732   6.965 -0.8529 -0.6054  0.0497
  117OSM   H14A12159   1.482   0.739   7.070 -0.0059  0.3325 -0.1826
  117OSM   H14B12160   1.361   0.688   6.973 -0.4358 -1.1533  3.2969
  117OSM   H14C12161   1.442   0.827   6.916 -2.0778 -1.4121 -1.1780
  117OSM    C1312162   1.590   0.515   6.986 -0.8508  0.4894  0.4661
  117OSM   H13A12163   1.661   0.451   6.936 -1.9475  0.2120 -0.7907
  117OSM   H13B12164   1.498   0.463   7.010  0.5182 -2.3928 -0.1019
  117OSM   H13C12165   1.640   0.541   7.079  0.5080  0.7384 -0.3070
  117OSM    C1212166   1.681   0.703   6.854 -0.1282  1.1685  0.5059
  117OSM   H12A12167   1.748   0.720   6.938 -0.0693  0.5432  0.5910
  117OSM   H12B12168   1.658   0.800   6.814  1.0606  0.9659 -0.7470
  117OSM    C1112169   1.768   0.630   6.752  0.4307 -0.5242 -0.0575
  117OSM   H11A12170   1.836   0.706   6.708  1.0286 -0.3786  1.0932
  117OSM   H11B12171   1.704   0.589   6.671 -1.4213  0.6321  0.7453
  117OSM      P12172   1.869   0.392   6.750  0.3699  0.3419  0.4708
  117OSM    O1312173   1.998   0.337   6.804 -0.4328  0.4025  0.3542
  117OSM    O1412174   1.747   0.306   6.765  0.3875  0.2979  0.2580
  117OSM    O1112175   1.883   0.428   6.597  0.5593 -0.1765 -0.3707
  117OSM    O1212176   1.837   0.529   6.822 -0.0805 -0.3739 -0.3892
  117OSM    C1S12177   1.991   0.511   6.549 -0.1523  0.7770  0.0790
  117OSM    H1S12178   2.087   0.467   6.584  0.4315  1.3538 -0.7415
  117OSM    H1T12179   1.992   0.614   6.591  1.9064 -0.0061  2.1305
  117OSM     NF12180   2.130   0.567   6.350 -0.1646 -0.1737  0.2503
  117OSM    HNF12181   2.144   0.666   6.356  1.9458 -0.3463 -0.9231
  117OSM    C2S12182   1.994   0.520   6.397 -0.1497 -0.3234  0.1446
  117OSM    H2S12183   1.970   0.420   6.354 -1.6260  0.2605 -0.4603
  117OSM    C3S12184   1.870   0.605   6.350 -0.3218 -0.2510 -0.2266
  117OSM    H3S12185   1.863   0.706   6.396  0.3985 -0.0677 -0.4929
  117OSM     O312186   1.751   0.548   6.396 -0.3917 -0.1170  0.1841
  117OSM    HO312187   1.782   0.503   6.474 -0.9888  0.5912  0.8488
  117OSM    C4S12188   1.869   0.630   6.198 -0.0923  0.0828  0.5528
  117OSM    H4S12189   1.899   0.547   6.134 -0.0108  0.9931 -0.6159
  117OSM    C5S12190   1.853   0.754   6.143  0.4731 -0.6376  0.5362
  117OSM    H5S12191   1.825   0.836   6.210  2.1627  1.4113 -1.1382
  117OSM    C6S12192   1.845   0.784   5.993 -0.6918 -0.0627  0.7303
  117OSM    H6S12193   1.931   0.747   5.935 -0.0148  0.7401  1.2054
  117OSM    H6T12194   1.841   0.894   5.983  0.9095 -0.0394  0.0591
  117OSM    C7S12195   1.724   0.707   5.931 -0.0986  0.2220  0.2985
  117OSM    H7S12196   1.635   0.732   5.993  0.2816  3.9133 -0.4048
  117OSM    H7T12197   1.743   0.598   5.944  1.6735  0.1476 -2.1301
  117OSM    C8S12198   1.683   0.754   5.793  0.0837  0.6843 -0.0719
  117OSM    H8S12199   1.649   0.858   5.778 -1.0425  0.0442 -2.5154
  117OSM    H8T12200   1.605   0.680   5.763  0.2958  0.1039  0.7616
  117OSM    C9S12201   1.802   0.743   5.697 -0.3039 -0.1185  0.4665
  117OSM    H9S12202   1.854   0.646   5.709 -0.8764 -0.4293  0.4700
  117OSM    H9T12203   1.876   0.820   5.729  1.3088  0.4673 -3.9263
  117OSM   C10S12204   1.769   0.786   5.556  0.3888  0.5429 -0.5379
  117OSM   H10S12205   1.864   0.825   5.512  3.4696 -0.7032  4.2402
  117OSM   H10T12206   1.698   0.870   5.566 -1.1606 -0.9550  2.1065
  117OSM   C11S12207   1.707   0.669   5.476  0.7782 -0.5488 -0.1659
  117OSM   H11S12208   1.607   0.631   5.507  0.4029 -1.0346 -1.8545
  117OSM   H11T12209   1.785   0.590   5.475  2.5897  1.1236 -2.6290
  117OSM   C12S12210   1.677   0.702   5.328 -0.4526 -0.4327 -0.6005
  117OSM   H12S12211   1.751   0.769   5.280 -0.6021 -0.0174 -0.2663
  117OSM   H12T12212   1.586   0.767   5.335  0.2918  0.5371  0.5891
  117OSM   C13S12213   1.659   0.575   5.247  0.1148  0.3814 -0.0437
  117OSM   H13S12214   1.574   0.510   5.279  1.2862 -1.2348 -0.1182
  117OSM   H13T12215   1.748   0.508   5.248 -1.4749 -1.8643  0.3331
  117OSM   C14S12216   1.641   0.605   5.095 -0.1151 -0.6068  0.6964
  117OSM   H14S12217   1.569   0.689   5.088 -0.3779 -0.8032  1.0320
  117OSM   H14T12218   1.575   0.529   5.048 -1.4315  1.2163 -0.5225
  117OSM   C15S12219   1.777   0.641   5.025  0.0425 -0.8215  1.3380
  117OSM   H15S12220   1.856   0.568   5.053  0.6959 -1.4029 -1.5909
  117OSM   H15T12221   1.816   0.742   5.051  0.6305 -0.5426 -0.4749
  117OSM   C16S12222   1.771   0.645   4.865  0.0574  0.7852 -0.5963
  117OSM   H16S12223   1.875   0.663   4.831  0.9886 -0.0089  1.6849
  117OSM   H16T12224   1.700   0.722   4.826 -0.6118 -0.1161 -1.2039
  117OSM   C17S12225   1.713   0.512   4.804 -0.1987  0.0269 -0.8945
  117OSM   H17S12226   1.604   0.517   4.822 -0.2369  3.5821 -1.4102
  117OSM   H17T12227   1.768   0.439   4.867 -1.3845 -0.4446 -0.3748
  117OSM   C18S12228   1.746   0.489   4.662  0.1896  0.5207  0.8463
  117OSM   H18S12229   1.688   0.403   4.621  0.4374  0.5913  0.3372
  117OSM   H18T12230   1.853   0.461   4.650 -0.0343 -0.4720  1.0749
  117OSM   H18U12231   1.724   0.573   4.592 -1.2426  0.5605  1.3265
  117OSM    C1F12232   2.248   0.491   6.351  0.4933  0.2879 -0.0683
  117OSM     OF12233   2.239   0.381   6.396  0.5299 -0.6345  0.1869
  117OSM    C2F12234   2.382   0.549   6.300  0.2734  0.0049 -0.1117
  117OSM    H2F12235   2.453   0.541   6.385 -0.1559 -1.3487  0.1426
  117OSM    H2G12236   2.380   0.655   6.265 -1.3193 -0.1147 -0.4516
  117OSM    C3F12237   2.442   0.470   6.193  0.8908  1.0955 -0.1979
  117OSM    H3F12238   2.476   0.367   6.216  0.0635  0.2587 -2.4495
  117OSM    H3G12239   2.530   0.528   6.157  0.7541  1.2272 -0.3203
  117OSM    C4F12240   2.350   0.467   6.071 -0.0564  0.1770  0.7107
  117OSM    H4F12241   2.311   0.569   6.052  0.3341  0.2053  0.0070
  117OSM    H4G12242   2.261   0.402   6.085 -0.2758 -0.1395 -1.7191
  117OSM    C5F12243   2.436   0.416   5.948 -0.6224  0.0811 -0.3071
  117OSM    H5F12244   2.433   0.305   5.956  0.4578  0.1176  0.9938
  117OSM    H5G12245   2.534   0.468   5.940  0.3598 -1.5034  0.7067
  117OSM    C6F12246   2.365   0.452   5.814 -0.1391 -1.2232 -0.8450
  117OSM    H6F12247   2.332   0.557   5.801  1.6120 -0.2998  1.4407
  117OSM    H6G12248   2.272   0.392   5.806 -0.5455 -0.7153 -0.0381
  117OSM    C7F12249   2.465   0.431   5.701 -0.3070 -0.0981  0.6946
  117OSM    H7F12250   2.459   0.327   5.662 -0.6986 -1.2174  3.5279
  117OSM    H7G12251   2.570   0.427   5.737 -1.0252  1.5985  3.2550
  117OSM    C8F12252   2.455   0.544   5.590 -0.0211  0.4594 -0.3562
  117OSM    H8F12253   2.546   0.543   5.526  0.3650 -0.9240  0.1670
  117OSM    H8G12254   2.454   0.645   5.636 -0.1229  0.9743 -1.4787
  117OSM    C9F12255   2.333   0.505   5.500  0.2263 -0.4734  0.1838
  117OSM    H9F12256   2.241   0.519   5.559  0.3089 -0.3340  0.2798
  117OSM   C10F12257   2.335   0.473   5.363 -1.0786  0.0078 -0.7450
  117OSM   H10F12258   2.242   0.462   5.306 -0.3432  1.4623 -2.3163
  117OSM   C11F12259   2.454   0.471   5.273  0.1353  0.1417  0.4118
  117OSM   H11F12260   2.480   0.370   5.233 -0.7204 -0.1167  0.4914
  117OSM   H11G12261   2.550   0.504   5.318  0.3171 -0.6569  0.6297
  117OSM   C12F12262   2.437   0.562   5.145  0.5949  0.5464 -0.4014
  117OSM   H12F12263   2.335   0.549   5.103  0.1328 -3.7049  1.4877
  117OSM   H12G12264   2.514   0.531   5.071  1.5952 -0.2034  0.9144
  117OSM   C13F12265   2.443   0.711   5.183  0.3756 -0.0813 -0.7815
  117OSM   H13F12266   2.550   0.721   5.211 -0.2281  0.3893  1.6399
  117OSM   H13G12267   2.375   0.741   5.266 -1.0689  0.3641 -2.0803
  117OSM   C14F12268   2.404   0.796   5.063 -0.1198 -0.2002 -0.0782
  117OSM   H14F12269   2.299   0.768   5.041  0.2327 -2.1663  0.5392
  117OSM   H14G12270   2.468   0.763   4.979  2.4441  1.0699  1.2518
  117OSM   C15F12271   2.412   0.951   5.092  0.0532 -0.1656  0.0142
  117OSM   H15F12272   2.509   0.985   5.133 -0.5592  3.0423 -0.9524
  117OSM   H15G12273   2.338   0.963   5.174 -0.4766 -2.7407 -0.0025
  117OSM   C16F12274   2.383   1.032   4.963  0.1415 -0.0048 -0.3941
  117OSM   H16F12275   2.288   1.004   4.913 -0.4569  3.3829 -1.4188
  117OSM   H16G12276   2.467   1.023   4.890  1.3665  0.2527  0.9343
  117OSM   C17F12277   2.367   1.183   4.993  0.1819 -0.3474  0.0006
  117OSM   H17F12278   2.464   1.212   5.039  0.4696 -1.3022  0.0297
  117OSM   H17G12279   2.276   1.205   5.053  1.1811  0.7614  1.1754
  117OSM   C18F12280   2.350   1.264   4.866 -0.0245  0.3404  0.9299
  117OSM   H18F12281   2.407   1.222   4.780  0.5669  2.6318  0.1109
  117OSM   H18G12282   2.372   1.372   4.885 -1.5757  0.9165 -0.3516
  117OSM   H18H12283   2.243   1.259   4.837 -0.4725 -0.7052  2.5973
  118OSM      N12284   3.142   6.843   6.806  0.6948  0.1759 -1.4082
  118OSM    C1512285   3.142   6.964   6.718  0.2026 -0.2276  0.1901
  118OSM   H15A12286   3.038   6.991   6.705  0.3296 -0.6885 -2.2158
  118OSM   H15B12287   3.186   6.943   6.622  0.1960  1.6757 -0.2571
  118OSM   H15C12288   3.203   7.048   6.749  0.2231 -0.0754 -0.2678
  118OSM    C1412289   3.075   6.873   6.933 -0.3799 -0.8039 -0.5723
  118OSM   H14A12290   3.140   6.941   6.985 -0.9661 -0.3298 -0.4583
  118OSM   H14B12291   3.039   6.795   7.000 -1.7597 -0.0458 -0.3848
  118OSM   H14C12292   2.992   6.938   6.910 -0.5170 -0.0983  1.7045
  118OSM    C1312293   3.074   6.739   6.734 -0.7993  0.8664  0.6170
  118OSM   H13A12294   3.078   6.644   6.784 -4.0949  0.5937  0.5782
  118OSM   H13B12295   3.120   6.734   6.636 -1.2603  2.4708  0.2738
  118OSM   H13C12296   2.970   6.761   6.714 -1.0298 -0.8298 -0.2793
  118OSM    C1212297   3.290   6.797   6.835 -0.0719 -0.1335 -0.2125
  118OSM   H12A12298   3.333   6.770   6.739  1.8306  3.0874 -0.4182
  118OSM   H12B12299   3.285   6.709   6.897 -1.0972 -0.6235 -0.9601
  118OSM    C1112300   3.381   6.901   6.899 -0.3061  0.1141 -0.2580
  118OSM   H11A12301   3.340   6.951   6.989 -0.0728 -0.9051  0.4286
  118OSM   H11B12302   3.390   6.984   6.825  0.3353  1.0706  0.8712
  118OSM      P12303   3.595   6.779   6.814  0.0776  0.0946  0.2343
  118OSM    O1312304   3.736   6.787   6.862 -0.4950  0.5514 -0.2263
  118OSM    O1412305   3.546   6.640   6.784 -0.6624  0.6188  0.1470
  118OSM    O1112306   3.579   6.878   6.693 -0.1985  0.1646  0.6155
  118OSM    O1212307   3.511   6.842   6.934  0.0070 -0.3221  0.3904
  118OSM    C1S12308   3.634   7.008   6.667  0.2682 -0.5793  0.0831
  118OSM    H1S12309   3.741   7.010   6.693  0.2940 -0.5136 -0.0263
  118OSM    H1T12310   3.585   7.088   6.727 -0.1059 -0.8105  0.0914
  118OSM     NF12311   3.691   7.147   6.468 -0.2883 -0.2267  0.1241
  118OSM    HNF12312   3.650   7.231   6.432  1.4202 -0.1712 -1.9095
  118OSM    C2S12313   3.609   7.037   6.521 -0.6818 -0.1352 -0.4405
  118OSM    H2S12314   3.637   6.944   6.466 -0.5095  0.9380 -2.2345
  118OSM    C3S12315   3.456   7.053   6.492 -0.3375  0.4084  0.4768
  118OSM    H3S12316   3.423   7.150   6.536  0.6315  0.5348  0.9578
  118OSM     O312317   3.364   6.955   6.542 -0.1399  0.4734  0.4713
  118OSM    HO312318   3.416   6.887   6.584  0.8701  0.8113 -0.1710
  118OSM    C4S12319   3.435   7.070   6.343  0.0042  0.0679 -0.0424
  118OSM    H4S12320   3.392   7.166   6.311  2.2604  0.6649 -1.5583
  118OSM    C5S12321   3.436   6.973   6.250  0.3010  0.3141 -0.2603
  118OSM    H5S12322   3.443   6.865   6.269 -1.1854 -0.4028 -3.1951
  118OSM    C6S12323   3.392   7.004   6.101  0.1066  0.2276  0.2262
  118OSM    H6S12324   3.389   7.114   6.085  1.5796  0.3436  0.6380
  118OSM    H6T12325   3.296   6.951   6.085  0.5328 -0.7452  0.7851
  118OSM    C7S12326   3.486   6.943   5.989 -0.2866  0.3694  0.4486
  118OSM    H7S12327   3.502   6.834   6.003 -2.1225 -0.3146 -2.0871
  118OSM    H7T12328   3.585   6.992   5.999  0.1865 -0.4063 -0.2443
  118OSM    C8S12329   3.439   6.955   5.844 -0.5468 -0.0403 -0.8307
  118OSM    H8S12330   3.419   7.062   5.818 -0.7409 -0.0060 -0.5442
  118OSM    H8T12331   3.342   6.902   5.832 -0.6002  0.0264 -0.6868
  118OSM    C9S12332   3.541   6.904   5.742  0.0579  0.1980  0.6478
  118OSM    H9S12333   3.549   6.795   5.760  1.3060  0.3016  0.7609
  118OSM    H9T12334   3.646   6.933   5.760  0.1414  0.3076 -0.0163
  118OSM   C10S12335   3.500   6.947   5.605  0.0663  0.5269  0.4117
  118OSM   H10S12336   3.543   7.049   5.591  0.5391 -0.0950 -3.9247
  118OSM   H10T12337   3.390   6.956   5.597  0.0213 -0.3377 -0.1194
  118OSM   C11S12338   3.569   6.861   5.496  0.1351  0.6201 -0.0865
  118OSM   H11S12339   3.565   6.755   5.530  0.4320  0.8319  0.6325
  118OSM   H11T12340   3.675   6.893   5.489  1.2906 -2.4973  1.1069
  118OSM   C12S12341   3.496   6.884   5.356  0.3777  0.4463 -0.5041
  118OSM   H12S12342   3.394   6.843   5.345  0.0824  1.7708 -3.8436
  118OSM   H12T12343   3.561   6.816   5.297 -0.2948 -1.3824  0.7849
  118OSM   C13S12344   3.485   7.031   5.323 -0.4106 -0.2850 -0.2841
  118OSM   H13S12345   3.574   7.097   5.327  0.0964 -0.9123 -1.0362
  118OSM   H13T12346   3.406   7.075   5.388 -0.6834 -2.0528  0.6172
  118OSM   C14S12347   3.438   7.064   5.180 -0.5060  0.7036  0.5569
  118OSM   H14S12348   3.512   7.026   5.106  0.0878  0.4635  1.2571
  118OSM   H14T12349   3.441   7.174   5.165 -0.5356  0.6793  0.3641
  118OSM   C15S12350   3.297   7.008   5.140 -0.1965 -0.3345 -0.1978
  118OSM   H15S12351   3.226   6.995   5.224 -1.5999  1.0853 -1.1094
  118OSM   H15T12352   3.313   6.900   5.116 -1.6782 -0.5789 -0.2267
  118OSM   C16S12353   3.230   7.068   5.018  0.0686 -0.4244 -0.0622
  118OSM   H16S12354   3.300   7.120   4.949  0.3663 -0.7160  0.0152
  118OSM   H16T12355   3.164   7.144   5.065  1.2021  1.9411 -2.0495
  118OSM   C17S12356   3.149   6.967   4.937  0.6623  0.3066  0.1021
  118OSM   H17S12357   3.061   7.025   4.901 -0.8502 -0.1573  2.7125
  118OSM   H17T12358   3.095   6.900   5.007 -2.5282  2.7628  0.2502
  118OSM   C18S12359   3.223   6.886   4.830  0.0115 -0.0519 -0.0526
  118OSM   H18S12360   3.149   6.821   4.779 -0.9893  1.4443 -0.5733
  118OSM   H18T12361   3.306   6.820   4.863  1.0746  1.6070  0.7203
  118OSM   H18U12362   3.261   6.958   4.755 -0.8002  1.0555  0.5681
  118OSM    C1F12363   3.819   7.129   6.443 -0.4048 -0.2349 -0.4927
  118OSM     OF12364   3.873   7.032   6.501  0.0694  0.0071  0.2471
  118OSM    C2F12365   3.888   7.246   6.381 -0.2542 -0.0562 -0.4742
  118OSM    H2F12366   3.946   7.278   6.471 -2.4803  0.2652  0.9309
  118OSM    H2G12367   3.821   7.328   6.347  2.2061  1.6292 -1.5179
  118OSM    C3F12368   3.984   7.191   6.268 -0.4596 -0.3678 -0.1362
  118OSM    H3F12369   4.056   7.109   6.288  0.7686  1.0812  1.6772
  118OSM    H3G12370   4.047   7.279   6.241 -1.1510  0.0097 -0.5644
  118OSM    C4F12371   3.917   7.158   6.134  0.0222 -0.1315  0.2415
  118OSM    H4F12372   3.861   7.241   6.086  1.5121 -1.2007 -3.6720
  118OSM    H4G12373   3.845   7.073   6.140 -0.3930  0.2659  1.2185
  118OSM    C5F12374   4.020   7.129   6.028  0.2554  0.1324 -0.6537
  118OSM    H5F12375   4.092   7.059   6.074  1.7416  2.3864  0.6506
  118OSM    H5G12376   4.086   7.212   5.991  1.9134 -0.0161  1.7627
  118OSM    C6F12377   3.951   7.058   5.907  0.0074  0.4247  0.1433
  118OSM    H6F12378   3.871   7.133   5.887 -1.6409 -0.7691  1.9705
  118OSM    H6G12379   3.904   6.961   5.934 -0.5720  1.0134  1.3089
  118OSM    C7F12380   4.047   7.036   5.788 -0.3959 -0.0547  0.2329
  118OSM    H7F12381   4.117   6.959   5.827 -0.0186 -0.5957 -1.4369
  118OSM    H7G12382   4.116   7.120   5.766 -0.1272 -0.0299  1.1300
  118OSM    C8F12383   3.973   6.989   5.658 -0.2575  0.6239 -0.1753
  118OSM    H8F12384   3.916   6.897   5.684  0.1435  1.0094  2.2965
  118OSM    H8G12385   4.045   6.947   5.585  0.3765 -0.3624  0.9713
  118OSM    C9F12386   3.870   7.077   5.594 -0.0667  0.1229 -0.9640
  118OSM    H9F12387   3.797   7.118   5.666  0.9366 -1.0779  0.7869
  118OSM   C10F12388   3.869   7.129   5.472  0.0012  0.2549 -0.5100
  118OSM   H10F12389   3.781   7.190   5.445 -0.7300 -1.3084 -1.8376
  118OSM   C11F12390   3.973   7.101   5.370 -0.9135  0.0557 -0.4882
  118OSM   H11F12391   4.058   7.056   5.426  0.3760  1.8266 -0.9160
  118OSM   H11G12392   4.023   7.189   5.322 -1.9367  1.3160  0.7019
  118OSM   C12F12393   3.928   6.990   5.275 -0.0825 -0.2228 -0.2301
  118OSM   H12F12394   3.830   7.020   5.232 -1.3915 -0.1157  2.6195
  118OSM   H12G12395   3.913   6.899   5.337 -0.2854  1.5527  2.4826
  118OSM   C13F12396   4.036   6.960   5.164  0.4827 -0.3826 -0.4408
  118OSM   H13F12397   4.137   6.978   5.207  0.5584 -1.1423 -0.2931
  118OSM   H13G12398   4.020   7.032   5.081  0.4217 -0.1161 -0.2003
  118OSM   C14F12399   4.014   6.807   5.124 -0.0502  0.1067 -0.4178
  118OSM   H14F12400   3.910   6.782   5.095 -0.2973 -0.2536  0.7590
  118OSM   H14G12401   4.029   6.756   5.221 -0.3997 -0.1620 -0.5019
  118OSM   C15F12402   4.125   6.765   5.033 -0.5050 -0.1402 -0.0966
  118OSM   H15F12403   4.222   6.778   5.086 -2.1728  0.3270  3.0928
  118OSM   H15G12404   4.122   6.815   4.933 -2.0391 -1.3529 -0.6940
  118OSM   C16F12405   4.121   6.625   4.982  0.3665 -0.3240 -0.6731
  118OSM   H16F12406   4.017   6.590   4.968  0.4184 -0.4227 -0.8141
  118OSM   H16G12407   4.159   6.582   5.077 -2.5917  0.1787  0.8554
  118OSM   C17F12408   4.216   6.597   4.863  0.6264 -0.1813 -0.5719
  118OSM   H17F12409   4.246   6.493   4.887 -0.4484 -0.6311 -1.0782
  118OSM   H17G12410   4.304   6.663   4.874 -1.3099  2.4891 -0.2810
  118OSM   C18F12411   4.140   6.606   4.736  0.1068 -0.0777 -0.4283
  118OSM   H18F12412   4.201   6.553   4.660  2.3223  0.1880  1.0774
  118OSM   H18G12413   4.124   6.712   4.707 -0.7091 -0.4394 -1.3481
  118OSM   H18H12414   4.043   6.552   4.736 -0.8540  1.5705 -0.3419
  119OSM      N12415   6.856   2.217   6.768  0.3575  0.6662 -0.5476
  119OSM    C1512416   6.917   2.327   6.687  0.7145 -0.3116 -0.3664
  119OSM   H15A12417   6.929   2.420   6.741  0.6051 -0.0609 -0.7710
  119OSM   H15B12418   6.858   2.348   6.599  1.0419 -0.8749 -0.7321
  119OSM   H15C12419   7.018   2.303   6.657 -0.0066 -2.5547 -1.2045
  119OSM    C1412420   6.920   2.192   6.896  0.0401 -0.2266  0.0743
  119OSM   H14A12421   6.929   2.289   6.943  0.3970  0.0303 -0.5163
  119OSM   H14B12422   7.017   2.152   6.870 -0.1310 -0.0645 -0.8332
  119OSM   H14C12423   6.854   2.134   6.959 -2.9379  1.2981 -1.4600
  119OSM    C1312424   6.715   2.264   6.799 -0.3367  0.0028 -0.3888
  119OSM   H13A12425   6.664   2.291   6.708  0.5025 -0.9498 -1.1597
  119OSM   H13B12426   6.719   2.347   6.869  1.3416 -1.2541  1.0867
  119OSM   H13C12427   6.656   2.183   6.840 -0.4395 -0.5794 -1.6390
  119OSM    C1212428   6.861   2.088   6.686  0.0090  0.0021 -0.2872
  119OSM   H12A12429   6.776   2.098   6.620  1.2079 -0.6952 -2.0063
  119OSM   H12B12430   6.839   2.004   6.749  0.7488  0.9488  1.2983
  119OSM    C1112431   6.984   2.055   6.599  0.2353 -0.5214  0.1757
  119OSM   H11A12432   6.996   2.136   6.524  0.3446  0.3058  1.0709
  119OSM   H11B12433   6.965   1.971   6.529  1.4519  0.1916 -1.0499
  119OSM      P12434   7.239   2.086   6.659  0.0239 -0.4161  0.1316
  119OSM    O1312435   7.242   2.214   6.579 -0.2473  0.2703 -0.2078
  119OSM    O1412436   7.316   2.096   6.787 -0.3218  0.0420  0.6006
  119OSM    O1112437   7.307   1.975   6.570 -0.0314 -0.5063  0.0898
  119OSM    O1212438   7.091   2.042   6.689 -0.6401 -0.6652  0.2783
  119OSM    C1S12439   7.250   1.912   6.457  0.1618 -0.7934  0.5757
  119OSM    H1S12440   7.158   1.966   6.426  0.9288  0.0609 -0.2678
  119OSM    H1T12441   7.240   1.803   6.474 -1.3430 -0.6456  0.7712
  119OSM     NF12442   7.275   1.894   6.207 -0.1893 -0.1490 -0.5208
  119OSM    HNF12443   7.282   1.802   6.169 -0.3423 -0.5302  0.3588
  119OSM    C2S12444   7.345   1.923   6.330  0.3672 -0.5669 -0.5407
  119OSM    H2S12445   7.376   2.029   6.331 -0.1895 -0.3983 -0.7084
  119OSM    C3S12446   7.463   1.825   6.347  0.1693 -0.5220 -0.5953
  119OSM    H3S12447   7.426   1.722   6.366 -1.4726  0.1855  0.1885
  119OSM     O312448   7.533   1.847   6.473 -0.0191  0.0219 -0.3503
  119OSM    HO312449   7.464   1.895   6.520 -1.0191 -0.8786 -0.8811
  119OSM    C4S12450   7.561   1.826   6.229  0.1199  0.0156 -0.1735
  119OSM    H4S12451   7.542   1.747   6.156  0.0760 -0.8367  0.7359
  119OSM    C5S12452   7.653   1.918   6.204 -0.2969  0.2089  0.4197
  119OSM    H5S12453   7.652   2.009   6.266  0.3261  0.8588 -0.5021
  119OSM    C6S12454   7.736   1.903   6.081  0.0834  0.3488 -0.2686
  119OSM    H6S12455   7.759   1.796   6.062 -0.6347 -0.2612  1.9980
  119OSM    H6T12456   7.830   1.956   6.108 -0.0003  0.2011  0.3263
  119OSM    C7S12457   7.653   1.962   5.959 -0.4463 -0.4455 -0.0378
  119OSM    H7S12458   7.730   1.987   5.884 -0.4965  1.5591  0.5384
  119OSM    H7T12459   7.603   2.059   5.980 -0.3936 -0.4951  0.3243
  119OSM    C8S12460   7.549   1.861   5.899  0.1428 -0.7536 -0.3027
  119OSM    H8S12461   7.449   1.876   5.946 -1.1960 -1.1241 -2.8526
  119OSM    H8T12462   7.582   1.763   5.939  1.4607 -0.4868 -0.6763
  119OSM    C9S12463   7.548   1.857   5.749 -0.4060  0.1317 -0.0582
  119OSM    H9S12464   7.650   1.836   5.712  0.2311  2.1817  0.3955
  119OSM    H9T12465   7.519   1.958   5.712  2.1966  0.6839 -0.7478
  119OSM   C10S12466   7.459   1.751   5.689 -0.6091 -0.2540 -0.3000
  119OSM   H10S12467   7.469   1.757   5.579 -1.2310  0.2828 -0.3362
  119OSM   H10T12468   7.351   1.776   5.698 -0.6595 -0.1726 -1.0995
  119OSM   C11S12469   7.497   1.613   5.744  0.1716 -0.2403 -0.4181
  119OSM   H11S12470   7.482   1.597   5.853 -1.2964  0.1209 -0.5407
  119OSM   H11T12471   7.607   1.606   5.733  0.2490  0.7644 -0.3096
  119OSM   C12S12472   7.425   1.497   5.670  0.3692  0.0272 -0.5264
  119OSM   H12S12473   7.425   1.510   5.560 -0.0828  1.3913 -0.3926
  119OSM   H12T12474   7.318   1.504   5.701  0.2441 -1.5891 -0.5382
  119OSM   C13S12475   7.478   1.360   5.709 -1.1485  0.9216  0.0856
  119OSM   H13S12476   7.587   1.375   5.695 -0.2517 -3.5719  0.5411
  119OSM   H13T12477   7.453   1.281   5.634  2.1958 -1.7242  1.4680
  119OSM   C14S12478   7.452   1.333   5.858  0.4525 -0.0661 -0.5003
  119OSM   H14S12479   7.344   1.337   5.883  0.8757 -0.5138  1.5492
  119OSM   H14T12480   7.498   1.410   5.924 -0.0335  1.3387 -1.7461
  119OSM   C15S12481   7.492   1.182   5.888 -0.4259 -0.9576 -0.3201
  119OSM   H15S12482   7.603   1.184   5.887 -0.3182  3.4425  0.2858
  119OSM   H15T12483   7.455   1.113   5.810 -1.2013  0.5064 -1.2900
  119OSM   C16S12484   7.440   1.130   6.021 -0.8428 -0.5007  0.2926
  119OSM   H16S12485   7.477   1.185   6.109  0.8061  1.0617 -1.3081
  119OSM   H16T12486   7.466   1.022   6.035 -2.1127 -0.8606  0.0247
  119OSM   C17S12487   7.290   1.137   6.036  0.4796  0.4187  0.6240
  119OSM   H17S12488   7.235   1.143   5.940 -2.5251  0.4772  2.2340
  119OSM   H17T12489   7.264   1.226   6.098 -1.6118 -0.1427  0.6301
  119OSM   C18S12490   7.238   1.014   6.108 -0.1934  0.1918 -0.6115
  119OSM   H18S12491   7.300   0.985   6.196 -1.2725 -1.8134 -0.4408
  119OSM   H18T12492   7.237   0.924   6.042  2.5349 -0.1153 -0.3482
  119OSM   H18U12493   7.140   1.039   6.154  0.4251  2.5120 -0.4248
  119OSM    C1F12494   7.188   1.972   6.155  0.3766 -0.5050  0.1530
  119OSM     OF12495   7.140   2.065   6.215 -0.2730  0.4289 -0.7183
  119OSM    C2F12496   7.140   1.927   6.018  0.9690 -0.8992 -0.4177
  119OSM    H2F12497   7.104   1.823   6.029  2.2583 -1.4250 -0.9163
  119OSM    H2G12498   7.227   1.925   5.949  2.9510 -1.2430  1.9086
  119OSM    C3F12499   7.029   2.015   5.953 -1.0260  0.4622  0.0873
  119OSM    H3F12500   7.080   2.112   5.936  0.5359 -0.2282  0.6693
  119OSM    H3G12501   6.944   2.030   6.024 -0.3144  0.7850  0.8926
  119OSM    C4F12502   6.983   1.957   5.822  0.2773 -0.7247  0.1322
  119OSM    H4F12503   6.935   2.038   5.762  2.9007 -0.9012 -2.4143
  119OSM    H4G12504   6.906   1.879   5.843  0.2490 -2.0002 -3.8419
  119OSM    C5F12505   7.085   1.885   5.729  0.3840 -0.1025 -0.2838
  119OSM    H5F12506   7.115   1.797   5.791  2.1298 -0.7765 -1.9893
  119OSM    H5G12507   7.174   1.948   5.704  0.1638 -0.1876 -1.3152
  119OSM    C6F12508   7.031   1.845   5.589  0.2335 -0.0069  0.3727
  119OSM    H6F12509   6.930   1.801   5.603 -0.0148  0.5890  0.5063
  119OSM    H6G12510   7.101   1.778   5.535 -0.0216 -0.0402  0.0752
  119OSM    C7F12511   7.017   1.968   5.496 -0.5267  0.4603 -0.5876
  119OSM    H7F12512   7.114   2.018   5.476  0.4158 -0.9061  0.3652
  119OSM    H7G12513   6.955   2.052   5.535  0.4437  0.3546  1.2569
  119OSM    C8F12514   6.948   1.934   5.357  0.1360  0.2764 -0.7692
  119OSM    H8F12515   6.861   1.871   5.384  1.9779 -3.1243 -2.1771
  119OSM    H8G12516   7.023   1.877   5.298 -0.0340  0.3609 -1.0675
  119OSM    C9F12517   6.892   2.055   5.288 -0.1657  0.3860  0.4295
  119OSM    H9F12518   6.816   2.109   5.347 -1.7556  0.2886 -1.4221
  119OSM   C10F12519   6.915   2.091   5.162 -0.1357  0.2592  0.4187
  119OSM   H10F12520   6.873   2.184   5.119  1.1438  0.6890  0.0337
  119OSM   C11F12521   7.013   2.023   5.068 -0.1811  0.0204  0.0268
  119OSM   H11F12522   6.977   1.929   5.021 -0.9455 -1.5060  3.3834
  119OSM   H11G12523   7.095   1.976   5.127 -0.7740 -3.0658 -1.4476
  119OSM   C12F12524   7.075   2.133   4.968  0.3604  0.8567 -0.3782
  119OSM   H12F12525   7.168   2.081   4.937 -0.2831 -1.2326  0.9785
  119OSM   H12G12526   7.100   2.228   5.021  1.0870  0.7186 -0.4670
  119OSM   C13F12527   6.989   2.165   4.841 -0.6248 -0.0317 -0.0714
  119OSM   H13F12528   6.902   2.225   4.874 -0.7103 -0.5426  0.6361
  119OSM   H13G12529   6.958   2.067   4.799 -1.7618  0.2456  0.1011
  119OSM   C14F12530   7.077   2.225   4.731 -0.7244 -0.3165 -0.7148
  119OSM   H14F12531   7.032   2.191   4.636  1.4072  0.4093 -2.0692
  119OSM   H14G12532   7.175   2.171   4.728  0.2327  1.3264 -0.4218
  119OSM   C15F12533   7.096   2.380   4.735 -0.3403  0.1001 -0.2139
  119OSM   H15F12534   7.182   2.403   4.802 -2.8299  2.7575  2.3456
  119OSM   H15G12535   7.005   2.421   4.783 -0.5292 -1.9272  1.3050
  119OSM   C16F12536   7.109   2.442   4.602  0.1324  0.4161  0.4930
  119OSM   H16F12537   7.012   2.422   4.552  1.1939 -1.2367 -1.0241
  119OSM   H16G12538   7.182   2.387   4.537 -1.5589 -0.5090 -0.6982
  119OSM   C17F12539   7.152   2.594   4.592 -0.3084  0.3621  0.3862
  119OSM   H17F12540   7.247   2.617   4.645  0.5596  0.1410 -1.0288
  119OSM   H17G12541   7.081   2.659   4.647  0.8357  1.1406  0.9924
  119OSM   C18F12542   7.162   2.633   4.443  0.0021 -0.5146 -0.1881
  119OSM   H18F12543   7.162   2.743   4.427 -1.3304 -0.3900  0.4581
  119OSM   H18G12544   7.086   2.594   4.373  0.9223 -0.3903 -1.2713
  119OSM   H18H12545   7.254   2.590   4.399  0.7821 -0.0783  0.9436
  120OSM      N12546   2.267   0.731   7.051 -0.0651 -0.0433 -0.0927
  120OSM    C1512547   2.315   0.867   7.093 -0.2219  0.4397 -0.0699
  120OSM   H15A12548   2.401   0.863   7.159  0.8864 -3.5590 -1.4410
  120OSM   H15B12549   2.239   0.922   7.146  0.3366  1.6840 -0.5264
  120OSM   H15C12550   2.342   0.927   7.007  0.5010  0.7446  0.3585
  120OSM    C1412551   2.389   0.666   6.982  0.4017 -0.3634  0.3992
  120OSM   H14A12552   2.439   0.737   6.918  0.5857 -2.9118 -2.5137
  120OSM   H14B12553   2.355   0.583   6.922 -2.2099  0.4033  0.6993
  120OSM   H14C12554   2.463   0.631   7.052 -0.7289 -1.7420  0.9567
  120OSM    C1312555   2.226   0.640   7.159 -0.4794 -0.1898 -0.1901
  120OSM   H13A12556   2.232   0.540   7.118  2.8957  0.5192 -1.7388
  120OSM   H13B12557   2.128   0.657   7.201  0.6319 -0.2058  2.6517
  120OSM   H13C12558   2.300   0.645   7.237  0.1287  0.5106 -0.7980
  120OSM    C1212559   2.158   0.742   6.952 -0.3246  0.2970 -0.1988
  120OSM   H12A12560   2.070   0.793   6.988  0.5878  0.6547  1.6288
  120OSM   H12B12561   2.118   0.651   6.909 -0.8392  1.2278 -1.8044
  120OSM    C1112562   2.198   0.814   6.817 -0.5945  0.1995 -0.6131
  120OSM   H11A12563   2.106   0.801   6.756  0.3364 -0.4495 -1.9220
  120OSM   H11B12564   2.275   0.758   6.760 -0.9649 -1.5132  0.4832
  120OSM      P12565   2.094   1.045   6.847 -0.2881 -0.5033  0.2363
  120OSM    O1312566   2.019   0.999   6.963 -0.2770  0.1071 -0.1589
  120OSM    O1412567   2.135   1.189   6.846  0.4502  0.2510  0.6813
  120OSM    O1112568   2.009   1.023   6.713 -0.3648 -0.5767 -0.3240
  120OSM    O1212569   2.225   0.951   6.832  0.0146  0.9089 -0.1617
  120OSM    C1S12570   2.067   1.040   6.581 -0.6838  0.5571  1.2800
  120OSM    H1S12571   2.153   0.973   6.560 -1.6362  0.1532 -1.9839
  120OSM    H1T12572   2.112   1.140   6.564 -2.4245  1.0797 -0.7738
  120OSM     NF12573   2.017   1.044   6.335 -0.1485 -0.1267  0.3080
  120OSM    HNF12574   1.995   1.121   6.275  2.5208  1.4573  1.2213
  120OSM    C2S12575   1.960   1.027   6.468  0.0796 -0.4932 -0.2481
  120OSM    H2S12576   1.908   0.929   6.470 -0.7144 -0.1480 -1.9112
  120OSM    C3S12577   1.842   1.133   6.493  0.1615  0.0799  0.4903
  120OSM    H3S12578   1.877   1.234   6.464  1.6885 -0.5099  0.1997
  120OSM     O312579   1.789   1.129   6.624  0.4926  0.0828  0.0666
  120OSM    HO312580   1.849   1.065   6.663 -1.5835  0.3151  4.1884
  120OSM    C4S12581   1.726   1.104   6.397  0.0057 -0.1280 -0.3707
  120OSM    H4S12582   1.700   1.185   6.327  0.5182  0.5877  0.2527
  120OSM    C5S12583   1.643   0.996   6.404 -0.0878 -0.4451  0.0851
  120OSM    H5S12584   1.650   0.921   6.484  1.3827 -0.2053  0.1982
  120OSM    C6S12585   1.513   0.988   6.324 -0.3556  0.5002  0.3306
  120OSM    H6S12586   1.453   1.075   6.359  0.5503  1.8823 -1.3570
  120OSM    H6T12587   1.462   0.891   6.345 -2.0781  1.7956  2.6799
  120OSM    C7S12588   1.539   1.006   6.171 -0.1817 -0.1124  0.3139
  120OSM    H7S12589   1.607   0.926   6.136 -1.8474 -1.6578  0.4478
  120OSM    H7T12590   1.595   1.102   6.169  0.0756 -0.2622  0.2972
  120OSM    C8S12591   1.408   1.002   6.096 -0.2226  0.2116  0.8579
  120OSM    H8S12592   1.343   1.089   6.117 -1.3210  0.4797 -2.8589
  120OSM    H8T12593   1.348   0.911   6.120  0.9857 -0.6798  0.6352
  120OSM    C9S12594   1.442   0.998   5.938 -0.6876  0.2203  0.0340
  120OSM    H9S12595   1.484   0.900   5.908 -0.7454 -0.6547  2.5162
  120OSM    H9T12596   1.507   1.086   5.921 -1.8396  1.3130  1.0919
  120OSM   C10S12597   1.317   0.992   5.846 -0.1634  0.1438 -0.8068
  120OSM   H10S12598   1.262   1.088   5.848 -1.2756 -0.4873  0.4465
  120OSM   H10T12599   1.258   0.910   5.892  1.9345 -0.2547  1.4415
  120OSM   C11S12600   1.346   0.944   5.699  0.5161  0.0291  0.2871
  120OSM   H11S12601   1.241   0.944   5.663  0.7442 -2.0499 -0.5641
  120OSM   H11T12602   1.384   0.839   5.693  0.4957 -0.1191  2.2992
  120OSM   C12S12603   1.436   1.039   5.620 -0.2487  0.0510  0.1074
  120OSM   H12S12604   1.539   1.050   5.660 -0.2364 -1.3624  0.5486
  120OSM   H12T12605   1.394   1.140   5.604 -1.2235 -0.0049  1.9783
  120OSM   C13S12606   1.441   0.995   5.469  0.7129  0.9305 -0.3805
  120OSM   H13S12607   1.459   0.886   5.471  0.1162  0.8360  0.1730
  120OSM   H13T12608   1.532   1.044   5.426  0.7146 -1.5990 -3.6106
  120OSM   C14S12609   1.316   1.040   5.392  0.2557 -0.1109 -0.3538
  120OSM   H14S12610   1.307   1.150   5.409  1.8322 -0.0021 -0.0695
  120OSM   H14T12611   1.224   0.988   5.427 -0.1140 -0.7970 -2.2381
  120OSM   C15S12612   1.324   1.019   5.242  0.0865 -0.2764 -0.2339
  120OSM   H15S12613   1.326   0.913   5.209 -0.7915 -0.4842  0.3592
  120OSM   H15T12614   1.420   1.066   5.210 -0.2282 -0.1759 -1.0463
  120OSM   C16S12615   1.204   1.085   5.163 -0.4241  0.3898  0.2385
  120OSM   H16S12616   1.195   1.194   5.182  0.0811  0.4622  0.0923
  120OSM   H16T12617   1.114   1.043   5.213  0.0325 -0.5856  0.2633
  120OSM   C17S12618   1.205   1.070   5.016  0.4348  0.0945  0.3629
  120OSM   H17S12619   1.289   1.126   4.970  0.5359  0.3701  0.8757
  120OSM   H17T12620   1.108   1.110   4.980  0.5801 -0.3791 -0.5870
  120OSM   C18S12621   1.227   0.924   4.969  0.3982  0.6377  0.3170
  120OSM   H18S12622   1.181   0.843   5.028  1.0918  0.3615  0.4847
  120OSM   H18T12623   1.331   0.898   4.939 -0.0233 -0.8009  0.0256
  120OSM   H18U12624   1.170   0.908   4.875 -0.3191  0.8120  0.7166
  120OSM    C1F12625   2.103   0.949   6.293 -0.0446 -0.2391  0.8719
  120OSM     OF12626   2.131   0.848   6.364 -1.4087  0.1295 -0.0604
  120OSM    C2F12627   2.153   0.961   6.146  0.3952 -0.3081 -0.3733
  120OSM    H2F12628   2.192   1.064   6.137  1.3692 -0.5193  1.1450
  120OSM    H2G12629   2.061   0.946   6.085 -1.0697  0.8617  1.4562
  120OSM    C3F12630   2.253   0.860   6.112 -0.6551  0.2825 -0.3559
  120OSM    H3F12631   2.238   0.756   6.148  0.4768  0.9228  2.1100
  120OSM    H3G12632   2.344   0.880   6.172 -0.5881  0.7548 -0.6052
  120OSM    C4F12633   2.311   0.863   5.967  0.0649  0.7416 -0.6846
  120OSM    H4F12634   2.403   0.800   5.961 -0.8164 -0.6684  0.1203
  120OSM    H4G12635   2.336   0.969   5.949  0.3295  1.1851  1.9586
  120OSM    C5F12636   2.201   0.827   5.866  0.2108  0.9020 -0.6073
  120OSM    H5F12637   2.111   0.886   5.892 -1.5106 -0.3430 -3.2691
  120OSM    H5G12638   2.176   0.718   5.871  2.6068  0.1214 -3.1512
  120OSM    C6F12639   2.233   0.834   5.717 -0.9103 -0.0328  0.4757
  120OSM    H6F12640   2.192   0.749   5.660  0.1874 -0.0017 -0.3754
  120OSM    H6G12641   2.343   0.850   5.709 -0.9694 -0.5952 -3.4265
  120OSM    C7F12642   2.161   0.959   5.663 -0.1254 -0.0487  0.2740
  120OSM    H7F12643   2.205   1.047   5.715 -1.4631  0.4703  0.5680
  120OSM    H7G12644   2.055   0.958   5.697  0.3036 -1.9499  1.7502
  120OSM    C8F12645   2.173   0.988   5.514  0.0346 -0.5665 -0.1207
  120OSM    H8F12646   2.136   0.899   5.459 -0.9225  0.6465 -1.5376
  120OSM    H8G12647   2.278   1.018   5.497 -0.8441  4.5282  1.5616
  120OSM    C9F12648   2.088   1.115   5.471 -0.5718  0.7483 -0.1743
  120OSM    H9F12649   1.985   1.102   5.436 -0.6836 -0.3993  0.5191
  120OSM   C10F12650   2.134   1.239   5.453  0.2156 -0.4208 -0.6019
  120OSM   H10F12651   2.060   1.313   5.420  0.4241 -0.7141 -1.7722
  120OSM   C11F12652   2.275   1.294   5.484 -0.0124 -0.7906  0.4122
  120OSM   H11F12653   2.325   1.237   5.566  2.7779  2.6968  1.3470
  120OSM   H11G12654   2.261   1.400   5.514 -1.0301 -1.0043  0.7448
  120OSM   C12F12655   2.372   1.288   5.366 -0.5523  0.1709 -0.3355
  120OSM   H12F12656   2.335   1.329   5.270  2.8001  0.9581 -1.4226
  120OSM   H12G12657   2.398   1.183   5.338  0.1610  0.2370  0.0427
  120OSM   C13F12658   2.498   1.361   5.397 -0.4324 -0.4336  0.3919
  120OSM   H13F12659   2.534   1.320   5.494 -1.7339 -1.2105  0.5615
  120OSM   H13G12660   2.474   1.470   5.398 -4.2025 -1.1191 -0.5004
  120OSM   C14F12661   2.602   1.330   5.279  0.0992  0.3542 -1.1792
  120OSM   H14F12662   2.553   1.365   5.185  1.5151  0.7457 -1.8034
  120OSM   H14G12663   2.636   1.224   5.272 -2.3720 -0.4769 -1.4230
  120OSM   C15F12664   2.727   1.423   5.275 -0.0734 -0.8964 -0.1810
  120OSM   H15F12665   2.784   1.404   5.369  0.1028 -1.2707 -0.3589
  120OSM   H15G12666   2.711   1.532   5.270  1.5068 -0.6374  0.0063
  120OSM   C16F12667   2.810   1.390   5.153 -0.2661  0.6760 -0.5656
  120OSM   H16F12668   2.842   1.283   5.160  0.5729  0.8259 -1.8218
  120OSM   H16G12669   2.905   1.446   5.151  0.2219 -0.0804  0.3566
  120OSM   C17F12670   2.746   1.426   5.025 -0.0986 -0.3811 -0.4787
  120OSM   H17F12671   2.725   1.535   5.036  0.3070 -0.4187  0.7357
  120OSM   H17G12672   2.648   1.378   5.001 -0.0301  0.1610 -1.9860
  120OSM   C18F12673   2.830   1.392   4.898 -0.0654 -0.4491 -0.0719
  120OSM   H18F12674   2.854   1.284   4.897  1.3742 -0.1813  1.0627
  120OSM   H18G12675   2.922   1.454   4.913 -0.4734 -0.1611  1.3644
  120OSM   H18H12676   2.777   1.421   4.805  1.7547  0.8158 -0.8011
  121OSM      N12677   1.568   5.591   7.395  0.6909  1.0374  0.8682
  121OSM    C1512678   1.494   5.720   7.415  0.0223  0.0883  0.3477
  121OSM   H15A12679   1.394   5.718   7.375 -0.5755 -0.4136  1.8111
  121OSM   H15B12680   1.545   5.808   7.378 -2.2383  1.6407  0.7457
  121OSM   H15C12681   1.492   5.743   7.520 -0.3853 -2.1295  0.8894
  121OSM    C1412682   1.714   5.621   7.449  0.1652 -0.2266  0.4348
  121OSM   H14A12683   1.746   5.714   7.403 -0.7136 -0.2811 -0.3017
  121OSM   H14B12684   1.775   5.534   7.431 -1.3249 -0.7770 -2.5541
  121OSM   H14C12685   1.711   5.652   7.552 -0.2287  0.2267  0.2878
  121OSM    C1312686   1.497   5.490   7.484  0.5024  0.0876  0.4375
  121OSM   H13A12687   1.557   5.402   7.500  0.5836 -0.2189 -1.3675
  121OSM   H13B12688   1.409   5.454   7.433 -0.1899  0.3566  1.4249
  121OSM   H13C12689   1.465   5.539   7.575 -2.1467  0.0161 -0.3836
  121OSM    C1212690   1.558   5.542   7.252 -0.3619  0.4031  0.6566
  121OSM   H12A12691   1.593   5.617   7.182 -0.5069  1.0825  1.2972
  121OSM   H12B12692   1.457   5.510   7.234 -0.5801  0.6975  1.3133
  121OSM    C1112693   1.647   5.423   7.212  0.1612  0.2788  0.2529
  121OSM   H11A12694   1.623   5.385   7.111  0.6026 -1.3709  0.7335
  121OSM   H11B12695   1.624   5.341   7.283  0.2815  0.7716  0.8703
  121OSM      P12696   1.879   5.525   7.125 -0.2120  0.2067 -0.3436
  121OSM    O1312697   1.871   5.670   7.161  0.1312  0.0040  0.0234
  121OSM    O1412698   2.011   5.461   7.110  0.1591  0.4409  0.4153
  121OSM    O1112699   1.797   5.492   6.990  0.5122  0.3502 -0.1643
  121OSM    O1212700   1.782   5.453   7.231 -0.6013  0.0186 -0.0350
  121OSM    C1S12701   1.773   5.605   6.899  0.3790  0.4683 -0.1244
  121OSM    H1S12702   1.854   5.682   6.899 -0.6826  1.6183 -0.3787
  121OSM    H1T12703   1.673   5.650   6.916  0.5197  0.8574 -0.3244
  121OSM     NF12704   1.677   5.673   6.659 -0.3226  0.2227 -0.4342
  121OSM    HNF12705   1.582   5.659   6.632 -1.3624  1.8031  1.9959
  121OSM    C2S12706   1.740   5.568   6.747  0.0397  0.7352  0.1813
  121OSM    H2S12707   1.842   5.546   6.709 -0.4811 -0.7892 -0.4214
  121OSM    C3S12708   1.668   5.428   6.729  0.3687 -0.2284 -0.1683
  121OSM    H3S12709   1.564   5.457   6.755  0.8245  1.4363 -0.1059
  121OSM     O312710   1.702   5.324   6.820 -0.4820 -0.0941  0.1590
  121OSM    HO312711   1.753   5.374   6.884 -0.1566  1.0730 -0.9577
  121OSM    C4S12712   1.669   5.385   6.579 -1.4169 -0.0001 -0.8049
  121OSM    H4S12713   1.589   5.428   6.516 -2.0458 -1.7087 -1.2081
  121OSM    C5S12714   1.755   5.297   6.522 -0.2345  0.2930  0.1294
  121OSM    H5S12715   1.835   5.251   6.583 -0.8559  0.0284  0.7617
  121OSM    C6S12716   1.752   5.265   6.371 -0.0416 -0.1137  0.1092
  121OSM    H6S12717   1.729   5.157   6.359 -1.0642  0.3699 -4.0194
  121OSM    H6T12718   1.860   5.262   6.345  0.0038 -0.7365  0.3655
  121OSM    C7S12719   1.668   5.352   6.279  0.1065 -0.1709 -0.0398
  121OSM    H7S12720   1.691   5.458   6.300  1.5071  0.1951 -3.0061
  121OSM    H7T12721   1.562   5.328   6.305 -0.2669  1.9483  0.5451
  121OSM    C8S12722   1.687   5.324   6.136  0.5590 -0.3912 -0.0658
  121OSM    H8S12723   1.642   5.225   6.113 -0.8194  0.0143  0.8095
  121OSM    H8T12724   1.796   5.313   6.114  1.0085 -0.2589  1.9176
  121OSM    C9S12725   1.621   5.423   6.039 -0.2089  0.7287 -0.2071
  121OSM    H9S12726   1.653   5.529   6.047 -0.5074  0.9212 -1.3400
  121OSM    H9T12727   1.514   5.415   6.064  0.0206 -1.1209  0.3099
  121OSM   C10S12728   1.624   5.372   5.892 -0.0881  0.2514 -0.4014
  121OSM   H10S12729   1.586   5.268   5.878 -1.1879  0.7278 -1.0455
  121OSM   H10T12730   1.730   5.362   5.859  0.1963  0.9018  0.3009
  121OSM   C11S12731   1.550   5.468   5.798 -0.0345  0.3392 -0.7122
  121OSM   H11S12732   1.587   5.573   5.805 -0.0640  0.3381 -0.5063
  121OSM   H11T12733   1.442   5.464   5.826 -0.5834 -0.5207 -2.8164
  121OSM   C12S12734   1.573   5.399   5.660  0.0382  0.1095 -0.2426
  121OSM   H12S12735   1.536   5.296   5.640  3.0545 -1.1673  0.2317
  121OSM   H12T12736   1.681   5.383   5.638  0.1576 -1.8130  1.4826
  121OSM   C13S12737   1.517   5.483   5.539  0.3459 -0.1807 -0.1341
  121OSM   H13S12738   1.588   5.568   5.529 -0.6887  0.5986 -1.1165
  121OSM   H13T12739   1.414   5.521   5.555  0.5764  0.3239  0.1637
  121OSM   C14S12740   1.505   5.413   5.402 -0.0273  0.4641 -0.4189
  121OSM   H14S12741   1.422   5.340   5.402  0.0532  0.3446  1.0926
  121OSM   H14T12742   1.602   5.364   5.379 -0.6083  0.1033 -2.2336
  121OSM   C15S12743   1.476   5.507   5.286 -0.1189 -0.5400  0.1644
  121OSM   H15S12744   1.416   5.588   5.331  1.7924  1.3094 -0.4414
  121OSM   H15T12745   1.420   5.461   5.202 -0.9491 -1.2115  1.0604
  121OSM   C16S12746   1.610   5.555   5.238 -0.1935  0.2070  0.2946
  121OSM   H16S12747   1.660   5.468   5.190 -3.3089 -1.1632 -0.7522
  121OSM   H16T12748   1.679   5.588   5.319  1.2208 -0.8077 -0.4520
  121OSM   C17S12749   1.590   5.666   5.139  0.2283  0.4847 -0.6143
  121OSM   H17S12750   1.687   5.717   5.120 -0.6838  1.7047 -2.2532
  121OSM   H17T12751   1.523   5.746   5.177 -0.4570 -1.0860  1.6675
  121OSM   C18S12752   1.530   5.622   5.006 -0.7632  0.0175  0.2379
  121OSM   H18S12753   1.518   5.717   4.950 -0.6295 -1.1974 -1.9894
  121OSM   H18T12754   1.431   5.577   5.026  0.5360 -2.5236  1.4974
  121OSM   H18U12755   1.585   5.546   4.947 -1.2028  0.0145 -0.1736
  121OSM    C1F12756   1.750   5.783   6.628 -0.0176  0.2420 -0.1593
  121OSM     OF12757   1.863   5.795   6.666 -0.1171  0.5941  0.3485
  121OSM    C2F12758   1.686   5.881   6.538  0.4078  1.0758 -0.0699
  121OSM    H2F12759   1.614   5.944   6.595  0.2391  1.1241 -0.3285
  121OSM    H2G12760   1.624   5.832   6.459 -0.0508  0.8118  0.4514
  121OSM    C3F12761   1.777   5.987   6.467  0.0047  0.3652  0.1151
  121OSM    H3F12762   1.849   5.922   6.413 -0.3671 -0.5837  0.7277
  121OSM    H3G12763   1.837   6.042   6.542  3.2774 -1.9767 -0.5645
  121OSM    C4F12764   1.706   6.084   6.379 -0.4438 -0.2535  0.4016
  121OSM    H4F12765   1.772   6.174   6.372  1.4022 -1.6368 -1.2955
  121OSM    H4G12766   1.611   6.116   6.425  0.0425  0.4888  0.9118
  121OSM    C5F12767   1.706   6.022   6.235  0.5636  0.4074  0.1381
  121OSM    H5F12768   1.670   5.918   6.244  0.5135  0.4968  1.0534
  121OSM    H5G12769   1.811   6.014   6.198  1.1522 -0.0488  1.8049
  121OSM    C6F12770   1.608   6.095   6.138 -0.4732 -0.4438 -0.1034
  121OSM    H6F12771   1.629   6.203   6.125  1.3404 -0.8127 -0.5646
  121OSM    H6G12772   1.520   6.071   6.201  0.0873 -0.3168  0.7501
  121OSM    C7F12773   1.590   6.025   5.999 -0.2231  0.2629  0.5502
  121OSM    H7F12774   1.595   5.915   6.014 -1.0394  0.2371  0.6721
  121OSM    H7G12775   1.686   6.062   5.957  0.4780 -1.6709  0.3130
  121OSM    C8F12776   1.464   6.065   5.924  0.6632 -0.3933  0.4849
  121OSM    H8F12777   1.431   6.163   5.963  1.3691 -0.3018  0.8625
  121OSM    H8G12778   1.387   5.990   5.953 -0.0969  0.5507  0.9744
  121OSM    C9F12779   1.489   6.070   5.772  0.3102  0.2393 -0.0864
  121OSM    H9F12780   1.526   6.165   5.732 -2.6082  0.3042 -2.9899
  121OSM   C10F12781   1.442   5.969   5.694  0.1127 -0.0465 -0.1112
  121OSM   H10F12782   1.449   5.993   5.586 -0.1934  0.4486 -0.0222
  121OSM   C11F12783   1.371   5.839   5.717  0.4855 -0.2509  0.3044
  121OSM   H11F12784   1.366   5.821   5.827  0.8318  3.6642  1.1041
  121OSM   H11G12785   1.434   5.759   5.673 -1.5291 -1.8844  0.2958
  121OSM   C12F12786   1.231   5.844   5.647  0.8090  0.0991  0.3689
  121OSM   H12F12787   1.172   5.934   5.672 -0.0402 -0.8112  1.7334
  121OSM   H12G12788   1.176   5.752   5.677  1.9135 -0.8043 -0.2550
  121OSM   C13F12789   1.243   5.829   5.491 -0.6303 -0.2313  0.8570
  121OSM   H13F12790   1.313   5.749   5.458  1.3962  1.8586 -0.2044
  121OSM   H13G12791   1.301   5.918   5.457 -1.7953  0.5180  0.7830
  121OSM   C14F12792   1.107   5.829   5.421  0.5239  0.4878  0.3304
  121OSM   H14F12793   1.051   5.922   5.446 -0.8951  0.0274 -0.9475
  121OSM   H14G12794   1.053   5.744   5.469  0.5956  0.8063  0.9979
  121OSM   C15F12795   1.113   5.805   5.270  0.1934 -0.0058  0.4288
  121OSM   H15F12796   1.165   5.711   5.241 -0.0346  1.1357 -4.5056
  121OSM   H15G12797   1.171   5.891   5.231 -2.1745  1.4698 -0.1047
  121OSM   C16F12798   0.978   5.796   5.187 -0.2111  0.4269  0.1455
  121OSM   H16F12799   0.910   5.724   5.236  0.1088 -0.2208 -0.3429
  121OSM   H16G12800   1.004   5.751   5.089  3.6450  0.1852  1.0919
  121OSM   C17F12801   0.903   5.932   5.182  0.2883 -0.0067  0.6159
  121OSM   H17F12802   0.970   6.004   5.129 -0.4453  0.5750  0.4740
  121OSM   H17G12803   0.886   5.972   5.284 -0.2075  2.2416 -0.2792
  121OSM   C18F12804   0.774   5.925   5.102 -0.3476  0.4916  0.4377
  121OSM   H18F12805   0.687   5.873   5.147 -0.1945 -0.0223  0.1571
  121OSM   H18G12806   0.798   5.886   5.000 -2.3814 -0.8788  0.4330
  121OSM   H18H12807   0.737   6.028   5.084  0.3457  0.7231  0.3163
  122OSM      N12808   0.614   0.940   7.119 -0.3304 -0.1269 -0.1315
  122OSM    C1512809   0.558   0.845   7.215 -0.0966  0.5189 -0.7577
  122OSM   H15A12810   0.582   0.745   7.184 -0.4438  1.0740 -3.0035
  122OSM   H15B12811   0.455   0.868   7.239 -0.3895 -2.5730  1.3858
  122OSM   H15C12812   0.601   0.859   7.313  1.1978  1.2105 -1.4018
  122OSM    C1412813   0.576   1.078   7.166  0.4512 -0.2686 -0.0425
  122OSM   H14A12814   0.630   1.155   7.113 -1.1586 -0.4222 -2.0257
  122OSM   H14B12815   0.587   1.085   7.273 -1.2359  1.0297  0.0970
  122OSM   H14C12816   0.470   1.091   7.151 -0.2547 -2.4500  2.3673
  122OSM    C1312817   0.764   0.921   7.127 -0.4239 -0.3456 -0.7150
  122OSM   H13A12818   0.791   0.946   7.229  0.4421  1.8186 -1.4367
  122OSM   H13B12819   0.814   1.000   7.074 -1.5393  1.7195  1.1610
  122OSM   H13C12820   0.800   0.821   7.104  2.6510  0.4671  0.0215
  122OSM    C1212821   0.575   0.918   6.978  0.7660 -0.5973 -0.7460
  122OSM   H12A12822   0.639   0.972   6.910 -0.3968  0.0033 -1.3925
  122OSM   H12B12823   0.477   0.956   6.953  0.2103 -2.0984 -0.9541
  122OSM    C1112824   0.570   0.768   6.930 -0.1362  0.5939  0.5028
  122OSM   H11A12825   0.556   0.776   6.820 -0.5108 -1.9627  0.2999
  122OSM   H11B12826   0.489   0.703   6.968  0.4378 -0.9783 -0.8622
  122OSM      P12827   0.817   0.722   6.842 -0.1726 -0.2803  0.3455
  122OSM    O1312828   0.795   0.837   6.752 -0.5882  0.4328  0.3837
  122OSM    O1412829   0.953   0.709   6.906  0.2308  0.3304 -0.6227
  122OSM    O1112830   0.785   0.587   6.769 -0.1172 -0.4490  0.4371
  122OSM    O1212831   0.700   0.713   6.956  0.0321 -0.0041  0.2050
  122OSM    C1S12832   0.681   0.578   6.664 -0.0258 -0.2184  0.2908
  122OSM    H1S12833   0.616   0.668   6.664  0.7448  0.4363  2.6462
  122OSM    H1T12834   0.616   0.490   6.683 -0.2102 -0.0873  0.2634
  122OSM     NF12835   0.642   0.563   6.422  0.3156 -0.0530  0.3486
  122OSM    HNF12836   0.620   0.479   6.373  1.8547  0.7075 -1.7965
  122OSM    C2S12837   0.745   0.571   6.523 -0.9463 -0.3981  0.2848
  122OSM    H2S12838   0.791   0.669   6.500 -2.1078 -0.0565 -0.6742
  122OSM    C3S12839   0.852   0.465   6.524 -0.1035  0.1000  0.0741
  122OSM    H3S12840   0.809   0.367   6.551  0.9848 -0.9769 -1.8814
  122OSM     O312841   0.963   0.490   6.610 -0.2903  0.4679 -0.0254
  122OSM    HO312842   0.927   0.544   6.681 -1.4659  1.3035 -1.1946
  122OSM    C4S12843   0.917   0.454   6.392  0.0557 -0.6699  0.3647
  122OSM    H4S12844   0.975   0.540   6.357  3.5422 -1.5487  3.4061
  122OSM    C5S12845   0.921   0.343   6.312 -0.3491 -0.6235 -0.3606
  122OSM    H5S12846   0.850   0.265   6.344 -1.8858  1.3845  1.5093
  122OSM    C6S12847   1.000   0.343   6.185 -0.1728 -0.1520  1.0388
  122OSM    H6S12848   1.082   0.267   6.190 -0.6914 -0.6900  1.5873
  122OSM    H6T12849   1.042   0.441   6.155  0.5786 -1.4547 -2.7220
  122OSM    C7S12850   0.895   0.316   6.073 -0.3397 -0.4188  0.3936
  122OSM    H7S12851   0.799   0.373   6.081 -0.8317 -0.9374 -1.2615
  122OSM    H7T12852   0.869   0.210   6.093  0.5184 -0.3766  1.8787
  122OSM    C8S12853   0.947   0.339   5.933 -0.8332  0.6754 -0.1355
  122OSM    H8S12854   1.043   0.282   5.931 -0.3862  1.3644  0.8933
  122OSM    H8T12855   0.980   0.444   5.920  1.3022 -0.0989 -1.4689
  122OSM    C9S12856   0.860   0.295   5.809  0.6380 -0.4198  0.0028
  122OSM    H9S12857   0.764   0.351   5.806  0.6797 -0.2121  1.6954
  122OSM    H9T12858   0.814   0.194   5.816  0.1767 -0.3648 -1.7842
  122OSM   C10S12859   0.929   0.304   5.677 -0.7978 -0.0304  0.0253
  122OSM   H10S12860   0.997   0.218   5.658 -1.4939 -0.3198 -1.2726
  122OSM   H10T12861   0.995   0.393   5.673 -1.1243  0.3559  2.1118
  122OSM   C11S12862   0.841   0.300   5.548 -0.9158  0.0184  0.0313
  122OSM   H11S12863   0.762   0.378   5.554  0.0653  1.0004  0.4041
  122OSM   H11T12864   0.789   0.202   5.555 -1.3539  0.2599  0.2435
  122OSM   C12S12865   0.916   0.302   5.415 -0.1422 -0.5093  0.4392
  122OSM   H12S12866   0.985   0.215   5.411 -1.5513 -1.6817  1.0252
  122OSM   H12T12867   0.982   0.392   5.419  1.4513 -1.6206 -0.0710
  122OSM   C13S12868   0.822   0.305   5.291  0.0574 -0.6567  0.4528
  122OSM   H13S12869   0.742   0.381   5.303  0.6056 -0.1022  0.6931
  122OSM   H13T12870   0.774   0.205   5.297  0.9179 -1.0327  1.4686
  122OSM   C14S12871   0.907   0.333   5.166  0.5260  0.6305 -0.1941
  122OSM   H14S12872   0.980   0.249   5.176  1.1754  1.2206  0.1524
  122OSM   H14T12873   0.963   0.429   5.176 -0.7581  1.4225 -0.4240
  122OSM   C15S12874   0.819   0.330   5.041 -0.5473 -0.5079  0.4557
  122OSM   H15S12875   0.714   0.359   5.063 -0.8288  0.2927 -1.7248
  122OSM   H15T12876   0.812   0.229   4.996 -1.2878 -0.0228 -0.5477
  122OSM   C16S12877   0.873   0.426   4.931  0.3471  0.2180 -0.3465
  122OSM   H16S12878   0.976   0.394   4.903  0.2212  1.4905 -2.5406
  122OSM   H16T12879   0.873   0.527   4.978  1.1225  0.2151 -0.3253
  122OSM   C17S12880   0.783   0.420   4.808 -0.4999 -0.7364  0.6635
  122OSM   H17S12881   0.686   0.467   4.836 -0.0796 -0.7685  2.2636
  122OSM   H17T12882   0.771   0.315   4.774  1.5200 -0.1163 -2.3604
  122OSM   C18S12883   0.841   0.499   4.692 -0.7383 -0.3098 -0.0793
  122OSM   H18S12884   0.835   0.607   4.718  1.6277 -0.7642  2.8815
  122OSM   H18T12885   0.784   0.483   4.598  2.1863 -0.0889 -2.0000
  122OSM   H18U12886   0.947   0.471   4.674 -1.4905 -3.1934 -0.4638
  122OSM    C1F12887   0.569   0.666   6.394  0.2191 -0.3219  0.4548
  122OSM     OF12888   0.590   0.770   6.449  0.3854  0.0363 -0.4066
  122OSM    C2F12889   0.449   0.646   6.301 -0.1031 -0.0135  0.8015
  122OSM    H2F12890   0.380   0.728   6.332  0.7714  0.9379  0.3124
  122OSM    H2G12891   0.410   0.543   6.307  2.2253 -1.2238 -2.1543
  122OSM    C3F12892   0.474   0.686   6.153 -0.2135  0.0625  0.1509
  122OSM    H3F12893   0.502   0.794   6.154 -1.2971  0.3641 -0.0470
  122OSM    H3G12894   0.374   0.689   6.104 -0.5469  1.7795  0.8424
  122OSM    C4F12895   0.581   0.607   6.078 -0.4066 -0.2879  0.1996
  122OSM    H4F12896   0.542   0.504   6.062 -2.3707  0.1738  1.7060
  122OSM    H4G12897   0.678   0.604   6.132 -0.4195  1.1561  0.3462
  122OSM    C5F12898   0.612   0.663   5.944 -0.1734  0.5947 -0.0407
  122OSM    H5F12899   0.683   0.604   5.881 -1.8422  0.0968 -1.5657
  122OSM    H5G12900   0.666   0.758   5.963 -0.5448  0.4025  2.2027
  122OSM    C6F12901   0.486   0.698   5.857 -0.0360  0.8449 -0.2155
  122OSM    H6F12902   0.446   0.794   5.896  1.9002  1.0387  1.4900
  122OSM    H6G12903   0.401   0.629   5.875 -0.9421  2.0889  0.4313
  122OSM    C7F12904   0.524   0.716   5.711  0.5863 -0.4112 -0.2571
  122OSM    H7F12905   0.539   0.620   5.657 -0.1138 -0.6328 -0.0670
  122OSM    H7G12906   0.618   0.774   5.704 -0.6120  1.4464 -2.1327
  122OSM    C8F12907   0.432   0.805   5.623 -0.9301  0.0951  0.0526
  122OSM    H8F12908   0.338   0.750   5.601 -0.8686  0.0782 -0.1725
  122OSM    H8G12909   0.476   0.791   5.522 -0.0860  0.0219  0.4249
  122OSM    C9F12910   0.401   0.950   5.669  0.0395  0.8366 -0.0552
  122OSM    H9F12911   0.398   0.949   5.779 -2.4622  1.3485 -0.0664
  122OSM   C10F12912   0.376   1.066   5.605  0.3077 -0.0268  0.1802
  122OSM   H10F12913   0.370   1.156   5.668 -1.2938  0.0100  0.0247
  122OSM   C11F12914   0.365   1.079   5.455 -0.1489 -0.1485 -0.1331
  122OSM   H11F12915   0.263   1.113   5.429 -0.2360 -0.0210  0.3686
  122OSM   H11G12916   0.369   0.979   5.405 -0.1788  0.0566 -0.5491
  122OSM   C12F12917   0.476   1.159   5.386  0.3422 -0.3668  0.0406
  122OSM   H12F12918   0.572   1.146   5.440 -0.7884 -0.1514  2.2573
  122OSM   H12G12919   0.462   1.269   5.395  1.4228 -0.2177  0.0098
  122OSM   C13F12920   0.494   1.130   5.233 -0.0943  0.4691 -0.7913
  122OSM   H13F12921   0.555   1.036   5.231  1.3089  1.3523 -1.6233
  122OSM   H13G12922   0.563   1.207   5.193 -1.2360  2.3783  0.7431
  122OSM   C14F12923   0.362   1.116   5.154  0.8703 -0.1888 -0.0802
  122OSM   H14F12924   0.298   1.204   5.176  0.9281 -0.7612  2.7318
  122OSM   H14G12925   0.312   1.019   5.180  0.3492  0.4039  1.2023
  122OSM   C15F12926   0.379   1.102   5.001  0.4056  0.0726  0.3106
  122OSM   H15F12927   0.403   0.995   4.986  2.4348  0.6452 -1.0829
  122OSM   H15G12928   0.473   1.158   4.980  1.3250 -1.3466  0.4953
  122OSM   C16F12929   0.256   1.147   4.918  0.8209 -0.1312 -0.0212
  122OSM   H16F12930   0.276   1.137   4.809 -2.5171 -1.6910 -0.6166
  122OSM   H16G12931   0.236   1.255   4.930  1.6219  0.2324 -1.6836
  122OSM   C17F12932   0.125   1.083   4.957  0.7187  0.5431  0.4197
  122OSM   H17F12933   0.108   1.070   5.066 -0.6981  4.0090  0.7441
  122OSM   H17G12934   0.134   0.985   4.905  2.0383  1.2235 -0.7125
  122OSM   C18F12935   0.005   1.155   4.896 -0.0606  1.0836 -0.5466
  122OSM   H18F12936   0.001   1.159   4.785  3.7775  3.4194 -0.7816
  122OSM   H18G12937  -0.004   1.249   4.954  1.6817  0.1120  1.4859
  122OSM   H18H12938  -0.089   1.100   4.917  1.3219 -1.0721  0.4715
  123OSM      N12939   4.930   4.004   2.063 -0.0350 -0.4087  0.2372
  123OSM    C1512940   4.853   4.133   2.029 -0.3970  0.0980  0.4120
  123OSM   H15A12941   4.818   4.138   1.927  1.1035 -0.9707 -0.1992
  123OSM   H15B12942   4.929   4.209   2.025 -1.1393  0.8051 -0.4942
  123OSM   H15C12943   4.780   4.157   2.104 -0.4853  1.9192 -0.2159
  123OSM    C1412944   4.845   3.882   2.031 -0.5720 -0.3349 -0.5108
  123OSM   H14A12945   4.749   3.899   2.077 -1.3546  2.9454 -2.9290
  123OSM   H14B12946   4.889   3.791   2.069  0.7025 -0.2891 -1.7973
  123OSM   H14C12947   4.824   3.867   1.926  0.8180 -1.1521 -0.6881
  123OSM    C1312948   5.046   3.996   1.971 -0.3827 -0.4391  0.0251
  123OSM   H13A12949   5.011   3.950   1.880 -0.8592 -1.9371  0.9297
  123OSM   H13B12950   5.129   3.938   2.009  0.8695  0.7309 -0.8216
  123OSM   H13C12951   5.077   4.096   1.944 -0.0524 -1.2041 -2.7374
  123OSM    C1212952   4.967   4.012   2.206  0.0411 -0.0617  0.4391
  123OSM   H12A12953   5.028   4.100   2.218 -0.4941  0.8137 -2.5381
  123OSM   H12B12954   5.042   3.936   2.217  1.3789  1.3150  1.1716
  123OSM    C1112955   4.862   4.002   2.312 -0.0062 -0.0501 -1.5314
  123OSM   H11A12956   4.906   3.988   2.413 -0.5210  0.3336 -1.2494
  123OSM   H11B12957   4.798   3.912   2.294  0.6537 -0.6873 -0.7903
  123OSM      P12958   4.806   4.245   2.402  0.1701 -0.3281  0.2741
  123OSM    O1312959   4.954   4.271   2.409  0.9615  0.2745  0.2426
  123OSM    O1412960   4.716   4.351   2.345  0.0802  0.1425  0.6003
  123OSM    O1112961   4.762   4.210   2.555 -0.3405  0.2716  0.0318
  123OSM    O1212962   4.769   4.114   2.324 -0.1146  0.2759  0.1073
  123OSM    C1S12963   4.669   4.111   2.586  0.2481  0.3681 -0.1677
  123OSM    H1S12964   4.699   4.021   2.529  0.3054  0.7167 -0.7004
  123OSM    H1T12965   4.568   4.137   2.547 -0.0080 -0.1667  0.1253
  123OSM     NF12966   4.579   3.973   2.764 -0.0654 -0.1159 -0.0316
  123OSM    HNF12967   4.492   4.002   2.803 -1.3221  1.5143 -3.6193
  123OSM    C2S12968   4.677   4.079   2.739 -0.1140 -0.4956 -0.2953
  123OSM    H2S12969   4.781   4.049   2.764  0.2299  1.0821  0.3501
  123OSM    C3S12970   4.661   4.205   2.821 -0.5371 -0.8322 -0.0301
  123OSM    H3S12971   4.557   4.239   2.801  0.9033  2.9082 -2.1616
  123OSM     O312972   4.738   4.322   2.780  0.8259  0.0584 -0.4961
  123OSM    HO312973   4.758   4.307   2.688 -1.0132  0.3367 -0.9618
  123OSM    C4S12974   4.668   4.179   2.972  0.1524 -0.4350  0.1372
  123OSM    H4S12975   4.591   4.116   3.017  0.0185  0.6320  1.4686
  123OSM    C5S12976   4.772   4.215   3.050  0.1997 -0.2117 -0.6615
  123OSM    H5S12977   4.854   4.274   3.006 -0.8128  2.5532  0.8877
  123OSM    C6S12978   4.790   4.187   3.195 -0.3296  0.2210 -0.1897
  123OSM    H6S12979   4.855   4.262   3.246 -0.0944 -0.7366  0.9681
  123OSM    H6T12980   4.846   4.093   3.213  0.6856  0.8866  0.2337
  123OSM    C7S12981   4.658   4.201   3.276 -0.2858 -0.1068  0.3009
  123OSM    H7S12982   4.587   4.122   3.245  1.5013 -1.3836 -0.7144
  123OSM    H7T12983   4.599   4.294   3.262 -1.2667 -0.7728 -0.0808
  123OSM    C8S12984   4.684   4.187   3.430 -0.3024  0.0222  0.2525
  123OSM    H8S12985   4.741   4.278   3.459 -0.1806 -0.2004  0.7184
  123OSM    H8T12986   4.745   4.098   3.456  1.2006 -0.3275 -3.8038
  123OSM    C9S12987   4.540   4.183   3.493 -0.0816 -0.0621  0.2073
  123OSM    H9S12988   4.479   4.103   3.446  0.3164  0.7831 -1.8807
  123OSM    H9T12989   4.491   4.279   3.464 -1.5452 -0.1224  2.2551
  123OSM   C10S12990   4.555   4.181   3.646 -0.5074 -0.0796 -0.2752
  123OSM   H10S12991   4.617   4.267   3.679  0.8082 -1.1522  0.1237
  123OSM   H10T12992   4.603   4.087   3.681 -2.2548 -0.8535  0.1374
  123OSM   C11S12993   4.418   4.187   3.713 -0.4383  0.1888  0.6476
  123OSM   H11S12994   4.356   4.098   3.687  0.3629 -0.3817  0.6418
  123OSM   H11T12995   4.376   4.277   3.665 -1.5675 -1.3256 -1.3895
  123OSM   C12S12996   4.426   4.201   3.868 -0.0322 -0.5678 -0.0225
  123OSM   H12S12997   4.322   4.206   3.908  0.0935 -2.5108  0.6073
  123OSM   H12T12998   4.456   4.306   3.890 -3.4680  0.2307  1.4961
  123OSM   C13S12999   4.501   4.089   3.933 -0.8011 -0.6784  0.2182
  123OSM   H13S13000   4.585   4.046   3.875 -0.6397 -0.6884  0.4592
  123OSM   H13T13001   4.423   4.010   3.943 -2.1186  0.4754 -0.6099
  123OSM   C14S13002   4.562   4.122   4.069 -0.4878 -0.0779  0.6608
  123OSM   H14S13003   4.480   4.159   4.134 -1.4965  0.5587 -0.9113
  123OSM   H14T13004   4.636   4.205   4.062  0.4348 -0.8713  0.8441
  123OSM   C15S13005   4.621   3.996   4.126  0.1316 -1.1950 -0.9046
  123OSM   H15S13006   4.686   3.936   4.058  0.4371 -1.8629 -0.0391
  123OSM   H15T13007   4.535   3.928   4.145 -1.7108  1.7061  2.1899
  123OSM   C16S13008   4.688   4.016   4.261 -0.8135 -0.6574 -0.2729
  123OSM   H16S13009   4.766   4.093   4.242  0.3644 -1.1321  2.2690
  123OSM   H16T13010   4.746   3.930   4.298  0.5788  0.3552 -0.0107
  123OSM   C17S13011   4.608   4.074   4.376 -0.1308 -0.6896  0.3947
  123OSM   H17S13012   4.545   4.161   4.352 -0.6845 -1.3776 -0.7218
  123OSM   H17T13013   4.675   4.109   4.458 -0.8294  0.3311  0.5421
  123OSM   C18S13014   4.520   3.972   4.452 -0.4925 -0.4378  0.3280
  123OSM   H18S13015   4.454   4.025   4.523  0.6363  2.4501 -0.6003
  123OSM   H18T13016   4.591   3.906   4.506 -2.4904 -1.5745  1.6527
  123OSM   H18U13017   4.468   3.900   4.386  1.0621 -1.7613  0.4920
  123OSM    C1F13018   4.592   3.845   2.725 -0.2480  0.3638  0.5133
  123OSM     OF13019   4.688   3.805   2.665  0.1225  0.2131  0.2747
  123OSM    C2F13020   4.486   3.753   2.768 -0.6512  0.0609 -0.8399
  123OSM    H2F13021   4.476   3.673   2.692 -1.5804  0.6440 -1.3539
  123OSM    H2G13022   4.389   3.802   2.787 -0.8992 -0.4068 -0.8860
  123OSM    C3F13023   4.530   3.694   2.904  0.7953  0.5380 -0.2013
  123OSM    H3F13024   4.624   3.635   2.897  0.3856 -0.2721  0.8336
  123OSM    H3G13025   4.451   3.620   2.928  0.6989  1.1302  1.4334
  123OSM    C4F13026   4.536   3.787   3.024  0.1604 -0.4894 -0.5944
  123OSM    H4F13027   4.456   3.863   3.030  1.7480  1.1663  0.5119
  123OSM    H4G13028   4.632   3.843   3.025 -0.0834  0.1550  3.2510
  123OSM    C5F13029   4.557   3.698   3.147 -0.4386 -0.4280 -0.0499
  123OSM    H5F13030   4.640   3.627   3.130 -0.7642 -0.9236  0.3934
  123OSM    H5G13031   4.465   3.638   3.167 -0.7547  0.2897  0.6928
  123OSM    C6F13032   4.590   3.774   3.275 -0.3466 -0.2718  0.4909
  123OSM    H6F13033   4.500   3.835   3.300  0.6735  1.6343 -0.3025
  123OSM    H6G13034   4.672   3.842   3.244 -0.1880 -1.6088 -2.2839
  123OSM    C7F13035   4.651   3.678   3.379  0.7029 -0.1274  0.1302
  123OSM    H7F13036   4.726   3.618   3.322 -0.7557 -0.9173 -1.0316
  123OSM    H7G13037   4.575   3.601   3.403 -0.4698  0.2737 -2.0110
  123OSM    C8F13038   4.722   3.742   3.506  0.6161  0.5720  0.4595
  123OSM    H8F13039   4.782   3.828   3.469  2.1255 -0.2297  0.9707
  123OSM    H8G13040   4.793   3.667   3.545  0.3619  0.0305 -0.1029
  123OSM    C9F13041   4.616   3.785   3.611 -0.0213 -0.7864  0.0285
  123OSM    H9F13042   4.535   3.840   3.561  1.0434  0.7215 -0.0985
  123OSM   C10F13043   4.600   3.740   3.742  0.2649 -0.6047  0.1220
  123OSM   H10F13044   4.523   3.785   3.806 -0.1081  1.4341 -1.6555
  123OSM   C11F13045   4.685   3.642   3.818 -0.4245 -0.1446 -0.8210
  123OSM   H11F13046   4.763   3.604   3.749  1.6963 -0.1570  1.4421
  123OSM   H11G13047   4.627   3.552   3.848  0.6165 -1.5266 -2.7438
  123OSM   C12F13048   4.759   3.705   3.935  0.0269 -0.7573  0.2584
  123OSM   H12F13049   4.684   3.721   4.016 -1.3010  0.8628 -1.2314
  123OSM   H12G13050   4.801   3.804   3.908  0.1122 -0.1642  2.3467
  123OSM   C13F13051   4.874   3.607   3.974  0.8109  0.1312  0.4032
  123OSM   H13F13052   4.964   3.630   3.913 -1.4559 -0.7467 -3.6138
  123OSM   H13G13053   4.833   3.505   3.963  2.3224 -0.5537  0.8342
  123OSM   C14F13054   4.913   3.618   4.118  0.0995 -0.0678 -0.2623
  123OSM   H14F13055   4.842   3.567   4.187  0.2190  1.1257  0.7779
  123OSM   H14G13056   4.912   3.725   4.147  0.0963 -0.2933  0.6126
  123OSM   C15F13057   5.047   3.564   4.153  0.0587  0.5832 -0.7594
  123OSM   H15F13058   5.123   3.599   4.080  1.0657 -2.5975 -1.3678
  123OSM   H15G13059   5.036   3.454   4.163 -0.5049  0.7468  0.5919
  123OSM   C16F13060   5.092   3.618   4.291  0.5537 -0.1468  0.2771
  123OSM   H16F13061   5.005   3.642   4.356  0.0561 -0.2932 -0.3314
  123OSM   H16G13062   5.138   3.720   4.289 -0.1179  0.2188  1.7953
  123OSM   C17F13063   5.196   3.525   4.357 -0.5178 -0.2584 -0.1750
  123OSM   H17F13064   5.280   3.542   4.287  0.2287 -0.8839  0.5417
  123OSM   H17G13065   5.168   3.418   4.359 -2.2227  0.1636  0.6969
  123OSM   C18F13066   5.238   3.567   4.495  0.0772 -0.7967 -0.0507
  123OSM   H18F13067   5.271   3.673   4.493  0.3714 -0.8916 -2.5947
  123OSM   H18G13068   5.319   3.498   4.528  2.5511  0.0096 -3.8273
  123OSM   H18H13069   5.148   3.564   4.561  0.8341  2.2428  1.3013
  124OSM      N13070   2.980   5.213   2.174 -0.5172  0.0790  0.5815
  124OSM    C1513071   2.914   5.335   2.113  0.1218 -0.0577 -0.5769
  124OSM   H15A13072   2.968   5.359   2.022 -0.2253  0.3862 -0.6703
  124OSM   H15B13073   2.932   5.426   2.168  2.7194  0.1824 -1.6524
  124OSM   H15C13074   2.807   5.325   2.098 -0.0006  1.6804 -1.0436
  124OSM    C1413075   2.938   5.191   2.317 -0.1184 -0.1233  0.2686
  124OSM   H14A13076   2.974   5.265   2.387  4.3174 -2.0618  0.3377
  124OSM   H14B13077   2.993   5.109   2.359  0.8976 -0.4030 -1.5040
  124OSM   H14C13078   2.833   5.167   2.328  0.4198 -1.6204  2.8448
  124OSM    C1313079   2.938   5.094   2.102 -0.2699  0.7265  0.6907
  124OSM   H13A13080   2.832   5.080   2.118 -0.3758  0.0337 -0.5094
  124OSM   H13B13081   2.998   5.009   2.132 -0.2334 -0.0452 -1.4582
  124OSM   H13C13082   2.955   5.095   1.996 -0.8956 -1.5277  0.5219
  124OSM    C1213083   3.128   5.226   2.179 -0.2252  0.1680  0.3396
  124OSM   H12A13084   3.155   5.319   2.227 -1.1597  1.2287 -1.0897
  124OSM   H12B13085   3.164   5.226   2.077 -2.3958 -0.6417 -0.4804
  124OSM    C1113086   3.213   5.111   2.241  0.0811 -0.4691  0.3619
  124OSM   H11A13087   3.319   5.115   2.208 -0.4133 -0.9171 -1.3929
  124OSM   H11B13088   3.166   5.014   2.214 -2.3478  0.2562  1.6438
  124OSM      P13089   3.278   5.263   2.456 -0.0236 -0.0619  0.1397
  124OSM    O1313090   3.422   5.251   2.458 -0.0956  0.0185  0.1108
  124OSM    O1413091   3.216   5.386   2.408 -0.1000 -0.2014  0.2628
  124OSM    O1113092   3.218   5.241   2.601 -0.0793 -0.0649  0.3500
  124OSM    O1213093   3.217   5.133   2.387 -0.2548  0.1071 -0.1063
  124OSM    C1S13094   3.255   5.119   2.666 -0.1051 -0.5670  0.4371
  124OSM    H1S13095   3.360   5.087   2.650 -0.6317 -2.2377  0.0809
  124OSM    H1T13096   3.180   5.041   2.641  0.8556 -1.7728  1.1968
  124OSM     NF13097   3.287   5.020   2.896 -0.8070  0.1528  0.1277
  124OSM    HNF13098   3.221   4.974   2.955 -0.5772  1.3663  1.3721
  124OSM    C2S13099   3.241   5.140   2.822  0.0377 -0.5976 -0.3047
  124OSM    H2S13100   3.303   5.229   2.847  0.0766 -0.3800 -1.1602
  124OSM    C3S13101   3.103   5.187   2.861 -0.3177  0.7318  0.3511
  124OSM    H3S13102   3.029   5.124   2.807 -1.1569  1.9760  0.0191
  124OSM     O313103   3.074   5.321   2.822 -0.6770 -0.3826 -0.4186
  124OSM    HO313104   3.125   5.339   2.743  0.6161  0.7634  0.6358
  124OSM    C4S13105   3.082   5.182   3.009  0.6188 -0.5707  0.2402
  124OSM    H4S13106   3.113   5.263   3.077 -2.8916 -1.5226  3.2907
  124OSM    C5S13107   3.028   5.078   3.072 -0.1614 -0.0812  0.1958
  124OSM    H5S13108   3.009   4.993   3.005 -0.1483 -0.1901  0.3286
  124OSM    C6S13109   3.004   5.069   3.218 -0.2270 -0.6190  0.0049
  124OSM    H6S13110   2.897   5.083   3.244 -1.2755 -1.5136 -3.3229
  124OSM    H6T13111   3.061   5.146   3.274 -1.4961 -1.4830  2.6834
  124OSM    C7S13112   3.071   4.942   3.263  0.7111 -0.0370 -0.0368
  124OSM    H7S13113   3.179   4.945   3.238  1.0377 -1.3153  1.1278
  124OSM    H7T13114   3.018   4.858   3.212  0.3520  1.2411 -1.8804
  124OSM    C8S13115   3.064   4.928   3.416  0.3681  0.0809  0.3319
  124OSM    H8S13116   2.959   4.911   3.449 -1.6489  1.0186 -4.7050
  124OSM    H8T13117   3.082   5.024   3.468  0.0462 -0.8033  2.1692
  124OSM    C9S13118   3.154   4.806   3.460  0.4403 -0.6789 -0.2516
  124OSM    H9S13119   3.257   4.841   3.437  0.0121 -0.9156 -2.8379
  124OSM    H9T13120   3.134   4.733   3.379 -0.8582  0.7433 -1.2853
  124OSM   C10S13121   3.128   4.744   3.595  0.3132 -0.0110 -0.5039
  124OSM   H10S13122   3.191   4.654   3.609  1.9602  1.2798  0.8638
  124OSM   H10T13123   3.020   4.721   3.601  1.0113 -3.5887  1.1617
  124OSM   C11S13124   3.157   4.843   3.711  0.3668  0.1638 -0.3240
  124OSM   H11S13125   3.145   4.950   3.684 -1.9084  0.1279  0.2891
  124OSM   H11T13126   3.258   4.820   3.749 -0.1333  0.7091  1.4287
  124OSM   C12S13127   3.075   4.820   3.844 -0.0319  0.7360  0.3190
  124OSM   H12S13128   2.966   4.808   3.829  0.4517 -0.0486 -3.3776
  124OSM   H12T13129   3.077   4.915   3.903 -2.5180  2.2384 -1.8137
  124OSM   C13S13130   3.134   4.706   3.934 -0.6125 -0.0928  0.3625
  124OSM   H13S13131   3.243   4.725   3.944 -0.3989  0.0734 -1.8463
  124OSM   H13T13132   3.114   4.613   3.877  1.8495  0.5990 -1.8212
  124OSM   C14S13133   3.072   4.703   4.080 -0.6921  0.6015  0.6879
  124OSM   H14S13134   2.962   4.718   4.080 -0.4724  2.5677 -0.8181
  124OSM   H14T13135   3.120   4.794   4.122  0.5929  0.7722 -1.0006
  124OSM   C15S13136   3.101   4.570   4.157 -0.2728  0.1525  0.1885
  124OSM   H15S13137   3.207   4.546   4.138 -0.2391  1.8504 -2.1940
  124OSM   H15T13138   3.049   4.492   4.097 -0.6069  0.5122  0.0054
  124OSM   C16S13139   3.078   4.555   4.304 -0.0568 -0.9421  0.1845
  124OSM   H16S13140   3.147   4.624   4.358 -2.3318  1.1555  0.6294
  124OSM   H16T13141   3.100   4.451   4.336 -1.4439 -0.5110  2.8248
  124OSM   C17S13142   2.929   4.578   4.338 -0.3074  0.0825 -0.5982
  124OSM   H17S13143   2.879   4.488   4.296  0.3030 -0.7911  0.5237
  124OSM   H17T13144   2.896   4.671   4.287 -0.5685  1.9914  2.7773
  124OSM   C18S13145   2.903   4.590   4.492 -0.2978 -0.2039 -0.0704
  124OSM   H18S13146   2.962   4.680   4.521  0.1224  0.0289 -1.6095
  124OSM   H18T13147   2.950   4.507   4.550  2.1616  1.9078  1.2034
  124OSM   H18U13148   2.793   4.598   4.510 -0.0166  1.0818  1.3693
  124OSM    C1F13149   3.413   4.966   2.896  0.1405 -0.0778 -0.2150
  124OSM     OF13150   3.507   5.013   2.843  0.5857 -0.6908  0.0955
  124OSM    C2F13151   3.423   4.834   2.967 -0.1630  0.1476 -0.1148
  124OSM    H2F13152   3.420   4.751   2.894  1.3520 -0.3806  0.3865
  124OSM    H2G13153   3.339   4.809   3.034  0.0692 -0.7203 -0.1377
  124OSM    C3F13154   3.546   4.839   3.059 -0.3252 -0.4694  0.9595
  124OSM    H3F13155   3.531   4.917   3.137 -2.9985  1.1413 -0.9843
  124OSM    H3G13156   3.643   4.867   3.013 -0.9968  0.6544  0.1646
  124OSM    C4F13157   3.559   4.697   3.126 -0.1953 -0.6021 -0.2819
  124OSM    H4F13158   3.661   4.702   3.169  0.3237  0.4695 -1.5413
  124OSM    H4G13159   3.543   4.616   3.052 -3.3700 -0.2274 -0.1600
  124OSM    C5F13160   3.464   4.658   3.240  0.6029 -0.4446 -0.4480
  124OSM    H5F13161   3.479   4.551   3.267 -0.4388 -0.7387 -0.9991
  124OSM    H5G13162   3.357   4.664   3.209  1.4472  2.5896 -3.2764
  124OSM    C6F13163   3.488   4.733   3.368 -0.0015  0.6354 -0.0278
  124OSM    H6F13164   3.415   4.701   3.445  0.1274  1.9969  0.6867
  124OSM    H6G13165   3.476   4.842   3.345  1.1269  0.1887 -3.3356
  124OSM    C7F13166   3.622   4.723   3.442  0.3541  0.8720  0.1372
  124OSM    H7F13167   3.619   4.790   3.530  1.9499  2.2689 -0.8053
  124OSM    H7G13168   3.698   4.753   3.367  1.8861 -2.1828  0.2988
  124OSM    C8F13169   3.664   4.578   3.481 -0.1930  0.5888  0.2850
  124OSM    H8F13170   3.771   4.587   3.510  0.0249 -0.0675 -0.2987
  124OSM    H8G13171   3.670   4.501   3.401 -0.3449 -1.6399  2.3119
  124OSM    C9F13172   3.573   4.520   3.580 -0.3642 -0.2556  0.5622
  124OSM    H9F13173   3.468   4.523   3.548 -0.2832  1.7045  0.3920
  124OSM   C10F13174   3.603   4.499   3.707 -0.2614  0.5189 -0.0248
  124OSM   H10F13175   3.530   4.457   3.778  0.6486  0.7201  1.0700
  124OSM   C11F13176   3.732   4.512   3.778  0.8353 -0.0455 -0.7143
  124OSM   H11F13177   3.807   4.575   3.725  0.0588  1.6374  0.0889
  124OSM   H11G13178   3.775   4.417   3.817 -3.1104 -1.4374  0.6965
  124OSM   C12F13179   3.714   4.602   3.906  0.0509  0.1538 -0.1158
  124OSM   H12F13180   3.682   4.702   3.870 -1.0592 -0.2794 -0.3824
  124OSM   H12G13181   3.815   4.609   3.951  0.7599  0.5647 -1.7220
  124OSM   C13F13182   3.624   4.554   4.021 -0.2192  0.6798  0.2814
  124OSM   H13F13183   3.680   4.470   4.068 -0.1791  1.5307  1.8329
  124OSM   H13G13184   3.528   4.509   3.986  1.3424 -2.0797 -0.8238
  124OSM   C14F13185   3.615   4.664   4.127 -0.2293 -0.5491 -0.5920
  124OSM   H14F13186   3.572   4.760   4.091  1.2786  0.2354 -0.3518
  124OSM   H14G13187   3.720   4.683   4.154  0.2774 -1.1882 -1.9987
  124OSM   C15F13188   3.516   4.636   4.245 -0.3850 -0.2960  0.1676
  124OSM   H15F13189   3.531   4.536   4.290  0.4020 -1.5289 -2.6349
  124OSM   H15G13190   3.410   4.642   4.210 -0.4290  1.1951  0.4912
  124OSM   C16F13191   3.542   4.749   4.350 -0.4773 -0.0654 -0.2374
  124OSM   H16F13192   3.516   4.851   4.316 -0.9192 -0.0517  0.1349
  124OSM   H16G13193   3.652   4.749   4.362 -0.5600  2.3625  1.0688
  124OSM   C17F13194   3.462   4.728   4.481 -0.1246  0.0690  0.2109
  124OSM   H17F13195   3.490   4.628   4.519 -0.8931  0.7299  2.7079
  124OSM   H17G13196   3.352   4.734   4.465 -0.0037  1.5628 -0.2547
  124OSM   C18F13197   3.497   4.824   4.592  0.6211 -0.9287  0.3427
  124OSM   H18F13198   3.486   4.927   4.553 -0.5769 -1.2049 -0.1044
  124OSM   H18G13199   3.598   4.806   4.635  0.1124  0.1426  2.1211
  124OSM   H18H13200   3.425   4.833   4.677 -0.4008 -3.2714 -0.1886
  125OSM      N13201   4.239   2.007   1.591  0.2659  0.2630  0.2499
  125OSM    C1513202   4.119   2.077   1.650  0.1340  0.2487  0.7825
  125OSM   H15A13203   4.047   2.002   1.676 -2.4622  1.1692 -2.8932
  125OSM   H15B13204   4.077   2.162   1.597 -0.3684 -1.0945 -1.0801
  125OSM   H15C13205   4.164   2.123   1.737  2.4305 -0.7085  0.1826
  125OSM    C1413206   4.203   1.982   1.449 -0.2875 -0.1409  0.3276
  125OSM   H14A13207   4.191   2.071   1.390 -2.5879 -0.9221 -0.5023
  125OSM   H14B13208   4.108   1.931   1.439 -0.9449  0.7269  1.7142
  125OSM   H14C13209   4.276   1.918   1.402 -0.5486  0.3020 -0.7142
  125OSM    C1313210   4.356   2.099   1.598  0.0769 -0.2530  0.8161
  125OSM   H13A13211   4.419   2.088   1.511  1.6738  0.3093  1.8537
  125OSM   H13B13212   4.422   2.077   1.680 -0.5471  0.5635  1.5522
  125OSM   H13C13213   4.318   2.200   1.608 -0.3379 -0.5860  3.1338
  125OSM    C1213214   4.265   1.876   1.656 -0.7898 -0.2229 -0.4600
  125OSM   H12A13215   4.350   1.817   1.624  0.9908  0.5917  2.4154
  125OSM   H12B13216   4.173   1.819   1.650 -1.5904  1.0103 -0.2527
  125OSM    C1113217   4.303   1.876   1.808 -0.3148  0.4547  0.3672
  125OSM   H11A13218   4.234   1.933   1.874 -1.0825 -1.2799  1.1219
  125OSM   H11B13219   4.398   1.935   1.813 -1.9276  3.2971 -0.5064
  125OSM      P13220   4.198   1.645   1.867 -0.1962 -0.2210 -0.0717
  125OSM    O1313221   4.121   1.659   1.747  0.3601  0.3203  0.5919
  125OSM    O1413222   4.244   1.514   1.901 -0.1369  0.1572  0.1997
  125OSM    O1113223   4.122   1.707   1.986  0.2448  0.1401 -0.4850
  125OSM    O1213224   4.321   1.739   1.846  0.0739 -0.0048 -0.1489
  125OSM    C1S13225   4.182   1.701   2.114  0.1153 -0.5537  0.4740
  125OSM    H1S13226   4.280   1.752   2.127  0.0223 -0.4530  0.7832
  125OSM    H1T13227   4.209   1.597   2.139  0.5006  0.0804  2.9557
  125OSM     NF13228   4.115   1.684   2.353  0.2297 -0.1343 -0.9042
  125OSM    HNF13229   4.069   1.606   2.395  0.7873  0.1592  0.3043
  125OSM    C2S13230   4.076   1.734   2.223  0.7374  0.8314 -0.1533
  125OSM    H2S13231   4.064   1.844   2.228 -4.6012  0.4708  3.4490
  125OSM    C3S13232   3.935   1.679   2.190 -0.2290  0.1783  0.3382
  125OSM    H3S13233   3.934   1.572   2.160  0.0289  0.1333  0.4857
  125OSM     O313234   3.870   1.739   2.072  0.2192 -0.1846  0.2543
  125OSM    HO313235   3.944   1.771   2.021  1.0230  1.2791  2.2360
  125OSM    C4S13236   3.842   1.697   2.307  0.0400  0.0878 -0.0150
  125OSM    H4S13237   3.821   1.604   2.363  0.9798  0.5733  1.1866
  125OSM    C5S13238   3.761   1.802   2.342 -0.1841  0.3087  0.0376
  125OSM    H5S13239   3.770   1.899   2.292  1.3242  1.0738  1.7264
  125OSM    C6S13240   3.662   1.798   2.458 -0.0813 -0.0464 -0.1772
  125OSM    H6S13241   3.628   1.692   2.464  1.8211 -0.6546  0.5612
  125OSM    H6T13242   3.574   1.861   2.431  0.8740  1.0910 -0.7396
  125OSM    C7S13243   3.727   1.844   2.589  0.4425  0.4183 -0.6672
  125OSM    H7S13244   3.636   1.846   2.654 -0.5831  2.3811 -2.0365
  125OSM    H7T13245   3.767   1.946   2.570  1.4413 -0.1137 -1.5362
  125OSM    C8S13246   3.838   1.751   2.654 -0.2213  0.0849  0.1549
  125OSM    H8S13247   3.931   1.740   2.594 -0.3721 -0.4236  0.0092
  125OSM    H8T13248   3.784   1.655   2.670  0.1695 -0.2392 -0.4256
  125OSM    C9S13249   3.876   1.798   2.792 -0.9129  0.1614  0.4306
  125OSM    H9S13250   3.787   1.800   2.858 -1.9713  0.9283 -0.9745
  125OSM    H9T13251   3.920   1.899   2.782 -2.9212  1.1527  1.2713
  125OSM   C10S13252   3.989   1.709   2.843 -0.4855  0.8085 -0.7824
  125OSM   H10S13253   4.062   1.699   2.760  0.8475 -3.4842  0.6141
  125OSM   H10T13254   3.957   1.603   2.858  4.3246 -0.4522  3.1679
  125OSM   C11S13255   4.050   1.754   2.977  0.9525 -0.4625 -0.6040
  125OSM   H11S13256   4.086   1.859   2.979  2.0134 -0.8039  1.0154
  125OSM   H11T13257   4.135   1.690   3.009  0.5945 -1.0654 -0.8529
  125OSM   C12S13258   3.952   1.740   3.098 -0.3168 -0.1439  0.3847
  125OSM   H12S13259   3.929   1.632   3.106 -0.2838 -0.1838 -0.0029
  125OSM   H12T13260   3.863   1.803   3.075  0.3284  0.5845 -0.1970
  125OSM   C13S13261   4.018   1.779   3.225  0.0587  0.0259 -0.6674
  125OSM   H13S13262   4.051   1.885   3.219  1.1472 -0.2199  0.7331
  125OSM   H13T13263   4.111   1.720   3.234  1.0363  1.5254 -0.5474
  125OSM   C14S13264   3.925   1.780   3.345 -0.1806 -0.4054 -0.1718
  125OSM   H14S13265   3.901   1.673   3.363 -1.4121 -0.5516 -2.4131
  125OSM   H14T13266   3.837   1.845   3.328  0.0184 -0.0822  0.0066
  125OSM   C15S13267   4.009   1.823   3.473  0.0367 -0.2258 -0.0953
  125OSM   H15S13268   4.070   1.910   3.440 -2.0921  1.2604 -0.2616
  125OSM   H15T13269   4.076   1.734   3.483  0.0211 -0.5040 -2.0150
  125OSM   C16S13270   3.941   1.836   3.609  0.2243  0.2409 -0.2746
  125OSM   H16S13271   3.874   1.748   3.607  1.8548 -1.0384 -1.1366
  125OSM   H16T13272   3.883   1.929   3.624 -0.5638 -0.2257 -0.3724
  125OSM   C17S13273   4.039   1.811   3.728  0.1564 -0.6016  0.5061
  125OSM   H17S13274   4.072   1.705   3.722  1.6845 -0.0744 -1.0119
  125OSM   H17T13275   3.980   1.823   3.822 -1.9666 -1.5318 -0.6376
  125OSM   C18S13276   4.172   1.895   3.724 -0.4948  0.8441 -0.1865
  125OSM   H18S13277   4.213   1.883   3.622 -0.3226  1.9931 -0.2691
  125OSM   H18T13278   4.230   1.868   3.815  1.8256  1.2897 -1.4523
  125OSM   H18U13279   4.142   2.001   3.735 -2.8143  0.1453  0.8634
  125OSM    C1F13280   4.230   1.731   2.413  0.7745  0.4837 -0.0990
  125OSM     OF13281   4.295   1.818   2.367 -0.2624  0.3037 -0.0356
  125OSM    C2F13282   4.257   1.672   2.548 -1.1142 -0.1258 -0.5472
  125OSM    H2F13283   4.331   1.590   2.537 -3.4558 -1.9698 -5.8754
  125OSM    H2G13284   4.169   1.630   2.602 -0.6714  0.5246  0.7237
  125OSM    C3F13285   4.313   1.780   2.639 -0.1255 -0.8426  0.2095
  125OSM    H3F13286   4.237   1.858   2.662 -0.2882 -0.6194 -1.0203
  125OSM    H3G13287   4.407   1.824   2.598 -0.5828 -0.9174 -0.9351
  125OSM    C4F13288   4.353   1.717   2.776  0.4722 -0.6998  0.0617
  125OSM    H4F13289   4.439   1.646   2.774 -0.4209 -1.8759  1.0180
  125OSM    H4G13290   4.273   1.649   2.814  2.7363 -3.2380  0.6805
  125OSM    C5F13291   4.386   1.833   2.871  0.0863 -0.3931  0.4861
  125OSM    H5F13292   4.306   1.910   2.877  0.3500  0.1079 -1.4714
  125OSM    H5G13293   4.469   1.895   2.830 -0.3733 -0.4831 -0.6366
  125OSM    C6F13294   4.407   1.793   3.017 -0.3020 -0.4638  0.0026
  125OSM    H6F13295   4.517   1.777   3.024 -0.2036 -0.2884 -0.9273
  125OSM    H6G13296   4.355   1.696   3.029  0.5002 -0.7991  0.8533
  125OSM    C7F13297   4.366   1.900   3.116 -0.2037 -0.9234 -0.4069
  125OSM    H7F13298   4.256   1.910   3.128 -0.0565  1.2245 -0.4251
  125OSM    H7G13299   4.390   2.001   3.077 -4.1596 -0.3134 -1.7171
  125OSM    C8F13300   4.428   1.889   3.256  0.2947  0.3615 -0.2177
  125OSM    H8F13301   4.406   1.975   3.322  0.1912 -0.1017  0.3564
  125OSM    H8G13302   4.538   1.889   3.247  0.3765  0.8010  0.6843
  125OSM    C9F13303   4.387   1.761   3.314  0.5263  0.5260 -0.8396
  125OSM    H9F13304   4.318   1.696   3.259 -0.3167  1.5146 -0.9824
  125OSM   C10F13305   4.418   1.717   3.444  0.4522 -0.6601 -0.1586
  125OSM   H10F13306   4.374   1.625   3.486 -1.5948  0.1920 -0.3477
  125OSM   C11F13307   4.503   1.789   3.548  0.3969  0.4127 -0.3029
  125OSM   H11F13308   4.440   1.845   3.621  1.2377  0.7078  0.2157
  125OSM   H11G13309   4.565   1.869   3.501 -0.1718  0.4198 -1.0657
  125OSM   C12F13310   4.589   1.695   3.643  0.2504  0.5672  0.3839
  125OSM   H12F13311   4.649   1.761   3.710  0.9337  3.1257 -2.5614
  125OSM   H12G13312   4.655   1.638   3.575 -0.7764  0.9870 -1.0068
  125OSM   C13F13313   4.497   1.602   3.720 -0.1408 -0.6307 -0.7727
  125OSM   H13F13314   4.432   1.532   3.664 -1.4290  0.2470 -0.4316
  125OSM   H13G13315   4.427   1.674   3.769  1.7113  0.1593  0.8339
  125OSM   C14F13316   4.583   1.537   3.837 -0.4908 -1.1297  0.3184
  125OSM   H14F13317   4.658   1.608   3.877 -0.6875 -0.5513 -0.3271
  125OSM   H14G13318   4.652   1.458   3.799  1.4640 -0.2817  1.9467
  125OSM   C15F13319   4.498   1.477   3.944  0.4151  0.6317 -0.3975
  125OSM   H15F13320   4.441   1.392   3.902 -0.3088  1.0954 -0.3592
  125OSM   H15G13321   4.426   1.550   3.986  1.8427  1.8038  0.1194
  125OSM   C16F13322   4.572   1.413   4.050 -0.9694  0.7071 -0.0983
  125OSM   H16F13323   4.631   1.478   4.118  1.3782 -1.6726  0.3348
  125OSM   H16G13324   4.651   1.350   4.003 -2.6835 -1.8720  0.2646
  125OSM   C17F13325   4.495   1.316   4.142 -0.2054  0.3485 -0.0932
  125OSM   H17F13326   4.452   1.248   4.066 -1.3698 -0.2752  1.0693
  125OSM   H17G13327   4.417   1.366   4.205 -0.3802  0.2317 -0.2149
  125OSM   C18F13328   4.580   1.223   4.235 -0.1557  0.5074  0.0225
  125OSM   H18F13329   4.686   1.229   4.200  1.4209  0.5389  4.2337
  125OSM   H18G13330   4.542   1.119   4.226 -1.8824  1.0024  1.1760
  125OSM   H18H13331   4.582   1.273   4.334  2.8704  1.1304 -0.2371
  126OSM      N13332   2.873   2.008   2.091 -0.3537  1.3672  0.1566
  126OSM    C1513333   2.951   1.876   2.070 -0.2572 -0.5520 -0.5207
  126OSM   H15A13334   3.055   1.896   2.093 -0.7801  0.4028  1.1374
  126OSM   H15B13335   2.946   1.844   1.967  1.2813  1.6767 -1.3770
  126OSM   H15C13336   2.906   1.802   2.133 -0.4323  0.6007  0.7717
  126OSM    C1413337   2.941   2.126   2.025  0.0972 -0.6388  0.2851
  126OSM   H14A13338   2.887   2.219   2.033 -0.5435 -1.0134  0.3735
  126OSM   H14B13339   2.964   2.117   1.919 -1.5495 -0.6506 -0.0969
  126OSM   H14C13340   3.033   2.142   2.080  0.9799  0.1478 -1.3282
  126OSM    C1313341   2.741   2.000   2.027 -0.3334  0.6222 -0.0095
  126OSM   H13A13342   2.684   1.917   2.068  0.3357 -0.3312 -0.9424
  126OSM   H13B13343   2.755   1.981   1.921  2.9966  1.2200  0.2086
  126OSM   H13C13344   2.685   2.090   2.042 -0.2822  0.6243  0.1668
  126OSM    C1213345   2.869   2.027   2.241  0.2669 -0.7208  0.4013
  126OSM   H12A13346   2.852   2.130   2.269  1.1980 -0.8749  1.6363
  126OSM   H12B13347   2.966   2.000   2.280  0.1769 -0.5161  0.7746
  126OSM    C1113348   2.764   1.942   2.325 -0.3331  0.2616  0.2993
  126OSM   H11A13349   2.661   1.946   2.286 -0.8326 -1.9902  1.2313
  126OSM   H11B13350   2.753   1.997   2.422 -1.6637 -2.4118  1.7728
  126OSM      P13351   2.732   1.672   2.302 -0.0849 -0.0878 -0.2057
  126OSM    O1313352   2.592   1.704   2.263 -0.1377  0.1955  0.1111
  126OSM    O1413353   2.816   1.607   2.194  0.1365  0.0166 -0.0042
  126OSM    O1113354   2.734   1.582   2.427 -0.2603 -0.1711 -0.1623
  126OSM    O1213355   2.808   1.802   2.350  0.5256  0.2662  0.0289
  126OSM    C1S13356   2.801   1.613   2.548  0.1529 -0.1076  0.1969
  126OSM    H1S13357   2.754   1.705   2.592 -0.7612 -0.8233  0.7620
  126OSM    H1T13358   2.910   1.617   2.530 -0.1179  0.3646 -1.4415
  126OSM     NF13359   2.817   1.515   2.777  0.4821 -0.0943  0.3700
  126OSM    HNF13360   2.892   1.458   2.811  0.4694  0.2415  0.9870
  126OSM    C2S13361   2.769   1.492   2.640 -0.2945 -0.0888 -0.1974
  126OSM    H2S13362   2.659   1.495   2.651 -0.3495 -3.0876  1.2344
  126OSM    C3S13363   2.799   1.357   2.586 -0.4908 -0.3043  0.7732
  126OSM    H3S13364   2.909   1.343   2.575 -0.8097 -2.5646 -0.1811
  126OSM     O313365   2.726   1.326   2.466  0.3354 -0.1683  0.5426
  126OSM    HO313366   2.679   1.409   2.455  1.5484  0.5324  0.4055
  126OSM    C4S13367   2.769   1.245   2.690 -0.3099  0.1778  0.8171
  126OSM    H4S13368   2.668   1.233   2.734 -0.6979 -2.0973 -0.5030
  126OSM    C5S13369   2.857   1.156   2.741  0.3410 -0.3950  0.5309
  126OSM    H5S13370   2.960   1.161   2.702  0.0070  0.1161 -0.3301
  126OSM    C6S13371   2.820   1.046   2.834 -0.3151  0.1076  0.2194
  126OSM    H6S13372   2.852   0.954   2.780  0.9943  1.1341 -0.8241
  126OSM    H6T13373   2.714   1.043   2.868 -0.6242 -3.3544 -0.6611
  126OSM    C7S13374   2.909   1.050   2.960  1.0477 -0.4164 -0.2085
  126OSM    H7S13375   3.016   1.039   2.932  1.4818  1.3832  0.6253
  126OSM    H7T13376   2.890   0.964   3.027  0.9045  0.2874  0.6671
  126OSM    C8S13377   2.899   1.186   3.036  1.1553  0.0727 -0.2726
  126OSM    H8S13378   2.792   1.204   3.060  1.4426  0.9465  0.4297
  126OSM    H8T13379   2.927   1.279   2.984 -1.5382  1.5435  0.7006
  126OSM    C9S13380   2.963   1.192   3.174  0.2314  0.3024  0.3671
  126OSM    H9S13381   2.972   1.300   3.201 -0.2046 -0.0265  1.9345
  126OSM    H9T13382   3.062   1.146   3.157 -0.2352 -1.1602  1.4190
  126OSM   C10S13383   2.877   1.121   3.283 -0.0661  0.2986 -0.2444
  126OSM   H10S13384   2.877   1.010   3.271  3.2148  0.2479 -0.6859
  126OSM   H10T13385   2.770   1.150   3.284 -0.6250 -1.5774 -0.1684
  126OSM   C11S13386   2.935   1.145   3.422  0.1582  0.5426  0.2313
  126OSM   H11S13387   2.942   1.253   3.444  2.4049  0.0336  2.4982
  126OSM   H11T13388   3.039   1.107   3.414 -0.6994 -2.1716  0.7909
  126OSM   C12S13389   2.862   1.053   3.533 -0.3310 -0.4478 -0.4172
  126OSM   H12S13390   2.892   0.946   3.523  0.7614 -0.2095  0.2530
  126OSM   H12T13391   2.757   1.072   3.501  0.0885  1.0477 -0.9614
  126OSM   C13S13392   2.880   1.082   3.680 -0.4612 -0.0220  0.3199
  126OSM   H13S13393   2.850   1.184   3.713 -0.4335  0.2624 -0.5249
  126OSM   H13T13394   2.988   1.080   3.706 -0.3928  0.1750  0.0448
  126OSM   C14S13395   2.808   0.988   3.770 -0.7903 -0.4203  0.5661
  126OSM   H14S13396   2.811   0.882   3.737  0.9066 -1.0394  2.4811
  126OSM   H14T13397   2.702   1.022   3.768 -0.1957  1.5534 -0.7043
  126OSM   C15S13398   2.878   0.978   3.904 -0.3201  0.4647  0.9545
  126OSM   H15S13399   2.804   0.935   3.975 -1.2385 -0.6391 -0.5996
  126OSM   H15T13400   2.920   1.076   3.936  3.6658 -0.7971  0.0728
  126OSM   C16S13401   2.997   0.876   3.914  0.5138 -0.5165  0.1237
  126OSM   H16S13402   3.076   0.889   3.837  1.8320 -0.7157  1.3883
  126OSM   H16T13403   2.964   0.771   3.900 -2.9461  0.1562  1.9758
  126OSM   C17S13404   3.065   0.881   4.056 -0.1297 -0.2305  0.4622
  126OSM   H17S13405   2.987   0.864   4.134 -1.1410 -0.1735 -0.5118
  126OSM   H17T13406   3.118   0.974   4.086  1.2722 -0.1083 -2.1184
  126OSM   C18S13407   3.163   0.768   4.070  0.2491  0.0488  0.4494
  126OSM   H18S13408   3.221   0.759   3.976 -0.5573  0.7952 -0.1383
  126OSM   H18T13409   3.112   0.671   4.086  3.6336 -1.8855  0.3064
  126OSM   H18U13410   3.234   0.787   4.153 -0.8063  1.2554  1.1177
  126OSM    C1F13411   2.765   1.603   2.863  0.3913 -0.7243  1.4736
  126OSM     OF13412   2.673   1.672   2.823  0.0771 -0.8577 -0.2922
  126OSM    C2F13413   2.835   1.613   2.991 -0.1406 -0.0014  0.5336
  126OSM    H2F13414   2.881   1.714   2.991 -1.2590  0.5276  0.0998
  126OSM    H2G13415   2.911   1.534   3.004  0.1837  0.5744  2.3606
  126OSM    C3F13416   2.752   1.600   3.120 -0.5865 -0.4901  0.2175
  126OSM    H3F13417   2.701   1.501   3.123  1.8347 -1.9664 -2.4273
  126OSM    H3G13418   2.668   1.673   3.132  0.3690  0.9261 -1.3235
  126OSM    C4F13419   2.842   1.610   3.252  0.0867 -0.4973  0.4516
  126OSM    H4F13420   2.896   1.707   3.258  0.9856 -1.0627  1.8045
  126OSM    H4G13421   2.919   1.533   3.234 -1.5595 -2.3665  1.0851
  126OSM    C5F13422   2.758   1.581   3.377  0.0733 -0.8457 -0.0213
  126OSM    H5F13423   2.720   1.477   3.369 -0.2676 -0.6152 -1.7734
  126OSM    H5G13424   2.665   1.643   3.380  0.1935 -0.6769  2.4630
  126OSM    C6F13425   2.842   1.594   3.507 -0.3611 -0.3320 -0.2747
  126OSM    H6F13426   2.795   1.539   3.592  0.7930 -1.9500 -0.6518
  126OSM    H6G13427   2.826   1.701   3.532  2.0441 -0.1554  0.7265
  126OSM    C7F13428   2.982   1.558   3.498 -0.0526 -0.1044 -0.1901
  126OSM    H7F13429   3.037   1.639   3.445 -0.5312  1.4159  1.5362
  126OSM    H7G13430   2.991   1.464   3.440 -0.3977 -1.2010  1.4654
  126OSM    C8F13431   3.044   1.544   3.639 -0.0338 -0.2489  0.1116
  126OSM    H8F13432   3.144   1.498   3.623 -0.4227 -1.2755  0.4888
  126OSM    H8G13433   2.985   1.462   3.685 -1.1513  0.3255 -0.2666
  126OSM    C9F13434   3.049   1.668   3.719 -1.1895  0.1367 -0.5257
  126OSM    H9F13435   3.118   1.742   3.675 -1.2007 -1.1898 -2.9622
  126OSM   C10F13436   3.004   1.681   3.842  0.0463  0.5883 -0.2305
  126OSM   H10F13437   3.025   1.775   3.896 -1.7289  1.2786 -0.6569
  126OSM   C11F13438   2.904   1.590   3.914 -0.0851  0.1337 -0.2573
  126OSM   H11F13439   2.842   1.518   3.857 -0.3699 -0.3260  0.6257
  126OSM   H11G13440   2.834   1.661   3.962 -2.3788 -1.1401 -1.5393
  126OSM   C12F13441   2.970   1.511   4.032 -0.7500 -0.2898 -0.0424
  126OSM   H12F13442   3.012   1.578   4.110 -0.9521  3.5732 -2.9740
  126OSM   H12G13443   3.059   1.471   3.979  1.4961  0.4636  2.9135
  126OSM   C13F13444   2.870   1.405   4.088  0.1640 -1.1982 -0.2047
  126OSM   H13F13445   2.836   1.336   4.009 -1.0410 -0.7850 -0.0633
  126OSM   H13G13446   2.775   1.456   4.112 -0.4570 -1.8003 -1.3171
  126OSM   C14F13447   2.927   1.334   4.214  0.6935  0.6463 -0.1499
  126OSM   H14F13448   2.937   1.402   4.301 -0.6059  2.7121 -1.5428
  126OSM   H14G13449   3.032   1.303   4.198  0.9077  1.4765 -0.3970
  126OSM   C15F13450   2.835   1.217   4.263  0.0978 -0.1168  0.0267
  126OSM   H15F13451   2.816   1.149   4.177  4.6335 -0.0553 -1.2533
  126OSM   H15G13452   2.748   1.271   4.305  0.4277 -0.0747  0.6697
  126OSM   C16F13453   2.898   1.141   4.381  0.8840 -0.9935  0.2144
  126OSM   H16F13454   3.007   1.121   4.375  1.6500  1.4421  3.2382
  126OSM   H16G13455   2.838   1.048   4.395 -2.1822  0.9445  0.9890
  126OSM   C17F13456   2.878   1.224   4.511  0.1882  0.5224  0.1332
  126OSM   H17F13457   2.771   1.226   4.542  0.4362  1.1356  0.9748
  126OSM   H17G13458   2.913   1.329   4.499  1.2186  0.7529  3.9272
  126OSM   C18F13459   2.963   1.153   4.618  0.3145  0.2879 -0.4276
  126OSM   H18F13460   2.975   1.219   4.707 -2.0432 -0.8869  0.8375
  126OSM   H18G13461   3.065   1.128   4.581 -0.0568 -0.7179 -0.7993
  126OSM   H18H13462   2.913   1.059   4.648  0.4635  0.0218 -1.0090
  127OSM      N13463   3.743   4.827   2.585  0.2548  0.1304 -0.2858
  127OSM    C1513464   3.809   4.954   2.552 -0.0350 -0.6604  0.1023
  127OSM   H15A13465   3.899   4.938   2.495 -0.0886  0.3035 -0.2711
  127OSM   H15B13466   3.826   5.023   2.633 -2.2586  0.8627 -0.6295
  127OSM   H15C13467   3.741   5.004   2.484 -1.0518 -3.2789 -0.9513
  127OSM    C1413468   3.597   4.850   2.603 -0.1372 -0.5655 -0.3462
  127OSM   H14A13469   3.546   4.759   2.628  1.4428 -1.3790  0.0800
  127OSM   H14B13470   3.546   4.876   2.511 -0.8552 -0.6426  0.0312
  127OSM   H14C13471   3.564   4.919   2.679 -3.3370 -1.7823 -0.5078
  127OSM    C1313472   3.758   4.736   2.470 -0.1101  0.1245  0.4257
  127OSM   H13A13473   3.748   4.791   2.378 -2.4964  0.3448  0.7580
  127OSM   H13B13474   3.671   4.672   2.473 -1.2744  1.4961 -1.9119
  127OSM   H13C13475   3.853   4.684   2.473  0.9287  1.9419  1.5439
  127OSM    C1213476   3.805   4.766   2.708 -0.0065  0.4423  0.0615
  127OSM   H12A13477   3.837   4.841   2.778  1.5690 -1.0868  1.0465
  127OSM   H12B13478   3.889   4.711   2.668  0.0329  1.6016 -1.5553
  127OSM    C1113479   3.720   4.660   2.780  0.3749 -0.0462 -0.1050
  127OSM   H11A13480   3.620   4.706   2.794  1.2349  1.9549 -0.1776
  127OSM   H11B13481   3.754   4.658   2.886 -1.4529 -0.8910  0.4943
  127OSM      P13482   3.572   4.465   2.682 -0.4194  0.5391 -0.0335
  127OSM    O1313483   3.495   4.556   2.596 -0.4366 -0.3830 -0.2112
  127OSM    O1413484   3.595   4.328   2.628 -0.4998  0.0668 -0.2809
  127OSM    O1113485   3.508   4.451   2.822  0.0759  0.3037 -0.4616
  127OSM    O1213486   3.713   4.536   2.711  0.2501 -0.7005  0.6301
  127OSM    C1S13487   3.517   4.326   2.890 -0.0530  0.0175  0.2350
  127OSM    H1S13488   3.623   4.292   2.887  0.0424  0.3530 -0.6594
  127OSM    H1T13489   3.443   4.261   2.839 -2.9604  2.9187  0.4740
  127OSM     NF13490   3.505   4.198   3.098  0.5326 -1.0361 -0.4485
  127OSM    HNF13491   3.442   4.123   3.077 -1.6184 -0.7048  3.7059
  127OSM    C2S13492   3.473   4.330   3.039 -0.1395  0.0922 -0.0948
  127OSM    H2S13493   3.536   4.401   3.096 -0.3639 -0.5598  0.9887
  127OSM    C3S13494   3.318   4.366   3.051  0.8318  0.1844  0.5868
  127OSM    H3S13495   3.265   4.300   2.979  0.3544  1.2929 -0.1016
  127OSM     O313496   3.286   4.505   3.012  0.0778  0.0542 -0.3582
  127OSM    HO313497   3.362   4.517   2.953  0.8086 -1.6128  0.1857
  127OSM    C4S13498   3.277   4.344   3.198 -0.2832 -0.0864  0.6924
  127OSM    H4S13499   3.349   4.356   3.280 -0.6733 -0.9223  1.1597
  127OSM    C5S13500   3.163   4.275   3.230  0.0825 -0.9572  0.4034
  127OSM    H5S13501   3.096   4.245   3.148  0.3799 -0.4773 -0.0244
  127OSM    C6S13502   3.117   4.234   3.365  0.1117 -0.7167  0.1293
  127OSM    H6S13503   3.201   4.182   3.416  0.6137 -0.3619 -0.3200
  127OSM    H6T13504   3.031   4.163   3.366 -1.0210  0.6066  0.7260
  127OSM    C7S13505   3.072   4.349   3.463 -0.3650  0.1954 -0.1829
  127OSM    H7S13506   2.977   4.384   3.416 -0.2991 -0.6496 -0.9833
  127OSM    H7T13507   3.150   4.428   3.466  0.1695 -0.2648 -1.2298
  127OSM    C8S13508   3.029   4.310   3.608  0.1153 -0.5788  0.5556
  127OSM    H8S13509   3.000   4.405   3.658  0.0923 -0.7346  0.8383
  127OSM    H8T13510   3.125   4.283   3.657  2.3322  0.8526 -2.5830
  127OSM    C9S13511   2.926   4.197   3.618 -0.5841 -0.3565  0.7305
  127OSM    H9S13512   2.985   4.107   3.591 -0.8056  0.0175 -1.1400
  127OSM    H9T13513   2.854   4.210   3.535  0.8568 -1.0252 -0.6727
  127OSM   C10S13514   2.864   4.192   3.757  0.6386  0.5179 -0.4666
  127OSM   H10S13515   2.793   4.109   3.770 -0.3211  1.3151 -0.5222
  127OSM   H10T13516   2.802   4.280   3.784 -0.0356  0.6108 -2.2067
  127OSM   C11S13517   2.959   4.175   3.880 -0.0659 -0.3611  0.1254
  127OSM   H11S13518   3.049   4.239   3.871  1.8804 -2.9845 -0.1866
  127OSM   H11T13519   3.001   4.072   3.881 -1.4930 -0.9630  1.3242
  127OSM   C12S13520   2.876   4.188   4.004 -0.7442  0.2369  0.4405
  127OSM   H12S13521   2.772   4.150   3.996 -0.6693  0.2141 -0.4452
  127OSM   H12T13522   2.860   4.297   4.019 -0.2643  0.6383 -1.7168
  127OSM   C13S13523   2.944   4.133   4.129  0.2410  0.0504 -0.4404
  127OSM   H13S13524   2.942   4.023   4.139  1.6200  0.0829  0.4997
  127OSM   H13T13525   2.888   4.174   4.215  0.4887  0.7641 -0.6051
  127OSM   C14S13526   3.092   4.174   4.147 -0.3337 -0.5393  0.0175
  127OSM   H14S13527   3.098   4.283   4.129 -0.6702 -0.6784 -1.0512
  127OSM   H14T13528   3.151   4.127   4.065  0.1558 -0.9786  0.6141
  127OSM   C15S13529   3.157   4.138   4.285  0.5346 -0.1248  0.2263
  127OSM   H15S13530   3.127   4.036   4.318 -1.3016  0.0202 -0.8758
  127OSM   H15T13531   3.116   4.214   4.354  2.9542  1.2934  0.2178
  127OSM   C16S13532   3.302   4.162   4.281 -0.6691 -0.1445 -0.2060
  127OSM   H16S13533   3.319   4.254   4.221 -1.1066  0.8340  1.1365
  127OSM   H16T13534   3.351   4.078   4.227  1.2265  0.3924  0.5853
  127OSM   C17S13535   3.362   4.180   4.423 -0.5806 -0.1859 -0.1344
  127OSM   H17S13536   3.473   4.188   4.414 -0.5649  4.9719  1.6815
  127OSM   H17T13537   3.345   4.091   4.488 -0.3060  0.5587  0.9709
  127OSM   C18S13538   3.319   4.303   4.501  0.2998  0.2372 -0.2065
  127OSM   H18S13539   3.338   4.391   4.436  0.6884 -0.1705 -0.6541
  127OSM   H18T13540   3.386   4.320   4.589 -0.0168 -2.4952  0.6512
  127OSM   H18U13541   3.217   4.295   4.544  1.3715 -1.4821  2.2773
  127OSM    C1F13542   3.627   4.162   3.130 -0.2602  0.9118  0.4745
  127OSM     OF13543   3.721   4.233   3.110  0.0247 -0.4544  0.5136
  127OSM    C2F13544   3.640   4.019   3.176 -0.0827 -0.3181  0.6414
  127OSM    H2F13545   3.693   3.952   3.105  0.0022  1.2051 -0.7859
  127OSM    H2G13546   3.539   3.976   3.196  0.2967 -1.5643  0.0088
  127OSM    C3F13547   3.726   4.018   3.304 -0.0835 -0.4153  0.1550
  127OSM    H3F13548   3.812   4.088   3.295 -1.6567  1.5954  0.2283
  127OSM    H3G13549   3.765   3.915   3.316  0.5221 -0.1904  0.1697
  127OSM    C4F13550   3.645   4.065   3.426 -0.5287 -0.3584  0.1734
  127OSM    H4F13551   3.593   4.163   3.419 -0.3486 -0.3055 -0.4836
  127OSM    H4G13552   3.728   4.075   3.500 -0.3291 -0.3798 -0.0458
  127OSM    C5F13553   3.560   3.950   3.474  0.1487  0.1203  0.0506
  127OSM    H5F13554   3.618   3.856   3.463 -0.5377 -0.4947  1.4611
  127OSM    H5G13555   3.467   3.947   3.414 -0.5940 -1.6390  1.2041
  127OSM    C6F13556   3.533   3.955   3.620 -0.5429 -0.5680 -0.4350
  127OSM    H6F13557   3.631   3.958   3.672  0.3195 -0.8223 -1.9704
  127OSM    H6G13558   3.482   3.859   3.643 -0.1357 -0.3462  1.6009
  127OSM    C7F13559   3.440   4.079   3.650 -1.2092 -0.0001  0.0819
  127OSM    H7F13560   3.346   4.069   3.591 -2.1879  1.0424  1.3965
  127OSM    H7G13561   3.482   4.176   3.618  0.0428 -0.6634 -0.3327
  127OSM    C8F13562   3.405   4.078   3.808 -0.0742 -0.0180  0.2382
  127OSM    H8F13563   3.365   3.982   3.846 -1.2988 -0.3982 -1.8876
  127OSM    H8G13564   3.317   4.144   3.826 -1.1253 -0.4449 -2.8077
  127OSM    C9F13565   3.523   4.132   3.886  0.1922  0.0452 -0.0494
  127OSM    H9F13566   3.519   4.242   3.887 -1.1706  0.0656  2.8928
  127OSM   C10F13567   3.624   4.064   3.932  0.5154  0.0057  0.0258
  127OSM   H10F13568   3.687   4.113   4.007  1.6886 -2.7758  1.0152
  127OSM   C11F13569   3.632   3.911   3.936 -0.3430 -0.3815  0.2086
  127OSM   H11F13570   3.725   3.884   3.882  0.3409  1.8068  0.1791
  127OSM   H11G13571   3.553   3.857   3.880  0.4073  1.4744 -2.8645
  127OSM   C12F13572   3.638   3.849   4.078 -0.8234  0.4054  1.1694
  127OSM   H12F13573   3.615   3.742   4.059  3.6784 -0.7364  0.9843
  127OSM   H12G13574   3.557   3.891   4.140 -0.4986  2.3966  0.3381
  127OSM   C13F13575   3.772   3.875   4.145  0.2610  0.4578 -0.9153
  127OSM   H13F13576   3.773   3.973   4.198  1.9279 -0.5601  1.0576
  127OSM   H13G13577   3.854   3.886   4.070  0.3108  0.5242 -0.8515
  127OSM   C14F13578   3.818   3.768   4.242 -0.1292  0.3232  0.5330
  127OSM   H14F13579   3.922   3.792   4.275  0.1414 -1.7568  1.3092
  127OSM   H14G13580   3.827   3.678   4.177 -0.5724  1.0240 -0.5326
  127OSM   C15F13581   3.714   3.731   4.346  0.5798 -0.2898  0.2392
  127OSM   H15F13582   3.756   3.645   4.403  0.8334 -1.8912 -2.2142
  127OSM   H15G13583   3.627   3.700   4.285  1.3082  1.2599 -1.7012
  127OSM   C16F13584   3.673   3.838   4.453 -0.8857  0.6670  0.2505
  127OSM   H16F13585   3.598   3.910   4.415 -0.5348 -0.2927 -2.4853
  127OSM   H16G13586   3.766   3.897   4.469 -1.5000  2.5471 -2.4849
  127OSM   C17F13587   3.619   3.761   4.581  0.4509 -0.1068 -0.2139
  127OSM   H17F13588   3.702   3.699   4.620  0.9935  1.0218  0.4859
  127OSM   H17G13589   3.539   3.688   4.556 -0.2030  0.9753 -1.4233
  127OSM   C18F13590   3.580   3.851   4.700 -0.6562 -0.0589 -0.2382
  127OSM   H18F13591   3.510   3.797   4.767  0.2180 -0.7600  0.1366
  127OSM   H18G13592   3.527   3.938   4.656  1.7641  1.0765 -1.1326
  127OSM   H18H13593   3.671   3.881   4.756 -1.3088 -1.5787  1.7303
  128OSM      N13594   4.038   4.111   2.125  0.3629  0.2330  0.7066
  128OSM    C1513595   4.056   4.264   2.111  0.5176  0.2454  0.6064
  128OSM   H15A13596   4.093   4.299   2.206  0.5344 -0.3622  0.8287
  128OSM   H15B13597   3.971   4.322   2.077  0.4000  0.2262  0.8677
  128OSM   H15C13598   4.136   4.280   2.040  0.4598 -1.9696 -0.0252
  128OSM    C1413599   4.166   4.056   2.167  0.2334 -0.1799 -0.0884
  128OSM   H14A13600   4.222   4.041   2.075  0.4011  0.7970 -0.1522
  128OSM   H14B13601   4.158   3.961   2.218  1.6641  0.1042  0.7172
  128OSM   H14C13602   4.222   4.126   2.227  1.7576 -0.6331 -0.9228
  128OSM    C1313603   3.931   4.087   2.222  0.3697 -0.3356 -0.3711
  128OSM   H13A13604   3.956   4.117   2.322  0.5433 -0.5374 -0.3537
  128OSM   H13B13605   3.907   3.982   2.215 -0.1962 -0.1717 -1.0510
  128OSM   H13C13606   3.840   4.136   2.191  1.0180 -0.2318 -2.2353
  128OSM    C1213607   3.998   4.052   1.988 -0.1116 -0.2075  0.7590
  128OSM   H12A13608   4.072   4.079   1.914 -0.6904 -2.3660 -0.6760
  128OSM   H12B13609   3.911   4.105   1.952 -0.3437 -1.5705 -0.7709
  128OSM    C1113610   3.978   3.901   1.979  0.8945  0.1139 -1.0674
  128OSM   H11A13611   4.074   3.847   1.996  1.1532  1.0808  0.7685
  128OSM   H11B13612   3.937   3.880   1.878 -2.5853 -0.1155  0.2528
  128OSM      P13613   3.729   3.839   2.052  0.4240  0.2611 -0.0271
  128OSM    O1313614   3.659   3.966   2.080  0.3260 -0.4517  0.6537
  128OSM    O1413615   3.702   3.780   1.920 -0.0752  0.3345 -0.4564
  128OSM    O1113616   3.693   3.738   2.166  0.4009  0.0207 -0.3764
  128OSM    O1213617   3.886   3.855   2.075  0.5080 -0.6398  0.1282
  128OSM    C1S13618   3.769   3.622   2.194  0.7293  0.2611 -0.1545
  128OSM    H1S13619   3.855   3.643   2.261  0.4888 -0.6497  0.4489
  128OSM    H1T13620   3.810   3.573   2.103 -0.6201  1.0959 -1.2572
  128OSM     NF13621   3.768   3.430   2.355 -0.6751  0.6018 -0.1645
  128OSM    HNF13622   3.775   3.339   2.314  0.9998 -1.0805  3.4292
  128OSM    C2S13623   3.684   3.521   2.283  0.7735  0.0254  0.3946
  128OSM    H2S13624   3.630   3.582   2.358  0.2845  0.2776 -0.1524
  128OSM    C3S13625   3.573   3.463   2.197 -0.8622 -0.9354 -0.2553
  128OSM    H3S13626   3.622   3.415   2.109  0.1111  0.3708 -0.4544
  128OSM     O313627   3.494   3.568   2.139 -0.2075 -0.8823  0.5627
  128OSM    HO313628   3.540   3.647   2.168  2.4937 -1.9712 -0.4094
  128OSM    C4S13629   3.493   3.362   2.273 -0.0070  0.7367 -0.1617
  128OSM    H4S13630   3.541   3.263   2.266  0.4762  1.0484 -1.5351
  128OSM    C5S13631   3.378   3.387   2.347 -0.4138  0.0839 -0.0415
  128OSM    H5S13632   3.335   3.488   2.352 -1.0561 -0.2185  1.0340
  128OSM    C6S13633   3.318   3.278   2.442 -0.2192  0.0432  0.5698
  128OSM    H6S13634   3.225   3.242   2.392 -0.2762  1.6056 -0.5374
  128OSM    H6T13635   3.295   3.331   2.537  1.0517  3.8374 -1.0561
  128OSM    C7S13636   3.406   3.158   2.481  0.7357  0.3064 -0.9997
  128OSM    H7S13637   3.424   3.116   2.380 -2.3381 -0.6217 -1.2720
  128OSM    H7T13638   3.341   3.089   2.540  0.4879  2.0400  0.8566
  128OSM    C8S13639   3.521   3.186   2.578  0.0175 -0.5756  0.5744
  128OSM    H8S13640   3.474   3.218   2.674 -0.0692  1.9815 -0.2488
  128OSM    H8T13641   3.583   3.270   2.541  2.1149 -1.3975  2.0514
  128OSM    C9S13642   3.609   3.064   2.584 -0.3813 -0.1775  0.8543
  128OSM    H9S13643   3.636   3.028   2.482 -1.6319 -0.5101  0.6225
  128OSM    H9T13644   3.555   2.985   2.640  0.1425 -0.7150  0.6109
  128OSM   C10S13645   3.743   3.080   2.660 -1.0087 -0.3007  0.0167
  128OSM   H10S13646   3.800   3.161   2.609  1.3519 -0.0270  2.8345
  128OSM   H10T13647   3.797   2.983   2.656 -1.2301 -0.3883 -1.4912
  128OSM   C11S13648   3.723   3.117   2.814  0.7792  0.2881 -0.1467
  128OSM   H11S13649   3.643   3.056   2.862 -0.6900  1.9955 -0.3232
  128OSM   H11T13650   3.681   3.220   2.815 -2.1920 -0.8172  1.0502
  128OSM   C12S13651   3.857   3.113   2.895 -0.4911  0.3362  0.0312
  128OSM   H12S13652   3.925   3.183   2.842  0.9666  0.7562  2.3105
  128OSM   H12T13653   3.895   3.009   2.902 -0.8938  0.0460 -1.6880
  128OSM   C13S13654   3.853   3.174   3.034  0.5860  0.3062  0.1759
  128OSM   H13S13655   3.778   3.113   3.090 -0.3621  1.8187  0.6252
  128OSM   H13T13656   3.819   3.280   3.035  1.3774  0.5694  1.5272
  128OSM   C14S13657   3.989   3.187   3.108  0.1440  0.3647  0.8803
  128OSM   H14S13658   4.042   3.276   3.068  1.4268 -0.1960  1.2752
  128OSM   H14T13659   4.052   3.096   3.100 -1.0627 -0.3013 -2.0230
  128OSM   C15S13660   3.969   3.221   3.256  0.2168  0.4039  0.0898
  128OSM   H15S13661   3.914   3.140   3.307 -1.0514  1.0341 -0.2371
  128OSM   H15T13662   3.910   3.315   3.262 -2.2470 -1.1198  1.0808
  128OSM   C16S13663   4.105   3.256   3.331  0.1903  0.4281  0.5182
  128OSM   H16S13664   4.173   3.320   3.272 -0.6795  0.2956 -0.6694
  128OSM   H16T13665   4.162   3.162   3.346 -0.6590 -0.3386 -0.8097
  128OSM   C17S13666   4.077   3.317   3.473 -0.1043  0.4107 -0.1549
  128OSM   H17S13667   4.028   3.245   3.543  0.5007  0.5840  0.4592
  128OSM   H17T13668   4.012   3.407   3.467 -0.6679  0.0327  0.1505
  128OSM   C18S13669   4.204   3.361   3.539 -0.4270 -0.8543  0.0687
  128OSM   H18S13670   4.179   3.392   3.643  0.2897  1.8677 -0.4958
  128OSM   H18T13671   4.263   3.447   3.501 -0.9722  0.2787  1.6574
  128OSM   H18U13672   4.282   3.283   3.538  0.2369 -0.2608  1.7746
  128OSM    C1F13673   3.838   3.466   2.460 -0.2822 -0.5327  1.0093
  128OSM     OF13674   3.809   3.564   2.524 -0.1821 -0.4069 -0.8775
  128OSM    C2F13675   3.951   3.369   2.490  0.2788 -0.6420 -0.9270
  128OSM    H2F13676   4.048   3.409   2.452  0.2219  0.1552 -0.2418
  128OSM    H2G13677   3.917   3.275   2.442  0.3079 -1.3398  0.3756
  128OSM    C3F13678   3.971   3.359   2.649 -0.4085 -0.2929  0.2914
  128OSM    H3F13679   4.041   3.275   2.667  1.0065  0.5717 -0.9511
  128OSM    H3G13680   3.872   3.342   2.697 -0.0272 -1.4980  0.6742
  128OSM    C4F13681   4.043   3.486   2.713 -0.4390  0.7544 -0.6612
  128OSM    H4F13682   3.982   3.577   2.697 -0.9726  0.8230  1.4674
  128OSM    H4G13683   4.141   3.504   2.665  0.0558 -2.0732 -0.8917
  128OSM    C5F13684   4.059   3.472   2.868 -0.2998 -0.2684 -0.1751
  128OSM    H5F13685   4.110   3.374   2.876 -0.1020 -0.1181  0.4799
  128OSM    H5G13686   3.954   3.474   2.906  0.1444 -0.9863  1.1593
  128OSM    C6F13687   4.142   3.579   2.934 -0.2182  0.0467  0.0399
  128OSM    H6F13688   4.109   3.681   2.904  1.7943 -0.0002 -2.6375
  128OSM    H6G13689   4.244   3.580   2.890 -0.1844 -4.4499 -0.4091
  128OSM    C7F13690   4.171   3.557   3.082 -0.3563 -0.2646 -0.5649
  128OSM    H7F13691   4.264   3.616   3.100  0.4128 -0.0645 -4.3467
  128OSM    H7G13692   4.193   3.449   3.090 -0.3785 -0.3794 -1.8179
  128OSM    C8F13693   4.061   3.604   3.184 -0.4489  0.4588  0.1910
  128OSM    H8F13694   4.100   3.577   3.285 -2.7722 -0.0435  1.0220
  128OSM    H8G13695   3.969   3.547   3.164 -0.0887  0.5940 -2.0738
  128OSM    C9F13696   4.042   3.753   3.174 -0.0202 -0.4758 -0.2598
  128OSM    H9F13697   3.989   3.788   3.084 -0.3385  0.4377  0.2763
  128OSM   C10F13698   4.093   3.847   3.250  0.3054  0.1439  0.5412
  128OSM   H10F13699   4.069   3.954   3.240  1.8221  0.3349 -1.9720
  128OSM   C11F13700   4.188   3.811   3.368  0.4200 -0.3372 -0.2612
  128OSM   H11F13701   4.254   3.897   3.387  0.4980 -0.3157 -0.6222
  128OSM   H11G13702   4.254   3.722   3.353 -0.6516 -1.7844  2.7867
  128OSM   C12F13703   4.113   3.799   3.506  0.6442 -0.2308  0.8922
  128OSM   H12F13704   4.037   3.718   3.500 -1.6996  1.9497 -1.2178
  128OSM   H12G13705   4.059   3.892   3.532 -1.3664 -0.5422 -1.7994
  128OSM   C13F13706   4.200   3.757   3.619  0.3670  0.1859  0.2395
  128OSM   H13F13707   4.298   3.810   3.622  1.6755 -2.1194  0.4334
  128OSM   H13G13708   4.223   3.649   3.607  0.6147 -0.0958  2.8702
  128OSM   C14F13709   4.133   3.777   3.754  0.0699 -0.7299  0.5880
  128OSM   H14F13710   4.038   3.719   3.746 -1.0102  1.2260 -2.3814
  128OSM   H14G13711   4.102   3.883   3.753  0.1258 -0.6572 -2.1066
  128OSM   C15F13712   4.208   3.722   3.875 -0.9793  0.8905  0.4866
  128OSM   H15F13713   4.301   3.780   3.892 -0.9828  1.7820 -2.0490
  128OSM   H15G13714   4.233   3.615   3.860  0.4870  1.2605  0.1700
  128OSM   C16F13715   4.121   3.730   3.999  0.2925  0.1445  0.0835
  128OSM   H16F13716   4.015   3.713   3.973  0.0755  3.2691 -1.5143
  128OSM   H16G13717   4.116   3.834   4.038  0.4531 -0.8573  3.0781
  128OSM   C17F13718   4.158   3.643   4.123 -0.3859 -0.4970  0.5406
  128OSM   H17F13719   4.161   3.535   4.099 -1.2222  0.0696 -2.5220
  128OSM   H17G13720   4.082   3.653   4.204 -3.1030 -1.3275 -1.7343
  128OSM   C18F13721   4.294   3.686   4.173  0.2680  0.4758  0.6739
  128OSM   H18F13722   4.331   3.620   4.255  0.8683  2.0425  1.7225
  128OSM   H18G13723   4.310   3.794   4.191  2.3744 -0.0150  2.1772
  128OSM   H18H13724   4.372   3.663   4.097 -0.3643 -0.1985  0.2213
  129OSM      N13725   3.716   5.513   2.226  0.6468  0.0624  1.0210
  129OSM    C1513726   3.713   5.474   2.080 -0.0847 -0.0238  0.6620
  129OSM   H15A13727   3.811   5.444   2.045 -0.2656  2.0883 -1.9571
  129OSM   H15B13728   3.683   5.556   2.017 -1.6674 -0.2100  1.1204
  129OSM   H15C13729   3.653   5.386   2.063 -1.8247  1.4207 -1.0301
  129OSM    C1413730   3.756   5.391   2.297 -0.7702  0.0705  0.2006
  129OSM   H14A13731   3.755   5.397   2.405  0.4599 -1.4336  0.3283
  129OSM   H14B13732   3.851   5.366   2.252 -0.9088  0.3445 -0.2496
  129OSM   H14C13733   3.696   5.307   2.267 -0.1233 -0.2214 -0.2867
  129OSM    C1313734   3.812   5.627   2.250 -0.4991 -0.5821 -0.2171
  129OSM   H13A13735   3.914   5.606   2.221 -0.1029  0.5082  0.3604
  129OSM   H13B13736   3.799   5.660   2.351  0.3889  0.4940 -0.4345
  129OSM   H13C13737   3.783   5.711   2.189  1.9100  0.1472 -0.4495
  129OSM    C1213738   3.584   5.558   2.272  0.1445 -0.3750 -0.3031
  129OSM   H12A13739   3.512   5.480   2.250  1.5479 -2.7290  2.6877
  129OSM   H12B13740   3.559   5.652   2.225  0.0357 -0.0126  0.4659
  129OSM    C1113741   3.561   5.586   2.424 -0.2196 -0.0305 -0.0824
  129OSM   H11A13742   3.608   5.506   2.486  0.2072  2.1514  2.5825
  129OSM   H11B13743   3.453   5.593   2.449 -0.3913 -0.2780 -0.7229
  129OSM      P13744   3.551   5.814   2.546  0.2979 -0.0452  0.2748
  129OSM    O1313745   3.644   5.914   2.602  0.3674 -0.0951  0.0701
  129OSM    O1413746   3.443   5.868   2.455 -0.0871 -0.1201 -0.0140
  129OSM    O1113747   3.492   5.724   2.660  0.2107 -0.8132  0.2314
  129OSM    O1213748   3.628   5.709   2.464  0.2065 -0.4372  0.1753
  129OSM    C1S13749   3.563   5.637   2.752  0.1726 -0.2514  0.2096
  129OSM    H1S13750   3.668   5.671   2.762 -0.3851  1.2811  1.2819
  129OSM    H1T13751   3.557   5.534   2.712  1.9990 -1.5847  3.1083
  129OSM     NF13752   3.578   5.569   2.991  0.3315  0.0127  0.0005
  129OSM    HNF13753   3.549   5.477   3.019 -2.5953  0.8647  0.0960
  129OSM    C2S13754   3.497   5.642   2.897  0.1929 -0.0842 -0.5819
  129OSM    H2S13755   3.492   5.751   2.917 -1.1227 -0.1363 -0.5369
  129OSM    C3S13756   3.355   5.589   2.891 -0.0260 -0.1297  0.0330
  129OSM    H3S13757   3.358   5.480   2.869 -1.2812 -0.2899  0.5677
  129OSM     O313758   3.277   5.653   2.795  0.4849  0.1154  0.8467
  129OSM    HO313759   3.337   5.719   2.758 -0.3344 -0.5339 -1.8750
  129OSM    C4S13760   3.282   5.588   3.021  0.4244  0.6640  0.3186
  129OSM    H4S13761   3.267   5.487   3.062  0.3908 -0.3965 -2.1890
  129OSM    C5S13762   3.204   5.685   3.073  0.3095 -1.4791  0.2859
  129OSM    H5S13763   3.196   5.778   3.014  1.2838 -2.0142 -0.7233
  129OSM    C6S13764   3.104   5.673   3.183  0.1795  0.1399 -0.0327
  129OSM    H6S13765   3.010   5.650   3.128  1.0602  1.2482 -2.1266
  129OSM    H6T13766   3.089   5.769   3.237  0.7074 -0.1736  0.6876
  129OSM    C7S13767   3.130   5.574   3.289 -0.3259  0.2528 -0.8061
  129OSM    H7S13768   3.220   5.602   3.348 -0.3886  0.4984 -0.8245
  129OSM    H7T13769   3.145   5.470   3.254 -0.3760  0.2309 -0.7634
  129OSM    C8S13770   3.006   5.554   3.380 -0.1096  0.1327 -0.2209
  129OSM    H8S13771   2.934   5.507   3.309  1.3293  0.2315 -1.8016
  129OSM    H8T13772   2.969   5.648   3.426  2.6841  0.8135  0.8599
  129OSM    C9S13773   3.046   5.459   3.496 -0.3194 -0.4919  0.6832
  129OSM    H9S13774   3.157   5.465   3.499 -0.3379  1.1583 -0.4809
  129OSM    H9T13775   3.016   5.356   3.466  1.0988 -1.2234  1.6642
  129OSM   C10S13776   2.984   5.482   3.629  0.0734  0.6805  0.1374
  129OSM   H10S13777   2.874   5.484   3.617 -0.0779  0.0598  1.2083
  129OSM   H10T13778   3.020   5.573   3.680  0.3613  0.5620  0.1469
  129OSM   C11S13779   2.998   5.355   3.720  0.3111  0.1946  0.1734
  129OSM   H11S13780   3.098   5.307   3.729 -0.7063 -1.7278  2.0086
  129OSM   H11T13781   2.936   5.278   3.670  1.0164  0.5016 -1.2233
  129OSM   C12S13782   2.951   5.388   3.865 -0.5302  0.0057  0.3562
  129OSM   H12S13783   2.856   5.443   3.853 -0.5545 -0.2213 -0.6284
  129OSM   H12T13784   3.023   5.465   3.901 -0.2369  0.2585 -0.7123
  129OSM   C13S13785   2.923   5.277   3.968 -0.1523 -0.6441 -0.7446
  129OSM   H13S13786   2.847   5.203   3.933 -0.0882 -0.2337 -1.7756
  129OSM   H13T13787   2.888   5.317   4.066  0.3548  0.4787 -1.0049
  129OSM   C14S13788   3.052   5.201   4.002  0.5107  0.2265 -0.0175
  129OSM   H14S13789   3.132   5.266   4.043 -0.8390  0.0701  3.1643
  129OSM   H14T13790   3.079   5.145   3.910 -1.2261 -1.1635  0.2608
  129OSM   C15S13791   3.036   5.085   4.098 -0.3474  0.7011 -0.1690
  129OSM   H15S13792   3.130   5.027   4.088 -0.5116  0.3651  0.2214
  129OSM   H15T13793   2.949   5.021   4.073 -0.0392  0.3281 -0.2900
  129OSM   C16S13794   3.031   5.128   4.251  0.2068 -0.1214 -0.1570
  129OSM   H16S13795   2.934   5.182   4.260 -1.0559 -2.4409  1.3454
  129OSM   H16T13796   3.108   5.207   4.262 -1.5192  1.4480  1.6160
  129OSM   C17S13797   3.058   5.007   4.348  1.1671  0.0956  0.3439
  129OSM   H17S13798   2.995   4.925   4.308  1.4320  0.0655 -0.0269
  129OSM   H17T13799   3.014   5.019   4.449  0.7288  1.0932  0.0377
  129OSM   C18S13800   3.201   4.969   4.345 -0.5170  0.2476 -0.6975
  129OSM   H18S13801   3.248   4.989   4.246 -0.3016 -1.0207 -0.8754
  129OSM   H18T13802   3.214   4.859   4.359 -0.5388 -0.0878 -2.8911
  129OSM   H18U13803   3.262   5.023   4.420 -1.5005 -3.2860  2.9716
  129OSM    C1F13804   3.697   5.621   3.025 -0.0846  0.8655 -0.1951
  129OSM     OF13805   3.720   5.735   2.988 -0.2393 -0.3921 -0.0372
  129OSM    C2F13806   3.795   5.535   3.093 -0.0190 -0.6424 -0.3043
  129OSM    H2F13807   3.844   5.476   3.013 -1.5218 -0.6869 -1.2509
  129OSM    H2G13808   3.744   5.469   3.166 -0.4942 -0.0765 -0.1172
  129OSM    C3F13809   3.899   5.628   3.162  0.7458  0.6864 -0.0604
  129OSM    H3F13810   3.848   5.698   3.231  1.7845 -0.5581  2.0599
  129OSM    H3G13811   3.951   5.692   3.087 -0.1015 -0.0223 -1.2944
  129OSM    C4F13812   3.998   5.557   3.239  0.1931  0.1258 -0.5287
  129OSM    H4F13813   4.073   5.626   3.283 -0.3507  0.2797  0.1829
  129OSM    H4G13814   4.053   5.499   3.162 -1.9948 -1.6655 -0.8348
  129OSM    C5F13815   3.951   5.462   3.350 -0.2154  0.2735 -0.6551
  129OSM    H5F13816   4.043   5.409   3.383 -1.8927 -2.2058  0.3181
  129OSM    H5G13817   3.879   5.390   3.306 -1.3265  1.3581 -0.6741
  129OSM    C6F13818   3.894   5.546   3.474  0.0743  0.4310  0.2024
  129OSM    H6F13819   3.827   5.623   3.431  0.1526 -0.6156 -1.9425
  129OSM    H6G13820   3.977   5.607   3.517  1.3430 -0.9098 -0.2642
  129OSM    C7F13821   3.827   5.459   3.582 -0.9346 -0.1052  0.2025
  129OSM    H7F13822   3.906   5.402   3.635  1.1607  2.5613  0.1761
  129OSM    H7G13823   3.763   5.383   3.532 -1.4073  0.4833 -0.1026
  129OSM    C8F13824   3.748   5.536   3.690 -0.2385  0.4972 -0.5115
  129OSM    H8F13825   3.716   5.460   3.765 -0.2453 -0.0170 -1.0292
  129OSM    H8G13826   3.653   5.580   3.652 -0.9896 -0.6308 -0.0145
  129OSM    C9F13827   3.840   5.637   3.760  0.6124  0.0887  0.4615
  129OSM    H9F13828   3.851   5.739   3.721 -0.3489 -0.4515 -1.3356
  129OSM   C10F13829   3.926   5.605   3.860 -0.5812  0.1177  0.0062
  129OSM   H10F13830   4.002   5.680   3.887 -0.5034  0.4510 -1.0596
  129OSM   C11F13831   3.946   5.471   3.921  0.1499 -0.3708  0.1930
  129OSM   H11F13832   4.038   5.425   3.878 -0.0883  0.4663 -1.3018
  129OSM   H11G13833   3.865   5.396   3.906 -1.8724  1.5380  1.1531
  129OSM   C12F13834   3.979   5.488   4.071 -0.0888 -0.7109  0.2726
  129OSM   H12F13835   3.894   5.516   4.138  0.5460  0.6495  0.5356
  129OSM   H12G13836   4.055   5.569   4.078 -0.5275 -0.1668 -1.0551
  129OSM   C13F13837   4.032   5.367   4.139 -0.4818 -0.5218 -0.2212
  129OSM   H13F13838   4.115   5.318   4.084 -2.7285 -1.9776 -2.5301
  129OSM   H13G13839   3.959   5.283   4.135  0.8123 -1.9009  2.2579
  129OSM   C14F13840   4.055   5.388   4.289 -0.6515 -0.2930 -0.3096
  129OSM   H14F13841   3.960   5.406   4.343 -0.3564  0.1694  0.0670
  129OSM   H14G13842   4.115   5.481   4.282 -0.1548 -0.5781  0.0619
  129OSM   C15F13843   4.143   5.283   4.358 -0.4430 -0.5461  0.2197
  129OSM   H15F13844   4.248   5.273   4.325 -0.5780 -2.0410  0.1702
  129OSM   H15G13845   4.101   5.181   4.340 -1.5171 -0.2259  0.7857
  129OSM   C16F13846   4.138   5.291   4.509 -0.6704 -0.1064 -0.0007
  129OSM   H16F13847   4.158   5.192   4.554  0.3047  0.0821 -0.0115
  129OSM   H16G13848   4.039   5.328   4.545 -0.4870 -1.2203  1.7652
  129OSM   C17F13849   4.229   5.398   4.569  0.4060 -0.0145 -0.3298
  129OSM   H17F13850   4.201   5.492   4.517 -2.5560  0.6508  2.1073
  129OSM   H17G13851   4.336   5.371   4.570 -0.0164 -1.8929  1.2218
  129OSM   C18F13852   4.190   5.426   4.715 -0.2605 -0.5593  0.4593
  129OSM   H18F13853   4.161   5.331   4.765  2.7500 -0.9951  1.5487
  129OSM   H18G13854   4.095   5.484   4.713  0.0519 -0.0438 -0.8057
  129OSM   H18H13855   4.266   5.489   4.765  0.3922 -1.3953  0.5444
  130OSM      N13856   5.815   3.442   1.831 -0.6589 -0.0888 -0.2344
  130OSM    C1513857   5.712   3.493   1.742 -0.4425 -0.2207  0.0453
  130OSM   H15A13858   5.622   3.437   1.764  0.9480 -2.5054  0.2131
  130OSM   H15B13859   5.742   3.481   1.639 -0.0508  3.0041 -0.3424
  130OSM   H15C13860   5.692   3.599   1.756 -2.7311 -0.3782 -1.4305
  130OSM    C1413861   5.871   3.314   1.777 -0.2234  0.5178 -0.2482
  130OSM   H14A13862   5.966   3.299   1.826 -0.8940 -0.3078  0.8369
  130OSM   H14B13863   5.897   3.317   1.672  0.2656 -1.7371 -0.2263
  130OSM   H14C13864   5.804   3.230   1.767  0.4909  0.1875 -3.1123
  130OSM    C1313865   5.927   3.542   1.826 -0.7042  0.0914  0.0505
  130OSM   H13A13866   5.963   3.545   1.725 -3.0058  0.1306 -0.8290
  130OSM   H13B13867   6.013   3.518   1.887 -0.4471  1.7877  0.4098
  130OSM   H13C13868   5.906   3.647   1.842  1.2219  0.3692  1.1038
  130OSM    C1213869   5.775   3.425   1.977  0.9382  0.2047  1.0662
  130OSM   H12A13870   5.706   3.341   1.982  1.6384 -0.4353  0.2706
  130OSM   H12B13871   5.725   3.518   2.002 -0.1134  0.8012 -2.5523
  130OSM    C1113872   5.880   3.382   2.079 -0.0518  0.1135  0.3532
  130OSM   H11A13873   5.941   3.303   2.029  1.5129  2.4200 -1.5846
  130OSM   H11B13874   5.822   3.341   2.164 -0.2659  0.0779  0.1934
  130OSM      P13875   5.911   3.623   2.173 -0.4205  0.1285  0.2106
  130OSM    O1313876   5.979   3.722   2.091 -0.4498  0.1788 -0.2282
  130OSM    O1413877   5.761   3.623   2.158 -0.4537  0.1049 -0.2915
  130OSM    O1113878   5.958   3.636   2.323 -0.5247 -0.6474  0.4681
  130OSM    O1213879   5.971   3.487   2.125 -0.2624  0.6444 -0.4084
  130OSM    C1S13880   5.971   3.537   2.419 -0.4066  0.3765 -0.4369
  130OSM    H1S13881   6.078   3.524   2.445 -0.4035  1.7329  0.2962
  130OSM    H1T13882   5.915   3.446   2.389 -1.4609  1.4611 -1.8817
  130OSM     NF13883   5.969   3.503   2.670  0.9951 -0.3504  0.3196
  130OSM    HNF13884   5.881   3.457   2.685 -0.6231  0.7392 -4.1895
  130OSM    C2S13885   5.933   3.596   2.556  0.7922  0.5836 -0.8133
  130OSM    H2S13886   5.994   3.688   2.570  0.6426  0.7309 -1.1389
  130OSM    C3S13887   5.779   3.641   2.553  0.5907  0.0202 -0.4594
  130OSM    H3S13888   5.721   3.549   2.529 -0.1666 -0.7611  3.6192
  130OSM     O313889   5.744   3.744   2.462 -0.1674 -0.3808  0.4874
  130OSM    HO313890   5.823   3.753   2.409 -0.1981 -0.7252  0.3803
  130OSM    C4S13891   5.732   3.678   2.692  0.1876 -0.3924  0.1737
  130OSM    H4S13892   5.815   3.739   2.729  0.9798  1.2196 -3.8095
  130OSM    C5S13893   5.616   3.645   2.749 -0.0479  0.8168 -0.0656
  130OSM    H5S13894   5.541   3.600   2.682  1.1519  0.7577 -1.4031
  130OSM    C6S13895   5.568   3.686   2.889  0.8966  0.5762 -0.1796
  130OSM    H6S13896   5.644   3.761   2.920 -0.2020  1.4915  0.3817
  130OSM    H6T13897   5.565   3.604   2.964 -1.5334  0.8217  0.0792
  130OSM    C7S13898   5.442   3.771   2.894 -0.6881 -0.6265  0.6497
  130OSM    H7S13899   5.351   3.707   2.898 -1.5751  0.3934 -1.3163
  130OSM    H7T13900   5.433   3.843   2.809  0.8860  0.0944  1.0658
  130OSM    C8S13901   5.441   3.861   3.021  0.0481 -0.0635 -0.0912
  130OSM    H8S13902   5.363   3.936   2.997 -2.4898 -1.6819  2.4492
  130OSM    H8T13903   5.537   3.915   3.031  0.6395 -1.3986  1.9177
  130OSM    C9S13904   5.417   3.803   3.158  0.5018 -0.8359 -0.2441
  130OSM    H9S13905   5.473   3.707   3.153 -1.3884 -1.9984 -0.3282
  130OSM    H9T13906   5.316   3.759   3.174  0.4370 -0.3234  0.8104
  130OSM   C10S13907   5.472   3.893   3.269  0.4912  0.8094  0.2390
  130OSM   H10S13908   5.576   3.925   3.248  0.8961 -0.1697  0.6434
  130OSM   H10T13909   5.473   3.835   3.364  0.3507 -1.6312 -1.1637
  130OSM   C11S13910   5.394   4.026   3.281 -0.4988 -0.2797  0.1134
  130OSM   H11S13911   5.402   4.082   3.185  2.2004 -0.3058  0.2267
  130OSM   H11T13912   5.446   4.085   3.360  0.6793  1.5693 -1.9133
  130OSM   C12S13913   5.249   4.012   3.327 -0.4652 -0.0529  0.2009
  130OSM   H12S13914   5.251   3.967   3.429 -0.2002 -1.5042 -0.4331
  130OSM   H12T13915   5.188   3.949   3.258 -0.8363  2.1054 -1.5551
  130OSM   C13S13916   5.193   4.157   3.340  0.8248  0.2716  0.1139
  130OSM   H13S13917   5.083   4.141   3.350  1.1317 -1.3156  1.2643
  130OSM   H13T13918   5.220   4.214   3.248 -0.1631  1.5313  0.5742
  130OSM   C14S13919   5.235   4.238   3.459  0.1594  0.4008 -0.2065
  130OSM   H14S13920   5.160   4.320   3.460 -0.5777 -0.2169  2.1101
  130OSM   H14T13921   5.343   4.262   3.454  0.5280 -1.0744  0.2165
  130OSM   C15S13922   5.207   4.179   3.599  0.2273 -0.2573  0.3414
  130OSM   H15S13923   5.243   4.252   3.674 -0.2780  1.9473 -1.4474
  130OSM   H15T13924   5.278   4.094   3.611 -0.2886 -0.6364  0.7834
  130OSM   C16S13925   5.060   4.154   3.628  0.1647 -0.3707 -0.3478
  130OSM   H16S13926   5.038   4.049   3.597 -2.3141  0.0139 -0.0211
  130OSM   H16T13927   4.986   4.217   3.574 -0.0974 -0.2730  0.1249
  130OSM   C17S13928   5.033   4.162   3.784 -0.6709  0.5918  0.9128
  130OSM   H17S13929   5.055   4.259   3.832  0.7238  1.7869 -1.8892
  130OSM   H17T13930   5.104   4.084   3.819 -1.9812 -1.3295 -0.4256
  130OSM   C18S13931   4.897   4.115   3.825 -0.2864 -0.0812  0.9876
  130OSM   H18S13932   4.884   4.068   3.925  1.9129 -0.9126  0.9406
  130OSM   H18T13933   4.858   4.043   3.749 -2.0681  1.1957  0.6242
  130OSM   H18U13934   4.821   4.195   3.813  0.8316  0.7145 -1.5082
  130OSM    C1F13935   6.094   3.488   2.698 -0.4888  0.3817 -0.2812
  130OSM     OF13936   6.182   3.564   2.657  0.2869  0.6527  0.2184
  130OSM    C2F13937   6.121   3.396   2.815  0.2598  0.2820  0.6126
  130OSM    H2F13938   6.215   3.338   2.803  0.1839  0.3352 -0.3250
  130OSM    H2G13939   6.049   3.312   2.819 -0.2257  0.6655  0.0042
  130OSM    C3F13940   6.139   3.478   2.945  0.4193 -0.4585  0.2959
  130OSM    H3F13941   6.211   3.561   2.929  1.7711 -0.9789  3.1239
  130OSM    H3G13942   6.163   3.421   3.037 -0.5264  0.9215  1.4284
  130OSM    C4F13943   6.003   3.541   2.992 -0.5657 -0.3273 -0.0837
  130OSM    H4F13944   5.919   3.468   2.994 -0.7129 -0.1525  0.1256
  130OSM    H4G13945   5.968   3.621   2.924  0.2610  0.6097  0.5732
  130OSM    C5F13946   6.002   3.604   3.138  0.1821 -0.3867 -0.4212
  130OSM    H5F13947   6.089   3.670   3.158  0.4175 -0.2969 -1.6614
  130OSM    H5G13948   6.001   3.529   3.220 -1.5619  0.8603  0.7802
  130OSM    C6F13949   5.867   3.677   3.165 -0.4310 -0.6170  0.3172
  130OSM    H6F13950   5.799   3.591   3.183 -1.3536  0.0094 -0.0552
  130OSM    H6G13951   5.827   3.733   3.078  0.2735 -0.4879  0.0694
  130OSM    C7F13952   5.871   3.781   3.286 -0.0998  0.3181 -0.4391
  130OSM    H7F13953   5.767   3.798   3.321  0.0596  0.3142  0.0394
  130OSM    H7G13954   5.924   3.875   3.258  0.4948  0.2196  0.3388
  130OSM    C8F13955   5.949   3.727   3.409  0.1072 -0.8582  0.0715
  130OSM    H8F13956   6.056   3.719   3.383  0.1453  0.8631 -0.4183
  130OSM    H8G13957   5.911   3.626   3.436  2.7659 -1.7121  0.9793
  130OSM    C9F13958   5.935   3.825   3.519 -0.8450  0.4146  0.3337
  130OSM    H9F13959   5.972   3.923   3.485 -0.8535  0.7637  1.3033
  130OSM   C10F13960   5.902   3.787   3.648  0.4342  0.3484  0.1111
  130OSM   H10F13961   5.927   3.853   3.733 -0.8099 -0.8670  1.4991
  130OSM   C11F13962   5.861   3.658   3.709 -0.0214  0.2297 -0.0123
  130OSM   H11F13963   5.835   3.577   3.638 -1.9394 -0.7791  1.7423
  130OSM   H11G13964   5.774   3.682   3.773  0.0516 -1.0294  0.5942
  130OSM   C12F13965   5.970   3.580   3.791  0.1864  0.0059 -0.2809
  130OSM   H12F13966   6.014   3.642   3.872 -1.1390  1.2526 -0.4688
  130OSM   H12G13967   6.049   3.542   3.723  2.0164 -2.2860  2.8745
  130OSM   C13F13968   5.902   3.456   3.850 -0.7213  0.1506  0.3060
  130OSM   H13F13969   5.849   3.410   3.763  0.0805  1.8651 -1.1576
  130OSM   H13G13970   5.828   3.489   3.926 -1.2192  1.1446 -0.5953
  130OSM   C14F13971   5.994   3.345   3.899 -0.6834 -0.1928 -0.3932
  130OSM   H14F13972   6.062   3.415   3.954  0.9212  1.7026 -4.3464
  130OSM   H14G13973   6.048   3.290   3.819  1.1516 -1.4190  1.5612
  130OSM   C15F13974   5.919   3.250   3.991  0.2717 -0.1059 -0.6370
  130OSM   H15F13975   5.869   3.168   3.935  1.7501 -1.3427 -0.2157
  130OSM   H15G13976   5.841   3.313   4.039  0.5107  2.3961 -3.3031
  130OSM   C16F13977   6.008   3.178   4.089 -0.0497  0.7226 -0.0775
  130OSM   H16F13978   6.103   3.233   4.103 -0.9894  2.2531  0.5887
  130OSM   H16G13979   6.042   3.079   4.051 -0.4771  0.8458 -0.8088
  130OSM   C17F13980   5.946   3.161   4.228  0.2777  0.2575 -1.1660
  130OSM   H17F13981   5.851   3.105   4.217  1.1691 -1.0858 -2.2952
  130OSM   H17G13982   5.915   3.259   4.271 -0.8780  1.3223 -4.1721
  130OSM   C18F13983   6.045   3.074   4.308  0.0217  0.0929  0.4789
  130OSM   H18F13984   6.004   3.078   4.412  0.4728  1.1712  0.6218
  130OSM   H18G13985   6.145   3.121   4.308 -0.7080  1.7213  1.0798
  130OSM   H18H13986   6.046   2.969   4.272  0.0718 -0.0360  0.8437
  131OSM      N13987   2.083   1.935   2.186  0.0671  0.2791  0.7531
  131OSM    C1513988   2.181   1.832   2.242 -0.5693  0.5117 -0.5167
  131OSM   H15A13989   2.248   1.871   2.317 -2.8780 -0.0958  2.0409
  131OSM   H15B13990   2.232   1.780   2.163 -1.5005 -0.6608 -0.3740
  131OSM   H15C13991   2.120   1.766   2.303  2.1489 -1.1442  0.5802
  131OSM    C1413992   2.153   2.033   2.103  0.3412  0.0722  0.2792
  131OSM   H14A13993   2.200   1.986   2.017  1.4920 -2.0481  1.9741
  131OSM   H14B13994   2.230   2.079   2.163  1.3342 -2.7357  1.2750
  131OSM   H14C13995   2.090   2.115   2.073 -0.3708 -1.1781 -1.8565
  131OSM    C1313996   1.986   1.861   2.095  0.1343 -0.4474  0.1043
  131OSM   H13A13997   1.936   1.783   2.150  2.3489 -0.6872  1.9441
  131OSM   H13B13998   2.036   1.810   2.014  0.5603  0.6911 -0.3735
  131OSM   H13C13999   1.915   1.930   2.052 -1.4479 -1.8463  0.3755
  131OSM    C1214000   2.012   1.998   2.303  0.6502  0.0990  0.4311
  131OSM   H12A14001   1.937   1.929   2.341  0.6491 -0.6259 -0.8309
  131OSM   H12B14002   1.954   2.080   2.265 -0.3702 -0.6710  0.2704
  131OSM    C1114003   2.096   2.056   2.422 -0.3352 -0.5774  0.0640
  131OSM   H11A14004   2.134   1.974   2.486  3.2160  0.8933  0.0513
  131OSM   H11B14005   2.030   2.110   2.493 -1.6128 -0.1198 -1.4015
  131OSM      P14006   2.356   2.114   2.406  0.1844  0.2991 -0.0847
  131OSM    O1314007   2.417   2.077   2.272 -0.1979  0.0675 -0.7820
  131OSM    O1414008   2.403   2.227   2.478 -0.6962 -0.3694  0.0814
  131OSM    O1114009   2.363   1.983   2.500  0.4527 -0.4910 -0.0829
  131OSM    O1214010   2.202   2.141   2.376 -0.1713  0.4164  0.0749
  131OSM    C1S14011   2.482   1.946   2.574  0.0311  0.6445  0.2156
  131OSM    H1S14012   2.568   2.011   2.548 -0.0619  0.6338 -0.1262
  131OSM    H1T14013   2.501   1.839   2.552 -2.6954 -0.6475  3.3174
  131OSM     NF14014   2.593   1.943   2.800  0.3009 -0.9469 -0.1616
  131OSM    HNF14015   2.633   1.853   2.817  1.8984 -0.2627 -0.1304
  131OSM    C2S14016   2.464   1.950   2.732  0.4075 -0.0578  0.1725
  131OSM    H2S14017   2.429   2.053   2.750  0.4391  0.2173 -1.2232
  131OSM    C3S14018   2.366   1.840   2.777  0.6131 -0.5329 -0.3185
  131OSM    H3S14019   2.401   1.736   2.758 -1.0249 -1.1835  0.0573
  131OSM     O314020   2.239   1.842   2.706  0.3915  0.1950 -0.4537
  131OSM    HO314021   2.265   1.897   2.631  0.5724 -2.0630 -2.1868
  131OSM    C4S14022   2.333   1.851   2.923  0.7185 -1.0009 -0.3001
  131OSM    H4S14023   2.255   1.924   2.951 -0.3734 -1.7104 -1.4119
  131OSM    C5S14024   2.355   1.756   3.014 -0.0054 -0.0740 -0.6106
  131OSM    H5S14025   2.415   1.669   2.982  0.8226  0.6082 -0.9304
  131OSM    C6S14026   2.284   1.755   3.147 -0.2027  0.2651 -0.3050
  131OSM    H6S14027   2.236   1.656   3.161  0.2289 -0.2134 -1.9890
  131OSM    H6T14028   2.203   1.829   3.166 -1.7551 -1.5425  0.5593
  131OSM    C7S14029   2.384   1.774   3.263  0.5052  0.1519  0.4533
  131OSM    H7S14030   2.434   1.874   3.265 -1.1727  1.0400  2.6129
  131OSM    H7T14031   2.454   1.691   3.238 -0.4860  0.4179 -3.8469
  131OSM    C8S14032   2.314   1.751   3.392  0.0148  0.4581 -0.8236
  131OSM    H8S14033   2.258   1.655   3.386 -0.2851  0.6764 -1.6263
  131OSM    H8T14034   2.232   1.821   3.416 -0.0452  0.3428 -0.6875
  131OSM    C9S14035   2.412   1.766   3.508  0.1081  0.1380 -0.1211
  131OSM    H9S14036   2.485   1.847   3.494  0.4142  0.1039  1.2020
  131OSM    H9T14037   2.471   1.672   3.511 -0.4580 -0.1973  2.2251
  131OSM   C10S14038   2.338   1.792   3.634 -0.7451 -0.3889 -0.1610
  131OSM   H10S14039   2.249   1.727   3.651  0.6775 -2.2865  0.3435
  131OSM   H10T14040   2.297   1.895   3.631 -0.2345 -0.1886 -0.3151
  131OSM   C11S14041   2.440   1.772   3.749 -0.0025  0.7392  0.9225
  131OSM   H11S14042   2.492   1.870   3.756  1.1972  0.0573  1.8744
  131OSM   H11T14043   2.512   1.692   3.725 -2.4129 -1.2821 -0.0024
  131OSM   C12S14044   2.374   1.741   3.883  0.0665  0.0375  0.2934
  131OSM   H12S14045   2.322   1.643   3.876 -0.0915  0.2125 -1.8759
  131OSM   H12T14046   2.292   1.808   3.914 -1.2182 -0.3418 -2.0247
  131OSM   C13S14047   2.485   1.746   3.993  0.5889 -0.1979 -0.3346
  131OSM   H13S14048   2.541   1.841   3.979 -2.0788  1.3317 -1.4997
  131OSM   H13T14049   2.558   1.664   3.978  0.7923 -0.5981  2.3360
  131OSM   C14S14050   2.420   1.740   4.132  0.6978 -0.4146 -0.2811
  131OSM   H14S14051   2.335   1.811   4.141 -0.9035 -2.0899 -1.4136
  131OSM   H14T14052   2.491   1.770   4.212 -0.7721 -1.3185  1.4664
  131OSM   C15S14053   2.358   1.611   4.173 -0.0137 -0.2476 -0.3985
  131OSM   H15S14054   2.416   1.525   4.133  1.2285 -0.7948  2.3779
  131OSM   H15T14055   2.255   1.588   4.138 -0.6244 -1.4861  1.9662
  131OSM   C16S14056   2.358   1.595   4.323 -0.0752 -0.2886 -0.7865
  131OSM   H16S14057   2.270   1.648   4.365  1.4576  0.5097  1.6361
  131OSM   H16T14058   2.451   1.619   4.379  0.2490 -1.4099 -0.8124
  131OSM   C17S14059   2.338   1.450   4.366  0.3692  0.2153  0.0979
  131OSM   H17S14060   2.413   1.376   4.329 -1.1524 -0.7838 -1.1265
  131OSM   H17T14061   2.239   1.416   4.327 -0.1123  1.2610  0.3757
  131OSM   C18S14062   2.344   1.440   4.511  0.0053 -0.3154 -0.3573
  131OSM   H18S14063   2.307   1.348   4.560  0.3746 -0.4023 -0.2456
  131OSM   H18T14064   2.285   1.518   4.564 -0.1185 -1.5145  1.3128
  131OSM   H18U14065   2.449   1.459   4.541 -0.0809  1.0329 -0.8408
  131OSM    C1F14066   2.678   2.042   2.798 -0.2790  0.3380  0.6147
  131OSM     OF14067   2.658   2.143   2.731 -0.0286  0.3163  0.1516
  131OSM    C2F14068   2.806   2.036   2.868 -0.9640  0.4244 -0.0268
  131OSM    H2F14069   2.878   2.103   2.816 -0.1794 -0.1913  0.2507
  131OSM    H2G14070   2.851   1.935   2.862 -0.4519  0.4867  2.0441
  131OSM    C3F14071   2.779   2.061   3.019 -0.0978  0.6305  0.8899
  131OSM    H3F14072   2.728   1.970   3.058 -0.8492 -0.3398 -2.0734
  131OSM    H3G14073   2.717   2.153   3.025  0.6635  1.1160  1.4921
  131OSM    C4F14074   2.901   2.084   3.101  0.5068  0.4202 -0.8010
  131OSM    H4F14075   2.927   2.188   3.072  1.1038  1.1678  2.0508
  131OSM    H4G14076   2.982   2.013   3.075  0.0497  0.8201 -3.6165
  131OSM    C5F14077   2.872   2.070   3.249  0.8126  0.3156  0.2306
  131OSM    H5F14078   2.823   1.976   3.280  2.4565 -0.3538  0.8900
  131OSM    H5G14079   2.798   2.148   3.277 -1.0079 -1.5067  0.6558
  131OSM    C6F14080   2.989   2.088   3.346  0.5917 -0.0539 -0.7713
  131OSM    H6F14081   3.011   2.196   3.360  2.0855 -0.2665 -1.3035
  131OSM    H6G14082   3.070   2.043   3.285  1.8216  0.6516  0.3003
  131OSM    C7F14083   2.979   2.011   3.481  0.0092  0.2075  0.1986
  131OSM    H7F14084   3.000   1.903   3.466  0.8805  0.5584 -1.3453
  131OSM    H7G14085   2.874   2.014   3.518 -1.2324 -0.5644 -2.9241
  131OSM    C8F14086   3.074   2.067   3.590 -0.4332  0.1692 -0.1181
  131OSM    H8F14087   3.179   2.067   3.554 -0.8253  2.5361 -1.4115
  131OSM    H8G14088   3.069   1.989   3.669 -1.8508  0.0617 -0.2839
  131OSM    C9F14089   3.017   2.198   3.636  0.0987  0.5314  0.2749
  131OSM    H9F14090   3.058   2.290   3.593  1.2945  0.3752  1.0173
  131OSM   C10F14091   2.930   2.213   3.735  0.1076 -0.0697  0.6455
  131OSM   H10F14092   2.900   2.314   3.767  0.1697 -0.4408  1.9252
  131OSM   C11F14093   2.862   2.106   3.818 -0.1387 -0.3479 -0.4675
  131OSM   H11F14094   2.889   2.005   3.780  1.6023  0.8227 -2.5311
  131OSM   H11G14095   2.751   2.114   3.811 -0.1496 -0.5713 -0.5827
  131OSM   C12F14096   2.897   2.092   3.967 -0.3797  0.0643 -0.0826
  131OSM   H12F14097   2.872   2.193   4.007 -1.8540 -1.4244  3.1004
  131OSM   H12G14098   3.007   2.080   3.980 -0.7387 -0.9131  2.7416
  131OSM   C13F14099   2.824   1.983   4.040  0.1380  0.1146 -0.5668
  131OSM   H13F14100   2.816   1.887   3.983  1.8191  0.0180 -0.6761
  131OSM   H13G14101   2.715   2.006   4.045 -0.0267 -0.2619 -1.8939
  131OSM   C14F14102   2.881   1.939   4.173 -0.2239 -0.3443  0.7350
  131OSM   H14F14103   2.906   2.026   4.238  2.1758 -0.0244 -0.4729
  131OSM   H14G14104   2.977   1.890   4.147 -0.3297  0.3462 -1.1195
  131OSM   C15F14105   2.795   1.849   4.254  0.7074  0.7866 -0.0425
  131OSM   H15F14106   2.752   1.760   4.203 -1.1596  1.7557 -0.2515
  131OSM   H15G14107   2.707   1.911   4.281  0.1629  0.3682 -0.8354
  131OSM   C16F14108   2.862   1.809   4.386 -0.8894 -0.7740 -1.5892
  131OSM   H16F14109   2.910   1.898   4.431  0.2948 -1.8764 -0.5910
  131OSM   H16G14110   2.948   1.743   4.364  0.8611  0.2869  1.5040
  131OSM   C17F14111   2.771   1.749   4.496 -0.2280  0.8581 -0.1403
  131OSM   H17F14112   2.668   1.788   4.480 -0.8265 -0.6618 -0.1130
  131OSM   H17G14113   2.808   1.770   4.599 -1.4801 -0.4521  0.6274
  131OSM   C18F14114   2.766   1.600   4.489 -0.6194  0.7388 -0.0324
  131OSM   H18F14115   2.703   1.550   4.566 -1.1054 -1.0132 -1.5118
  131OSM   H18G14116   2.873   1.575   4.503 -0.9713 -0.1300  1.3190
  131OSM   H18H14117   2.738   1.567   4.387 -0.2856  1.6095 -0.4174
  132OSM      N14118   1.137   3.220   2.184 -0.3168 -0.5376  0.6246
  132OSM    C1514119   1.256   3.275   2.111  0.4907  0.2232 -0.3952
  132OSM   H15A14120   1.338   3.205   2.119  0.7108  0.6439  1.1869
  132OSM   H15B14121   1.288   3.365   2.161  0.2226  0.5124 -0.7389
  132OSM   H15C14122   1.230   3.304   2.010 -0.5093 -0.5774 -0.3861
  132OSM    C1414123   1.183   3.173   2.320 -0.2018 -0.0576 -0.1147
  132OSM   H14A14124   1.096   3.153   2.382 -0.0161 -0.6994 -0.0482
  132OSM   H14B14125   1.247   3.245   2.368  1.6856 -0.2448 -2.2179
  132OSM   H14C14126   1.233   3.078   2.311 -0.9673 -0.5745  0.7753
  132OSM    C1314127   1.049   3.344   2.206 -1.1665  0.4196  0.3102
  132OSM   H13A14128   1.097   3.413   2.273 -0.1497  0.9553 -0.9154
  132OSM   H13B14129   0.953   3.323   2.250 -0.3636  0.4383  2.1679
  132OSM   H13C14130   1.036   3.405   2.117 -1.5797 -1.0102 -0.6533
  132OSM    C1214131   1.060   3.114   2.111 -0.2127  0.4537  0.1088
  132OSM   H12A14132   1.017   3.178   2.036 -0.8454  1.6889  1.4798
  132OSM   H12B14133   0.979   3.089   2.178 -1.3046 -0.5540 -1.5209
  132OSM    C1114134   1.128   2.989   2.047  0.1673 -0.0811  0.8025
  132OSM   H11A14135   1.210   3.017   1.978 -2.0946  0.5547 -1.7871
  132OSM   H11B14136   1.059   2.928   1.985 -0.1414 -0.2657  1.3167
  132OSM      P14137   1.079   2.820   2.246 -0.3685  0.0382  0.7215
  132OSM    O1314138   1.001   2.915   2.331 -0.4311  0.7162 -0.2996
  132OSM    O1414139   1.010   2.718   2.156 -0.7404  0.0264 -0.2930
  132OSM    O1114140   1.179   2.737   2.344  0.2134 -0.1209  0.4547
  132OSM    O1214141   1.178   2.911   2.158  0.1365  0.3968 -0.4378
  132OSM    C1S14142   1.306   2.795   2.389  0.4496 -0.0348  0.0263
  132OSM    H1S14143   1.296   2.906   2.389 -1.7432 -0.1290  1.9025
  132OSM    H1T14144   1.391   2.772   2.322 -1.7852  0.1697 -3.1223
  132OSM     NF14145   1.447   2.835   2.589 -0.0543  0.1455 -0.1239
  132OSM    HNF14146   1.535   2.789   2.591 -1.1437 -2.1304 -0.5919
  132OSM    C2S14147   1.340   2.753   2.538  0.1389 -0.4703 -0.1589
  132OSM    H2S14148   1.249   2.769   2.602 -0.3612  0.7701 -1.1368
  132OSM    C3S14149   1.378   2.606   2.539  0.7379 -0.2537 -0.3533
  132OSM    H3S14150   1.473   2.596   2.482  0.0093  1.4277 -1.9653
  132OSM     O314151   1.282   2.519   2.476  0.6074  0.0584  0.3893
  132OSM    HO314152   1.214   2.581   2.446 -1.5393 -1.7632  1.1807
  132OSM    C4S14153   1.400   2.544   2.674  0.4841 -0.4757 -0.3930
  132OSM    H4S14154   1.330   2.590   2.747 -0.8615 -0.1000 -1.8609
  132OSM    C5S14155   1.499   2.461   2.717 -0.5045  0.6338  0.7110
  132OSM    H5S14156   1.572   2.425   2.643 -0.1350  0.4491  1.1608
  132OSM    C6S14157   1.532   2.426   2.859  0.3030  0.0288  0.1512
  132OSM    H6S14158   1.531   2.315   2.869  1.7525 -0.0096  0.0488
  132OSM    H6T14159   1.459   2.469   2.931  0.8853  3.3297 -1.0499
  132OSM    C7S14160   1.665   2.467   2.916 -0.4423 -0.4442  0.5274
  132OSM    H7S14161   1.662   2.577   2.925  0.8452 -0.2074 -1.3761
  132OSM    H7T14162   1.744   2.440   2.843  1.8812 -0.5276  2.9464
  132OSM    C8S14163   1.694   2.407   3.049 -0.0138  0.1475 -0.2581
  132OSM    H8S14164   1.797   2.426   3.086  0.7366 -3.2436 -0.2564
  132OSM    H8T14165   1.694   2.296   3.043  0.9825  0.1600 -0.7360
  132OSM    C9S14166   1.611   2.461   3.165  0.1334  0.0961 -0.3366
  132OSM    H9S14167   1.507   2.463   3.128  0.1598  0.2214 -0.4035
  132OSM    H9T14168   1.650   2.563   3.186  1.6449 -0.9160  2.2560
  132OSM   C10S14169   1.630   2.376   3.292  0.5512 -0.7428  0.2024
  132OSM   H10S14170   1.567   2.287   3.275  1.5872 -1.5146  0.3011
  132OSM   H10T14171   1.582   2.426   3.379 -2.1332 -1.8150 -0.5709
  132OSM   C11S14172   1.770   2.330   3.325 -0.2870  0.1656 -0.1302
  132OSM   H11S14173   1.842   2.415   3.326  2.0475 -1.6224 -2.1825
  132OSM   H11T14174   1.797   2.272   3.234 -0.1841  0.2386 -0.1467
  132OSM   C12S14175   1.795   2.242   3.451 -0.0564  0.7097  0.4670
  132OSM   H12S14176   1.899   2.203   3.447 -1.1401 -2.5611  1.1387
  132OSM   H12T14177   1.717   2.164   3.454  1.9774 -1.6755 -2.2026
  132OSM   C13S14178   1.789   2.318   3.580  0.1737  0.3109 -0.0756
  132OSM   H13S14179   1.694   2.299   3.635  1.3527 -0.2812  1.8766
  132OSM   H13T14180   1.818   2.425   3.576  0.1529  0.4869  2.4665
  132OSM   C14S14181   1.876   2.263   3.687 -1.0680  0.2568 -0.8055
  132OSM   H14S14182   1.975   2.307   3.666 -0.0757 -0.8833  1.1378
  132OSM   H14T14183   1.899   2.155   3.695  1.3296  0.7319 -0.3373
  132OSM   C15S14184   1.844   2.317   3.830 -0.6732  0.4162 -0.6274
  132OSM   H15S14185   1.744   2.280   3.862  1.3091 -5.2117  0.2988
  132OSM   H15T14186   1.842   2.427   3.838  2.3109  0.6960 -2.4437
  132OSM   C16S14187   1.957   2.288   3.930 -0.7535 -0.2495  0.2754
  132OSM   H16S14188   2.048   2.336   3.889 -0.3817  0.3161  1.6813
  132OSM   H16T14189   1.966   2.177   3.933 -1.6424 -0.3245  0.4416
  132OSM   C17S14190   1.953   2.349   4.073 -0.2581  0.4728 -0.1414
  132OSM   H17S14191   1.925   2.457   4.066 -5.3333 -0.6233 -0.0578
  132OSM   H17T14192   2.055   2.353   4.117  0.2263  2.2018 -1.3154
  132OSM   C18S14193   1.855   2.282   4.177  0.0257  0.0390 -0.4811
  132OSM   H18S14194   1.883   2.175   4.192  1.2041 -0.0886 -3.0080
  132OSM   H18T14195   1.757   2.288   4.126 -0.3464  4.1230  0.3733
  132OSM   H18U14196   1.841   2.337   4.272  0.3731  1.0076 -0.9814
  132OSM    C1F14197   1.438   2.962   2.624 -0.2733 -0.5624 -0.5223
  132OSM     OF14198   1.344   3.036   2.600  0.0327 -0.2549  0.1137
  132OSM    C2F14199   1.564   3.023   2.676 -1.3519 -0.7159 -0.1982
  132OSM    H2F14200   1.598   3.095   2.598 -1.7672  0.4707  0.6739
  132OSM    H2G14201   1.651   2.955   2.687  0.3334  0.9002 -2.4762
  132OSM    C3F14202   1.551   3.096   2.808  0.4496 -0.4884 -0.4921
  132OSM    H3F14203   1.484   3.180   2.780 -0.4341 -1.6393 -1.9444
  132OSM    H3G14204   1.652   3.125   2.845 -0.2458  1.4808 -0.0285
  132OSM    C4F14205   1.484   3.011   2.920  0.4584 -0.1509  0.7387
  132OSM    H4F14206   1.373   3.009   2.914  0.3435  0.7912  2.0431
  132OSM    H4G14207   1.504   3.072   3.011  2.4493 -1.1126  1.0023
  132OSM    C5F14208   1.527   2.866   2.938 -0.6560 -0.2544  0.2197
  132OSM    H5F14209   1.634   2.865   2.971 -0.4154 -0.3707 -0.5433
  132OSM    H5G14210   1.529   2.809   2.843 -0.1271 -0.3385  0.2734
  132OSM    C6F14211   1.441   2.792   3.049 -0.6820 -0.2842 -0.2079
  132OSM    H6F14212   1.474   2.688   3.069 -1.7259 -0.7277 -0.7103
  132OSM    H6G14213   1.336   2.777   3.014 -0.3433  0.5473 -1.6661
  132OSM    C7F14214   1.429   2.854   3.188 -0.4356  0.0324  0.0178
  132OSM    H7F14215   1.397   2.776   3.261  0.6092 -0.9179 -0.5196
  132OSM    H7G14216   1.354   2.936   3.192  0.3924  0.7615  2.0134
  132OSM    C8F14217   1.563   2.911   3.247 -0.3515  0.7638  0.0486
  132OSM    H8F14218   1.620   2.978   3.179 -0.1421  0.3620 -0.1750
  132OSM    H8G14219   1.642   2.833   3.258  1.2772  2.6834  3.8926
  132OSM    C9F14220   1.537   2.981   3.377 -0.5178  0.6160  0.2094
  132OSM    H9F14221   1.532   3.091   3.378  2.0218  0.7709  0.6747
  132OSM   C10F14222   1.535   2.920   3.501 -0.4363  0.0284  0.6838
  132OSM   H10F14223   1.545   2.985   3.589  0.7997 -0.3690  0.8597
  132OSM   C11F14224   1.538   2.774   3.524 -0.3841 -0.0089  0.2800
  132OSM   H11F14225   1.503   2.718   3.434 -1.5688 -3.2772  2.5719
  132OSM   H11G14226   1.477   2.738   3.609  0.6628 -0.4699  0.8585
  132OSM   C12F14227   1.678   2.721   3.564 -0.0467  0.0386 -0.5397
  132OSM   H12F14228   1.752   2.718   3.482 -0.0714  0.2317 -0.5705
  132OSM   H12G14229   1.674   2.617   3.602  1.6108  0.5341  1.1258
  132OSM   C13F14230   1.738   2.801   3.682  0.6090 -0.2231 -0.1656
  132OSM   H13F14231   1.665   2.816   3.764 -0.8531 -0.5099 -1.3792
  132OSM   H13G14232   1.761   2.906   3.653 -1.9648  0.5216  0.3043
  132OSM   C14F14233   1.865   2.736   3.745 -0.1149  0.7138 -0.4122
  132OSM   H14F14234   1.932   2.711   3.660 -0.6899  0.8842 -0.9243
  132OSM   H14G14235   1.835   2.639   3.790  0.3236  1.2139  1.0291
  132OSM   C15F14236   1.923   2.815   3.861  0.1695 -1.1319  0.4406
  132OSM   H15F14237   1.849   2.852   3.935  0.8170  1.1205  0.0507
  132OSM   H15G14238   1.976   2.907   3.825  3.0338 -2.1751  1.6663
  132OSM   C16F14239   2.022   2.732   3.945 -0.3801  0.0809  0.7027
  132OSM   H16F14240   2.106   2.694   3.884 -2.0838 -2.5046 -0.1901
  132OSM   H16G14241   1.967   2.646   3.989  0.1130 -0.4374  0.3181
  132OSM   C17F14242   2.078   2.813   4.067  0.0408  0.4734 -0.3605
  132OSM   H17F14243   2.122   2.901   4.015 -0.7896 -0.6580 -3.1914
  132OSM   H17G14244   2.167   2.759   4.106  0.5992  1.8149  0.2871
  132OSM   C18F14245   1.984   2.862   4.171  0.5096 -0.2749  0.1207
  132OSM   H18F14246   1.921   2.942   4.128  1.0635  0.4340  0.6025
  132OSM   H18G14247   2.031   2.897   4.265  2.2616 -0.7186 -0.5371
  132OSM   H18H14248   1.920   2.784   4.217 -1.1328  1.9630  1.8499
  133OSM      N14249   5.627   2.184   2.274 -0.0270 -0.2594  0.3698
  133OSM    C1514250   5.731   2.108   2.351 -0.3129  1.2951  0.3264
  133OSM   H15A14251   5.684   2.040   2.420 -1.3123  1.6059 -0.0372
  133OSM   H15B14252   5.792   2.180   2.403 -2.1194  1.3598  2.5258
  133OSM   H15C14253   5.800   2.049   2.293  0.4233  1.4434  1.0257
  133OSM    C1414254   5.534   2.253   2.363 -0.2474  0.5440  0.2329
  133OSM   H14A14255   5.457   2.306   2.308 -1.9864  0.5619  2.5368
  133OSM   H14B14256   5.581   2.311   2.441 -1.0442  2.0694 -0.3630
  133OSM   H14C14257   5.480   2.176   2.416  2.1501  0.0410  2.0998
  133OSM    C1314258   5.687   2.292   2.197  0.4451  0.2465  0.2130
  133OSM   H13A14259   5.622   2.330   2.120 -0.2539 -0.7019  0.3192
  133OSM   H13B14260   5.767   2.252   2.137 -1.2806 -3.4583  0.0690
  133OSM   H13C14261   5.724   2.367   2.265 -1.4772  1.0629  0.4204
  133OSM    C1214262   5.550   2.096   2.180  0.4443 -0.7078 -0.0201
  133OSM   H12A14263   5.615   2.075   2.096  0.2393  1.6992 -0.8486
  133OSM   H12B14264   5.472   2.159   2.140  2.3669  0.5970 -1.9156
  133OSM    C1114265   5.495   1.955   2.229 -0.9562  0.0765 -0.4640
  133OSM   H11A14266   5.589   1.907   2.263 -0.5814  0.8917 -0.3213
  133OSM   H11B14267   5.461   1.898   2.139  1.6893 -0.1204 -1.4319
  133OSM      P14268   5.254   1.976   2.334  0.2510 -0.0955  0.2467
  133OSM    O1314269   5.219   2.012   2.194  0.5376  0.0283  0.1555
  133OSM    O1414270   5.185   1.865   2.401  0.3707 -0.0465  0.5179
  133OSM    O1114271   5.234   2.114   2.415 -0.3351 -0.2380 -0.6321
  133OSM    O1214272   5.416   1.966   2.340 -0.6013  0.1437  0.3506
  133OSM    C1S14273   5.214   2.116   2.554 -0.8246  0.1605  0.5008
  133OSM    H1S14274   5.301   2.068   2.603 -0.9369 -1.2773 -0.6466
  133OSM    H1T14275   5.133   2.048   2.587  0.3154 -1.9570 -0.8396
  133OSM     NF14276   5.138   2.247   2.751 -0.3428  0.1248  0.2532
  133OSM    HNF14277   5.040   2.243   2.769 -0.5308 -1.6784 -0.8932
  133OSM    C2S14278   5.188   2.260   2.614 -0.6499  0.2446 -0.8720
  133OSM    H2S14279   5.285   2.315   2.608 -0.2997  0.0797  2.0367
  133OSM    C3S14280   5.088   2.335   2.523 -0.5123  0.0822 -0.8149
  133OSM    H3S14281   4.990   2.284   2.535 -0.0832 -0.9242 -1.4242
  133OSM     O314282   5.118   2.337   2.385 -0.6271  0.0682  0.2583
  133OSM    HO314283   5.164   2.257   2.360  0.5680  1.4177 -2.2085
  133OSM    C4S14284   5.075   2.474   2.587  0.2789  0.4563  0.2010
  133OSM    H4S14285   5.018   2.474   2.681  0.7017 -0.1293  0.4577
  133OSM    C5S14286   5.134   2.593   2.543 -0.9585  0.2710 -0.1746
  133OSM    H5S14287   5.181   2.588   2.444  0.9224 -3.0404  0.7449
  133OSM    C6S14288   5.125   2.732   2.597  0.1200 -0.7453  0.5960
  133OSM    H6S14289   5.077   2.788   2.514 -0.3945 -2.5836 -0.4143
  133OSM    H6T14290   5.221   2.782   2.619 -0.9876  1.3355  1.0256
  133OSM    C7S14291   5.030   2.738   2.720 -0.3175  0.6739 -0.4868
  133OSM    H7S14292   4.936   2.682   2.700 -1.3823  2.3042 -0.3400
  133OSM    H7T14293   4.999   2.843   2.740  2.6799  1.6921 -0.7361
  133OSM    C8S14294   5.098   2.694   2.856  0.3908  0.9187 -0.7803
  133OSM    H8S14295   5.179   2.767   2.879  1.5864 -0.7240  0.4231
  133OSM    H8T14296   5.137   2.592   2.841 -3.4073 -1.3312  2.5796
  133OSM    C9S14297   5.006   2.686   2.974 -0.3976  0.2290 -0.1883
  133OSM    H9S14298   4.945   2.594   2.973 -0.1660 -0.0447  2.3475
  133OSM    H9T14299   4.937   2.773   2.986  1.3502  1.7305 -0.5936
  133OSM   C10S14300   5.070   2.685   3.110 -0.6762 -0.3144 -0.3465
  133OSM   H10S14301   5.097   2.787   3.145 -1.5456 -0.5045  0.9812
  133OSM   H10T14302   5.159   2.618   3.106 -0.9532 -0.6524 -0.9628
  133OSM   C11S14303   4.977   2.646   3.228 -0.7731  0.1204  0.3835
  133OSM   H11S14304   4.925   2.548   3.228  0.8460 -0.7925  1.6499
  133OSM   H11T14305   4.904   2.730   3.226 -0.3799  0.4638 -0.9886
  133OSM   C12S14306   5.052   2.654   3.358 -0.2739  0.1093 -0.6875
  133OSM   H12S14307   5.084   2.761   3.366 -0.7653  0.3416 -1.6239
  133OSM   H12T14308   5.148   2.598   3.357 -0.4281 -0.1733  0.1544
  133OSM   C13S14309   4.977   2.621   3.486  0.6186  0.1742 -0.4623
  133OSM   H13S14310   4.921   2.528   3.462 -0.4285  1.0076 -1.3183
  133OSM   H13T14311   4.903   2.701   3.507  1.2426  1.3881 -2.5982
  133OSM   C14S14312   5.061   2.618   3.615  0.3325 -0.6157 -0.5432
  133OSM   H14S14313   5.100   2.720   3.635  0.4789 -0.9514  1.0186
  133OSM   H14T14314   5.146   2.550   3.594  1.2680  1.3696 -3.8778
  133OSM   C15S14315   4.981   2.565   3.747  0.4092  0.3624  0.3522
  133OSM   H15S14316   4.946   2.463   3.720  1.1916  0.3446 -0.6506
  133OSM   H15T14317   4.892   2.632   3.747 -0.5015 -0.5514 -3.6451
  133OSM   C16S14318   5.056   2.575   3.883 -0.4568 -0.2656 -0.3781
  133OSM   H16S14319   5.116   2.668   3.890 -2.3672  0.9311  1.4387
  133OSM   H16T14320   5.123   2.488   3.896 -0.5910  0.0248  3.0407
  133OSM   C17S14321   4.970   2.562   4.010 -0.0335 -0.1937 -0.1272
  133OSM   H17S14322   4.881   2.627   3.997 -0.2693 -0.4357  0.2575
  133OSM   H17T14323   5.022   2.602   4.100 -1.4230  0.8034  0.2660
  133OSM   C18S14324   4.923   2.424   4.037  0.3148  0.4608 -0.3383
  133OSM   H18S14325   4.872   2.402   4.133  1.8214 -1.9064  0.0073
  133OSM   H18T14326   5.001   2.346   4.021 -0.1467  0.0329 -0.5305
  133OSM   H18U14327   4.842   2.407   3.963 -0.6462  2.1206  0.2892
  133OSM    C1F14328   5.220   2.204   2.851 -0.0138  0.5344  0.3536
  133OSM     OF14329   5.329   2.162   2.821 -0.0628 -0.0778  0.0367
  133OSM    C2F14330   5.179   2.245   2.990 -0.1535 -0.3367 -0.0484
  133OSM    H2F14331   5.070   2.230   3.004  0.1761 -0.9390  2.1078
  133OSM    H2G14332   5.207   2.352   3.001  3.1068 -0.7438 -2.5876
  133OSM    C3F14333   5.261   2.174   3.097 -0.3786  0.0582 -0.2768
  133OSM    H3F14334   5.365   2.153   3.062 -0.4691 -0.3358 -0.3157
  133OSM    H3G14335   5.218   2.072   3.107 -3.8419  1.1394 -2.2819
  133OSM    C4F14336   5.242   2.259   3.228  0.8524  0.0195  0.8664
  133OSM    H4F14337   5.131   2.260   3.240  0.9689 -0.4801  2.1509
  133OSM    H4G14338   5.269   2.365   3.215  2.2095 -0.3524  0.5364
  133OSM    C5F14339   5.319   2.218   3.348 -0.0660  0.8565 -0.7330
  133OSM    H5F14340   5.425   2.231   3.318  0.4747  0.0699  0.7813
  133OSM    H5G14341   5.294   2.112   3.365  0.7402  0.3237 -2.5597
  133OSM    C6F14342   5.308   2.305   3.480 -0.1386 -0.0750  0.2151
  133OSM    H6F14343   5.202   2.307   3.513 -0.4740 -3.7113 -0.2256
  133OSM    H6G14344   5.329   2.411   3.453 -1.1699 -0.0011 -0.3171
  133OSM    C7F14345   5.407   2.264   3.586 -0.7742 -0.7158  0.0070
  133OSM    H7F14346   5.507   2.306   3.561 -1.8687  0.4098 -2.9307
  133OSM    H7G14347   5.427   2.155   3.586 -0.2109 -0.6570 -2.0871
  133OSM    C8F14348   5.369   2.301   3.739 -0.7248 -0.5016  0.1268
  133OSM    H8F14349   5.339   2.408   3.741  0.0405 -0.2933  1.4543
  133OSM    H8G14350   5.458   2.291   3.805 -1.4458 -1.5331  0.9704
  133OSM    C9F14351   5.256   2.214   3.780  0.2847  0.4072 -0.3812
  133OSM    H9F14352   5.152   2.235   3.752 -1.3179 -1.4317  3.4111
  133OSM   C10F14353   5.274   2.101   3.854 -0.2564  0.1140  0.0306
  133OSM   H10F14354   5.179   2.055   3.887 -0.6941  1.9031  1.4737
  133OSM   C11F14355   5.400   2.029   3.899  1.0095  0.4800 -0.2449
  133OSM   H11F14356   5.483   2.072   3.839  0.3250  1.4926 -0.4910
  133OSM   H11G14357   5.389   1.928   3.855  1.0101  0.9659 -1.4113
  133OSM   C12F14358   5.426   2.030   4.048 -0.1124  0.4683 -0.6340
  133OSM   H12F14359   5.423   2.136   4.080 -1.9996 -0.2422  1.8927
  133OSM   H12G14360   5.529   1.995   4.073  0.1773 -0.4561 -2.8973
  133OSM   C13F14361   5.323   1.948   4.142  1.0179  0.7310 -0.5446
  133OSM   H13F14362   5.320   1.846   4.099 -1.3514  1.2778 -1.8746
  133OSM   H13G14363   5.217   1.978   4.124  0.0693 -0.4921  2.3255
  133OSM   C14F14364   5.352   1.956   4.295 -0.1456 -0.8234  0.3235
  133OSM   H14F14365   5.300   2.046   4.333 -0.3029 -0.6409 -0.3178
  133OSM   H14G14366   5.461   1.966   4.314 -0.0848 -0.0215 -0.4160
  133OSM   C15F14367   5.303   1.830   4.368  0.3618  0.0806 -0.0813
  133OSM   H15F14368   5.363   1.753   4.313  0.2459 -0.6583  0.8129
  133OSM   H15G14369   5.201   1.794   4.341 -0.0545  1.9533 -1.1659
  133OSM   C16F14370   5.340   1.811   4.524 -0.4078 -0.5356  0.1742
  133OSM   H16F14371   5.255   1.867   4.568  0.3656  0.0021  1.0013
  133OSM   H16G14372   5.437   1.864   4.530  0.7395 -2.2057 -2.0366
  133OSM   C17F14373   5.330   1.668   4.563  0.0275  0.4636 -0.3626
  133OSM   H17F14374   5.406   1.610   4.505  3.6204  2.1875  2.2250
  133OSM   H17G14375   5.227   1.634   4.543  0.7598 -1.3877 -1.1938
  133OSM   C18F14376   5.360   1.645   4.710 -0.1563  0.8890 -0.4575
  133OSM   H18F14377   5.467   1.666   4.726 -0.0297  1.9358 -2.3618
  133OSM   H18G14378   5.355   1.535   4.728 -1.4984  0.8286 -1.0465
  133OSM   H18H14379   5.295   1.700   4.782 -0.3136  1.5156 -1.0627
  134OSM      N14380   0.115   6.749   2.727  0.5823  0.0270  0.2318
  134OSM    C1514381   0.079   6.865   2.816  0.0480 -0.4838  0.5464
  134OSM   H15A14382   0.045   6.822   2.909  4.2646 -2.1530  1.5624
  134OSM   H15B14383   0.000   6.923   2.772 -0.5050 -1.7737 -0.2212
  134OSM   H15C14384   0.165   6.930   2.829 -0.0726  0.2526 -1.8443
  134OSM    C1414385  -0.016   6.689   2.694 -0.6214  0.5903  0.6543
  134OSM   H14A14386  -0.064   6.641   2.778 -0.4675 -2.1474 -0.6961
  134OSM   H14B14387  -0.007   6.607   2.624  0.8171  1.5524 -0.3393
  134OSM   H14C14388  -0.072   6.761   2.637  0.2410 -0.4306 -1.6085
  134OSM    C1314389   0.174   6.791   2.602  0.3359 -0.2613  0.3574
  134OSM   H13A14390   0.260   6.854   2.619  0.6088  0.1125 -2.0595
  134OSM   H13B14391   0.103   6.854   2.551  1.1225  0.5742  0.2682
  134OSM   H13C14392   0.203   6.713   2.532  2.2556 -1.0380  1.9124
  134OSM    C1214393   0.210   6.652   2.799  0.2310  0.4457  1.0364
  134OSM   H12A14394   0.171   6.628   2.897  0.8213  0.4461  1.2747
  134OSM   H12B14395   0.305   6.700   2.814  2.1718 -3.0275  0.9304
  134OSM    C1114396   0.244   6.519   2.726 -0.4426  0.4293  0.5130
  134OSM   H11A14397   0.319   6.465   2.787 -0.4770 -1.7606 -1.2567
  134OSM   H11B14398   0.288   6.540   2.626 -3.2658  1.5609 -0.5803
  134OSM      P14399   0.101   6.303   2.650 -0.4029 -0.2934  0.3191
  134OSM    O1314400  -0.004   6.236   2.726  0.1466  0.1821 -0.0196
  134OSM    O1414401   0.077   6.311   2.507 -0.2694 -0.4346  0.1919
  134OSM    O1114402   0.232   6.219   2.663  0.0649 -0.4778  0.1972
  134OSM    O1214403   0.124   6.442   2.713 -0.0265 -0.5254 -0.1035
  134OSM    C1S14404   0.263   6.162   2.799 -0.7807 -0.6271  0.9709
  134OSM    H1S14405   0.213   6.219   2.880  0.5245 -2.0595  2.8360
  134OSM    H1T14406   0.372   6.160   2.819 -0.4031 -3.6599 -0.7611
  134OSM     NF14407   0.266   5.981   2.969 -0.3285 -0.1673  0.1417
  134OSM    HNF14408   0.345   5.921   2.981  0.4277  0.4945 -1.3455
  134OSM    C2S14409   0.222   6.019   2.837  0.4831 -0.4707 -0.4686
  134OSM    H2S14410   0.111   6.019   2.833  0.4619  0.9317 -0.2844
  134OSM    C3S14411   0.279   5.935   2.729 -0.3057 -0.2781 -0.4933
  134OSM    H3S14412   0.389   5.946   2.722 -0.4916  1.6495 -0.9453
  134OSM     O314413   0.243   5.970   2.595  0.1182  0.2300 -0.5271
  134OSM    HO314414   0.230   6.064   2.606  2.2297  0.6512 -1.1093
  134OSM    C4S14415   0.239   5.791   2.754 -0.0763  0.4424 -0.4210
  134OSM    H4S14416   0.130   5.775   2.757  0.1224 -0.9055  0.5644
  134OSM    C5S14417   0.313   5.681   2.762  0.1939  0.4545 -0.8746
  134OSM    H5S14418   0.422   5.690   2.750  0.2091  1.0186 -0.3561
  134OSM    C6S14419   0.279   5.532   2.789  0.1696  0.2743  0.5893
  134OSM    H6S14420   0.364   5.486   2.843 -0.0393  1.7219  2.2465
  134OSM    H6T14421   0.257   5.472   2.698  0.7972  0.4453  0.3182
  134OSM    C7S14422   0.155   5.510   2.885 -0.3967 -0.5261  0.4583
  134OSM    H7S14423   0.123   5.403   2.880 -0.6075 -0.4857  0.9486
  134OSM    H7T14424   0.071   5.570   2.844  0.9736  0.5092 -0.9576
  134OSM    C8S14425   0.182   5.553   3.029  0.2573  0.3468  0.1119
  134OSM    H8S14426   0.219   5.656   3.051 -0.1837  0.7158 -0.8340
  134OSM    H8T14427   0.263   5.489   3.069 -0.0449  1.1159  2.0915
  134OSM    C9S14428   0.058   5.525   3.120  0.0291 -0.4893  0.4408
  134OSM    H9S14429   0.026   5.425   3.082 -0.7868  0.7092 -2.3559
  134OSM    H9T14430  -0.024   5.597   3.096  0.7890 -0.4274 -2.3583
  134OSM   C10S14431   0.092   5.522   3.268  0.4381  0.0758  0.8397
  134OSM   H10S14432   0.189   5.470   3.281  0.8425  0.6314  0.1571
  134OSM   H10T14433   0.019   5.454   3.316  0.4445 -1.5370 -1.2642
  134OSM   C11S14434   0.080   5.659   3.343 -0.4313 -0.4072 -0.5412
  134OSM   H11S14435  -0.022   5.700   3.329 -0.2258 -0.5089 -2.6864
  134OSM   H11T14436   0.160   5.724   3.300  1.3047 -1.5861  0.7870
  134OSM   C12S14437   0.100   5.649   3.491  0.0939  0.2064 -0.3271
  134OSM   H12S14438   0.032   5.573   3.537 -1.8669  1.4566 -1.0531
  134OSM   H12T14439   0.085   5.748   3.537  2.6553  0.4148  0.1979
  134OSM   C13S14440   0.236   5.599   3.533  0.1994 -0.2215  0.5651
  134OSM   H13S14441   0.316   5.665   3.491  1.6453 -1.4230  1.3298
  134OSM   H13T14442   0.262   5.496   3.502 -0.5050 -0.3771  0.4904
  134OSM   C14S14443   0.268   5.588   3.686 -0.3724 -0.3375 -0.0269
  134OSM   H14S14444   0.359   5.524   3.688 -0.7792 -0.9613 -0.6264
  134OSM   H14T14445   0.190   5.531   3.741  1.4540 -1.3442  1.6333
  134OSM   C15S14446   0.297   5.723   3.751  0.2849  0.1919 -0.6827
  134OSM   H15S14447   0.206   5.783   3.769 -0.3815 -1.4608  2.1364
  134OSM   H15T14448   0.360   5.776   3.676  1.7314 -2.0152 -1.1331
  134OSM   C16S14449   0.366   5.719   3.884  0.8104 -0.0306  0.3159
  134OSM   H16S14450   0.456   5.653   3.877  0.4661 -0.7463  2.0827
  134OSM   H16T14451   0.316   5.663   3.966  2.7578 -1.6029  0.5282
  134OSM   C17S14452   0.395   5.853   3.949 -0.3216  0.8266  0.2239
  134OSM   H17S14453   0.438   5.828   4.048 -0.6726  1.9725  0.6808
  134OSM   H17T14454   0.299   5.900   3.980 -1.2973 -0.3286 -0.9245
  134OSM   C18S14455   0.483   5.937   3.864 -0.4507  0.0726  0.5564
  134OSM   H18S14456   0.509   6.035   3.910 -0.5137  0.8362 -0.9841
  134OSM   H18T14457   0.427   5.960   3.771 -0.7503  0.4573  0.8219
  134OSM   H18U14458   0.575   5.882   3.835  0.3901  0.5077  2.2280
  134OSM    C1F14459   0.225   6.038   3.083 -0.1189  0.6128 -0.2392
  134OSM     OF14460   0.116   6.092   3.095 -0.0092 -0.0533 -0.2205
  134OSM    C2F14461   0.322   6.036   3.190 -0.2804  0.0362 -1.3735
  134OSM    H2F14462   0.382   6.130   3.197 -1.1657  0.5031  0.5516
  134OSM    H2G14463   0.388   5.948   3.181  0.4287  0.3205  0.5680
  134OSM    C3F14464   0.249   6.023   3.330  0.3377  0.7149  0.0926
  134OSM    H3F14465   0.154   5.969   3.310  0.2967  0.7334  0.2376
  134OSM    H3G14466   0.221   6.124   3.367 -2.1433 -0.2917  1.2136
  134OSM    C4F14467   0.329   5.942   3.437  0.8553  0.3072 -0.2419
  134OSM    H4F14468   0.355   5.842   3.398 -0.6636 -1.2120  2.3898
  134OSM    H4G14469   0.262   5.933   3.525 -0.1725  1.4384 -0.8805
  134OSM    C5F14470   0.458   6.020   3.475  0.8825 -0.3231  0.4122
  134OSM    H5F14471   0.507   6.037   3.377 -0.6396 -2.4949 -0.8050
  134OSM    H5G14472   0.529   5.963   3.539  3.2237  1.4411 -0.4666
  134OSM    C6F14473   0.430   6.154   3.543  0.2874 -0.6760 -0.1006
  134OSM    H6F14474   0.370   6.134   3.635 -0.1577  0.2251 -0.1816
  134OSM    H6G14475   0.367   6.216   3.476  3.4781  1.2112 -1.6122
  134OSM    C7F14476   0.560   6.227   3.584  0.2585  0.0355 -0.5010
  134OSM    H7F14477   0.602   6.260   3.487 -0.6252 -0.1240 -0.9493
  134OSM    H7G14478   0.622   6.152   3.639 -0.3473 -0.2497 -0.1904
  134OSM    C8F14479   0.540   6.344   3.680  0.0647 -0.4508 -0.0908
  134OSM    H8F14480   0.492   6.324   3.778  0.8638 -1.0572  0.1788
  134OSM    H8G14481   0.485   6.429   3.634 -0.6716  0.0788  1.6831
  134OSM    C9F14482   0.675   6.401   3.723  0.1554  0.3165  0.6953
  134OSM    H9F14483   0.737   6.311   3.739 -0.8664 -0.2459  1.5975
  134OSM   C10F14484   0.735   6.527   3.712 -0.1999  0.0535  0.3141
  134OSM   H10F14485   0.834   6.531   3.759  0.8504 -0.9571 -1.6607
  134OSM   C11F14486   0.673   6.652   3.656  0.3200  0.4077  0.2829
  134OSM   H11F14487   0.581   6.646   3.595 -0.6833  0.5931  1.7384
  134OSM   H11G14488   0.742   6.712   3.592 -0.1733 -1.1767 -1.8493
  134OSM   C12F14489   0.651   6.748   3.772 -0.0567  0.4659  0.3264
  134OSM   H12F14490   0.603   6.684   3.849 -0.2383 -2.2481 -1.8898
  134OSM   H12G14491   0.581   6.833   3.754 -1.5869 -0.4164  1.8379
  134OSM   C13F14492   0.777   6.815   3.839 -0.1670  0.2485 -0.0846
  134OSM   H13F14493   0.824   6.883   3.765  0.1842 -0.6585 -0.7121
  134OSM   H13G14494   0.850   6.731   3.835  0.6669  0.9936 -2.3471
  134OSM   C14F14495   0.759   6.878   3.979  0.1500  0.6090 -0.3603
  134OSM   H14F14496   0.736   6.792   4.046 -0.4683  0.8018 -0.3202
  134OSM   H14G14497   0.680   6.956   3.987  0.0971  0.3808  4.0976
  134OSM   C15F14498   0.883   6.941   4.033 -0.4759 -0.4315 -0.4666
  134OSM   H15F14499   0.904   7.032   3.972  1.2899 -0.9256 -0.6458
  134OSM   H15G14500   0.965   6.867   4.037  0.4301  0.5224 -0.8151
  134OSM   C16F14501   0.876   6.999   4.175  0.5048  0.1329  0.2798
  134OSM   H16F14502   0.849   6.915   4.242 -1.3575  0.9096  0.5760
  134OSM   H16G14503   0.806   7.085   4.182 -0.4894 -0.7755  2.3500
  134OSM   C17F14504   1.013   7.040   4.219  0.3526  0.2554  0.1780
  134OSM   H17F14505   1.042   7.121   4.150 -2.4182  1.5019  0.3465
  134OSM   H17G14506   1.095   6.967   4.202  0.4368  0.7019 -1.4280
  134OSM   C18F14507   1.017   7.103   4.358  0.1543  0.4809 -0.6976
  134OSM   H18F14508   0.917   7.122   4.403 -0.6715 -2.1521 -1.2774
  134OSM   H18G14509   1.076   7.198   4.356  1.9019 -0.5487  0.0114
  134OSM   H18H14510   1.070   7.037   4.430  0.1792  0.5882 -0.6161
  135OSM      N14511   3.085   3.374   2.006 -0.2324  0.0989 -0.0646
  135OSM    C1514512   3.165   3.263   2.064 -0.6984 -0.8418 -0.4654
  135OSM   H15A14513   3.264   3.269   2.023  0.2045  1.8568  1.8027
  135OSM   H15B14514   3.121   3.172   2.024  0.5796 -0.1470 -3.7459
  135OSM   H15C14515   3.185   3.263   2.170  1.6090  0.1744 -0.8551
  135OSM    C1414516   3.063   3.351   1.859 -0.4183  0.4256 -0.1123
  135OSM   H14A14517   3.030   3.249   1.846  0.0287  0.1360  0.9280
  135OSM   H14B14518   3.160   3.363   1.813 -0.1978  2.3686  0.7724
  135OSM   H14C14519   2.985   3.408   1.810  0.5966  1.1248 -0.9732
  135OSM    C1314520   2.950   3.355   2.068 -0.3884  0.2108 -0.0236
  135OSM   H13A14521   2.902   3.451   2.068  1.4294  1.2081 -1.6302
  135OSM   H13B14522   2.958   3.319   2.169  2.0669  3.1304  0.9768
  135OSM   H13C14523   2.891   3.283   2.012 -1.1509  1.3187 -0.6708
  135OSM    C1214524   3.133   3.517   2.023  0.0265  0.1237  0.0288
  135OSM   H12A14525   3.231   3.520   1.976  0.5867 -0.1530  1.1306
  135OSM   H12B14526   3.145   3.534   2.129 -2.0865 -0.4838  0.4023
  135OSM    C1114527   3.040   3.629   1.965 -0.5577  0.0973 -0.3955
  135OSM   H11A14528   3.058   3.630   1.855  0.8258 -3.3248 -0.3082
  135OSM   H11B14529   3.086   3.725   1.997  1.0600 -0.5409 -0.6882
  135OSM      P14530   2.822   3.722   2.101  0.0329 -0.3214  0.3439
  135OSM    O1314531   2.907   3.838   2.133 -0.2532 -0.4709 -0.0873
  135OSM    O1414532   2.682   3.747   2.054  0.0794  0.3728  0.0614
  135OSM    O1114533   2.821   3.628   2.225 -0.3065  0.4689 -0.2042
  135OSM    O1214534   2.900   3.629   2.000 -0.4902  0.0120 -0.1099
  135OSM    C1S14535   2.749   3.657   2.347  0.4438  0.3290  0.2141
  135OSM    H1S14536   2.640   3.642   2.335  0.6870 -1.2607 -0.2170
  135OSM    H1T14537   2.754   3.766   2.370 -2.4547  0.9451 -1.5093
  135OSM     NF14538   2.724   3.614   2.578 -0.5478 -0.2850  0.6788
  135OSM    HNF14539   2.778   3.669   2.642  1.0576  2.1745 -2.4780
  135OSM    C2S14540   2.800   3.571   2.463 -0.0147 -0.2800  0.2363
  135OSM    H2S14541   2.782   3.462   2.454  1.5090 -0.8878  3.4484
  135OSM    C3S14542   2.953   3.577   2.486 -0.1083  0.7450 -0.5540
  135OSM    H3S14543   2.988   3.675   2.524 -0.3213  0.1554  1.2489
  135OSM     O314544   3.025   3.540   2.368  0.0721 -0.7837 -0.4789
  135OSM    HO314545   2.959   3.555   2.300 -1.0002 -0.1728  0.6706
  135OSM    C4S14546   2.988   3.488   2.603 -0.3019  0.5043 -0.1197
  135OSM    H4S14547   2.995   3.547   2.696  1.7507  0.0360  0.0632
  135OSM    C5S14548   3.003   3.351   2.602 -0.8867 -0.2599  0.1241
  135OSM    H5S14549   2.967   3.296   2.514 -0.9366 -1.0711  0.6455
  135OSM    C6S14550   3.036   3.274   2.723  0.3557  0.0420  0.0825
  135OSM    H6S14551   3.136   3.226   2.716  0.3296 -0.2502  1.4566
  135OSM    H6T14552   2.967   3.188   2.740  1.2626 -1.3123 -2.5127
  135OSM    C7S14553   3.037   3.347   2.852  0.0666 -0.5983  0.1315
  135OSM    H7S14554   2.935   3.389   2.866 -0.4965 -0.7046 -2.8829
  135OSM    H7T14555   3.117   3.424   2.844 -0.7142  0.1830 -0.3269
  135OSM    C8S14556   3.071   3.258   2.965 -0.0623 -0.2079  0.0303
  135OSM    H8S14557   3.177   3.229   2.944 -0.1009 -0.0655 -0.3661
  135OSM    H8T14558   3.010   3.165   2.963  1.1703 -1.0490 -1.9219
  135OSM    C9S14559   3.065   3.329   3.106 -0.2679  0.2689 -0.6358
  135OSM    H9S14560   2.976   3.394   3.121  0.9926  1.6143  1.5232
  135OSM    H9T14561   3.156   3.391   3.122  0.7575 -1.4093  0.3604
  135OSM   C10S14562   3.062   3.218   3.220  0.1377 -0.3375  0.0851
  135OSM   H10S14563   3.154   3.156   3.208  1.5718  1.6993 -0.0774
  135OSM   H10T14564   2.972   3.155   3.202  0.2530 -1.2369  2.3027
  135OSM   C11S14565   3.036   3.280   3.356 -0.2498  0.5241 -0.4179
  135OSM   H11S14566   2.944   3.342   3.350 -2.5380 -2.5554  0.3468
  135OSM   H11T14567   3.119   3.353   3.372  1.5107 -1.7832  1.8731
  135OSM   C12S14568   3.025   3.168   3.467 -0.1353  0.6491  0.4904
  135OSM   H12S14569   3.115   3.104   3.459 -0.8173 -0.0648 -2.6599
  135OSM   H12T14570   2.935   3.105   3.453  0.4836 -0.6031  1.8529
  135OSM   C13S14571   3.014   3.234   3.606 -0.7584  0.4429 -0.8036
  135OSM   H13S14572   2.940   3.317   3.609 -0.1797  0.9307  0.6608
  135OSM   H13T14573   3.114   3.279   3.624 -0.2403 -0.9476 -0.0295
  135OSM   C14S14574   2.989   3.126   3.714  0.2788 -0.0606 -0.8283
  135OSM   H14S14575   3.040   3.035   3.675 -0.8024 -1.3411  0.6436
  135OSM   H14T14576   2.882   3.107   3.734  0.2876  1.2360  0.6470
  135OSM   C15S14577   3.046   3.170   3.842  0.0944  0.0157 -0.0444
  135OSM   H15S14578   3.142   3.222   3.824  1.2337 -1.6333  1.0281
  135OSM   H15T14579   3.073   3.080   3.902  1.0189 -0.2405 -0.8361
  135OSM   C16S14580   2.940   3.259   3.911 -0.0762  0.0373 -0.1163
  135OSM   H16S14581   2.842   3.208   3.899  0.5461 -1.1649 -0.3105
  135OSM   H16T14582   2.945   3.356   3.858  1.3944 -0.8614 -1.7641
  135OSM   C17S14583   2.960   3.273   4.065  0.2512  0.1784 -0.8587
  135OSM   H17S14584   3.024   3.362   4.087  1.7601 -0.7280 -1.4374
  135OSM   H17T14585   3.003   3.180   4.106  0.1729  0.4763 -0.0970
  135OSM   C18S14586   2.825   3.294   4.136 -0.2243  0.1741  0.4942
  135OSM   H18S14587   2.785   3.396   4.121 -2.0923 -0.6169 -0.2206
  135OSM   H18T14588   2.838   3.280   4.246  0.6957  3.1697  0.8439
  135OSM   H18U14589   2.753   3.215   4.103  2.3751 -2.2298  0.2061
  135OSM    C1F14590   2.589   3.591   2.587 -0.7890  0.4449  0.0775
  135OSM     OF14591   2.538   3.508   2.512 -0.0361  0.5723  0.4212
  135OSM    C2F14592   2.508   3.660   2.695 -0.0596  0.1939  0.7940
  135OSM    H2F14593   2.406   3.690   2.662  0.2423 -0.0414 -0.3930
  135OSM    H2G14594   2.558   3.757   2.717  2.9198 -0.8596 -0.8698
  135OSM    C3F14595   2.506   3.563   2.818 -0.5430  0.3140 -0.3366
  135OSM    H3F14596   2.604   3.517   2.840 -0.8946 -1.0111 -1.4142
  135OSM    H3G14597   2.433   3.482   2.796  0.0052 -0.1367 -0.5101
  135OSM    C4F14598   2.462   3.637   2.944 -0.0009  0.2547 -0.4148
  135OSM    H4F14599   2.504   3.739   2.955  1.5667 -0.3101 -0.8602
  135OSM    H4G14600   2.490   3.571   3.029 -0.3691  0.6841  0.0458
  135OSM    C5F14601   2.306   3.663   2.950  0.2840  0.3153 -0.4687
  135OSM    H5F14602   2.258   3.567   2.919  0.6091  0.6301 -2.0401
  135OSM    H5G14603   2.283   3.740   2.873  0.1404 -0.3478 -1.1024
  135OSM    C6F14604   2.256   3.688   3.095 -0.8217  1.0640  0.0739
  135OSM    H6F14605   2.335   3.713   3.169 -2.2368 -1.4930  2.6472
  135OSM    H6G14606   2.208   3.594   3.129 -2.6695  2.1981  0.7495
  135OSM    C7F14607   2.144   3.790   3.103 -0.2938  0.2605 -0.5228
  135OSM    H7F14608   2.057   3.772   3.036  1.0999  0.4464 -2.4777
  135OSM    H7G14609   2.191   3.884   3.065 -2.0741  0.6242 -1.9619
  135OSM    C8F14610   2.082   3.804   3.248  0.3355  0.1675 -0.2995
  135OSM    H8F14611   2.032   3.902   3.261 -0.7124 -0.5422  1.3156
  135OSM    H8G14612   2.164   3.813   3.322 -1.0279 -0.5107  1.3621
  135OSM    C9F14613   1.981   3.697   3.272 -0.7320  0.5740 -0.1850
  135OSM    H9F14614   1.891   3.697   3.209 -0.2292 -0.4401 -0.9364
  135OSM   C10F14615   1.999   3.602   3.365 -0.2635  0.0542 -0.8790
  135OSM   H10F14616   1.925   3.523   3.385 -0.7137  0.1519 -2.0707
  135OSM   C11F14617   2.115   3.595   3.456 -0.0887  0.4404 -0.1172
  135OSM   H11F14618   2.213   3.609   3.406  1.1711 -0.8803  1.8208
  135OSM   H11G14619   2.124   3.497   3.507  1.1721  0.4951 -0.2119
  135OSM   C12F14620   2.092   3.678   3.586  0.3147  0.9026 -0.4931
  135OSM   H12F14621   1.983   3.666   3.604  0.4941 -1.6509 -0.7248
  135OSM   H12G14622   2.099   3.785   3.554 -2.5907  0.5116 -2.8137
  135OSM   C13F14623   2.155   3.629   3.716  0.3794  0.2829 -1.2740
  135OSM   H13F14624   2.263   3.645   3.695  0.3923 -1.1780 -2.5598
  135OSM   H13G14625   2.150   3.519   3.732 -2.2064  0.5917  0.5367
  135OSM   C14F14626   2.113   3.705   3.839  0.2744 -0.3010  0.5286
  135OSM   H14F14627   2.002   3.706   3.839  0.1673 -2.9361 -0.9538
  135OSM   H14G14628   2.141   3.812   3.822 -1.2500  0.1721  0.8895
  135OSM   C15F14629   2.160   3.655   3.968 -0.2522  0.1887  0.0999
  135OSM   H15F14630   2.270   3.648   3.952 -0.4575  0.9369 -1.9036
  135OSM   H15G14631   2.123   3.552   3.987 -0.4933 -0.0001 -1.3145
  135OSM   C16F14632   2.125   3.751   4.076  0.3527  0.3742  0.1494
  135OSM   H16F14633   2.017   3.741   4.100  0.3307  0.6358  0.1624
  135OSM   H16G14634   2.154   3.852   4.040 -1.5795  1.4424  1.4069
  135OSM   C17F14635   2.218   3.727   4.200 -0.0763 -0.0616 -0.0165
  135OSM   H17F14636   2.326   3.730   4.172  0.0884 -0.2437  0.5758
  135OSM   H17G14637   2.208   3.619   4.226 -1.1127 -0.4531 -1.9046
  135OSM   C18F14638   2.190   3.819   4.320  0.8522 -0.0205  1.0988
  135OSM   H18F14639   2.263   3.812   4.404  0.6844  1.6306  1.4079
  135OSM   H18G14640   2.094   3.784   4.364  0.8627  0.3779  1.4433
  135OSM   H18H14641   2.173   3.927   4.303  0.3547 -0.4752 -1.6672
  136OSM      N14642   3.530   0.051   2.527  0.2231 -0.6944  0.0167
  136OSM    C1514643   3.590   0.012   2.397  0.5135  0.4820 -0.0362
  136OSM   H15A14644   3.693  -0.011   2.419 -0.0413 -0.4633  1.7463
  136OSM   H15B14645   3.581   0.089   2.322 -0.7951  0.3504 -0.0518
  136OSM   H15C14646   3.541  -0.074   2.352 -0.9858  1.3276 -0.0995
  136OSM    C1414647   3.391   0.106   2.511 -0.0333 -0.1362 -0.4891
  136OSM   H14A14648   3.366   0.145   2.609 -0.3255  0.9885 -1.0029
  136OSM   H14B14649   3.322   0.027   2.486  0.0858 -0.2457 -0.4730
  136OSM   H14C14650   3.391   0.188   2.441 -2.2062  0.7225  0.4260
  136OSM    C1314651   3.533  -0.070   2.612  0.0901  0.8444  0.7496
  136OSM   H13A14652   3.617  -0.137   2.604  0.1884  1.0286  0.2300
  136OSM   H13B14653   3.447  -0.134   2.595  0.2623  0.1116  2.4372
  136OSM   H13C14654   3.540  -0.046   2.717 -1.8668 -0.3392  1.2091
  136OSM    C1214655   3.629   0.150   2.597  0.2934 -0.6866 -0.4005
  136OSM   H12A14656   3.582   0.186   2.688 -0.6544 -1.2621 -0.6479
  136OSM   H12B14657   3.645   0.234   2.531  2.7074  0.2743  1.2559
  136OSM    C1114658   3.775   0.108   2.645  0.9116 -0.3708 -0.3695
  136OSM   H11A14659   3.758   0.036   2.728 -0.1082  0.5305  0.2173
  136OSM   H11B14660   3.820   0.202   2.684 -1.3417 -0.2419  2.1358
  136OSM      P14661   3.912  -0.073   2.530  0.4745 -0.2832 -0.0429
  136OSM    O1314662   3.941  -0.111   2.395  0.4106  0.0232 -0.1903
  136OSM    O1414663   4.024  -0.061   2.619 -0.3925 -0.2127 -0.4119
  136OSM    O1114664   3.806  -0.167   2.595 -0.0380  0.3202 -0.0539
  136OSM    O1214665   3.844   0.066   2.539  0.2709 -0.1180 -0.1291
  136OSM    C1S14666   3.848  -0.264   2.690  0.0728 -0.0726  0.4918
  136OSM    H1S14667   3.904  -0.212   2.771 -0.3033  0.7653  0.2194
  136OSM    H1T14668   3.912  -0.345   2.649 -3.1683 -2.7875  0.3546
  136OSM     NF14669   3.754  -0.415   2.879 -0.0950  0.3189 -0.1374
  136OSM    HNF14670   3.798  -0.504   2.877  0.5004  0.6137 -0.6581
  136OSM    C2S14671   3.728  -0.351   2.749  0.5697 -0.6006  0.5451
  136OSM    H2S14672   3.650  -0.272   2.764  0.0182 -0.9314 -0.4808
  136OSM    C3S14673   3.672  -0.446   2.642  0.4864  1.5006 -1.0423
  136OSM    H3S14674   3.749  -0.515   2.601  1.2904  0.8666  1.3838
  136OSM     O314675   3.618  -0.380   2.528  0.0154 -0.4456 -0.1780
  136OSM    HO314676   3.633  -0.286   2.542 -0.9436 -0.1746 -0.8652
  136OSM    C4S14677   3.554  -0.515   2.693 -0.1536  0.2645  0.2019
  136OSM    H4S14678   3.468  -0.450   2.715  1.0778  1.6855  0.9490
  136OSM    C5S14679   3.547  -0.644   2.728 -1.0285 -0.1837 -0.2551
  136OSM    H5S14680   3.635  -0.709   2.717 -1.1174 -0.5001  0.7591
  136OSM    C6S14681   3.433  -0.707   2.794  0.0650  0.4307 -0.1573
  136OSM    H6S14682   3.429  -0.810   2.750  2.6522 -0.3606  1.2448
  136OSM    H6T14683   3.338  -0.653   2.776 -1.0165 -0.2721  2.9201
  136OSM    C7S14684   3.435  -0.727   2.949  0.3738 -0.5696 -0.1472
  136OSM    H7S14685   3.333  -0.759   2.981  0.2721  0.7894  0.9756
  136OSM    H7T14686   3.443  -0.627   2.996 -0.0500 -0.2683 -0.7018
  136OSM    C8S14687   3.543  -0.821   3.008  0.3558 -0.4323 -0.1967
  136OSM    H8S14688   3.641  -0.774   2.987  0.2411 -0.2371 -0.2928
  136OSM    H8T14689   3.541  -0.916   2.950 -2.5981 -1.5500  1.5078
  136OSM    C9S14690   3.522  -0.846   3.159  0.1236 -0.5699  0.2411
  136OSM    H9S14691   3.525  -0.749   3.213 -0.2355  1.2280 -2.7421
  136OSM    H9T14692   3.619  -0.897   3.179 -0.0002 -1.0420 -0.3424
  136OSM   C10S14693   3.411  -0.937   3.193  0.5736  0.5647 -0.2863
  136OSM   H10S14694   3.418  -1.035   3.142 -0.9021 -0.4242  1.2901
  136OSM   H10T14695   3.317  -0.883   3.169  0.9748  1.6208  0.4283
  136OSM   C11S14696   3.405  -0.958   3.346  0.0562  0.0350 -0.2045
  136OSM   H11S14697   3.312  -1.017   3.363  1.4402 -1.8477  1.3124
  136OSM   H11T14698   3.404  -0.864   3.405  1.9196 -0.3065  0.4443
  136OSM   C12S14699   3.524  -1.027   3.411  0.1616  0.4222 -0.0849
  136OSM   H12S14700   3.615  -0.973   3.377  0.9187 -1.7697 -1.8120
  136OSM   H12T14701   3.535  -1.131   3.375 -1.0434 -0.2830  1.4996
  136OSM   C13S14702   3.517  -1.044   3.562  0.4215  0.1127  0.0664
  136OSM   H13S14703   3.526  -0.944   3.611  0.6939  0.0931  0.0581
  136OSM   H13T14704   3.606  -1.103   3.591 -0.4576 -1.4263 -0.3025
  136OSM   C14S14705   3.391  -1.120   3.613 -0.6017 -0.2958  0.7206
  136OSM   H14S14706   3.393  -1.226   3.578  1.9125  0.2673 -1.1666
  136OSM   H14T14707   3.295  -1.072   3.586 -0.9608 -0.4282  1.7461
  136OSM   C15S14708   3.394  -1.120   3.770  0.0947  0.1684 -0.1584
  136OSM   H15S14709   3.388  -1.017   3.812 -3.3089 -0.7275  1.9951
  136OSM   H15T14710   3.497  -1.149   3.800  1.1255  0.8592 -2.8010
  136OSM   C16S14711   3.271  -1.200   3.822  0.4657  0.1730  0.2587
  136OSM   H16S14712   3.276  -1.310   3.803  2.6268 -0.3888  3.3027
  136OSM   H16T14713   3.180  -1.164   3.770 -0.5000 -3.9938 -1.3877
  136OSM   C17S14714   3.245  -1.172   3.969  0.1436  0.8395 -0.1790
  136OSM   H17S14715   3.144  -1.205   4.003  0.0063  1.1035 -0.3282
  136OSM   H17T14716   3.264  -1.064   3.981 -0.1654  1.1567 -2.1069
  136OSM   C18S14717   3.336  -1.267   4.057  0.1975 -0.5622  0.4349
  136OSM   H18S14718   3.436  -1.263   4.007 -0.0694 -3.8021 -0.6601
  136OSM   H18T14719   3.298  -1.371   4.068 -0.4897 -0.1476  2.2450
  136OSM   H18U14720   3.346  -1.222   4.158  0.7743  0.2372  0.0343
  136OSM    C1F14721   3.744  -0.358   3.003  0.4574 -0.7397 -0.3386
  136OSM     OF14722   3.703  -0.242   3.012  0.1330  0.0092 -0.1547
  136OSM    C2F14723   3.801  -0.429   3.118  0.4973 -0.2518  0.6100
  136OSM    H2F14724   3.900  -0.381   3.136  0.8096 -0.5004 -0.3899
  136OSM    H2G14725   3.813  -0.538   3.099 -3.1070 -0.2959 -2.4380
  136OSM    C3F14726   3.723  -0.405   3.255  0.5202  0.5976 -0.7636
  136OSM    H3F14727   3.629  -0.461   3.234  1.1382 -0.4904 -0.6841
  136OSM    H3G14728   3.699  -0.297   3.267  1.2322  0.8187 -1.2895
  136OSM    C4F14729   3.789  -0.457   3.380  0.1730 -0.1108  0.6664
  136OSM    H4F14730   3.887  -0.409   3.398  0.8153 -0.6444 -1.2201
  136OSM    H4G14731   3.796  -0.568   3.372 -0.2111 -0.1254  0.4999
  136OSM    C5F14732   3.712  -0.419   3.508 -0.1847 -0.4155  0.0602
  136OSM    H5F14733   3.617  -0.477   3.515  0.5628 -1.7661 -0.6491
  136OSM    H5G14734   3.686  -0.311   3.508 -0.6141 -0.5181 -0.0379
  136OSM    C6F14735   3.794  -0.443   3.633  0.7031  0.4104 -0.4337
  136OSM    H6F14736   3.742  -0.386   3.713 -0.8325 -1.1871 -0.2106
  136OSM    H6G14737   3.896  -0.403   3.619  0.2243  0.7923 -3.5762
  136OSM    C7F14738   3.813  -0.591   3.674  0.7168  0.7667 -0.6596
  136OSM    H7F14739   3.894  -0.604   3.748  0.7238  0.3548 -0.7366
  136OSM    H7G14740   3.870  -0.646   3.597  1.2155 -1.8454  1.4291
  136OSM    C8F14741   3.684  -0.648   3.731 -0.4803 -0.1744 -0.1352
  136OSM    H8F14742   3.591  -0.623   3.676 -0.9973  0.2692  0.9022
  136OSM    H8G14743   3.667  -0.589   3.824 -0.2722  0.6718 -0.6233
  136OSM    C9F14744   3.711  -0.795   3.764 -0.1317  0.2654  0.3134
  136OSM    H9F14745   3.758  -0.839   3.675  1.6971  2.5610  0.0538
  136OSM   C10F14746   3.682  -0.867   3.872  0.3702  0.0620  0.0734
  136OSM   H10F14747   3.692  -0.977   3.873  1.5357  0.1523  1.7530
  136OSM   C11F14748   3.609  -0.808   3.992  0.9237 -0.0967 -0.5131
  136OSM   H11F14749   3.502  -0.796   3.963  0.5772 -0.0178  0.7305
  136OSM   H11G14750   3.645  -0.708   4.024  1.9047 -0.8352  0.7953
  136OSM   C12F14751   3.605  -0.892   4.128 -0.0321 -0.4075  1.0309
  136OSM   H12F14752   3.554  -0.990   4.114 -0.0494 -0.5787  2.2215
  136OSM   H12G14753   3.540  -0.837   4.198 -2.4761 -0.6912 -0.8759
  136OSM   C13F14754   3.747  -0.915   4.186  0.4264  0.8188 -0.7610
  136OSM   H13F14755   3.808  -0.946   4.098 -2.1406 -1.8181 -1.7932
  136OSM   H13G14756   3.728  -1.006   4.247 -2.9179  1.0666 -1.2363
  136OSM   C14F14757   3.796  -0.805   4.277 -0.2160  1.1868 -0.2989
  136OSM   H14F14758   3.709  -0.758   4.329 -0.5975 -0.1853  0.3519
  136OSM   H14G14759   3.851  -0.730   4.217  0.8734  0.6188 -0.0418
  136OSM   C15F14760   3.888  -0.858   4.379 -0.6783  0.1080  0.5871
  136OSM   H15F14761   3.867  -0.959   4.420 -0.7517 -0.1673 -0.1150
  136OSM   H15G14762   3.879  -0.794   4.469 -3.5740 -0.0470  0.5135
  136OSM   C16F14763   4.042  -0.852   4.339  0.5443 -0.3308  0.0592
  136OSM   H16F14764   4.074  -0.746   4.335 -0.6750  0.0915  0.7322
  136OSM   H16G14765   4.062  -0.905   4.243  1.0074 -2.4924  1.2987
  136OSM   C17F14766   4.124  -0.938   4.432 -0.8745 -0.1518 -0.1896
  136OSM   H17F14767   4.103  -1.047   4.431 -1.6557 -0.0279  0.6382
  136OSM   H17G14768   4.110  -0.897   4.534  0.5562 -0.6566  0.2306
  136OSM   C18F14769   4.275  -0.918   4.403  0.3162 -0.0147 -0.1472
  136OSM   H18F14770   4.338  -0.931   4.493 -1.0153 -1.0211  0.6847
  136OSM   H18G14771   4.292  -0.815   4.367 -1.3872 -0.4329 -2.3817
  136OSM   H18H14772   4.311  -0.983   4.320  1.5011  1.7785 -1.0812
  137OSM      N14773   0.409   5.646   2.333  0.0198 -0.2769 -0.3313
  137OSM    C1514774   0.468   5.760   2.404  0.8024  0.3796 -0.2376
  137OSM   H15A14775   0.556   5.736   2.462 -0.3615  0.3317  1.6001
  137OSM   H15B14776   0.400   5.816   2.466  1.9771  0.8457  0.6603
  137OSM   H15C14777   0.507   5.834   2.336  1.3216  1.7553  1.4933
  137OSM    C1414778   0.289   5.693   2.264 -0.2300  0.1844 -0.6595
  137OSM   H14A14779   0.207   5.714   2.330  1.5483  0.4215  1.6174
  137OSM   H14B14780   0.248   5.618   2.198  0.5091 -0.9684  0.1535
  137OSM   H14C14781   0.300   5.782   2.204 -1.7645 -1.0332 -2.8803
  137OSM    C1314782   0.505   5.604   2.232 -0.2631  0.4962 -0.0223
  137OSM   H13A14783   0.597   5.563   2.269 -0.6256  0.4193  0.8155
  137OSM   H13B14784   0.525   5.679   2.156 -0.3475 -1.5046 -2.1228
  137OSM   H13C14785   0.465   5.520   2.178 -1.0901  0.0071  1.2912
  137OSM    C1214786   0.366   5.535   2.430  0.3569 -0.1885 -0.1192
  137OSM   H12A14787   0.287   5.570   2.494 -0.3681 -2.0205  0.0515
  137OSM   H12B14788   0.451   5.514   2.494  1.4435  0.0253 -1.4470
  137OSM    C1114789   0.329   5.393   2.381  0.2642  0.2700  0.1708
  137OSM   H11A14790   0.231   5.401   2.329  0.7235 -1.5538 -1.0841
  137OSM   H11B14791   0.297   5.332   2.468 -0.7166 -2.7343 -2.1505
  137OSM      P14792   0.550   5.257   2.366 -0.4095  0.7295 -0.5493
  137OSM    O1314793   0.541   5.112   2.321  0.6078  0.0769 -0.6336
  137OSM    O1414794   0.679   5.326   2.329 -0.3470 -0.1924 -0.1130
  137OSM    O1114795   0.521   5.279   2.527 -0.4108  0.2701  0.1245
  137OSM    O1214796   0.420   5.326   2.294 -0.4849  0.1011 -0.1008
  137OSM    C1S14797   0.640   5.268   2.610 -0.2574  0.0255  0.2232
  137OSM    H1S14798   0.712   5.352   2.599 -1.1147  1.0164  1.7904
  137OSM    H1T14799   0.704   5.179   2.592 -1.3263 -0.7892  0.3746
  137OSM     NF14800   0.732   5.265   2.838  0.0949  0.6116 -0.4532
  137OSM    HNF14801   0.758   5.172   2.864 -0.3477  0.9369  1.2615
  137OSM    C2S14802   0.606   5.265   2.766 -0.1792  0.0557  0.4047
  137OSM    H2S14803   0.543   5.355   2.780 -0.4027  0.0960 -0.7133
  137OSM    C3S14804   0.500   5.154   2.802  0.3777  0.1226  0.4395
  137OSM    H3S14805   0.549   5.061   2.767 -0.3290 -0.2101  0.3115
  137OSM     O314806   0.382   5.150   2.724  0.1562  0.0584  0.0799
  137OSM    HO314807   0.405   5.208   2.650  2.1145  1.1531  1.4396
  137OSM    C4S14808   0.471   5.148   2.946 -0.0220  0.3459  0.3844
  137OSM    H4S14809   0.550   5.088   2.993  2.4997  2.3225 -1.0586
  137OSM    C5S14810   0.374   5.202   3.019 -0.3824 -0.3963 -0.5814
  137OSM    H5S14811   0.295   5.259   2.969 -0.7296 -1.5621 -1.4001
  137OSM    C6S14812   0.358   5.202   3.168  0.1948 -0.2691 -0.2607
  137OSM    H6S14813   0.303   5.110   3.196 -2.7406  1.4323 -0.0300
  137OSM    H6T14814   0.282   5.277   3.199  0.6854  0.2050 -0.2010
  137OSM    C7S14815   0.487   5.225   3.242 -0.9968  0.2198  0.0686
  137OSM    H7S14816   0.533   5.315   3.196  2.4165 -1.6896 -0.6747
  137OSM    H7T14817   0.568   5.150   3.227 -0.8357  0.4592 -0.2801
  137OSM    C8S14818   0.478   5.228   3.392 -0.5541 -1.2251 -0.5038
  137OSM    H8S14819   0.409   5.146   3.423 -0.5391 -1.1617 -0.2966
  137OSM    H8T14820   0.431   5.327   3.413  1.6666  0.3070 -2.3216
  137OSM    C9S14821   0.606   5.216   3.466 -0.1602  0.1665 -0.0268
  137OSM    H9S14822   0.669   5.304   3.442  0.4491 -0.6292 -1.4498
  137OSM    H9T14823   0.674   5.131   3.445  1.0951  1.0700  0.2670
  137OSM   C10S14824   0.584   5.227   3.617 -0.3760 -0.2728  0.1999
  137OSM   H10S14825   0.531   5.141   3.663  3.8592 -0.9240  4.7315
  137OSM   H10T14826   0.531   5.319   3.651  1.2834  0.3325  1.2874
  137OSM   C11S14827   0.719   5.242   3.686  0.1234  0.0132  0.9001
  137OSM   H11S14828   0.763   5.339   3.654 -0.3117  0.6033  2.0545
  137OSM   H11T14829   0.776   5.157   3.643 -1.9497 -1.4113  0.8086
  137OSM   C12S14830   0.716   5.244   3.837  0.1278  0.7868 -0.2017
  137OSM   H12S14831   0.669   5.151   3.876 -1.1730 -0.2507 -3.8786
  137OSM   H12T14832   0.653   5.326   3.877 -0.7563 -0.8195  1.9272
  137OSM   C13S14833   0.856   5.258   3.895  0.8320  0.0483  0.3451
  137OSM   H13S14834   0.895   5.360   3.873  0.0731  0.0649 -1.0405
  137OSM   H13T14835   0.915   5.182   3.838 -0.9214 -1.4174  0.3872
  137OSM   C14S14836   0.870   5.229   4.054  0.4803  0.6586  0.1719
  137OSM   H14S14837   0.842   5.121   4.054  0.2591  0.6037 -3.1576
  137OSM   H14T14838   0.780   5.276   4.099 -0.8948 -1.8782  0.2384
  137OSM   C15S14839   1.017   5.254   4.099  0.1125 -0.0331  0.3730
  137OSM   H15S14840   1.040   5.359   4.072 -0.1823  0.4403  1.8925
  137OSM   H15T14841   1.088   5.193   4.039  0.6272  0.1472  0.7910
  137OSM   C16S14842   1.045   5.239   4.245  0.1949 -0.4829 -0.4274
  137OSM   H16S14843   1.154   5.242   4.267 -0.0223  2.9236  0.8647
  137OSM   H16T14844   1.002   5.145   4.285  1.7003 -0.0936  2.3915
  137OSM   C17S14845   0.986   5.348   4.333  0.2147  0.0041 -0.3906
  137OSM   H17S14846   0.875   5.350   4.327  0.2096 -1.7611 -1.6026
  137OSM   H17T14847   1.009   5.444   4.282  0.2991 -0.1154 -0.5803
  137OSM   C18S14848   1.032   5.353   4.484 -0.5217 -0.7124 -1.1506
  137OSM   H18S14849   1.140   5.332   4.504  0.0877  2.1605 -0.9400
  137OSM   H18T14850   0.981   5.272   4.539  1.1355 -0.8006  0.3466
  137OSM   H18U14851   0.998   5.451   4.524 -2.1708 -1.7152  0.0075
  137OSM    C1F14852   0.810   5.364   2.855 -0.0086  0.2457 -1.0704
  137OSM     OF14853   0.783   5.475   2.811  0.6195  0.3320 -0.0691
  137OSM    C2F14854   0.946   5.341   2.918 -0.5726  0.6004  0.5108
  137OSM    H2F14855   1.005   5.426   2.877 -1.8055  0.3719 -1.8692
  137OSM    H2G14856   0.998   5.247   2.890 -0.3586  0.8135  0.1831
  137OSM    C3F14857   0.933   5.342   3.067 -0.1001  0.0592 -0.0352
  137OSM    H3F14858   0.869   5.259   3.103 -1.4373  0.6787 -0.9176
  137OSM    H3G14859   0.880   5.433   3.103  0.5794  0.0241  1.0992
  137OSM    C4F14860   1.071   5.326   3.134 -0.0130 -0.5664 -0.0983
  137OSM    H4F14861   1.155   5.384   3.088  0.2644 -1.8771 -1.3056
  137OSM    H4G14862   1.106   5.220   3.137  2.1733  0.1133  1.6707
  137OSM    C5F14863   1.077   5.372   3.283  0.0246  0.0731 -0.2610
  137OSM    H5F14864   1.072   5.481   3.300  1.2054 -0.1442  1.9003
  137OSM    H5G14865   1.179   5.338   3.313 -1.3657 -2.0585  2.5629
  137OSM    C6F14866   0.973   5.308   3.378  0.8156 -0.2338  0.0503
  137OSM    H6F14867   0.869   5.320   3.340  0.4890 -0.1698  0.9546
  137OSM    H6G14868   0.976   5.353   3.479  3.2879 -0.3776  0.1017
  137OSM    C7F14869   0.991   5.153   3.389 -0.1714 -0.3769 -0.2600
  137OSM    H7F14870   0.996   5.127   3.281 -0.6297 -2.8706  0.2496
  137OSM    H7G14871   0.896   5.102   3.418 -0.9095  1.0533 -0.1016
  137OSM    C8F14872   1.111   5.111   3.471  0.1253 -0.0174 -0.0329
  137OSM    H8F14873   1.199   5.167   3.432  1.7425 -1.1699  1.7641
  137OSM    H8G14874   1.131   5.005   3.444 -2.3290 -0.6242  0.3476
  137OSM    C9F14875   1.107   5.122   3.616 -0.0959 -1.1891  0.6735
  137OSM    H9F14876   1.018   5.078   3.664 -0.6886 -1.6616 -0.7984
  137OSM   C10F14877   1.187   5.205   3.693  0.1901  0.3745 -0.6913
  137OSM   H10F14878   1.166   5.201   3.801 -1.6553 -2.2023 -1.0698
  137OSM   C11F14879   1.297   5.302   3.650  0.2890  0.2868 -0.2869
  137OSM   H11F14880   1.273   5.321   3.543  0.2488 -1.6937 -0.6781
  137OSM   H11G14881   1.395   5.252   3.664  0.2204  0.5064  1.1623
  137OSM   C12F14882   1.316   5.432   3.732 -0.4045 -0.2420 -0.2185
  137OSM   H12F14883   1.374   5.504   3.670  0.4988 -0.1186  0.7404
  137OSM   H12G14884   1.373   5.422   3.827  1.1958 -0.5132 -1.1829
  137OSM   C13F14885   1.178   5.509   3.759 -0.1258  0.1994 -0.2408
  137OSM   H13F14886   1.115   5.449   3.827 -0.0470  0.9647  0.5300
  137OSM   H13G14887   1.119   5.522   3.665 -2.7789  0.8415  1.4217
  137OSM   C14F14888   1.204   5.647   3.812 -0.8089  0.2629  0.5398
  137OSM   H14F14889   1.119   5.718   3.801  0.5388  1.8936  0.0806
  137OSM   H14G14890   1.285   5.695   3.752 -1.4560  0.8689  0.1236
  137OSM   C15F14891   1.247   5.656   3.963  0.1073 -0.6253  0.1635
  137OSM   H15F14892   1.329   5.583   3.982  0.5208 -0.2591 -0.1888
  137OSM   H15G14893   1.157   5.631   4.022 -0.8489  1.3662 -0.3705
  137OSM   C16F14894   1.307   5.789   4.005 -0.4231  0.6996  0.3076
  137OSM   H16F14895   1.253   5.867   3.948  1.1422  0.9694 -0.8663
  137OSM   H16G14896   1.411   5.800   3.968  0.4898 -0.4883  2.3164
  137OSM   C17F14897   1.290   5.807   4.159  0.4645 -0.9481  0.5612
  137OSM   H17F14898   1.359   5.736   4.208  2.0900  0.6780  0.7527
  137OSM   H17G14899   1.185   5.796   4.193 -0.1283  1.4792 -0.2583
  137OSM   C18F14900   1.338   5.945   4.208 -0.6307 -0.6621 -0.4263
  137OSM   H18F14901   1.338   5.947   4.319  0.8018  0.2536 -0.4094
  137OSM   H18G14902   1.265   6.022   4.174  0.7641  0.9805  0.1526
  137OSM   H18H14903   1.438   5.978   4.171 -0.9236  0.9115  0.0840
  138OSM      N14904   1.385   2.425   2.107 -0.3496 -0.2175  0.4528
  138OSM    C1514905   1.340   2.542   2.030 -0.0088 -0.2513 -0.5546
  138OSM   H15A14906   1.314   2.629   2.088  0.9018  0.7992 -1.6604
  138OSM   H15B14907   1.249   2.510   1.980  0.8060 -2.8146 -0.5500
  138OSM   H15C14908   1.407   2.588   1.959  0.9660  0.3864  0.7438
  138OSM    C1414909   1.269   2.370   2.189 -0.3749  0.8284 -0.0792
  138OSM   H14A14910   1.168   2.365   2.150  0.1754 -1.6268 -1.3846
  138OSM   H14B14911   1.255   2.416   2.285  1.0574  1.2839 -0.0712
  138OSM   H14C14912   1.288   2.265   2.208 -1.9978  0.4825 -0.2047
  138OSM    C1314913   1.444   2.323   2.015  0.7543 -0.2117 -0.6062
  138OSM   H13A14914   1.526   2.356   1.954  0.8797  2.1671  0.7402
  138OSM   H13B14915   1.376   2.274   1.947  1.5987  0.2956 -1.8315
  138OSM   H13C14916   1.484   2.247   2.081  0.1587 -0.5342 -0.6087
  138OSM    C1214917   1.501   2.459   2.208  0.3361  0.1975  0.4206
  138OSM   H12A14918   1.468   2.548   2.260 -0.9000  0.0821 -0.1136
  138OSM   H12B14919   1.583   2.480   2.141 -0.5636 -0.8609 -1.1010
  138OSM    C1114920   1.535   2.354   2.316  0.1004 -0.3307  0.6253
  138OSM   H11A14921   1.446   2.312   2.367 -1.5254  1.4692 -0.5655
  138OSM   H11B14922   1.597   2.409   2.390  2.2663 -0.4045 -1.0129
  138OSM      P14923   1.761   2.226   2.264  0.0177 -0.3068 -0.3992
  138OSM    O1314924   1.800   2.127   2.166 -0.4738  0.2565 -0.1357
  138OSM    O1414925   1.829   2.361   2.266 -0.3281  0.4252 -0.5662
  138OSM    O1114926   1.780   2.162   2.403 -0.3547  0.1160 -0.3436
  138OSM    O1214927   1.607   2.251   2.255  0.5019 -0.6490  0.8220
  138OSM    C1S14928   1.678   2.064   2.440 -0.2344 -0.3510  0.4263
  138OSM    H1S14929   1.658   2.000   2.352  0.3647 -0.0469  0.0599
  138OSM    H1T14930   1.580   2.111   2.462 -0.7554 -0.9327 -0.5791
  138OSM     NF14931   1.621   1.895   2.603 -1.2529  0.0710 -0.3295
  138OSM    HNF14932   1.567   1.921   2.682 -0.7378 -0.5875  0.2468
  138OSM    C2S14933   1.724   1.986   2.572 -0.1789 -0.5764  0.0849
  138OSM    H2S14934   1.814   1.926   2.545  0.4513  1.2499 -2.2335
  138OSM    C3S14935   1.758   2.078   2.692 -0.0272 -0.0801 -0.3584
  138OSM    H3S14936   1.666   2.137   2.709  0.0561 -0.1684  0.4540
  138OSM     O314937   1.856   2.185   2.670  0.0823 -0.0314  0.1439
  138OSM    HO314938   1.853   2.189   2.574  1.9846  0.8465  0.0851
  138OSM    C4S14939   1.786   2.000   2.818  0.3840  0.1783 -0.6147
  138OSM    H4S14940   1.706   2.009   2.892  1.0284 -2.0294  0.4541
  138OSM    C5S14941   1.903   1.946   2.863  0.6771 -0.1902  0.5070
  138OSM    H5S14942   1.989   1.953   2.796  0.7976  0.0746  0.6855
  138OSM    C6S14943   1.927   1.874   2.983  0.2151 -0.2375  0.2952
  138OSM    H6S14944   2.011   1.924   3.036  0.6462 -3.0972  2.5593
  138OSM    H6T14945   1.955   1.773   2.949  1.3029 -0.7122  2.4403
  138OSM    C7S14946   1.813   1.852   3.082  0.1484  0.7127 -0.4854
  138OSM    H7S14947   1.839   1.769   3.151 -1.9817  0.6316  0.3236
  138OSM    H7T14948   1.725   1.808   3.031  0.6263  0.7219 -1.3242
  138OSM    C8S14949   1.761   1.970   3.172 -0.1814  0.5517  0.2015
  138OSM    H8S14950   1.722   2.052   3.109  1.4917  0.4424 -1.0557
  138OSM    H8T14951   1.851   2.011   3.223  0.5498  0.6674 -1.1424
  138OSM    C9S14952   1.656   1.934   3.284  1.0229 -0.0676  1.2745
  138OSM    H9S14953   1.576   1.871   3.237  2.1092 -1.9967  1.9036
  138OSM    H9T14954   1.616   2.030   3.323  0.1497  0.5484 -0.9485
  138OSM   C10S14955   1.727   1.870   3.397  0.2393  0.1065 -1.2455
  138OSM   H10S14956   1.807   1.940   3.431  1.5658 -2.2737  0.9376
  138OSM   H10T14957   1.780   1.779   3.360  1.4311  1.0193 -1.8615
  138OSM   C11S14958   1.639   1.842   3.527 -0.6805 -0.5076 -0.1976
  138OSM   H11S14959   1.686   1.747   3.560 -1.5930 -0.8435  0.1735
  138OSM   H11T14960   1.533   1.819   3.501 -0.8061 -2.3270  1.6876
  138OSM   C12S14961   1.653   1.946   3.639 -1.0016  0.0541  0.0155
  138OSM   H12S14962   1.588   2.034   3.622  0.1216  0.9209  0.0622
  138OSM   H12T14963   1.760   1.972   3.654 -0.6350 -1.0706 -0.5687
  138OSM   C13S14964   1.598   1.879   3.767  0.3865 -0.0752 -0.4439
  138OSM   H13S14965   1.674   1.806   3.802 -0.7519 -1.8549 -1.4769
  138OSM   H13T14966   1.503   1.827   3.744  0.5864 -1.3266  1.4012
  138OSM   C14S14967   1.593   1.981   3.882 -0.2882  0.0335 -0.5636
  138OSM   H14S14968   1.507   2.041   3.846 -0.4179  0.0480 -0.2325
  138OSM   H14T14969   1.680   2.049   3.889 -1.0794  1.0263 -0.1582
  138OSM   C15S14970   1.574   1.920   4.026  0.6274  0.2494  0.7997
  138OSM   H15S14971   1.662   1.860   4.055  1.4487  1.1390  0.2007
  138OSM   H15T14972   1.485   1.853   4.020  1.3297 -0.6858  0.6269
  138OSM   C16S14973   1.540   2.032   4.138 -0.5093  0.5931 -0.4583
  138OSM   H16S14974   1.457   2.096   4.103 -1.2935  0.0275  0.3289
  138OSM   H16T14975   1.634   2.089   4.156 -1.1633  1.8370 -0.8607
  138OSM   C17S14976   1.499   1.961   4.272  0.2766  0.2955 -0.0319
  138OSM   H17S14977   1.578   1.890   4.305  1.0032  1.0644 -0.0586
  138OSM   H17T14978   1.410   1.895   4.265  0.8869 -0.4219 -1.3042
  138OSM   C18S14979   1.470   2.061   4.388  0.2180  0.4272 -0.1784
  138OSM   H18S14980   1.454   2.003   4.482 -0.4662 -0.7128 -0.9786
  138OSM   H18T14981   1.371   2.111   4.377 -0.5929 -1.6147 -3.4630
  138OSM   H18U14982   1.554   2.131   4.403  2.0393 -1.9925  1.8117
  138OSM    C1F14983   1.593   1.784   2.532 -0.0713 -0.1445  0.4598
  138OSM     OF14984   1.674   1.724   2.459 -0.1331 -0.3981 -0.2780
  138OSM    C2F14985   1.448   1.737   2.537  0.2983 -0.6213  0.2044
  138OSM    H2F14986   1.398   1.751   2.439 -2.4504 -0.9063  1.4727
  138OSM    H2G14987   1.394   1.794   2.616  0.0881 -1.6497  0.8213
  138OSM    C3F14988   1.445   1.578   2.573  0.4931 -0.0343  0.5682
  138OSM    H3F14989   1.486   1.531   2.481 -1.5078 -0.3351 -0.2270
  138OSM    H3G14990   1.336   1.556   2.575  0.2390  1.1548  0.6802
  138OSM    C4F14991   1.514   1.535   2.698 -0.4612  0.8938  0.2696
  138OSM    H4F14992   1.621   1.565   2.689 -0.6423  1.0185 -2.1023
  138OSM    H4G14993   1.505   1.425   2.707  0.7655  0.7821  0.3426
  138OSM    C5F14994   1.456   1.607   2.824 -0.6024  0.5037  0.3561
  138OSM    H5F14995   1.351   1.572   2.835 -0.1694 -0.8620  0.2801
  138OSM    H5G14996   1.461   1.718   2.822  0.2593  0.4563 -0.7680
  138OSM    C6F14997   1.529   1.570   2.954  0.4185 -0.4516  0.1085
  138OSM    H6F14998   1.637   1.596   2.948 -0.0234  1.4298 -0.5583
  138OSM    H6G14999   1.507   1.462   2.968 -2.0460  0.0597  0.7342
  138OSM    C7F15000   1.469   1.657   3.069 -0.5666 -0.0299 -0.1156
  138OSM    H7F15001   1.359   1.643   3.071 -0.5646 -0.0179  0.6241
  138OSM    H7G15002   1.485   1.764   3.044 -2.2163  0.3096  0.1822
  138OSM    C8F15003   1.519   1.619   3.212  0.4253  0.1748  0.5631
  138OSM    H8F15004   1.483   1.699   3.281 -0.4338 -1.8061  2.5257
  138OSM    H8G15005   1.629   1.611   3.221  0.4609 -0.0822 -0.0654
  138OSM    C9F15006   1.460   1.492   3.259 -0.6270 -0.2063 -0.0330
  138OSM    H9F15007   1.447   1.429   3.170  1.4815 -0.0976 -0.4764
  138OSM   C10F15008   1.435   1.445   3.382  0.4940  0.2359 -0.1704
  138OSM   H10F15009   1.395   1.343   3.384  1.2337 -0.0531  0.0157
  138OSM   C11F15010   1.457   1.506   3.516  0.0255 -0.6045  0.0520
  138OSM   H11F15011   1.451   1.616   3.499  0.3912 -0.8810 -2.2236
  138OSM   H11G15012   1.556   1.477   3.556 -0.0172  0.9214  1.3599
  138OSM   C12F15013   1.353   1.457   3.619 -0.5053  0.0095  0.0572
  138OSM   H12F15014   1.396   1.367   3.667 -1.3314 -0.7089 -0.5070
  138OSM   H12G15015   1.264   1.427   3.558  0.7053  0.9104 -2.3058
  138OSM   C13F15016   1.311   1.557   3.730 -0.4983  0.5443 -0.3523
  138OSM   H13F15017   1.218   1.514   3.772 -1.2568 -1.2994 -3.5472
  138OSM   H13G15018   1.292   1.654   3.680  0.8879  1.1124  0.1866
  138OSM   C14F15019   1.409   1.572   3.849 -0.2585 -0.3868  0.5987
  138OSM   H14F15020   1.374   1.651   3.918 -0.5345 -0.8553  0.9998
  138OSM   H14G15021   1.509   1.593   3.806  0.7368  0.9247  3.3353
  138OSM   C15F15022   1.426   1.451   3.940  0.4833  0.5777  0.0595
  138OSM   H15F15023   1.480   1.365   3.893  0.4945  1.1282 -0.9593
  138OSM   H15G15024   1.331   1.400   3.967  1.0357 -0.7596 -0.4089
  138OSM   C16F15025   1.498   1.473   4.075  0.5620  0.1142  0.7696
  138OSM   H16F15026   1.447   1.556   4.127  1.9050  1.5138 -0.0676
  138OSM   H16G15027   1.605   1.493   4.053  1.1349 -1.3405  1.9766
  138OSM   C17F15028   1.483   1.355   4.177  1.0788 -0.3540 -0.0159
  138OSM   H17F15029   1.526   1.270   4.121  0.7968  1.0124 -2.4794
  138OSM   H17G15030   1.375   1.340   4.197  0.7425  1.6179 -0.1294
  138OSM   C18F15031   1.557   1.398   4.303  0.2517  0.2875 -0.4624
  138OSM   H18F15032   1.545   1.324   4.385  1.0644 -0.6540 -1.1702
  138OSM   H18G15033   1.508   1.491   4.340  1.6720  1.0937 -0.5240
  138OSM   H18H15034   1.662   1.422   4.277  0.5317 -0.1229  0.2609
  139OSM      N15035   1.956   3.301   2.054 -0.1579 -0.3899  0.6273
  139OSM    C1515036   1.962   3.265   2.196 -0.7797 -0.5290 -0.6329
  139OSM   H15A15037   2.057   3.217   2.214  1.3697  2.4412 -3.0354
  139OSM   H15B15038   1.897   3.181   2.215 -1.2905  0.1839  1.0116
  139OSM   H15C15039   1.946   3.358   2.249  2.7190  0.5709 -1.2723
  139OSM    C1415040   1.824   3.368   2.028  0.4824  0.0614 -0.4698
  139OSM   H14A15041   1.830   3.428   1.938 -3.1083 -2.0996 -2.4106
  139OSM   H14B15042   1.813   3.450   2.098 -0.5410  0.9601 -1.6229
  139OSM   H14C15043   1.733   3.310   2.023 -0.0495  0.5147  2.3537
  139OSM    C1315044   2.064   3.400   2.036  0.1289 -0.3403  0.1668
  139OSM   H13A15045   2.056   3.435   1.934 -1.7342 -0.2628  0.3066
  139OSM   H13B15046   2.157   3.347   2.051 -0.1645 -0.3035  2.3489
  139OSM   H13C15047   2.055   3.477   2.111 -2.4965  1.5238 -1.8794
  139OSM    C1215048   1.971   3.187   1.956  0.3645  0.5642  0.3118
  139OSM   H12A15049   1.992   3.232   1.860 -3.5289  2.3459  0.1013
  139OSM   H12B15050   1.880   3.129   1.946  0.6058  0.4638 -1.7653
  139OSM    C1115051   2.079   3.084   1.979 -0.3385  0.9043  0.2335
  139OSM   H11A15052   2.063   3.006   1.901  0.4808  2.4360 -1.5507
  139OSM   H11B15053   2.063   3.044   2.081 -1.1392  3.0320  0.9968
  139OSM      P15054   2.334   3.053   2.013  0.0215  0.1220 -0.0780
  139OSM    O1315055   2.303   2.954   2.120  0.3798 -0.1224 -0.3756
  139OSM    O1415056   2.396   2.998   1.898  0.0002 -0.3169 -0.0678
  139OSM    O1115057   2.424   3.174   2.071 -0.3297 -0.1651 -0.4017
  139OSM    O1215058   2.210   3.140   1.965  0.3463  0.3007 -0.4779
  139OSM    C1S15059   2.376   3.265   2.174  0.6870 -0.0565  0.0048
  139OSM    H1S15060   2.266   3.285   2.172  0.1566 -2.5868  0.2163
  139OSM    H1T15061   2.430   3.362   2.173  1.1883 -0.2871  1.6971
  139OSM     NF15062   2.365   3.299   2.426  0.0055  0.1418 -0.1388
  139OSM    HNF15063   2.421   3.365   2.475  0.5708 -2.2592  2.7452
  139OSM    C2S15064   2.426   3.224   2.317 -0.2236  1.3605 -0.5794
  139OSM    H2S15065   2.395   3.118   2.319  0.6489  1.1075  0.6556
  139OSM    C3S15066   2.585   3.228   2.320  0.3768  0.0689  0.0053
  139OSM    H3S15067   2.619   3.328   2.286  1.0298 -0.0608  0.2610
  139OSM     O315068   2.643   3.143   2.221  0.0984  0.2437 -0.3554
  139OSM    HO315069   2.569   3.123   2.163 -0.3063  0.8600 -0.0548
  139OSM    C4S15070   2.637   3.198   2.461  0.9546  0.2972  0.0205
  139OSM    H4S15071   2.632   3.282   2.531 -1.5362  0.6230 -0.4410
  139OSM    C5S15072   2.678   3.080   2.513 -0.2794  0.7488  0.9072
  139OSM    H5S15073   2.682   2.991   2.448  0.2082  1.8585 -0.6239
  139OSM    C6S15074   2.708   3.053   2.661 -0.4969  0.4462  0.1347
  139OSM    H6S15075   2.815   3.079   2.668 -0.9330  2.0681  1.3066
  139OSM    H6T15076   2.687   2.949   2.694  0.5036 -1.1934 -3.8289
  139OSM    C7S15077   2.642   3.157   2.762  0.1565  0.7627 -0.1406
  139OSM    H7S15078   2.533   3.134   2.762  0.8685 -3.4627  0.5056
  139OSM    H7T15079   2.665   3.262   2.732 -1.1436  1.1053 -0.0095
  139OSM    C8S15080   2.689   3.138   2.901  0.4527 -0.0203  0.4657
  139OSM    H8S15081   2.799   3.135   2.913  0.2769  1.1492  3.2289
  139OSM    H8T15082   2.661   3.038   2.939  0.6395 -0.0247  0.5951
  139OSM    C9S15083   2.622   3.246   2.996 -0.7728 -0.2530 -0.1135
  139OSM    H9S15084   2.511   3.248   2.988 -0.7703  0.7051 -0.0715
  139OSM    H9T15085   2.664   3.343   2.963 -3.7369  0.7909 -1.1631
  139OSM   C10S15086   2.659   3.234   3.149  0.1894 -0.7659 -1.1427
  139OSM   H10S15087   2.770   3.230   3.156  0.2126  0.5854 -0.4210
  139OSM   H10T15088   2.619   3.140   3.192 -1.0556 -0.0912 -0.7904
  139OSM   C11S15089   2.611   3.344   3.231  0.5870  0.4565  0.1184
  139OSM   H11S15090   2.505   3.363   3.204  1.4403  1.3087 -3.0915
  139OSM   H11T15091   2.658   3.441   3.202  0.0699  0.3398 -1.1890
  139OSM   C12S15092   2.632   3.300   3.379 -0.6357  0.0320 -0.1349
  139OSM   H12S15093   2.741   3.291   3.394 -0.5383 -1.0820 -1.2930
  139OSM   H12T15094   2.599   3.196   3.398  2.6513 -1.6934 -2.7149
  139OSM   C13S15095   2.563   3.388   3.486 -0.4114 -0.1879 -0.1619
  139OSM   H13S15096   2.454   3.371   3.473 -0.5058 -1.0699  1.4887
  139OSM   H13T15097   2.590   3.495   3.480  0.1528 -0.0460  3.1725
  139OSM   C14S15098   2.600   3.357   3.634  0.6652  0.0839 -0.2645
  139OSM   H14S15099   2.708   3.354   3.659  0.7155 -1.8744 -0.5360
  139OSM   H14T15100   2.563   3.253   3.641  2.8824 -0.7190  0.4462
  139OSM   C15S15101   2.512   3.433   3.736  0.4156  0.5658  0.6557
  139OSM   H15S15102   2.404   3.413   3.718  0.4984  1.3785 -0.8377
  139OSM   H15T15103   2.516   3.543   3.723  0.0791  0.5038 -0.0246
  139OSM   C16S15104   2.546   3.393   3.885  0.1373  0.5561  0.7237
  139OSM   H16S15105   2.627   3.460   3.918  0.2891  0.8249 -0.1748
  139OSM   H16T15106   2.578   3.287   3.877 -2.5920 -0.3725  0.9659
  139OSM   C17S15107   2.430   3.409   3.985 -0.7986 -0.0867  0.5013
  139OSM   H17S15108   2.341   3.381   3.924  1.6582 -0.4116 -3.2545
  139OSM   H17T15109   2.431   3.513   4.022  1.8537 -0.3021  1.2338
  139OSM   C18S15110   2.423   3.311   4.105  0.0199 -0.1883 -0.0949
  139OSM   H18S15111   2.517   3.319   4.165 -0.6477  2.6960  0.7484
  139OSM   H18T15112   2.403   3.211   4.062  1.4472 -0.7864  0.5503
  139OSM   H18U15113   2.333   3.335   4.164  2.2707  0.0647  3.5493
  139OSM    C1F15114   2.235   3.293   2.462  0.8574  0.1220  0.3738
  139OSM     OF15115   2.149   3.218   2.409 -0.4632  0.0166  0.0312
  139OSM    C2F15116   2.203   3.376   2.586 -0.4779  0.5358 -0.2929
  139OSM    H2F15117   2.291   3.426   2.631 -0.5014 -0.3430  0.7695
  139OSM    H2G15118   2.162   3.309   2.665  1.4988 -2.4479 -1.6032
  139OSM    C3F15119   2.103   3.489   2.547 -0.2737  0.2954 -0.3815
  139OSM    H3F15120   2.010   3.446   2.505  1.1192 -3.2073 -0.2378
  139OSM    H3G15121   2.155   3.549   2.469 -1.3912 -0.1687 -1.5077
  139OSM    C4F15122   2.053   3.570   2.663 -0.4725  0.1402 -0.0521
  139OSM    H4F15123   1.963   3.632   2.640 -0.3716  0.4447  0.3747
  139OSM    H4G15124   2.140   3.635   2.685  1.2877 -1.1797 -2.6083
  139OSM    C5F15125   2.014   3.484   2.779 -0.1303 -0.4050  0.9800
  139OSM    H5F15126   2.105   3.453   2.836  1.2297  1.7880  0.1168
  139OSM    H5G15127   1.978   3.382   2.755 -0.1448 -0.5901  1.7511
  139OSM    C6F15128   1.904   3.546   2.873 -0.2600  0.1151 -0.2301
  139OSM    H6F15129   1.837   3.612   2.813 -0.0089 -0.8020 -1.5648
  139OSM    H6G15130   1.959   3.611   2.944  1.2056  0.5393 -1.7020
  139OSM    C7F15131   1.817   3.438   2.946 -0.3507 -0.2883 -0.5518
  139OSM    H7F15132   1.792   3.369   2.863 -0.8827 -3.3715  2.0062
  139OSM    H7G15133   1.731   3.480   3.002 -0.6445 -0.7178 -0.6791
  139OSM    C8F15134   1.902   3.364   3.051 -0.1007 -0.8546  0.3951
  139OSM    H8F15135   1.917   3.434   3.136 -1.2983  0.5335 -0.5014
  139OSM    H8G15136   2.004   3.351   3.009 -0.5638  0.3278 -1.1587
  139OSM    C9F15137   1.852   3.229   3.088  0.0644  0.9730 -0.5886
  139OSM    H9F15138   1.823   3.175   2.996 -1.5085  0.0170  0.4187
  139OSM   C10F15139   1.816   3.183   3.208 -0.2192  0.0110 -0.0177
  139OSM   H10F15140   1.788   3.077   3.224  1.1982 -0.1271  1.8229
  139OSM   C11F15141   1.838   3.255   3.336  0.3296 -0.2951 -0.0932
  139OSM   H11F15142   1.741   3.307   3.351  0.2301  0.3417 -2.5032
  139OSM   H11G15143   1.907   3.339   3.312  1.2859 -1.8359 -3.3923
  139OSM   C12F15144   1.893   3.169   3.448  0.6652 -0.9016 -0.2115
  139OSM   H12F15145   1.993   3.135   3.413  0.6619 -0.8392 -0.2806
  139OSM   H12G15146   1.825   3.082   3.463 -0.0434 -0.0377  1.8301
  139OSM   C13F15147   1.902   3.240   3.582 -0.5488 -0.2563 -0.4788
  139OSM   H13F15148   1.802   3.242   3.630 -0.8347 -3.5448 -0.7026
  139OSM   H13G15149   1.944   3.341   3.564 -1.6187  0.3675  0.4226
  139OSM   C14F15150   1.988   3.154   3.691  0.0638 -0.0357  0.0723
  139OSM   H14F15151   2.090   3.141   3.648 -0.2618 -2.2344 -0.1198
  139OSM   H14G15152   1.940   3.055   3.695  0.4794 -0.2065  1.3811
  139OSM   C15F15153   1.993   3.226   3.828 -0.0438  0.5136 -0.4492
  139OSM   H15F15154   2.026   3.332   3.818  1.8314 -0.0530 -0.4627
  139OSM   H15G15155   2.052   3.169   3.902 -1.0669  0.1137  0.0878
  139OSM   C16F15156   1.853   3.247   3.892 -0.7762  0.8309 -0.0556
  139OSM   H16F15157   1.803   3.148   3.891 -1.9058  1.3661 -1.9861
  139OSM   H16G15158   1.802   3.312   3.818 -2.0980 -2.2326 -2.0418
  139OSM   C17F15159   1.849   3.311   4.031  0.0251 -0.0469 -0.5151
  139OSM   H17F15160   1.741   3.330   4.052  0.2449  0.6541  0.0209
  139OSM   H17G15161   1.909   3.403   4.043  2.0052 -1.5015  1.9693
  139OSM   C18F15162   1.889   3.203   4.139  0.4005  0.2932  0.3434
  139OSM   H18F15163   1.895   3.257   4.236  1.8602  1.2095 -0.2286
  139OSM   H18G15164   1.977   3.143   4.107 -0.2130 -0.2961 -0.2610
  139OSM   H18H15165   1.806   3.129   4.144  0.1802  0.5384  0.3572
  140OSM      N15166   6.667   2.392   2.272  1.0049 -1.0262  0.1479
  140OSM    C1515167   6.795   2.441   2.335  0.0685  0.3671 -0.6687
  140OSM   H15A15168   6.785   2.538   2.380 -0.1596 -0.9214  2.2722
  140OSM   H15B15169   6.878   2.444   2.266  2.5734  2.7136  2.1619
  140OSM   H15C15170   6.817   2.372   2.415 -0.1100 -1.0259 -1.7635
  140OSM    C1415171   6.551   2.384   2.368 -0.5197  0.5821  0.4167
  140OSM   H14A15172   6.560   2.295   2.430  1.6132 -0.6698 -1.5280
  140OSM   H14B15173   6.456   2.395   2.320 -0.9776  0.6770  1.3183
  140OSM   H14C15174   6.554   2.474   2.427  0.5605  1.2302 -0.5857
  140OSM    C1315175   6.621   2.479   2.159 -0.1631  0.3967 -0.1651
  140OSM   H13A15176   6.682   2.475   2.070 -1.5384 -1.7192 -1.1066
  140OSM   H13B15177   6.608   2.584   2.182 -1.2433  0.3422 -0.4898
  140OSM   H13C15178   6.523   2.452   2.124 -1.2271  3.0626  0.5058
  140OSM    C1215179   6.683   2.252   2.208 -0.0562  0.0779  0.0182
  140OSM   H12A15180   6.760   2.269   2.134  0.8235  1.6526  1.2369
  140OSM   H12B15181   6.595   2.215   2.157 -0.1016 -0.4741  0.4852
  140OSM    C1115182   6.719   2.138   2.303 -0.2399  0.0117  0.1167
  140OSM   H11A15183   6.796   2.172   2.377  0.5620 -1.7541  0.1486
  140OSM   H11B15184   6.769   2.052   2.254  0.2038  0.6681 -0.5965
  140OSM      P15185   6.542   1.957   2.358  0.1993  0.1108  0.1011
  140OSM    O1315186   6.446   1.928   2.468 -0.4736 -0.6105 -0.1247
  140OSM    O1415187   6.480   1.944   2.225 -0.4778  0.2279 -0.4347
  140OSM    O1115188   6.652   1.848   2.370 -0.3349  0.3622  0.1352
  140OSM    O1215189   6.608   2.098   2.380 -0.3368  0.6494 -0.0971
  140OSM    C1S15190   6.775   1.861   2.447  0.0458 -0.0841 -0.2969
  140OSM    H1S15191   6.823   1.961   2.440  1.9318 -0.9353 -0.1418
  140OSM    H1T15192   6.845   1.785   2.406  1.6180  1.5448 -0.7611
  140OSM     NF15193   6.874   1.853   2.676  0.3176 -0.0012  0.0611
  140OSM    HNF15194   6.924   1.772   2.706  0.5854  0.1343 -0.0173
  140OSM    C2S15195   6.750   1.833   2.603  0.0425 -0.4962 -0.3789
  140OSM    H2S15196   6.675   1.904   2.644 -0.2495  0.1311 -1.9317
  140OSM    C3S15197   6.695   1.683   2.611  0.0636 -0.7451 -0.5596
  140OSM    H3S15198   6.781   1.627   2.568  0.3047 -1.0952  0.3534
  140OSM     O315199   6.577   1.656   2.531  0.1475  0.2080 -0.2974
  140OSM    HO315200   6.563   1.735   2.477  1.8969  0.5748 -0.2917
  140OSM    C4S15201   6.690   1.640   2.755  0.2252 -0.3316 -0.0026
  140OSM    H4S15202   6.784   1.604   2.800  1.0067  0.5807 -0.8500
  140OSM    C5S15203   6.584   1.647   2.841 -0.4419  0.3235  0.0793
  140OSM    H5S15204   6.488   1.685   2.802 -0.7810 -1.6196 -1.1570
  140OSM    C6S15205   6.597   1.600   2.985  0.1344 -0.3056  0.2879
  140OSM    H6S15206   6.612   1.490   2.982  0.1299 -0.3447  1.4512
  140OSM    H6T15207   6.503   1.620   3.041 -1.0395  0.9105 -1.9509
  140OSM    C7S15208   6.711   1.656   3.066 -0.0033 -0.0333  0.5418
  140OSM    H7S15209   6.810   1.621   3.029 -1.4632 -3.2132 -0.7523
  140OSM    H7T15210   6.698   1.623   3.171  0.8529  1.7085  1.2401
  140OSM    C8S15211   6.714   1.812   3.093  0.5527  0.0607 -0.7062
  140OSM    H8S15212   6.607   1.837   3.111  0.6420 -1.2960  2.2298
  140OSM    H8T15213   6.745   1.868   3.002  0.5680  0.2658 -0.5735
  140OSM    C9S15214   6.800   1.848   3.221 -0.2755  0.3385  0.0509
  140OSM    H9S15215   6.906   1.817   3.207 -0.9724 -2.0760 -0.4707
  140OSM    H9T15216   6.769   1.792   3.312  1.2374 -0.6995 -0.0350
  140OSM   C10S15217   6.797   2.000   3.257  0.2592  0.6386 -0.6320
  140OSM   H10S15218   6.834   2.027   3.358 -1.1078  2.0675 -0.4801
  140OSM   H10T15219   6.692   2.034   3.255  0.2012  0.7787  1.7088
  140OSM   C11S15220   6.849   2.086   3.138  0.5549  0.3068  0.1594
  140OSM   H11S15221   6.775   2.089   3.055  2.3424 -1.6773 -1.6298
  140OSM   H11T15222   6.949   2.051   3.104  0.4748  0.5379 -0.3160
  140OSM   C12S15223   6.877   2.221   3.192  0.5296  0.1219  0.2708
  140OSM   H12S15224   6.811   2.245   3.278 -0.1828 -0.8107 -0.0028
  140OSM   H12T15225   6.856   2.297   3.114  1.0153  0.4390  0.4436
  140OSM   C13S15226   7.016   2.242   3.250 -0.1892 -0.7093 -0.2207
  140OSM   H13S15227   7.094   2.248   3.172 -0.9221  1.5738 -0.8667
  140OSM   H13T15228   7.030   2.142   3.297 -4.0580 -2.0980 -1.6097
  140OSM   C14S15229   7.015   2.358   3.346  0.2514 -0.5497 -0.2394
  140OSM   H14S15230   6.944   2.344   3.430 -0.1974 -1.8004 -0.8019
  140OSM   H14T15231   6.966   2.431   3.278 -0.2108 -1.1717 -0.5862
  140OSM   C15S15232   7.149   2.423   3.390 -0.0363  0.0366 -0.5131
  140OSM   H15S15233   7.131   2.532   3.401  1.0352  0.0847  1.2148
  140OSM   H15T15234   7.214   2.401   3.303  1.1110  0.5817  0.1814
  140OSM   C16S15235   7.203   2.364   3.526 -0.4482  0.5415 -0.1367
  140OSM   H16S15236   7.310   2.392   3.529 -0.1491 -0.5845  1.1930
  140OSM   H16T15237   7.186   2.254   3.529  0.6830  0.3675  0.2054
  140OSM   C17S15238   7.131   2.416   3.650  0.4611 -1.3348 -0.1425
  140OSM   H17S15239   7.026   2.379   3.654 -0.2366  0.6022  1.0224
  140OSM   H17T15240   7.130   2.526   3.631  3.3669 -1.7533 -3.6162
  140OSM   C18S15241   7.200   2.393   3.782 -0.3455 -0.2474  0.2360
  140OSM   H18S15242   7.157   2.445   3.870  0.1331  1.1475 -0.3275
  140OSM   H18T15243   7.309   2.417   3.773 -0.4456  0.1920  0.1791
  140OSM   H18U15244   7.184   2.285   3.799 -1.6135  0.0455  1.0220
  140OSM    C1F15245   6.919   1.977   2.698 -0.3103 -0.0709  0.3347
  140OSM     OF15246   6.865   2.075   2.641  0.6271  0.5173 -0.2928
  140OSM    C2F15247   7.050   2.000   2.779  0.1811  0.1798 -0.5539
  140OSM    H2F15248   7.134   1.968   2.713 -1.9936 -2.7036 -2.2086
  140OSM    H2G15249   7.056   1.934   2.868  0.0331  0.9811  0.0595
  140OSM    C3F15250   7.064   2.145   2.826 -0.3168 -0.2585 -0.5382
  140OSM    H3F15251   7.006   2.164   2.919  1.5645 -4.4261  1.7764
  140OSM    H3G15252   7.041   2.211   2.740  0.9780  3.0111  1.4206
  140OSM    C4F15253   7.214   2.190   2.860 -0.1068  0.0084  0.2529
  140OSM    H4F15254   7.288   2.154   2.785  0.3240  0.1258  0.6215
  140OSM    H4G15255   7.243   2.153   2.960  0.3243  0.5561  0.3338
  140OSM    C5F15256   7.227   2.341   2.878 -0.5113  0.3826 -1.0351
  140OSM    H5F15257   7.150   2.370   2.953 -0.3101 -1.6913  0.0715
  140OSM    H5G15258   7.236   2.406   2.789  2.1333 -0.4623 -1.4649
  140OSM    C6F15259   7.357   2.380   2.954  0.2405  1.0289 -0.0785
  140OSM    H6F15260   7.440   2.322   2.907  0.5096  0.8065  0.6616
  140OSM    H6G15261   7.351   2.345   3.059  1.3381  0.4924 -0.1807
  140OSM    C7F15262   7.398   2.528   2.953  0.2026  0.5651  0.0464
  140OSM    H7F15263   7.390   2.578   2.854  0.7304 -0.1409 -0.3682
  140OSM    H7G15264   7.507   2.527   2.972 -0.0045  0.0590  1.3432
  140OSM    C8F15265   7.327   2.611   3.051  0.6809  0.8956  0.0093
  140OSM    H8F15266   7.332   2.562   3.151  0.7221  3.5873  1.4018
  140OSM    H8G15267   7.218   2.610   3.026  1.0706  2.3899 -1.9990
  140OSM    C9F15268   7.380   2.749   3.076  0.1637  0.0135  0.0003
  140OSM    H9F15269   7.426   2.793   2.986 -1.8632 -1.9071 -2.0966
  140OSM   C10F15270   7.393   2.814   3.191 -0.5900  1.0319 -0.4556
  140OSM   H10F15271   7.455   2.904   3.187  0.8481  0.1609  1.0930
  140OSM   C11F15272   7.359   2.756   3.326  0.1217 -0.4469 -0.7793
  140OSM   H11F15273   7.290   2.669   3.321  0.9938 -1.1948 -0.1011
  140OSM   H11G15274   7.305   2.839   3.377  2.5291 -0.2204  1.5568
  140OSM   C12F15275   7.486   2.726   3.413  0.3101  0.9380  0.2165
  140OSM   H12F15276   7.521   2.824   3.453 -0.6568  0.7232  1.6688
  140OSM   H12G15277   7.559   2.669   3.352 -1.7519 -0.0606 -1.4911
  140OSM   C13F15278   7.457   2.615   3.522 -0.5488 -0.6862  0.3182
  140OSM   H13F15279   7.487   2.518   3.477 -0.3283 -0.7074  0.5076
  140OSM   H13G15280   7.349   2.608   3.545 -0.3933 -2.1257  0.7409
  140OSM   C14F15281   7.533   2.637   3.660 -0.3324 -0.7347  1.1401
  140OSM   H14F15282   7.641   2.636   3.635 -0.8543  2.7607 -2.2818
  140OSM   H14G15283   7.507   2.553   3.727 -0.8298  0.5708  2.6484
  140OSM   C15F15284   7.483   2.758   3.729 -0.3620  0.1097 -0.8747
  140OSM   H15F15285   7.374   2.771   3.710 -0.9300  0.8970  2.3416
  140OSM   H15G15286   7.539   2.851   3.702 -0.0124  0.0643 -0.3287
  140OSM   C16F15287   7.473   2.746   3.883 -0.1510 -0.2577 -0.6964
  140OSM   H16F15288   7.512   2.838   3.933  2.6682 -1.6631 -0.1417
  140OSM   H16G15289   7.547   2.670   3.915 -0.7182 -0.3220  0.5287
  140OSM   C17F15290   7.338   2.718   3.938  0.2055  0.2046  0.5207
  140OSM   H17F15291   7.298   2.625   3.892  2.1336 -2.7744  4.2952
  140OSM   H17G15292   7.271   2.805   3.925 -2.0715 -0.9299  3.4135
  140OSM   C18F15293   7.325   2.694   4.087  0.0238  1.0056  0.3273
  140OSM   H18F15294   7.223   2.665   4.119  0.9679 -3.1444  0.1597
  140OSM   H18G15295   7.352   2.785   4.145  0.0868 -0.5182  2.8695
  140OSM   H18H15296   7.372   2.601   4.126 -1.0470  0.5345  0.5387
  141OSM      N15297   3.412   4.106   2.282 -0.6138  0.3329  0.4815
  141OSM    C1515298   3.342   4.083   2.152 -0.7630  0.6129 -0.2471
  141OSM   H15A15299   3.419   4.048   2.086 -0.2693 -1.7066  1.4322
  141OSM   H15B15300   3.318   4.178   2.106  0.2179  0.8736 -0.2461
  141OSM   H15C15301   3.262   4.011   2.154  0.3394 -0.6169  1.2362
  141OSM    C1415302   3.488   3.983   2.317 -0.4650 -0.0397 -0.0477
  141OSM   H14A15303   3.526   3.988   2.418 -0.1960  1.3584 -0.2032
  141OSM   H14B15304   3.560   3.948   2.244  0.5427 -1.8566  1.6888
  141OSM   H14C15305   3.424   3.897   2.325 -0.8345  0.0784 -1.4699
  141OSM    C1315306   3.523   4.212   2.272  0.4560 -0.1953 -0.8163
  141OSM   H13A15307   3.608   4.177   2.214  0.3001 -1.9761 -0.0464
  141OSM   H13B15308   3.563   4.241   2.368  2.1364 -0.4629 -1.3994
  141OSM   H13C15309   3.476   4.302   2.237  1.0895  1.1251  1.4981
  141OSM    C1215310   3.312   4.140   2.393 -0.2077  0.6784 -0.0489
  141OSM   H12A15311   3.355   4.104   2.486 -2.0414 -1.6147  0.0080
  141OSM   H12B15312   3.214   4.098   2.378  0.1507 -0.3571  0.3938
  141OSM    C1115313   3.292   4.291   2.411  0.2121 -1.3627 -0.5207
  141OSM   H11A15314   3.392   4.318   2.453 -0.2257 -2.7541  1.6131
  141OSM   H11B15315   3.222   4.296   2.497 -1.2252 -0.0849 -1.7128
  141OSM      P15316   3.099   4.371   2.256  0.3106 -0.3048  0.0757
  141OSM    O1315317   3.079   4.484   2.161 -0.3450  0.4823 -0.0246
  141OSM    O1415318   3.054   4.240   2.200 -0.1895  0.0961  0.6307
  141OSM    O1115319   3.026   4.403   2.390  0.0734 -0.0614  0.1026
  141OSM    O1215320   3.252   4.360   2.294  0.3664 -0.3399  0.4233
  141OSM    C1S15321   3.035   4.522   2.462 -0.5019 -0.5490 -0.0148
  141OSM    H1S15322   3.008   4.610   2.400 -0.5718 -0.0266  0.7383
  141OSM    H1T15323   3.137   4.530   2.505 -0.4927  2.3120 -0.3698
  141OSM     NF15324   2.972   4.641   2.657 -0.1947  0.0349  0.1482
  141OSM    HNF15325   3.056   4.644   2.710  0.4592  1.2824 -0.9114
  141OSM    C2S15326   2.955   4.514   2.590 -0.2693  0.1913  0.5730
  141OSM    H2S15327   2.847   4.489   2.579 -0.2693  0.7043 -0.6462
  141OSM    C3S15328   3.010   4.394   2.682  0.4414  0.2073 -0.5007
  141OSM    H3S15329   3.121   4.399   2.685  0.5274 -1.6238  1.2034
  141OSM     O315330   2.987   4.264   2.632  0.3956  0.0999 -0.1887
  141OSM    HO315331   2.953   4.280   2.544 -0.4283  3.3548  0.5677
  141OSM    C4S15332   2.969   4.413   2.827  0.0011  0.7083  0.5360
  141OSM    H4S15333   3.039   4.458   2.900  0.0474 -1.8515  2.2192
  141OSM    C5S15334   2.856   4.364   2.879  1.4251  0.7052 -0.2064
  141OSM    H5S15335   2.790   4.304   2.814  2.2637  0.8067 -1.1712
  141OSM    C6S15336   2.813   4.377   3.019  0.1601 -1.2981  0.6326
  141OSM    H6S15337   2.740   4.461   3.021  1.0364 -0.4112 -1.4434
  141OSM    H6T15338   2.893   4.424   3.080 -1.5362  2.3358  0.3845
  141OSM    C7S15339   2.755   4.247   3.067  0.4384  0.5237  0.3116
  141OSM    H7S15340   2.835   4.170   3.063  0.1590  0.1793  1.2703
  141OSM    H7T15341   2.670   4.213   3.003  1.5259 -1.5622 -0.1266
  141OSM    C8S15342   2.709   4.257   3.213  0.3281  0.4458  0.1660
  141OSM    H8S15343   2.626   4.330   3.212  1.8719  2.3614 -2.9288
  141OSM    H8T15344   2.784   4.311   3.274  0.5819 -0.5842  0.7993
  141OSM    C9S15345   2.661   4.122   3.274  0.1751 -0.3447 -0.6141
  141OSM    H9S15346   2.658   4.120   3.385 -3.1931 -0.7202 -0.6006
  141OSM    H9T15347   2.722   4.037   3.236  0.5543 -1.1855  1.7130
  141OSM   C10S15348   2.510   4.103   3.230  0.2440  0.1432 -0.0301
  141OSM   H10S15349   2.511   4.116   3.120 -1.9965  0.1358 -0.1108
  141OSM   H10T15350   2.451   4.185   3.277  0.3516  0.1938  0.0165
  141OSM   C11S15351   2.451   3.965   3.258 -0.2900  0.2783  0.8026
  141OSM   H11S15352   2.509   3.887   3.204  1.0008  1.9093 -0.2453
  141OSM   H11T15353   2.347   3.969   3.222  0.7216 -0.2830 -2.5413
  141OSM   C12S15354   2.453   3.925   3.409  0.2184  0.2742  0.3845
  141OSM   H12S15355   2.558   3.917   3.446 -0.3375 -0.8311  1.8163
  141OSM   H12T15356   2.401   3.828   3.419  2.0405 -0.6044  1.9506
  141OSM   C13S15357   2.382   4.035   3.493  0.0221 -0.2051  0.4698
  141OSM   H13S15358   2.284   4.058   3.445  0.4293  3.7330  1.2232
  141OSM   H13T15359   2.434   4.133   3.488  0.7194 -0.4020  2.8516
  141OSM   C14S15360   2.362   4.010   3.640 -0.1648  0.0480 -0.5473
  141OSM   H14S15361   2.335   3.904   3.660 -1.6232  0.5531  0.3523
  141OSM   H14T15362   2.282   4.068   3.690 -0.7128  1.0640 -2.4803
  141OSM   C15S15363   2.492   4.059   3.705 -0.3383  0.1599  0.8030
  141OSM   H15S15364   2.512   4.163   3.672  0.0170 -0.8138 -2.3009
  141OSM   H15T15365   2.584   4.002   3.677  0.7276  1.3707  1.7289
  141OSM   C16S15366   2.473   4.069   3.860  0.3534 -0.1434 -0.2825
  141OSM   H16S15367   2.404   4.152   3.886  2.9611  1.7416  1.1131
  141OSM   H16T15368   2.570   4.101   3.903  0.0128  1.8354 -0.9170
  141OSM   C17S15369   2.429   3.945   3.924 -0.1538  0.4566  0.3334
  141OSM   H17S15370   2.342   3.893   3.878 -0.3794  0.8517  0.3082
  141OSM   H17T15371   2.401   3.965   4.030  0.1519  0.5323  0.3978
  141OSM   C18S15372   2.546   3.843   3.933 -0.0237 -0.1921 -0.8383
  141OSM   H18S15373   2.525   3.738   3.960 -2.3744  0.1128 -1.2869
  141OSM   H18T15374   2.625   3.887   3.998  0.0489 -2.1426  0.4693
  141OSM   H18U15375   2.595   3.834   3.833  1.9022  0.9102 -0.0559
  141OSM    C1F15376   2.905   4.749   2.605  0.1493  0.9055  0.3390
  141OSM     OF15377   2.814   4.737   2.523 -0.2069 -0.4659 -0.2995
  141OSM    C2F15378   2.933   4.886   2.654 -0.4162 -0.5346  1.2174
  141OSM    H2F15379   2.946   4.958   2.571 -0.1575 -0.1271  1.5988
  141OSM    H2G15380   3.034   4.880   2.700  0.6865 -2.5867 -1.2239
  141OSM    C3F15381   2.827   4.942   2.748 -0.0866 -0.4432  0.1068
  141OSM    H3F15382   2.731   4.938   2.693 -1.0865 -1.8734  1.8322
  141OSM    H3G15383   2.848   5.049   2.770  0.4757 -0.5640  0.1630
  141OSM    C4F15384   2.798   4.852   2.879  0.2742 -0.4303 -0.0512
  141OSM    H4F15385   2.893   4.858   2.937 -0.3993  0.7183  0.9941
  141OSM    H4G15386   2.771   4.748   2.853 -2.2368  0.4871 -1.5263
  141OSM    C5F15387   2.681   4.915   2.964 -0.0920 -1.3925  0.4333
  141OSM    H5F15388   2.598   4.937   2.894 -0.9116  0.7391  1.9692
  141OSM    H5G15389   2.709   5.014   3.004  0.1311 -0.3916 -2.0210
  141OSM    C6F15390   2.621   4.836   3.074  0.0996 -0.1822 -0.0733
  141OSM    H6F15391   2.558   4.754   3.036 -0.3374  0.3712 -0.5570
  141OSM    H6G15392   2.547   4.885   3.140 -0.5534 -0.8856 -0.2796
  141OSM    C7F15393   2.732   4.785   3.167 -0.6509  0.1816 -0.0586
  141OSM    H7F15394   2.776   4.875   3.215 -1.8524  0.5399  0.4245
  141OSM    H7G15395   2.806   4.721   3.115 -0.5927 -1.9443  2.4045
  141OSM    C8F15396   2.681   4.700   3.292  0.1921 -0.4362  0.8796
  141OSM    H8F15397   2.638   4.602   3.263 -3.2492  0.9562  0.7404
  141OSM    H8G15398   2.598   4.749   3.347 -0.9883  0.4980 -1.5543
  141OSM    C9F15399   2.792   4.662   3.389  0.1403 -0.4417 -0.3967
  141OSM    H9F15400   2.884   4.719   3.367 -1.0948  1.7929 -0.1218
  141OSM   C10F15401   2.780   4.585   3.499  0.6436  0.3463 -0.0771
  141OSM   H10F15402   2.875   4.572   3.554  1.0485 -1.0509 -1.0413
  141OSM   C11F15403   2.672   4.490   3.552  0.3990  0.5340 -0.0597
  141OSM   H11F15404   2.716   4.388   3.559 -0.1477  0.0267 -2.9159
  141OSM   H11G15405   2.607   4.482   3.462 -1.5579 -2.5030  1.4408
  141OSM   C12F15406   2.588   4.521   3.682  0.3606 -0.0407 -0.4316
  141OSM   H12F15407   2.598   4.631   3.696  0.7105 -0.3995  2.9657
  141OSM   H12G15408   2.642   4.490   3.773  0.0475 -0.0395 -0.2418
  141OSM   C13F15409   2.437   4.491   3.657 -0.4270 -0.1674 -0.6568
  141OSM   H13F15410   2.435   4.388   3.615 -0.1530 -1.4897  2.3464
  141OSM   H13G15411   2.393   4.570   3.592  1.6133  2.1505  0.5712
  141OSM   C14F15412   2.354   4.481   3.788  0.6290 -0.0713 -0.6049
  141OSM   H14F15413   2.330   4.588   3.809  1.4359 -0.2934  1.6420
  141OSM   H14G15414   2.422   4.446   3.868  1.9174  0.2509 -1.5103
  141OSM   C15F15415   2.235   4.393   3.767  1.0279  0.0844 -0.2529
  141OSM   H15F15416   2.187   4.396   3.867  2.2322  1.2393  0.3193
  141OSM   H15G15417   2.261   4.290   3.733  0.7257 -0.5331  1.3074
  141OSM   C16F15418   2.130   4.446   3.667  0.3975  0.0635  0.6872
  141OSM   H16F15419   2.044   4.377   3.660  1.8992 -1.7361 -1.0782
  141OSM   H16G15420   2.174   4.441   3.565 -0.7903 -0.5770  0.1883
  141OSM   C17F15421   2.082   4.587   3.695 -0.3072 -0.7972  0.9848
  141OSM   H17F15422   2.166   4.655   3.669 -1.7094 -0.4103 -3.3574
  141OSM   H17G15423   2.062   4.595   3.804  1.6513  0.8240  1.2843
  141OSM   C18F15424   1.958   4.633   3.611 -0.0731  0.2820 -0.3951
  141OSM   H18F15425   1.920   4.731   3.649  2.8393  1.6383 -0.7287
  141OSM   H18G15426   1.889   4.546   3.613  0.7320 -0.4356  2.9565
  141OSM   H18H15427   1.986   4.641   3.504  0.6903 -1.5413 -0.3542
  142OSM      N15428   4.575   1.591   2.159  0.0131 -0.0735  0.0187
  142OSM    C1515429   4.713   1.544   2.161 -0.0450 -0.6030  0.0018
  142OSM   H15A15430   4.720   1.464   2.233  1.7332 -0.5340 -0.0547
  142OSM   H15B15431   4.784   1.620   2.193 -0.0917 -0.5129 -0.1107
  142OSM   H15C15432   4.750   1.519   2.063  1.5643  2.6873 -0.3667
  142OSM    C1415433   4.565   1.727   2.091 -0.3538  0.7086  0.1001
  142OSM   H14A15434   4.464   1.762   2.073 -0.6357 -0.4429 -0.6960
  142OSM   H14B15435   4.611   1.723   1.994  0.7700  1.0045  0.6091
  142OSM   H14C15436   4.609   1.811   2.142 -0.4305 -0.4533  2.2079
  142OSM    C1315437   4.503   1.487   2.077 -0.6899  0.6115 -0.6700
  142OSM   H13A15438   4.552   1.478   1.981 -0.6573  0.0985 -0.6062
  142OSM   H13B15439   4.403   1.515   2.049 -1.4194 -0.7842  0.4484
  142OSM   H13C15440   4.512   1.390   2.123  3.9947  1.2857  0.3626
  142OSM    C1215441   4.515   1.596   2.300  0.0757  0.3042  0.5778
  142OSM   H12A15442   4.408   1.603   2.287  0.2945  1.4529 -0.9479
  142OSM   H12B15443   4.560   1.677   2.356 -0.0710  0.0807  1.0187
  142OSM    C1115444   4.540   1.472   2.393  0.4806 -0.4007  0.4340
  142OSM   H11A15445   4.492   1.495   2.491  0.0772 -0.1103  0.1708
  142OSM   H11B15446   4.646   1.471   2.427 -0.4283 -0.5225  3.5948
  142OSM      P15447   4.570   1.216   2.389  0.0687 -0.0514  0.4881
  142OSM    O1315448   4.496   1.099   2.339 -0.3328  0.4568 -0.6698
  142OSM    O1415449   4.712   1.227   2.359  0.1111 -0.3424 -0.1493
  142OSM    O1115450   4.557   1.217   2.539  0.5446 -0.0732 -0.1954
  142OSM    O1215451   4.497   1.349   2.340  0.0183 -0.0354  0.6319
  142OSM    C1S15452   4.507   1.105   2.622 -0.0976 -0.4361  0.1491
  142OSM    H1S15453   4.579   1.020   2.628  2.6224  1.6154 -1.1338
  142OSM    H1T15454   4.415   1.059   2.581 -0.5701  1.4828 -1.0683
  142OSM     NF15455   4.511   1.040   2.862  0.0357 -0.3362  0.4387
  142OSM    HNF15456   4.441   0.980   2.899 -1.0105  0.2590 -0.5304
  142OSM    C2S15457   4.471   1.150   2.772 -0.4832 -0.0394  0.2598
  142OSM    H2S15458   4.532   1.239   2.799 -0.2739 -0.9548  3.1412
  142OSM    C3S15459   4.331   1.202   2.788 -1.1323  0.3385  0.6643
  142OSM    H3S15460   4.262   1.120   2.756  0.1744 -0.3728 -0.4108
  142OSM     O315461   4.291   1.321   2.703  0.2941 -0.4045 -0.5831
  142OSM    HO315462   4.358   1.315   2.634 -2.4441 -2.7115 -3.3045
  142OSM    C4S15463   4.297   1.232   2.939 -0.0855 -0.7243 -0.1853
  142OSM    H4S15464   4.240   1.155   2.992  1.4658 -1.7516  0.0808
  142OSM    C5S15465   4.319   1.353   2.990  0.6529 -0.2824 -0.4062
  142OSM    H5S15466   4.353   1.438   2.929 -1.0789  0.6738 -0.1217
  142OSM    C6S15467   4.293   1.376   3.139 -0.7146 -0.1569  0.0362
  142OSM    H6S15468   4.187   1.408   3.144 -0.8857 -0.9017  2.5427
  142OSM    H6T15469   4.350   1.463   3.177 -0.4569  0.0015 -0.6944
  142OSM    C7S15470   4.313   1.265   3.228 -0.1595 -0.3251  0.3549
  142OSM    H7S15471   4.411   1.215   3.212  1.2537  2.1397  0.6717
  142OSM    H7T15472   4.238   1.184   3.213  1.1387 -1.9304  2.1027
  142OSM    C8S15473   4.302   1.305   3.380 -0.3918 -0.1196  0.1613
  142OSM    H8S15474   4.205   1.343   3.418  0.0026  1.0569  0.0228
  142OSM    H8T15475   4.371   1.392   3.380 -1.8777  1.0998 -0.3946
  142OSM    C9S15476   4.362   1.198   3.463 -0.3084  0.1506  0.4712
  142OSM    H9S15477   4.461   1.179   3.418 -1.5421 -2.0510 -1.5013
  142OSM    H9T15478   4.296   1.114   3.435  0.1462  0.7023 -2.5746
  142OSM   C10S15479   4.369   1.212   3.615 -0.1562  0.4950  0.0320
  142OSM   H10S15480   4.279   1.263   3.654 -0.8612 -1.8715  1.7535
  142OSM   H10T15481   4.460   1.269   3.642  0.3597 -0.3784  0.1716
  142OSM   C11S15482   4.366   1.077   3.691  0.0150 -0.5105 -0.3979
  142OSM   H11S15483   4.447   1.006   3.661 -1.2073 -2.4614  0.7423
  142OSM   H11T15484   4.273   1.021   3.668  0.4910 -0.2966 -3.3079
  142OSM   C12S15485   4.365   1.100   3.844 -0.6913  1.0330  0.1209
  142OSM   H12S15486   4.284   1.172   3.870 -0.1939  1.5668  0.2356
  142OSM   H12T15487   4.467   1.139   3.865  0.1694 -1.3801  0.7564
  142OSM   C13S15488   4.341   0.961   3.917 -0.0468 -0.3627 -0.1805
  142OSM   H13S15489   4.418   0.884   3.893 -0.3502 -1.2715  1.6056
  142OSM   H13T15490   4.246   0.920   3.876  0.0189 -0.6506 -0.0464
  142OSM   C14S15491   4.332   0.983   4.069  0.8888  0.5541  0.4637
  142OSM   H14S15492   4.251   1.055   4.094  1.6486  0.9567  1.8982
  142OSM   H14T15493   4.431   1.025   4.098  2.2736 -1.8460 -0.4431
  142OSM   C15S15494   4.312   0.853   4.142  0.0300 -0.1014  0.5393
  142OSM   H15S15495   4.384   0.778   4.105 -0.5329  0.8253 -2.7010
  142OSM   H15T15496   4.206   0.821   4.129  0.3255 -0.0032 -2.7770
  142OSM   C16S15497   4.335   0.865   4.296 -0.0140 -0.1620  0.0874
  142OSM   H16S15498   4.239   0.834   4.343 -0.9413 -0.4572 -1.8966
  142OSM   H16T15499   4.363   0.970   4.319  2.4095 -0.8630  0.6310
  142OSM   C17S15500   4.447   0.779   4.355  1.2356 -0.0433 -0.0137
  142OSM   H17S15501   4.419   0.671   4.347  1.4744 -0.4833  3.5487
  142OSM   H17T15502   4.443   0.800   4.464 -4.0296 -2.0531  0.4824
  142OSM   C18S15503   4.582   0.811   4.293  0.3146  0.1245 -0.1455
  142OSM   H18S15504   4.571   0.783   4.186  2.2208 -2.0712  0.1526
  142OSM   H18T15505   4.654   0.734   4.330 -1.4420 -1.6740 -0.2620
  142OSM   H18U15506   4.607   0.918   4.303 -3.7900  1.1855  0.4849
  142OSM    C1F15507   4.645   1.019   2.887  0.6779  0.1243 -0.4924
  142OSM     OF15508   4.736   1.086   2.836 -0.5731  0.9944 -0.3216
  142OSM    C2F15509   4.679   0.905   2.974 -0.1990  0.0588  1.0026
  142OSM    H2F15510   4.697   0.813   2.915  0.1755  0.2026  0.8880
  142OSM    H2G15511   4.589   0.890   3.038 -1.1050  3.1686  0.6433
  142OSM    C3F15512   4.790   0.932   3.077 -0.1561 -0.3104  0.8733
  142OSM    H3F15513   4.779   1.030   3.128  1.6501 -1.0646  2.8590
  142OSM    H3G15514   4.889   0.942   3.027 -0.1030 -0.6185  0.9152
  142OSM    C4F15515   4.797   0.817   3.183  0.1525  0.1089  0.2500
  142OSM    H4F15516   4.813   0.716   3.139  1.3441 -0.6920  2.3934
  142OSM    H4G15517   4.698   0.811   3.234 -0.4098  1.2396 -0.6461
  142OSM    C5F15518   4.890   0.851   3.304  0.5113  0.3322  0.3928
  142OSM    H5F15519   4.838   0.836   3.401  0.9877 -1.9718  0.3371
  142OSM    H5G15520   4.927   0.956   3.310 -2.6632  1.5072  1.2595
  142OSM    C6F15521   5.019   0.763   3.308 -0.0820  0.1283 -0.1151
  142OSM    H6F15522   5.082   0.788   3.220  0.3453  1.6049  0.5772
  142OSM    H6G15523   4.993   0.655   3.309 -1.3282  0.4142  1.8078
  142OSM    C7F15524   5.102   0.788   3.431  0.3268  0.3596 -0.1600
  142OSM    H7F15525   5.039   0.808   3.520 -3.0597  0.0437 -2.3008
  142OSM    H7G15526   5.161   0.881   3.412  0.0857  0.4416 -0.5323
  142OSM    C8F15527   5.192   0.665   3.463 -0.6994 -0.5277 -0.0752
  142OSM    H8F15528   5.286   0.697   3.513 -0.7726  0.1136 -0.3343
  142OSM    H8G15529   5.224   0.609   3.373  1.4540  0.1214  0.2234
  142OSM    C9F15530   5.122   0.568   3.555 -0.6311 -0.0452  0.0287
  142OSM    H9F15531   5.054   0.496   3.507  1.1350 -1.3165 -0.6601
  142OSM   C10F15532   5.131   0.557   3.690 -0.0133 -0.7869 -0.2222
  142OSM   H10F15533   5.068   0.476   3.731 -1.2542 -0.2289 -0.9653
  142OSM   C11F15534   5.236   0.632   3.774 -0.4680 -0.4290 -0.4947
  142OSM   H11F15535   5.317   0.673   3.709 -0.2486  1.8499  1.1030
  142OSM   H11G15536   5.287   0.560   3.842  0.6017 -0.1261 -0.9523
  142OSM   C12F15537   5.177   0.749   3.851  0.2265  0.4143 -0.3502
  142OSM   H12F15538   5.144   0.831   3.784 -0.9089 -1.3424 -2.0450
  142OSM   H12G15539   5.267   0.777   3.910  0.9440  0.7281 -1.5392
  142OSM   C13F15540   5.066   0.704   3.960  0.4936  0.1762 -0.2882
  142OSM   H13F15541   4.978   0.659   3.911  0.5321  0.3971 -0.5613
  142OSM   H13G15542   5.023   0.795   4.009 -1.2365 -1.3607  1.1721
  142OSM   C14F15543   5.121   0.611   4.075  0.2413 -0.1861 -0.2721
  142OSM   H14F15544   5.195   0.670   4.133 -0.7102  2.5176 -1.6343
  142OSM   H14G15545   5.179   0.534   4.021  0.0649  1.1289 -2.4144
  142OSM   C15F15546   5.016   0.540   4.163 -0.3735 -0.1620  0.5263
  142OSM   H15F15547   4.970   0.464   4.095  2.9351 -1.5833 -0.3366
  142OSM   H15G15548   4.947   0.611   4.213  1.5355  1.8857  0.4010
  142OSM   C16F15549   5.085   0.455   4.273 -0.3008  0.1568 -0.8476
  142OSM   H16F15550   5.142   0.531   4.331  0.2089 -1.1782  0.4519
  142OSM   H16G15551   5.160   0.385   4.229  0.4843  0.8644 -0.6660
  142OSM   C17F15552   4.993   0.374   4.371 -0.2801  0.6362 -0.1382
  142OSM   H17F15553   4.975   0.278   4.317 -1.6513  1.4603 -1.2267
  142OSM   H17G15554   4.900   0.432   4.387 -0.8737 -1.1037  4.0775
  142OSM   C18F15555   5.051   0.335   4.509  0.3272 -0.6649  0.5231
  142OSM   H18F15556   5.057   0.433   4.561  0.5152 -0.8528  0.8600
  142OSM   H18G15557   5.147   0.281   4.491 -0.6218 -1.9683 -0.8323
  142OSM   H18H15558   5.000   0.260   4.572 -1.6342 -0.3522 -0.6017
  143OSM      N15559   2.353   6.121   2.043  0.5574  0.0546  0.1002
  143OSM    C1515560   2.447   6.134   1.931  0.6129  0.9849  0.4705
  143OSM   H15A15561   2.549   6.111   1.957  1.3154  2.5531 -0.7190
  143OSM   H15B15562   2.450   6.238   1.901  1.8278  0.9204  0.3014
  143OSM   H15C15563   2.433   6.069   1.846 -2.2715  1.4626  0.4891
  143OSM    C1415564   2.215   6.136   1.985  0.0727 -0.5855 -0.0453
  143OSM   H14A15565   2.173   6.045   1.942 -0.1583 -0.0716 -0.9320
  143OSM   H14B15566   2.211   6.211   1.908  1.0403 -0.9235 -0.4296
  143OSM   H14C15567   2.158   6.165   2.072 -0.0227  1.4119 -0.7295
  143OSM    C1315568   2.355   5.973   2.100  0.4463 -0.4092 -1.0579
  143OSM   H13A15569   2.445   5.940   2.149 -1.1286  0.8279  3.0823
  143OSM   H13B15570   2.319   5.900   2.028  0.0884 -0.3533 -0.9392
  143OSM   H13C15571   2.294   5.964   2.188 -1.2647 -0.4594 -2.1919
  143OSM    C1215572   2.388   6.223   2.142 -0.2516  0.3221  0.0671
  143OSM   H12A15573   2.370   6.318   2.094  1.7434  1.0942  0.7327
  143OSM   H12B15574   2.494   6.227   2.160 -0.7279  1.2159  3.2044
  143OSM    C1115575   2.321   6.205   2.285  0.5265 -0.0104  0.2438
  143OSM   H11A15576   2.339   6.284   2.360 -2.6242  0.3221  0.7963
  143OSM   H11B15577   2.363   6.114   2.333  0.1283 -0.0413  0.5402
  143OSM      P15578   2.070   6.141   2.344  0.4431 -0.1964 -0.2508
  143OSM    O1315579   1.946   6.219   2.328 -0.3273 -0.5424 -0.0245
  143OSM    O1415580   2.074   5.999   2.303  0.0064  0.2413  0.0426
  143OSM    O1115581   2.124   6.156   2.495  0.2845  0.0367  0.0706
  143OSM    O1215582   2.180   6.213   2.263 -0.4883 -0.6720 -0.2035
  143OSM    C1S15583   2.141   6.283   2.554 -0.3686 -0.1344  0.2918
  143OSM    H1S15584   2.042   6.334   2.552 -0.7611 -0.8834 -1.0274
  143OSM    H1T15585   2.197   6.344   2.481 -3.6782  0.9849 -1.5493
  143OSM     NF15586   2.236   6.401   2.757  0.0803  0.9699 -0.4209
  143OSM    HNF15587   2.322   6.446   2.777 -1.1667  3.6275 -0.6558
  143OSM    C2S15588   2.230   6.275   2.684 -0.0678 -0.8932  0.0073
  143OSM    H2S15589   2.176   6.202   2.748  1.9225 -0.4942  2.2693
  143OSM    C3S15590   2.361   6.208   2.659 -0.2646  1.8027 -0.2304
  143OSM    H3S15591   2.429   6.262   2.591  0.0353 -0.8515 -2.2035
  143OSM     O315592   2.350   6.093   2.577  0.0628 -0.4191  0.2689
  143OSM    HO315593   2.263   6.101   2.538  0.4217  0.8824 -0.2908
  143OSM    C4S15594   2.434   6.171   2.795  0.2722  0.5010 -0.1747
  143OSM    H4S15595   2.501   6.249   2.833 -0.6917  0.7448  1.0902
  143OSM    C5S15596   2.413   6.065   2.879 -0.0958  0.4160  0.1790
  143OSM    H5S15597   2.345   5.987   2.844  1.7701 -0.6555 -1.2661
  143OSM    C6S15598   2.474   6.038   3.013 -0.3736  0.9524 -0.1149
  143OSM    H6S15599   2.542   6.124   3.036  1.8827 -1.0561  1.2104
  143OSM    H6T15600   2.536   5.947   3.002  0.2887  1.0104  2.5901
  143OSM    C7S15601   2.390   6.024   3.145 -0.4474  0.0100  0.0848
  143OSM    H7S15602   2.322   5.936   3.149 -0.5253  0.0112 -0.9961
  143OSM    H7T15603   2.334   6.119   3.163  0.5968  0.7830 -0.6407
  143OSM    C8S15604   2.482   6.012   3.269 -0.3194 -0.5592 -0.4781
  143OSM    H8S15605   2.530   6.107   3.298 -2.0781 -0.1082  1.1293
  143OSM    H8T15606   2.558   5.933   3.251  1.1257  0.4292  1.0038
  143OSM    C9S15607   2.420   5.960   3.400 -0.1832 -0.6177  0.2008
  143OSM    H9S15608   2.380   5.859   3.381 -1.6964  0.1397 -0.8611
  143OSM    H9T15609   2.334   6.029   3.418  0.5904  0.6724 -0.8354
  143OSM   C10S15610   2.506   5.963   3.527  0.4492 -0.8719 -0.0200
  143OSM   H10S15611   2.432   5.938   3.607  0.1732 -0.7208 -0.2275
  143OSM   H10T15612   2.553   6.063   3.540  0.6681 -0.7010 -1.9394
  143OSM   C11S15613   2.618   5.864   3.533  0.0710  0.2746  0.5500
  143OSM   H11S15614   2.690   5.900   3.456 -2.2704  0.0777 -1.9272
  143OSM   H11T15615   2.593   5.758   3.510 -1.2069  0.6429  0.1345
  143OSM   C12S15616   2.681   5.861   3.674  0.3421  0.4267  0.4130
  143OSM   H12S15617   2.606   5.838   3.753 -1.6961  0.3862 -1.4401
  143OSM   H12T15618   2.734   5.956   3.697  0.4537  0.5900 -0.5053
  143OSM   C13S15619   2.794   5.751   3.683 -0.2709  0.5209  0.2364
  143OSM   H13S15620   2.881   5.774   3.617 -0.0250 -2.9984 -0.9036
  143OSM   H13T15621   2.755   5.653   3.649  0.6782 -0.0210  0.6557
  143OSM   C14S15622   2.849   5.741   3.828 -0.6391 -0.2590  0.1458
  143OSM   H14S15623   2.876   5.838   3.874 -1.1381 -0.3463  0.6403
  143OSM   H14T15624   2.942   5.681   3.828 -1.0337 -0.8985 -1.1086
  143OSM   C15S15625   2.763   5.685   3.939  0.7280  0.2240  0.0971
  143OSM   H15S15626   2.725   5.584   3.913  0.8645  0.0937  0.4061
  143OSM   H15T15627   2.674   5.752   3.940  0.5324 -0.0183  2.3965
  143OSM   C16S15628   2.826   5.693   4.075 -0.3807  0.8014 -0.6563
  143OSM   H16S15629   2.883   5.784   4.101  1.0538 -0.3891  0.5425
  143OSM   H16T15630   2.905   5.614   4.077 -1.3296 -0.2240 -1.7934
  143OSM   C17S15631   2.731   5.671   4.195  0.3099 -0.0129  1.0925
  143OSM   H17S15632   2.660   5.586   4.188  0.8842 -0.3729 -3.2638
  143OSM   H17T15633   2.665   5.759   4.208 -0.3187 -0.1527 -0.8642
  143OSM   C18S15634   2.805   5.651   4.330 -0.4524 -0.2422  0.3893
  143OSM   H18S15635   2.731   5.639   4.411 -2.2362  0.9605 -0.9736
  143OSM   H18T15636   2.882   5.731   4.336 -0.1146 -0.3599 -1.6343
  143OSM   H18U15637   2.855   5.552   4.315 -1.2685 -0.4298 -1.3137
  143OSM    C1F15638   2.128   6.473   2.789 -0.0774 -0.4378 -0.8048
  143OSM     OF15639   2.020   6.418   2.808  0.4760  0.1954 -0.6320
  143OSM    C2F15640   2.143   6.627   2.804  0.3473  0.3172 -0.1126
  143OSM    H2F15641   2.072   6.693   2.749  1.6156  0.7398 -1.2843
  143OSM    H2G15642   2.248   6.648   2.777  0.8021 -1.1622  0.4359
  143OSM    C3F15643   2.133   6.670   2.957  0.0883  0.0678 -0.1398
  143OSM    H3F15644   2.188   6.603   3.026 -0.5996 -0.1482  0.2120
  143OSM    H3G15645   2.026   6.670   2.988 -0.7071  5.6788 -1.7115
  143OSM    C4F15646   2.167   6.817   2.988  0.2401  0.1860  0.0031
  143OSM    H4F15647   2.126   6.884   2.909 -0.4581  0.0174  0.2144
  143OSM    H4G15648   2.276   6.832   2.973 -0.0186  1.6979 -0.5766
  143OSM    C5F15649   2.125   6.863   3.119  0.2810 -0.7736 -0.5787
  143OSM    H5F15650   2.017   6.851   3.139  0.2268  0.7108  0.1521
  143OSM    H5G15651   2.137   6.973   3.130 -1.1571 -0.4831 -1.5779
  143OSM    C6F15652   2.200   6.788   3.234 -0.2884 -1.0268 -0.0565
  143OSM    H6F15653   2.306   6.820   3.240 -1.2467  2.2025  2.2492
  143OSM    H6G15654   2.186   6.678   3.229  0.6108 -1.2008  0.9166
  143OSM    C7F15655   2.135   6.825   3.372 -0.1305 -0.1407  0.5566
  143OSM    H7F15656   2.025   6.829   3.354 -0.4355  2.0811  2.3326
  143OSM    H7G15657   2.163   6.932   3.387  2.8209 -0.5244 -1.3564
  143OSM    C8F15658   2.163   6.728   3.486  1.1039 -0.0839  0.2557
  143OSM    H8F15659   2.132   6.626   3.453 -1.8925  0.7615  0.1412
  143OSM    H8G15660   2.096   6.749   3.572 -0.6568  0.8716 -1.2765
  143OSM    C9F15661   2.302   6.723   3.530  0.1101  0.3293  0.1314
  143OSM    H9F15662   2.368   6.662   3.467  1.5894  2.6177 -0.6839
  143OSM   C10F15663   2.357   6.781   3.636  0.1100  0.1362 -0.1042
  143OSM   H10F15664   2.465   6.763   3.646  0.4935  0.2922 -3.1477
  143OSM   C11F15665   2.304   6.887   3.729 -0.3134  0.2422 -0.3446
  143OSM   H11F15666   2.231   6.941   3.665 -2.5462 -0.7504  1.2434
  143OSM   H11G15667   2.384   6.956   3.763 -0.8605  0.6520  0.1095
  143OSM   C12F15668   2.221   6.836   3.841 -0.0223 -0.5806 -0.0083
  143OSM   H12F15669   2.146   6.769   3.796 -0.6090  0.6203 -0.8732
  143OSM   H12G15670   2.177   6.924   3.892 -0.3754 -0.8954  0.2308
  143OSM   C13F15671   2.306   6.745   3.936 -0.1039  0.0184 -0.5193
  143OSM   H13F15672   2.388   6.792   3.994 -0.7960 -0.6948  1.0942
  143OSM   H13G15673   2.348   6.665   3.872  0.5734  1.9096 -2.5955
  143OSM   C14F15674   2.219   6.684   4.056 -0.4821 -0.0600 -0.0878
  143OSM   H14F15675   2.123   6.643   4.017 -0.9921 -2.3947  3.2331
  143OSM   H14G15676   2.203   6.761   4.134  1.2436  0.3021 -0.0473
  143OSM   C15F15677   2.290   6.566   4.131  0.4014  0.2870  0.2378
  143OSM   H15F15678   2.395   6.596   4.149  0.8606  0.3405 -2.2233
  143OSM   H15G15679   2.279   6.474   4.070  1.0655 -0.6029  1.4060
  143OSM   C16F15680   2.220   6.530   4.268  0.1766 -0.5079  1.0609
  143OSM   H16F15681   2.111   6.533   4.250  0.1535 -1.9208  0.8571
  143OSM   H16G15682   2.241   6.610   4.343 -0.6838  0.4099  0.3557
  143OSM   C17F15683   2.264   6.398   4.328 -0.1238 -0.4560  0.1107
  143OSM   H17F15684   2.211   6.306   4.295  0.6687 -1.3790  1.3237
  143OSM   H17G15685   2.254   6.398   4.439  0.3225  2.1189  0.2085
  143OSM   C18F15686   2.412   6.371   4.309  0.0619 -0.0722 -0.2985
  143OSM   H18F15687   2.429   6.353   4.201  0.2354 -0.7262 -0.1676
  143OSM   H18G15688   2.443   6.281   4.367 -3.6186 -1.1259  0.3354
  143OSM   H18H15689   2.471   6.463   4.325 -0.0973  0.3630 -2.0698
  144OSM      N15690   2.945   6.070   2.546 -0.3763 -0.2069 -0.5169
  144OSM    C1515691   2.998   6.013   2.673  0.0051  0.0385  0.3294
  144OSM   H15A15692   3.004   6.086   2.752 -2.2912  1.1030 -0.4121
  144OSM   H15B15693   3.092   5.960   2.664  0.4997  0.4116  2.6256
  144OSM   H15C15694   2.929   5.934   2.697 -0.9765 -0.9010 -4.4781
  144OSM    C1415695   2.895   5.963   2.460  0.0079  0.5938  0.1318
  144OSM   H14A15696   2.832   6.014   2.389  1.6483  1.4327 -0.7794
  144OSM   H14B15697   2.842   5.890   2.520  0.3706  1.6444  1.8061
  144OSM   H14C15698   2.970   5.911   2.401 -1.8949  0.0447 -1.9382
  144OSM    C1315699   2.819   6.144   2.588 -0.4228 -0.5717 -1.1653
  144OSM   H13A15700   2.851   6.233   2.641  1.9392 -1.4183 -1.0320
  144OSM   H13B15701   2.756   6.087   2.654  1.2019 -0.5364  0.5266
  144OSM   H13C15702   2.760   6.177   2.504 -1.4666  0.7191  0.0183
  144OSM    C1215703   3.049   6.161   2.485  0.5195 -0.2454 -0.3739
  144OSM   H12A15704   3.021   6.178   2.382  0.0334 -0.2839 -0.2492
  144OSM   H12B15705   3.145   6.112   2.491 -0.5334 -2.4901 -0.9061
  144OSM    C1115706   3.065   6.307   2.541  0.3777  0.1741 -0.1890
  144OSM   H11A15707   3.155   6.354   2.497  1.1541 -0.1081  1.0413
  144OSM   H11B15708   3.065   6.304   2.652 -1.3995  4.1357  0.0739
  144OSM      P15709   2.928   6.464   2.385  0.0039  0.3791  0.0894
  144OSM    O1315710   3.027   6.414   2.283 -0.7530  0.1272  0.1658
  144OSM    O1415711   2.786   6.446   2.342  0.8337  0.8027  0.3429
  144OSM    O1115712   2.958   6.614   2.425 -0.4880  0.6739 -0.2311
  144OSM    O1215713   2.945   6.380   2.516  0.4415 -0.3175 -0.2269
  144OSM    C1S15714   2.878   6.670   2.528 -0.7098 -0.1491 -0.4818
  144OSM    H1S15715   2.798   6.603   2.564 -1.9805  0.6983 -1.6106
  144OSM    H1T15716   2.838   6.769   2.497  4.0759  2.2663  0.0810
  144OSM     NF15717   2.903   6.743   2.769  0.7184  0.8349  0.0266
  144OSM    HNF15718   2.927   6.838   2.786 -1.0612  1.3413 -0.0805
  144OSM    C2S15719   2.970   6.673   2.663 -0.7151  0.2801 -0.0210
  144OSM    H2S15720   2.981   6.566   2.693  0.7574  0.3594 -0.1657
  144OSM    C3S15721   3.103   6.747   2.641  0.0653 -0.0495 -0.4404
  144OSM    H3S15722   3.070   6.850   2.620  0.1445  0.4076  1.5046
  144OSM     O315723   3.182   6.702   2.532  0.1983  0.4062 -0.2961
  144OSM    HO315724   3.119   6.644   2.488 -1.2659  3.0460 -1.9872
  144OSM    C4S15725   3.188   6.749   2.763 -0.0375  0.3635  0.6220
  144OSM    H4S15726   3.187   6.847   2.812 -0.3843  0.3932  0.5624
  144OSM    C5S15727   3.256   6.647   2.829 -0.2374  0.3361  0.1725
  144OSM    H5S15728   3.245   6.540   2.802 -0.1736  0.3764 -0.0132
  144OSM    C6S15729   3.327   6.666   2.957  0.1915  0.2119 -0.1782
  144OSM    H6S15730   3.414   6.733   2.942 -1.1028  1.6851 -1.6960
  144OSM    H6T15731   3.375   6.574   2.995 -1.0183 -0.9923 -1.4159
  144OSM    C7S15732   3.231   6.721   3.066  0.6341  0.4384 -0.1480
  144OSM    H7S15733   3.138   6.662   3.050 -0.1314  1.7442 -0.5880
  144OSM    H7T15734   3.225   6.829   3.041  1.7981  0.4144 -0.6265
  144OSM    C8S15735   3.277   6.695   3.213 -0.4549  0.1875 -0.2791
  144OSM    H8S15736   3.294   6.585   3.219  0.6320  0.1106 -3.1439
  144OSM    H8T15737   3.190   6.702   3.281  0.3913 -0.7277  0.9593
  144OSM    C9S15738   3.395   6.778   3.257 -0.3918 -0.0797  0.7810
  144OSM    H9S15739   3.364   6.884   3.273  1.8642  0.8003 -0.1628
  144OSM    H9T15740   3.476   6.784   3.181 -1.2540  2.1932 -0.0678
  144OSM   C10S15741   3.456   6.725   3.383 -0.1936 -0.3663 -0.4606
  144OSM   H10S15742   3.543   6.790   3.407 -2.3714  1.8190  2.1434
  144OSM   H10T15743   3.493   6.621   3.368  1.3348  0.3607 -2.0857
  144OSM   C11S15744   3.363   6.731   3.509  0.1896  0.4631  0.2730
  144OSM   H11S15745   3.279   6.663   3.484 -0.3841  1.8549 -1.9099
  144OSM   H11T15746   3.324   6.835   3.510 -1.6816 -0.2033  1.6174
  144OSM   C12S15747   3.434   6.699   3.645 -0.8000 -0.6553 -0.1998
  144OSM   H12S15748   3.526   6.760   3.658 -1.0181 -0.3792  0.0783
  144OSM   H12T15749   3.459   6.591   3.644  0.9957 -0.3098  1.5765
  144OSM   C13S15750   3.350   6.723   3.773 -0.4651  0.1009  0.2750
  144OSM   H13S15751   3.256   6.666   3.757 -1.3481  1.2407  1.2364
  144OSM   H13T15752   3.335   6.831   3.794 -0.3895  0.3830 -1.0021
  144OSM   C14S15753   3.439   6.680   3.890  0.2635  0.7987  0.5512
  144OSM   H14S15754   3.532   6.739   3.903  0.4311  0.4418  1.0386
  144OSM   H14T15755   3.458   6.571   3.886  1.4812  0.9340  1.7788
  144OSM   C15S15756   3.363   6.693   4.026  0.3462 -0.4326  0.2284
  144OSM   H15S15757   3.266   6.642   4.011 -1.2269  1.6917  2.3939
  144OSM   H15T15758   3.342   6.793   4.070 -0.4649  0.1158 -1.3364
  144OSM   C16S15759   3.428   6.611   4.139 -0.3338 -1.2921 -0.7019
  144OSM   H16S15760   3.529   6.645   4.169 -0.4886 -1.2668 -0.1966
  144OSM   H16T15761   3.440   6.506   4.105  2.5784 -1.6072  0.9593
  144OSM   C17S15762   3.338   6.604   4.258 -0.5942  0.3769  0.8671
  144OSM   H17S15763   3.247   6.550   4.226  0.0576 -1.4897  2.0446
  144OSM   H17T15764   3.315   6.706   4.297  0.4950  1.4763 -1.1975
  144OSM   C18S15765   3.390   6.519   4.378 -0.4420 -1.0884 -0.8136
  144OSM   H18S15766   3.427   6.420   4.347 -0.9653 -1.6511  0.2759
  144OSM   H18T15767   3.312   6.510   4.457  0.5815  0.5506  0.4631
  144OSM   H18U15768   3.470   6.573   4.433 -1.2355  0.9592 -1.5423
  144OSM    C1F15769   2.781   6.705   2.821 -0.6823 -0.3138 -0.0815
  144OSM     OF15770   2.741   6.591   2.800  0.3714 -0.1818 -0.0333
  144OSM    C2F15771   2.701   6.804   2.905 -0.6313  0.3701  0.4311
  144OSM    H2F15772   2.712   6.894   2.841  1.1722  0.2476  0.4936
  144OSM    H2G15773   2.757   6.821   2.999  0.6037 -0.9834 -0.0006
  144OSM    C3F15774   2.556   6.782   2.940  0.0069 -0.2815 -0.0485
  144OSM    H3F15775   2.509   6.774   2.840 -0.0165  2.8647 -0.3920
  144OSM    H3G15776   2.528   6.881   2.982  2.6294  1.0208 -1.1912
  144OSM    C4F15777   2.534   6.673   3.036  0.6417  0.0392  0.0110
  144OSM    H4F15778   2.557   6.575   2.990 -1.2434  0.6603 -2.5065
  144OSM    H4G15779   2.428   6.679   3.070  1.3487  0.6019  2.2210
  144OSM    C5F15780   2.610   6.695   3.164 -0.7941 -0.2887  0.2765
  144OSM    H5F15781   2.606   6.797   3.209 -0.8019 -0.1464 -0.0395
  144OSM    H5G15782   2.717   6.669   3.151 -1.0796 -1.1599 -0.4207
  144OSM    C6F15783   2.553   6.610   3.272  0.7759 -0.8789 -0.1564
  144OSM    H6F15784   2.551   6.504   3.239  0.5077 -1.2480  0.9896
  144OSM    H6G15785   2.446   6.637   3.290  1.1784  0.7636 -0.0074
  144OSM    C7F15786   2.632   6.616   3.414 -0.5831 -0.2428  1.0082
  144OSM    H7F15787   2.619   6.709   3.474  0.8539  0.0650  0.8872
  144OSM    H7G15788   2.738   6.598   3.387 -1.4990 -1.7854 -2.0244
  144OSM    C8F15789   2.591   6.489   3.507  0.0112 -0.8973 -0.3896
  144OSM    H8F15790   2.571   6.412   3.430 -0.6441 -0.7129 -0.4148
  144OSM    H8G15791   2.497   6.517   3.560  0.5506  1.3452 -0.4963
  144OSM    C9F15792   2.702   6.445   3.604  0.9918  0.7170  0.3063
  144OSM    H9F15793   2.797   6.428   3.551  0.0678 -1.9700 -0.6316
  144OSM   C10F15794   2.685   6.437   3.740  0.5315  0.3801  0.4608
  144OSM   H10F15795   2.768   6.396   3.800 -1.7675  0.4197  3.9999
  144OSM   C11F15796   2.563   6.464   3.827 -0.5909  0.4591  0.5359
  144OSM   H11F15797   2.479   6.503   3.766 -0.2100  0.2043 -0.1551
  144OSM   H11G15798   2.591   6.534   3.909  0.0102  2.4449 -1.2831
  144OSM   C12F15799   2.504   6.334   3.891 -0.3139  0.3110 -0.2789
  144OSM   H12F15800   2.456   6.277   3.809  0.3934 -0.8821  0.0988
  144OSM   H12G15801   2.431   6.373   3.965 -0.2104 -2.1465  1.2274
  144OSM   C13F15802   2.603   6.253   3.969 -0.5478  0.0738 -0.0330
  144OSM   H13F15803   2.654   6.316   4.045  1.8614 -0.4238 -1.1323
  144OSM   H13G15804   2.681   6.204   3.906 -2.0132 -0.2270 -1.6819
  144OSM   C14F15805   2.550   6.126   4.035  0.4396 -0.0685  0.2498
  144OSM   H14F15806   2.505   6.056   3.961  0.9724 -0.8122  0.6192
  144OSM   H14G15807   2.472   6.161   4.106 -0.6993 -1.3646 -0.3142
  144OSM   C15F15808   2.663   6.048   4.102 -0.0510 -0.1867  0.1219
  144OSM   H15F15809   2.733   6.008   4.026 -0.4318 -0.6803  0.0244
  144OSM   H15G15810   2.612   5.964   4.155 -1.1835  1.4665  1.7818
  144OSM   C16F15811   2.733   6.130   4.215  0.2171  0.4895 -0.4598
  144OSM   H16F15812   2.666   6.204   4.263  0.8027  0.2012  0.8266
  144OSM   H16G15813   2.816   6.190   4.174  0.0908  1.8541  1.2097
  144OSM   C17F15814   2.797   6.035   4.311 -0.2454 -0.3213 -0.6906
  144OSM   H17F15815   2.879   5.985   4.253  0.5979  0.5890 -0.3120
  144OSM   H17G15816   2.737   5.947   4.341  1.4900 -1.4159 -0.2951
  144OSM   C18F15817   2.873   6.102   4.429  0.1295  0.2538 -0.2420
  144OSM   H18F15818   2.953   6.033   4.461 -0.0959  0.1478  0.0952
  144OSM   H18G15819   2.811   6.148   4.509  2.6266 -1.0820  2.6357
  144OSM   H18H15820   2.923   6.195   4.394  0.5707  0.8185  1.7928
  145SAPE     N15821   3.723   4.459   6.954  0.2968  0.0891  0.9370
  145SAPE   HN115822   3.689   4.555   6.973 -1.2498  0.4984 -2.9336
  145SAPE   HN215823   3.642   4.394   6.952 -0.4125  0.8502  2.9127
  145SAPE   HN315824   3.779   4.427   7.036 -2.3274 -1.1527  2.3474
  145SAPE   C1215825   3.808   4.444   6.832  0.0612 -0.0515 -0.4070
  145SAPE  H12A15826   3.738   4.434   6.746 -0.2922 -0.0393 -0.1249
  145SAPE  H12B15827   3.873   4.355   6.845  0.3887  0.3373  0.7581
  145SAPE   C1115828   3.915   4.556   6.817 -0.3691  0.0906  0.0864
  145SAPE  H11A15829   3.856   4.649   6.801 -1.0680 -0.1271  1.2485
  145SAPE  H11B15830   3.970   4.541   6.721  1.1624 -1.9817  1.2255
  145SAPE     P15831   4.129   4.500   6.955  0.0408 -0.1437 -0.1047
  145SAPE   O1315832   4.244   4.598   6.945  0.0335 -0.0372 -0.7129
  145SAPE   O1415833   4.130   4.420   7.078 -0.2514  0.5581 -0.3817
  145SAPE   O1215834   3.992   4.572   6.940 -0.0011  0.3967  0.1664
  145SAPE   O1115835   4.144   4.398   6.833  0.4214 -0.1116  0.1570
  145SAPE    C115836   4.265   4.331   6.804 -0.1636  0.3060  0.6859
  145SAPE    HA15837   4.340   4.353   6.882  1.1714  1.7342 -0.9293
  145SAPE    HB15838   4.262   4.220   6.798  0.6672  0.3382 -2.8406
  145SAPE    C215839   4.333   4.403   6.672 -0.4116  0.6072 -0.4664
  145SAPE    HS15840   4.346   4.511   6.695 -0.2115  0.4705  0.0830
  145SAPE   O2115841   4.254   4.371   6.562 -0.2063  0.5291  0.2429
  145SAPE   C2115842   4.159   4.464   6.530  0.1426  0.0368  0.4039
  145SAPE   O2215843   4.157   4.578   6.577 -0.2350  0.4621  0.2624
  145SAPE   C2215844   4.049   4.412   6.445  0.5026  1.0553  0.0873
  145SAPE   H2R15845   4.082   4.339   6.368 -1.3802 -1.4176  1.4546
  145SAPE   H2S15846   3.984   4.345   6.506  0.4173  2.3120  1.4221
  145SAPE    C315847   4.480   4.353   6.655  0.5788 -0.0258 -0.7510
  145SAPE    HX15848   4.478   4.243   6.648  1.4308 -0.2475  1.6596
  145SAPE    HY15849   4.541   4.388   6.741 -0.6622 -1.3383  0.7449
  145SAPE   O3115850   4.539   4.394   6.528  0.5176  0.3622 -0.0278
  145SAPE   C3115851   4.592   4.520   6.535  0.0413 -0.3850  0.5383
  145SAPE   O3215852   4.551   4.599   6.620 -0.0313 -0.1508  1.0076
  145SAPE   C3215853   4.698   4.542   6.423  0.2859 -0.2972  0.3190
  145SAPE   H2X15854   4.798   4.529   6.469  0.3231  0.9987  0.6541
  145SAPE   H2Y15855   4.699   4.648   6.388  1.7440 -0.5951 -0.5989
  145SAPE   C2315856   3.955   4.521   6.387  0.4749 -0.7307  0.2198
  145SAPE   H3R15857   3.937   4.613   6.446  2.1741 -0.5371  0.4840
  145SAPE   H3S15858   3.855   4.473   6.374  0.9950 -2.0679  0.8649
  145SAPE   C2415859   3.999   4.569   6.248  0.7962  0.3900  0.1375
  145SAPE   H4R15860   3.930   4.651   6.219  1.2729  0.3148 -1.3169
  145SAPE   H4S15861   3.964   4.497   6.170 -0.6454  1.6022 -0.3794
  145SAPE   C2515862   4.139   4.618   6.226 -0.3145  0.2045 -0.1788
  145SAPE   H5R15863   4.169   4.701   6.292 -1.0791 -1.2880  2.1813
  145SAPE   C2615864   4.229   4.557   6.142  0.1208  0.6032 -0.0250
  145SAPE   H6R15865   4.334   4.587   6.138  0.0115  0.8949 -0.9783
  145SAPE   C2715866   4.186   4.449   6.043 -0.7217  0.2125 -0.7181
  145SAPE   H7R15867   4.129   4.379   6.109  2.0741 -0.4592  1.1711
  145SAPE   H7S15868   4.269   4.388   6.003 -0.1508  1.6477 -1.8050
  145SAPE   C2815869   4.100   4.484   5.921 -0.2201 -0.0807 -0.2142
  145SAPE   H8R15870   4.054   4.583   5.935 -1.5940 -0.8350  0.9084
  145SAPE   C2915871   4.091   4.423   5.802  0.1965 -0.1255  0.4266
  145SAPE   H9R15872   4.031   4.467   5.721  0.5442  0.0676  0.2747
  145SAPE  C21015873   4.155   4.296   5.751 -0.3686 -0.0253 -0.5710
  145SAPE  H10R15874   4.224   4.248   5.823  0.5097  1.2330 -0.5528
  145SAPE  H10S15875   4.219   4.321   5.664 -0.5992  0.0585 -0.7166
  145SAPE  C21115876   4.051   4.191   5.724 -0.0531  0.0815 -0.5955
  145SAPE  H11R15877   4.060   4.104   5.792 -0.9802  1.3791  1.2777
  145SAPE  C21215878   3.962   4.180   5.628 -0.0034 -0.1656 -0.0157
  145SAPE  H12R15879   3.896   4.093   5.628  0.9736 -0.9305  0.6522
  145SAPE  C21315880   3.954   4.283   5.512  0.2781 -0.0100 -0.1068
  145SAPE  H13R15881   4.060   4.309   5.493  0.5507 -2.2553 -2.1164
  145SAPE  H13S15882   3.901   4.373   5.549 -0.9645 -1.7682  2.7424
  145SAPE  C21415883   3.895   4.215   5.389  0.2534 -0.3466  0.7001
  145SAPE  H14R15884   3.827   4.130   5.407  1.0653 -1.1663  0.0576
  145SAPE  C21515885   3.927   4.243   5.260 -0.5729 -0.8471  0.6874
  145SAPE  H15R15886   3.891   4.170   5.185  1.8789 -1.4984  0.0382
  145SAPE  C21615887   4.017   4.355   5.209  0.0033  0.4885 -0.3139
  145SAPE  H16R15888   4.096   4.382   5.282  1.0039 -1.0867 -0.7601
  145SAPE  H16S15889   3.956   4.447   5.201  0.2039  0.6455 -0.0398
  145SAPE  C21715890   4.082   4.312   5.079  0.2184  0.2515 -0.3615
  145SAPE  H17R15891   3.992   4.294   5.016 -2.4412  0.8844  2.9850
  145SAPE  H17S15892   4.140   4.218   5.078  0.3128  0.3098 -0.7266
  145SAPE  C21815893   4.174   4.418   5.012  0.1042 -0.1586 -0.6945
  145SAPE  H18R15894   4.258   4.440   5.081 -1.5177  2.0170  0.7140
  145SAPE  H18S15895   4.118   4.514   5.005  0.5310  0.2416  1.0578
  145SAPE  C21915896   4.228   4.389   4.865  0.1713 -0.7323 -0.8055
  145SAPE  H19R15897   4.299   4.305   4.868  0.1826 -0.7607 -1.6371
  145SAPE  H19S15898   4.279   4.476   4.818 -0.5312 -1.4670 -3.0480
  145SAPE  C22015899   4.120   4.344   4.764  0.1061 -0.5362  0.3492
  145SAPE  H20R15900   4.022   4.394   4.784  0.3692  0.5238 -0.8923
  145SAPE  H20S15901   4.107   4.234   4.767  0.0900 -0.5431 -0.0134
  145SAPE  H20T15902   4.155   4.364   4.661  0.9846  1.6933  1.0131
  145SAPE   C3315903   4.689   4.450   6.296 -1.1051  0.0751 -0.2394
  145SAPE   H3X15904   4.585   4.446   6.259 -1.2827 -1.2694  0.3221
  145SAPE   H3Y15905   4.718   4.345   6.318  2.9907  0.3642 -3.1897
  145SAPE   C3415906   4.787   4.489   6.188  0.0607 -0.0120  0.1264
  145SAPE   H4X15907   4.889   4.473   6.231  0.7276 -0.3904 -1.5079
  145SAPE   H4Y15908   4.787   4.598   6.167  0.5692  0.2754  1.4732
  145SAPE   C3515909   4.771   4.407   6.067  0.1604 -0.1021  0.1851
  145SAPE   H5X15910   4.750   4.306   6.107 -0.1252  0.1004  0.5489
  145SAPE   H5Y15911   4.864   4.412   6.007 -0.0300 -0.2519 -0.1282
  145SAPE   C3615912   4.659   4.457   5.980 -0.3232  0.1424  0.0082
  145SAPE   H6X15913   4.669   4.567   5.971 -0.1892  0.0719 -0.7896
  145SAPE   H6Y15914   4.556   4.438   6.016 -0.7232 -1.7532 -1.8850
  145SAPE   C3715915   4.665   4.394   5.841 -1.4193 -0.0314 -0.4862
  145SAPE   H7X15916   4.639   4.287   5.858  0.1408 -0.1345  1.6531
  145SAPE   H7Y15917   4.766   4.398   5.797 -1.2127  2.8218  0.0958
  145SAPE   C3815918   4.572   4.463   5.748 -0.4659  0.3319  0.4810
  145SAPE   H8X15919   4.633   4.544   5.701  1.6930 -0.9765  0.8620
  145SAPE   H8Y15920   4.485   4.513   5.796 -0.4647  1.4902 -0.6792
  145SAPE   C3915921   4.524   4.378   5.624  0.1868  0.4035  0.3751
  145SAPE   H9X15922   4.415   4.360   5.622 -0.1298  2.0396 -2.3772
  145SAPE   H9Y15923   4.575   4.283   5.649  0.4280  0.4152 -0.0594
  145SAPE  C31015924   4.554   4.446   5.487 -0.5674 -0.0405 -0.4384
  145SAPE  H10X15925   4.661   4.475   5.491 -1.2176  2.5803 -0.0496
  145SAPE  H10Y15926   4.503   4.544   5.482 -0.9917 -0.3143 -3.8419
  145SAPE  C31115927   4.517   4.349   5.373 -0.1530 -0.1041 -0.6406
  145SAPE  H11X15928   4.407   4.346   5.361 -0.1878 -0.1757 -0.3310
  145SAPE  H11Y15929   4.549   4.248   5.406 -3.4896 -0.6914  1.2476
  145SAPE  C31215930   4.595   4.385   5.247 -0.1583  0.5654 -0.5946
  145SAPE  H12X15931   4.570   4.320   5.160 -1.6834 -0.8446  0.8126
  145SAPE  H12Y15932   4.703   4.372   5.269 -0.2467 -0.0305 -0.4894
  145SAPE  C31315933   4.579   4.527   5.195  0.8117 -0.5311 -1.1712
  145SAPE  H13X15934   4.595   4.591   5.284  0.7917 -1.8585 -0.1888
  145SAPE  H13Y15935   4.472   4.529   5.166  0.2713  0.8758  0.7438
  145SAPE  C31415936   4.659   4.564   5.072 -0.1852 -0.3267 -1.0664
  145SAPE  H14X15937   4.764   4.565   5.107 -1.1618 -0.6749  2.1837
  145SAPE  H14Y15938   4.624   4.665   5.044 -2.6522 -0.1807  1.9868
  145SAPE  C31515939   4.641   4.476   4.949 -0.4702 -0.0486  0.0496
  145SAPE  H15X15940   4.533   4.479   4.924 -0.8525  0.7057  1.6274
  145SAPE  H15Y15941   4.683   4.379   4.982 -0.8838 -0.9097 -1.8384
  145SAPE  C31615942   4.712   4.534   4.833  0.9231 -0.3202  0.0046
  145SAPE  H16X15943   4.795   4.593   4.876 -0.2800  0.1234  1.8434
  145SAPE  H16Y15944   4.647   4.610   4.785 -0.6557 -0.5025  1.7343
  145SAPE  C31715945   4.730   4.426   4.730 -0.3226 -0.5921  0.6332
  145SAPE  H17X15946   4.769   4.342   4.791  0.8583 -0.5670 -0.0598
  145SAPE  H17Y15947   4.807   4.466   4.660 -1.2321 -1.8248 -1.1637
  145SAPE  C31815948   4.608   4.379   4.658  0.7096  0.0733  0.2082
  145SAPE  H18X15949   4.605   4.276   4.616 -1.1154 -0.2335  1.0356
  145SAPE  H18Y15950   4.592   4.454   4.578  0.6792  0.1739  0.3079
  145SAPE  H18Z15951   4.522   4.388   4.727  0.3095 -1.3540 -0.0657
  146SAPE     N15952   2.642   3.304   6.737 -0.3074 -0.0544  0.1667
  146SAPE   HN115953   2.729   3.355   6.713 -1.4092  1.4159 -0.8214
  146SAPE   HN215954   2.589   3.349   6.814 -1.1247 -0.2042 -0.2998
  146SAPE   HN315955   2.670   3.209   6.770 -0.7241 -0.4028 -0.4750
  146SAPE   C1215956   2.560   3.289   6.613  0.4375  0.3625 -0.0974
  146SAPE  H12A15957   2.529   3.182   6.617  2.0998 -0.1173  1.0401
  146SAPE  H12B15958   2.637   3.288   6.533  1.3376 -0.9098  0.7384
  146SAPE   C1115959   2.448   3.391   6.606 -1.4718 -0.1940  0.2435
  146SAPE  H11A15960   2.393   3.358   6.516 -1.2922  0.1237  0.0112
  146SAPE  H11B15961   2.477   3.497   6.587 -1.6116  0.1483  1.7974
  146SAPE     P15962   2.365   3.494   6.844  0.3042  0.1491 -0.0507
  146SAPE   O1315963   2.247   3.470   6.930  0.0566  0.3009 -0.1340
  146SAPE   O1415964   2.502   3.499   6.903  0.2312  0.0734 -0.4103
  146SAPE   O1215965   2.368   3.393   6.726  0.2908 -0.5262  0.0789
  146SAPE   O1115966   2.342   3.628   6.773 -0.2291  0.0830  0.3008
  146SAPE    C115967   2.214   3.686   6.750 -0.4151  1.1290 -0.4717
  146SAPE    HA15968   2.129   3.637   6.803  1.4313  0.6466  2.2741
  146SAPE    HB15969   2.218   3.794   6.775 -0.2657  1.6901 -2.7461
  146SAPE    C215970   2.197   3.685   6.599 -0.2824  0.2744 -0.1219
  146SAPE    HS15971   2.120   3.761   6.576  0.6137  0.5965 -2.3290
  146SAPE   O2115972   2.152   3.558   6.546 -0.1775  0.7845  0.0829
  146SAPE   C2115973   2.024   3.519   6.555  0.8263  0.3618 -0.6795
  146SAPE   O2215974   1.939   3.573   6.627  0.0798  0.2894  0.0741
  146SAPE   C2215975   2.000   3.404   6.460  0.3055  0.3621  1.0114
  146SAPE   H2R15976   2.022   3.451   6.362 -2.3284  2.2977  1.2415
  146SAPE   H2S15977   2.081   3.328   6.467  1.0431  0.8129 -1.3823
  146SAPE    C315978   2.322   3.733   6.521  0.0707 -0.8317  0.4690
  146SAPE    HX15979   2.404   3.661   6.543 -0.0815 -0.9386  0.6893
  146SAPE    HY15980   2.346   3.829   6.570  1.8478 -1.5845  1.1577
  146SAPE   O3115981   2.289   3.760   6.380  0.2455  0.3330  0.2956
  146SAPE   C3115982   2.379   3.744   6.285 -0.5462  0.8807  0.1054
  146SAPE   O3215983   2.497   3.718   6.305  0.4859  0.7068  0.2513
  146SAPE   C3215984   2.322   3.756   6.147  0.4711 -0.7426  0.4939
  146SAPE   H2X15985   2.235   3.824   6.160  0.9514 -0.2978  1.4359
  146SAPE   H2Y15986   2.277   3.660   6.110  1.8573 -1.4537  0.6073
  146SAPE   C2315987   1.853   3.349   6.462 -0.2203 -0.2139  0.3052
  146SAPE   H3R15988   1.797   3.385   6.551 -1.1965  2.3644 -1.2485
  146SAPE   H3S15989   1.855   3.238   6.472  1.1401 -0.1588  0.9096
  146SAPE   C2415990   1.775   3.375   6.329 -0.2024 -0.3757 -0.5144
  146SAPE   H4R15991   1.769   3.485   6.315 -0.3425 -0.5849 -2.4713
  146SAPE   H4S15992   1.670   3.342   6.341 -0.1169 -0.0634  1.4504
  146SAPE   C2515993   1.824   3.311   6.200  0.6128  0.2634  0.9697
  146SAPE   H5R15994   1.842   3.203   6.197  1.1979  0.3389  1.5252
  146SAPE   C2615995   1.873   3.385   6.100  0.5070  0.4024 -0.0120
  146SAPE   H6R15996   1.925   3.327   6.022 -0.4171 -0.6524  0.1297
  146SAPE   C2715997   1.885   3.534   6.094 -0.3825  0.2696 -0.5471
  146SAPE   H7R15998   1.898   3.573   6.197 -0.6068 -1.2299  0.0778
  146SAPE   H7S15999   1.792   3.579   6.053 -0.2805  2.2427  1.2017
  146SAPE   C2816000   1.988   3.584   5.995  0.0567 -0.2068 -0.8367
  146SAPE   H8R16001   2.086   3.597   6.044  0.1171  0.3812 -1.1081
  146SAPE   C2916002   1.979   3.618   5.863 -0.5723 -0.2846  0.8866
  146SAPE   H9R16003   2.075   3.630   5.811 -0.5051 -1.1477  0.7965
  146SAPE  C21016004   1.866   3.593   5.769 -0.4405 -0.8399  1.1252
  146SAPE  H10R16005   1.853   3.685   5.708 -1.1935 -2.8414 -1.8930
  146SAPE  H10S16006   1.769   3.579   5.820 -1.9915  0.1989 -1.3894
  146SAPE  C21116007   1.899   3.469   5.696  0.2746  1.4101  0.1779
  146SAPE  H11R16008   1.889   3.375   5.752 -3.1988 -0.1802 -2.7062
  146SAPE  C21216009   1.955   3.465   5.567  0.7704 -0.3832 -0.5580
  146SAPE  H12R16010   1.956   3.363   5.524 -1.3867 -0.7512  0.1351
  146SAPE  C21316011   1.972   3.585   5.478 -0.6783  0.4621  0.2408
  146SAPE  H13R16012   2.068   3.576   5.423 -1.3185  1.8127 -1.1695
  146SAPE  H13S16013   1.981   3.679   5.538 -1.4842  0.2251  0.7531
  146SAPE  C21416014   1.863   3.589   5.377 -1.3865  0.3237 -0.2300
  146SAPE  H14R16015   1.831   3.492   5.336  0.0555  0.5142 -1.9876
  146SAPE  C21516016   1.808   3.702   5.325  0.3310  1.1178 -0.0232
  146SAPE  H15R16017   1.727   3.691   5.252  0.7426  3.8973 -1.0226
  146SAPE  C21616018   1.829   3.841   5.375 -0.5444  0.2306 -0.0516
  146SAPE  H16R16019   1.872   3.840   5.478 -2.7846  0.6967  0.9636
  146SAPE  H16S16020   1.733   3.895   5.394  0.8613  2.3431  1.5352
  146SAPE  C21716021   1.922   3.926   5.278  0.9075 -0.0384  0.3728
  146SAPE  H17R16022   2.021   3.877   5.275  1.1339  0.4253  0.2724
  146SAPE  H17S16023   1.911   4.028   5.320 -1.7849  0.5402 -1.4964
  146SAPE  C21816024   1.872   3.950   5.132 -0.1718 -0.2108 -0.5022
  146SAPE  H18R16025   1.872   3.849   5.085 -2.7453  0.0192 -1.1767
  146SAPE  H18S16026   1.935   4.028   5.084 -0.2526 -0.5315 -1.1344
  146SAPE  C21916027   1.727   4.003   5.107 -0.4854 -0.3558  0.3472
  146SAPE  H19R16028   1.725   4.105   5.151  2.2783  0.9244 -2.1836
  146SAPE  H19S16029   1.657   3.947   5.172 -0.2228  2.0579  2.8904
  146SAPE  C22016030   1.702   4.017   4.961  0.9504  0.9184  0.2307
  146SAPE  H20R16031   1.723   3.923   4.905 -0.0255  0.9147 -0.1522
  146SAPE  H20S16032   1.771   4.092   4.918  0.2973  0.0418 -2.5797
  146SAPE  H20T16033   1.598   4.052   4.944  0.3921  1.2348  3.5790
  146SAPE   C3316034   2.415   3.829   6.050 -0.0293  0.1759  0.1724
  146SAPE   H3X16035   2.457   3.918   6.102 -0.6909 -0.2365  1.4592
  146SAPE   H3Y16036   2.355   3.870   5.966  0.0297  0.4496  0.2617
  146SAPE   C3416037   2.513   3.724   5.989 -0.3953 -0.6704 -0.7903
  146SAPE   H4X16038   2.467   3.633   5.946  3.1946 -2.7294 -0.7375
  146SAPE   H4Y16039   2.573   3.690   6.077  1.0175  0.0913 -1.4245
  146SAPE   C3516040   2.619   3.786   5.892 -0.1490 -0.4296  0.7854
  146SAPE   H5X16041   2.701   3.712   5.889  1.9572  1.7980  0.3443
  146SAPE   H5Y16042   2.655   3.883   5.933 -1.8510  0.9144 -0.6891
  146SAPE   C3616043   2.562   3.801   5.750 -0.3239  0.5113  0.2397
  146SAPE   H6X16044   2.472   3.863   5.735  0.2339  1.2224 -0.2386
  146SAPE   H6Y16045   2.538   3.697   5.717 -0.7364  1.0724 -1.3002
  146SAPE   C3716046   2.671   3.858   5.662  0.0237  0.3945 -0.1758
  146SAPE   H7X16047   2.756   3.788   5.664  1.6662  2.2525 -1.1878
  146SAPE   H7Y16048   2.700   3.959   5.699 -1.5215  0.9160 -0.2994
  146SAPE   C3816049   2.632   3.889   5.519  0.5308  0.0596  0.0304
  146SAPE   H8X16050   2.591   3.991   5.503  1.6286  0.6599  0.9187
  146SAPE   H8Y16051   2.542   3.831   5.488  0.4396  0.9839 -1.5491
  146SAPE   C3916052   2.743   3.868   5.424 -0.4406  0.0756  0.0278
  146SAPE   H9X16053   2.706   3.845   5.322  1.6071 -1.7996 -0.3889
  146SAPE   H9Y16054   2.798   3.778   5.460 -2.5622 -1.5531 -0.5768
  146SAPE  C31016055   2.840   3.989   5.403  0.4420  0.4014 -1.3808
  146SAPE  H10X16056   2.893   4.015   5.497 -0.9188  1.0959 -0.7692
  146SAPE  H10Y16057   2.765   4.068   5.383 -0.1893  0.0063 -0.6291
  146SAPE  C31116058   2.939   3.976   5.292 -0.1803 -0.5554  0.2409
  146SAPE  H11X16059   3.025   3.908   5.310 -0.8513 -2.0776 -1.8651
  146SAPE  H11Y16060   2.993   4.073   5.296 -1.3102  0.1203 -0.4133
  146SAPE  C31216061   2.883   3.960   5.147 -0.2866 -0.7160 -1.0553
  146SAPE  H12X16062   2.806   3.880   5.148 -0.3669 -0.6464  0.2159
  146SAPE  H12Y16063   2.970   3.917   5.093  1.1119  0.6527  0.0105
  146SAPE  C31316064   2.831   4.084   5.068 -0.5378  0.1334 -0.7985
  146SAPE  H13X16065   2.904   4.161   5.098  2.1625 -2.4831 -0.1236
  146SAPE  H13Y16066   2.732   4.108   5.113 -0.4558  0.7829 -0.9677
  146SAPE  C31416067   2.842   4.057   4.918  0.7983 -0.1295 -0.4229
  146SAPE  H14X16068   2.802   3.963   4.874  1.4498 -0.6386  0.0621
  146SAPE  H14Y16069   2.951   4.064   4.897  1.3372  0.9259  2.2582
  146SAPE  C31516070   2.774   4.178   4.846 -0.5680 -0.0368  0.7416
  146SAPE  H15X16071   2.808   4.276   4.884 -0.9295  2.0646 -3.7473
  146SAPE  H15Y16072   2.665   4.171   4.869 -0.1939 -0.8985  2.4231
  146SAPE  C31616073   2.807   4.185   4.695  0.3378  0.0914  0.2053
  146SAPE  H16X16074   2.799   4.084   4.649  3.1978 -0.1922  0.1467
  146SAPE  H16Y16075   2.914   4.213   4.688  0.2295  0.1464 -1.4282
  146SAPE  C31716076   2.734   4.294   4.630  0.0356 -0.6567  0.1403
  146SAPE  H17X16077   2.778   4.395   4.643  1.2306 -0.7548 -2.5210
  146SAPE  H17Y16078   2.629   4.298   4.667  0.4967  1.8603  1.4309
  146SAPE  C31816079   2.735   4.264   4.473  0.3959 -0.1659  0.0047
  146SAPE  H18X16080   2.686   4.164   4.469  0.6899 -0.3014 -0.2539
  146SAPE  H18Y16081   2.838   4.269   4.433  0.3238 -1.7218 -0.4527
  146SAPE  H18Z16082   2.673   4.345   4.430 -1.1798 -0.0931  2.1867
  147SAPE     N16083   6.609   0.732   6.659 -0.1992 -0.1915  0.0818
  147SAPE   HN116084   6.583   0.715   6.560 -1.1605 -1.2511  0.4961
  147SAPE   HN216085   6.675   0.812   6.649 -2.1346  1.4712 -0.2134
  147SAPE   HN316086   6.669   0.658   6.699  1.0656  1.0444  0.5490
  147SAPE   C1216087   6.499   0.782   6.751 -0.2313  0.1161  0.7442
  147SAPE  H12A16088   6.543   0.841   6.834 -1.6338  0.4329  1.3051
  147SAPE  H12B16089   6.440   0.699   6.796 -1.6480  1.7902  2.1517
  147SAPE   C1116090   6.403   0.866   6.665 -0.2972 -0.2556 -0.4702
  147SAPE  H11A16091   6.295   0.863   6.691 -0.3819 -1.9511 -0.8956
  147SAPE  H11B16092   6.396   0.827   6.561  0.0774  1.7676 -1.3133
  147SAPE     P16093   6.407   1.106   6.762 -0.2792  0.0403 -0.2347
  147SAPE   O1316094   6.376   1.028   6.883  0.1155  0.1877 -0.2758
  147SAPE   O1416095   6.503   1.214   6.770  0.5421  0.7328  0.2863
  147SAPE   O1216096   6.450   0.999   6.654  0.6630 -0.7576 -0.1961
  147SAPE   O1116097   6.269   1.166   6.708 -0.5139 -0.3166  0.1247
  147SAPE    C116098   6.253   1.236   6.583 -0.0948  0.1919 -0.4237
  147SAPE    HA16099   6.307   1.194   6.495  0.6983  0.9782 -0.3238
  147SAPE    HB16100   6.148   1.227   6.547 -0.0397  2.9089 -1.5446
  147SAPE    C216101   6.284   1.387   6.596  0.4241 -0.5240  0.1011
  147SAPE    HS16102   6.274   1.409   6.705 -0.8445 -1.1220  0.1272
  147SAPE   O2116103   6.184   1.457   6.513 -0.1647  0.3405 -0.3066
  147SAPE   C2116104   6.170   1.583   6.572  0.0386 -0.1813  0.5599
  147SAPE   O2216105   6.215   1.628   6.674 -0.4496 -0.2500  0.0646
  147SAPE   C2216106   6.079   1.662   6.486  0.5365  0.2207  0.5727
  147SAPE   H2R16107   6.008   1.591   6.440  1.2615 -1.4289  1.9054
  147SAPE   H2S16108   6.022   1.740   6.542  2.5683  0.6906  2.0898
  147SAPE    C316109   6.428   1.426   6.552  0.5321  0.1788 -1.1115
  147SAPE    HX16110   6.507   1.384   6.618 -0.2193  0.3388 -0.0804
  147SAPE    HY16111   6.433   1.533   6.581 -1.9565  0.5523 -1.7925
  147SAPE   O3116112   6.460   1.400   6.417  0.2841  0.5626 -0.4582
  147SAPE   C3116113   6.456   1.500   6.328 -0.1303 -0.2810 -0.6250
  147SAPE   O3216114   6.440   1.614   6.354 -0.8899 -0.7618 -0.0149
  147SAPE   C3216115   6.473   1.440   6.185 -0.1905 -0.2875  0.1671
  147SAPE   H2X16116   6.397   1.359   6.182  0.4196 -0.9209 -3.7426
  147SAPE   H2Y16117   6.564   1.376   6.174 -0.1776 -0.2716  0.1770
  147SAPE   C2316118   6.134   1.737   6.367 -0.0331  0.8472  0.2380
  147SAPE   H3R16119   6.195   1.679   6.295 -1.4346  0.1500 -0.4209
  147SAPE   H3S16120   6.198   1.824   6.393  0.5507  0.9454 -1.3677
  147SAPE   C2416121   6.019   1.806   6.283 -0.1596  0.6003  0.2226
  147SAPE   H4R16122   5.992   1.893   6.347  0.5746  1.2651 -0.3467
  147SAPE   H4S16123   5.933   1.736   6.275  0.7411 -0.3784 -1.6230
  147SAPE   C2516124   6.060   1.841   6.142  0.2667  0.6837 -0.9603
  147SAPE   H5R16125   6.073   1.947   6.114 -1.0397  0.9609 -0.6118
  147SAPE   C2616126   6.071   1.752   6.044  0.5541 -0.2648 -0.1916
  147SAPE   H6R16127   6.115   1.782   5.947 -0.3199 -0.2581 -0.5989
  147SAPE   C2716128   6.041   1.599   6.055  0.6905 -0.4778  0.0842
  147SAPE   H7R16129   5.931   1.589   6.054  0.5714  0.4643 -2.1286
  147SAPE   H7S16130   6.064   1.545   6.149 -0.7237  1.2669  1.5037
  147SAPE   C2816131   6.087   1.526   5.934 -0.0496  0.5367 -0.1732
  147SAPE   H8R16132   6.104   1.571   5.835 -2.1703 -3.7448 -2.7684
  147SAPE   C2916133   6.106   1.395   5.932 -0.4062 -0.0555  0.2401
  147SAPE   H9R16134   6.116   1.354   5.830 -0.6854 -0.5072  0.3966
  147SAPE  C21016135   6.083   1.298   6.044  0.2612 -0.1365 -0.1471
  147SAPE  H10R16136   5.988   1.242   6.028 -0.4265  0.5420  1.3372
  147SAPE  H10S16137   6.070   1.353   6.140  0.1983  0.7689 -0.6614
  147SAPE  C21116138   6.197   1.206   6.071 -0.7393  1.0699  0.4049
  147SAPE  H11R16139   6.278   1.208   5.997 -1.7311  1.8362 -0.6799
  147SAPE  C21216140   6.208   1.100   6.159 -0.4114 -0.1007 -0.4187
  147SAPE  H12R16141   6.304   1.046   6.154  0.6498  1.8055 -2.4976
  147SAPE  C21316142   6.105   1.046   6.259  0.5032  0.6439 -0.3096
  147SAPE  H13R16143   6.003   1.045   6.217  0.3647 -1.4559 -0.0408
  147SAPE  H13S16144   6.099   1.115   6.346 -1.7200  0.6270 -0.4114
  147SAPE  C21416145   6.134   0.916   6.322 -0.9359  0.4008  0.8780
  147SAPE  H14R16146   6.202   0.907   6.408 -1.7144 -0.7523  1.3975
  147SAPE  C21516147   6.070   0.806   6.284  0.4115  0.1904 -0.2445
  147SAPE  H15R16148   6.095   0.710   6.331 -1.7659 -0.4899 -0.3853
  147SAPE  C21616149   5.987   0.792   6.152  0.3159  0.6598 -0.0747
  147SAPE  H16R16150   6.029   0.867   6.082  2.8908  0.7195  1.3781
  147SAPE  H16S16151   5.881   0.823   6.160 -0.2555 -0.5429 -2.1295
  147SAPE  C21716152   6.001   0.646   6.091  0.1409  0.0574 -0.3940
  147SAPE  H17R16153   5.950   0.569   6.153  1.4703 -0.7140 -0.2150
  147SAPE  H17S16154   6.106   0.611   6.092 -0.5702 -2.2974  1.6190
  147SAPE  C21816155   5.944   0.635   5.949  0.2025 -0.4278 -0.6400
  147SAPE  H18R16156   5.989   0.708   5.878 -0.0938 -1.0537 -1.4828
  147SAPE  H18S16157   5.836   0.655   5.962  0.4640  1.3696 -1.0053
  147SAPE  C21916158   5.970   0.495   5.890 -0.7484 -0.5127 -0.5694
  147SAPE  H19R16159   5.910   0.416   5.940  2.9658 -2.5120  1.1613
  147SAPE  H19S16160   6.076   0.470   5.915 -0.5491  1.2869  0.5354
  147SAPE  C22016161   5.937   0.494   5.739 -0.2937  0.0297 -0.6888
  147SAPE  H20R16162   5.924   0.390   5.703 -0.0814 -0.3266  0.2385
  147SAPE  H20S16163   6.017   0.538   5.676 -2.7129  1.5613 -2.9556
  147SAPE  H20T16164   5.848   0.559   5.727 -1.0630 -0.9281 -0.3372
  147SAPE   C3316165   6.466   1.533   6.063 -0.3029  0.4476 -0.9543
  147SAPE   H3X16166   6.537   1.617   6.079  0.2101 -0.5184  2.8418
  147SAPE   H3Y16167   6.366   1.578   6.043 -0.5441  0.2879 -0.1515
  147SAPE   C3416168   6.487   1.476   5.927  0.1615 -0.6075  0.8362
  147SAPE   H4X16169   6.400   1.410   5.910  0.1631  0.0942 -2.5236
  147SAPE   H4Y16170   6.579   1.413   5.927 -1.1082 -2.5253  0.0015
  147SAPE   C3516171   6.473   1.580   5.819 -0.1495 -0.3081  0.2655
  147SAPE   H5X16172   6.568   1.637   5.827  0.2888 -1.2408  2.4173
  147SAPE   H5Y16173   6.378   1.636   5.832  0.5014  1.6417 -2.5306
  147SAPE   C3616174   6.462   1.521   5.673 -0.2032 -0.4311 -0.7981
  147SAPE   H6X16175   6.375   1.452   5.664  0.3762 -1.3430  0.3163
  147SAPE   H6Y16176   6.555   1.472   5.637 -0.3026 -0.3810 -1.1228
  147SAPE   C3716177   6.444   1.629   5.568 -0.0837  0.1602 -0.5965
  147SAPE   H7X16178   6.465   1.732   5.605 -1.3657 -0.3245  1.6740
  147SAPE   H7Y16179   6.335   1.641   5.547  0.1506  1.1355 -1.3648
  147SAPE   C3816180   6.542   1.604   5.444 -0.0599  0.4749 -0.4549
  147SAPE   H8X16181   6.501   1.509   5.403  1.8041 -1.0885  1.1024
  147SAPE   H8Y16182   6.644   1.592   5.487 -0.5768 -1.9402  0.2131
  147SAPE   C3916183   6.531   1.723   5.345 -0.0603  0.0936 -0.1311
  147SAPE   H9X16184   6.552   1.818   5.399 -1.3697 -0.2574  1.0658
  147SAPE   H9Y16185   6.428   1.732   5.305  0.2564  0.0744 -0.9761
  147SAPE  C31016186   6.623   1.710   5.222  0.0253  0.2491  0.2727
  147SAPE  H10X16187   6.574   1.622   5.174  1.0410 -0.6076  0.7582
  147SAPE  H10Y16188   6.728   1.689   5.249  0.0798 -0.1210 -0.2189
  147SAPE  C31116189   6.595   1.831   5.135  0.2419  0.6999 -0.1647
  147SAPE  H11X16190   6.627   1.924   5.187 -1.0923  1.1667 -0.1438
  147SAPE  H11Y16191   6.488   1.852   5.112 -0.5779 -1.2095  1.5733
  147SAPE  C31216192   6.680   1.829   5.009  0.1116 -0.5082 -0.0919
  147SAPE  H12X16193   6.789   1.823   5.032  0.5775 -0.3365 -2.1218
  147SAPE  H12Y16194   6.665   1.925   4.954 -0.7673  0.1353  1.2126
  147SAPE  C31316195   6.653   1.708   4.917  0.2706  0.0747 -0.2373
  147SAPE  H13X16196   6.544   1.699   4.897  0.0975  1.2716  0.1042
  147SAPE  H13Y16197   6.680   1.614   4.971 -2.4640  0.3563  1.8285
  147SAPE  C31416198   6.724   1.731   4.785  0.7396  0.3666  0.6647
  147SAPE  H14X16199   6.834   1.745   4.794  0.8293  1.6577 -1.7595
  147SAPE  H14Y16200   6.680   1.819   4.735  2.0827  0.7757  0.1498
  147SAPE  C31516201   6.691   1.615   4.689 -0.0755 -0.0465 -1.1230
  147SAPE  H15X16202   6.580   1.627   4.682 -0.4803 -1.2778  1.6779
  147SAPE  H15Y16203   6.710   1.519   4.742  2.9180  1.0011 -0.1436
  147SAPE  C31616204   6.774   1.612   4.558 -0.6830  0.2704 -0.2979
  147SAPE  H16X16205   6.767   1.514   4.505  0.2096 -0.3687  0.7273
  147SAPE  H16Y16206   6.881   1.628   4.582 -0.6608  0.1808 -0.3340
  147SAPE  C31716207   6.729   1.719   4.458  0.1831  0.7643  0.2699
  147SAPE  H17X16208   6.788   1.711   4.365 -2.6167 -1.8539 -1.4581
  147SAPE  H17Y16209   6.734   1.821   4.502  1.2747  1.1588 -0.7238
  147SAPE  C31816210   6.586   1.698   4.410 -0.1810 -0.0502  0.0349
  147SAPE  H18X16211   6.525   1.789   4.390 -1.1608 -0.2154  2.0214
  147SAPE  H18Y16212   6.528   1.638   4.483  0.4477 -0.1745  0.4425
  147SAPE  H18Z16213   6.577   1.644   4.314 -0.5014  0.5294 -0.2664
  148SAPE     N16214   5.716   2.050   6.998 -0.1787 -0.1469  0.5586
  148SAPE   HN116215   5.730   2.140   6.948 -0.1950  0.3889  1.4929
  148SAPE   HN216216   5.777   2.062   7.082 -1.6355  1.3334  1.4841
  148SAPE   HN316217   5.754   1.983   6.929 -0.1566  1.8044 -1.4199
  148SAPE   C1216218   5.571   2.035   7.025  0.2992 -0.0075  0.1237
  148SAPE  H12A16219   5.530   2.118   7.087 -0.9272 -1.0422  0.7601
  148SAPE  H12B16220   5.559   1.937   7.077 -2.9323  0.9210  1.3822
  148SAPE   C1116221   5.492   2.032   6.887  0.0745  0.8516  0.4261
  148SAPE  H11A16222   5.384   2.008   6.895  0.4406 -1.2698 -0.2715
  148SAPE  H11B16223   5.524   1.939   6.835 -2.2162 -0.3268  0.9746
  148SAPE     P16224   5.422   2.277   6.821  0.2722 -0.0391 -0.0940
  148SAPE   O1316225   5.384   2.283   6.964  0.1526  0.4826  0.1942
  148SAPE   O1416226   5.489   2.395   6.763 -0.7260 -0.9824  0.3034
  148SAPE   O1216227   5.508   2.147   6.799  0.7902  0.5754 -0.3596
  148SAPE   O1116228   5.280   2.243   6.745  0.5952  0.0439 -0.4579
  148SAPE    C116229   5.274   2.134   6.652 -0.2476 -0.5282 -0.9917
  148SAPE    HA16230   5.319   2.039   6.689 -1.9089 -0.2888  1.9589
  148SAPE    HB16231   5.173   2.094   6.631 -0.3142 -0.4854 -0.7597
  148SAPE    C216232   5.323   2.185   6.512 -0.7569 -0.0968 -0.2052
  148SAPE    HS16233   5.268   2.118   6.442 -1.7231  0.9535 -0.4954
  148SAPE   O2116234   5.465   2.167   6.505 -0.3190  0.4561  0.5246
  148SAPE   C2116235   5.516   2.046   6.490  0.0340  0.4528 -0.5118
  148SAPE   O2216236   5.453   1.941   6.497  0.1986 -0.2973 -0.2600
  148SAPE   C2216237   5.668   2.048   6.478  0.5606 -0.7305  0.1325
  148SAPE   H2R16238   5.705   2.152   6.491 -2.0763  0.3203 -0.0911
  148SAPE   H2S16239   5.720   1.985   6.553 -1.1300 -1.2532  0.9384
  148SAPE    C316240   5.285   2.328   6.470  0.0228  0.0320 -0.0415
  148SAPE    HX16241   5.332   2.407   6.531  1.2733 -0.1045 -0.8018
  148SAPE    HY16242   5.178   2.329   6.500  0.4186 -0.3279  1.4670
  148SAPE   O3116243   5.306   2.348   6.326  0.1533  0.2008 -0.7673
  148SAPE   C3116244   5.410   2.423   6.290  0.0568  0.3852  0.4959
  148SAPE   O3216245   5.497   2.471   6.362  0.0665 -1.3239  0.3312
  148SAPE   C3216246   5.405   2.443   6.143  0.0367  0.4459 -0.4181
  148SAPE   H2X16247   5.329   2.374   6.099 -0.0061 -0.1074  0.4956
  148SAPE   H2Y16248   5.498   2.399   6.101 -0.8133  0.1928 -2.1299
  148SAPE   C2316249   5.700   1.998   6.333  0.2928  0.3721 -0.0873
  148SAPE   H3R16250   5.646   1.901   6.322  1.2206 -0.1412 -0.2071
  148SAPE   H3S16251   5.808   1.974   6.324  0.0966  0.1429 -2.4473
  148SAPE   C2416252   5.656   2.095   6.224  0.0766 -0.0274  1.0269
  148SAPE   H4R16253   5.557   2.138   6.249  0.7058  1.8060  0.6006
  148SAPE   H4S16254   5.656   2.037   6.129  0.5162 -1.4507  1.8764
  148SAPE   C2516255   5.756   2.211   6.227 -0.2268  0.2816 -0.0684
  148SAPE   H5R16256   5.781   2.251   6.327  0.5999 -0.3956  0.0079
  148SAPE   C2616257   5.832   2.253   6.127  0.4222 -0.1566  0.1622
  148SAPE   H6R16258   5.892   2.343   6.150 -0.9552  0.8805 -0.1942
  148SAPE   C2716259   5.842   2.196   5.985  0.5118 -0.1524  0.0143
  148SAPE   H7R16260   5.771   2.243   5.914  1.9679  0.3872 -1.1334
  148SAPE   H7S16261   5.821   2.088   6.000 -0.5040  0.2269  1.5361
  148SAPE   C2816262   5.987   2.190   5.935 -0.3094  0.1344 -0.6681
  148SAPE   H8R16263   6.061   2.227   6.008 -2.6856  0.5706  1.6790
  148SAPE   C2916264   6.030   2.134   5.823  0.4700 -0.7029  0.1027
  148SAPE   H9R16265   6.140   2.125   5.819  0.4985 -1.8532  2.0941
  148SAPE  C21016266   5.965   2.088   5.699  0.0083  0.5416 -0.1007
  148SAPE  H10R16267   5.855   2.093   5.711 -0.0555 -0.8134 -0.0013
  148SAPE  H10S16268   5.984   1.981   5.676  0.0643  0.7132 -0.8647
  148SAPE  C21116269   6.014   2.179   5.584 -0.0923 -0.9077 -0.0732
  148SAPE  H11R16270   6.040   2.283   5.608 -2.2763  0.8783 -4.3637
  148SAPE  C21216271   6.025   2.147   5.448  0.0643 -0.2962  0.6708
  148SAPE  H12R16272   6.060   2.224   5.377 -1.7582 -0.2576 -0.2405
  148SAPE  C21316273   5.994   2.014   5.386 -0.1244 -0.4604 -0.0655
  148SAPE  H13R16274   5.908   2.015   5.315 -1.9430 -0.3054  2.0565
  148SAPE  H13S16275   5.964   1.958   5.477  2.0983  0.3479  1.2584
  148SAPE  C21416276   6.116   1.950   5.324 -0.5318  0.3604  0.0010
  148SAPE  H14R16277   6.170   1.876   5.384 -2.5994 -2.0645 -0.9280
  148SAPE  C21516278   6.152   1.950   5.193 -0.1890  0.5745  0.2728
  148SAPE  H15R16279   6.248   1.906   5.162 -0.1854 -0.0604  1.1450
  148SAPE  C21616280   6.087   2.037   5.086 -0.3847  0.4629  0.4358
  148SAPE  H16R16281   6.049   2.134   5.126 -0.5522  1.7984 -2.6870
  148SAPE  H16S16282   5.990   1.992   5.055  0.6113 -1.4310 -0.0421
  148SAPE  C21716283   6.167   2.057   4.952 -0.2666  0.1584 -0.3537
  148SAPE  H17R16284   6.184   1.963   4.895 -0.3498  1.0335 -1.8989
  148SAPE  H17S16285   6.261   2.109   4.980 -0.3098  0.6885 -1.1387
  148SAPE  C21816286   6.082   2.152   4.868  0.4857  0.1581  0.0469
  148SAPE  H18R16287   6.077   2.249   4.922  1.6254 -0.7315  1.8521
  148SAPE  H18S16288   5.979   2.119   4.845 -0.8265  3.8730 -0.0313
  148SAPE  C21916289   6.157   2.189   4.741  0.5950 -0.1165  0.1222
  148SAPE  H19R16290   6.261   2.224   4.757  0.4327  0.0710  0.8074
  148SAPE  H19S16291   6.100   2.273   4.696 -1.4532 -1.4257  0.1368
  148SAPE  C22016292   6.140   2.082   4.622 -0.3549 -0.3618 -0.5697
  148SAPE  H20R16293   6.201   1.995   4.654  0.4824  0.3081 -0.3018
  148SAPE  H20S16294   6.173   2.117   4.522  0.5955 -1.1292 -0.5354
  148SAPE  H20T16295   6.032   2.056   4.620 -0.8527  1.1068  1.8781
  148SAPE   C3316296   5.371   2.592   6.107  0.0038  0.4373  0.3804
  148SAPE   H3X16297   5.438   2.650   6.174 -0.6851  1.1212  0.4901
  148SAPE   H3Y16298   5.263   2.606   6.128 -0.6060  0.2362 -2.3509
  148SAPE   C3416299   5.400   2.617   5.966  0.1827 -0.0568 -0.2900
  148SAPE   H4X16300   5.334   2.543   5.915  0.8883 -0.1058 -1.1679
  148SAPE   H4Y16301   5.507   2.593   5.950  0.8804  0.1568  3.2991
  148SAPE   C3516302   5.375   2.766   5.934  0.5746 -0.3719 -0.0640
  148SAPE   H5X16303   5.410   2.834   6.014 -0.9781 -0.3149  0.5870
  148SAPE   H5Y16304   5.264   2.774   5.928  0.5751  1.0891  1.2160
  148SAPE   C3616305   5.429   2.809   5.798  0.0760  0.3184 -0.6633
  148SAPE   H6X16306   5.539   2.794   5.787  0.1288 -1.2846  1.3971
  148SAPE   H6Y16307   5.405   2.917   5.787  0.1127  0.2900 -1.0364
  148SAPE   C3716308   5.374   2.719   5.687 -0.2570  0.0764  0.1116
  148SAPE   H7X16309   5.277   2.678   5.722  0.7877 -1.0743  1.7851
  148SAPE   H7Y16310   5.435   2.627   5.671 -1.9863 -0.8344 -1.9809
  148SAPE   C3816311   5.364   2.788   5.547  0.4603  0.2589 -0.2616
  148SAPE   H8X16312   5.320   2.890   5.555  0.1872  0.1617 -0.5172
  148SAPE   H8Y16313   5.308   2.722   5.478 -0.7952 -1.2563  2.0933
  148SAPE   C3916314   5.507   2.814   5.492  0.3797  0.4896 -0.2737
  148SAPE   H9X16315   5.559   2.716   5.479  3.8876  1.9950  1.1791
  148SAPE   H9Y16316   5.576   2.858   5.567 -0.3723 -3.1861  2.9612
  148SAPE  C31016317   5.515   2.880   5.355 -0.2467 -0.7322 -0.4014
  148SAPE  H10X16318   5.519   2.991   5.360  1.3055 -0.7555 -0.7676
  148SAPE  H10Y16319   5.419   2.844   5.312 -0.5527 -2.3243  1.5065
  148SAPE  C31116320   5.630   2.833   5.263 -0.2223  0.9629  0.0833
  148SAPE  H11X16321   5.639   2.724   5.247  0.5275  1.2981 -2.1106
  148SAPE  H11Y16322   5.727   2.857   5.310 -0.1064  1.4206 -0.3765
  148SAPE  C31216323   5.628   2.907   5.125  0.5103 -0.6700 -0.2384
  148SAPE  H12X16324   5.621   3.016   5.141 -2.5648 -0.7609 -0.4495
  148SAPE  H12Y16325   5.542   2.866   5.069  0.7084 -2.5346  0.7369
  148SAPE  C31316326   5.754   2.867   5.044 -0.4734 -0.4560  0.3276
  148SAPE  H13X16327   5.779   2.760   5.061  3.1308  0.2580  0.2146
  148SAPE  H13Y16328   5.840   2.921   5.089 -0.5904  0.6304 -0.7004
  148SAPE  C31416329   5.730   2.914   4.898  0.2919  0.3006  0.8822
  148SAPE  H14X16330   5.705   3.021   4.885 -1.6939 -0.1300  0.8105
  148SAPE  H14Y16331   5.637   2.870   4.857  0.6227 -0.5408  1.0048
  148SAPE  C31516332   5.854   2.880   4.811  0.0539  0.5889 -0.5475
  148SAPE  H15X16333   5.865   2.769   4.811 -0.8316  0.4949 -0.4270
  148SAPE  H15Y16334   5.948   2.918   4.855  0.2397 -1.6734  1.2240
  148SAPE  C31616335   5.856   2.927   4.670 -0.0172 -0.2062 -0.3230
  148SAPE  H16X16336   5.956   2.912   4.624  0.4307 -2.4265  1.2355
  148SAPE  H16Y16337   5.844   3.037   4.679 -1.8332 -0.1355 -2.6733
  148SAPE  C31716338   5.746   2.873   4.581  0.1614 -0.6954  0.3995
  148SAPE  H17X16339   5.767   2.919   4.483  2.2011  0.6411  1.3827
  148SAPE  H17Y16340   5.645   2.896   4.621 -0.5757  1.1972 -2.3072
  148SAPE  C31816341   5.765   2.722   4.566 -0.5195 -0.0641  0.1398
  148SAPE  H18X16342   5.669   2.677   4.531 -1.6403  1.1756  1.5321
  148SAPE  H18Y16343   5.791   2.667   4.659  0.5723 -0.5784 -0.4556
  148SAPE  H18Z16344   5.845   2.701   4.492 -0.0923 -0.6168  0.7426
  149SAPE     N16345   3.348   4.613   6.645 -0.8194  0.0857  0.0561
  149SAPE   HN116346   3.285   4.695   6.640 -0.9237  0.0013 -0.0399
  149SAPE   HN216347   3.448   4.639   6.636 -0.8239 -0.3128 -1.5515
  149SAPE   HN316348   3.355   4.558   6.556  0.9861 -2.2241  1.5064
  149SAPE   C1216349   3.356   4.526   6.763 -0.7917 -0.3355  0.1131
  149SAPE  H12A16350   3.448   4.464   6.764  1.8617  3.2585  0.3977
  149SAPE  H12B16351   3.268   4.458   6.759  0.5853 -2.1835 -3.1456
  149SAPE   C1116352   3.354   4.614   6.888  0.2438 -0.1961  0.2040
  149SAPE  H11A16353   3.381   4.542   6.967  1.5389  1.8335  1.7000
  149SAPE  H11B16354   3.252   4.655   6.904  0.4074  0.0522  0.6166
  149SAPE     P16355   3.527   4.793   6.984 -0.1634  0.1729 -0.0138
  149SAPE   O1316356   3.442   4.795   7.107 -0.4001  0.1668  0.2412
  149SAPE   O1416357   3.658   4.725   6.990  0.0889 -0.3256  0.2066
  149SAPE   O1216358   3.458   4.714   6.867 -0.1711  0.5416 -0.0364
  149SAPE   O1116359   3.554   4.932   6.926 -0.1955 -0.6599 -0.5367
  149SAPE    C116360   3.517   4.979   6.804  0.3341 -0.1073  0.1227
  149SAPE    HA16361   3.408   4.969   6.785  0.2827  3.1663 -2.1970
  149SAPE    HB16362   3.535   5.089   6.799 -0.3579 -0.0181 -0.7181
  149SAPE    C216363   3.600   4.914   6.687 -0.1593 -0.5918  0.6786
  149SAPE    HS16364   3.595   4.803   6.684  4.0073 -0.9291  0.0165
  149SAPE   O2116365   3.737   4.955   6.709  0.5350  0.1213  0.0525
  149SAPE   C2116366   3.821   4.884   6.639  0.0948  0.1254  0.3345
  149SAPE   O2216367   3.802   4.771   6.589  0.3257  0.3809  0.1542
  149SAPE   C2216368   3.951   4.954   6.632 -0.1255  0.1407 -0.9045
  149SAPE   H2R16369   3.933   5.061   6.606 -1.2551  0.1204 -0.3017
  149SAPE   H2S16370   3.998   4.949   6.732  0.8191  1.4672 -1.2630
  149SAPE    C316371   3.543   4.980   6.555  0.2279 -0.2989  0.2653
  149SAPE    HX16372   3.531   5.089   6.575 -1.1535 -0.3806 -0.0761
  149SAPE    HY16373   3.436   4.960   6.538  0.3119 -0.8224  0.3425
  149SAPE   O3116374   3.628   4.949   6.443  0.0679 -0.8442 -0.2433
  149SAPE   C3116375   3.583   4.847   6.368 -0.6917  0.9105  0.5286
  149SAPE   O3216376   3.478   4.788   6.389 -0.4439  0.2199 -0.2440
  149SAPE   C3216377   3.681   4.810   6.258  0.6604  0.1889 -0.0954
  149SAPE   H2X16378   3.771   4.762   6.304  2.2893  0.3040 -2.9485
  149SAPE   H2Y16379   3.716   4.906   6.214 -1.6958  0.2751 -1.9456
  149SAPE   C2316380   4.033   4.907   6.507  0.0939 -0.5302 -0.3068
  149SAPE   H3R16381   3.980   4.917   6.410  0.7374  0.2450 -0.5887
  149SAPE   H3S16382   4.059   4.799   6.506  0.5817 -0.4248  0.4146
  149SAPE   C2416383   4.161   4.988   6.487 -0.7287 -0.5944  0.6364
  149SAPE   H4R16384   4.209   4.954   6.393 -0.4306 -0.3485  0.6993
  149SAPE   H4S16385   4.243   4.963   6.557  1.6066  1.3197 -1.2369
  149SAPE   C2516386   4.159   5.144   6.495  0.7319  0.1949  0.2349
  149SAPE   H5R16387   4.178   5.183   6.596 -1.5651  0.0306  0.7897
  149SAPE   C2616388   4.101   5.224   6.405  0.0018  0.1546 -0.0661
  149SAPE   H6R16389   4.109   5.333   6.416  2.2555  0.0445 -0.0366
  149SAPE   C2716390   4.040   5.175   6.275  0.0600  0.0989  0.0059
  149SAPE   H7R16391   4.003   5.266   6.223  0.4835 -0.1160 -0.6815
  149SAPE   H7S16392   3.950   5.116   6.303  0.5941 -0.2367  1.0783
  149SAPE   C2816393   4.142   5.098   6.186 -0.0027 -0.6019 -0.1158
  149SAPE   H8R16394   4.244   5.084   6.225 -0.6512  0.4318  2.0570
  149SAPE   C2916395   4.110   5.040   6.069 -0.7118 -0.6800 -0.1286
  149SAPE   H9R16396   4.187   4.993   6.006  0.1428 -0.6416  0.8553
  149SAPE  C21016397   3.973   5.042   6.014 -0.0175  0.6922  0.1614
  149SAPE  H10R16398   3.985   5.105   5.923  0.7021 -0.1078 -0.3128
  149SAPE  H10S16399   3.902   5.100   6.078 -0.4563 -0.8446  1.1284
  149SAPE  C21116400   3.909   4.901   5.981 -0.2997  0.0846 -0.5478
  149SAPE  H11R16401   3.938   4.822   6.051 -1.7124  1.3039  1.5377
  149SAPE  C21216402   3.814   4.873   5.889 -0.1732  0.0061 -0.1756
  149SAPE  H12R16403   3.776   4.770   5.888  1.1433 -0.5764  2.3150
  149SAPE  C21316404   3.775   4.971   5.779 -0.3690  0.3117 -0.3146
  149SAPE  H13R16405   3.831   4.938   5.689  0.6983 -3.7685  1.6158
  149SAPE  H13S16406   3.801   5.076   5.807 -2.5983  0.7860  0.1210
  149SAPE  C21416407   3.632   4.975   5.740 -0.3400 -0.1605 -0.4063
  149SAPE  H14R16408   3.572   4.884   5.755 -2.8214  1.2331 -1.1675
  149SAPE  C21516409   3.581   5.070   5.664  0.0160  0.8993  0.1272
  149SAPE  H15R16410   3.472   5.058   5.647  0.0019  2.7929 -1.5231
  149SAPE  C21616411   3.642   5.202   5.620 -0.0103  0.7934  0.5477
  149SAPE  H16R16412   3.752   5.209   5.625  0.2042  0.1160 -1.8130
  149SAPE  H16S16413   3.590   5.282   5.677 -0.5741 -0.3832  1.7264
  149SAPE  C21716414   3.592   5.226   5.471 -1.0372 -0.1692  0.3748
  149SAPE  H17R16415   3.617   5.329   5.436 -1.7373  0.0212  0.4147
  149SAPE  H17S16416   3.482   5.220   5.460 -1.0884  0.9065  0.1454
  149SAPE  C21816417   3.666   5.128   5.368 -0.4604  0.8022 -0.0942
  149SAPE  H18R16418   3.658   5.026   5.411  1.1388  1.2797  1.4490
  149SAPE  H18S16419   3.776   5.145   5.367  0.0306 -1.9242 -0.4207
  149SAPE  C21916420   3.608   5.117   5.222  0.0890 -0.8646 -0.2777
  149SAPE  H19R16421   3.500   5.110   5.244  0.2578 -0.8349  0.5948
  149SAPE  H19S16422   3.659   5.038   5.162  1.6634  1.1169 -1.6871
  149SAPE  C22016423   3.627   5.248   5.141 -0.9460  0.2473  0.4127
  149SAPE  H20R16424   3.585   5.227   5.040  0.1556 -1.0319  0.2007
  149SAPE  H20S16425   3.727   5.297   5.144 -1.0725  0.7488 -1.6578
  149SAPE  H20T16426   3.563   5.330   5.179  0.0779  1.0351  0.5017
  149SAPE   C3316427   3.614   4.717   6.151  0.1203  0.0805 -0.3545
  149SAPE   H3X16428   3.573   4.631   6.210  2.1805 -1.5251 -1.1300
  149SAPE   H3Y16429   3.691   4.685   6.078 -1.3728 -0.9744 -1.5324
  149SAPE   C3416430   3.505   4.790   6.073 -0.2701 -0.4238 -0.1616
  149SAPE   H4X16431   3.553   4.860   6.001  1.0254  2.1119  2.9561
  149SAPE   H4Y16432   3.447   4.853   6.143  2.3945  0.4239  1.4563
  149SAPE   C3516433   3.407   4.695   6.008 -0.6389  0.2566 -0.1934
  149SAPE   H5X16434   3.377   4.615   6.079  0.1463 -0.6687 -0.8727
  149SAPE   H5Y16435   3.434   4.642   5.914 -0.2481  0.3175 -0.1206
  149SAPE   C3616436   3.275   4.765   5.964  0.7107 -0.0109  0.6633
  149SAPE   H6X16437   3.297   4.829   5.876  0.0549  0.7415  1.0370
  149SAPE   H6Y16438   3.222   4.818   6.046 -1.3982 -0.0365 -0.5975
  149SAPE   C3716439   3.179   4.662   5.908  0.0731  0.1690 -0.4181
  149SAPE   H7X16440   3.123   4.616   5.992  1.0605  0.8060  0.6163
  149SAPE   H7Y16441   3.234   4.590   5.844  0.0396  0.1766 -0.4552
  149SAPE   C3816442   3.078   4.704   5.805 -0.4332 -0.3253  0.1912
  149SAPE   H8X16443   3.121   4.741   5.710 -1.2714  1.9438  0.6188
  149SAPE   H8Y16444   3.038   4.801   5.843 -1.9058 -0.0876 -1.8240
  149SAPE   C3916445   2.972   4.601   5.764 -0.1924  0.4861  0.2862
  149SAPE   H9X16446   2.949   4.626   5.658 -0.4426 -2.1266 -0.3481
  149SAPE   H9Y16447   2.885   4.618   5.831  0.7959  1.1586  1.4413
  149SAPE  C31016448   3.023   4.458   5.757  0.6255  0.0722  0.5901
  149SAPE  H10X16449   2.937   4.389   5.748 -1.1245  2.2255 -0.1062
  149SAPE  H10Y16450   3.082   4.424   5.845 -1.0045 -0.2696  1.5894
  149SAPE  C31116451   3.108   4.428   5.634 -0.4361  0.3266 -0.3899
  149SAPE  H11X16452   3.137   4.322   5.651  2.5638  1.2114  0.5735
  149SAPE  H11Y16453   3.204   4.483   5.630  0.0337 -0.4437  0.0613
  149SAPE  C31216454   3.043   4.434   5.493  0.1346  0.2105 -0.5223
  149SAPE  H12X16455   3.037   4.543   5.474  1.4845  0.2145 -1.0704
  149SAPE  H12Y16456   2.939   4.398   5.505  0.5446 -1.8470 -2.5492
  149SAPE  C31316457   3.113   4.350   5.389 -0.5682 -0.0525  0.3963
  149SAPE  H13X16458   3.127   4.243   5.415 -0.1449  0.2584  1.4974
  149SAPE  H13Y16459   3.215   4.391   5.379 -0.9312  0.6129 -0.7826
  149SAPE  C31416460   3.046   4.354   5.252 -0.6945 -0.9376  0.3891
  149SAPE  H14X16461   2.936   4.336   5.251 -0.4664 -2.5985  1.0442
  149SAPE  H14Y16462   3.106   4.292   5.181  1.7850  2.1017 -0.3699
  149SAPE  C31516463   3.067   4.498   5.191  0.6993 -0.0569 -0.8873
  149SAPE  H15X16464   3.176   4.520   5.182  0.5545  0.2879 -1.8512
  149SAPE  H15Y16465   3.022   4.570   5.264  0.3728 -2.0421  0.9787
  149SAPE  C31616466   2.996   4.516   5.055 -0.1085 -1.0074  0.2437
  149SAPE  H16X16467   3.026   4.615   5.013  0.0419 -1.1661 -0.0261
  149SAPE  H16Y16468   2.886   4.511   5.060 -0.3750  1.0005 -1.7329
  149SAPE  C31716469   3.041   4.426   4.935 -0.0859 -0.8657  0.0655
  149SAPE  H17X16470   2.980   4.444   4.844  0.8392 -1.4395 -0.6919
  149SAPE  H17Y16471   3.018   4.326   4.977 -0.9253 -0.2854  1.0323
  149SAPE  C31816472   3.188   4.432   4.894  0.0478  0.4512  0.0578
  149SAPE  H18X16473   3.210   4.346   4.827 -1.4474 -0.0679  0.2086
  149SAPE  H18Y16474   3.251   4.418   4.985 -0.8121  2.1536  0.9559
  149SAPE  H18Z16475   3.214   4.529   4.847  0.7194 -0.0487 -0.6387
  150SAPE     N16476   6.722   4.167   6.789 -0.1912  0.1771  0.4591
  150SAPE   HN116477   6.785   4.250   6.791 -0.4995  0.4079  0.7226
  150SAPE   HN216478   6.766   4.095   6.729 -0.7442 -0.1920  0.4914
  150SAPE   HN316479   6.632   4.190   6.743  0.1869  0.8568  0.0288
  150SAPE   C1216480   6.711   4.108   6.925  0.0918  0.4214  0.3477
  150SAPE  H12A16481   6.624   4.162   6.969  0.8183  2.7427 -0.8698
  150SAPE  H12B16482   6.796   4.137   6.991 -0.2292 -0.4746  1.1872
  150SAPE   C1116483   6.686   3.954   6.909  0.1552 -0.0872  0.2690
  150SAPE  H11A16484   6.669   3.918   7.013 -0.4091 -0.6273 -0.0057
  150SAPE  H11B16485   6.780   3.902   6.880  0.6409  0.8716  0.0966
  150SAPE     P16486   6.510   3.784   6.803 -0.0101 -0.1110 -0.3494
  150SAPE   O1316487   6.568   3.742   6.672 -0.1581 -0.1871 -0.2014
  150SAPE   O1416488   6.530   3.697   6.921  0.7531  0.2487  0.4380
  150SAPE   O1216489   6.565   3.932   6.827 -0.7901  0.1882 -0.0382
  150SAPE   O1116490   6.359   3.815   6.788 -0.5432  0.4171 -0.3483
  150SAPE    C116491   6.318   3.925   6.705  0.6226 -0.2034 -0.2812
  150SAPE    HA16492   6.350   4.019   6.755 -1.0774 -0.4640  1.4003
  150SAPE    HB16493   6.356   3.912   6.601  1.4460 -0.0074 -0.0138
  150SAPE    C216494   6.161   3.927   6.690 -0.1203 -0.0396 -0.9155
  150SAPE    HS16495   6.122   3.945   6.793 -0.2467  1.7256 -1.2499
  150SAPE   O2116496   6.113   3.805   6.642  0.1650 -0.4879  0.3124
  150SAPE   C2116497   5.982   3.790   6.643 -0.0548 -0.4097  0.7782
  150SAPE   O2216498   5.903   3.868   6.699 -0.4896  0.3480  0.8252
  150SAPE   C2216499   5.937   3.666   6.566  0.7739  0.5722 -0.1036
  150SAPE   H2R16500   6.027   3.604   6.546  0.4608 -0.0775  0.4901
  150SAPE   H2S16501   5.867   3.608   6.630  0.9371 -1.1557 -1.4184
  150SAPE    C316502   6.102   4.046   6.607  0.0409 -0.2326 -0.2738
  150SAPE    HX16503   6.145   4.139   6.650 -0.1404  0.4151 -1.4237
  150SAPE    HY16504   5.994   4.064   6.625 -0.2428 -1.4636 -0.6560
  150SAPE   O3116505   6.148   4.035   6.470  0.6442  0.0645 -0.3652
  150SAPE   C3116506   6.051   4.055   6.376 -0.3038 -0.6360  0.7050
  150SAPE   O3216507   5.934   4.075   6.401 -0.7352  0.0133  0.2253
  150SAPE   C3216508   6.102   4.070   6.224 -0.8943  0.0117  0.0954
  150SAPE   H2X16509   6.176   3.989   6.203 -0.4604  0.9187 -2.1909
  150SAPE   H2Y16510   6.155   4.167   6.232 -0.0622 -0.5061  1.1242
  150SAPE   C2316511   5.886   3.709   6.422 -0.2483  0.6485  0.2283
  150SAPE   H3R16512   5.954   3.779   6.368 -0.8461  1.7824  0.9150
  150SAPE   H3S16513   5.798   3.774   6.439 -0.3679  0.8210 -0.9805
  150SAPE   C2416514   5.854   3.588   6.322 -0.7803  0.2286  0.5754
  150SAPE   H4R16515   5.800   3.630   6.234 -2.5532 -2.6243  0.1644
  150SAPE   H4S16516   5.784   3.520   6.375 -1.7101 -0.8933 -1.8955
  150SAPE   C2516517   5.981   3.514   6.277 -0.2942 -0.3492 -0.1645
  150SAPE   H5R16518   6.031   3.455   6.355  0.8921 -0.7053 -1.1664
  150SAPE   C2616519   6.025   3.500   6.149  0.2709  0.0395 -0.3803
  150SAPE   H6R16520   6.120   3.450   6.122 -0.5723 -0.9318 -1.6769
  150SAPE   C2716521   5.952   3.542   6.022  0.6112  0.0068 -0.6836
  150SAPE   H7R16522   5.841   3.538   6.023  0.5261  1.0552 -2.1526
  150SAPE   H7S16523   5.990   3.465   5.953  1.2896 -2.5441  2.3137
  150SAPE   C2816524   5.999   3.685   5.986 -0.6158  0.5063  0.6503
  150SAPE   H8R16525   5.995   3.763   6.064  1.9663  0.2249  1.1563
  150SAPE   C2916526   6.051   3.719   5.871 -0.8561  0.6131 -0.4458
  150SAPE   H9R16527   6.099   3.816   5.853 -1.5730  0.8337 -1.2062
  150SAPE  C21016528   6.053   3.629   5.747 -0.1698 -0.4699  0.7679
  150SAPE  H10R16529   6.014   3.690   5.664 -2.1423 -1.6092  0.8047
  150SAPE  H10S16530   5.988   3.540   5.759  1.6497 -1.7619  1.5243
  150SAPE  C21116531   6.197   3.587   5.723  0.5259  1.2994  0.3267
  150SAPE  H11R16532   6.221   3.511   5.800 -2.2864 -0.2033 -0.1397
  150SAPE  C21216533   6.295   3.628   5.637  0.0299 -0.1780  0.0169
  150SAPE  H12R16534   6.398   3.588   5.637 -0.4063 -1.4503  2.4451
  150SAPE  C21316535   6.281   3.743   5.540  0.3182  0.0007 -0.5661
  150SAPE  H13R16536   6.353   3.818   5.578 -0.7675  0.2196  1.1857
  150SAPE  H13S16537   6.190   3.802   5.562  1.7235  1.7319  0.9594
  150SAPE  C21416538   6.284   3.724   5.387 -0.3781  0.4171  0.6777
  150SAPE  H14R16539   6.377   3.749   5.333 -0.4791 -3.3872 -1.6162
  150SAPE  C21516540   6.176   3.698   5.310  0.4711  0.5003  0.2637
  150SAPE  H15R16541   6.179   3.683   5.201 -1.2696 -2.6066  0.5308
  150SAPE  C21616542   6.036   3.666   5.352 -1.1652  0.3564  0.5337
  150SAPE  H16R16543   6.027   3.661   5.463 -1.3580  1.3979  0.5752
  150SAPE  H16S16544   6.004   3.576   5.295  1.1529 -0.7095  0.7980
  150SAPE  C21716545   5.934   3.779   5.309 -0.6014  0.3180 -0.1059
  150SAPE  H17R16546   5.969   3.881   5.336 -0.6752  0.7441 -1.5546
  150SAPE  H17S16547   5.839   3.761   5.364 -1.6451 -0.9771 -2.2110
  150SAPE  C21816548   5.901   3.780   5.159 -0.1172  0.2869 -0.9059
  150SAPE  H18R16549   5.858   3.677   5.154  2.8966 -1.2147  1.2260
  150SAPE  H18S16550   5.989   3.793   5.094  0.6964  2.5509  0.5429
  150SAPE  C21916551   5.786   3.872   5.125 -0.1519  0.1698 -0.4948
  150SAPE  H19R16552   5.833   3.972   5.139 -0.5329 -0.0012  2.7598
  150SAPE  H19S16553   5.699   3.867   5.194  0.8587 -1.0895  0.7459
  150SAPE  C22016554   5.750   3.855   4.978 -0.0264 -0.7520  0.0002
  150SAPE  H20R16555   5.663   3.922   4.957 -0.8240 -1.8641 -0.3222
  150SAPE  H20S16556   5.712   3.753   4.955  2.0398 -1.9879  1.6868
  150SAPE  H20T16557   5.827   3.894   4.908 -0.9286 -0.4705 -0.8669
  150SAPE   C3316558   5.984   4.067   6.120 -0.5107  0.3338  0.0715
  150SAPE   H3X16559   5.904   4.139   6.147 -1.2937  0.3527 -2.1564
  150SAPE   H3Y16560   5.935   3.967   6.114 -1.7706  0.9921 -0.8792
  150SAPE   C3416561   6.030   4.116   5.988 -0.2166  0.1059  0.2564
  150SAPE   H4X16562   6.103   4.044   5.946 -2.9998 -1.6883 -1.8235
  150SAPE   H4Y16563   6.079   4.216   5.995 -0.4571  0.2311  0.1672
  150SAPE   C3516564   5.924   4.124   5.884  0.1334 -0.7132  0.2186
  150SAPE   H5X16565   5.837   4.168   5.938 -0.8233 -3.5680  1.1942
  150SAPE   H5Y16566   5.893   4.023   5.848  0.5070 -1.0283  0.7710
  150SAPE   C3616567   5.966   4.197   5.755 -0.7246 -0.6871  0.5426
  150SAPE   H6X16568   6.005   4.301   5.760 -3.2265  0.3959 -0.6380
  150SAPE   H6Y16569   5.881   4.213   5.686  0.4976  0.9059 -0.6622
  150SAPE   C3716570   6.070   4.118   5.672 -0.0930  0.7127 -0.5748
  150SAPE   H7X16571   6.033   4.015   5.653  0.6634  0.6293 -1.7178
  150SAPE   H7Y16572   6.164   4.113   5.730 -0.5490  0.1869  0.1464
  150SAPE   C3816573   6.102   4.194   5.539 -0.1971  0.3297  0.5721
  150SAPE   H8X16574   6.166   4.284   5.552  1.8418 -0.6331 -1.8332
  150SAPE   H8Y16575   6.004   4.223   5.495  0.2471 -0.6104 -1.1191
  150SAPE   C3916576   6.174   4.107   5.439 -0.0195 -0.2137 -0.7105
  150SAPE   H9X16577   6.141   4.001   5.442 -1.5552  0.1980  3.0772
  150SAPE   H9Y16578   6.283   4.114   5.458 -0.1896 -2.6167  1.8856
  150SAPE  C31016579   6.144   4.160   5.297 -0.5393 -0.1601  0.0978
  150SAPE  H10X16580   6.189   4.261   5.283  0.0152 -0.5621 -1.2030
  150SAPE  H10Y16581   6.036   4.180   5.282 -0.6102 -0.9826 -0.6130
  150SAPE  C31116582   6.188   4.060   5.187 -0.3938  0.9931 -0.1663
  150SAPE  H11X16583   6.137   3.968   5.220 -1.2158  1.4230 -0.2150
  150SAPE  H11Y16584   6.296   4.043   5.207 -0.7873 -1.0599  0.4161
  150SAPE  C31216585   6.165   4.104   5.044  0.0960 -0.3605  0.8726
  150SAPE  H12X16586   6.234   4.190   5.026 -1.1055  0.5989  0.6794
  150SAPE  H12Y16587   6.060   4.138   5.028  0.2945  0.1666  0.6678
  150SAPE  C31316588   6.201   3.995   4.946  0.3943  0.2921  0.3215
  150SAPE  H13X16589   6.168   4.036   4.848 -0.2018 -0.9806 -0.0367
  150SAPE  H13Y16590   6.142   3.902   4.963  1.1270 -0.4075 -0.8714
  150SAPE  C31416591   6.347   3.935   4.946 -0.3055 -0.0842 -0.2239
  150SAPE  H14X16592   6.360   3.845   5.011 -0.3353  1.0322  1.3996
  150SAPE  H14Y16593   6.420   4.008   4.986 -0.8339 -0.2622  1.1258
  150SAPE  C31516594   6.387   3.901   4.800 -0.6975 -0.6221  0.1434
  150SAPE  H15X16595   6.498   3.889   4.799 -0.6527 -0.2482  0.5352
  150SAPE  H15Y16596   6.378   3.993   4.738  0.5335 -0.2936  0.4118
  150SAPE  C31616597   6.312   3.783   4.736  0.3385  0.9125  0.4529
  150SAPE  H16X16598   6.222   3.836   4.697  0.2156  0.0152 -0.5313
  150SAPE  H16Y16599   6.270   3.707   4.805  0.1857 -1.8882 -2.4649
  150SAPE  C31716600   6.375   3.723   4.618 -0.1880  0.8023  0.3272
  150SAPE  H17X16601   6.418   3.800   4.549  0.3788 -0.1248 -0.3764
  150SAPE  H17Y16602   6.290   3.671   4.569  0.3011  1.3081 -1.1475
  150SAPE  C31816603   6.485   3.618   4.641 -0.5624  0.0784 -0.3226
  150SAPE  H18X16604   6.520   3.582   4.542 -2.8005  3.1081 -2.4202
  150SAPE  H18Y16605   6.456   3.540   4.715 -1.1189 -2.1499 -2.7764
  150SAPE  H18Z16606   6.569   3.677   4.684  1.4139  0.2987 -4.1062
  151SAPE     N16607   6.771   3.575   6.605 -0.2464 -0.3547 -0.4308
  151SAPE   HN116608   6.796   3.615   6.512 -2.1200 -0.9114 -1.2132
  151SAPE   HN216609   6.717   3.488   6.587 -1.4016  0.1494  0.4911
  151SAPE   HN316610   6.701   3.643   6.640  0.3779 -0.2113  0.5704
  151SAPE   C1216611   6.903   3.570   6.675  1.0354 -0.2425  1.1987
  151SAPE  H12A16612   6.970   3.521   6.601  1.9975  0.4753  1.5676
  151SAPE  H12B16613   6.897   3.501   6.762 -1.1545 -0.6883  0.7345
  151SAPE   C1116614   6.949   3.718   6.708  0.2894  0.2053 -0.3089
  151SAPE  H11A16615   7.044   3.718   6.766  0.2420  3.5418 -0.0024
  151SAPE  H11B16616   6.874   3.775   6.767 -0.1591  0.5230 -1.1730
  151SAPE     P16617   6.987   3.945   6.588 -0.4161 -0.3991 -0.6105
  151SAPE   O1316618   6.850   3.992   6.622  0.3150  0.4127  0.1538
  151SAPE   O1416619   7.095   3.986   6.681  0.4545  0.2203 -0.1619
  151SAPE   O1216620   6.983   3.788   6.591 -0.1325  0.0070  0.4253
  151SAPE   O1116621   7.022   3.988   6.443  0.2010  0.0274  0.2836
  151SAPE    C116622   7.121   3.916   6.378 -1.0521 -0.2148  0.6736
  151SAPE    HA16623   7.184   3.983   6.317  0.2452  0.4328  2.6303
  151SAPE    HB16624   7.194   3.862   6.442  0.3533  3.1490  2.1298
  151SAPE    C216625   7.066   3.812   6.265  0.1718  1.0229 -0.3783
  151SAPE    HS16626   7.074   3.706   6.297  2.8039  0.7249 -1.7356
  151SAPE   O2116627   7.130   3.838   6.138 -0.1447 -0.8509 -0.3430
  151SAPE   C2116628   7.260   3.797   6.146  0.0255  0.2402 -0.1767
  151SAPE   O2216629   7.307   3.734   6.241 -0.5430  0.0356  0.7402
  151SAPE   C2216630   7.336   3.829   6.019 -0.1803 -1.4295  0.7179
  151SAPE   H2R16631   7.274   3.891   5.951  0.4718 -0.5272  0.9325
  151SAPE   H2S16632   7.429   3.884   6.045 -0.2550 -0.3192 -1.2199
  151SAPE    C316633   6.911   3.835   6.243 -0.1906 -1.1549 -0.5402
  151SAPE    HX16634   6.903   3.939   6.204 -1.6555 -1.2101 -0.4616
  151SAPE    HY16635   6.866   3.842   6.344  1.0793  1.3417 -0.0688
  151SAPE   O3116636   6.854   3.748   6.154 -0.9294  0.3828 -0.1907
  151SAPE   C3116637   6.806   3.633   6.204 -0.1725 -0.2001  0.1670
  151SAPE   O3216638   6.801   3.605   6.319  0.4392 -0.0855  0.3076
  151SAPE   C3216639   6.739   3.557   6.090 -0.9136  0.1603 -0.7515
  151SAPE   H2X16640   6.810   3.565   6.004  0.0854 -1.5382 -0.1368
  151SAPE   H2Y16641   6.645   3.612   6.070  0.0516  1.2821 -2.4910
  151SAPE   C2316642   7.385   3.708   5.937  0.1569  0.3359 -0.5307
  151SAPE   H3R16643   7.437   3.642   6.010 -2.0229  1.0616  1.8198
  151SAPE   H3S16644   7.461   3.733   5.859  0.0076  0.1288 -0.7425
  151SAPE   C2416645   7.283   3.619   5.867 -0.4845 -0.1434 -0.5206
  151SAPE   H4R16646   7.207   3.589   5.942 -1.0951  1.9331 -0.2721
  151SAPE   H4S16647   7.345   3.532   5.836 -0.7801 -0.8836  0.9020
  151SAPE   C2516648   7.217   3.689   5.746 -0.0993  0.6607  0.6963
  151SAPE   H5R16649   7.287   3.724   5.668  0.4127  0.7641  1.1923
  151SAPE   C2616650   7.088   3.713   5.733  0.6022  0.1439  0.1396
  151SAPE   H6R16651   7.063   3.762   5.638  0.4933  0.8098  0.5055
  151SAPE   C2716652   6.976   3.662   5.819 -0.0110 -0.4547  0.3084
  151SAPE   H7R16653   6.982   3.706   5.921 -1.6355  0.4247  0.0594
  151SAPE   H7S16654   6.993   3.553   5.831  0.5021 -0.4701 -0.5206
  151SAPE   C2816655   6.841   3.700   5.756 -0.1110 -0.4772  0.0301
  151SAPE   H8R16656   6.812   3.805   5.776 -3.0507 -1.2345  0.2397
  151SAPE   C2916657   6.776   3.639   5.658 -0.4973 -0.1809 -0.3939
  151SAPE   H9R16658   6.704   3.691   5.594  0.2037 -1.3996 -2.2720
  151SAPE  C21016659   6.819   3.510   5.598 -0.6997  0.0896  0.0571
  151SAPE  H10R16660   6.730   3.452   5.565  1.0654 -1.8486 -1.5576
  151SAPE  H10S16661   6.848   3.451   5.688  2.3614  0.2738 -0.7098
  151SAPE  C21116662   6.923   3.517   5.489  0.8088 -0.0517 -0.4724
  151SAPE  H11R16663   6.975   3.614   5.491  2.4286 -0.7450 -3.3380
  151SAPE  C21216664   6.943   3.432   5.387 -0.0547 -0.5738  0.2110
  151SAPE  H12R16665   7.026   3.446   5.316 -0.5202 -1.6650 -0.5770
  151SAPE  C21316666   6.873   3.301   5.375  0.0443  0.7313  0.3134
  151SAPE  H13R16667   6.796   3.323   5.298  0.7850 -0.0661 -0.6809
  151SAPE  H13S16668   6.820   3.269   5.467 -3.0810 -0.4484 -1.7408
  151SAPE  C21416669   6.964   3.187   5.332 -0.1638  0.3148 -0.5680
  151SAPE  H14R16670   7.066   3.178   5.372 -0.5106 -2.0971 -0.1035
  151SAPE  C21516671   6.941   3.098   5.234  0.2072 -0.0630  0.4761
  151SAPE  H15R16672   7.025   3.030   5.217  0.6435  0.6248 -0.1787
  151SAPE  C21616673   6.814   3.100   5.152  0.5632  0.0287 -0.4663
  151SAPE  H16R16674   6.844   3.044   5.061  1.1918 -0.4978  0.0596
  151SAPE  H16S16675   6.777   3.200   5.119 -0.6471 -0.4046 -0.4577
  151SAPE  C21716676   6.690   3.038   5.226 -0.0262  0.3342  0.2346
  151SAPE  H17R16677   6.603   3.043   5.156  0.0365  0.3523  0.1574
  151SAPE  H17S16678   6.664   3.089   5.321 -0.8895  0.1470  0.1132
  151SAPE  C21816679   6.712   2.889   5.247 -0.1416 -0.1653 -0.2312
  151SAPE  H18R16680   6.794   2.882   5.321  1.8553  0.5819 -2.2789
  151SAPE  H18S16681   6.743   2.835   5.155  0.1572 -3.2185  1.5121
  151SAPE  C21916682   6.600   2.815   5.318 -0.2411  0.0734  0.6714
  151SAPE  H19R16683   6.571   2.884   5.400  2.3345  2.0228  0.0853
  151SAPE  H19S16684   6.635   2.722   5.366  3.7674  0.2781 -1.3948
  151SAPE  C22016685   6.486   2.791   5.224 -0.2591 -0.3777  0.4009
  151SAPE  H20R16686   6.419   2.874   5.193  1.2999  0.2117 -1.6111
  151SAPE  H20S16687   6.425   2.709   5.269 -1.2129 -0.8810 -1.6794
  151SAPE  H20T16688   6.517   2.739   5.131 -1.8004 -0.9122  0.1587
  151SAPE   C3316689   6.706   3.407   6.112  1.0783  0.3324 -0.5868
  151SAPE   H3X16690   6.622   3.399   6.184  0.1403 -1.5082 -1.8024
  151SAPE   H3Y16691   6.789   3.364   6.171 -0.3626  0.0178  1.3280
  151SAPE   C3416692   6.690   3.322   5.984 -0.1525  0.2307 -0.1744
  151SAPE   H4X16693   6.663   3.220   6.019  0.0834  0.4748  0.7245
  151SAPE   H4Y16694   6.788   3.316   5.931  0.0969 -0.0452  0.3165
  151SAPE   C3516695   6.585   3.370   5.885  0.1939 -0.8904 -0.8513
  151SAPE   H5X16696   6.609   3.474   5.854 -0.2647 -0.5563 -0.1011
  151SAPE   H5Y16697   6.486   3.368   5.935 -0.0080 -1.6895 -1.2622
  151SAPE   C3616698   6.576   3.273   5.764  1.2774 -0.3362 -0.2913
  151SAPE   H6X16699   6.534   3.176   5.798  0.2194  0.7712  1.7430
  151SAPE   H6Y16700   6.682   3.256   5.738  1.1764 -0.8448 -0.3828
  151SAPE   C3716701   6.492   3.324   5.643  0.2821 -0.8881  0.4442
  151SAPE   H7X16702   6.525   3.427   5.615 -1.8879 -0.1314  0.5277
  151SAPE   H7Y16703   6.387   3.348   5.667  0.6659  1.8262 -0.2205
  151SAPE   C3816704   6.486   3.239   5.516 -0.3280 -0.2163 -0.7804
  151SAPE   H8X16705   6.449   3.135   5.527  1.9617 -0.8258  3.7854
  151SAPE   H8Y16706   6.590   3.214   5.487 -0.3611 -0.1233 -0.9806
  151SAPE   C3916707   6.407   3.315   5.408 -0.3889 -1.0966  0.0236
  151SAPE   H9X16708   6.459   3.412   5.390  0.8116 -1.2969  2.0685
  151SAPE   H9Y16709   6.304   3.344   5.437 -0.5470  0.0281 -1.5247
  151SAPE  C31016710   6.406   3.242   5.279  0.2038  0.4535  0.5882
  151SAPE  H10X16711   6.381   3.138   5.310 -1.0816  0.5222 -0.1432
  151SAPE  H10Y16712   6.511   3.241   5.241  0.1741 -0.1553  0.5047
  151SAPE  C31116713   6.318   3.302   5.168  0.2750  0.7009 -0.0810
  151SAPE  H11X16714   6.347   3.262   5.069 -0.4737 -0.2681  0.0730
  151SAPE  H11Y16715   6.337   3.411   5.167 -0.2837  0.9336  3.3276
  151SAPE  C31216716   6.167   3.271   5.197 -0.9536 -0.2948  0.1968
  151SAPE  H12X16717   6.125   3.334   5.279  0.5181 -2.8006  3.0683
  151SAPE  H12Y16718   6.157   3.167   5.233 -1.4853  0.5011  2.5951
  151SAPE  C31316719   6.085   3.269   5.075 -0.6684  0.1599  0.7091
  151SAPE  H13X16720   5.990   3.218   5.102  0.3253 -2.3650 -0.2642
  151SAPE  H13Y16721   6.130   3.195   5.006 -0.7150  0.1033  0.7390
  151SAPE  C31416722   6.071   3.403   4.990  0.1294 -0.1157 -0.3808
  151SAPE  H14X16723   6.166   3.414   4.934  0.8332  0.2854  0.8451
  151SAPE  H14Y16724   6.049   3.490   5.057 -0.4263  0.7801 -1.6775
  151SAPE  C31516725   5.961   3.396   4.888 -0.1158 -0.8588 -0.4329
  151SAPE  H15X16726   5.868   3.367   4.942  0.5528  0.5618  1.6371
  151SAPE  H15Y16727   5.987   3.317   4.814  0.5783  0.3468 -1.5120
  151SAPE  C31616728   5.946   3.535   4.816 -0.5083 -0.3297 -0.8742
  151SAPE  H16X16729   6.045   3.558   4.770  0.0238 -0.2034  0.2839
  151SAPE  H16Y16730   5.926   3.615   4.890  0.3984 -0.3404 -0.5960
  151SAPE  C31716731   5.852   3.527   4.696  0.2216 -0.5566  0.1029
  151SAPE  H17X16732   5.754   3.506   4.744  0.1932 -1.6364 -0.4158
  151SAPE  H17Y16733   5.887   3.446   4.630 -0.2840 -2.4692  2.0695
  151SAPE  C31816734   5.824   3.661   4.622  0.2627  0.4927 -0.1946
  151SAPE  H18X16735   5.732   3.643   4.563 -0.0012 -0.1719  0.4098
  151SAPE  H18Y16736   5.907   3.678   4.550  1.7239 -4.7601 -0.1562
  151SAPE  H18Z16737   5.813   3.749   4.690  1.0807  0.6124 -0.2016
  152SAPE     N16738   2.349   6.407   7.062 -0.3338 -0.3542 -0.8541
  152SAPE   HN116739   2.402   6.485   7.106  1.7118 -1.6861 -0.8457
  152SAPE   HN216740   2.247   6.425   7.048 -0.4293  0.2147  0.4325
  152SAPE   HN316741   2.359   6.326   7.126  2.1483  1.5053  1.3533
  152SAPE   C1216742   2.406   6.370   6.931  0.8085 -0.6558  0.2665
  152SAPE  H12A16743   2.505   6.321   6.945  0.7066 -1.0770 -0.4141
  152SAPE  H12B16744   2.432   6.462   6.873 -0.4240 -0.5432 -0.1368
  152SAPE   C1116745   2.309   6.294   6.839  0.7161 -0.4119  0.2329
  152SAPE  H11A16746   2.305   6.187   6.867 -1.1337 -0.6967 -0.9898
  152SAPE  H11B16747   2.342   6.286   6.733 -0.9124  0.8809 -0.4124
  152SAPE     P16748   2.120   6.450   6.742  0.2122 -0.0311  0.0720
  152SAPE   O1316749   2.043   6.364   6.645 -0.0908  0.0271  0.4734
  152SAPE   O1416750   2.048   6.559   6.819  0.3186  0.1356 -0.6818
  152SAPE   O1216751   2.179   6.349   6.846  0.3190 -0.4034  0.0605
  152SAPE   O1116752   2.251   6.507   6.674  0.3716 -0.8259  0.0037
  152SAPE    C116753   2.273   6.649   6.660 -0.4482 -0.0649 -0.8961
  152SAPE    HA16754   2.216   6.712   6.731 -0.7770 -2.1554  0.7899
  152SAPE    HB16755   2.381   6.672   6.673 -0.4252 -0.5670 -0.1052
  152SAPE    C216756   2.242   6.690   6.516  0.1967 -0.2987 -0.9688
  152SAPE    HS16757   2.261   6.800   6.512 -2.6264  0.5695  3.2191
  152SAPE   O2116758   2.101   6.681   6.507  0.2242 -0.4599 -0.4922
  152SAPE   C2116759   2.038   6.756   6.410  0.0790 -0.1642  0.6011
  152SAPE   O2216760   2.094   6.840   6.341  0.4750  0.2075 -0.5740
  152SAPE   C2216761   1.889   6.721   6.394  0.2286 -0.4297 -0.4536
  152SAPE   H2R16762   1.889   6.614   6.422  0.3505 -0.1706  0.5931
  152SAPE   H2S16763   1.840   6.778   6.476  2.7085  1.1956  0.0099
  152SAPE    C316764   2.317   6.598   6.414 -0.8338 -0.1170  0.0838
  152SAPE    HX16765   2.283   6.494   6.432 -0.3577 -0.5807 -1.5783
  152SAPE    HY16766   2.424   6.596   6.444 -0.8416  0.5114  0.1735
  152SAPE   O3116767   2.294   6.634   6.276 -0.4901 -0.3942  0.1335
  152SAPE   C3116768   2.353   6.746   6.241  0.1422  0.4449 -0.2075
  152SAPE   O3216769   2.428   6.811   6.317  0.0004 -0.0222  0.5300
  152SAPE   C3216770   2.324   6.778   6.100  0.1386  0.2812 -1.0182
  152SAPE   H2X16771   2.214   6.786   6.089 -0.0648  0.1428  0.5965
  152SAPE   H2Y16772   2.356   6.702   6.026 -2.0020 -0.0621 -1.6547
  152SAPE   C2316773   1.822   6.763   6.263 -0.2538  1.0787 -0.3406
  152SAPE   H3R16774   1.894   6.756   6.179  0.8154 -0.3135  0.6407
  152SAPE   H3S16775   1.789   6.867   6.280 -0.4355  1.4159 -2.4369
  152SAPE   C2416776   1.686   6.688   6.234  0.4675  0.9017  0.4078
  152SAPE   H4R16777   1.640   6.738   6.146 -2.3422 -0.7156  0.8463
  152SAPE   H4S16778   1.613   6.702   6.317 -1.5773 -1.5968 -0.8087
  152SAPE   C2516779   1.716   6.540   6.200 -0.1183  0.3458 -1.0433
  152SAPE   H5R16780   1.707   6.468   6.282  1.4131 -2.8363 -3.4223
  152SAPE   C2616781   1.761   6.485   6.082  0.1584 -0.2177  0.0738
  152SAPE   H6R16782   1.781   6.377   6.072  1.4588 -0.1682  1.6661
  152SAPE   C2716783   1.785   6.559   5.958 -0.1022 -0.0214  0.3169
  152SAPE   H7R16784   1.875   6.513   5.911 -0.8267 -2.5307  1.2123
  152SAPE   H7S16785   1.826   6.662   5.963  1.2865 -0.4669 -1.0224
  152SAPE   C2816786   1.662   6.559   5.873  0.3110  0.4111  0.0100
  152SAPE   H8R16787   1.572   6.607   5.914 -0.1101 -0.3592  0.0091
  152SAPE   C2916788   1.647   6.502   5.748  0.5919 -0.3821 -0.2761
  152SAPE   H9R16789   1.545   6.495   5.709  0.0871  1.2365  0.6523
  152SAPE  C21016790   1.751   6.433   5.667  0.5489 -0.0574  0.3449
  152SAPE  H10R16791   1.737   6.323   5.666  0.1411 -0.0364 -1.8612
  152SAPE  H10S16792   1.858   6.444   5.693  0.8915 -1.2386 -0.4308
  152SAPE  C21116793   1.740   6.491   5.523  0.2177 -0.1286 -0.2538
  152SAPE  H11R16794   1.774   6.594   5.510 -0.8085  0.3628  0.7654
  152SAPE  C21216795   1.693   6.431   5.411  0.2397 -0.5090  0.2409
  152SAPE  H12R16796   1.693   6.499   5.324  2.4793  0.4250  0.9028
  152SAPE  C21316797   1.630   6.292   5.404 -0.1332 -0.3113  0.0464
  152SAPE  H13R16798   1.630   6.248   5.507  0.2231  0.5043  0.4027
  152SAPE  H13S16799   1.694   6.234   5.334 -1.2409  0.3027 -1.5326
  152SAPE  C21416800   1.484   6.307   5.365 -0.4408  0.4629 -0.8263
  152SAPE  H14R16801   1.445   6.407   5.391  1.6445  0.9479  0.6966
  152SAPE  C21516802   1.410   6.225   5.293  0.0152 -0.0016 -0.3967
  152SAPE  H15R16803   1.305   6.245   5.270  0.1062 -0.4753 -1.2978
  152SAPE  C21616804   1.458   6.085   5.257  0.0334 -0.1414 -0.0664
  152SAPE  H16R16805   1.373   6.014   5.257  0.2471 -0.4004  0.5581
  152SAPE  H16S16806   1.538   6.044   5.322 -0.8401  0.9310  1.7792
  152SAPE  C21716807   1.513   6.076   5.112 -0.3321  0.1908 -0.1346
  152SAPE  H17R16808   1.583   5.991   5.101 -1.0305 -0.2420 -1.3933
  152SAPE  H17S16809   1.576   6.163   5.084 -0.4169  0.9305  1.8261
  152SAPE  C21816810   1.400   6.067   4.999  0.5589 -0.1715 -0.0097
  152SAPE  H18R16811   1.451   6.093   4.904 -0.4097 -0.1676 -0.5372
  152SAPE  H18S16812   1.317   6.139   5.015  1.7376  0.8684  1.8059
  152SAPE  C21916813   1.336   5.934   4.975  0.3044 -0.6473 -0.4872
  152SAPE  H19R16814   1.315   5.886   5.073  1.0235 -0.7322 -0.3665
  152SAPE  H19S16815   1.420   5.878   4.928  0.4268 -1.1998  0.3736
  152SAPE  C22016816   1.207   5.938   4.889 -0.9319 -0.2682  0.3639
  152SAPE  H20R16817   1.167   5.835   4.875 -0.1031 -0.4913 -0.5627
  152SAPE  H20S16818   1.232   5.989   4.793 -1.3291  1.9383  1.3884
  152SAPE  H20T16819   1.119   5.990   4.932 -0.3514  1.4188 -0.4318
  152SAPE   C3316820   2.391   6.905   6.052 -0.5272  0.0637 -0.0541
  152SAPE   H3X16821   2.474   6.945   6.113 -0.7864  1.6278 -0.6858
  152SAPE   H3Y16822   2.308   6.979   6.059  0.0713  0.6802  0.6417
  152SAPE   C3416823   2.457   6.909   5.914  0.0645  0.1612  0.2364
  152SAPE   H4X16824   2.520   6.818   5.903  0.4391  0.1259  2.3307
  152SAPE   H4Y16825   2.524   6.997   5.905 -0.3313  0.2984 -1.7590
  152SAPE   C3516826   2.350   6.907   5.798  0.0471 -0.0253 -0.2126
  152SAPE   H5X16827   2.270   6.983   5.807  0.0483  0.0116 -0.4924
  152SAPE   H5Y16828   2.288   6.815   5.798 -0.4967  0.3196  1.6539
  152SAPE   C3616829   2.427   6.907   5.662  0.1224  0.3975  0.0833
  152SAPE   H6X16830   2.504   6.826   5.658  0.9517  1.1954 -2.3642
  152SAPE   H6Y16831   2.476   7.006   5.654 -0.7857  0.8881  0.4701
  152SAPE   C3716832   2.345   6.886   5.531  0.5623 -0.2599  0.7551
  152SAPE   H7X16833   2.238   6.916   5.538 -0.4758 -3.5979  0.9849
  152SAPE   H7Y16834   2.349   6.779   5.503  0.2508  0.1769 -1.0955
  152SAPE   C3816835   2.412   6.970   5.419 -0.0293 -0.4309  0.1007
  152SAPE   H8X16836   2.523   6.958   5.422 -0.0886 -0.9404  0.3875
  152SAPE   H8Y16837   2.380   7.075   5.436 -0.3203 -0.6608  1.0055
  152SAPE   C3916838   2.347   6.934   5.284 -0.1714  0.4135 -0.7125
  152SAPE   H9X16839   2.245   6.977   5.282 -0.0157  0.7771 -0.7542
  152SAPE   H9Y16840   2.359   6.825   5.266  0.5765  0.8323 -3.0060
  152SAPE  C31016841   2.413   6.991   5.150 -0.8541 -0.1312 -1.3863
  152SAPE  H10X16842   2.520   6.963   5.165 -0.1812  2.2586 -1.3324
  152SAPE  H10Y16843   2.415   7.102   5.145  2.8492  0.0384  0.5559
  152SAPE  C31116844   2.373   6.908   5.029  0.1102  0.0854  0.8785
  152SAPE  H11X16845   2.352   6.805   5.066 -0.0107  0.8689  3.1753
  152SAPE  H11Y16846   2.453   6.908   4.952 -0.0594  0.8431  0.6905
  152SAPE  C31216847   2.245   6.954   4.951 -0.0905 -0.0804  0.0301
  152SAPE  H12X16848   2.154   6.926   5.009 -0.7694  0.6546 -0.6501
  152SAPE  H12Y16849   2.257   6.899   4.855  1.2039  1.0596 -0.4934
  152SAPE  C31316850   2.243   7.096   4.904  0.8932  0.3971  0.3909
  152SAPE  H13X16851   2.326   7.120   4.833  1.7804  0.9476  1.5633
  152SAPE  H13Y16852   2.258   7.165   4.990  0.9006 -0.9742  1.5339
  152SAPE  C31416853   2.108   7.128   4.830 -0.3561 -0.2908  0.8331
  152SAPE  H14X16854   2.048   7.165   4.916  0.0176 -2.3303  2.0619
  152SAPE  H14Y16855   2.071   7.035   4.782 -0.5293  0.3481 -0.3060
  152SAPE  C31516856   2.113   7.251   4.730 -0.3339 -0.4045 -0.0404
  152SAPE  H15X16857   2.177   7.332   4.773 -0.9138  0.6852 -1.1956
  152SAPE  H15Y16858   2.009   7.286   4.720  0.0779  1.0366  0.5001
  152SAPE  C31616859   2.165   7.213   4.588  0.5920  0.0223 -0.2489
  152SAPE  H16X16860   2.081   7.166   4.532  0.0250  1.3298 -0.5156
  152SAPE  H16Y16861   2.249   7.141   4.600  1.2005  0.7920  0.1702
  152SAPE  C31716862   2.196   7.334   4.500  0.0260 -0.1040 -0.7831
  152SAPE  H17X16863   2.189   7.283   4.401 -0.6886 -1.8717  0.1376
  152SAPE  H17Y16864   2.296   7.379   4.513 -1.4845  2.9763  1.3087
  152SAPE  C31816865   2.092   7.448   4.511  0.1485  0.4146  0.3371
  152SAPE  H18X16866   2.135   7.545   4.476 -0.8816  0.1032 -1.9725
  152SAPE  H18Y16867   2.057   7.464   4.615 -1.7451 -1.4600  0.0485
  152SAPE  H18Z16868   2.000   7.431   4.452  0.8808 -2.8970 -0.0376
  153SAPE     N16869   2.464   4.752   6.609 -0.3776  0.3757 -0.2790
  153SAPE   HN116870   2.553   4.697   6.613 -0.3797  0.3495 -0.6423
  153SAPE   HN216871   2.480   4.831   6.675 -0.8324 -0.0245  0.3274
  153SAPE   HN316872   2.386   4.696   6.648 -0.0505 -0.9483 -1.4460
  153SAPE   C1216873   2.428   4.797   6.476 -0.0095  0.7071 -0.3349
  153SAPE  H12A16874   2.521   4.787   6.417  0.2529 -1.0785  0.3118
  153SAPE  H12B16875   2.401   4.905   6.464 -0.2183  0.4841 -2.1745
  153SAPE   C1116876   2.308   4.712   6.425  0.2762  0.1802 -0.0857
  153SAPE  H11A16877   2.340   4.606   6.425  0.5508  0.2524  0.8476
  153SAPE  H11B16878   2.297   4.745   6.319  1.7136  3.2844  0.6090
  153SAPE     P16879   2.136   4.619   6.597 -0.0828 -0.6999 -0.1878
  153SAPE   O1316880   2.231   4.599   6.711  0.5575 -0.3989  0.0291
  153SAPE   O1416881   1.991   4.644   6.631  0.1728  0.4336  0.2153
  153SAPE   O1216882   2.194   4.741   6.508 -0.1762 -0.2251  0.1357
  153SAPE   O1116883   2.146   4.491   6.503 -0.0521 -0.1584 -0.5314
  153SAPE    C116884   2.083   4.480   6.382  0.1306 -0.1756 -0.9637
  153SAPE    HA16885   2.038   4.574   6.343  3.0593  1.0746 -1.6870
  153SAPE    HB16886   2.149   4.423   6.313  0.9974 -0.1628 -0.1791
  153SAPE    C216887   1.959   4.389   6.395  0.4581  0.2522 -0.2000
  153SAPE    HS16888   1.942   4.357   6.290 -0.4785  0.7173 -0.2038
  153SAPE   O2116889   1.851   4.454   6.466 -0.9582  0.6737  0.0944
  153SAPE   C2116890   1.774   4.532   6.386 -0.5662  0.4623 -0.1592
  153SAPE   O2216891   1.798   4.566   6.272 -0.0203  0.4555  0.3142
  153SAPE   C2216892   1.656   4.586   6.457 -0.1181 -0.2924 -0.5513
  153SAPE   H2R16893   1.606   4.504   6.514 -1.4921  2.3689  2.3796
  153SAPE   H2S16894   1.694   4.653   6.537 -1.3489 -1.8990  1.4968
  153SAPE    C316895   1.994   4.270   6.472  0.2250 -0.0511 -0.4121
  153SAPE    HX16896   2.001   4.297   6.579  1.0567  0.4110 -0.5756
  153SAPE    HY16897   2.097   4.233   6.452  0.1789 -0.8252  0.6959
  153SAPE   O3116898   1.896   4.165   6.452 -0.2106 -0.2946 -0.0466
  153SAPE   C3116899   1.933   4.051   6.512  0.6544  0.0133  0.1595
  153SAPE   O3216900   2.031   4.042   6.583  0.6482  0.1800 -0.3511
  153SAPE   C3216901   1.834   3.943   6.467  0.0744 -0.0186  0.4855
  153SAPE   H2X16902   1.745   3.995   6.427  0.6219  1.2295  0.8365
  153SAPE   H2Y16903   1.790   3.909   6.563 -2.1311  1.1907 -0.0380
  153SAPE   C2316904   1.554   4.656   6.364 -0.2019 -1.0182 -0.0762
  153SAPE   H3R16905   1.535   4.600   6.271  3.0064 -1.0965 -0.8035
  153SAPE   H3S16906   1.608   4.750   6.340 -1.6275  0.4089  1.9259
  153SAPE   C2416907   1.409   4.683   6.420 -0.3665 -0.3686  0.5677
  153SAPE   H4R16908   1.361   4.746   6.341  0.2682 -0.2704  0.2600
  153SAPE   H4S16909   1.414   4.737   6.517 -0.2861 -0.0161  0.3687
  153SAPE   C2516910   1.315   4.561   6.439 -0.8808 -0.1899 -0.2565
  153SAPE   H5R16911   1.342   4.501   6.528 -2.8126 -1.3883 -0.4240
  153SAPE   C2616912   1.206   4.526   6.368  0.2531 -0.4891  0.3186
  153SAPE   H6R16913   1.155   4.434   6.401 -1.1450  0.1744  0.0986
  153SAPE   C2716914   1.152   4.592   6.239  0.0451  0.1816  0.7314
  153SAPE   H7R16915   1.102   4.683   6.277  1.1775  0.4895  1.5394
  153SAPE   H7S16916   1.065   4.529   6.209  0.7002  0.0112 -0.9252
  153SAPE   C2816917   1.253   4.592   6.127 -0.0212 -0.4093  0.3733
  153SAPE   H8R16918   1.349   4.634   6.159 -1.3939  2.7897  0.6545
  153SAPE   C2916919   1.230   4.576   5.992  0.0109 -0.1290  0.6186
  153SAPE   H9R16920   1.314   4.595   5.924 -0.7902 -0.1934 -0.4350
  153SAPE  C21016921   1.096   4.545   5.932  0.2241 -0.4707 -0.5302
  153SAPE  H10R16922   1.064   4.632   5.871 -0.2947  0.4402  0.9685
  153SAPE  H10S16923   1.023   4.542   6.016  1.6931  1.0253  0.8678
  153SAPE  C21116924   1.100   4.416   5.856  0.7163 -0.5210  0.1842
  153SAPE  H11R16925   1.050   4.332   5.907  1.1662 -2.2071 -2.0061
  153SAPE  C21216926   1.136   4.399   5.727 -0.1444 -0.1340 -0.0603
  153SAPE  H12R16927   1.130   4.300   5.678 -1.2667  0.1875 -0.6035
  153SAPE  C21316928   1.213   4.502   5.641  0.6239 -0.2845 -0.1533
  153SAPE  H13R16929   1.263   4.581   5.702 -0.2084  1.5752 -1.7758
  153SAPE  H13S16930   1.146   4.567   5.581  0.5427 -0.2349 -0.0100
  153SAPE  C21416931   1.315   4.436   5.554  0.4203 -0.5669 -0.0805
  153SAPE  H14R16932   1.418   4.424   5.589  1.0605  1.6126 -1.0527
  153SAPE  C21516933   1.287   4.377   5.436  0.0142  0.3276  0.7289
  153SAPE  H15R16934   1.362   4.326   5.374 -0.8239 -3.0537  2.2642
  153SAPE  C21616935   1.151   4.361   5.371  0.0464  0.6802  0.0690
  153SAPE  H16R16936   1.121   4.460   5.331 -0.0901  0.5077 -0.2622
  153SAPE  H16S16937   1.067   4.326   5.434 -0.5488  0.4908 -0.8099
  153SAPE  C21716938   1.146   4.254   5.255  0.4222 -0.4769  0.1075
  153SAPE  H17R16939   1.045   4.235   5.212  0.0926  1.3913 -0.0345
  153SAPE  H17S16940   1.178   4.150   5.275  1.4585  0.0023  1.0298
  153SAPE  C21816941   1.224   4.298   5.132 -0.0610 -0.3315  1.0531
  153SAPE  H18R16942   1.332   4.277   5.137  0.3271  0.7381 -1.1887
  153SAPE  H18S16943   1.215   4.407   5.109 -2.2844 -0.2314  2.1299
  153SAPE  C21916944   1.182   4.233   4.999 -0.8407 -0.5537  0.3666
  153SAPE  H19R16945   1.075   4.261   4.990 -0.1533  1.8041 -1.5539
  153SAPE  H19S16946   1.178   4.122   5.009  0.7176 -0.5870  0.7905
  153SAPE  C22016947   1.253   4.271   4.867  0.1983 -0.3568  1.3226
  153SAPE  H20R16948   1.253   4.382   4.857 -0.4354 -0.4331  0.3955
  153SAPE  H20S16949   1.213   4.226   4.774  0.9818  0.1867  0.7097
  153SAPE  H20T16950   1.358   4.235   4.866  0.3364  0.0088 -0.6581
  153SAPE   C3316951   1.885   3.837   6.369  0.0223  0.5044  0.4637
  153SAPE   H3X16952   1.802   3.769   6.344 -1.9453  2.6176  0.8499
  153SAPE   H3Y16953   1.964   3.774   6.415 -0.7546  1.0241  2.6647
  153SAPE   C3416954   1.950   3.911   6.241  0.2166  0.3864  0.2339
  153SAPE   H4X16955   1.993   3.826   6.184 -1.2147  0.2408 -0.7008
  153SAPE   H4Y16956   2.035   3.978   6.265  0.9894 -1.3776  3.0152
  153SAPE   C3516957   1.855   3.976   6.130  0.0083  0.8850  0.0657
  153SAPE   H5X16958   1.770   4.033   6.173  0.6095  0.9032  1.2764
  153SAPE   H5Y16959   1.808   3.893   6.073  0.5589  1.5251 -1.3659
  153SAPE   C3616960   1.938   4.074   6.046 -0.1632  0.1387  0.3212
  153SAPE   H6X16961   2.004   4.132   6.113  0.1798 -2.2513  2.2177
  153SAPE   H6Y16962   1.873   4.148   5.995 -0.1356 -1.1404 -1.6762
  153SAPE   C3716963   2.009   3.984   5.934  0.6591 -0.1429  0.3190
  153SAPE   H7X16964   1.924   3.952   5.870 -0.2942  0.5531  1.2095
  153SAPE   H7Y16965   2.061   3.898   5.981 -0.3772  0.4266  2.6829
  153SAPE   C3816966   2.102   4.067   5.850  0.1805  0.7323  0.8043
  153SAPE   H8X16967   2.176   4.104   5.924  0.7061  0.2801  0.5004
  153SAPE   H8Y16968   2.050   4.158   5.811 -1.1460 -1.1702 -2.1993
  153SAPE   C3916969   2.149   3.980   5.734  0.2086  0.4472 -0.1209
  153SAPE   H9X16970   2.059   3.923   5.703  2.8258 -3.5089 -1.2493
  153SAPE   H9Y16971   2.208   3.897   5.779 -0.3932 -0.2899 -0.6703
  153SAPE  C31016972   2.214   4.056   5.619 -0.2471  0.5207  0.3164
  153SAPE  H10X16973   2.303   4.111   5.655  0.7003  0.3105 -1.5828
  153SAPE  H10Y16974   2.132   4.125   5.589  0.4580 -0.5103 -5.0664
  153SAPE  C31116975   2.252   3.966   5.500  0.4205  0.2625  0.5481
  153SAPE  H11X16976   2.155   3.919   5.471 -0.7892  2.0135  1.6207
  153SAPE  H11Y16977   2.317   3.879   5.523 -0.3021 -0.5476 -0.3626
  153SAPE  C31216978   2.310   4.034   5.373 -0.4673 -0.4421 -0.9363
  153SAPE  H12X16979   2.411   4.068   5.404 -1.0387  0.0550  0.4884
  153SAPE  H12Y16980   2.235   4.108   5.338 -0.2455 -0.5933 -1.7324
  153SAPE  C31316981   2.318   3.934   5.260 -0.0354 -0.5902  0.6137
  153SAPE  H13X16982   2.230   3.866   5.255 -0.5326  0.0671  0.2468
  153SAPE  H13Y16983   2.410   3.874   5.279 -0.3640 -0.6348  2.2422
  153SAPE  C31416984   2.325   3.983   5.117  0.1011 -0.0339  0.2894
  153SAPE  H14X16985   2.417   4.045   5.113 -0.7623  1.3124  0.5199
  153SAPE  H14Y16986   2.238   4.044   5.086  1.0766  0.4651 -1.5975
  153SAPE  C31516987   2.332   3.872   5.018 -0.4076 -0.1154 -0.5328
  153SAPE  H15X16988   2.233   3.826   4.996 -0.0141 -0.7679 -0.9898
  153SAPE  H15Y16989   2.391   3.788   5.060 -1.5992 -1.0180 -0.6094
  153SAPE  C31616990   2.387   3.896   4.877  0.0806  0.0743  0.9251
  153SAPE  H16X16991   2.387   3.808   4.809  0.2266  1.1065 -0.4513
  153SAPE  H16Y16992   2.490   3.935   4.870 -0.2452  0.6095 -2.7159
  153SAPE  C31716993   2.311   4.005   4.808  0.1795 -0.4185 -0.0169
  153SAPE  H17X16994   2.314   4.097   4.871  0.9887 -0.2454 -0.2909
  153SAPE  H17Y16995   2.208   3.964   4.815  0.1126  0.0477  3.0521
  153SAPE  C31816996   2.364   4.040   4.663  0.6512  0.6406 -0.4743
  153SAPE  H18X16997   2.342   3.957   4.593 -2.8078  0.7121  0.3185
  153SAPE  H18Y16998   2.472   4.067   4.662  0.5253  1.2363  0.4648
  153SAPE  H18Z16999   2.297   4.124   4.632 -0.9549 -0.9653 -1.5283
  154SAPE     N17000   6.723   2.863   7.264  0.0964  0.0019 -0.1047
  154SAPE   HN117001   6.705   2.965   7.259  2.6604  0.4844 -1.2719
  154SAPE   HN217002   6.684   2.834   7.357 -0.6359  3.4625  0.7982
  154SAPE   HN317003   6.824   2.837   7.271 -0.3436 -1.4738  1.6584
  154SAPE   C1217004   6.664   2.766   7.169  0.3404 -0.0186  0.4639
  154SAPE  H12A17005   6.554   2.772   7.161  0.5001  1.3595 -1.2025
  154SAPE  H12B17006   6.691   2.664   7.203 -1.8283 -0.7026  0.2711
  154SAPE   C1117007   6.736   2.789   7.032 -0.0311  0.3249  0.1026
  154SAPE  H11A17008   6.719   2.886   6.981  1.8662 -0.1408 -1.4896
  154SAPE  H11B17009   6.687   2.709   6.972 -1.6112  1.7135 -0.5294
  154SAPE     P17010   6.955   2.651   6.975 -0.3907 -0.3754 -0.2910
  154SAPE   O1317011   7.099   2.670   7.002  0.0151  0.0937 -0.0565
  154SAPE   O1417012   6.898   2.527   7.035 -0.6103 -0.0305  0.1537
  154SAPE   O1217013   6.881   2.778   7.029  0.3679 -0.1226 -0.1846
  154SAPE   O1117014   6.932   2.652   6.824  0.4237 -0.1202  0.4571
  154SAPE    C117015   6.912   2.777   6.743  0.4732  0.3162  0.4650
  154SAPE    HA17016   6.873   2.864   6.799 -0.4373  0.3740 -0.2448
  154SAPE    HB17017   7.008   2.816   6.705  0.3889  0.5950  0.5385
  154SAPE    C217018   6.825   2.728   6.619  0.2782  0.2236  0.9487
  154SAPE    HS17019   6.814   2.814   6.550  0.6707 -0.7437 -0.3772
  154SAPE   O2117020   6.698   2.668   6.642  0.3355 -0.0653  0.4522
  154SAPE   C2117021   6.602   2.757   6.687  0.2463  0.9081 -0.3250
  154SAPE   O2217022   6.620   2.875   6.716 -0.2605  0.5211  0.1940
  154SAPE   C2217023   6.466   2.692   6.686 -0.7773 -0.2868  0.1035
  154SAPE   H2R17024   6.466   2.581   6.693  0.8829 -0.4740 -1.9706
  154SAPE   H2S17025   6.412   2.735   6.773  0.2721 -2.1779  1.7865
  154SAPE    C317026   6.906   2.634   6.519  0.2783 -0.1058 -0.2883
  154SAPE    HX17027   6.932   2.537   6.565  0.5899 -1.1312 -2.4993
  154SAPE    HY17028   7.004   2.683   6.500 -0.3845  1.4121  0.0196
  154SAPE   O3117029   6.844   2.617   6.383 -0.2887  0.7629 -0.0538
  154SAPE   C3117030   6.773   2.513   6.364 -0.2399  0.4397 -0.2110
  154SAPE   O3217031   6.749   2.426   6.448  0.3579 -0.6622 -0.2412
  154SAPE   C3217032   6.735   2.496   6.213 -0.3462 -0.4979  0.5438
  154SAPE   H2X17033   6.745   2.601   6.178  0.2552 -0.9268 -0.6668
  154SAPE   H2Y17034   6.626   2.477   6.218 -0.7349  1.7234  2.3329
  154SAPE   C2317035   6.381   2.744   6.560 -0.5289 -0.0188 -0.3794
  154SAPE   H3R17036   6.387   2.855   6.566 -1.7346 -0.0289  2.7090
  154SAPE   H3S17037   6.273   2.720   6.571 -0.7491  1.6588  1.8470
  154SAPE   C2417038   6.429   2.680   6.426 -0.9559 -0.3730 -0.8696
  154SAPE   H4R17039   6.394   2.575   6.418  0.0352 -0.9333  1.2912
  154SAPE   H4S17040   6.538   2.661   6.437 -1.3144 -2.1841 -0.0534
  154SAPE   C2517041   6.388   2.770   6.310  0.6156  0.0288  0.1716
  154SAPE   H5R17042   6.281   2.791   6.293  0.4829 -1.4189 -1.0418
  154SAPE   C2617043   6.463   2.844   6.233 -0.0555  0.4405 -0.0798
  154SAPE   H6R17044   6.415   2.911   6.160 -0.5845 -1.0303 -1.1478
  154SAPE   C2717045   6.617   2.853   6.250  0.3496 -0.4546  0.2515
  154SAPE   H7R17046   6.667   2.800   6.166  0.5147 -1.2407  0.8392
  154SAPE   H7S17047   6.652   2.808   6.345  0.3515 -0.7918  0.0908
  154SAPE   C2817048   6.673   2.987   6.245  0.0892 -0.8427 -0.6356
  154SAPE   H8R17049   6.607   3.072   6.270 -1.3540 -1.2810 -2.7166
  154SAPE   C2917050   6.800   3.015   6.209  1.0543 -0.7869 -0.7121
  154SAPE   H9R17051   6.829   3.120   6.195 -1.1081 -0.1320 -0.5328
  154SAPE  C21017052   6.913   2.921   6.179 -0.6375 -0.0663 -0.5127
  154SAPE  H10R17053   6.948   2.962   6.082  0.9083 -0.1509 -0.0119
  154SAPE  H10S17054   6.871   2.823   6.150 -0.7008  0.4726 -2.4254
  154SAPE  C21117055   7.028   2.920   6.288  0.4290  0.1574  0.2106
  154SAPE  H11R17056   6.994   2.933   6.392  0.1773 -1.0865  0.3049
  154SAPE  C21217057   7.156   2.926   6.260  0.1809  0.8947 -0.4888
  154SAPE  H12R17058   7.235   2.926   6.336  0.2723  0.4744 -0.5789
  154SAPE  C21317059   7.226   2.900   6.128 -0.5420  0.5047  0.5348
  154SAPE  H13R17060   7.313   2.967   6.140 -1.2460  1.3989  0.8111
  154SAPE  H13S17061   7.160   2.931   6.043 -1.9369 -0.6282  1.1553
  154SAPE  C21417062   7.264   2.754   6.095 -0.0950  0.3249 -0.5790
  154SAPE  H14R17063   7.241   2.684   6.177 -1.2043  1.0357 -0.2624
  154SAPE  C21517064   7.329   2.713   5.983  0.0337 -0.2498  0.1558
  154SAPE  H15R17065   7.358   2.607   5.979 -2.2084 -0.9392  0.5079
  154SAPE  C21617066   7.361   2.797   5.872  0.3504 -0.7545  0.6315
  154SAPE  H16R17067   7.466   2.831   5.877  0.5635 -1.0680 -1.0201
  154SAPE  H16S17068   7.299   2.889   5.867  0.5691 -0.5359  1.7693
  154SAPE  C21717069   7.352   2.726   5.733 -1.0132 -0.0874 -0.5493
  154SAPE  H17R17070   7.260   2.664   5.732 -0.4887 -0.8894 -1.5536
  154SAPE  H17S17071   7.439   2.657   5.742 -0.6956  0.3602 -0.1642
  154SAPE  C21817072   7.375   2.810   5.607 -0.2211  0.0317  0.2851
  154SAPE  H18R17073   7.473   2.861   5.617 -0.2468 -0.1178  1.3931
  154SAPE  H18S17074   7.292   2.883   5.601 -0.2980 -0.1704 -2.9251
  154SAPE  C21917075   7.366   2.728   5.478 -0.2115  0.0206  0.0970
  154SAPE  H19R17076   7.272   2.668   5.470  0.8286 -1.4712 -1.9818
  154SAPE  H19S17077   7.463   2.675   5.471  0.3726  0.9094  1.2675
  154SAPE  C22017078   7.375   2.811   5.345 -0.3785 -0.0061  0.5211
  154SAPE  H20R17079   7.479   2.845   5.324 -0.8405  0.8986 -0.3761
  154SAPE  H20S17080   7.319   2.907   5.351 -1.9144 -0.8733  0.6754
  154SAPE  H20T17081   7.343   2.754   5.255 -2.3078  1.8657 -0.0684
  154SAPE   C3317082   6.815   2.397   6.131 -0.2338  0.0833  0.3205
  154SAPE   H3X17083   6.752   2.383   6.040  1.1298  2.7731 -1.1712
  154SAPE   H3Y17084   6.827   2.300   6.183  1.0036 -0.5385 -1.0234
  154SAPE   C3417085   6.951   2.455   6.087  0.1025  0.3348 -0.9583
  154SAPE   H4X17086   7.040   2.447   6.153  1.9210  1.9696 -3.0579
  154SAPE   H4Y17087   6.942   2.565   6.075  0.6069  0.4758 -0.1041
  154SAPE   C3517088   6.989   2.393   5.953 -0.2943 -0.0910  0.0997
  154SAPE   H5X17089   6.939   2.297   5.929 -1.2673  0.2182  0.8017
  154SAPE   H5Y17090   7.097   2.372   5.960 -0.2244  0.6360  1.6527
  154SAPE   C3617091   6.968   2.484   5.827 -0.1223 -0.2548 -0.5371
  154SAPE   H6X17092   7.041   2.567   5.812 -0.8929  0.0386 -3.0723
  154SAPE   H6Y17093   6.871   2.530   5.853  0.1186  0.6601 -1.1975
  154SAPE   C3717094   6.950   2.405   5.696 -0.3471 -0.2894  0.2806
  154SAPE   H7X17095   6.880   2.320   5.712  1.8596 -2.1432  0.5916
  154SAPE   H7Y17096   7.046   2.357   5.669  0.0811  1.0172 -0.6688
  154SAPE   C3817097   6.908   2.490   5.580  0.0826 -0.2920  0.1436
  154SAPE   H8X17098   6.968   2.582   5.597 -1.7310  0.5220  2.7761
  154SAPE   H8Y17099   6.801   2.521   5.575  0.4611  1.0653  0.1106
  154SAPE   C3917100   6.943   2.425   5.447  0.1290  0.6567 -0.4754
  154SAPE   H9X17101   6.871   2.347   5.415  1.2316 -0.1117 -1.1047
  154SAPE   H9Y17102   7.039   2.372   5.462  0.1465 -0.2910 -3.3926
  154SAPE  C31017103   6.953   2.528   5.332  0.1068  0.1621 -0.3304
  154SAPE  H10X17104   7.024   2.608   5.362  2.5166 -1.7833 -0.5025
  154SAPE  H10Y17105   6.853   2.564   5.302 -1.0584 -1.9105  0.7906
  154SAPE  C31117106   7.013   2.454   5.209  0.5710  0.0537  0.5354
  154SAPE  H11X17107   6.935   2.378   5.187  0.9393  0.0138 -0.6838
  154SAPE  H11Y17108   7.098   2.394   5.248 -0.2712 -0.4227  1.7201
  154SAPE  C31217109   7.030   2.556   5.092  0.3818  0.3696 -1.0327
  154SAPE  H12X17110   6.944   2.625   5.078  0.1515  0.1147 -0.8881
  154SAPE  H12Y17111   7.032   2.491   5.001 -0.9462 -1.2924  0.0795
  154SAPE  C31317112   7.164   2.633   5.095  0.2118 -0.5393 -0.7711
  154SAPE  H13X17113   7.241   2.568   5.141 -0.0376 -0.3171 -0.0359
  154SAPE  H13Y17114   7.156   2.725   5.155 -0.5312  1.1080 -3.2221
  154SAPE  C31417115   7.213   2.683   4.957  0.3591  0.2274  0.3899
  154SAPE  H14X17116   7.127   2.732   4.906 -0.4531  0.7234  2.1348
  154SAPE  H14Y17117   7.229   2.592   4.896 -1.8082 -0.8655  1.3471
  154SAPE  C31517118   7.328   2.781   4.970 -0.5370 -0.0278  0.2794
  154SAPE  H15X17119   7.318   2.850   5.056  0.1545 -0.0102  0.3564
  154SAPE  H15Y17120   7.316   2.844   4.879 -0.5211 -1.0231 -0.4232
  154SAPE  C31617121   7.461   2.701   4.955 -0.1413 -0.1345  0.1633
  154SAPE  H16X17122   7.458   2.635   4.866  1.4389  1.8512 -1.4797
  154SAPE  H16Y17123   7.476   2.642   5.048  0.5859  1.1064  0.8635
  154SAPE  C31717124   7.588   2.786   4.956  0.8745  0.1810 -0.1613
  154SAPE  H17X17125   7.594   2.852   4.867  1.3997 -0.4275 -0.5889
  154SAPE  H17Y17126   7.676   2.719   4.952  1.5886  1.1379 -0.9193
  154SAPE  C31817127   7.607   2.869   5.076 -0.3075 -1.1107 -0.3744
  154SAPE  H18X17128   7.681   2.950   5.057 -2.9561  1.3654 -0.7548
  154SAPE  H18Y17129   7.627   2.801   5.161 -1.1965 -1.4627 -0.4374
  154SAPE  H18Z17130   7.514   2.922   5.105  0.9452  2.0979 -1.7544
  155SAPE     N17131   1.665   2.457   6.547  0.0769  0.0612 -0.2455
  155SAPE   HN117132   1.741   2.397   6.585  1.3624  3.0684  2.3980
  155SAPE   HN217133   1.652   2.526   6.624 -3.0891  0.7881 -1.2481
  155SAPE   HN317134   1.581   2.395   6.550  1.0300 -1.2391  0.2569
  155SAPE   C1217135   1.717   2.516   6.418  0.6095 -0.1814  0.0884
  155SAPE  H12A17136   1.691   2.624   6.418  1.7543  0.1283  1.0976
  155SAPE  H12B17137   1.655   2.465   6.342 -0.3163 -0.2464  0.8555
  155SAPE   C1117138   1.861   2.485   6.399 -0.2797  0.0150  0.0734
  155SAPE  H11A17139   1.924   2.534   6.476 -1.4891 -1.1103  1.8604
  155SAPE  H11B17140   1.889   2.524   6.299  1.9122 -0.2919  0.5193
  155SAPE     P17141   1.996   2.275   6.349  0.4090 -0.0049 -0.5901
  155SAPE   O1317142   2.111   2.368   6.374  0.5162  0.4304  1.0110
  155SAPE   O1417143   2.006   2.136   6.402  0.4048  0.4091 -0.5002
  155SAPE   O1217144   1.868   2.344   6.406  0.1056  0.7025 -0.4128
  155SAPE   O1117145   1.966   2.278   6.189  0.5768  0.3651 -0.1924
  155SAPE    C117146   1.838   2.225   6.148 -0.0381 -0.3443  0.1519
  155SAPE    HA17147   1.839   2.115   6.162  0.6189 -0.3367  0.2145
  155SAPE    HB17148   1.758   2.275   6.206 -1.2366  0.8061 -2.3525
  155SAPE    C217149   1.820   2.259   5.999  0.1229  0.3238  0.3784
  155SAPE    HS17150   1.716   2.227   5.977  0.2619 -0.7169  1.1824
  155SAPE   O2117151   1.914   2.180   5.924 -0.0106  0.1499  0.5474
  155SAPE   C2117152   1.905   2.052   5.920  0.0070  0.4300 -0.1146
  155SAPE   O2217153   1.817   1.979   5.973  0.2838  0.3300  0.1629
  155SAPE   C2217154   2.010   1.990   5.820  0.2807  0.5193 -0.5190
  155SAPE   H2R17155   2.089   2.065   5.799 -2.0430  2.9964 -1.1124
  155SAPE   H2S17156   2.050   1.901   5.873 -2.7597 -1.5721 -1.4398
  155SAPE    C317157   1.823   2.405   5.974  0.6868  0.3324  0.3014
  155SAPE    HX17158   1.917   2.459   6.000  1.4402 -0.5849 -0.4074
  155SAPE    HY17159   1.752   2.454   6.044 -0.7083 -1.6573  0.3573
  155SAPE   O3117160   1.794   2.452   5.840 -0.1049  0.4083 -0.2484
  155SAPE   C3117161   1.894   2.447   5.759  0.1851 -0.1932 -0.2983
  155SAPE   O3217162   2.010   2.421   5.789  0.3427  0.0867  0.0121
  155SAPE   C3217163   1.839   2.492   5.630  0.8663  0.2809  0.1944
  155SAPE   H2X17164   1.770   2.575   5.658  1.5609  0.1321  2.5073
  155SAPE   H2Y17165   1.784   2.408   5.582  1.9125 -1.0076  1.1774
  155SAPE   C2317166   1.941   1.940   5.695 -0.1163  0.2198 -0.1401
  155SAPE   H3R17167   1.866   1.862   5.719  2.3729 -0.9607  5.6621
  155SAPE   H3S17168   2.016   1.890   5.630  1.6056  0.6948  1.3825
  155SAPE   C2417169   1.888   2.049   5.603  0.7748  0.0541 -0.4831
  155SAPE   H4R17170   1.828   2.111   5.673  2.8721  0.4422  1.0824
  155SAPE   H4S17171   1.816   2.014   5.526  0.5413  0.0374 -0.2587
  155SAPE   C2517172   1.993   2.151   5.556  0.1040  0.2149 -0.8160
  155SAPE   H5R17173   2.035   2.206   5.641 -0.6840  0.0714 -0.3295
  155SAPE   C2617174   2.030   2.191   5.430  0.2530 -0.0158  0.6111
  155SAPE   H6R17175   2.103   2.271   5.413 -0.8939  0.7862 -0.7797
  155SAPE   C2717176   1.970   2.132   5.308  0.1915 -0.0975 -0.1629
  155SAPE   H7R17177   1.865   2.098   5.317  0.4584 -0.7684  0.4391
  155SAPE   H7S17178   2.031   2.040   5.296  1.3587  0.6721 -0.2812
  155SAPE   C2817179   1.974   2.225   5.193  0.2540  0.0948  0.0215
  155SAPE   H8R17180   2.014   2.323   5.222 -1.7191  0.2401  2.5897
  155SAPE   C2917181   1.953   2.185   5.063 -0.1156  0.4970  0.3450
  155SAPE   H9R17182   1.960   2.254   4.978 -0.5243 -1.4139 -1.3039
  155SAPE  C21017183   1.914   2.043   5.024  0.1783 -0.0370 -0.1487
  155SAPE  H10R17184   2.003   1.988   5.061  0.1492  0.9247  1.4570
  155SAPE  H10S17185   1.926   2.031   4.914 -0.0239 -0.4336 -0.1267
  155SAPE  C21117186   1.789   1.969   5.060 -0.3580  0.1362 -0.3183
  155SAPE  H11R17187   1.695   2.024   5.074 -1.2105 -1.6007  1.3160
  155SAPE  C21217188   1.779   1.830   5.061 -0.4894  1.1119 -0.0802
  155SAPE  H12R17189   1.684   1.780   5.085  0.1364 -0.0640 -0.0041
  155SAPE  C21317190   1.888   1.737   5.014  0.0981  0.1542  0.2780
  155SAPE  H13R17191   1.960   1.787   4.946  0.4031 -1.1103 -0.3551
  155SAPE  H13S17192   1.840   1.668   4.941  1.3131  0.8295 -1.2122
  155SAPE  C21417193   1.949   1.661   5.124 -0.1009  0.8709  0.2745
  155SAPE  H14R17194   1.975   1.715   5.216 -0.1014 -1.2962  1.6153
  155SAPE  C21517195   2.001   1.537   5.115 -0.2500 -0.7119  0.4077
  155SAPE  H15R17196   2.044   1.494   5.207  1.6777 -2.4999 -1.2099
  155SAPE  C21617197   1.988   1.443   5.002  0.6237  0.1128  0.1448
  155SAPE  H16R17198   2.085   1.391   4.988  1.4247  1.1016  1.8427
  155SAPE  H16S17199   1.965   1.499   4.908  1.8054  1.4973  0.6468
  155SAPE  C21717200   1.893   1.316   5.034 -0.1777 -0.4778  0.0602
  155SAPE  H17R17201   1.876   1.267   4.936  0.8003 -0.8704  0.0744
  155SAPE  H17S17202   1.793   1.361   5.051  1.0161  2.6895 -0.5154
  155SAPE  C21817203   1.926   1.209   5.134 -1.2025 -0.8299  0.2176
  155SAPE  H18R17204   1.937   1.259   5.232  2.6294  0.4431 -0.7127
  155SAPE  H18S17205   2.025   1.159   5.125 -0.8477  0.2136 -2.4180
  155SAPE  C21917206   1.830   1.095   5.147  0.7470  0.5981  0.1344
  155SAPE  H19R17207   1.746   1.134   5.209 -0.4890 -0.9326 -0.5110
  155SAPE  H19S17208   1.880   1.021   5.214 -1.2362 -0.0791  0.9615
  155SAPE  C22017209   1.769   1.029   5.029  0.1761  0.6031 -0.2666
  155SAPE  H20R17210   1.724   0.935   5.067  2.4784  0.0934  1.4410
  155SAPE  H20S17211   1.848   1.009   4.953  0.6919  6.5042 -1.7018
  155SAPE  H20T17212   1.696   1.098   4.982 -0.2018  0.6527  0.3867
  155SAPE   C3317213   1.958   2.545   5.540 -0.6751  0.2548  0.0406
  155SAPE   H3X17214   2.020   2.460   5.504  0.5241  1.5949 -1.1991
  155SAPE   H3Y17215   2.024   2.622   5.585  0.1144 -1.6674  2.4090
  155SAPE   C3417216   1.900   2.610   5.406 -0.2409  0.6030 -0.1664
  155SAPE   H4X17217   1.816   2.675   5.442 -0.5547 -0.7770  1.7788
  155SAPE   H4Y17218   1.850   2.527   5.351  1.1749  0.0642 -0.6640
  155SAPE   C3517219   2.006   2.672   5.320  0.5815 -0.8276 -0.1982
  155SAPE   H5X17220   2.088   2.599   5.337 -0.4328 -1.7435  0.9525
  155SAPE   H5Y17221   2.043   2.767   5.365  2.5723 -1.6363 -0.0526
  155SAPE   C3617222   1.971   2.693   5.171  0.9844 -0.3502 -0.5988
  155SAPE   H6X17223   1.892   2.770   5.167 -0.0409 -1.2968  0.5399
  155SAPE   H6Y17224   1.938   2.596   5.129 -0.2098 -0.7361  1.1478
  155SAPE   C3717225   2.091   2.743   5.096 -0.3507  0.1874 -0.0747
  155SAPE   H7X17226   2.177   2.674   5.112  0.3220  0.0660 -3.3952
  155SAPE   H7Y17227   2.108   2.836   5.154  2.4834 -0.1992 -0.1254
  155SAPE   C3817228   2.073   2.759   4.940  0.3984  0.1440  0.8083
  155SAPE   H8X17229   2.055   2.659   4.896  2.7012 -0.1316  0.3742
  155SAPE   H8Y17230   2.171   2.794   4.900 -0.5490  1.8273 -0.1541
  155SAPE   C3917231   1.976   2.878   4.903 -0.9936 -0.2331 -1.1496
  155SAPE   H9X17232   2.026   2.970   4.941 -0.7720 -1.3108  1.4008
  155SAPE   H9Y17233   1.878   2.871   4.954 -1.3678  4.4850 -0.7676
  155SAPE  C31017234   1.951   2.893   4.748  0.2282 -0.2208  0.5877
  155SAPE  H10X17235   1.876   2.975   4.746  0.8600  0.3660  0.4240
  155SAPE  H10Y17236   1.900   2.800   4.716  0.8806 -0.4097  0.0649
  155SAPE  C31117237   2.076   2.932   4.670 -0.0506  0.1222 -0.5728
  155SAPE  H11X17238   2.155   2.859   4.698 -2.8542 -2.9844 -0.1156
  155SAPE  H11Y17239   2.097   3.030   4.719  1.8318 -0.9267  0.8670
  155SAPE  C31217240   2.069   2.936   4.523  0.2988  0.7296  0.4385
  155SAPE  H12X17241   1.972   2.980   4.490  0.2519  0.6790  0.5086
  155SAPE  H12Y17242   2.074   2.835   4.477 -1.7974  0.9753 -0.4147
  155SAPE  C31317243   2.184   3.014   4.462  0.4484 -0.0871  0.1140
  155SAPE  H13X17244   2.195   2.974   4.359  0.9025  0.3713 -0.0191
  155SAPE  H13Y17245   2.282   2.996   4.513  0.2806  0.1253  0.5137
  155SAPE  C31417246   2.153   3.163   4.465  0.1253  0.4888  0.2939
  155SAPE  H14X17247   2.085   3.191   4.548  1.8550  0.8890  1.6370
  155SAPE  H14Y17248   2.100   3.186   4.370  2.9431 -0.4119 -1.6359
  155SAPE  C31517249   2.269   3.267   4.487  0.2014  0.0942 -0.1426
  155SAPE  H15X17250   2.355   3.245   4.419  0.6885  2.5391 -0.4114
  155SAPE  H15Y17251   2.310   3.248   4.588 -0.4091 -1.7066 -0.1973
  155SAPE  C31617252   2.220   3.405   4.475 -0.2967 -0.1301 -0.1911
  155SAPE  H16X17253   2.126   3.407   4.535 -0.4695 -4.1906 -0.0643
  155SAPE  H16Y17254   2.182   3.429   4.373 -2.2712 -0.6874  0.3664
  155SAPE  C31717255   2.328   3.498   4.526 -0.1366 -0.8430  0.2090
  155SAPE  H17X17256   2.322   3.601   4.486  1.2747 -0.7134  0.3066
  155SAPE  H17Y17257   2.426   3.452   4.504  0.1940  0.3910 -1.0051
  155SAPE  C31817258   2.335   3.525   4.678 -0.6610  0.1648  0.2722
  155SAPE  H18X17259   2.242   3.578   4.710 -1.1765  0.1480 -1.1499
  155SAPE  H18Y17260   2.419   3.584   4.721 -0.2307  0.8466 -1.4577
  155SAPE  H18Z17261   2.327   3.430   4.736 -0.9128  0.5732  0.9311
  156SAPE     N17262   2.580   5.609   6.875 -0.1554 -0.2019  0.0017
  156SAPE   HN117263   2.608   5.695   6.925 -2.6682  1.9537 -2.0312
  156SAPE   HN217264   2.478   5.612   6.854 -0.0534  1.2486 -0.4097
  156SAPE   HN317265   2.596   5.525   6.934  0.3188  0.0663  0.2532
  156SAPE   C1217266   2.663   5.606   6.750 -0.1360  0.2429  0.1138
  156SAPE  H12A17267   2.641   5.702   6.697 -0.7231 -0.2824 -0.6131
  156SAPE  H12B17268   2.633   5.522   6.684  2.7146  0.5375 -1.7694
  156SAPE   C1117269   2.814   5.593   6.790 -0.6774  0.6375 -0.1344
  156SAPE  H11A17270   2.877   5.598   6.699  0.4072 -1.8914  0.3951
  156SAPE  H11B17271   2.814   5.493   6.838 -1.8361  0.2064 -0.9629
  156SAPE     P17272   2.988   5.667   6.971 -0.3718  0.2060  0.1537
  156SAPE   O1317273   2.981   5.724   7.111 -0.3518  0.6560  0.4061
  156SAPE   O1417274   3.025   5.524   6.955  0.6743 -0.2939  0.4797
  156SAPE   O1217275   2.860   5.689   6.882  0.1100 -0.8917 -0.5253
  156SAPE   O1117276   3.095   5.745   6.892  1.0633 -0.4191  0.6253
  156SAPE    C117277   3.091   5.887   6.870 -0.2903 -0.2665  0.0216
  156SAPE    HA17278   3.043   5.950   6.948  0.1860  1.1683 -0.8094
  156SAPE    HB17279   3.194   5.926   6.875 -0.7495  1.1799 -1.2584
  156SAPE    C217280   3.028   5.916   6.738 -0.1420 -0.6628 -0.0394
  156SAPE    HS17281   2.922   5.888   6.752 -0.9775  3.0744  2.3397
  156SAPE   O2117282   3.089   5.840   6.633  0.3171 -0.8437  0.0700
  156SAPE   C2117283   3.003   5.797   6.540  0.5175 -0.2028 -0.1811
  156SAPE   O2217284   2.879   5.818   6.543  0.2627 -0.4018 -0.1190
  156SAPE   C2217285   3.077   5.715   6.435  0.1457 -0.2918 -0.9186
  156SAPE   H2R17286   3.078   5.765   6.335 -0.3356  0.7281 -0.4255
  156SAPE   H2S17287   3.182   5.721   6.471 -0.3420 -0.3685  0.5510
  156SAPE    C317288   3.015   6.066   6.708  0.3978 -0.0066 -0.6804
  156SAPE    HX17289   2.965   6.119   6.792 -1.1225 -2.1640 -0.1665
  156SAPE    HY17290   2.947   6.094   6.625  0.0528  1.6097  0.0895
  156SAPE   O3117291   3.153   6.122   6.683 -0.4536 -0.3566  0.6165
  156SAPE   C3117292   3.186   6.115   6.549 -0.6829 -0.5090 -0.1204
  156SAPE   O3217293   3.107   6.067   6.465 -0.1428 -0.2900 -0.0494
  156SAPE   C3217294   3.327   6.155   6.525  0.5882 -0.7830 -0.6438
  156SAPE   H2X17295   3.397   6.094   6.587  1.6962 -0.4330 -1.5152
  156SAPE   H2Y17296   3.338   6.260   6.560  2.5697 -2.0094  3.0324
  156SAPE   C2317297   3.014   5.574   6.418 -0.6530  0.1623 -0.5052
  156SAPE   H3R17298   2.976   5.524   6.510  3.2169 -3.1001 -0.3899
  156SAPE   H3S17299   3.083   5.498   6.375 -0.1296 -0.3015  1.0880
  156SAPE   C2417300   2.893   5.579   6.323  0.3146 -0.2766  0.7593
  156SAPE   H4R17301   2.926   5.618   6.224 -3.2171 -0.8617 -0.8208
  156SAPE   H4S17302   2.825   5.661   6.353  2.3899  0.7619  2.8667
  156SAPE   C2517303   2.821   5.452   6.309 -0.6344  0.0558 -0.4737
  156SAPE   H5R17304   2.788   5.411   6.406  1.3317 -0.6681 -0.0712
  156SAPE   C2617305   2.819   5.372   6.197 -0.0850  0.0454 -0.5189
  156SAPE   H6R17306   2.758   5.281   6.187  0.5811 -0.5284  0.5265
  156SAPE   C2717307   2.880   5.417   6.059  0.3053  0.3139 -0.4458
  156SAPE   H7R17308   2.942   5.331   6.027  1.4916  1.2771 -0.8180
  156SAPE   H7S17309   2.955   5.498   6.068 -0.1696  0.6714  0.3823
  156SAPE   C2817310   2.768   5.441   5.956 -0.2739  0.3001  0.0705
  156SAPE   H8R17311   2.669   5.455   6.002 -0.3511 -1.9905  0.7381
  156SAPE   C2917312   2.769   5.428   5.823  0.0252  0.1740  0.0677
  156SAPE   H9R17313   2.679   5.441   5.760 -0.8460 -1.2025  0.9644
  156SAPE  C21017314   2.891   5.388   5.742 -0.4053  0.1483 -0.6691
  156SAPE  H10R17315   2.869   5.284   5.710 -0.6608  0.5890 -2.0148
  156SAPE  H10S17316   2.987   5.390   5.797 -0.3446  0.9427 -0.7929
  156SAPE  C21117317   2.895   5.484   5.620 -0.4436 -0.1053 -0.2606
  156SAPE  H11R17318   2.905   5.585   5.661  0.4582 -0.4654  0.4508
  156SAPE  C21217319   2.850   5.464   5.492 -0.5092  0.5239 -0.1828
  156SAPE  H12R17320   2.875   5.540   5.416  0.4455  1.4545  1.0213
  156SAPE  C21317321   2.798   5.333   5.435  0.1839 -0.4372  0.6831
  156SAPE  H13R17322   2.721   5.301   5.509 -1.2454 -0.0641 -0.5878
  156SAPE  H13S17323   2.879   5.258   5.443  0.7456 -0.2703 -2.3713
  156SAPE  C21417324   2.746   5.344   5.292  0.2793  0.1912  0.1171
  156SAPE  H14R17325   2.637   5.342   5.282  0.3000 -1.0326  0.0347
  156SAPE  C21517326   2.819   5.348   5.181  0.6953  0.6611  0.9381
  156SAPE  H15R17327   2.762   5.342   5.087  1.8417 -2.2783  0.3061
  156SAPE  C21617328   2.966   5.318   5.161 -0.4715 -0.5027  0.4499
  156SAPE  H16R17329   3.026   5.335   5.253  1.2903 -1.8512 -0.3961
  156SAPE  H16S17330   2.997   5.390   5.082  0.6221  0.2433  1.5239
  156SAPE  C21717331   3.007   5.179   5.116 -0.4293  0.0314  0.0967
  156SAPE  H17R17332   2.988   5.101   5.192  0.6125 -1.3052 -0.9558
  156SAPE  H17S17333   3.118   5.185   5.108 -0.4873  1.2885  0.0137
  156SAPE  C21817334   2.932   5.140   4.988  0.0949  0.6041 -0.4739
  156SAPE  H18R17335   2.922   5.226   4.918  0.0260  1.9027  1.0737
  156SAPE  H18S17336   2.833   5.107   5.025 -0.0339 -0.5820 -1.8159
  156SAPE  C21917337   2.997   5.013   4.926  0.0571 -0.7458  0.0872
  156SAPE  H19R17338   3.019   4.942   5.008 -0.7327  0.4416  1.3861
  156SAPE  H19S17339   3.089   5.052   4.878 -0.0625 -1.7870 -1.0452
  156SAPE  C22017340   2.906   4.933   4.834  0.0275 -0.6419 -0.0452
  156SAPE  H20R17341   2.972   4.856   4.788  1.0165 -0.8338  1.6275
  156SAPE  H20S17342   2.870   4.997   4.751  2.7656 -0.0520 -0.9010
  156SAPE  H20T17343   2.816   4.903   4.891  0.4057 -0.5710  0.6028
  156SAPE   C3317344   3.372   6.147   6.378  0.1793 -0.3795  0.0181
  156SAPE   H3X17345   3.464   6.210   6.385 -0.2798  0.1492  2.5288
  156SAPE   H3Y17346   3.298   6.197   6.312 -1.6362 -1.4462  1.1647
  156SAPE   C3417347   3.412   6.004   6.343  0.3399 -0.8359 -0.2029
  156SAPE   H4X17348   3.315   5.953   6.325 -2.1537  2.9893  1.3411
  156SAPE   H4Y17349   3.473   5.959   6.425 -1.2108  0.7783  1.9574
  156SAPE   C3517350   3.489   5.997   6.208  0.1969  1.0700  0.2625
  156SAPE   H5X17351   3.530   5.894   6.218 -3.5801 -0.4636  1.5670
  156SAPE   H5Y17352   3.581   6.059   6.223  0.9611 -0.3321  1.8027
  156SAPE   C3617353   3.408   6.018   6.089 -0.0070 -0.3100 -0.1692
  156SAPE   H6X17354   3.366   6.121   6.087  2.3449  0.7594  1.3338
  156SAPE   H6Y17355   3.326   5.944   6.075  0.3130 -1.1165  1.8289
  156SAPE   C3717356   3.496   6.017   5.961 -0.1026  0.1063 -0.1786
  156SAPE   H7X17357   3.570   5.934   5.954 -0.8279 -0.4920 -0.9711
  156SAPE   H7Y17358   3.555   6.112   5.957 -0.5223  0.3437 -3.1100
  156SAPE   C3817359   3.421   6.015   5.818  0.1025  0.2089 -0.3754
  156SAPE   H8X17360   3.353   6.103   5.819 -1.6203 -1.0308 -1.9950
  156SAPE   H8Y17361   3.366   5.919   5.814 -0.3325  0.3194  1.6292
  156SAPE   C3917362   3.510   6.044   5.696 -0.3245  1.0975 -0.8240
  156SAPE   H9X17363   3.593   5.970   5.700 -0.1998  1.1870 -1.5835
  156SAPE   H9Y17364   3.560   6.143   5.697  0.7382  0.5696  0.0184
  156SAPE  C31017365   3.434   6.028   5.563  0.1863  0.1090  0.7851
  156SAPE  H10X17366   3.350   6.100   5.550  1.0810  0.5800 -3.9838
  156SAPE  H10Y17367   3.384   5.929   5.556 -1.8946  1.0883  1.0516
  156SAPE  C31117368   3.527   6.041   5.440 -0.7130 -0.1268 -0.0767
  156SAPE  H11X17369   3.618   5.980   5.458 -1.0172 -0.2789  1.0127
  156SAPE  H11Y17370   3.557   6.148   5.435 -0.1383 -0.0969  2.4502
  156SAPE  C31217371   3.460   5.999   5.309  0.0061 -0.9142 -0.7986
  156SAPE  H12X17372   3.373   6.065   5.290  2.1669  2.2577 -0.5184
  156SAPE  H12Y17373   3.432   5.893   5.320  1.4891 -1.2673 -0.2106
  156SAPE  C31317374   3.550   6.008   5.183  0.0393  0.3701  0.8218
  156SAPE  H13X17375   3.641   5.946   5.190  0.3654  0.7293 -0.1079
  156SAPE  H13Y17376   3.596   6.109   5.180  0.0182  0.3586 -1.2844
  156SAPE  C31417377   3.478   5.967   5.053  0.1916  0.0726 -0.0849
  156SAPE  H14X17378   3.376   6.010   5.058 -1.1109 -2.8249  0.4035
  156SAPE  H14Y17379   3.476   5.856   5.048  1.7255  0.0334 -0.6276
  156SAPE  C31517380   3.558   5.993   4.931  0.0318 -0.3029 -0.2122
  156SAPE  H15X17381   3.661   5.957   4.950  1.0458  2.1622 -0.7022
  156SAPE  H15Y17382   3.567   6.104   4.933  2.4212 -0.4597  0.2676
  156SAPE  C31617383   3.508   5.926   4.798  0.8537 -0.4372 -0.6394
  156SAPE  H16X17384   3.564   5.981   4.720  1.6188  0.7776  0.7138
  156SAPE  H16Y17385   3.405   5.965   4.783 -0.3471 -3.2093 -0.1582
  156SAPE  C31717386   3.515   5.773   4.792  0.6370  0.5834  0.1096
  156SAPE  H17X17387   3.476   5.729   4.887 -1.5421 -0.6080 -1.2603
  156SAPE  H17Y17388   3.618   5.733   4.776  0.3200  0.2703 -1.2474
  156SAPE  C31817389   3.422   5.722   4.678  0.0644 -0.1256 -0.1937
  156SAPE  H18X17390   3.419   5.611   4.682 -0.0595 -0.0832  2.1844
  156SAPE  H18Y17391   3.446   5.760   4.576  1.1025 -1.7568 -0.5963
  156SAPE  H18Z17392   3.321   5.766   4.694  0.2789  0.5593 -0.6607
  157SAPE     N17393   3.112   0.627   7.011  0.0472 -0.2748 -0.4959
  157SAPE   HN117394   3.087   0.533   6.974 -2.2969  0.2993 -0.4925
  157SAPE   HN217395   3.211   0.632   7.043  0.1255  0.3290 -0.8168
  157SAPE   HN317396   3.050   0.646   7.091 -0.5117 -0.0444 -0.9770
  157SAPE   C1217397   3.095   0.736   6.902  0.5149  0.3050  0.5067
  157SAPE  H12A17398   3.122   0.831   6.953 -0.0439  0.1814  1.0454
  157SAPE  H12B17399   2.987   0.733   6.876  0.3275 -0.5133  1.3192
  157SAPE   C1117400   3.177   0.713   6.780 -0.0203 -0.2471  0.2274
  157SAPE  H11A17401   3.286   0.726   6.795  0.3896 -1.6802 -1.2942
  157SAPE  H11B17402   3.157   0.799   6.713  1.5167 -0.3132 -0.3325
  157SAPE     P17403   3.194   0.541   6.595  0.2554  0.0254  0.2682
  157SAPE   O1317404   3.342   0.536   6.612  0.1548 -0.3329 -0.2126
  157SAPE   O1417405   3.122   0.415   6.556 -0.5533 -0.3809 -0.1891
  157SAPE   O1217406   3.133   0.586   6.727 -0.5545  0.2045 -0.4717
  157SAPE   O1117407   3.157   0.660   6.496  0.3869  0.9713  0.0116
  157SAPE    C117408   3.022   0.700   6.484  0.0037  0.1139  0.4812
  157SAPE    HA17409   2.967   0.680   6.578  2.0027 -0.6430  1.5420
  157SAPE    HB17410   3.028   0.811   6.478  0.8223  0.0205 -0.8479
  157SAPE    C217411   2.958   0.656   6.342  0.2175  0.1966  0.6608
  157SAPE    HS17412   2.943   0.547   6.356 -1.3067  0.3570  0.5069
  157SAPE   O2117413   3.054   0.693   6.240 -0.2355 -0.3179 -0.0609
  157SAPE   C2117414   3.131   0.596   6.212 -0.4263  0.0734 -0.5209
  157SAPE   O2217415   3.116   0.479   6.236  0.1261 -0.7550  0.0508
  157SAPE   C2217416   3.248   0.654   6.136 -0.1725  0.0925 -0.9117
  157SAPE   H2R17417   3.215   0.728   6.060 -0.7668  1.6938  0.8322
  157SAPE   H2S17418   3.307   0.707   6.214 -0.8490 -0.9961  0.3764
  157SAPE    C317419   2.821   0.726   6.304 -0.5114  0.6722  0.2340
  157SAPE    HX17420   2.855   0.832   6.305  3.5902 -0.4686  1.7710
  157SAPE    HY17421   2.748   0.696   6.382  0.8921 -0.0565  1.3030
  157SAPE   O3117422   2.791   0.683   6.166  0.0850 -0.2102  0.2894
  157SAPE   C3117423   2.717   0.761   6.092  0.4556 -0.9338  0.2515
  157SAPE   O3217424   2.645   0.848   6.141 -0.3059 -0.2199  0.0748
  157SAPE   C3217425   2.740   0.726   5.941 -0.3201  0.3755  0.0379
  157SAPE   H2X17426   2.645   0.758   5.892 -0.7934 -0.0408  0.6610
  157SAPE   H2Y17427   2.748   0.616   5.934 -0.6603  0.2223  1.5585
  157SAPE   C2317428   3.328   0.537   6.069  0.0472  0.0557 -0.0805
  157SAPE   H3R17429   3.270   0.498   5.983  1.8339  0.6225 -1.6208
  157SAPE   H3S17430   3.337   0.453   6.142 -1.3291 -0.0642 -0.0291
  157SAPE   C2417431   3.469   0.583   6.018 -0.1207  0.0971  0.8572
  157SAPE   H4R17432   3.523   0.638   6.098 -2.1612  2.2784  0.8527
  157SAPE   H4S17433   3.445   0.666   5.948 -1.1099 -0.7124  0.2132
  157SAPE   C2517434   3.566   0.473   5.966 -0.5797 -0.5576 -0.4627
  157SAPE   H5R17435   3.595   0.402   6.045  0.7406  1.5688  1.0602
  157SAPE   C2617436   3.613   0.463   5.843  0.1313 -0.2967  0.5160
  157SAPE   H6R17437   3.672   0.375   5.812 -1.1176 -1.2552  0.7538
  157SAPE   C2717438   3.579   0.552   5.732  0.4889 -0.8295 -0.1107
  157SAPE   H7R17439   3.664   0.539   5.662  1.1780 -0.4338  0.6260
  157SAPE   H7S17440   3.580   0.657   5.769 -1.8298 -1.1830  1.1565
  157SAPE   C2817441   3.442   0.538   5.666  0.2047 -1.3627  0.2026
  157SAPE   H8R17442   3.352   0.515   5.725  0.7126 -2.7400  0.4677
  157SAPE   C2917443   3.434   0.531   5.535 -0.0554  0.2564  0.0420
  157SAPE   H9R17444   3.340   0.520   5.479  0.4737  1.4211 -1.1459
  157SAPE  C21017445   3.554   0.518   5.435  0.4192  0.3114 -0.3283
  157SAPE  H10R17446   3.507   0.490   5.338 -0.6013 -0.2542  0.3102
  157SAPE  H10S17447   3.616   0.432   5.468 -0.4677  0.3038  1.4319
  157SAPE  C21117448   3.637   0.642   5.412  0.2379 -0.7137 -0.1975
  157SAPE  H11R17449   3.617   0.726   5.480  2.0789 -0.0674 -0.4052
  157SAPE  C21217450   3.747   0.647   5.330 -0.5361 -0.8850  0.7825
  157SAPE  H12R17451   3.789   0.745   5.305 -1.9550 -0.7026 -1.0501
  157SAPE  C21317452   3.808   0.538   5.244  0.3490 -0.1803 -0.0782
  157SAPE  H13R17453   3.755   0.443   5.269 -0.6666  0.5291  0.5422
  157SAPE  H13S17454   3.916   0.522   5.260  0.5781  2.2846  1.2835
  157SAPE  C21417455   3.782   0.561   5.095 -0.2650  0.7271 -0.3550
  157SAPE  H14R17456   3.682   0.527   5.063 -0.3172  1.0891 -0.5792
  157SAPE  C21517457   3.868   0.610   5.002  0.6901 -0.8571  0.4796
  157SAPE  H15R17458   3.832   0.623   4.899  2.0852  0.9462  0.1776
  157SAPE  C21617459   4.004   0.668   5.016 -0.0193 -0.4151  0.4698
  157SAPE  H16R17460   4.030   0.680   5.124 -0.9003  1.6206  0.5006
  157SAPE  H16S17461   4.001   0.772   4.977 -0.8681  0.1517  1.9236
  157SAPE  C21717462   4.124   0.597   4.940 -0.1930  0.0164 -0.4379
  157SAPE  H17R17463   4.108   0.580   4.831  3.2956 -1.8250 -0.8073
  157SAPE  H17S17464   4.151   0.499   4.983  3.0184  1.1031  0.2442
  157SAPE  C21817465   4.256   0.682   4.934 -0.5399 -0.3353  0.0339
  157SAPE  H18R17466   4.331   0.624   4.875  0.7251 -0.2961  1.5461
  157SAPE  H18S17467   4.299   0.696   5.035  2.8323 -0.8825 -1.1925
  157SAPE  C21917468   4.247   0.811   4.860 -0.0016 -0.3378  0.8362
  157SAPE  H19R17469   4.201   0.896   4.914  1.7095  0.9639  0.3524
  157SAPE  H19S17470   4.177   0.797   4.775  0.3558  3.0789 -0.2092
  157SAPE  C22017471   4.377   0.857   4.787  0.0659 -0.5606  0.0334
  157SAPE  H20R17472   4.473   0.846   4.842  0.3758 -0.5570 -0.5049
  157SAPE  H20S17473   4.367   0.958   4.742 -0.3899 -0.2873  0.7210
  157SAPE  H20T17474   4.399   0.798   4.696  1.6347 -1.6373  1.0632
  157SAPE   C3317475   2.856   0.806   5.875 -0.4865 -0.3436 -0.2998
  157SAPE   H3X17476   2.868   0.907   5.921  1.0792 -1.4829  2.0003
  157SAPE   H3Y17477   2.822   0.812   5.769  1.8656 -2.3041 -1.2379
  157SAPE   C3417478   2.984   0.723   5.866 -0.2837 -0.3954 -0.5172
  157SAPE   H4X17479   2.966   0.625   5.816 -1.9031  0.3936 -1.5889
  157SAPE   H4Y17480   3.008   0.699   5.971 -1.1534  0.6451 -0.0683
  157SAPE   C3517481   3.096   0.798   5.783  0.1641  0.5093  0.5152
  157SAPE   H5X17482   3.194   0.748   5.798  0.0703 -0.2451 -1.1579
  157SAPE   H5Y17483   3.106   0.905   5.810 -0.8120  0.8061 -0.2396
  157SAPE   C3617484   3.070   0.799   5.626 -0.6183 -0.3269 -0.1757
  157SAPE   H6X17485   2.998   0.881   5.605 -2.7789 -2.2204 -0.5801
  157SAPE   H6Y17486   3.027   0.700   5.597  1.8600 -1.8105  0.8826
  157SAPE   C3717487   3.202   0.830   5.560  0.0184  0.1223 -0.0110
  157SAPE   H7X17488   3.274   0.768   5.617 -1.0334 -1.6679 -0.5564
  157SAPE   H7Y17489   3.220   0.934   5.594  2.1261 -0.2601  0.2025
  157SAPE   C3817490   3.224   0.791   5.416  0.2539 -0.5369  0.0804
  157SAPE   H8X17491   3.134   0.825   5.361  0.0235 -2.6870 -0.9373
  157SAPE   H8Y17492   3.220   0.681   5.404 -3.5692 -0.2930 -2.9064
  157SAPE   C3917493   3.351   0.851   5.359  0.1250  0.0891  0.3500
  157SAPE   H9X17494   3.438   0.816   5.418 -0.7025 -0.1223  1.4942
  157SAPE   H9Y17495   3.356   0.960   5.382 -1.3452  0.2569  0.0174
  157SAPE  C31017496   3.392   0.831   5.216  0.6746 -0.0129 -0.4204
  157SAPE  H10X17497   3.297   0.841   5.161  0.5451 -0.3693 -0.2654
  157SAPE  H10Y17498   3.426   0.725   5.209  1.0049 -0.4047  3.9819
  157SAPE  C31117499   3.500   0.931   5.176  0.4666 -0.3531  0.1918
  157SAPE  H11X17500   3.583   0.906   5.246  0.5983  0.5106  0.3624
  157SAPE  H11Y17501   3.458   1.029   5.205 -1.7581 -0.9705 -0.7824
  157SAPE  C31217502   3.537   0.929   5.026  0.0787  0.0310 -0.4631
  157SAPE  H12X17503   3.454   0.968   4.963  0.4637 -1.4068 -1.9313
  157SAPE  H12Y17504   3.543   0.823   4.992  0.7377 -0.2249  0.4166
  157SAPE  C31317505   3.673   1.009   4.999  0.1284 -0.0587 -0.1338
  157SAPE  H13X17506   3.753   0.972   5.066  0.4751 -0.1638 -0.6003
  157SAPE  H13Y17507   3.668   1.117   5.022  1.6038  0.2405 -1.0958
  157SAPE  C31417508   3.725   0.984   4.855 -0.1244 -0.1193 -0.2795
  157SAPE  H14X17509   3.655   1.026   4.779 -0.2560 -1.1111 -0.7274
  157SAPE  H14Y17510   3.718   0.877   4.824 -0.7544 -0.4991  1.0563
  157SAPE  C31517511   3.866   1.032   4.830 -0.6002  0.0045 -0.3380
  157SAPE  H15X17512   3.937   0.993   4.906 -0.6389  1.0029  0.2366
  157SAPE  H15Y17513   3.873   1.142   4.846 -1.7909  0.0533 -0.0465
  157SAPE  C31617514   3.933   0.979   4.711 -0.5486  0.6013  0.5295
  157SAPE  H16X17515   3.876   0.941   4.624  0.0238  1.0985 -0.0788
  157SAPE  H16Y17516   3.984   0.884   4.738 -0.4861  0.0341 -1.4032
  157SAPE  C31717517   4.056   1.055   4.666 -0.6131  0.2164 -0.0628
  157SAPE  H17X17518   4.122   1.069   4.754  0.1445 -1.6240 -0.3017
  157SAPE  H17Y17519   4.022   1.158   4.643 -0.1943  1.2098  3.2716
  157SAPE  C31817520   4.141   0.992   4.556  0.2178 -0.4479 -0.1256
  157SAPE  H18X17521   4.230   1.056   4.534 -1.9445  2.6381 -0.5933
  157SAPE  H18Y17522   4.088   0.982   4.459  3.3997 -2.6153 -1.7985
  157SAPE  H18Z17523   4.169   0.889   4.586 -0.1419 -0.3638  0.5389
  158SAPE     N17524   5.288   1.391   6.815  0.4634 -0.0940 -0.1378
  158SAPE   HN117525   5.325   1.472   6.869  3.1626  1.6568 -4.1577
  158SAPE   HN217526   5.299   1.313   6.882  1.2953 -1.1583 -1.4631
  158SAPE   HN317527   5.355   1.382   6.736  2.1690  0.8273  1.1298
  158SAPE   C1217528   5.138   1.423   6.780 -0.1408 -0.1958 -0.6941
  158SAPE  H12A17529   5.134   1.513   6.715  1.3397  0.7869  0.5130
  158SAPE  H12B17530   5.087   1.436   6.878  0.3646 -4.5796  0.3587
  158SAPE   C1117531   5.070   1.300   6.715  0.2778  0.0154 -0.3613
  158SAPE  H11A17532   5.140   1.243   6.650  2.2793  1.6573  0.2362
  158SAPE  H11B17533   4.993   1.333   6.642 -0.0905 -0.6576 -0.2834
  158SAPE     P17534   4.997   1.065   6.835 -0.0951  0.4205 -0.1815
  158SAPE   O1317535   5.095   1.041   6.942  0.2265 -0.0028 -0.3236
  158SAPE   O1417536   4.862   1.009   6.848  0.5914  0.4501 -0.1016
  158SAPE   O1217537   4.996   1.223   6.815  0.3452  0.0757 -1.0179
  158SAPE   O1117538   5.061   1.006   6.706  0.5099  0.3585  0.2209
  158SAPE    C117539   5.081   0.864   6.689 -0.3287  0.5469 -0.2943
  158SAPE    HA17540   5.153   0.822   6.763 -2.2023 -0.6200  0.9412
  158SAPE    HB17541   4.985   0.814   6.713  0.2028 -1.1408 -1.4900
  158SAPE    C217542   5.121   0.835   6.545  0.3122  0.6227  0.1731
  158SAPE    HS17543   5.091   0.730   6.522 -0.4506  0.6626  0.9417
  158SAPE   O2117544   5.264   0.857   6.525  0.2353 -0.4362  0.3253
  158SAPE   C2117545   5.336   0.787   6.603  0.0373  0.5444 -0.0051
  158SAPE   O2217546   5.308   0.686   6.666  0.7375 -0.2185  0.6124
  158SAPE   C2217547   5.477   0.843   6.582  0.1179 -0.1788  0.4682
  158SAPE   H2R17548   5.469   0.912   6.495  1.0825 -0.8333 -0.1615
  158SAPE   H2S17549   5.518   0.892   6.674  0.0569  1.6993 -0.4505
  158SAPE    C317550   5.039   0.920   6.438 -0.5640  0.0470  0.3639
  158SAPE    HX17551   5.060   1.028   6.453 -0.8091  0.2182 -0.4257
  158SAPE    HY17552   4.935   0.904   6.475 -0.0733 -3.9705  0.4201
  158SAPE   O3117553   5.063   0.884   6.304  0.0090 -0.0298  0.6330
  158SAPE   C3117554   4.974   0.812   6.238  0.2600 -0.5529 -0.6049
  158SAPE   O3217555   4.881   0.749   6.287  0.6166 -0.3182  0.2021
  158SAPE   C3217556   5.018   0.803   6.090  0.4156 -0.1701 -0.4807
  158SAPE   H2X17557   5.030   0.695   6.066  1.4651 -0.0186 -0.6862
  158SAPE   H2Y17558   5.115   0.858   6.083 -0.0494  0.6873 -0.2848
  158SAPE   C2317559   5.573   0.727   6.545 -0.1221 -0.0878 -0.1975
  158SAPE   H3R17560   5.556   0.653   6.626 -2.6525 -0.0044 -0.5547
  158SAPE   H3S17561   5.676   0.766   6.555  0.4716 -1.4179 -1.0264
  158SAPE   C2417562   5.559   0.663   6.409 -0.0223 -0.0016  0.4153
  158SAPE   H4R17563   5.653   0.611   6.381  0.6657  2.0363 -1.3381
  158SAPE   H4S17564   5.556   0.753   6.344 -1.7520 -0.7632 -0.6233
  158SAPE   C2517565   5.439   0.571   6.382 -0.7179  0.3158  0.3056
  158SAPE   H5R17566   5.427   0.506   6.470  1.1637  0.6528  0.8598
  158SAPE   C2617567   5.354   0.576   6.272 -0.0287  1.0529 -0.2191
  158SAPE   H6R17568   5.286   0.490   6.260  1.9673 -0.8247  1.1996
  158SAPE   C2717569   5.367   0.655   6.146  0.1380 -0.2021  0.0243
  158SAPE   H7R17570   5.395   0.760   6.168 -1.8827  0.5007 -0.4793
  158SAPE   H7S17571   5.276   0.670   6.083  0.5769  1.7736 -0.2202
  158SAPE   C2817572   5.485   0.599   6.068  0.2642 -0.1162 -0.1426
  158SAPE   H8R17573   5.570   0.570   6.132  1.1794  1.1356 -0.7328
  158SAPE   C2917574   5.503   0.597   5.931 -0.1376  0.5515 -0.3111
  158SAPE   H9R17575   5.599   0.565   5.887 -0.2281  3.3908 -2.8593
  158SAPE  C21017576   5.417   0.652   5.825  0.7807 -0.0058 -0.1056
  158SAPE  H10R17577   5.459   0.751   5.797 -0.1721  0.2215 -0.8058
  158SAPE  H10S17578   5.315   0.670   5.866  1.3138 -1.0634  1.8061
  158SAPE  C21117579   5.405   0.576   5.698  0.7575 -0.2288 -0.4872
  158SAPE  H11R17580   5.409   0.467   5.715  1.5541 -0.0894  0.3518
  158SAPE  C21217581   5.410   0.618   5.573  0.2082 -0.1883 -0.4365
  158SAPE  H12R17582   5.406   0.550   5.486 -0.8471 -1.4991  0.5928
  158SAPE  C21317583   5.421   0.759   5.528 -0.3281 -0.0594  0.1503
  158SAPE  H13R17584   5.469   0.770   5.428 -2.3094  0.7577 -0.7432
  158SAPE  H13S17585   5.488   0.810   5.601 -1.1914 -0.3707  1.1746
  158SAPE  C21417586   5.281   0.809   5.524  0.9529 -0.2916 -0.2046
  158SAPE  H14R17587   5.236   0.799   5.624  2.3768 -1.7043  0.3342
  158SAPE  C21517588   5.205   0.881   5.432  0.3567  0.8397 -0.4071
  158SAPE  H15R17589   5.103   0.915   5.456  0.7772  2.1289 -0.3866
  158SAPE  C21617590   5.247   0.906   5.292  0.2158  0.0051 -0.5791
  158SAPE  H16R17591   5.163   0.945   5.231 -0.0886 -1.9217 -1.4694
  158SAPE  H16S17592   5.269   0.809   5.242 -1.2480 -1.1760  0.9947
  158SAPE  C21717593   5.358   1.017   5.272  0.2136  0.0306 -0.2717
  158SAPE  H17R17594   5.441   0.992   5.341 -3.2126 -2.5262  3.4295
  158SAPE  H17S17595   5.313   1.116   5.292 -2.4350 -1.3315  1.1761
  158SAPE  C21817596   5.404   1.020   5.124  0.3316  0.1076 -0.6772
  158SAPE  H18R17597   5.315   1.047   5.063  0.1515 -1.0037 -0.9314
  158SAPE  H18S17598   5.432   0.916   5.095 -0.4433 -0.5695  0.8955
  158SAPE  C21917599   5.532   1.100   5.086 -1.0637 -0.3846 -0.3041
  158SAPE  H19R17600   5.617   1.062   5.146 -1.0450  0.8054  0.4598
  158SAPE  H19S17601   5.521   1.205   5.121 -1.8637 -0.1232 -1.2999
  158SAPE  C22017602   5.553   1.099   4.932 -0.4873  0.4283 -0.0505
  158SAPE  H20R17603   5.555   0.997   4.890  0.8292  0.5434 -0.3035
  158SAPE  H20S17604   5.651   1.143   4.903 -1.5459  2.6906 -0.3948
  158SAPE  H20T17605   5.472   1.155   4.880 -1.4899 -1.7484 -0.9348
  158SAPE   C3317606   4.915   0.858   5.987 -0.1310  0.6080 -0.0700
  158SAPE   H3X17607   4.869   0.958   6.003 -2.3583 -0.6503  2.1995
  158SAPE   H3Y17608   4.822   0.798   6.000  0.2116  0.1249  0.1809
  158SAPE   C3417609   4.964   0.843   5.838 -0.1991  0.2057 -0.0472
  158SAPE   H4X17610   5.049   0.772   5.834 -1.3044 -1.1256 -1.1556
  158SAPE   H4Y17611   5.009   0.944   5.822 -0.8028  0.2423 -1.7944
  158SAPE   C3517612   4.852   0.805   5.742 -0.0996 -0.6274  0.2578
  158SAPE   H5X17613   4.763   0.870   5.757 -0.5268 -0.1156 -3.4463
  158SAPE   H5Y17614   4.818   0.705   5.776 -0.3345 -0.9727 -0.9539
  158SAPE   C3617615   4.897   0.814   5.598 -0.0564  0.3724  0.4015
  158SAPE   H6X17616   4.981   0.745   5.572  0.7642  1.6669 -0.5354
  158SAPE   H6Y17617   4.917   0.919   5.569 -1.2570  0.8429  1.2063
  158SAPE   C3717618   4.787   0.772   5.500 -0.4540  0.4749  0.5030
  158SAPE   H7X17619   4.703   0.843   5.515 -0.2720  0.7141  0.4009
  158SAPE   H7Y17620   4.756   0.667   5.513 -0.6179  0.4027 -0.3927
  158SAPE   C3817621   4.847   0.785   5.357  0.2583 -0.0720  0.1362
  158SAPE   H8X17622   4.933   0.718   5.336 -0.6011 -0.8253 -1.2045
  158SAPE   H8Y17623   4.883   0.890   5.354  0.8060 -0.1186  3.0116
  158SAPE   C3917624   4.750   0.759   5.247  0.3709  0.3231  0.1929
  158SAPE   H9X17625   4.655   0.816   5.250 -1.5188 -2.6273  2.0794
  158SAPE   H9Y17626   4.729   0.650   5.242  1.3759  0.1866 -2.9223
  158SAPE  C31017627   4.808   0.795   5.120 -0.4669  0.1071  0.2490
  158SAPE  H10X17628   4.910   0.752   5.123 -1.0305 -1.2718  2.4173
  158SAPE  H10Y17629   4.826   0.904   5.116  0.4102 -0.0403  0.0298
  158SAPE  C31117630   4.739   0.726   5.002 -1.2712 -0.2290  1.2279
  158SAPE  H11X17631   4.632   0.752   4.989 -0.8100  0.5937 -1.5801
  158SAPE  H11Y17632   4.761   0.618   5.011  2.6418  0.1165 -1.5145
  158SAPE  C31217633   4.801   0.762   4.859  0.9390  0.3604 -0.5047
  158SAPE  H12X17634   4.905   0.723   4.863  0.1432 -1.8833 -0.2940
  158SAPE  H12Y17635   4.811   0.871   4.840  0.2723  0.5751  0.2864
  158SAPE  C31317636   4.714   0.690   4.754 -0.6583  0.1945  0.0024
  158SAPE  H13X17637   4.756   0.725   4.658 -1.0286 -0.3218 -0.3497
  158SAPE  H13Y17638   4.606   0.717   4.761 -0.5935  0.4589 -0.0256
  158SAPE  C31417639   4.723   0.534   4.759  0.0416  0.7828  0.2299
  158SAPE  H14X17640   4.658   0.491   4.839  0.9668 -1.1442  0.0195
  158SAPE  H14Y17641   4.825   0.514   4.798  0.0426  2.2415  1.0437
  158SAPE  C31517642   4.691   0.471   4.620  0.3404 -0.4996  0.4548
  158SAPE  H15X17643   4.697   0.361   4.608  1.4080 -0.1654 -3.2621
  158SAPE  H15Y17644   4.763   0.515   4.547  0.9855  0.7229  1.7861
  158SAPE  C31617645   4.545   0.503   4.565  1.1358 -0.3453 -0.6626
  158SAPE  H16X17646   4.535   0.485   4.456  0.1477 -2.0238 -0.3312
  158SAPE  H16Y17647   4.533   0.612   4.579 -2.3876 -0.8613  1.4760
  158SAPE  C31717648   4.439   0.435   4.647 -0.7450  0.2995  0.1076
  158SAPE  H17X17649   4.441   0.468   4.753 -0.5878  1.5976 -0.2825
  158SAPE  H17Y17650   4.452   0.324   4.643  0.5427  0.4239  0.6320
  158SAPE  C31817651   4.302   0.484   4.592  0.2153 -0.1540 -0.2791
  158SAPE  H18X17652   4.220   0.423   4.636 -0.4285  0.1890 -0.9784
  158SAPE  H18Y17653   4.297   0.476   4.481  0.0262  1.1322 -0.3769
  158SAPE  H18Z17654   4.287   0.592   4.609 -1.5372 -0.5346  0.8295
  159SAPE     N17655   6.287   3.719   2.464  0.7174 -0.0547  0.0462
  159SAPE   HN117656   6.325   3.648   2.398  0.2632 -0.1136 -0.1546
  159SAPE   HN217657   6.252   3.665   2.545  1.9604  1.3981  1.6318
  159SAPE   HN317658   6.204   3.764   2.421 -0.0451 -0.8728  0.6321
  159SAPE   C1217659   6.409   3.794   2.495  0.3083 -0.2548  0.0294
  159SAPE  H12A17660   6.372   3.879   2.556  1.5169  0.5739 -0.3416
  159SAPE  H12B17661   6.453   3.826   2.398  1.2202  2.8493  1.3649
  159SAPE   C1117662   6.503   3.704   2.582 -0.3151 -0.0942 -0.5931
  159SAPE  H11A17663   6.468   3.693   2.687  1.7709 -1.1019  0.0542
  159SAPE  H11B17664   6.598   3.759   2.571 -1.1381  1.3095 -0.8725
  159SAPE     P17665   6.623   3.475   2.560  0.3405  0.4105 -0.2526
  159SAPE   O1317666   6.594   3.344   2.496  0.0441  0.2958 -0.0548
  159SAPE   O1417667   6.749   3.538   2.522 -0.2473  0.1269  0.2332
  159SAPE   O1217668   6.505   3.570   2.524 -0.0233 -0.0949  0.2501
  159SAPE   O1117669   6.626   3.462   2.718 -0.3851  0.2085  0.1260
  159SAPE    C117670   6.500   3.436   2.790 -0.3870 -0.1689 -0.3866
  159SAPE    HA17671   6.495   3.523   2.859  2.9045 -0.5813  0.5145
  159SAPE    HB17672   6.403   3.435   2.736 -1.3680  0.7150  1.2903
  159SAPE    C217673   6.510   3.299   2.877 -0.0123 -0.7313 -0.6183
  159SAPE    HS17674   6.428   3.303   2.952 -0.4266  0.4707 -1.1064
  159SAPE   O2117675   6.641   3.301   2.952 -0.3621  0.2025  0.4632
  159SAPE   C2117676   6.648   3.398   3.043  0.6027  0.0718 -0.2447
  159SAPE   O2217677   6.550   3.448   3.088  0.1942  0.2354 -0.1200
  159SAPE   C2217678   6.788   3.431   3.087  1.1231  0.1203 -0.5293
  159SAPE   H2R17679   6.850   3.340   3.098 -0.1243 -0.7479 -0.5422
  159SAPE   H2S17680   6.849   3.492   3.016  1.9035 -0.8851 -0.7487
  159SAPE    C317681   6.490   3.174   2.792 -0.6595 -0.0463 -0.6799
  159SAPE    HX17682   6.564   3.182   2.710  0.2598 -1.8367 -0.0877
  159SAPE    HY17683   6.388   3.170   2.747 -0.7526 -0.5208 -0.4353
  159SAPE   O3117684   6.521   3.052   2.862  0.1000 -0.4276 -0.5743
  159SAPE   C3117685   6.417   2.977   2.896  0.1662 -0.1653 -0.4602
  159SAPE   O3217686   6.300   2.997   2.876  0.4728 -0.0317  0.6526
  159SAPE   C3217687   6.458   2.858   2.982 -0.3664  0.3775  0.4407
  159SAPE   H2X17688   6.533   2.791   2.933 -0.5016  0.8223 -0.3983
  159SAPE   H2Y17689   6.371   2.790   2.986 -1.3652  1.2845 -2.9023
  159SAPE   C2317690   6.776   3.491   3.236 -0.5069  0.0937 -0.2989
  159SAPE   H3R17691   6.692   3.562   3.249  1.8234  2.7660  1.4020
  159SAPE   H3S17692   6.868   3.548   3.262  1.6274 -4.1743  2.6761
  159SAPE   C2417693   6.770   3.383   3.351 -0.3304  0.3822 -0.3752
  159SAPE   H4R17694   6.686   3.315   3.322 -0.5474  0.7682 -0.6704
  159SAPE   H4S17695   6.734   3.436   3.442  0.2094 -1.0169  0.6926
  159SAPE   C2517696   6.901   3.315   3.358  0.2080  0.2842 -1.7526
  159SAPE   H5R17697   6.910   3.243   3.275 -3.4089  0.5821 -2.5655
  159SAPE   C2617698   6.991   3.333   3.456  0.3446  0.3807  0.0268
  159SAPE   H6R17699   7.078   3.266   3.447 -0.5364 -0.6832 -0.8441
  159SAPE   C2717700   6.979   3.413   3.580 -0.0875 -0.1230  0.1115
  159SAPE   H7R17701   6.974   3.341   3.665  0.4446  0.6205  0.7951
  159SAPE   H7S17702   6.882   3.468   3.579  0.5533  1.1370  1.6608
  159SAPE   C2817703   7.071   3.528   3.596 -0.1420  0.2856  0.1139
  159SAPE   H8R17704   7.106   3.568   3.500 -0.4062 -0.1317 -0.1608
  159SAPE   C2917705   7.113   3.563   3.718 -0.0448 -0.2444  1.0043
  159SAPE   H9R17706   7.191   3.639   3.729 -0.0312  0.1669 -1.3926
  159SAPE  C21017707   7.082   3.498   3.850 -0.1668 -0.2449 -0.2326
  159SAPE  H10R17708   7.150   3.412   3.869  0.2658 -0.4267 -2.4082
  159SAPE  H10S17709   6.976   3.464   3.845 -0.0650 -0.5625 -0.2812
  159SAPE  C21117710   7.078   3.596   3.961  0.4224 -0.4079  0.0033
  159SAPE  H11R17711   7.096   3.701   3.933  0.4715 -0.5077 -0.3350
  159SAPE  C21217712   7.090   3.571   4.092  0.2684 -0.1482 -1.1087
  159SAPE  H12R17713   7.093   3.659   4.158  1.1794 -0.9035 -0.1068
  159SAPE  C21317714   7.092   3.441   4.163  0.8389  0.8240  0.2025
  159SAPE  H13R17715   7.122   3.372   4.081  0.0504  1.7763 -0.9133
  159SAPE  H13S17716   6.993   3.407   4.200  1.1473  0.2500  0.5174
  159SAPE  C21417717   7.186   3.438   4.282  0.4660 -0.6817  0.1876
  159SAPE  H14R17718   7.255   3.523   4.289 -0.0862 -0.1097 -1.0534
  159SAPE  C21517719   7.196   3.346   4.381  0.1908  0.2033 -0.1441
  159SAPE  H15R17720   7.257   3.355   4.472 -0.0230  1.5503 -0.1132
  159SAPE  C21617721   7.118   3.217   4.368 -0.4776  0.3670 -0.2536
  159SAPE  H16R17722   7.137   3.188   4.263  0.6602 -0.3299  0.1264
  159SAPE  H16S17723   7.011   3.235   4.389 -0.8591 -1.7059 -0.2368
  159SAPE  C21717724   7.172   3.109   4.462  0.6476 -0.0637 -0.4305
  159SAPE  H17R17725   7.283   3.098   4.455  0.6872  0.5495 -0.7448
  159SAPE  H17S17726   7.131   3.014   4.422 -0.9179  1.0037 -1.4748
  159SAPE  C21817727   7.139   3.126   4.614 -0.7595 -0.3088 -0.2340
  159SAPE  H18R17728   7.186   3.220   4.649 -1.3412  0.2196 -0.8456
  159SAPE  H18S17729   7.194   3.053   4.677  1.4704  2.3818  1.1833
  159SAPE  C21917730   6.992   3.124   4.654 -0.3374 -0.9351 -0.6191
  159SAPE  H19R17731   6.947   3.050   4.584 -1.0011  0.1253 -1.3368
  159SAPE  H19S17732   6.951   3.226   4.637 -0.2687 -1.2546 -3.0243
  159SAPE  C22017733   6.966   3.080   4.792 -0.3507 -0.5988 -0.0145
  159SAPE  H20R17734   6.978   2.971   4.812  0.1450 -0.4257  0.6811
  159SAPE  H20S17735   6.864   3.118   4.816 -0.4852 -0.3148 -0.9843
  159SAPE  H20T17736   7.026   3.136   4.866  1.8244  0.4198 -2.3977
  159SAPE   C3317737   6.507   2.907   3.121  0.1997  0.1564  0.0729
  159SAPE   H3X17738   6.508   2.825   3.195 -0.8023  0.6213  0.6097
  159SAPE   H3Y17739   6.420   2.970   3.148 -0.6873 -0.0110 -2.1192
  159SAPE   C3417740   6.655   2.956   3.119  0.6586 -0.3716  0.3009
  159SAPE   H4X17741   6.681   3.002   3.021  1.0831 -0.8218  0.1999
  159SAPE   H4Y17742   6.722   2.868   3.111  1.8652  0.5190  0.2112
  159SAPE   C3517743   6.688   3.041   3.235  1.1594  0.1123 -0.4620
  159SAPE   H5X17744   6.652   3.144   3.213  0.6041 -0.1506 -0.7913
  159SAPE   H5Y17745   6.795   3.051   3.264  0.8472  0.7940  0.5149
  159SAPE   C3617746   6.620   2.998   3.367  0.2354  0.6613  0.3822
  159SAPE   H6X17747   6.661   2.896   3.384  1.0607  0.9053 -0.0600
  159SAPE   H6Y17748   6.509   3.002   3.369  0.1673 -0.8548  0.4900
  159SAPE   C3717749   6.658   3.083   3.489 -0.1337  0.6040 -0.4513
  159SAPE   H7X17750   6.606   3.180   3.474 -0.3350  0.4986 -0.4409
  159SAPE   H7Y17751   6.767   3.106   3.495 -0.7232  3.4313  1.6537
  159SAPE   C3817752   6.627   3.016   3.622  0.8838  0.3071  0.0722
  159SAPE   H8X17753   6.671   2.916   3.640 -4.6167 -2.8448 -1.5028
  159SAPE   H8Y17754   6.517   3.000   3.618  0.5971  0.2487  3.9981
  159SAPE   C3917755   6.644   3.101   3.748 -0.9676  0.0479 -0.1145
  159SAPE   H9X17756   6.584   3.194   3.739  1.6960  1.9733  0.6498
  159SAPE   H9Y17757   6.749   3.134   3.767 -1.6482  1.4446  1.4893
  159SAPE  C31017758   6.598   3.027   3.875 -0.1528  0.7305  0.0746
  159SAPE  H10X17759   6.663   2.939   3.895 -1.7093 -0.9169 -1.6467
  159SAPE  H10Y17760   6.500   2.979   3.855  0.1613  0.6640 -1.3929
  159SAPE  C31117761   6.595   3.118   3.999  0.1453 -0.2355  0.1690
  159SAPE  H11X17762   6.506   3.185   3.995 -1.4711 -2.3262 -0.2485
  159SAPE  H11Y17763   6.684   3.182   4.019 -1.1901  0.9728  2.8017
  159SAPE  C31217764   6.576   3.033   4.123 -0.6011  0.7237  0.1131
  159SAPE  H12X17765   6.670   2.974   4.133 -1.3349 -0.6201 -0.6655
  159SAPE  H12Y17766   6.489   2.966   4.108 -0.9063  0.8696  1.1980
  159SAPE  C31317767   6.550   3.119   4.242 -0.2937  0.7629 -1.3142
  159SAPE  H13X17768   6.440   3.135   4.245 -0.7668 -2.1977  0.4370
  159SAPE  H13Y17769   6.600   3.217   4.223  2.2899 -0.6080 -1.9838
  159SAPE  C31417770   6.584   3.058   4.381 -0.6695 -0.3677  0.0924
  159SAPE  H14X17771   6.692   3.032   4.387 -0.0577  2.0231  0.5240
  159SAPE  H14Y17772   6.523   2.966   4.382 -0.0998 -0.8058 -1.6574
  159SAPE  C31517773   6.539   3.146   4.495  0.0359 -0.3100 -0.2677
  159SAPE  H15X17774   6.444   3.202   4.482  0.9015  1.8760  2.1052
  159SAPE  H15Y17775   6.613   3.226   4.516  0.0818 -0.0444 -1.3843
  159SAPE  C31617776   6.530   3.075   4.626 -1.1971 -0.4778  0.3824
  159SAPE  H16X17777   6.635   3.052   4.652 -1.5893  0.4182  3.0416
  159SAPE  H16Y17778   6.473   2.980   4.612 -1.2724 -0.1750 -1.6310
  159SAPE  C31717779   6.465   3.153   4.750 -0.2419 -0.4623  0.2346
  159SAPE  H17X17780   6.534   3.240   4.759  0.9120 -1.4265  0.9510
  159SAPE  H17Y17781   6.477   3.094   4.843  1.8218 -0.8286 -0.2304
  159SAPE  C31817782   6.319   3.186   4.730  0.1118  0.3704 -0.1321
  159SAPE  H18X17783   6.264   3.234   4.813 -0.3520 -2.9790  1.6915
  159SAPE  H18Y17784   6.273   3.084   4.728  0.9388 -0.0284  0.5321
  159SAPE  H18Z17785   6.317   3.243   4.635  4.1086  2.1733  0.6726
  160SAPE     N17786   5.635   0.682   2.414  0.4890 -0.3659  0.9642
  160SAPE   HN117787   5.734   0.716   2.416  0.1474  0.6959  0.2836
  160SAPE   HN217788   5.621   0.643   2.319  0.4962  1.9716 -0.0695
  160SAPE   HN317789   5.572   0.760   2.442  0.9934  0.6313 -0.5531
  160SAPE   C1217790   5.617   0.568   2.514 -0.1219 -0.3912  0.5883
  160SAPE  H12A17791   5.710   0.574   2.575  0.9996  0.9796 -1.1455
  160SAPE  H12B17792   5.625   0.468   2.465  1.5762  0.5214 -1.1761
  160SAPE   C1117793   5.494   0.582   2.597  0.6908 -0.0341  0.7024
  160SAPE  H11A17794   5.488   0.681   2.646 -0.1780  0.2011  0.1318
  160SAPE  H11B17795   5.484   0.504   2.676 -4.6825 -0.4030  0.0304
  160SAPE     P17796   5.276   0.459   2.484  0.0412  0.2346 -0.2576
  160SAPE   O1317797   5.176   0.507   2.387 -0.0945  0.0700  0.3203
  160SAPE   O1417798   5.343   0.331   2.442 -0.4398  0.2861 -0.3606
  160SAPE   O1217799   5.371   0.577   2.523 -0.3392  0.1372  0.0645
  160SAPE   O1117800   5.215   0.433   2.630 -0.1137  0.4946  0.6106
  160SAPE    C117801   5.112   0.512   2.685 -0.3724  0.5732  0.0561
  160SAPE    HA17802   5.065   0.582   2.613 -1.5667  0.3570  0.6085
  160SAPE    HB17803   5.029   0.456   2.733 -0.3419 -0.4668 -1.0612
  160SAPE    C217804   5.168   0.605   2.788  0.2503  0.5396 -0.3809
  160SAPE    HS17805   5.241   0.669   2.733 -1.1709  1.8645 -0.8059
  160SAPE   O2117806   5.230   0.526   2.889  0.0033  0.3691  0.1561
  160SAPE   C2117807   5.336   0.583   2.950  0.7330 -1.0690  0.8262
  160SAPE   O2217808   5.408   0.674   2.904 -0.0941 -0.0370 -0.5076
  160SAPE   C2217809   5.346   0.526   3.088 -0.4655 -0.2247  0.2368
  160SAPE   H2R17810   5.253   0.551   3.144 -0.8466 -1.7860  0.3350
  160SAPE   H2S17811   5.338   0.417   3.069  0.1699 -0.0206 -1.3556
  160SAPE    C317812   5.058   0.698   2.848 -0.0915 -0.5128 -1.1908
  160SAPE    HX17813   4.994   0.632   2.911  0.3511 -0.0682 -0.2525
  160SAPE    HY17814   4.982   0.733   2.776 -0.4535  1.1931 -0.0311
  160SAPE   O3117815   5.112   0.804   2.933  0.1751  0.4380  0.4636
  160SAPE   C3117816   5.147   0.908   2.868 -0.8166  0.2302  0.0831
  160SAPE   O3217817   5.138   0.920   2.744 -0.0363 -0.4397 -0.1580
  160SAPE   C3217818   5.208   1.017   2.958  0.3651  0.8006 -0.3755
  160SAPE   H2X17819   5.278   1.078   2.897 -2.1203  1.7673 -2.4695
  160SAPE   H2Y17820   5.272   0.965   3.032 -0.9615 -1.6178 -0.8285
  160SAPE   C2317821   5.477   0.560   3.163  0.7125  0.0358  0.6421
  160SAPE   H3R17822   5.484   0.665   3.198  0.6254 -0.2066  1.4066
  160SAPE   H3S17823   5.563   0.541   3.095 -0.3098  2.2244 -1.4283
  160SAPE   C2417824   5.498   0.458   3.280 -0.1631  0.1901 -0.1715
  160SAPE   H4R17825   5.410   0.462   3.348  0.0442  1.6590  0.0377
  160SAPE   H4S17826   5.584   0.494   3.339  0.2513  0.1686 -0.7482
  160SAPE   C2517827   5.536   0.315   3.232 -0.9279 -0.1773  0.9091
  160SAPE   H5R17828   5.474   0.284   3.146 -0.5862  1.0647  0.1962
  160SAPE   C2617829   5.614   0.232   3.299  0.0253 -0.3859 -0.1725
  160SAPE   H6R17830   5.650   0.156   3.228  1.3127  1.3004 -1.4062
  160SAPE   C2717831   5.694   0.241   3.425  0.0322 -1.1024 -0.3917
  160SAPE   H7R17832   5.641   0.181   3.502  2.1882 -0.4429  1.7109
  160SAPE   H7S17833   5.703   0.346   3.459 -2.2606 -0.3386 -1.8817
  160SAPE   C2817834   5.830   0.182   3.416 -0.2727  0.2944  0.4741
  160SAPE   H8R17835   5.845   0.116   3.329 -1.1592 -0.1268  0.6280
  160SAPE   C2917836   5.920   0.177   3.518 -0.0807  0.5937  0.0542
  160SAPE   H9R17837   6.023   0.144   3.497 -0.6254 -1.2961  0.2260
  160SAPE  C21017838   5.893   0.234   3.654 -0.3281 -0.5476 -0.7741
  160SAPE  H10R17839   5.872   0.147   3.719 -2.0970 -0.6066 -1.3670
  160SAPE  H10S17840   5.802   0.298   3.649  0.3565  0.6610  1.3050
  160SAPE  C21117841   6.020   0.298   3.708 -0.5617 -0.0484  0.0157
  160SAPE  H11R17842   6.086   0.341   3.632 -2.2868 -1.0766 -2.1711
  160SAPE  C21217843   6.060   0.295   3.833 -0.3004  0.2128  0.1625
  160SAPE  H12R17844   6.156   0.342   3.859  0.5774  0.2614 -2.7643
  160SAPE  C21317845   5.993   0.226   3.945 -0.3595 -0.6846 -0.7466
  160SAPE  H13R17846   6.070   0.187   4.016 -2.5284 -2.6107  0.6874
  160SAPE  H13S17847   5.949   0.131   3.908 -2.4550  0.1219 -0.4186
  160SAPE  C21417848   5.889   0.309   4.021 -0.4047  0.4889  0.1392
  160SAPE  H14R17849   5.789   0.279   3.989 -0.2131  0.4305 -0.4057
  160SAPE  C21517850   5.906   0.402   4.118 -0.7862 -0.2710  0.0730
  160SAPE  H15R17851   5.810   0.449   4.147 -0.8009 -0.2512 -0.0071
  160SAPE  C21617852   6.036   0.464   4.166  0.1668 -0.3462 -0.0416
  160SAPE  H16R17853   6.039   0.575   4.172  0.5222 -0.4002  0.9583
  160SAPE  H16S17854   6.118   0.436   4.097  2.9291  0.4703  2.6869
  160SAPE  C21717855   6.076   0.420   4.312 -0.1769  0.4562 -0.2010
  160SAPE  H17R17856   6.180   0.454   4.333 -0.5372  0.6002  1.4193
  160SAPE  H17S17857   6.072   0.310   4.329 -0.7137  0.7553  1.8297
  160SAPE  C21817858   5.978   0.485   4.407 -0.5083  0.1147 -0.0253
  160SAPE  H18R17859   5.882   0.429   4.406 -0.2469 -0.3340 -1.1023
  160SAPE  H18S17860   5.967   0.588   4.367 -0.7272 -0.2725 -0.9890
  160SAPE  C21917861   6.024   0.486   4.550 -0.7611  0.2845 -1.4094
  160SAPE  H19R17862   5.983   0.569   4.613  1.2946 -0.5299  1.2061
  160SAPE  H19S17863   6.135   0.489   4.547 -0.5086 -2.8781  0.1133
  160SAPE  C22017864   5.990   0.349   4.610 -0.8894 -0.5336  0.4410
  160SAPE  H20R17865   6.023   0.349   4.716 -1.0940  2.1811  0.5755
  160SAPE  H20S17866   6.044   0.276   4.545  0.6738  2.4526 -1.8431
  160SAPE  H20T17867   5.882   0.322   4.610 -0.4882 -2.2721  0.8143
  160SAPE   C3317868   5.109   1.120   3.027 -0.4542  0.2376 -0.2402
  160SAPE   H3X17869   5.022   1.074   3.079 -1.6287  1.1371 -1.3618
  160SAPE   H3Y17870   5.075   1.192   2.950  1.4644  1.6478  0.1511
  160SAPE   C3417871   5.182   1.212   3.126  0.0139 -0.3503 -0.2616
  160SAPE   H4X17872   5.142   1.314   3.106  0.3053 -0.3286 -0.7481
  160SAPE   H4Y17873   5.291   1.217   3.105  0.0030  1.1364 -0.0572
  160SAPE   C3517874   5.165   1.154   3.275 -0.5375 -0.1926  0.0125
  160SAPE   H5X17875   5.196   1.047   3.283 -1.4988 -0.4362  0.7109
  160SAPE   H5Y17876   5.058   1.147   3.306 -0.5295  0.2515  0.1331
  160SAPE   C3617877   5.244   1.236   3.380 -0.4436  0.6020  0.2480
  160SAPE   H6X17878   5.206   1.340   3.391  2.1384  1.8544 -1.6089
  160SAPE   H6Y17879   5.350   1.229   3.347 -0.5157 -1.5226  0.3005
  160SAPE   C3717880   5.240   1.177   3.523 -0.4477 -0.2978  0.1351
  160SAPE   H7X17881   5.244   1.066   3.514  0.0222 -0.1325 -2.5575
  160SAPE   H7Y17882   5.142   1.205   3.568 -0.9913 -0.0004 -1.1931
  160SAPE   C3817883   5.359   1.221   3.607  0.2221  0.3526 -1.1425
  160SAPE   H8X17884   5.316   1.305   3.666  0.0810 -0.4196 -0.1185
  160SAPE   H8Y17885   5.450   1.253   3.552  1.3776 -0.5288  0.1990
  160SAPE   C3917886   5.397   1.119   3.717  0.0307  0.1247  0.6728
  160SAPE   H9X17887   5.408   1.013   3.684  1.8686 -0.0250  1.6561
  160SAPE   H9Y17888   5.316   1.115   3.793 -0.7957 -1.2988 -0.2356
  160SAPE  C31017889   5.534   1.151   3.783 -1.1619  0.1163  0.2068
  160SAPE  H10X17890   5.527   1.258   3.813 -0.9465 -0.0829  1.0084
  160SAPE  H10Y17891   5.624   1.138   3.719 -1.5595  2.3867 -0.9130
  160SAPE  C31117892   5.558   1.070   3.910  0.0470 -0.0742  0.0668
  160SAPE  H11X17893   5.577   0.961   3.893 -2.3137 -0.4150 -0.8322
  160SAPE  H11Y17894   5.472   1.085   3.978  0.1174 -0.1983  0.1837
  160SAPE  C31217895   5.684   1.121   3.989 -0.8584  0.5535 -0.1810
  160SAPE  H12X17896   5.773   1.108   3.924 -1.1405 -2.2867 -0.1593
  160SAPE  H12Y17897   5.700   1.050   4.073 -0.4170  1.6014  0.6391
  160SAPE  C31317898   5.683   1.268   4.039  0.7249  0.5062 -0.0182
  160SAPE  H13X17899   5.693   1.327   3.946  0.2497  0.1063 -0.3337
  160SAPE  H13Y17900   5.771   1.286   4.103  1.6139 -2.8839 -0.0989
  160SAPE  C31417901   5.564   1.313   4.116 -0.0213 -0.0583 -0.9603
  160SAPE  H14X17902   5.470   1.308   4.057 -0.9307  2.0964  0.2187
  160SAPE  H14Y17903   5.578   1.419   4.143  0.3259  0.2186 -2.1521
  160SAPE  C31517904   5.538   1.228   4.238  0.8479 -0.7342  0.1708
  160SAPE  H15X17905   5.516   1.123   4.210 -0.9403  0.0524 -1.6378
  160SAPE  H15Y17906   5.447   1.275   4.280  0.9257 -0.8508  0.4738
  160SAPE  C31617907   5.659   1.242   4.341 -0.3563 -0.3272  0.6280
  160SAPE  H16X17908   5.699   1.346   4.337 -1.7364  0.2074 -0.1790
  160SAPE  H16Y17909   5.733   1.170   4.301 -2.1709 -1.2990 -1.1675
  160SAPE  C31717910   5.610   1.219   4.484 -0.3885 -0.3358  0.4379
  160SAPE  H17X17911   5.570   1.117   4.496  1.0736 -0.9196  0.5143
  160SAPE  H17Y17912   5.531   1.298   4.487  0.2886  0.4316 -0.7427
  160SAPE  C31817913   5.721   1.234   4.595  0.5010 -0.5479 -0.2597
  160SAPE  H18X17914   5.809   1.172   4.567  0.9161  1.1005 -2.9956
  160SAPE  H18Y17915   5.673   1.196   4.688 -0.0181 -1.7740 -1.0005
  160SAPE  H18Z17916   5.762   1.337   4.592 -0.5737 -0.1291 -1.2505
  161SAPE     N17917   5.178   6.828   2.296  0.0174 -0.4378 -1.0977
  161SAPE   HN117918   5.275   6.861   2.277 -0.2820  0.7006 -0.7097
  161SAPE   HN217919   5.122   6.885   2.231  0.7250  0.3609 -1.0177
  161SAPE   HN317920   5.151   6.868   2.388  1.6088  1.3619 -1.3397
  161SAPE   C1217921   5.158   6.680   2.292  0.1462 -0.0454 -0.0760
  161SAPE  H12A17922   5.148   6.656   2.184  0.1567  0.7821 -0.2741
  161SAPE  H12B17923   5.063   6.656   2.344  1.6142 -1.1341  2.2734
  161SAPE   C1117924   5.277   6.607   2.346  0.2720  0.1281 -0.5427
  161SAPE  H11A17925   5.242   6.520   2.406  0.0975 -0.1147 -0.9938
  161SAPE  H11B17926   5.312   6.673   2.428 -0.9327 -0.7540  0.7244
  161SAPE     P17927   5.500   6.650   2.229  0.5188  0.0215  0.2351
  161SAPE   O1317928   5.576   6.600   2.113 -0.1407  0.9082  0.5616
  161SAPE   O1417929   5.456   6.794   2.237 -0.2489 -0.1725 -0.5214
  161SAPE   O1217930   5.369   6.556   2.250 -0.1845 -0.2550 -0.1443
  161SAPE   O1117931   5.580   6.622   2.358  0.3603 -0.3602 -0.1262
  161SAPE    C117932   5.608   6.483   2.399  0.9822  0.0185  0.3607
  161SAPE    HA17933   5.518   6.421   2.380  0.2507  1.2973 -0.5268
  161SAPE    HB17934   5.681   6.430   2.334 -1.4336 -0.7340 -1.8976
  161SAPE    C217935   5.632   6.458   2.555  0.3341 -0.6787  0.4242
  161SAPE    HS17936   5.626   6.348   2.569 -0.5701 -0.6904  0.0039
  161SAPE   O2117937   5.544   6.535   2.627 -0.1790  0.0789 -0.0936
  161SAPE   C2117938   5.419   6.489   2.645 -0.4405 -0.5266 -0.1268
  161SAPE   O2217939   5.370   6.387   2.601 -0.5896 -0.2208  0.0763
  161SAPE   C2217940   5.345   6.587   2.741  0.5829  0.5980  0.1365
  161SAPE   H2R17941   5.314   6.681   2.690  0.5408  1.0585  0.9870
  161SAPE   H2S17942   5.250   6.534   2.765  1.0068 -2.2684 -3.4985
  161SAPE    C317943   5.768   6.504   2.608  0.1314 -0.0925 -0.6033
  161SAPE    HX17944   5.765   6.611   2.579 -1.3434  0.4716  1.4505
  161SAPE    HY17945   5.847   6.450   2.552  1.5042  0.2702  0.9044
  161SAPE   O3117946   5.775   6.498   2.752 -0.7111 -0.3983 -0.1286
  161SAPE   C3117947   5.880   6.565   2.805  0.3224 -0.5813  1.0171
  161SAPE   O3217948   5.973   6.611   2.738  0.5774 -0.3224  0.0163
  161SAPE   C3217949   5.864   6.573   2.960  0.2370 -0.3888 -0.1637
  161SAPE   H2X17950   5.939   6.507   3.010  1.6450  2.2021  1.3229
  161SAPE   H2Y17951   5.760   6.548   2.990 -0.5551  0.7932 -1.7458
  161SAPE   C2317952   5.418   6.612   2.867 -0.1501  1.0415  0.0162
  161SAPE   H3R17953   5.516   6.651   2.830  0.2291 -0.0094 -0.1383
  161SAPE   H3S17954   5.449   6.527   2.932  1.5724  0.4178 -1.4991
  161SAPE   C2417955   5.347   6.729   2.949 -1.3286 -0.0839 -0.2282
  161SAPE   H4R17956   5.292   6.799   2.882 -0.9890  0.9235  0.5240
  161SAPE   H4S17957   5.426   6.792   2.995 -1.1938 -0.9182  0.7257
  161SAPE   C2517958   5.250   6.677   3.050  0.3940 -0.6098 -0.0232
  161SAPE   H5R17959   5.147   6.665   3.013  0.3794 -0.1846 -0.1331
  161SAPE   C2617960   5.272   6.673   3.181  0.1919 -0.3335  0.2222
  161SAPE   H6R17961   5.190   6.644   3.248 -0.8731  1.1942 -0.3595
  161SAPE   C2717962   5.406   6.697   3.247  0.3657 -0.3323 -0.1602
  161SAPE   H7R17963   5.487   6.725   3.177  0.3079 -0.7372 -0.3920
  161SAPE   H7S17964   5.447   6.598   3.277 -2.5496 -1.3956  0.5875
  161SAPE   C2817965   5.409   6.800   3.365 -0.2154 -0.2199  0.4399
  161SAPE   H8R17966   5.383   6.902   3.335  2.6200  0.7700  0.9959
  161SAPE   C2917967   5.437   6.783   3.495  0.4523 -0.5430 -1.0072
  161SAPE   H9R17968   5.436   6.876   3.552  1.7020 -1.0502 -0.1063
  161SAPE  C21017969   5.471   6.655   3.564 -0.6231 -1.0138 -0.2510
  161SAPE  H10R17970   5.580   6.662   3.582 -0.5163  0.8895 -1.2899
  161SAPE  H10S17971   5.441   6.568   3.501 -0.5960 -1.0783 -0.1747
  161SAPE  C21117972   5.395   6.631   3.689 -0.1389 -0.9487 -0.1062
  161SAPE  H11R17973   5.315   6.556   3.681 -0.9952  0.0592 -1.4699
  161SAPE  C21217974   5.418   6.690   3.806 -0.3615  0.3178  0.3597
  161SAPE  H12R17975   5.348   6.658   3.884 -1.0479 -0.0042 -0.3853
  161SAPE  C21317976   5.531   6.785   3.851  0.9849 -0.7586  0.2555
  161SAPE  H13R17977   5.628   6.761   3.803  0.4974  0.1605 -1.2808
  161SAPE  H13S17978   5.547   6.771   3.960 -1.4625 -0.3789  0.7225
  161SAPE  C21417979   5.510   6.933   3.820  0.4015  0.2355 -0.3285
  161SAPE  H14R17980   5.535   6.965   3.717 -1.6405  0.6697 -0.7227
  161SAPE  C21517981   5.457   7.031   3.896  0.1046 -0.5200 -0.4125
  161SAPE  H15R17982   5.446   7.132   3.853 -1.0451 -0.5754 -0.2721
  161SAPE  C21617983   5.400   7.014   4.033 -0.4211 -0.1948  0.0917
  161SAPE  H16R17984   5.404   6.911   4.074 -0.0002 -0.0736  0.3647
  161SAPE  H16S17985   5.290   7.026   4.040 -0.8823 -2.9213 -1.1948
  161SAPE  C21717986   5.481   7.108   4.135  0.2753  0.2114  0.8320
  161SAPE  H17R17987   5.460   7.211   4.098 -0.5595 -0.2411 -0.0108
  161SAPE  H17S17988   5.588   7.082   4.120 -0.3093 -2.3402  0.7456
  161SAPE  C21817989   5.447   7.087   4.284  0.3536  0.9278  0.0104
  161SAPE  H18R17990   5.477   6.987   4.324  0.4797  1.1065  0.3701
  161SAPE  H18S17991   5.336   7.095   4.282  0.2429 -0.4418 -1.8957
  161SAPE  C21917992   5.504   7.187   4.386 -0.3810  0.1255 -0.5802
  161SAPE  H19R17993   5.453   7.286   4.377  4.2417  2.9059  0.4604
  161SAPE  H19S17994   5.612   7.210   4.370  0.2201 -0.0940  2.4310
  161SAPE  C22017995   5.499   7.134   4.530  0.0566  0.6029  0.4820
  161SAPE  H20R17996   5.566   7.045   4.531  0.4538  0.8934  0.2258
  161SAPE  H20S17997   5.402   7.082   4.547  0.2859  0.7422  2.4813
  161SAPE  H20T17998   5.530   7.204   4.611  1.1636 -0.1747  0.7511
  161SAPE   C3317999   5.884   6.716   3.012 -0.1047  0.3737  0.3437
  161SAPE   H3X18000   5.818   6.783   2.954  1.7159  1.0842 -0.9954
  161SAPE   H3Y18001   5.991   6.734   2.989  0.2429 -1.8964 -0.0174
  161SAPE   C3418002   5.850   6.742   3.158  0.5328 -0.8572 -0.7010
  161SAPE   H4X18003   5.739   6.743   3.160  0.5161 -0.9181 -1.3005
  161SAPE   H4Y18004   5.890   6.842   3.187 -0.1227 -0.1923 -1.9610
  161SAPE   C3518005   5.894   6.630   3.259  0.4195  0.4128 -0.0927
  161SAPE   H5X18006   6.004   6.638   3.245  0.4707 -1.0755 -0.6800
  161SAPE   H5Y18007   5.850   6.533   3.228 -2.2121  1.6169 -0.4659
  161SAPE   C3618008   5.851   6.666   3.399 -0.3907  0.4884  0.1384
  161SAPE   H6X18009   5.743   6.646   3.414 -0.3186 -0.5478 -0.5968
  161SAPE   H6Y18010   5.868   6.772   3.427 -0.5713  0.4517  0.3853
  161SAPE   C3718011   5.924   6.568   3.490 -0.0071  0.8291 -1.1370
  161SAPE   H7X18012   6.030   6.567   3.457 -0.4651 -1.9094 -2.8797
  161SAPE   H7Y18013   5.882   6.466   3.479 -0.2948  0.2493  3.4263
  161SAPE   C3818014   5.929   6.596   3.641  0.6650  0.0959 -0.0452
  161SAPE   H8X18015   5.828   6.579   3.682  1.5509 -4.4075  0.8751
  161SAPE   H8Y18016   5.945   6.703   3.665 -1.3672  0.1097  1.4524
  161SAPE   C3918017   6.004   6.492   3.712 -0.5781 -0.0443 -0.3670
  161SAPE   H9X18018   6.110   6.513   3.683 -0.4950 -2.2542 -1.8590
  161SAPE   H9Y18019   5.973   6.390   3.681  1.5890 -1.1932  0.8990
  161SAPE  C31018020   5.998   6.501   3.868  0.7259  0.6341  0.2476
  161SAPE  H10X18021   5.897   6.469   3.901  0.5267  2.1407  1.2215
  161SAPE  H10Y18022   5.998   6.611   3.888 -0.7640  0.7331 -0.1845
  161SAPE  C31118023   6.097   6.419   3.941 -0.0815 -0.4003 -0.0225
  161SAPE  H11X18024   6.197   6.458   3.912 -0.3209 -0.1389 -0.5180
  161SAPE  H11Y18025   6.095   6.312   3.910  2.3124 -0.0246 -1.7996
  161SAPE  C31218026   6.070   6.445   4.098 -0.1151  0.2713 -0.2756
  161SAPE  H12X18027   5.967   6.410   4.120 -0.2646  1.8836  1.8361
  161SAPE  H12Y18028   6.074   6.556   4.107 -0.2890  0.3022 -0.5546
  161SAPE  C31318029   6.181   6.405   4.194  0.1754 -0.0609  0.3996
  161SAPE  H13X18030   6.278   6.410   4.142 -0.4989 -1.8857 -1.1714
  161SAPE  H13Y18031   6.168   6.298   4.222 -1.5438 -0.2020 -0.7292
  161SAPE  C31418032   6.195   6.488   4.321 -0.2426 -0.1010  0.1190
  161SAPE  H14X18033   6.089   6.499   4.351 -0.3770 -4.0666  1.7167
  161SAPE  H14Y18034   6.242   6.588   4.304  1.1758 -0.0505  3.4922
  161SAPE  C31518035   6.278   6.414   4.430  0.2461  0.2820 -0.4453
  161SAPE  H15X18036   6.232   6.313   4.445 -3.2736  1.8294  0.2205
  161SAPE  H15Y18037   6.265   6.458   4.531 -3.6535 -0.3964 -0.4700
  161SAPE  C31618038   6.427   6.416   4.402 -0.3106  0.3335  0.7580
  161SAPE  H16X18039   6.467   6.517   4.376  0.1123  0.9877  3.6409
  161SAPE  H16Y18040   6.442   6.340   4.323 -1.1731  0.9869 -0.0636
  161SAPE  C31718041   6.516   6.362   4.508 -0.4133 -0.2649 -0.0095
  161SAPE  H17X18042   6.492   6.257   4.533 -0.2473 -0.0713  1.0184
  161SAPE  H17Y18043   6.503   6.415   4.605  1.3731  1.4758 -0.6391
  161SAPE  C31818044   6.672   6.367   4.476 -0.0042  0.4320 -0.0015
  161SAPE  H18X18045   6.736   6.371   4.567  1.1573 -0.8166 -0.7478
  161SAPE  H18Y18046   6.683   6.460   4.415 -1.1062 -0.1903 -1.1910
  161SAPE  H18Z18047   6.705   6.278   4.420  1.9324  0.1885  1.4255
  162SAPE     N18048   4.639   6.237   2.497 -0.0133 -0.7487 -0.0523
  162SAPE   HN118049   4.653   6.154   2.435 -0.4525 -0.2410 -0.8578
  162SAPE   HN218050   4.580   6.204   2.575 -0.1578  2.2935  1.2554
  162SAPE   HN318051   4.591   6.319   2.454  0.6267 -0.8824 -1.0753
  162SAPE   C1218052   4.774   6.278   2.554 -0.0497 -0.0825 -0.5726
  162SAPE  H12A18053   4.755   6.360   2.626 -1.5519  0.5863 -1.6627
  162SAPE  H12B18054   4.833   6.312   2.467 -1.1798  1.9054 -0.6123
  162SAPE   C1118055   4.855   6.159   2.623 -0.5373  0.0797  0.0204
  162SAPE  H11A18056   4.786   6.107   2.692 -0.7161  1.0076  0.5591
  162SAPE  H11B18057   4.943   6.194   2.681  1.2877  0.5349 -2.7800
  162SAPE     P18058   5.041   6.070   2.452  0.1700 -0.1925 -0.5975
  162SAPE   O1318059   5.055   5.938   2.388 -0.1821  0.2398 -0.3577
  162SAPE   O1418060   5.038   6.182   2.359 -0.3775 -0.9345 -0.2683
  162SAPE   O1218061   4.901   6.059   2.527 -0.2236  0.2032 -0.4447
  162SAPE   O1118062   5.142   6.095   2.570  0.2800  0.7907  0.2903
  162SAPE    C118063   5.180   5.993   2.668 -0.0239  0.1241  0.1178
  162SAPE    HA18064   5.128   5.896   2.663 -0.2980  0.1488  1.8343
  162SAPE    HB18065   5.289   5.974   2.656  0.2122 -0.2938  2.5361
  162SAPE    C218066   5.166   6.049   2.815  0.3981 -0.0249 -0.5752
  162SAPE    HS18067   5.219   5.996   2.898 -2.3321 -1.5106  0.3319
  162SAPE   O2118068   5.031   6.048   2.856 -0.0388  0.2804  0.6201
  162SAPE   C2118069   4.983   5.930   2.902 -0.5786 -0.9005  0.1303
  162SAPE   O2218070   5.049   5.830   2.923  0.0411 -0.2729 -0.5856
  162SAPE   C2218071   4.829   5.951   2.938 -0.6346  0.2947  0.1578
  162SAPE   H2R18072   4.773   5.981   2.847 -1.5587 -0.1697  0.5627
  162SAPE   H2S18073   4.789   5.852   2.969 -0.9288  0.8995  1.8369
  162SAPE    C318074   5.212   6.193   2.823  0.3503 -0.7754  0.9487
  162SAPE    HX18075   5.135   6.256   2.773 -1.4317 -2.2126  1.7695
  162SAPE    HY18076   5.311   6.187   2.775  1.1614 -0.9214  2.5613
  162SAPE   O3118077   5.235   6.239   2.954 -0.1695 -0.3035 -0.2515
  162SAPE   C3118078   5.141   6.313   3.020 -0.1120  0.5838  0.5604
  162SAPE   O3218079   5.038   6.355   2.972  0.3784 -0.9774  0.2076
  162SAPE   C3218080   5.179   6.308   3.164 -0.3968 -0.4969  0.2365
  162SAPE   H2X18081   5.145   6.404   3.209  0.1248 -1.3026  2.4746
  162SAPE   H2Y18082   5.289   6.305   3.173 -0.3391 -0.0633 -0.2977
  162SAPE   C2318083   4.806   6.044   3.055  0.1410 -0.4979 -0.0508
  162SAPE   H3R18084   4.851   6.142   3.030  0.3845 -0.4212  0.6699
  162SAPE   H3S18085   4.848   6.012   3.152  0.9600  0.2873 -0.1349
  162SAPE   C2418086   4.655   6.068   3.084 -0.2341 -0.2554 -0.3059
  162SAPE   H4R18087   4.617   5.977   3.135 -0.8920  0.8593  1.3125
  162SAPE   H4S18088   4.601   6.091   2.990  0.0528  1.5542 -0.0680
  162SAPE   C2518089   4.636   6.175   3.186 -0.3522  0.2734 -0.0390
  162SAPE   H5R18090   4.647   6.278   3.149 -2.3667  0.1077 -1.1983
  162SAPE   C2618091   4.610   6.155   3.316  0.3222  0.2889  0.1580
  162SAPE   H6R18092   4.597   6.250   3.369 -2.1813  1.1026 -1.6979
  162SAPE   C2718093   4.593   6.027   3.395 -0.1060 -0.0857 -1.0160
  162SAPE   H7R18094   4.534   5.957   3.331  0.2418 -1.2461 -0.0875
  162SAPE   H7S18095   4.531   6.060   3.480 -0.0716 -1.3013 -0.5082
  162SAPE   C2818096   4.722   5.957   3.430 -0.0518 -0.6553 -0.4483
  162SAPE   H8R18097   4.794   5.951   3.347  0.1147 -1.0713 -0.2766
  162SAPE   C2918098   4.754   5.903   3.553  0.4524  0.4559 -0.0537
  162SAPE   H9R18099   4.856   5.861   3.562  0.6142  1.0657  1.0497
  162SAPE  C21018100   4.670   5.903   3.682  0.0846  0.1437  0.3406
  162SAPE  H10R18101   4.642   5.798   3.704 -0.9248  0.6301  1.4236
  162SAPE  H10S18102   4.574   5.956   3.663 -0.3645 -1.1588 -1.2783
  162SAPE  C21118103   4.759   5.948   3.796 -0.6553  0.1114  0.7487
  162SAPE  H11R18104   4.829   5.870   3.832 -0.9499  0.2023  1.5410
  162SAPE  C21218105   4.771   6.066   3.864  0.0326  0.4367  0.2418
  162SAPE  H12R18106   4.855   6.087   3.932  0.3422 -2.1932  0.8002
  162SAPE  C21318107   4.683   6.182   3.826 -0.7192 -0.1557  0.5605
  162SAPE  H13R18108   4.603   6.179   3.903  0.1518  0.5110  1.5064
  162SAPE  H13S18109   4.629   6.164   3.730 -2.9591 -0.5810  1.8361
  162SAPE  C21418110   4.751   6.322   3.841  0.0360 -0.6035  0.0509
  162SAPE  H14R18111   4.772   6.348   3.946 -1.8827  0.6276  0.1952
  162SAPE  C21518112   4.783   6.412   3.742 -0.0439  0.2374 -0.6303
  162SAPE  H15R18113   4.814   6.515   3.766 -0.4614  0.5478 -1.3822
  162SAPE  C21618114   4.761   6.388   3.599  0.2240  0.3232 -0.7319
  162SAPE  H16R18115   4.654   6.386   3.570 -0.6784 -0.6387  2.3430
  162SAPE  H16S18116   4.800   6.286   3.579 -0.0601  0.0826 -0.0685
  162SAPE  C21718117   4.846   6.486   3.513  0.0475  0.1339  0.1289
  162SAPE  H17R18118   4.951   6.454   3.530 -0.1737 -0.4407  0.4312
  162SAPE  H17S18119   4.859   6.586   3.559  5.3151  0.3448 -1.2280
  162SAPE  C21818120   4.816   6.473   3.367  0.2827 -0.2228  0.5922
  162SAPE  H18R18121   4.710   6.493   3.341  0.9087  1.7032 -0.6299
  162SAPE  H18S18122   4.843   6.379   3.314 -0.6980 -0.2805  0.1638
  162SAPE  C21918123   4.893   6.579   3.283 -0.2631  0.5121 -0.0263
  162SAPE  H19R18124   5.002   6.560   3.298  0.3477  0.4920 -3.6481
  162SAPE  H19S18125   4.871   6.677   3.331  0.1437  0.0288  1.2003
  162SAPE  C22018126   4.852   6.584   3.137 -0.4665  0.4599 -0.4886
  162SAPE  H20R18127   4.903   6.675   3.098  3.1729 -0.2772  2.0244
  162SAPE  H20S18128   4.747   6.617   3.127 -0.1547  2.2864  1.4503
  162SAPE  H20T18129   4.877   6.494   3.077  0.7167  1.6264 -1.7970
  162SAPE   C3318130   5.110   6.194   3.236 -0.3462  0.6640 -0.6110
  162SAPE   H3X18131   5.130   6.097   3.186 -0.2655 -1.0732  2.5486
  162SAPE   H3Y18132   5.002   6.216   3.244  0.1551  2.9437  0.8846
  162SAPE   C3418133   5.173   6.190   3.379 -0.0175  0.2168  0.4198
  162SAPE   H4X18134   5.194   6.283   3.436 -0.8975  0.2735  0.6592
  162SAPE   H4Y18135   5.274   6.144   3.372  0.4727  0.9624  2.0814
  162SAPE   C3518136   5.075   6.110   3.463  0.6442  0.6487  0.3237
  162SAPE   H5X18137   5.026   6.027   3.409 -0.7262  0.6115  1.5602
  162SAPE   H5Y18138   4.988   6.177   3.480 -0.0550 -0.1562 -0.0166
  162SAPE   C3618139   5.121   6.086   3.607  0.3994  0.8584 -0.3131
  162SAPE   H6X18140   5.223   6.043   3.619  0.6425  1.5373  0.0462
  162SAPE   H6Y18141   5.061   5.999   3.642  0.0964  0.4232 -1.8377
  162SAPE   C3718142   5.097   6.208   3.694  0.0882 -0.4025 -0.1660
  162SAPE   H7X18143   4.987   6.219   3.705  0.3192  0.0691  2.1694
  162SAPE   H7Y18144   5.146   6.293   3.641  0.2526 -1.1704 -1.2941
  162SAPE   C3818145   5.160   6.196   3.831  0.1058 -0.1116 -0.3253
  162SAPE   H8X18146   5.264   6.159   3.822 -0.0905 -0.7951  0.1582
  162SAPE   H8Y18147   5.104   6.115   3.883  1.4482  0.4698  2.1804
  162SAPE   C3918148   5.146   6.338   3.900 -0.2783  0.0194  0.4664
  162SAPE   H9X18149   5.047   6.385   3.884  0.6545  1.7299 -0.5299
  162SAPE   H9Y18150   5.222   6.400   3.847 -0.6731  1.2979  1.3418
  162SAPE  C31018151   5.188   6.335   4.044 -0.4415  0.3039 -0.1811
  162SAPE  H10X18152   5.178   6.439   4.083  1.6627  1.1305 -1.6151
  162SAPE  H10Y18153   5.293   6.302   4.059 -0.4182  0.1468 -0.6722
  162SAPE  C31118154   5.116   6.225   4.131  0.1374 -0.3009  0.6499
  162SAPE  H11X18155   5.150   6.123   4.102  2.2563  0.3296  0.7364
  162SAPE  H11Y18156   5.007   6.234   4.115 -0.2929 -2.6402  1.7798
  162SAPE  C31218157   5.130   6.240   4.284 -0.3156 -0.3544 -0.2122
  162SAPE  H12X18158   5.121   6.349   4.301  1.7419 -0.0468 -0.8274
  162SAPE  H12Y18159   5.226   6.194   4.316  0.4918  1.1936 -0.3325
  162SAPE  C31318160   5.022   6.190   4.377 -0.0154  0.8592  0.3754
  162SAPE  H13X18161   5.015   6.079   4.368  0.6676  0.8048  0.4990
  162SAPE  H13Y18162   4.926   6.234   4.340  0.1569  1.3245  0.4769
  162SAPE  C31418163   5.040   6.227   4.521 -0.3502 -0.2772 -0.2487
  162SAPE  H14X18164   4.942   6.245   4.570  0.1139 -0.3701  0.7320
  162SAPE  H14Y18165   5.100   6.320   4.529 -0.5162 -0.0632 -1.2375
  162SAPE  C31518166   5.098   6.114   4.607  0.5028 -0.0939 -0.4074
  162SAPE  H15X18167   5.128   6.157   4.705  0.0540  1.1311 -0.7865
  162SAPE  H15Y18168   5.199   6.090   4.568  0.2887 -0.3591 -0.7987
  162SAPE  C31618169   5.014   5.990   4.634 -0.4807  0.4681 -0.2595
  162SAPE  H16X18170   5.046   5.911   4.564  0.9900  0.3877  0.4696
  162SAPE  H16Y18171   4.907   6.014   4.618 -0.3988  1.2960  0.3311
  162SAPE  C31718172   5.029   5.922   4.775 -0.2291 -0.4218  0.1391
  162SAPE  H17X18173   4.978   5.824   4.767  1.4645 -1.1806 -2.6959
  162SAPE  H17Y18174   4.985   5.991   4.851 -0.8163 -0.7588  0.1115
  162SAPE  C31818175   5.171   5.888   4.804  0.3921  0.3175 -0.7989
  162SAPE  H18X18176   5.241   5.961   4.758  1.5438 -0.9369 -1.1103
  162SAPE  H18Y18177   5.201   5.789   4.765 -0.8604 -1.6492  2.7709
  162SAPE  H18Z18178   5.190   5.888   4.913 -0.1769  2.9805 -0.6248
  163SAPE     N18179   2.173   5.323   2.170 -0.3299  0.4867  0.2011
  163SAPE   HN118180   2.162   5.220   2.180 -1.5002  0.6776  1.1323
  163SAPE   HN218181   2.221   5.357   2.256 -0.9499  0.2705  0.6394
  163SAPE   HN318182   2.082   5.374   2.178  0.2618  1.2471  3.9572
  163SAPE   C1218183   2.264   5.358   2.048 -0.0052 -0.4595 -0.0983
  163SAPE  H12A18184   2.312   5.457   2.064  0.2974 -0.5569 -0.4042
  163SAPE  H12B18185   2.203   5.367   1.955  1.5878 -0.4601 -1.1814
  163SAPE   C1118186   2.355   5.231   2.012  0.7678 -0.3297 -0.0228
  163SAPE  H11A18187   2.403   5.247   1.914 -0.2339  1.8930 -0.2021
  163SAPE  H11B18188   2.286   5.147   1.991  0.5238  0.2142 -1.4637
  163SAPE     P18189   2.590   5.203   2.106 -0.1282 -0.0873  0.1992
  163SAPE   O1318190   2.633   5.084   2.025 -0.4520 -0.0873 -0.1845
  163SAPE   O1418191   2.626   5.341   2.051 -0.2140  0.0943 -0.6525
  163SAPE   O1218192   2.439   5.200   2.123  0.2006  0.0138  0.4445
  163SAPE   O1118193   2.641   5.189   2.253  0.3797 -0.3130 -0.0576
  163SAPE    C118194   2.623   5.066   2.324  0.3373 -0.0659 -0.2721
  163SAPE    HA18195   2.554   4.988   2.286 -0.3072  1.0918 -1.5940
  163SAPE    HB18196   2.721   5.021   2.349  0.2497 -0.6149 -0.9031
  163SAPE    C218197   2.563   5.098   2.461  0.3248  0.3825 -0.4411
  163SAPE    HS18198   2.476   5.160   2.430 -1.1016 -0.6887  1.2269
  163SAPE   O2118199   2.646   5.160   2.558  0.0416  0.1281  0.9492
  163SAPE   C2118200   2.590   5.252   2.633 -0.4888  0.2650 -0.1420
  163SAPE   O2218201   2.474   5.287   2.625  0.4273 -0.5886  0.4150
  163SAPE   C2218202   2.694   5.286   2.747 -0.2630  0.0453 -0.4075
  163SAPE   H2R18203   2.678   5.193   2.806 -2.9128 -0.6541 -2.0561
  163SAPE   H2S18204   2.794   5.291   2.698  0.7896  1.6191  1.7380
  163SAPE    C318205   2.498   4.961   2.512 -0.8120  0.1900 -0.5284
  163SAPE    HX18206   2.588   4.897   2.525 -0.2880  0.5189 -2.2172
  163SAPE    HY18207   2.436   4.911   2.435 -0.0721 -0.2706 -0.8415
  163SAPE   O3118208   2.436   4.966   2.644  0.3364 -0.1681  0.6031
  163SAPE   C3118209   2.307   4.999   2.637  0.5733 -0.2479  0.4296
  163SAPE   O3218210   2.250   5.023   2.532 -0.4812 -0.4053  0.1301
  163SAPE   C3218211   2.224   4.981   2.767 -0.0855 -0.1584 -0.5290
  163SAPE   H2X18212   2.201   4.872   2.774 -0.3174 -0.1347 -0.8530
  163SAPE   H2Y18213   2.134   5.045   2.752 -0.4407 -0.7051 -0.7861
  163SAPE   C2318214   2.678   5.411   2.830  0.4152  0.0315  0.0982
  163SAPE   H3R18215   2.568   5.425   2.825  0.3499 -0.9118 -2.3782
  163SAPE   H3S18216   2.720   5.504   2.786 -0.0888  1.0520  1.6824
  163SAPE   C2418217   2.721   5.405   2.979  0.1655  0.1116  0.1019
  163SAPE   H4R18218   2.831   5.390   2.975 -0.0330 -1.4877 -0.0851
  163SAPE   H4S18219   2.682   5.314   3.029  0.9423 -0.5828 -0.5324
  163SAPE   C2518220   2.694   5.529   3.062 -0.1139 -0.0981  0.5462
  163SAPE   H5R18221   2.713   5.625   3.012  1.7791 -1.2220 -1.0471
  163SAPE   C2618222   2.681   5.536   3.199  0.3894  0.1749 -0.6750
  163SAPE   H6R18223   2.649   5.635   3.235  0.2968 -0.0676 -0.0805
  163SAPE   C2718224   2.669   5.423   3.309 -0.0976 -0.2799  0.0398
  163SAPE   H7R18225   2.663   5.472   3.409  1.0358 -2.0453  1.0121
  163SAPE   H7S18226   2.769   5.377   3.318 -1.1356 -2.6159  0.5259
  163SAPE   C2818227   2.571   5.307   3.305 -0.2096 -0.1995  0.1271
  163SAPE   H8R18228   2.516   5.299   3.210  1.3621  0.6021 -0.8924
  163SAPE   C2918229   2.565   5.209   3.400 -0.0377  0.7424 -0.0235
  163SAPE   H9R18230   2.489   5.131   3.386 -0.4848  1.2201 -0.2926
  163SAPE  C21018231   2.661   5.194   3.512  0.6795  0.2553  0.7744
  163SAPE  H10R18232   2.594   5.208   3.599 -1.0260 -3.1161  0.1761
  163SAPE  H10S18233   2.730   5.281   3.513  0.1605  0.6720  0.7093
  163SAPE  C21118234   2.726   5.056   3.514  0.7649  0.6298  0.4773
  163SAPE  H11R18235   2.756   5.010   3.418 -0.8672  1.6980 -0.5949
  163SAPE  C21218236   2.739   4.988   3.631  0.2490 -0.3438 -0.3484
  163SAPE  H12R18237   2.784   4.888   3.621 -0.2075 -0.5296 -0.5618
  163SAPE  C21318238   2.685   5.040   3.766 -0.4902  0.2326  0.4925
  163SAPE  H13R18239   2.686   5.151   3.766 -0.2528  0.2359 -0.1030
  163SAPE  H13S18240   2.750   5.000   3.847 -0.6913 -0.2802  0.4057
  163SAPE  C21418241   2.544   4.994   3.784  0.2312 -0.0367 -0.1012
  163SAPE  H14R18242   2.473   5.010   3.701  0.5334  0.4287 -0.2755
  163SAPE  C21518243   2.487   4.945   3.902 -0.3454  0.3906  0.0395
  163SAPE  H15R18244   2.382   4.916   3.895  0.2552 -1.5766 -1.8648
  163SAPE  C21618245   2.554   4.926   4.036  0.5496  0.1995  0.0754
  163SAPE  H16R18246   2.480   4.954   4.114  0.8875 -1.1142  0.9034
  163SAPE  H16S18247   2.637   4.999   4.035 -0.3620  1.2691  0.0360
  163SAPE  C21718248   2.599   4.787   4.060  0.3611  0.3008  0.2225
  163SAPE  H17R18249   2.667   4.797   4.147  2.0855 -0.0798 -1.0215
  163SAPE  H17S18250   2.665   4.753   3.978  0.8105 -0.8956  1.0474
  163SAPE  C21818251   2.480   4.684   4.070 -0.3658  0.4256  0.2490
  163SAPE  H18R18252   2.469   4.640   3.969 -0.7247  1.0918 -0.0030
  163SAPE  H18S18253   2.392   4.740   4.107 -0.7969 -1.0732  1.6238
  163SAPE  C21918254   2.493   4.565   4.168 -0.2973 -0.0090  0.3555
  163SAPE  H19R18255   2.399   4.508   4.151 -1.9616  2.3526  1.0398
  163SAPE  H19S18256   2.483   4.594   4.275  0.7490 -1.7532  0.9679
  163SAPE  C22018257   2.622   4.491   4.145 -0.0090 -0.2174  0.7085
  163SAPE  H20R18258   2.695   4.570   4.175 -1.8995  3.2131 -2.8355
  163SAPE  H20S18259   2.627   4.478   4.035 -2.5771 -2.3238  0.7539
  163SAPE  H20T18260   2.641   4.392   4.192  1.2679 -0.7130 -0.7690
  163SAPE   C3318261   2.301   5.016   2.893  0.3221  0.0556 -0.2113
  163SAPE   H3X18262   2.347   5.117   2.901  1.2711 -0.4769  1.6264
  163SAPE   H3Y18263   2.387   4.951   2.917  1.4330  1.7928  0.7416
  163SAPE   C3418264   2.204   5.010   3.014  0.2745 -0.2376  0.0623
  163SAPE   H4X18265   2.171   4.905   3.029 -1.8261  0.2461 -0.7794
  163SAPE   H4Y18266   2.113   5.068   2.989  1.9821  2.7563  0.3962
  163SAPE   C3518267   2.245   5.052   3.156  0.4389 -0.4071  0.0669
  163SAPE   H5X18268   2.278   5.158   3.156 -0.4516 -0.1110  1.0121
  163SAPE   H5Y18269   2.324   4.989   3.203  1.6094  0.4354 -0.7138
  163SAPE   C3618270   2.124   5.037   3.250  1.0623  0.2082 -0.8535
  163SAPE   H6X18271   2.076   4.937   3.245  0.0607  0.6090  0.3434
  163SAPE   H6Y18272   2.041   5.107   3.225 -0.5680 -1.1590  0.5810
  163SAPE   C3718273   2.156   5.063   3.401  0.6234  0.2344 -0.8405
  163SAPE   H7X18274   2.227   5.146   3.421  1.9317 -1.2347  0.9891
  163SAPE   H7Y18275   2.195   4.969   3.445 -1.0633  0.2159  0.7430
  163SAPE   C3818276   2.025   5.085   3.489 -0.2325  0.4155 -0.4085
  163SAPE   H8X18277   1.961   4.994   3.485  0.6309 -0.4599  2.8218
  163SAPE   H8Y18278   1.966   5.169   3.447  1.8517  2.0159 -0.2761
  163SAPE   C3918279   2.046   5.116   3.641 -0.3857  0.2554 -0.0272
  163SAPE   H9X18280   1.951   5.168   3.667 -1.5219 -1.6478 -0.2212
  163SAPE   H9Y18281   2.137   5.179   3.649 -0.8721  1.0253 -0.3153
  163SAPE  C31018282   2.057   4.988   3.723 -0.4731 -0.1052  0.1164
  163SAPE  H10X18283   2.135   4.922   3.679 -0.9151 -0.5475 -0.0112
  163SAPE  H10Y18284   1.968   4.923   3.711 -0.8470  0.3283  0.4954
  163SAPE  C31118285   2.081   5.013   3.874  0.3942 -0.6431  0.2172
  163SAPE  H11X18286   1.985   5.069   3.888  0.7911 -0.0449  0.5932
  163SAPE  H11Y18287   2.168   5.082   3.876  1.0039 -1.4201  2.0265
  163SAPE  C31218288   2.086   4.886   3.959 -0.0530  0.4722 -0.1879
  163SAPE  H12X18289   2.180   4.829   3.945 -0.7393 -1.9905  3.5677
  163SAPE  H12Y18290   2.006   4.811   3.939 -0.5527  0.5219  1.4207
  163SAPE  C31318291   2.077   4.911   4.106  0.6224 -0.0065  0.5482
  163SAPE  H13X18292   1.969   4.924   4.128  0.3493 -0.4666 -0.4840
  163SAPE  H13Y18293   2.139   4.999   4.133  0.7987 -0.1730  0.6940
  163SAPE  C31418294   2.103   4.790   4.190 -0.3628 -0.2443 -0.0776
  163SAPE  H14X18295   2.209   4.766   4.168  0.0331  2.1369 -1.0878
  163SAPE  H14Y18296   2.042   4.706   4.150  0.3198 -0.5436 -0.5105
  163SAPE  C31518297   2.096   4.801   4.342 -0.5488 -0.1651 -0.0235
  163SAPE  H15X18298   2.002   4.840   4.386  0.2504 -0.4325  2.0020
  163SAPE  H15Y18299   2.180   4.866   4.374 -1.7338  0.0796  2.9085
  163SAPE  C31618300   2.131   4.665   4.408  0.4108 -0.1226 -0.7858
  163SAPE  H16X18301   2.229   4.619   4.381  0.6624 -0.1387  0.1436
  163SAPE  H16Y18302   2.060   4.586   4.376  0.6896 -1.0682  0.8115
  163SAPE  C31718303   2.140   4.665   4.559 -0.1007  0.1843  0.4624
  163SAPE  H17X18304   2.043   4.706   4.596  0.5261  1.4527  0.7930
  163SAPE  H17Y18305   2.223   4.736   4.580  0.7364  0.2250 -2.5724
  163SAPE  C31818306   2.164   4.521   4.612 -0.0407 -0.9571  0.5298
  163SAPE  H18X18307   2.245   4.476   4.551 -0.1719  2.0775 -2.1617
  163SAPE  H18Y18308   2.075   4.456   4.593 -0.4492 -0.4369  0.6198
  163SAPE  H18Z18309   2.192   4.516   4.719  1.2876 -3.4757  0.1345
  164SAPE     N18310   0.354   4.880   2.390 -0.1789  0.5274 -0.1851
  164SAPE   HN118311   0.414   4.955   2.350 -0.1171  0.5361 -0.0750
  164SAPE   HN218312   0.404   4.819   2.458 -0.1475  0.1433 -0.5510
  164SAPE   HN318313   0.322   4.820   2.312  0.9076  1.0239 -1.0407
  164SAPE   C1218314   0.254   4.954   2.461 -0.0461  0.9807 -0.2837
  164SAPE  H12A18315   0.165   4.962   2.395  0.7982 -1.0381 -1.7921
  164SAPE  H12B18316   0.298   5.052   2.490 -0.9114  1.6641 -1.2202
  164SAPE   C1118317   0.203   4.878   2.582  0.0765  0.3078  0.5995
  164SAPE  H11A18318   0.122   4.935   2.632 -0.8698 -1.0569  0.6761
  164SAPE  H11B18319   0.282   4.876   2.660  1.0464 -0.9180 -0.3647
  164SAPE     P18320   0.009   4.726   2.499  0.0006  0.0704 -0.0233
  164SAPE   O1318321  -0.053   4.850   2.454 -0.6390 -0.1714  0.2451
  164SAPE   O1418322   0.007   4.608   2.410 -0.1762 -0.2468  0.0162
  164SAPE   O1218323   0.158   4.748   2.543 -0.8739 -0.0165 -0.3086
  164SAPE   O1118324  -0.053   4.691   2.643  0.8043  0.1275 -0.1885
  164SAPE    C118325  -0.004   4.576   2.706  0.4430 -0.4468  0.1922
  164SAPE    HA18326  -0.090   4.506   2.714  0.7540 -0.6101  2.8704
  164SAPE    HB18327   0.076   4.525   2.648  1.3940  0.1526  0.9436
  164SAPE    C218328   0.057   4.596   2.848  0.3168  0.4474  0.1739
  164SAPE    HS18329   0.068   4.494   2.890  0.6365 -0.1536 -1.2811
  164SAPE   O2118330  -0.026   4.686   2.918 -0.5717  0.3614 -0.4010
  164SAPE   C2118331  -0.038   4.670   3.051 -1.0866 -0.0811  0.2277
  164SAPE   O2218332   0.031   4.597   3.117 -0.5963 -0.2088  0.0897
  164SAPE   C2218333  -0.125   4.785   3.109 -0.7593 -0.5492 -0.2014
  164SAPE   H2R18334  -0.198   4.822   3.034 -1.4840  1.9459  1.5925
  164SAPE   H2S18335  -0.198   4.752   3.186 -0.6101 -0.6231 -0.0927
  164SAPE    C318336   0.201   4.662   2.847 -0.2999 -0.0394 -0.5414
  164SAPE    HX18337   0.178   4.767   2.817  1.4968  0.7546  0.7153
  164SAPE    HY18338   0.265   4.614   2.770  0.4267 -0.4404  0.3006
  164SAPE   O3118339   0.277   4.641   2.968  0.6215  0.2002 -0.7570
  164SAPE   C3118340   0.284   4.747   3.046  0.4605  0.6148 -0.3220
  164SAPE   O3218341   0.248   4.860   3.023  0.2037  0.0188 -0.0282
  164SAPE   C3218342   0.340   4.701   3.180 -0.4212  0.2580  1.0627
  164SAPE   H2X18343   0.428   4.634   3.170 -0.9693 -0.3150 -0.1381
  164SAPE   H2Y18344   0.256   4.639   3.217  0.0336 -0.4411  0.9401
  164SAPE   C2318345  -0.039   4.902   3.159  0.1696 -0.3873  0.3160
  164SAPE   H3R18346   0.009   4.957   3.075  0.4519  0.5863  1.0984
  164SAPE   H3S18347   0.042   4.858   3.220 -0.8779 -1.3568  1.0404
  164SAPE   C2418348  -0.115   5.009   3.239  0.4716 -0.0076 -0.9875
  164SAPE   H4R18349  -0.176   4.957   3.317 -0.2139  0.8520 -0.9384
  164SAPE   H4S18350  -0.184   5.045   3.160  0.2711 -0.9702 -1.2617
  164SAPE   C2518351  -0.020   5.117   3.281  0.3400  0.6833  0.2944
  164SAPE   H5R18352   0.020   5.165   3.190  1.3545 -1.7929 -0.6593
  164SAPE   C2618353   0.046   5.124   3.394 -0.1074  0.3433 -0.4007
  164SAPE   H6R18354   0.121   5.203   3.409 -0.9257  0.8710  1.1511
  164SAPE   C2718355   0.013   5.032   3.516  0.6715 -0.5433  0.3438
  164SAPE   H7R18356   0.002   4.924   3.489 -2.0031  0.0234 -1.1620
  164SAPE   H7S18357  -0.086   5.062   3.557  1.2704 -0.2137  1.5994
  164SAPE   C2818358   0.110   5.052   3.627 -0.1010  0.2954  0.6912
  164SAPE   H8R18359   0.185   4.972   3.641  0.4135  0.0510 -2.5231
  164SAPE   C2918360   0.105   5.145   3.724 -0.5368  0.4096 -0.1280
  164SAPE   H9R18361   0.182   5.142   3.803  0.5877  1.0238 -1.1566
  164SAPE  C21018362   0.017   5.269   3.731  0.7647  0.1945  0.0007
  164SAPE  H10R18363  -0.019   5.293   3.629 -0.4302  0.1795  0.4075
  164SAPE  H10S18364   0.067   5.364   3.761  1.5915 -0.8588  2.1797
  164SAPE  C21118365  -0.097   5.248   3.824 -0.0082  0.5795  0.2361
  164SAPE  H11R18366  -0.197   5.244   3.778 -0.0866  0.8285  0.3781
  164SAPE  C21218367  -0.105   5.257   3.957 -0.4835 -0.0908 -0.6164
  164SAPE  H12R18368  -0.199   5.228   4.007 -0.6404  0.1411 -0.7686
  164SAPE  C21318369   0.010   5.286   4.048  0.3780  0.7038  0.2070
  164SAPE  H13R18370  -0.036   5.314   4.145  1.0217 -0.0956  0.7681
  164SAPE  H13S18371   0.068   5.371   4.007  1.6236 -0.8979 -1.5325
  164SAPE  C21418372   0.099   5.168   4.085  0.3575 -0.8845  0.6805
  164SAPE  H14R18373   0.042   5.086   4.131 -2.8806  1.1157  0.5233
  164SAPE  C21518374   0.236   5.184   4.080  0.4586 -0.3608 -0.1248
  164SAPE  H15R18375   0.305   5.104   4.112  0.5045 -0.5933 -0.7889
  164SAPE  C21618376   0.318   5.294   4.027  0.7203  0.0095  0.2256
  164SAPE  H16R18377   0.263   5.358   3.955  2.3205  1.0295 -0.1492
  164SAPE  H16S18378   0.404   5.249   3.974  0.0789 -1.0125  0.0268
  164SAPE  C21718379   0.364   5.395   4.143  0.8112  0.2328  0.7749
  164SAPE  H17R18380   0.283   5.430   4.211  1.1030 -1.0818  1.8428
  164SAPE  H17S18381   0.408   5.474   4.079  2.9747 -2.0661 -0.7618
  164SAPE  C21818382   0.490   5.345   4.223  0.1571 -0.0060  1.0360
  164SAPE  H18R18383   0.572   5.312   4.157 -0.6379 -1.7138  0.8612
  164SAPE  H18S18384   0.449   5.258   4.279  0.5047 -0.3636  0.7353
  164SAPE  C21918385   0.549   5.454   4.317 -0.3261  1.1943  0.7286
  164SAPE  H19R18386   0.578   5.539   4.252 -1.3555  0.4877 -0.6934
  164SAPE  H19S18387   0.640   5.412   4.366 -0.6658  0.5680  0.8258
  164SAPE  C22018388   0.459   5.517   4.427  0.8983 -0.7866  0.4642
  164SAPE  H20R18389   0.364   5.559   4.389  0.3632 -1.4994  0.9844
  164SAPE  H20S18390   0.518   5.591   4.485  0.9496 -0.3313 -0.1599
  164SAPE  H20T18391   0.424   5.445   4.504 -1.8155  1.3740  1.3914
  164SAPE   C3318392   0.384   4.810   3.284 -0.0882  0.3726  0.4020
  164SAPE   H3X18393   0.298   4.880   3.295 -3.3159 -2.8670 -1.9867
  164SAPE   H3Y18394   0.472   4.873   3.260 -0.0103  1.4053  3.0942
  164SAPE   C3418395   0.397   4.737   3.419  0.0655 -0.2754  0.2400
  164SAPE   H4X18396   0.474   4.659   3.399 -0.1793  0.0687 -2.3401
  164SAPE   H4Y18397   0.297   4.691   3.437 -0.8625  1.9137  1.0192
  164SAPE   C3518398   0.430   4.837   3.536  0.1156  0.5886 -0.6434
  164SAPE   H5X18399   0.345   4.908   3.540  1.6274  2.4785  3.2177
  164SAPE   H5Y18400   0.517   4.903   3.516 -0.3936  0.9339 -1.7727
  164SAPE   C3618401   0.430   4.776   3.681  0.1912 -0.3604 -0.0718
  164SAPE   H6X18402   0.501   4.691   3.672  0.3414 -0.3047  0.5711
  164SAPE   H6Y18403   0.328   4.737   3.702 -0.2175  0.3830 -0.6412
  164SAPE   C3718404   0.482   4.864   3.794 -0.1225  0.4260  0.6286
  164SAPE   H7X18405   0.400   4.936   3.812 -2.6627 -0.6296 -4.7327
  164SAPE   H7Y18406   0.578   4.907   3.757 -0.6664 -1.0326 -2.9152
  164SAPE   C3818407   0.515   4.779   3.915 -1.2960 -0.2765 -0.3524
  164SAPE   H8X18408   0.599   4.708   3.901 -1.0300  0.1316 -0.8253
  164SAPE   H8Y18409   0.416   4.735   3.941 -2.2713  1.8515 -0.2636
  164SAPE   C3918410   0.564   4.875   4.031 -0.1520  0.5947  0.4654
  164SAPE   H9X18411   0.484   4.950   4.047 -3.1128 -1.7730 -1.9009
  164SAPE   H9Y18412   0.664   4.915   4.004  0.5065 -1.1666  0.1822
  164SAPE  C31018413   0.571   4.794   4.162 -0.6819 -0.5004 -0.7081
  164SAPE  H10X18414   0.632   4.701   4.154  1.2544  0.5493  0.7827
  164SAPE  H10Y18415   0.469   4.768   4.196 -0.5482  1.3366  1.3414
  164SAPE  C31118416   0.652   4.879   4.271  0.2710 -0.2432  0.0830
  164SAPE  H11X18417   0.719   4.947   4.214 -3.2215  2.4576 -1.1510
  164SAPE  H11Y18418   0.719   4.809   4.326  0.3392  0.2630  0.6575
  164SAPE  C31218419   0.572   4.953   4.373 -0.5381  0.3557 -0.1068
  164SAPE  H12X18420   0.547   4.889   4.460 -1.9077  0.4844 -0.3898
  164SAPE  H12Y18421   0.480   4.995   4.328 -0.4595  1.4669  0.7240
  164SAPE  C31318422   0.650   5.066   4.428 -0.2567 -0.2879 -0.5919
  164SAPE  H13X18423   0.574   5.133   4.475  0.2609  0.5103 -0.8638
  164SAPE  H13Y18424   0.689   5.126   4.343  0.9078  0.6266  0.5583
  164SAPE  C31418425   0.769   5.036   4.525 -0.2816  0.8900  0.3414
  164SAPE  H14X18426   0.836   5.125   4.529  2.3265 -0.9808  0.6668
  164SAPE  H14Y18427   0.832   4.959   4.477 -2.3109  1.1093 -2.9779
  164SAPE  C31518428   0.721   5.006   4.666 -0.0691 -0.4376  0.4001
  164SAPE  H15X18429   0.779   4.919   4.702 -1.5453 -1.1670  1.1108
  164SAPE  H15Y18430   0.613   4.981   4.660  0.0399 -0.8776  0.2224
  164SAPE  C31618431   0.740   5.128   4.766  0.0343  0.8397 -0.7085
  164SAPE  H16X18432   0.846   5.136   4.800 -0.6924  1.0957  1.6662
  164SAPE  H16Y18433   0.681   5.101   4.856  0.1949  1.9949 -0.2507
  164SAPE  C31718434   0.694   5.265   4.715  0.3978 -0.1553  0.3128
  164SAPE  H17X18435   0.598   5.255   4.660  0.2119 -1.2234  0.8024
  164SAPE  H17Y18436   0.769   5.282   4.635  0.3125 -0.7793  0.0998
  164SAPE  C31818437   0.693   5.375   4.821 -0.1150  0.0495 -0.2242
  164SAPE  H18X18438   0.634   5.461   4.785  0.0975  0.5630  0.6467
  164SAPE  H18Y18439   0.792   5.420   4.842 -0.5806  0.5260  1.0168
  164SAPE  H18Z18440   0.657   5.335   4.918 -1.2091 -0.4014 -0.7953
  165SAPE     N18441   1.454   6.076   2.625 -0.5405  0.5568  0.0499
  165SAPE   HN118442   1.503   6.148   2.568  1.4210  0.0687  1.0002
  165SAPE   HN218443   1.459   6.104   2.725  1.0571 -2.4758  0.9659
  165SAPE   HN318444   1.517   5.992   2.626 -0.7102  0.4335  0.6171
  165SAPE   C1218445   1.317   6.038   2.568 -0.3645 -0.2595  0.2010
  165SAPE  H12A18446   1.295   5.930   2.584 -2.2356  0.2991  1.8543
  165SAPE  H12B18447   1.333   6.046   2.459  1.6143  1.3586  0.5540
  165SAPE   C1118448   1.204   6.127   2.628  0.2883  0.2644  0.3771
  165SAPE  H11A18449   1.247   6.229   2.630 -0.6595  0.8188 -2.3345
  165SAPE  H11B18450   1.175   6.087   2.727 -2.2999 -3.0015 -1.4616
  165SAPE     P18451   1.005   6.256   2.523  0.2965 -0.3698  0.3706
  165SAPE   O1318452   1.078   6.388   2.527  0.1036  1.2250 -0.0088
  165SAPE   O1418453   0.922   6.225   2.406 -0.0472 -0.7555  0.3149
  165SAPE   O1218454   1.094   6.128   2.538  0.1399  0.0810 -0.1507
  165SAPE   O1118455   0.908   6.252   2.645  0.5070 -0.4064 -0.4807
  165SAPE    C118456   0.852   6.126   2.687  0.6564 -0.0060 -0.4477
  165SAPE    HA18457   0.816   6.065   2.601 -2.2019  0.7577  0.1292
  165SAPE    HB18458   0.922   6.064   2.748 -0.5060 -1.5943 -0.6707
  165SAPE    C218459   0.738   6.149   2.779 -0.2201 -0.6132 -0.4069
  165SAPE    HS18460   0.670   6.210   2.716 -0.9307 -2.2932 -1.3532
  165SAPE   O2118461   0.791   6.214   2.895 -0.2829 -0.3275 -0.6190
  165SAPE   C2118462   0.703   6.277   2.962  0.1046 -0.0340 -0.1331
  165SAPE   O2218463   0.584   6.267   2.946  0.1888 -0.7154 -0.3956
  165SAPE   C2218464   0.771   6.348   3.078  0.3561  0.0034  0.1744
  165SAPE   H2R18465   0.843   6.273   3.119 -0.4928  0.3108  2.3561
  165SAPE   H2S18466   0.828   6.430   3.031 -3.5331  2.5297 -0.5711
  165SAPE    C318467   0.664   6.017   2.796  0.6740 -0.3091 -0.4250
  165SAPE    HX18468   0.649   5.984   2.691  0.4919  1.0881 -0.8627
  165SAPE    HY18469   0.563   6.041   2.835  0.8627  0.8643 -0.6179
  165SAPE   O3118470   0.741   5.914   2.864  0.0914 -0.2009 -0.7235
  165SAPE   C3118471   0.679   5.841   2.962 -0.0723 -0.1731 -0.0794
  165SAPE   O3218472   0.565   5.868   2.997  0.3447 -0.0842  0.0264
  165SAPE   C3218473   0.752   5.725   3.019  0.6227  0.1675 -0.5645
  165SAPE   H2X18474   0.855   5.720   2.979  0.0773 -0.8907 -1.8960
  165SAPE   H2Y18475   0.702   5.639   2.970  0.3964 -0.0410  0.0225
  165SAPE   C2318476   0.677   6.406   3.190  0.3521  0.3311  0.4667
  165SAPE   H3R18477   0.750   6.434   3.269  0.3076  0.0375  0.6141
  165SAPE   H3S18478   0.629   6.315   3.232 -0.3750 -0.5179 -2.0356
  165SAPE   C2418479   0.577   6.500   3.143  0.3241 -0.0578  0.0798
  165SAPE   H4R18480   0.517   6.467   3.056 -0.1586 -0.4191  0.5485
  165SAPE   H4S18481   0.647   6.576   3.101  1.1664 -0.5441  0.5701
  165SAPE   C2518482   0.508   6.561   3.257  0.9618  0.6395 -0.1935
  165SAPE   H5R18483   0.569   6.599   3.340  0.6456 -0.8420  0.7546
  165SAPE   C2618484   0.392   6.629   3.244  0.2816  0.1848 -0.4381
  165SAPE   H6R18485   0.352   6.685   3.330 -0.9660 -0.7826 -0.3791
  165SAPE   C2718486   0.295   6.622   3.130  0.0786 -0.3721  0.1206
  165SAPE   H7R18487   0.342   6.650   3.033 -2.0551 -1.0582 -1.2026
  165SAPE   H7S18488   0.222   6.706   3.134  0.8021  0.3183 -0.8284
  165SAPE   C2818489   0.231   6.489   3.103 -0.3577 -0.2427  0.2963
  165SAPE   H8R18490   0.298   6.408   3.070  0.1544  1.0740 -2.0943
  165SAPE   C2918491   0.098   6.460   3.114  0.5606  0.6785 -1.1038
  165SAPE   H9R18492   0.056   6.362   3.086  1.1141  0.5496 -1.5125
  165SAPE  C21018493  -0.004   6.563   3.168  0.8015 -0.2518 -0.5323
  165SAPE  H10R18494  -0.044   6.624   3.084  0.6299 -0.7728 -0.8358
  165SAPE  H10S18495   0.034   6.641   3.237 -4.8479  0.9150  1.8377
  165SAPE  C21118496  -0.122   6.499   3.235 -0.1447 -0.6528 -0.8860
  165SAPE  H11R18497  -0.198   6.455   3.168 -0.0048  1.0651 -2.2517
  165SAPE  C21218498  -0.141   6.491   3.367  0.1440 -0.1882 -0.0323
  165SAPE  H12R18499  -0.237   6.445   3.393 -0.2151  0.7976  0.4442
  165SAPE  C21318500  -0.055   6.545   3.484  0.1366  0.1561 -0.0412
  165SAPE  H13R18501  -0.118   6.534   3.575 -0.8572 -0.0968 -0.7386
  165SAPE  H13S18502  -0.034   6.653   3.472 -0.1127  0.1250 -0.8138
  165SAPE  C21418503   0.073   6.473   3.505 -0.6518  0.1998 -0.1244
  165SAPE  H14R18504   0.096   6.389   3.438 -2.0067  0.4918 -0.9856
  165SAPE  C21518505   0.175   6.512   3.579  0.1680 -0.5390  1.0117
  165SAPE  H15R18506   0.258   6.441   3.592  2.2311  1.6895  0.6328
  165SAPE  C21618507   0.187   6.634   3.669  0.3013 -0.8330  0.1542
  165SAPE  H16R18508   0.096   6.697   3.676  0.2451 -1.0867  3.9107
  165SAPE  H16S18509   0.269   6.697   3.628 -1.4016  1.0553 -0.5356
  165SAPE  C21718510   0.213   6.598   3.816 -0.6077 -0.1646  0.2970
  165SAPE  H17R18511   0.288   6.517   3.811  1.2044  1.5013 -1.5958
  165SAPE  H17S18512   0.124   6.560   3.871 -0.0292 -0.5208  1.0051
  165SAPE  C21818513   0.275   6.717   3.888  0.0198  0.7337 -0.0563
  165SAPE  H18R18514   0.207   6.803   3.906 -1.9393 -0.6100 -0.7136
  165SAPE  H18S18515   0.347   6.757   3.813 -0.7639  1.2126 -0.5541
  165SAPE  C21918516   0.359   6.676   4.007  0.1188 -0.3733 -0.4166
  165SAPE  H19R18517   0.435   6.606   3.967  2.4253  2.9140 -2.2322
  165SAPE  H19S18518   0.289   6.629   4.080 -0.3002  1.3634  0.3338
  165SAPE  C22018519   0.419   6.800   4.066  0.2936  0.1975  0.2161
  165SAPE  H20R18520   0.466   6.873   3.995 -1.7399  1.0166 -0.3623
  165SAPE  H20S18521   0.489   6.774   4.148  0.9801  1.5054  0.0847
  165SAPE  H20T18522   0.335   6.862   4.104  0.1952  1.4931 -1.9258
  165SAPE   C3318523   0.752   5.735   3.169 -0.1070  0.0190  0.0680
  165SAPE   H3X18524   0.746   5.838   3.210 -0.5102  0.0974 -0.1804
  165SAPE   H3Y18525   0.846   5.693   3.211  0.6543  1.9319  0.3576
  165SAPE   C3418526   0.649   5.657   3.237  0.1373  0.2461  0.1148
  165SAPE   H4X18527   0.682   5.551   3.237  2.0205  0.7133  3.1248
  165SAPE   H4Y18528   0.555   5.665   3.177  0.5170 -0.9694 -0.6738
  165SAPE   C3518529   0.632   5.685   3.386 -0.3620 -0.0359  0.5869
  165SAPE   H5X18530   0.533   5.646   3.418 -0.0275  0.9143  2.9771
  165SAPE   H5Y18531   0.633   5.796   3.392  2.5465 -0.0862  2.9960
  165SAPE   C3618532   0.741   5.633   3.483 -0.2840 -0.1158 -0.5213
  165SAPE   H6X18533   0.827   5.700   3.465 -0.4010  0.1463 -0.1129
  165SAPE   H6Y18534   0.770   5.530   3.453  1.1728  0.3814 -0.8810
  165SAPE   C3718535   0.695   5.638   3.623 -0.3657  0.2670 -0.0693
  165SAPE   H7X18536   0.632   5.550   3.650 -0.4726  0.6603  0.9826
  165SAPE   H7Y18537   0.637   5.733   3.631 -0.7694 -0.0494  0.8246
  165SAPE   C3818538   0.814   5.633   3.729 -0.0045 -0.2062 -0.2660
  165SAPE   H8X18539   0.883   5.713   3.695  1.3242 -1.8445 -1.6520
  165SAPE   H8Y18540   0.888   5.551   3.717  1.0443  0.8237 -1.0615
  165SAPE   C3918541   0.772   5.639   3.884 -0.4945 -0.0809  0.1177
  165SAPE   H9X18542   0.713   5.549   3.910  2.1804 -1.0057  3.9248
  165SAPE   H9Y18543   0.711   5.731   3.898 -0.5780 -0.3279  1.4193
  165SAPE  C31018544   0.889   5.656   3.983 -0.0272 -0.4834 -0.0826
  165SAPE  H10X18545   0.955   5.740   3.953 -0.5829  0.1449  0.4126
  165SAPE  H10Y18546   0.946   5.562   3.992 -2.3236 -1.8402  1.1117
  165SAPE  C31118547   0.830   5.676   4.126  0.1252 -0.4282  0.1852
  165SAPE  H11X18548   0.873   5.601   4.195  0.7750  0.0045  0.2581
  165SAPE  H11Y18549   0.721   5.654   4.119  0.0030  0.6252 -2.2021
  165SAPE  C31218550   0.844   5.820   4.183  0.5243 -0.7907  0.5975
  165SAPE  H12X18551   0.792   5.885   4.109  0.6420 -0.6387  0.6475
  165SAPE  H12Y18552   0.950   5.850   4.188  0.0386  0.9758  1.2498
  165SAPE  C31318553   0.771   5.844   4.314 -0.2477 -0.6881  0.1806
  165SAPE  H13X18554   0.669   5.801   4.314 -0.6777  0.3125  0.8756
  165SAPE  H13Y18555   0.760   5.949   4.347  1.0962 -0.2820 -0.5594
  165SAPE  C31418556   0.840   5.768   4.424  0.0607 -0.0587  0.1828
  165SAPE  H14X18557   0.844   5.659   4.404 -2.0782 -0.0253 -0.7457
  165SAPE  H14Y18558   0.768   5.783   4.508 -0.6312  2.1147 -0.7334
  165SAPE  C31518559   0.968   5.827   4.504  0.1190 -0.4199  0.0461
  165SAPE  H15X18560   0.945   5.917   4.566  0.8295 -0.4921  0.4277
  165SAPE  H15Y18561   1.052   5.849   4.435 -0.6198 -2.8533 -1.7538
  165SAPE  C31618562   1.032   5.729   4.608 -0.7993 -0.3425 -0.4061
  165SAPE  H16X18563   1.127   5.780   4.635 -1.5107  0.7098  0.1396
  165SAPE  H16Y18564   1.042   5.634   4.551 -2.9640 -1.8288  1.5023
  165SAPE  C31718565   0.951   5.705   4.734  0.2654  0.5030 -0.2136
  165SAPE  H17X18566   0.846   5.678   4.709  0.1799 -0.7677  1.3511
  165SAPE  H17Y18567   0.946   5.799   4.793 -0.3828  1.0366 -1.0912
  165SAPE  C31818568   1.016   5.599   4.812 -0.5619 -1.0848  0.7924
  165SAPE  H18X18569   1.122   5.634   4.813 -1.0359  0.4483  0.0809
  165SAPE  H18Y18570   1.016   5.506   4.751 -0.4646  0.9591 -2.5761
  165SAPE  H18Z18571   0.979   5.577   4.914  0.0063 -1.6876  0.8771
  166SAPE     N18572   1.342   5.084   2.706 -0.3548 -0.2042 -0.1614
  166SAPE   HN118573   1.433   5.034   2.696 -0.0318 -0.5150  3.3309
  166SAPE   HN218574   1.268   5.011   2.702  1.1104 -1.7288 -1.2641
  166SAPE   HN318575   1.338   5.155   2.630  2.1268  2.9377  2.3952
  166SAPE   C1218576   1.342   5.170   2.833  0.0606 -0.2623 -0.0562
  166SAPE  H12A18577   1.392   5.115   2.915  3.3205  2.1102 -0.2448
  166SAPE  H12B18578   1.233   5.183   2.850 -0.0981 -1.7727  0.1400
  166SAPE   C1118579   1.422   5.296   2.797  0.2198  0.1372  0.2589
  166SAPE  H11A18580   1.522   5.256   2.773 -0.8808 -1.1076 -2.6847
  166SAPE  H11B18581   1.444   5.360   2.886  3.0012 -0.3401 -0.0195
  166SAPE     P18582   1.462   5.503   2.643 -0.1234  0.1208 -0.1287
  166SAPE   O1318583   1.604   5.476   2.620  0.3844  0.4039  0.1647
  166SAPE   O1418584   1.393   5.577   2.532  0.0034  0.0754  0.5207
  166SAPE   O1218585   1.382   5.369   2.681 -0.0823 -0.1646  0.3398
  166SAPE   O1118586   1.447   5.598   2.772 -0.3789  0.1332 -0.1438
  166SAPE    C118587   1.311   5.624   2.813 -1.0592  0.7915  0.3511
  166SAPE    HA18588   1.259   5.682   2.734 -0.1220  0.3878 -0.5831
  166SAPE    HB18589   1.253   5.531   2.827  1.2662 -1.3028 -2.7084
  166SAPE    C218590   1.319   5.703   2.949  0.3348 -0.2668 -0.1058
  166SAPE    HS18591   1.372   5.801   2.942  1.2039 -0.5501  1.8668
  166SAPE   O2118592   1.381   5.618   3.043 -0.5556 -0.1465  0.3976
  166SAPE   C2118593   1.427   5.675   3.158  0.4567 -0.2643  0.0395
  166SAPE   O2218594   1.423   5.795   3.178  0.1885  0.5630  0.2160
  166SAPE   C2218595   1.477   5.565   3.253 -0.4089 -0.3946  0.6703
  166SAPE   H2R18596   1.565   5.619   3.295 -0.4904 -0.2915  0.7078
  166SAPE   H2S18597   1.395   5.550   3.327  0.6985 -1.0601  1.8103
  166SAPE    C318598   1.175   5.735   3.000 -0.7473  0.1448  0.6425
  166SAPE    HX18599   1.122   5.637   2.991  1.1407 -1.2951  3.5214
  166SAPE    HY18600   1.134   5.810   2.930  0.0403 -0.3200 -0.3360
  166SAPE   O3118601   1.153   5.767   3.143 -0.3724 -0.7796 -0.1804
  166SAPE   C3118602   1.125   5.892   3.166 -0.1580 -0.9256 -0.8387
  166SAPE   O3218603   1.134   5.981   3.088 -0.1765  0.2113  0.3896
  166SAPE   C3218604   1.104   5.910   3.321 -0.1165 -0.5061  0.2108
  166SAPE   H2X18605   1.202   5.887   3.368  0.1809 -0.0610 -0.1829
  166SAPE   H2Y18606   1.018   5.846   3.350 -1.7825  1.0122 -1.1286
  166SAPE   C2318607   1.520   5.427   3.190  0.0554  0.2601 -0.1731
  166SAPE   H3R18608   1.553   5.450   3.086  1.4649  1.3711  0.4998
  166SAPE   H3S18609   1.437   5.353   3.198  2.2756 -2.2485  1.3877
  166SAPE   C2418610   1.625   5.361   3.275 -0.0386  0.0724 -0.6453
  166SAPE   H4R18611   1.714   5.426   3.264 -0.4176  0.6650 -0.3031
  166SAPE   H4S18612   1.651   5.259   3.241  0.6753  0.0984 -0.2031
  166SAPE   C2518613   1.583   5.335   3.421 -0.3012  0.3412  0.3817
  166SAPE   H5R18614   1.485   5.285   3.419  0.5077 -1.4034  1.5933
  166SAPE   C2618615   1.634   5.381   3.535 -0.3730  0.7111  0.5834
  166SAPE   H6R18616   1.587   5.364   3.633 -1.0628  0.2644  0.1843
  166SAPE   C2718617   1.768   5.451   3.537  0.0243 -1.1331  0.0151
  166SAPE   H7R18618   1.829   5.434   3.445  0.0379  0.2384 -0.2386
  166SAPE   H7S18619   1.829   5.401   3.616  0.5085  0.0173  0.3827
  166SAPE   C2818620   1.755   5.604   3.558 -0.3006  0.3782 -0.1906
  166SAPE   H8R18621   1.749   5.656   3.461 -0.2814 -1.6849 -1.3490
  166SAPE   C2918622   1.774   5.674   3.676  1.0371  0.0384  0.0152
  166SAPE   H9R18623   1.772   5.783   3.663  0.6856  0.2385  1.5832
  166SAPE  C21018624   1.783   5.617   3.817 -1.3362  0.0743  0.2945
  166SAPE  H10R18625   1.877   5.659   3.858 -0.9192 -1.3357  0.8287
  166SAPE  H10S18626   1.800   5.507   3.821 -2.4208 -0.1370 -0.4032
  166SAPE  C21118627   1.676   5.645   3.914  0.1210  0.1469  0.0979
  166SAPE  H11R18628   1.580   5.597   3.890 -0.3685  0.4442  1.3729
  166SAPE  C21218629   1.681   5.703   4.040  0.0569  0.4149  0.3927
  166SAPE  H12R18630   1.586   5.723   4.093 -0.1324 -0.0854  0.2534
  166SAPE  C21318631   1.803   5.751   4.112  0.4591 -0.3869  0.3358
  166SAPE  H13R18632   1.817   5.859   4.090 -1.7657 -0.1864 -0.3243
  166SAPE  H13S18633   1.899   5.697   4.093  1.6437  1.9317 -0.7574
  166SAPE  C21418634   1.788   5.729   4.254 -0.5800 -0.1203 -0.4311
  166SAPE  H14R18635   1.792   5.623   4.281 -0.1410 -0.2581 -1.0238
  166SAPE  C21518636   1.770   5.827   4.345 -0.6359  0.2248  0.2449
  166SAPE  H15R18637   1.764   5.795   4.450 -0.7682  0.3204  0.2662
  166SAPE  C21618638   1.766   5.975   4.334 -0.1749  0.1007 -0.3643
  166SAPE  H16R18639   1.670   6.003   4.383 -0.7100 -1.0949 -0.6859
  166SAPE  H16S18640   1.751   5.994   4.226 -0.5204  0.5892 -0.2293
  166SAPE  C21718641   1.879   6.049   4.394 -0.2423  0.1576 -0.8079
  166SAPE  H17R18642   1.870   6.153   4.356 -3.0028  0.3269  0.0610
  166SAPE  H17S18643   1.977   6.015   4.356  0.8340  2.8168 -0.6672
  166SAPE  C21818644   1.888   6.040   4.544  0.4495  0.1141 -0.0622
  166SAPE  H18R18645   1.883   5.933   4.576 -3.1425 -1.0245 -3.5524
  166SAPE  H18S18646   1.809   6.106   4.585  1.6670  3.3236 -2.4482
  166SAPE  C21918647   2.021   6.093   4.597 -0.3507 -0.0474 -0.1967
  166SAPE  H19R18648   2.099   6.036   4.542 -1.9777  0.2024 -2.9689
  166SAPE  H19S18649   2.032   6.063   4.703  0.6166  1.1960  0.0856
  166SAPE  C22018650   2.038   6.240   4.574 -0.6180 -0.1805 -0.6292
  166SAPE  H20R18651   2.142   6.272   4.597 -0.7105 -0.4361  0.1616
  166SAPE  H20S18652   1.969   6.294   4.642  0.9396 -1.5802  2.2627
  166SAPE  H20T18653   2.034   6.271   4.467  0.6113  2.0670 -0.0951
  166SAPE   C3318654   1.045   6.051   3.363  0.0370  0.4867  0.1659
  166SAPE   H3X18655   0.939   6.059   3.332  0.6013  0.3668 -1.9352
  166SAPE   H3Y18656   1.116   6.120   3.313  1.6617 -0.9664  0.3762
  166SAPE   C3418657   1.051   6.055   3.518 -0.0085  0.9345  0.3609
  166SAPE   H4X18658   1.066   6.161   3.547  1.2637  1.5107 -2.1171
  166SAPE   H4Y18659   1.142   5.999   3.549 -0.0395  1.8034  2.1518
  166SAPE   C3518660   0.926   6.004   3.587 -0.1519  0.2848  0.3248
  166SAPE   H5X18661   0.926   5.900   3.551  0.5504  0.7724 -1.1510
  166SAPE   H5Y18662   0.829   6.056   3.571 -1.1584 -1.6704 -0.1597
  166SAPE   C3618663   0.949   5.979   3.730 -0.3283  0.6756 -0.7922
  166SAPE   H6X18664   1.041   5.917   3.737  1.1853  2.9082  0.1468
  166SAPE   H6Y18665   0.865   5.922   3.776  0.9355 -1.2718 -0.7975
  166SAPE   C3718666   0.978   6.111   3.809 -0.2680  0.3916  0.1305
  166SAPE   H7X18667   0.895   6.178   3.779 -2.2957 -1.9065  0.2279
  166SAPE   H7Y18668   1.080   6.143   3.779 -1.1448  1.5292 -1.8612
  166SAPE   C3818669   0.984   6.096   3.968 -0.4544 -0.4206  0.0884
  166SAPE   H8X18670   1.080   6.051   4.001 -0.5159 -1.0704 -0.6022
  166SAPE   H8Y18671   0.903   6.022   3.987  1.1133 -1.8958  1.2751
  166SAPE   C3918672   0.969   6.233   4.041 -0.2257 -0.1695 -0.4083
  166SAPE   H9X18673   0.936   6.205   4.143  0.2296 -2.0435 -0.7413
  166SAPE   H9Y18674   0.884   6.284   3.990 -0.6969  0.5654  1.0597
  166SAPE  C31018675   1.103   6.306   4.050  0.1487  0.2772 -0.0440
  166SAPE  H10X18676   1.112   6.359   3.952 -3.8507 -2.2623 -2.0410
  166SAPE  H10Y18677   1.181   6.227   4.041 -0.7457 -0.4354 -2.2658
  166SAPE  C31118678   1.125   6.396   4.168 -0.3941 -0.0160 -0.5986
  166SAPE  H11X18679   1.234   6.415   4.176 -0.4246  0.4121 -1.0841
  166SAPE  H11Y18680   1.102   6.338   4.260  1.6386 -2.9126 -1.7568
  166SAPE  C31218681   1.052   6.527   4.152  0.0648  0.1502 -0.6862
  166SAPE  H12X18682   0.945   6.515   4.177 -0.4564  1.9815 -1.8928
  166SAPE  H12Y18683   1.057   6.545   4.043 -1.6260 -1.9777 -1.1842
  166SAPE  C31318684   1.108   6.650   4.220  0.7575 -0.6142 -0.0347
  166SAPE  H13X18685   1.059   6.733   4.165  2.3478 -0.7766 -1.7804
  166SAPE  H13Y18686   1.215   6.650   4.191  0.5396  1.0131 -0.9668
  166SAPE  C31418687   1.079   6.647   4.375 -0.1832  0.5498  0.2022
  166SAPE  H14X18688   1.092   6.542   4.408 -1.0689  0.3973  0.0778
  166SAPE  H14Y18689   0.972   6.674   4.383 -0.4680  0.4261 -2.3060
  166SAPE  C31518690   1.167   6.751   4.454 -0.8655 -0.4186 -0.1625
  166SAPE  H15X18691   1.171   6.845   4.396  0.7928  0.4788  1.3142
  166SAPE  H15Y18692   1.272   6.714   4.459 -1.0609 -1.2968 -1.7316
  166SAPE  C31618693   1.128   6.783   4.602 -0.3000  0.1266 -0.0733
  166SAPE  H16X18694   1.183   6.876   4.627 -0.5041  0.6279 -1.3798
  166SAPE  H16Y18695   1.166   6.709   4.675  0.0084 -1.3900 -1.7097
  166SAPE  C31718696   0.981   6.814   4.632 -0.5098  0.2951 -0.1134
  166SAPE  H17X18697   0.923   6.724   4.604 -0.7842  0.2054  0.6959
  166SAPE  H17Y18698   0.937   6.908   4.592  1.1703  0.7479 -0.9786
  166SAPE  C31818699   0.971   6.816   4.785 -0.4846  1.1810  0.1509
  166SAPE  H18X18700   1.027   6.741   4.844 -0.8575 -0.4400 -1.4744
  166SAPE  H18Y18701   0.863   6.801   4.806 -1.0134  2.6112 -1.3503
  166SAPE  H18Z18702   0.995   6.910   4.839 -0.5340  0.8359  0.7823
  167SAPE     N18703   1.595   4.555   2.364 -0.2509  0.9478  0.5112
  167SAPE   HN118704   1.685   4.608   2.372  0.4844 -0.2367  0.3332
  167SAPE   HN218705   1.512   4.615   2.379  1.0574  2.6331  1.4915
  167SAPE   HN318706   1.588   4.498   2.451  0.0247  1.7079  1.0382
  167SAPE   C1218707   1.578   4.454   2.250  0.4907  1.0148 -0.0159
  167SAPE  H12A18708   1.637   4.365   2.279  0.4508  1.2945  0.9833
  167SAPE  H12B18709   1.613   4.492   2.152  0.9280  1.8519  0.4504
  167SAPE   C1118710   1.432   4.414   2.247  0.2673 -0.3602 -0.0150
  167SAPE  H11A18711   1.409   4.335   2.171 -2.6613  0.3881 -0.0359
  167SAPE  H11B18712   1.380   4.508   2.219  1.3173  0.2616  0.0732
  167SAPE     P18713   1.247   4.393   2.437  0.3536  0.1727  0.2547
  167SAPE   O1318714   1.259   4.402   2.581 -0.3616 -0.3202  0.4229
  167SAPE   O1418715   1.180   4.494   2.360  0.6597  0.0212 -0.1674
  167SAPE   O1218716   1.399   4.368   2.377  0.6708 -0.5750 -0.1809
  167SAPE   O1118717   1.162   4.265   2.415  0.3227  0.2215 -0.5067
  167SAPE    C118718   1.217   4.144   2.361  0.0309  0.9549  0.1184
  167SAPE    HA18719   1.150   4.100   2.283  0.2081 -0.3632  0.6862
  167SAPE    HB18720   1.312   4.154   2.304  0.2945 -1.1850  0.1225
  167SAPE    C218721   1.228   4.027   2.465  0.1708  0.2127 -0.3167
  167SAPE    HS18722   1.276   3.941   2.414 -1.2150 -0.1986 -0.9858
  167SAPE   O2118723   1.093   3.996   2.504 -0.1835  0.3903  0.2519
  167SAPE   C2118724   1.050   3.873   2.509 -0.5847 -0.4111 -1.3018
  167SAPE   O2218725   1.112   3.779   2.467  0.7898  0.4821 -0.1927
  167SAPE   C2218726   0.914   3.868   2.574  0.2783 -0.3859  0.1419
  167SAPE   H2R18727   0.855   3.932   2.505 -0.4622 -0.5829  0.5853
  167SAPE   H2S18728   0.868   3.770   2.551  1.3957 -0.4262 -2.3037
  167SAPE    C318729   1.306   4.066   2.591  0.5342 -0.4588  0.5032
  167SAPE    HX18730   1.239   4.132   2.650 -1.9252 -0.5198 -2.0129
  167SAPE    HY18731   1.399   4.115   2.554  0.4430 -2.0972 -2.1597
  167SAPE   O3118732   1.328   3.945   2.673 -0.1171 -0.1069 -0.5410
  167SAPE   C3118733   1.418   3.852   2.648 -0.5952 -1.2330 -0.1892
  167SAPE   O3218734   1.486   3.847   2.544 -0.1674 -0.5669 -0.5653
  167SAPE   C3218735   1.418   3.749   2.756  0.3515 -0.4028 -0.1155
  167SAPE   H2X18736   1.343   3.763   2.837  1.6232  1.6881  0.7971
  167SAPE   H2Y18737   1.514   3.763   2.810  1.8147 -1.7296 -2.2377
  167SAPE   C2318738   0.910   3.915   2.723 -0.8281  0.1157  0.6721
  167SAPE   H3R18739   0.806   3.902   2.759 -1.1101 -0.5049 -0.3272
  167SAPE   H3S18740   0.931   4.024   2.712 -1.7296  0.1536 -0.9376
  167SAPE   C2418741   1.013   3.847   2.814  0.0947 -0.3627 -0.1460
  167SAPE   H4R18742   1.010   3.906   2.908  0.6880  0.0291 -0.3656
  167SAPE   H4S18743   1.114   3.859   2.768 -0.4296  0.6255 -1.0801
  167SAPE   C2518744   0.996   3.699   2.851  0.6816 -0.5343  0.0044
  167SAPE   H5R18745   0.962   3.636   2.767 -1.1529  0.2493  0.1092
  167SAPE   C2618746   0.995   3.648   2.980  0.9852  0.3902 -0.9925
  167SAPE   H6R18747   0.974   3.541   2.995  1.4369  0.3183 -0.8501
  167SAPE   C2718748   1.026   3.723   3.106 -0.0369 -0.1164  0.0568
  167SAPE   H7R18749   1.097   3.808   3.104 -0.3839  0.2012  0.7002
  167SAPE   H7S18750   1.068   3.648   3.177  2.7823  1.2443 -0.0337
  167SAPE   C2818751   0.897   3.780   3.162  0.2671  0.7151 -1.3132
  167SAPE   H8R18752   0.832   3.843   3.099 -2.4196  0.7373  1.2352
  167SAPE   C2918753   0.862   3.769   3.297 -0.3490 -0.8770 -0.1164
  167SAPE   H9R18754   0.763   3.799   3.337  0.1128 -1.8531  1.9073
  167SAPE  C21018755   0.942   3.690   3.403 -0.3591  0.0517  0.8054
  167SAPE  H10R18756   0.985   3.598   3.358  0.0250  0.8843 -0.5723
  167SAPE  H10S18757   0.871   3.649   3.478 -2.5054  1.1487 -0.5003
  167SAPE  C21118758   1.035   3.788   3.472 -0.5068  0.2411  0.6638
  167SAPE  H11R18759   1.068   3.870   3.405  0.2830 -0.7198 -0.1552
  167SAPE  C21218760   1.101   3.765   3.590  0.4141  0.2621 -0.3739
  167SAPE  H12R18761   1.170   3.836   3.637  0.2221  1.1505 -1.4110
  167SAPE  C21318762   1.082   3.647   3.679 -0.0053  0.5603 -0.0413
  167SAPE  H13R18763   1.178   3.622   3.730 -1.9608  0.7713  4.0676
  167SAPE  H13S18764   1.054   3.553   3.628 -2.0081 -0.3189  2.4794
  167SAPE  C21418765   0.973   3.675   3.783  0.1135 -1.0905  0.0971
  167SAPE  H14R18766   0.887   3.730   3.740  1.7976 -0.8742 -3.3376
  167SAPE  C21518767   0.986   3.672   3.911  0.2281 -1.1725 -0.8405
  167SAPE  H15R18768   0.902   3.714   3.968  1.1274  0.6069 -0.7421
  167SAPE  C21618769   1.095   3.617   3.999 -0.2727 -0.2346 -0.3392
  167SAPE  H16R18770   1.157   3.535   3.958  0.3927  0.5996 -1.0366
  167SAPE  H16S18771   1.042   3.559   4.078 -1.4846  1.2526 -0.0154
  167SAPE  C21718772   1.192   3.728   4.047  0.1313 -0.4066 -1.1638
  167SAPE  H17R18773   1.135   3.810   4.095 -2.3686 -1.9330 -1.2781
  167SAPE  H17S18774   1.227   3.770   3.950  0.6438 -1.3719 -1.4096
  167SAPE  C21818775   1.312   3.674   4.134  0.3087  0.0239  0.0876
  167SAPE  H18R18776   1.390   3.751   4.153  0.0030  0.3405  0.0753
  167SAPE  H18S18777   1.353   3.585   4.084 -1.0649 -1.0987  0.8738
  167SAPE  C21918778   1.273   3.636   4.274 -0.0679  0.1570 -0.6516
  167SAPE  H19R18779   1.369   3.628   4.328  2.1928 -0.5809 -4.3863
  167SAPE  H19S18780   1.236   3.532   4.287  2.2672 -0.5998  0.4504
  167SAPE  C22018781   1.173   3.731   4.356  0.5150  0.1456  0.8573
  167SAPE  H20R18782   1.200   3.838   4.366  0.1707  0.2397  0.7871
  167SAPE  H20S18783   1.161   3.694   4.460  1.7309 -3.0078  0.0134
  167SAPE  H20T18784   1.069   3.723   4.318  0.8359  1.5642 -0.4296
  167SAPE   C3318785   1.424   3.605   2.697  0.4429 -1.0055  0.2308
  167SAPE   H3X18786   1.512   3.600   2.629  0.0414  1.0785 -0.5195
  167SAPE   H3Y18787   1.328   3.570   2.654 -0.5228 -0.7727  2.0695
  167SAPE   C3418788   1.446   3.519   2.816  0.8366 -0.0627 -0.2756
  167SAPE   H4X18789   1.514   3.560   2.894  0.5303 -2.1889  1.1885
  167SAPE   H4Y18790   1.492   3.423   2.784  1.9300  0.7379 -1.2151
  167SAPE   C3518791   1.319   3.486   2.892  0.7365  0.5972  0.4655
  167SAPE   H5X18792   1.240   3.458   2.819 -0.4516  0.0783  1.8986
  167SAPE   H5Y18793   1.280   3.579   2.938  1.1403  1.8985 -1.6993
  167SAPE   C3618794   1.344   3.381   3.000  0.7440 -0.4872  0.3478
  167SAPE   H6X18795   1.423   3.409   3.074  2.1627 -1.9802 -0.5438
  167SAPE   H6Y18796   1.375   3.284   2.955 -2.1182 -1.0292 -0.6377
  167SAPE   C3718797   1.221   3.351   3.089  0.2153 -0.1028  0.6252
  167SAPE   H7X18798   1.131   3.309   3.039 -0.9644  1.3091  1.5057
  167SAPE   H7Y18799   1.188   3.447   3.135 -1.6823 -0.3693 -0.1030
  167SAPE   C3818800   1.257   3.249   3.194 -0.0521  0.5778  0.0836
  167SAPE   H8X18801   1.346   3.277   3.253 -0.0930 -2.4436  1.7932
  167SAPE   H8Y18802   1.259   3.145   3.156 -0.7250  0.6924 -0.3020
  167SAPE   C3918803   1.149   3.261   3.307  0.3899  0.5144 -0.0708
  167SAPE   H9X18804   1.054   3.231   3.257  0.5462 -0.2793  0.1001
  167SAPE   H9Y18805   1.133   3.367   3.337  0.8618  0.6423 -0.2635
  167SAPE  C31018806   1.190   3.185   3.434  0.0670  0.6009 -0.6932
  167SAPE  H10X18807   1.228   3.084   3.407  2.2702  0.2388  2.9800
  167SAPE  H10Y18808   1.100   3.173   3.498 -0.4287  0.5969 -1.3839
  167SAPE  C31118809   1.299   3.259   3.523 -0.6808 -0.3886 -0.1946
  167SAPE  H11X18810   1.279   3.367   3.508  0.3343 -0.3459 -1.3905
  167SAPE  H11Y18811   1.398   3.250   3.474  0.1101  0.7410  1.1310
  167SAPE  C31218812   1.297   3.238   3.678 -0.1885 -0.2791 -0.5744
  167SAPE  H12X18813   1.224   3.303   3.730  1.6770 -0.3076  2.3064
  167SAPE  H12Y18814   1.396   3.265   3.720  0.7885 -0.5225 -2.5716
  167SAPE  C31318815   1.244   3.095   3.731 -0.0387 -0.4572  0.8181
  167SAPE  H13X18816   1.297   3.019   3.670 -1.3895 -0.2005 -0.7403
  167SAPE  H13Y18817   1.135   3.097   3.709  0.4864  0.6068 -2.2628
  167SAPE  C31418818   1.284   3.054   3.867 -0.1020  0.1929  0.7846
  167SAPE  H14X18819   1.394   3.042   3.869 -0.1068  0.1626  0.9595
  167SAPE  H14Y18820   1.251   2.950   3.892 -0.5148  0.4598  1.3986
  167SAPE  C31518821   1.259   3.145   3.992  0.1719 -0.3337 -0.4120
  167SAPE  H15X18822   1.153   3.179   3.995  0.4373  0.4669 -0.1637
  167SAPE  H15Y18823   1.320   3.235   3.972  1.7538 -1.3546 -0.3374
  167SAPE  C31618824   1.297   3.076   4.121 -0.0103 -0.5643 -0.1061
  167SAPE  H16X18825   1.401   3.036   4.122 -0.3896 -1.6139 -0.9936
  167SAPE  H16Y18826   1.226   2.991   4.130 -1.3265  0.2458 -1.9932
  167SAPE  C31718827   1.285   3.167   4.247  0.0072 -1.1289 -0.1089
  167SAPE  H17X18828   1.333   3.112   4.331  2.4677  0.1815 -0.5527
  167SAPE  H17Y18829   1.180   3.202   4.253  0.1768 -0.6358  0.0094
  167SAPE  C31818830   1.363   3.298   4.246 -0.1723  0.7372  0.0432
  167SAPE  H18X18831   1.472   3.281   4.250 -0.1457  0.5566 -1.0149
  167SAPE  H18Y18832   1.351   3.344   4.346  2.9979  1.1006  0.3569
  167SAPE  H18Z18833   1.338   3.363   4.159  1.0293  0.9269 -0.1736
  168SAPE     N18834   4.118   0.517   2.033  0.0782  0.2367  0.0321
  168SAPE   HN118835   4.061   0.441   2.076  1.3240 -0.4587  0.5040
  168SAPE   HN218836   4.057   0.578   1.975  1.6709 -0.6798 -2.8146
  168SAPE   HN318837   4.185   0.474   1.967 -0.2454  0.1388 -0.2334
  168SAPE   C1218838   4.195   0.603   2.129 -0.0380  0.4640 -0.2330
  168SAPE  H12A18839   4.247   0.681   2.070  1.1605  0.0070  0.1839
  168SAPE  H12B18840   4.271   0.536   2.175  0.3840  1.2598  0.2538
  168SAPE   C1118841   4.104   0.659   2.230  0.2708  0.1472 -0.7923
  168SAPE  H11A18842   4.035   0.723   2.171 -0.6830 -1.4155 -1.4376
  168SAPE  H11B18843   4.157   0.729   2.299  0.1666 -1.4737  1.0193
  168SAPE     P18844   3.973   0.593   2.440 -0.3933 -0.1533  0.2881
  168SAPE   O1318845   3.878   0.702   2.411  1.2586  0.2290 -0.0139
  168SAPE   O1418846   3.923   0.474   2.505 -0.3155 -0.2915 -0.0147
  168SAPE   O1218847   4.045   0.557   2.297  0.2016  0.0579 -0.5300
  168SAPE   O1118848   4.095   0.645   2.518 -0.2109 -0.1239  0.0920
  168SAPE    C118849   4.085   0.763   2.601 -0.9291  0.7343 -0.0306
  168SAPE    HA18850   4.175   0.826   2.581 -0.8579  0.3386 -1.0181
  168SAPE    HB18851   3.995   0.827   2.590 -1.0257  1.1779  2.6943
  168SAPE    C218852   4.089   0.713   2.743 -0.3924 -1.0882 -0.1726
  168SAPE    HS18853   4.186   0.661   2.757  0.2676  0.1143 -0.1780
  168SAPE   O2118854   3.975   0.629   2.778 -0.0434 -0.3203 -0.7455
  168SAPE   C2118855   3.999   0.536   2.872 -0.6219  0.3778  0.4312
  168SAPE   O2218856   4.101   0.535   2.942  0.5056 -0.2015  0.4062
  168SAPE   C2218857   3.886   0.439   2.872  0.2599 -0.1316  0.0350
  168SAPE   H2R18858   3.789   0.492   2.863  0.7663  1.4026  2.5583
  168SAPE   H2S18859   3.896   0.373   2.783 -1.6049 -0.4538  0.0197
  168SAPE    C318860   4.092   0.836   2.830 -0.1619 -0.2464  0.7982
  168SAPE    HX18861   3.995   0.890   2.819  0.4497  0.7441  0.1282
  168SAPE    HY18862   4.181   0.887   2.790  0.0683 -2.2807 -1.4947
  168SAPE   O3118863   4.097   0.808   2.969 -0.4274  0.0199  0.5193
  168SAPE   C3118864   4.208   0.863   3.042  0.1802 -0.7460  0.3513
  168SAPE   O3218865   4.296   0.924   2.985  0.4477 -0.0323 -0.5640
  168SAPE   C3218866   4.198   0.840   3.189 -0.0462 -0.6566 -0.2588
  168SAPE   H2X18867   4.145   0.744   3.206 -1.6085  0.3333  0.7903
  168SAPE   H2Y18868   4.140   0.924   3.233 -0.7876  0.1305 -2.6071
  168SAPE   C2318869   3.886   0.357   2.999  0.3200 -0.0537  0.0279
  168SAPE   H3R18870   3.983   0.303   3.000  0.9055  0.9561  1.2775
  168SAPE   H3S18871   3.813   0.276   2.977 -1.7006  2.1956 -2.1852
  168SAPE   C2418872   3.846   0.427   3.133 -0.3618  0.8591 -0.5912
  168SAPE   H4R18873   3.756   0.492   3.128 -0.4131  1.0766  1.7872
  168SAPE   H4S18874   3.924   0.498   3.165  1.6384 -0.7834 -1.5955
  168SAPE   C2518875   3.821   0.323   3.239  0.1717 -0.4887 -0.3748
  168SAPE   H5R18876   3.909   0.258   3.252 -0.2529 -1.2229 -1.0300
  168SAPE   C2618877   3.712   0.304   3.314 -0.0171 -0.7797  0.4097
  168SAPE   H6R18878   3.711   0.220   3.385  1.3057 -3.0017 -2.0213
  168SAPE   C2718879   3.582   0.383   3.307  0.6782 -0.6476 -0.7231
  168SAPE   H7R18880   3.565   0.458   3.226  1.1238 -1.0575 -1.2064
  168SAPE   H7S18881   3.573   0.447   3.397  1.1082 -1.7188  0.0851
  168SAPE   C2818882   3.459   0.295   3.316 -0.5254 -0.2272 -0.0343
  168SAPE   H8R18883   3.420   0.257   3.220 -1.0089  2.2685 -0.8909
  168SAPE   C2918884   3.396   0.256   3.431 -0.1279  0.4015  0.7654
  168SAPE   H9R18885   3.302   0.198   3.441  0.5251 -0.8553 -0.1043
  168SAPE  C21018886   3.452   0.291   3.570 -0.5816  1.0413 -0.2171
  168SAPE  H10R18887   3.411   0.389   3.603 -0.3578  0.9088  0.4856
  168SAPE  H10S18888   3.561   0.309   3.557 -0.5024  0.3789 -0.5352
  168SAPE  C21118889   3.447   0.188   3.682  0.3457  0.0879 -0.6664
  168SAPE  H11R18890   3.468   0.083   3.656 -3.1044 -1.6771  2.6685
  168SAPE  C21218891   3.423   0.209   3.816  1.2185  0.4286 -0.2990
  168SAPE  H12R18892   3.422   0.122   3.884  0.3461  2.2510  2.1609
  168SAPE  C21318893   3.370   0.331   3.887 -0.8465  0.0343  0.2927
  168SAPE  H13R18894   3.406   0.419   3.830  1.0891 -0.7592  0.1953
  168SAPE  H13S18895   3.418   0.340   3.986 -1.5108  0.8586  0.5455
  168SAPE  C21418896   3.222   0.334   3.902  0.9117 -0.4903 -0.4626
  168SAPE  H14R18897   3.162   0.294   3.819 -2.9843  0.9904  1.3781
  168SAPE  C21518898   3.149   0.359   4.010  0.2175  0.2009 -0.2075
  168SAPE  H15R18899   3.041   0.345   4.001  0.1385  0.1283  0.7477
  168SAPE  C21618900   3.186   0.408   4.152 -0.3995  0.9968 -0.0733
  168SAPE  H16R18901   3.142   0.501   4.191  0.9046  1.1863  1.0101
  168SAPE  H16S18902   3.297   0.411   4.157 -0.3764  1.9662 -0.9524
  168SAPE  C21718903   3.160   0.304   4.266 -0.2102  0.3767  0.6574
  168SAPE  H17R18904   3.211   0.343   4.357 -1.8870 -0.8966  2.2144
  168SAPE  H17S18905   3.209   0.211   4.232 -2.2505 -0.9671  1.2408
  168SAPE  C21818906   3.012   0.271   4.291  0.8350 -0.0428  0.3499
  168SAPE  H18R18907   2.984   0.202   4.209 -0.3701  0.0423  0.6698
  168SAPE  H18S18908   2.951   0.363   4.281 -1.0956 -1.2999  0.0170
  168SAPE  C21918909   2.990   0.217   4.431  0.4218 -0.3952  0.1384
  168SAPE  H19R18910   2.881   0.216   4.451  0.1296 -0.9591 -1.3540
  168SAPE  H19S18911   3.042   0.283   4.505 -0.9636  0.2430  0.5801
  168SAPE  C22018912   3.049   0.077   4.454  0.0856 -0.4942 -0.0438
  168SAPE  H20R18913   3.153   0.062   4.419  1.1473 -1.4333  3.1493
  168SAPE  H20S18914   2.990   0.008   4.390  0.1262  0.2650 -0.9259
  168SAPE  H20T18915   3.044   0.047   4.561 -4.4456  0.7205  0.2849
  168SAPE   C3318916   4.336   0.838   3.255  0.0356  0.1844 -0.1972
  168SAPE   H3X18917   4.389   0.936   3.255  0.2036  0.2837  3.9932
  168SAPE   H3Y18918   4.406   0.771   3.202 -2.5165 -2.0441 -0.9452
  168SAPE   C3418919   4.335   0.785   3.403  0.2473 -0.8932 -1.2552
  168SAPE   H4X18920   4.272   0.695   3.416 -3.0380  1.4079  0.2391
  168SAPE   H4Y18921   4.274   0.865   3.451 -1.6599 -2.4952 -0.8745
  168SAPE   C3518922   4.477   0.771   3.453  0.6413 -0.3917  0.1514
  168SAPE   H5X18923   4.535   0.865   3.446 -0.8185  0.4314 -1.6308
  168SAPE   H5Y18924   4.535   0.697   3.395 -0.0465 -0.4247 -0.5105
  168SAPE   C3618925   4.489   0.706   3.592 -0.1127  0.7696  0.1592
  168SAPE   H6X18926   4.425   0.616   3.601  1.9770 -0.7857  0.1609
  168SAPE   H6Y18927   4.440   0.777   3.663 -2.1798 -0.1635 -0.2936
  168SAPE   C3718928   4.633   0.665   3.626 -0.6020  0.0227 -0.5509
  168SAPE   H7X18929   4.695   0.757   3.622 -2.8399  1.6296  0.1076
  168SAPE   H7Y18930   4.674   0.596   3.549  1.9902  0.6675  0.1640
  168SAPE   C3818931   4.635   0.601   3.768  0.5410 -0.6240  0.0360
  168SAPE   H8X18932   4.702   0.512   3.772 -0.1257 -1.1073  0.6501
  168SAPE   H8Y18933   4.541   0.543   3.785  1.0461 -1.2641  0.7119
  168SAPE   C3918934   4.679   0.691   3.886 -0.3371 -1.1328 -0.1350
  168SAPE   H9X18935   4.597   0.764   3.898  0.3586 -0.4029  0.2309
  168SAPE   H9Y18936   4.775   0.739   3.856  0.5266 -2.3859  0.5181
  168SAPE  C31018937   4.718   0.605   4.015  0.2697 -0.2622  0.0685
  168SAPE  H10X18938   4.738   0.667   4.105 -0.0310  0.6081 -0.4470
  168SAPE  H10Y18939   4.811   0.548   3.994  0.3632 -0.1113  0.0689
  168SAPE  C31118940   4.620   0.494   4.057  0.2018 -0.1773  0.7318
  168SAPE  H11X18941   4.606   0.414   3.982  1.5018 -1.3592  1.6869
  168SAPE  H11Y18942   4.515   0.531   4.065 -0.3628 -1.7476  0.8445
  168SAPE  C31218943   4.673   0.430   4.187 -0.1358  0.4955 -0.0872
  168SAPE  H12X18944   4.651   0.496   4.274 -0.2023  1.2913 -0.7009
  168SAPE  H12Y18945   4.781   0.407   4.176 -0.3501  0.0752 -1.6084
  168SAPE  C31318946   4.609   0.295   4.209 -0.1120  0.2861  0.8261
  168SAPE  H13X18947   4.624   0.248   4.109 -1.3234  0.5882  0.4864
  168SAPE  H13Y18948   4.501   0.301   4.233 -0.3500 -0.6285  0.0638
  168SAPE  C31418949   4.677   0.216   4.324  0.2595  0.0477 -0.5189
  168SAPE  H14X18950   4.669   0.287   4.408 -1.2272  2.4679 -2.5476
  168SAPE  H14Y18951   4.786   0.202   4.313 -0.1142 -4.6803 -0.2455
  168SAPE  C31518952   4.607   0.076   4.356  0.9543 -0.3430  0.2446
  168SAPE  H15X18953   4.607   0.016   4.263  1.2108 -1.1523  0.7620
  168SAPE  H15Y18954   4.503   0.111   4.373  1.6213  1.2710  1.2176
  168SAPE  C31618955   4.657   0.021   4.492 -0.5934  0.0928  0.2160
  168SAPE  H16X18956   4.690   0.103   4.559  1.1943 -1.0260  0.7650
  168SAPE  H16Y18957   4.753  -0.027   4.463 -1.5339 -0.6157 -1.9495
  168SAPE  C31718958   4.568  -0.084   4.558  0.1801 -0.8042 -0.7046
  168SAPE  H17X18959   4.533  -0.137   4.467 -0.6131 -1.0579 -0.2535
  168SAPE  H17Y18960   4.474  -0.044   4.600  1.1262  2.7554 -1.5752
  168SAPE  C31818961   4.647  -0.178   4.654  0.5534  0.0791  0.5221
  168SAPE  H18X18962   4.689  -0.118   4.738  0.6036  1.0704 -0.1944
  168SAPE  H18Y18963   4.734  -0.216   4.598 -0.7043 -1.4848 -0.4449
  168SAPE  H18Z18964   4.584  -0.253   4.708  0.9751  0.9553  2.3115
  169SAPE     N18965   2.518   3.936   2.145  0.1453  0.5520 -0.5737
  169SAPE   HN118966   2.564   3.850   2.107 -1.2072 -0.0943 -0.8118
  169SAPE   HN218967   2.416   3.919   2.134  0.4335 -0.1925 -2.6362
  169SAPE   HN318968   2.528   4.016   2.079  2.5277  1.5966  0.9500
  169SAPE   C1218969   2.566   3.967   2.281  0.2585 -0.8442 -0.0036
  169SAPE  H12A18970   2.675   3.987   2.279 -0.2562  2.6184  0.4316
  169SAPE  H12B18971   2.546   3.879   2.347 -0.4957 -0.8486 -0.2282
  169SAPE   C1118972   2.483   4.078   2.346 -0.1778 -0.5025 -0.2084
  169SAPE  H11A18973   2.494   4.168   2.281 -2.9062 -0.7007 -1.0614
  169SAPE  H11B18974   2.530   4.088   2.446 -0.0057 -3.2345  0.0416
  169SAPE     P18975   2.281   3.935   2.434  0.1298  0.0401 -0.1452
  169SAPE   O1318976   2.142   3.979   2.456  0.1439 -0.2016  0.3330
  169SAPE   O1418977   2.310   3.806   2.366  0.8640  0.8881 -0.2477
  169SAPE   O1218978   2.345   4.044   2.338  0.1668  0.4931 -0.1348
  169SAPE   O1118979   2.368   3.944   2.563  0.6968  0.0120  0.4641
  169SAPE    C118980   2.302   3.978   2.693  0.1607 -0.0139  0.3153
  169SAPE    HA18981   2.200   3.932   2.694 -0.2022  0.6479 -1.9417
  169SAPE    HB18982   2.356   3.929   2.777  1.2950 -0.3930 -0.6247
  169SAPE    C218983   2.291   4.128   2.706 -0.0694 -0.1959 -0.0210
  169SAPE    HS18984   2.203   4.161   2.647 -0.8981 -1.5652  0.4060
  169SAPE   O2118985   2.420   4.191   2.676 -0.5886 -0.6077 -0.1743
  169SAPE   C2118986   2.397   4.314   2.620  0.0248 -0.0225  0.5102
  169SAPE   O2218987   2.285   4.363   2.602 -0.6547 -0.3860  0.1319
  169SAPE   C2218988   2.529   4.384   2.593  0.1614  0.1375  0.7093
  169SAPE   H2R18989   2.606   4.353   2.668  1.2605 -2.5909 -1.3643
  169SAPE   H2S18990   2.564   4.352   2.492 -0.6918  1.8807 -0.1761
  169SAPE    C318991   2.253   4.165   2.852  0.4125  0.4935  0.7535
  169SAPE    HX18992   2.240   4.275   2.860 -0.5382  0.2746  3.0717
  169SAPE    HY18993   2.333   4.141   2.926  0.6393 -0.3775  0.2346
  169SAPE   O3118994   2.131   4.100   2.896  0.1154  0.7068  0.5216
  169SAPE   C3118995   2.015   4.160   2.884 -0.9381 -0.1254 -0.8979
  169SAPE   O3218996   2.014   4.282   2.851  0.2539  0.0188 -0.3390
  169SAPE   C3218997   1.901   4.070   2.912  0.2888 -0.4981  0.3445
  169SAPE   H2X18998   1.896   4.067   3.023  1.2715 -1.8305  0.3660
  169SAPE   H2Y18999   1.923   3.966   2.881 -0.8641 -0.4693 -0.6735
  169SAPE   C2319000   2.515   4.536   2.589  0.2844 -0.2889 -0.8647
  169SAPE   H3R19001   2.440   4.560   2.511  0.2197 -1.5756 -1.2169
  169SAPE   H3S19002   2.612   4.586   2.566  0.9429 -1.4096 -0.5675
  169SAPE   C2419003   2.460   4.609   2.719  0.0326 -0.1997 -0.2070
  169SAPE   H4R19004   2.352   4.633   2.713 -0.4047 -1.7909  0.6641
  169SAPE   H4S19005   2.519   4.703   2.723 -2.1769  1.2160  0.3804
  169SAPE   C2519006   2.495   4.538   2.850 -0.0218  0.2478  0.5886
  169SAPE   H5R19007   2.599   4.502   2.857 -0.0209 -0.0771 -0.8607
  169SAPE   C2619008   2.419   4.534   2.960  0.6223  0.4534  0.0231
  169SAPE   H6R19009   2.450   4.468   3.043  0.4746  1.2818  0.7551
  169SAPE   C2719010   2.277   4.577   2.973  0.6991  0.2922 -0.4068
  169SAPE   H7R19011   2.213   4.486   2.971 -1.0890  1.5039 -0.4871
  169SAPE   H7S19012   2.237   4.628   2.883  0.9546 -0.5834 -1.0251
  169SAPE   C2819013   2.258   4.664   3.099 -0.0837  0.5433  0.2599
  169SAPE   H8R19014   2.315   4.757   3.112 -0.1298  0.3483  1.9983
  169SAPE   C2919015   2.179   4.626   3.200  0.9420 -0.1727  1.2711
  169SAPE   H9R19016   2.172   4.701   3.281 -2.5929  1.5087 -0.3309
  169SAPE  C21019017   2.088   4.508   3.236  0.4262  1.0740 -0.5351
  169SAPE  H10R19018   2.032   4.481   3.144 -0.8197  0.8057  0.2731
  169SAPE  H10S19019   2.000   4.540   3.295 -0.3070 -0.8788 -0.4997
  169SAPE  C21119020   2.145   4.381   3.294 -0.0050  0.4949  0.4659
  169SAPE  H11R19021   2.249   4.380   3.330  0.5095 -0.2244 -0.9666
  169SAPE  C21219022   2.075   4.277   3.329  0.7308  0.0624 -0.9699
  169SAPE  H12R19023   2.125   4.181   3.346 -0.1494 -0.0676  1.1836
  169SAPE  C21319024   1.922   4.265   3.314 -1.1783 -0.7096  0.2520
  169SAPE  H13R19025   1.880   4.302   3.217 -1.8316  0.6154  1.0039
  169SAPE  H13S19026   1.874   4.332   3.389 -1.5006 -0.3535 -0.2646
  169SAPE  C21419027   1.880   4.119   3.329  0.0471 -0.1701  0.3628
  169SAPE  H14R19028   1.884   4.073   3.229  2.0592 -1.6557  1.0377
  169SAPE  C21519029   1.855   4.044   3.440  0.1932  0.7325  0.0848
  169SAPE  H15R19030   1.823   3.939   3.430  0.7004  0.5280  0.5220
  169SAPE  C21619031   1.852   4.098   3.581  0.3379 -0.0118  0.1289
  169SAPE  H16R19032   1.762   4.065   3.636  0.4570 -0.6490 -0.0494
  169SAPE  H16S19033   1.851   4.209   3.593  0.1121 -0.1478  1.4935
  169SAPE  C21719034   1.974   4.053   3.662  0.5236  0.2436  0.0838
  169SAPE  H17R19035   2.064   4.104   3.621 -0.8835  1.0680 -2.1936
  169SAPE  H17S19036   1.991   3.944   3.662 -1.0354 -0.0282  0.0151
  169SAPE  C21819037   1.976   4.093   3.811  0.4241  0.0167 -0.1149
  169SAPE  H18R19038   1.994   4.203   3.807 -2.4894  0.6624  1.7500
  169SAPE  H18S19039   2.062   4.039   3.856  0.8826  0.3350 -0.5948
  169SAPE  C21919040   1.841   4.075   3.886 -0.7855  0.4559  1.1460
  169SAPE  H19R19041   1.789   3.983   3.851  1.4741 -0.0870 -1.0508
  169SAPE  H19S19042   1.762   4.146   3.851  0.2587  0.7408 -0.7473
  169SAPE  C22019043   1.861   4.077   4.040  0.2101 -0.3263 -0.0455
  169SAPE  H20R19044   1.930   4.162   4.061 -2.0284  1.1538  1.9364
  169SAPE  H20S19045   1.920   3.991   4.078  0.4861  0.6699  1.9237
  169SAPE  H20T19046   1.773   4.096   4.106  0.2303  2.3401 -0.6753
  169SAPE   C3319047   1.758   4.122   2.864 -0.1890  0.7214  0.3542
  169SAPE   H3X19048   1.769   4.139   2.755 -0.5986  0.5119  0.2763
  169SAPE   H3Y19049   1.735   4.216   2.918 -0.4679 -0.0269  1.5938
  169SAPE   C3419050   1.650   4.015   2.900  0.7650  0.1636 -0.5464
  169SAPE   H4X19051   1.681   3.928   2.837  0.5676 -1.1184  1.0550
  169SAPE   H4Y19052   1.550   4.045   2.864 -0.3920  0.9548  2.9618
  169SAPE   C3519053   1.645   3.977   3.046  0.0482 -0.2485  0.0418
  169SAPE   H5X19054   1.635   4.072   3.103 -0.1749  1.2197 -2.3095
  169SAPE   H5Y19055   1.740   3.931   3.079  0.4325 -0.3032 -1.1130
  169SAPE   C3619056   1.546   3.870   3.074  0.8824 -0.3116 -0.3319
  169SAPE   H6X19057   1.559   3.788   3.001  0.6353 -0.4713 -0.1999
  169SAPE   H6Y19058   1.444   3.913   3.068  0.6140 -0.7186  0.8482
  169SAPE   C3719059   1.560   3.818   3.215  0.5061  0.1241  0.4801
  169SAPE   H7X19060   1.582   3.901   3.286  1.3245 -0.6339  1.1491
  169SAPE   H7Y19061   1.646   3.748   3.224  1.6811  1.2942 -1.1125
  169SAPE   C3819062   1.449   3.731   3.259  0.3010  0.2807 -0.9528
  169SAPE   H8X19063   1.422   3.662   3.176 -1.2867 -1.1256  0.6417
  169SAPE   H8Y19064   1.363   3.796   3.286 -0.3950 -0.7039 -0.7267
  169SAPE   C3919065   1.487   3.643   3.385 -0.0147 -0.4631  0.3608
  169SAPE   H9X19066   1.566   3.566   3.373 -0.0443 -0.4374 -0.0086
  169SAPE   H9Y19067   1.390   3.600   3.418 -0.5255  1.3116  1.2898
  169SAPE  C31019068   1.539   3.720   3.510  0.2057  0.1892 -0.1228
  169SAPE  H10X19069   1.483   3.816   3.517  0.7720  0.6066 -1.0748
  169SAPE  H10Y19070   1.645   3.753   3.504  0.4615 -0.5629  0.1198
  169SAPE  C31119071   1.533   3.638   3.641 -0.1414  0.4319  0.3497
  169SAPE  H11X19072   1.553   3.534   3.610 -0.7322  0.1155  1.0176
  169SAPE  H11Y19073   1.432   3.632   3.687 -1.3153 -0.1324 -2.1845
  169SAPE  C31219074   1.633   3.698   3.741 -0.6590 -0.1819  0.3931
  169SAPE  H12X19075   1.610   3.807   3.747 -1.2605 -0.3560  1.6731
  169SAPE  H12Y19076   1.736   3.697   3.699 -0.6640  0.5016  0.3538
  169SAPE  C31319077   1.628   3.646   3.883 -0.5683  0.2244 -0.0932
  169SAPE  H13X19078   1.669   3.543   3.889  2.2129  1.3280  1.3963
  169SAPE  H13Y19079   1.521   3.636   3.913 -0.5608  0.0049 -0.1415
  169SAPE  C31419080   1.699   3.738   3.985 -0.1534  0.6837 -0.4266
  169SAPE  H14X19081   1.642   3.833   3.979  0.4623  1.0467 -0.6541
  169SAPE  H14Y19082   1.803   3.758   3.952  0.2361  1.3844  1.1530
  169SAPE  C31519083   1.692   3.684   4.127  0.0014 -0.0083 -0.2656
  169SAPE  H15X19084   1.763   3.600   4.136  0.1460  0.3175  2.2530
  169SAPE  H15Y19085   1.589   3.643   4.132 -1.0490  2.2997 -1.3246
  169SAPE  C31619086   1.729   3.781   4.238 -0.1524  0.1307  0.4761
  169SAPE  H16X19087   1.728   3.886   4.201  1.7358 -0.9279 -3.0444
  169SAPE  H16Y19088   1.831   3.762   4.278 -1.0626 -4.8436  1.0585
  169SAPE  C31719089   1.635   3.781   4.361  0.1216 -0.1389  0.1107
  169SAPE  H17X19090   1.534   3.814   4.330  0.1626 -0.4656 -0.3821
  169SAPE  H17Y19091   1.666   3.862   4.431 -2.1168 -1.5044  2.8997
  169SAPE  C31819092   1.624   3.645   4.433  1.0065 -0.4254  0.2845
  169SAPE  H18X19093   1.713   3.612   4.491  1.9563  0.9450 -0.3261
  169SAPE  H18Y19094   1.597   3.556   4.372 -1.1115  1.4959 -1.8054
  169SAPE  H18Z19095   1.542   3.660   4.506  3.2100  3.5721  2.2839
  170SAPE     N19096   0.367   0.818   2.099  0.0817  0.3555  0.2259
  170SAPE   HN119097   0.342   0.721   2.126 -1.9019  1.0023  0.8440
  170SAPE   HN219098   0.425   0.816   2.013 -1.3134  0.8870 -0.7667
  170SAPE   HN319099   0.423   0.858   2.176  0.0868 -0.4731  0.6661
  170SAPE   C1219100   0.244   0.897   2.070  0.3408 -0.2173 -0.4383
  170SAPE  H12A19101   0.178   0.831   2.011  1.6676 -1.8481 -0.1561
  170SAPE  H12B19102   0.267   0.983   2.003 -2.8002  1.8271  0.8712
  170SAPE   C1119103   0.175   0.928   2.204 -0.3028  0.6562  0.5953
  170SAPE  H11A19104   0.077   0.974   2.180  0.6043  2.5189  0.2931
  170SAPE  H11B19105   0.232   1.003   2.264  0.8950 -0.5191  0.9844
  170SAPE     P19106   0.083   0.813   2.422  0.4971  0.1714 -0.1862
  170SAPE   O1319107   0.036   0.946   2.460  0.5587 -0.0817 -0.1819
  170SAPE   O1419108  -0.017   0.704   2.426  0.1564 -0.0330  0.4634
  170SAPE   O1219109   0.161   0.810   2.282 -0.7254  0.2282  0.0924
  170SAPE   O1119110   0.205   0.776   2.518 -0.1124 -0.0529 -0.4340
  170SAPE    C119111   0.210   0.652   2.588 -0.3439 -0.4905  1.1113
  170SAPE    HA19112   0.179   0.570   2.520  0.0937  0.7857 -0.6846
  170SAPE    HB19113   0.317   0.633   2.610  0.0260 -1.4649 -1.2308
  170SAPE    C219114   0.124   0.649   2.717  0.2604 -0.6349 -0.6271
  170SAPE    HS19115   0.023   0.635   2.675  0.2900  0.1484 -0.9778
  170SAPE   O2119116   0.116   0.782   2.780  0.5394 -0.9083  0.0251
  170SAPE   C2119117   0.040   0.794   2.891 -0.2181 -0.4912  0.0970
  170SAPE   O2219118  -0.030   0.704   2.939  0.0099 -0.2692  0.3360
  170SAPE   C2219119   0.051   0.933   2.954  0.1077  0.1192  0.3398
  170SAPE   H2R19120   0.044   1.008   2.872 -3.0345 -0.4739 -0.0734
  170SAPE   H2S19121  -0.036   0.952   3.021  0.0291  3.0170 -0.4427
  170SAPE    C319122   0.161   0.524   2.811 -0.0222 -0.0686  1.1968
  170SAPE    HX19123   0.177   0.434   2.748 -4.6207 -0.0589 -0.3333
  170SAPE    HY19124   0.079   0.500   2.882 -0.7357  3.1118  1.5632
  170SAPE   O3119125   0.266   0.559   2.897 -1.1582 -0.0297  0.1005
  170SAPE   C3119126   0.389   0.509   2.878 -0.6599 -0.1024  0.4591
  170SAPE   O3219127   0.420   0.418   2.802 -0.2563  0.1793 -0.0869
  170SAPE   C3219128   0.495   0.595   2.959  0.0047 -0.3413 -0.2782
  170SAPE   H2X19129   0.437   0.655   3.033  0.7208  1.0855 -0.8298
  170SAPE   H2Y19130   0.533   0.677   2.894 -0.3715 -1.3558 -1.8241
  170SAPE   C2319131   0.176   0.950   3.048 -0.3842  0.0462  0.2152
  170SAPE   H3R19132   0.170   1.038   3.115  0.7997  0.1088  0.2517
  170SAPE   H3S19133   0.264   0.960   2.981 -0.9534  0.5268 -0.4742
  170SAPE   C2419134   0.211   0.836   3.146  0.3717  0.1098 -0.2051
  170SAPE   H4R19135   0.304   0.857   3.202 -0.3810  0.1903  1.0295
  170SAPE   H4S19136   0.231   0.741   3.090 -1.7119 -0.4627 -0.0536
  170SAPE   C2519137   0.101   0.806   3.241  0.0136 -0.1114  1.0276
  170SAPE   H5R19138   0.020   0.749   3.193 -0.3367  2.2332 -1.3901
  170SAPE   C2619139   0.083   0.862   3.361  0.0743  0.5126  0.1627
  170SAPE   H6R19140  -0.012   0.843   3.414  0.6219 -0.8152  0.7164
  170SAPE   C2719141   0.179   0.949   3.433 -0.7402  0.7892 -0.1473
  170SAPE   H7R19142   0.138   1.047   3.465  0.0298  1.1185 -0.1424
  170SAPE   H7S19143   0.270   0.992   3.386  0.7952  2.3074  3.7880
  170SAPE   C2819144   0.244   0.881   3.548  0.3997 -0.7375 -0.4644
  170SAPE   H8R19145   0.319   0.809   3.514  1.1191 -0.5511  0.6705
  170SAPE   C2919146   0.210   0.880   3.682  0.1972 -0.0898  0.1685
  170SAPE   H9R19147   0.272   0.826   3.756 -1.1478 -2.6076 -0.4420
  170SAPE  C21019148   0.088   0.949   3.743 -0.7777  0.2699 -0.7074
  170SAPE  H10R19149   0.044   0.867   3.804 -0.0490 -1.4615 -2.3901
  170SAPE  H10S19150   0.006   0.973   3.673 -1.7004  0.6281  0.4675
  170SAPE  C21119151   0.125   1.066   3.839  0.4844  0.1745  0.2684
  170SAPE  H11R19152   0.123   1.169   3.800 -2.1199  0.1379  0.1212
  170SAPE  C21219153   0.145   1.054   3.973 -0.0283  0.5967  0.5302
  170SAPE  H12R19154   0.186   1.143   4.023  2.8739 -0.5779  0.4407
  170SAPE  C21319155   0.148   0.933   4.060  0.5655  0.6252 -0.2233
  170SAPE  H13R19156   0.081   0.860   4.008  1.8091  0.7954 -2.1881
  170SAPE  H13S19157   0.103   0.943   4.161  0.6580  1.6542 -0.2738
  170SAPE  C21419158   0.287   0.876   4.069  0.4631  0.3072  0.2632
  170SAPE  H14R19159   0.356   0.907   3.990 -0.0759  2.2051  0.4957
  170SAPE  C21519160   0.327   0.787   4.158  0.3237  0.1751  0.4739
  170SAPE  H15R19161   0.427   0.743   4.144 -0.2660 -1.0897  0.1837
  170SAPE  C21619162   0.250   0.739   4.278 -0.3104 -0.1101  0.2850
  170SAPE  H16R19163   0.265   0.629   4.287 -0.1949 -0.1917 -0.8308
  170SAPE  H16S19164   0.141   0.758   4.267  0.0895  1.9928 -0.4856
  170SAPE  C21719165   0.302   0.801   4.404  1.6203  0.4631  0.1838
  170SAPE  H17R19166   0.286   0.911   4.408 -0.6293  0.1455  2.1046
  170SAPE  H17S19167   0.409   0.778   4.421  1.1215 -1.2834  1.3144
  170SAPE  C21819168   0.223   0.737   4.527 -0.0055  0.2303  0.2255
  170SAPE  H18R19169   0.228   0.626   4.519 -0.7817  0.2162 -0.1741
  170SAPE  H18S19170   0.118   0.764   4.501 -0.6066 -0.2417  1.9805
  170SAPE  C21919171   0.263   0.776   4.663  0.6463  0.6013 -0.2576
  170SAPE  H19R19172   0.256   0.885   4.682 -0.7370  1.1658 -3.3489
  170SAPE  H19S19173   0.368   0.748   4.685 -0.0506 -1.1291  1.0234
  170SAPE  C22019174   0.183   0.695   4.764 -0.0784 -0.5694 -0.0144
  170SAPE  H20R19175   0.192   0.586   4.744  1.8215 -0.1726 -1.6915
  170SAPE  H20S19176   0.077   0.723   4.749 -0.1074 -1.0751 -0.7810
  170SAPE  H20T19177   0.220   0.737   4.861  1.5851 -1.4000 -0.2477
  170SAPE   C3319178   0.601   0.515   3.036 -0.0161  0.5215  0.0829
  170SAPE   H3X19179   0.669   0.461   2.967 -0.6103  0.3326 -0.3628
  170SAPE   H3Y19180   0.561   0.433   3.100  0.8618  0.6165  0.7841
  170SAPE   C3419181   0.687   0.616   3.119 -0.3397 -0.0409 -0.8970
  170SAPE   H4X19182   0.722   0.703   3.059 -1.0213  1.5952  0.9728
  170SAPE   H4Y19183   0.784   0.567   3.141 -0.5944 -0.6061 -1.0072
  170SAPE   C3519184   0.616   0.644   3.247  0.3922 -0.1055 -0.6942
  170SAPE   H5X19185   0.582   0.545   3.284  1.6857 -0.5845 -0.7621
  170SAPE   H5Y19186   0.528   0.713   3.241  1.1496  1.1839  1.5561
  170SAPE   C3619187   0.713   0.700   3.357 -0.2989  0.1644 -0.3694
  170SAPE   H6X19188   0.756   0.790   3.308 -1.7652  1.4669  0.6468
  170SAPE   H6Y19189   0.799   0.634   3.380 -0.4788  0.2110  0.4436
  170SAPE   C3719190   0.642   0.734   3.488  0.3385  0.5086  0.0146
  170SAPE   H7X19191   0.581   0.645   3.516 -2.0416  2.0053 -0.1031
  170SAPE   H7Y19192   0.564   0.809   3.466  0.0136 -0.0897 -0.9356
  170SAPE   C3819193   0.738   0.781   3.600  0.3599 -0.4566 -0.9202
  170SAPE   H8X19194   0.789   0.876   3.576  0.6133 -0.1361  0.8108
  170SAPE   H8Y19195   0.812   0.700   3.621  0.8485  0.4532  1.0196
  170SAPE   C3919196   0.657   0.799   3.736  0.1139 -0.1385  0.1134
  170SAPE   H9X19197   0.595   0.712   3.764 -1.7323  0.6831 -1.1581
  170SAPE   H9Y19198   0.587   0.882   3.711  1.6862  0.4896 -2.6943
  170SAPE  C31019199   0.745   0.848   3.850 -0.6517  0.9542  0.2326
  170SAPE  H10X19200   0.773   0.954   3.831 -1.9141  0.9842 -1.7659
  170SAPE  H10Y19201   0.832   0.781   3.861 -1.8059 -0.6604 -0.1173
  170SAPE  C31119202   0.672   0.848   3.988  0.7888 -0.1291 -0.8096
  170SAPE  H11X19203   0.612   0.757   4.011  1.3060  0.0136  1.3438
  170SAPE  H11Y19204   0.593   0.925   3.977  0.3919 -0.9009 -4.7797
  170SAPE  C31219205   0.767   0.867   4.111  0.3228 -0.0395  0.3459
  170SAPE  H12X19206   0.822   0.963   4.097  1.6182 -0.3880  2.5905
  170SAPE  H12Y19207   0.835   0.780   4.105  0.6125  0.2918 -2.6914
  170SAPE  C31319208   0.691   0.881   4.244 -0.6376 -0.1376  0.2013
  170SAPE  H13X19209   0.627   0.790   4.252 -0.9168 -0.0705 -1.1061
  170SAPE  H13Y19210   0.616   0.963   4.245  0.3130  0.8120 -1.7830
  170SAPE  C31419211   0.774   0.898   4.375 -0.5087  0.3016  0.5013
  170SAPE  H14X19212   0.832   0.993   4.370  0.4312 -0.3297 -2.4009
  170SAPE  H14Y19213   0.857   0.825   4.372 -0.4082  0.4499 -1.0923
  170SAPE  C31519214   0.687   0.869   4.499  0.0409 -0.1667 -0.3250
  170SAPE  H15X19215   0.673   0.759   4.494 -0.1792 -0.4993  3.9692
  170SAPE  H15Y19216   0.589   0.916   4.478 -0.1884 -0.4515  0.0960
  170SAPE  C31619217   0.750   0.918   4.629 -0.0362 -0.1797  0.0407
  170SAPE  H16X19218   0.752   1.029   4.633  1.4299 -0.2127  1.0268
  170SAPE  H16Y19219   0.858   0.892   4.628  0.1448  0.5419  0.1819
  170SAPE  C31719220   0.683   0.857   4.744 -0.1485 -0.1489  0.6554
  170SAPE  H17X19221   0.691   0.747   4.739  2.5982  0.0099 -2.3212
  170SAPE  H17Y19222   0.574   0.875   4.742 -0.7138 -2.2047  4.4602
  170SAPE  C31819223   0.734   0.914   4.877 -0.0391 -0.2401 -0.4416
  170SAPE  H18X19224   0.711   1.022   4.890  0.8395 -0.1405  0.3870
  170SAPE  H18Y19225   0.844   0.900   4.882 -0.3965 -4.2969 -0.8451
  170SAPE  H18Z19226   0.678   0.852   4.950  1.1222 -1.5804 -0.6575
  171SAPE     N19227   1.068   1.015   2.018  0.2228 -0.4270  0.0448
  171SAPE   HN119228   1.119   1.034   1.929 -0.3822 -1.9070 -0.6617
  171SAPE   HN219229   1.064   1.100   2.078  1.1323  0.7380 -1.4638
  171SAPE   HN319230   1.132   0.958   2.076  2.5291  0.5297 -1.4324
  171SAPE   C1219231   0.932   0.964   1.985  0.1317  0.6817  0.1721
  171SAPE  H12A19232   0.921   0.863   2.029  1.1512  0.7111  0.5036
  171SAPE  H12B19233   0.923   0.961   1.875  0.2648  0.8332  0.1559
  171SAPE   C1119234   0.816   1.042   2.052  0.8719 -0.3696  0.3300
  171SAPE  H11A19235   0.721   1.018   2.000  0.3621  2.0057  0.0253
  171SAPE  H11B19236   0.841   1.150   2.049  1.3163 -0.4817 -0.1390
  171SAPE     P19237   0.695   0.912   2.250 -0.1007  0.2946  0.4422
  171SAPE   O1319238   0.564   0.970   2.224  0.2771  0.4790  0.3650
  171SAPE   O1419239   0.722   0.773   2.207 -0.0693  0.0394  0.0876
  171SAPE   O1219240   0.805   1.008   2.190 -0.3295  0.1494 -0.3036
  171SAPE   O1119241   0.718   0.917   2.404  0.0229 -0.5044 -0.2208
  171SAPE    C119242   0.763   1.036   2.472 -0.1606  0.6016  0.1194
  171SAPE    HA19243   0.792   1.111   2.395 -3.2718 -0.9494 -2.8355
  171SAPE    HB19244   0.680   1.078   2.533 -0.7964 -1.1305  0.5187
  171SAPE    C219245   0.889   1.007   2.562  0.0190  0.2491  0.0984
  171SAPE    HS19246   0.867   0.918   2.625  1.8766 -1.4319 -1.4786
  171SAPE   O2119247   0.911   1.131   2.637  0.2188  0.1218 -0.0335
  171SAPE   C2119248   0.843   1.134   2.746 -0.4146 -0.5506 -0.0825
  171SAPE   O2219249   0.770   1.048   2.789  0.4698  0.3508 -0.0403
  171SAPE   C2219250   0.902   1.245   2.837  0.4523  0.6309  0.6364
  171SAPE   H2R19251   0.826   1.325   2.840  0.7014  0.9085 -0.0778
  171SAPE   H2S19252   0.901   1.200   2.938 -0.0326 -2.3124 -0.5713
  171SAPE    C319253   1.005   0.975   2.465 -0.4147 -0.0429 -0.2797
  171SAPE    HX19254   1.003   1.061   2.394  0.8435 -0.7338 -1.1845
  171SAPE    HY19255   0.991   0.884   2.403 -2.1310 -0.9153  1.2922
  171SAPE   O3119256   1.131   0.958   2.530  0.0941  0.4788  0.3264
  171SAPE   C3119257   1.209   1.061   2.539 -0.6571  0.4034 -0.7836
  171SAPE   O3219258   1.192   1.169   2.491 -0.1104  0.0985  1.1089
  171SAPE   C3219259   1.330   1.022   2.631 -0.1453 -0.1885 -0.4472
  171SAPE   H2X19260   1.384   0.938   2.582  1.2459  0.9641 -0.9515
  171SAPE   H2Y19261   1.279   0.985   2.723  0.0148  0.3309 -0.1418
  171SAPE   C2319262   1.052   1.281   2.800  0.2869  0.3110  0.1999
  171SAPE   H3R19263   1.047   1.335   2.702 -2.1852 -1.3662 -0.6785
  171SAPE   H3S19264   1.111   1.187   2.788  1.6685  1.3804 -2.2529
  171SAPE   C2419265   1.127   1.362   2.908  0.1440 -0.6144 -0.6250
  171SAPE   H4R19266   1.233   1.383   2.883  0.6652 -2.7059 -0.3635
  171SAPE   H4S19267   1.127   1.305   3.004  0.2059 -0.3900 -0.4916
  171SAPE   C2519268   1.072   1.500   2.917 -1.0153 -0.4015  0.1337
  171SAPE   H5R19269   1.053   1.551   2.822  1.0347  1.7055  0.7498
  171SAPE   C2619270   1.019   1.561   3.029  0.6252  0.0008 -0.0494
  171SAPE   H6R19271   0.973   1.661   3.027  0.9850  0.2142  1.2579
  171SAPE   C2719272   1.020   1.499   3.166  0.1738 -0.2030 -0.6378
  171SAPE   H7R19273   1.086   1.410   3.172  0.6233  0.1877  0.4373
  171SAPE   H7S19274   0.916   1.466   3.188  0.7799 -0.3036  2.5103
  171SAPE   C2819275   1.068   1.596   3.269 -0.8566 -0.0179  0.0010
  171SAPE   H8R19276   1.175   1.595   3.291 -0.0105  0.2044 -3.4183
  171SAPE   C2919277   0.991   1.667   3.352  0.4279 -0.0867 -0.3366
  171SAPE   H9R19278   1.038   1.745   3.413 -0.1882  1.1076 -1.3500
  171SAPE  C21019279   0.841   1.684   3.354 -0.0761 -0.0452 -0.1118
  171SAPE  H10R19280   0.808   1.659   3.251  2.4756  0.2769 -1.0871
  171SAPE  H10S19281   0.795   1.782   3.380 -0.0290  0.0648 -0.4257
  171SAPE  C21119282   0.779   1.576   3.452 -1.2909 -0.8357  0.6431
  171SAPE  H11R19283   0.766   1.475   3.411  1.2399 -1.2881  0.7982
  171SAPE  C21219284   0.765   1.594   3.582 -0.1621 -0.3157 -0.0485
  171SAPE  H12R19285   0.722   1.516   3.647 -1.2599  0.8484  0.6695
  171SAPE  C21319286   0.793   1.724   3.649  0.5887 -0.5974 -0.8448
  171SAPE  H13R19287   0.703   1.789   3.656  0.1210 -1.4111  3.6329
  171SAPE  H13S19288   0.863   1.787   3.589 -0.3801 -0.1414 -1.5183
  171SAPE  C21419289   0.837   1.703   3.794 -0.2198  0.4592 -0.5777
  171SAPE  H14R19290   0.928   1.647   3.820 -0.7413 -1.1892 -2.1104
  171SAPE  C21519291   0.775   1.755   3.905  0.0714 -0.0048  0.2211
  171SAPE  H15R19292   0.826   1.736   4.000 -0.1831  0.6563  0.4980
  171SAPE  C21619293   0.655   1.850   3.910  0.3954 -0.3137  0.3823
  171SAPE  H16R19294   0.651   1.910   3.816  2.2581 -0.2173  0.3242
  171SAPE  H16S19295   0.658   1.920   3.996  1.1301 -0.4957  0.5126
  171SAPE  C21719296   0.529   1.760   3.930  0.1432 -0.7331  0.6410
  171SAPE  H17R19297   0.531   1.693   3.841  2.1586 -1.4309  1.1366
  171SAPE  H17S19298   0.431   1.811   3.926  0.0303 -1.0320 -1.7492
  171SAPE  C21819299   0.532   1.660   4.046 -0.5745 -0.4910  0.2824
  171SAPE  H18R19300   0.618   1.593   4.025  0.4056  1.0485 -0.8424
  171SAPE  H18S19301   0.439   1.600   4.043 -0.3945 -0.7935  0.7565
  171SAPE  C21919302   0.554   1.738   4.177 -0.6275 -0.0035  0.0921
  171SAPE  H19R19303   0.472   1.812   4.192  0.4443  0.8596  1.8821
  171SAPE  H19S19304   0.649   1.794   4.167 -1.0765  1.0800  1.5148
  171SAPE  C22019305   0.545   1.644   4.297  0.6210 -0.8864  0.6533
  171SAPE  H20R19306   0.638   1.584   4.306 -0.3908 -2.3727  1.4096
  171SAPE  H20S19307   0.470   1.567   4.273  0.6388  0.0148 -3.0058
  171SAPE  H20T19308   0.506   1.701   4.384 -1.4169  0.9148 -1.2774
  171SAPE   C3319309   1.418   1.147   2.669 -0.8393  0.2271 -0.6884
  171SAPE   H3X19310   1.355   1.229   2.709 -0.2607  1.0656 -1.4743
  171SAPE   H3Y19311   1.473   1.181   2.579 -2.1402 -0.6733 -1.8875
  171SAPE   C3419312   1.514   1.119   2.786 -0.5395 -0.2812 -0.3532
  171SAPE   H4X19313   1.566   1.216   2.801  1.1668 -1.1848 -0.2252
  171SAPE   H4Y19314   1.584   1.035   2.772  2.0672  1.4918  1.1497
  171SAPE   C3519315   1.441   1.094   2.915 -0.0554  0.4659 -0.4564
  171SAPE   H5X19316   1.391   0.995   2.915 -1.9634  1.3722 -1.1898
  171SAPE   H5Y19317   1.366   1.176   2.924  1.2655  2.0931 -3.1233
  171SAPE   C3619318   1.520   1.101   3.036  0.2070 -0.1417  0.1245
  171SAPE   H6X19319   1.544   1.208   3.058  0.0027 -0.1233  0.2548
  171SAPE   H6Y19320   1.612   1.040   3.028  2.3864  2.9157  0.0730
  171SAPE   C3719321   1.437   1.055   3.162  0.0026 -0.4945  0.8140
  171SAPE   H7X19322   1.398   0.954   3.135  2.2086 -1.7713  2.0889
  171SAPE   H7Y19323   1.350   1.123   3.175  0.0577 -0.6293  2.0108
  171SAPE   C3819324   1.525   1.048   3.276  0.2667  0.0475 -0.6304
  171SAPE   H8X19325   1.574   1.147   3.292 -1.3311  0.6159  1.2470
  171SAPE   H8Y19326   1.606   0.973   3.266  1.1482  0.9173 -0.2795
  171SAPE   C3919327   1.433   1.018   3.399 -0.7645  0.2732  0.3541
  171SAPE   H9X19328   1.371   0.929   3.373  0.3519 -1.3199  2.8120
  171SAPE   H9Y19329   1.365   1.104   3.418 -1.6805 -0.1036 -1.0242
  171SAPE  C31019330   1.489   1.006   3.540 -0.1502  0.0707 -0.0239
  171SAPE  H10X19331   1.564   0.925   3.542 -0.1355  0.0899  0.5568
  171SAPE  H10Y19332   1.411   0.988   3.617  0.4466 -0.1675  0.5358
  171SAPE  C31119333   1.573   1.125   3.585  0.4718  0.2807  0.3569
  171SAPE  H11X19334   1.505   1.211   3.564 -1.2882 -1.3703 -1.1395
  171SAPE  H11Y19335   1.667   1.134   3.527 -0.9392  0.0826 -2.0743
  171SAPE  C31219336   1.615   1.115   3.733 -0.0805 -0.0949  0.2806
  171SAPE  H12X19337   1.674   1.023   3.751 -2.3333 -1.4377  1.1695
  171SAPE  H12Y19338   1.529   1.114   3.803  1.4371 -0.9901  2.2148
  171SAPE  C31319339   1.711   1.234   3.768 -0.3757 -0.2264  0.2943
  171SAPE  H13X19340   1.647   1.325   3.762 -1.8792 -1.2489  0.3866
  171SAPE  H13Y19341   1.790   1.236   3.690 -0.0115 -3.4729  0.4635
  171SAPE  C31419342   1.760   1.242   3.913  0.0279 -0.2954 -0.4055
  171SAPE  H14X19343   1.672   1.242   3.981  0.7326  0.5657  0.5356
  171SAPE  H14Y19344   1.812   1.340   3.924  0.2200 -0.3624 -0.6917
  171SAPE  C31519345   1.845   1.126   3.965  0.5231  0.1357  0.5390
  171SAPE  H15X19346   1.944   1.126   3.915  1.1131  1.7675  1.5975
  171SAPE  H15Y19347   1.792   1.034   3.932  1.2198  0.0571 -0.3910
  171SAPE  C31619348   1.874   1.128   4.116  0.6174  0.9666 -0.2112
  171SAPE  H16X19349   1.819   1.037   4.149  2.7884 -1.7652 -3.3887
  171SAPE  H16Y19350   1.818   1.211   4.163 -1.5916 -1.0794  1.0112
  171SAPE  C31719351   2.021   1.128   4.160  0.3812 -0.2206 -0.1916
  171SAPE  H17X19352   2.070   1.040   4.114  4.1526  0.4577  2.0564
  171SAPE  H17Y19353   2.033   1.108   4.269 -0.3205 -2.4141 -0.4742
  171SAPE  C31819354   2.094   1.262   4.123 -0.0291 -0.5867 -0.2823
  171SAPE  H18X19355   2.062   1.277   4.018 -2.5040  0.7934  0.5814
  171SAPE  H18Y19356   2.204   1.258   4.138  0.1958  0.9124 -1.3506
  171SAPE  H18Z19357   2.050   1.349   4.175 -0.5698 -0.7722 -0.4176
  172SAPE     N19358   1.844   0.258   2.182 -0.4389 -0.1437 -0.3700
  172SAPE   HN119359   1.781   0.322   2.129  1.6509  0.8816 -1.7706
  172SAPE   HN219360   1.918   0.216   2.122 -1.5340 -2.3416 -0.2472
  172SAPE   HN319361   1.791   0.179   2.222  0.0246 -0.6202 -0.6836
  172SAPE   C1219362   1.901   0.334   2.292 -0.0939 -0.2069  0.2437
  172SAPE  H12A19363   1.989   0.391   2.254  0.2568 -1.5101 -0.9917
  172SAPE  H12B19364   1.950   0.264   2.363  0.5776  0.1147  0.1075
  172SAPE   C1119365   1.797   0.411   2.376  0.5781 -0.2552 -0.6255
  172SAPE  H11A19366   1.832   0.459   2.470  2.8305 -1.0406 -1.0012
  172SAPE  H11B19367   1.727   0.333   2.413 -2.4280  2.6867  0.3029
  172SAPE     P19368   1.756   0.652   2.283  0.2944 -0.0152  0.1555
  172SAPE   O1319369   1.904   0.655   2.258 -0.2812 -0.5937 -0.1715
  172SAPE   O1419370   1.664   0.698   2.177  0.4642 -0.2083  0.0554
  172SAPE   O1219371   1.717   0.500   2.302  0.6384 -0.2305  0.2791
  172SAPE   O1119372   1.719   0.724   2.421 -0.6202 -0.0806 -0.4524
  172SAPE    C119373   1.591   0.707   2.480  0.5712  0.5975  0.6569
  172SAPE    HA19374   1.528   0.793   2.449  0.2604  0.2141  0.2145
  172SAPE    HB19375   1.549   0.608   2.451 -0.8046  1.8243 -1.8498
  172SAPE    C219376   1.607   0.711   2.635  0.0698  0.7446 -0.8867
  172SAPE    HS19377   1.637   0.812   2.669  1.7811 -0.6457  2.1776
  172SAPE   O2119378   1.706   0.615   2.679  0.8514 -0.0740  0.6654
  172SAPE   C2119379   1.781   0.642   2.784  0.3437 -0.0192 -0.2256
  172SAPE   O2219380   1.789   0.748   2.838 -0.3650 -0.2426 -0.0667
  172SAPE   C2219381   1.845   0.511   2.821  0.1769 -0.8061 -0.2767
  172SAPE   H2R19382   1.768   0.432   2.837  0.4071 -1.0158 -0.2138
  172SAPE   H2S19383   1.905   0.476   2.735  0.0190  0.0819 -0.7585
  172SAPE    C319384   1.470   0.687   2.709  0.4123 -0.0749  0.0182
  172SAPE    HX19385   1.434   0.581   2.705 -0.0494  0.0222  1.2087
  172SAPE    HY19386   1.390   0.737   2.650 -1.0718 -2.5646 -0.2515
  172SAPE   O3119387   1.455   0.730   2.850  0.1445 -0.1655 -0.0570
  172SAPE   C3119388   1.501   0.645   2.945  0.0169  0.1611 -0.2724
  172SAPE   O3219389   1.532   0.533   2.917  0.2332  0.3732 -0.0886
  172SAPE   C3219390   1.517   0.711   3.079  0.6392 -0.2697  0.0850
  172SAPE   H2X19391   1.417   0.746   3.112  1.2694 -0.4290  2.3351
  172SAPE   H2Y19392   1.583   0.800   3.070  0.6987 -0.3635 -0.4698
  172SAPE   C2319393   1.932   0.541   2.946 -0.1956  1.0554 -0.3468
  172SAPE   H3R19394   1.973   0.446   2.988  4.1422  2.9569  0.2497
  172SAPE   H3S19395   1.864   0.584   3.024 -0.5178 -2.8755  1.8279
  172SAPE   C2419396   2.058   0.624   2.924 -0.1119  0.2635  0.2517
  172SAPE   H4R19397   2.026   0.722   2.882 -1.3372 -0.6402 -1.0013
  172SAPE   H4S19398   2.120   0.569   2.850 -0.3798  3.6946 -2.8181
  172SAPE   C2519399   2.147   0.650   3.045  0.5436 -0.3173  0.1442
  172SAPE   H5R19400   2.229   0.577   3.056 -0.1999 -2.1667 -4.4141
  172SAPE   C2619401   2.131   0.755   3.129  0.0808  0.2797 -0.3602
  172SAPE   H6R19402   2.209   0.769   3.206 -1.1464  2.0938  0.6292
  172SAPE   C2719403   2.027   0.866   3.128 -0.2831  0.4587  0.2257
  172SAPE   H7R19404   1.951   0.845   3.207  2.9684 -1.8972  3.0571
  172SAPE   H7S19405   1.969   0.857   3.034  0.7466 -0.8985 -0.3101
  172SAPE   C2819406   2.084   1.003   3.139  0.5547 -0.2199  0.3019
  172SAPE   H8R19407   2.133   1.035   3.046  0.4038 -1.0430 -0.0750
  172SAPE   C2919408   2.072   1.085   3.245 -0.6914  0.0004 -0.0726
  172SAPE   H9R19409   2.118   1.185   3.249  2.4757 -1.2200 -2.0093
  172SAPE  C21019410   2.011   1.036   3.378 -0.0689 -0.3664 -0.4123
  172SAPE  H10R19411   2.047   0.933   3.402  1.1047  0.2907  0.7562
  172SAPE  H10S19412   1.900   1.033   3.368 -0.0414 -0.4515 -0.7029
  172SAPE  C21119413   2.054   1.118   3.497 -0.2893  0.1438 -0.1288
  172SAPE  H11R19414   2.112   1.207   3.469 -1.7985  0.5149 -2.3474
  172SAPE  C21219415   2.033   1.082   3.628 -0.1986 -0.2140  0.5864
  172SAPE  H12R19416   2.052   1.163   3.700  1.0803 -1.3819  1.6045
  172SAPE  C21319417   1.973   0.955   3.674  0.0324  0.1238 -0.2151
  172SAPE  H13R19418   1.892   0.933   3.601 -1.8286  0.1858  1.7076
  172SAPE  H13S19419   1.920   0.972   3.771 -0.9680 -0.3718 -0.6644
  172SAPE  C21419420   2.074   0.844   3.679  1.1848  0.2518  0.0743
  172SAPE  H14R19421   2.181   0.867   3.664  1.5332 -1.4502 -0.2822
  172SAPE  C21519422   2.054   0.711   3.694  0.0651  0.7399 -0.4252
  172SAPE  H15R19423   2.132   0.637   3.712 -1.6655 -1.0717 -0.0589
  172SAPE  C21619424   1.920   0.645   3.712  0.2251  0.3052  0.6885
  172SAPE  H16R19425   1.915   0.558   3.642  2.0645  1.8659 -1.5340
  172SAPE  H16S19426   1.839   0.720   3.705  0.1597  0.1459 -0.4661
  172SAPE  C21719427   1.887   0.580   3.849  0.1230  0.4154  0.2120
  172SAPE  H17R19428   1.958   0.495   3.862  0.7181  0.6978 -1.0420
  172SAPE  H17S19429   1.788   0.535   3.830  1.3072 -2.0787 -0.5862
  172SAPE  C21819430   1.897   0.671   3.975 -0.2603  0.3805  0.7613
  172SAPE  H18R19431   1.858   0.774   3.958  0.3058  0.7173  1.4442
  172SAPE  H18S19432   2.007   0.686   3.984  0.2592 -1.7323 -1.1167
  172SAPE  C21919433   1.831   0.602   4.099 -0.3105 -0.0656 -0.9867
  172SAPE  H19R19434   1.721   0.596   4.080 -0.4810  1.8935 -0.8152
  172SAPE  H19S19435   1.839   0.679   4.178 -0.3160 -1.8139  0.8100
  172SAPE  C22019436   1.892   0.470   4.160 -0.5480  1.1447 -0.1059
  172SAPE  H20R19437   1.815   0.423   4.225 -1.4401  3.0141  0.2388
  172SAPE  H20S19438   1.982   0.485   4.223  0.5936 -0.5008 -1.2627
  172SAPE  H20T19439   1.911   0.401   4.075  0.2657  3.5381 -1.9733
  172SAPE   C3319440   1.559   0.616   3.197  0.5917 -0.2828  0.0764
  172SAPE   H3X19441   1.665   0.588   3.179  1.1215  1.7341 -0.1157
  172SAPE   H3Y19442   1.501   0.521   3.198  0.4383 -0.1932 -0.1512
  172SAPE   C3419443   1.553   0.686   3.327  0.7587 -0.3650 -0.7568
  172SAPE   H4X19444   1.459   0.746   3.329  0.1548 -1.3221  1.3702
  172SAPE   H4Y19445   1.639   0.754   3.346 -0.5732  0.7825  1.4694
  172SAPE   C3519446   1.527   0.587   3.448 -0.0618  0.3324  0.1830
  172SAPE   H5X19447   1.624   0.539   3.469  1.6458  1.9616 -3.2295
  172SAPE   H5Y19448   1.452   0.513   3.412  1.9073 -2.8521  2.1880
  172SAPE   C3619449   1.486   0.641   3.589  0.1601 -0.4360  0.0190
  172SAPE   H6X19450   1.386   0.691   3.584 -0.4018 -1.4005  1.0983
  172SAPE   H6Y19451   1.555   0.725   3.611  0.2361 -0.5013  0.0280
  172SAPE   C3719452   1.480   0.545   3.705 -0.5343  0.4699  0.9264
  172SAPE   H7X19453   1.581   0.508   3.734 -2.3839 -3.0157  3.7312
  172SAPE   H7Y19454   1.412   0.462   3.676  0.2790 -0.8619  2.6035
  172SAPE   C3819455   1.426   0.598   3.827 -0.5914 -0.8599 -0.2939
  172SAPE   H8X19456   1.448   0.523   3.906  1.3363  0.1693  0.1870
  172SAPE   H8Y19457   1.315   0.608   3.824 -0.5966 -0.3193  0.9686
  172SAPE   C3919458   1.486   0.734   3.884 -0.6950 -0.6092 -0.3221
  172SAPE   H9X19459   1.439   0.816   3.826  2.0234  1.8489  0.7001
  172SAPE   H9Y19460   1.595   0.731   3.860  0.0889 -2.9477  2.8526
  172SAPE  C31019461   1.466   0.755   4.039  0.6583 -0.0146  0.2353
  172SAPE  H10X19462   1.530   0.680   4.090 -0.6141 -0.3038  1.4808
  172SAPE  H10Y19463   1.360   0.748   4.071 -0.3607  1.0919 -2.6289
  172SAPE  C31119464   1.518   0.894   4.086  0.0015  0.0323  0.5587
  172SAPE  H11X19465   1.434   0.953   4.042  0.9731  1.7065  0.8577
  172SAPE  H11Y19466   1.620   0.924   4.055  0.5033 -1.5720  0.5579
  172SAPE  C31219467   1.505   0.921   4.240 -0.3431  1.0247  0.4385
  172SAPE  H12X19468   1.427   0.856   4.284  0.3237 -0.7871 -0.9448
  172SAPE  H12Y19469   1.474   1.024   4.269  1.3125  1.6343  0.1602
  172SAPE  C31319470   1.635   0.883   4.313  0.0558 -0.2478 -0.0375
  172SAPE  H13X19471   1.722   0.924   4.259 -1.6719  0.4818 -2.4493
  172SAPE  H13Y19472   1.636   0.772   4.305  0.6952 -0.2187 -0.3867
  172SAPE  C31419473   1.636   0.923   4.462  0.2033  0.1907  0.8030
  172SAPE  H14X19474   1.540   0.897   4.513 -0.7364  1.6376 -0.1426
  172SAPE  H14Y19475   1.624   1.033   4.462 -1.2493  0.1756 -2.7275
  172SAPE  C31519476   1.760   0.891   4.537 -0.0767  0.1591 -0.1158
  172SAPE  H15X19477   1.779   0.783   4.550  1.1285  0.1465 -1.6737
  172SAPE  H15Y19478   1.749   0.935   4.639  0.4578 -1.6240  0.7348
  172SAPE  C31619479   1.892   0.952   4.480  0.2673 -0.3863  0.2560
  172SAPE  H16X19480   1.865   1.053   4.442  0.4282  0.0155  1.1742
  172SAPE  H16Y19481   1.919   0.880   4.400 -0.0623  1.0166 -1.1756
  172SAPE  C31719482   2.001   0.954   4.583 -0.1533 -0.1084  0.1912
  172SAPE  H17X19483   2.096   0.960   4.526 -1.1428  0.3279 -1.4792
  172SAPE  H17Y19484   2.004   0.861   4.645  0.4404  0.6407  1.3222
  172SAPE  C31819485   1.993   1.073   4.677  0.4248  0.1697  0.3081
  172SAPE  H18X19486   1.977   1.168   4.623 -3.1851  0.7639  2.1197
  172SAPE  H18Y19487   2.075   1.084   4.752 -0.3839 -1.2574  1.4630
  172SAPE  H18Z19488   1.897   1.066   4.733  0.0861  0.7709 -0.1943
  173SLPC     N19489   2.455   2.497   6.852 -0.0369 -0.4026  0.1831
  173SLPC   C1319490   2.332   2.581   6.814 -0.4147 -0.0387  0.0897
  173SLPC  H13A19491   2.345   2.681   6.852  2.1492  0.2437 -1.3358
  173SLPC  H13B19492   2.332   2.599   6.707  0.3805  0.5550  0.1890
  173SLPC  H13C19493   2.241   2.528   6.841  0.5801 -1.1690  1.3523
  173SLPC   C1419494   2.441   2.373   6.777 -0.2028  0.5029  0.0566
  173SLPC  H14A19495   2.365   2.312   6.824 -1.5009  0.8890 -1.4854
  173SLPC  H14B19496   2.421   2.393   6.673  0.1212  1.4775  0.1674
  173SLPC  H14C19497   2.535   2.320   6.776 -0.1872  0.4563  1.3729
  173SLPC   C1519498   2.436   2.474   6.998 -0.1547  0.6649  0.4306
  173SLPC  H15A19499   2.432   2.564   7.057 -0.4518  0.4688  0.7047
  173SLPC  H15B19500   2.343   2.421   7.012  0.5180 -1.0402 -1.0300
  173SLPC  H15C19501   2.519   2.419   7.040  1.2386  2.6637  0.4325
  173SLPC   C1219502   2.579   2.584   6.824  0.4168  0.3574 -0.6146
  173SLPC  H12A19503   2.673   2.548   6.863  0.5600  2.1157  0.7922
  173SLPC  H12B19504   2.564   2.675   6.880 -1.3681 -0.3287  0.0934
  173SLPC   C1119505   2.600   2.627   6.679 -0.0631  0.8074  0.1872
  173SLPC  H11A19506   2.586   2.534   6.619 -0.3053  0.8542  0.1727
  173SLPC  H11B19507   2.699   2.670   6.653 -1.1986  2.5395 -1.6310
  173SLPC     P19508   2.507   2.869   6.687  0.0532  0.1497  0.1962
  173SLPC   O1319509   2.377   2.938   6.656 -0.0683  0.1308  0.1461
  173SLPC   O1419510   2.560   2.867   6.828 -0.2025  0.4133  0.2524
  173SLPC   O1219511   2.499   2.719   6.634 -0.1089 -0.2865 -0.2145
  173SLPC   O1119512   2.622   2.941   6.599  0.0687  0.5885  0.6016
  173SLPC    C119513   2.680   2.903   6.477  0.2141  0.3202  0.0392
  173SLPC    HA19514   2.790   2.917   6.481  0.6191 -2.3574  0.1186
  173SLPC    HB19515   2.662   2.794   6.459 -0.0206  0.1330  1.3220
  173SLPC    C219516   2.625   2.987   6.364  0.0485  0.0563 -0.8340
  173SLPC    HS19517   2.654   3.093   6.382 -0.2459 -0.0379  0.2716
  173SLPC   O2119518   2.481   2.973   6.354 -0.0212  0.5110 -0.3618
  173SLPC   C2119519   2.416   3.090   6.310 -1.0280 -0.3593  0.0923
  173SLPC   O2219520   2.458   3.204   6.326 -0.0516  0.2954  0.3027
  173SLPC   C2219521   2.293   3.053   6.236  0.7190  0.2012  0.2815
  173SLPC   H2R19522   2.318   2.969   6.169 -0.5655  1.0928 -1.4069
  173SLPC   H2S19523   2.207   3.026   6.302 -0.7067  1.8883 -0.7784
  173SLPC    C319524   2.683   2.958   6.225 -0.3479 -0.0902 -0.4480
  173SLPC    HX19525   2.646   2.859   6.190  0.9508 -1.2140  1.2186
  173SLPC    HY19526   2.791   2.938   6.236  0.2302  0.8871 -3.4772
  173SLPC   O3119527   2.646   3.059   6.126 -0.4083  0.2973  0.1412
  173SLPC   C3119528   2.739   3.127   6.065  0.2891  0.2489  0.7250
  173SLPC   O3219529   2.858   3.112   6.081  0.1192  0.3031  0.2205
  173SLPC   C3219530   2.680   3.221   5.965 -0.6683 -0.2394 -0.3624
  173SLPC   H2X19531   2.659   3.316   6.020  1.8293  0.3327 -0.2658
  173SLPC   H2Y19532   2.583   3.182   5.925 -2.3117  2.1045  1.0681
  173SLPC   C2319533   2.251   3.185   6.163 -1.3786 -0.5690 -0.6335
  173SLPC   H3R19534   2.251   3.266   6.239  0.4367 -0.1495 -1.0508
  173SLPC   H3S19535   2.144   3.172   6.135 -1.7102 -1.5192  0.9369
  173SLPC   C2419536   2.346   3.229   6.044  0.2739  0.5261 -0.2957
  173SLPC   H4R19537   2.374   3.137   5.988  1.6802  0.7956 -0.0901
  173SLPC   H4S19538   2.437   3.287   6.071  1.3770  0.2474 -3.0427
  173SLPC   C2519539   2.277   3.329   5.954 -0.2894  0.3048 -0.1778
  173SLPC   H5R19540   2.286   3.427   6.007  2.7972 -0.7818  1.5375
  173SLPC   H5S19541   2.174   3.303   5.922 -0.7342  0.0830  1.3348
  173SLPC   C2619542   2.354   3.347   5.825  0.0234  0.6818  0.5481
  173SLPC   H6R19543   2.365   3.255   5.765 -2.4383  1.0758 -0.6391
  173SLPC   H6S19544   2.455   3.374   5.864 -0.3098 -0.7612  2.5860
  173SLPC   C2719545   2.294   3.460   5.744  0.9123 -0.0553  0.8984
  173SLPC   H7R19546   2.296   3.551   5.808 -1.5610 -0.2849  1.3834
  173SLPC   H7S19547   2.188   3.432   5.727  0.4823  1.7595  0.3544
  173SLPC   C2819548   2.365   3.495   5.608  1.4542  0.2134  0.4160
  173SLPC   H8R19549   2.474   3.499   5.629  1.9125 -0.1465 -1.6174
  173SLPC   H8S19550   2.342   3.594   5.564  3.1931 -0.5755 -2.6004
  173SLPC   C2919551   2.330   3.388   5.511 -0.1762 -0.2542 -0.2272
  173SLPC   H9R19552   2.309   3.292   5.561  0.3096  0.0259  0.5227
  173SLPC  C21019553   2.335   3.411   5.380 -0.1889  0.1108  0.1866
  173SLPC  H10R19554   2.296   3.331   5.316 -1.9516  1.8432 -1.0452
  173SLPC  C21119555   2.371   3.539   5.305  0.0497  0.1141  0.0794
  173SLPC  H11R19556   2.458   3.577   5.363  2.7660  0.1676 -3.6651
  173SLPC  H11S19557   2.279   3.600   5.312  0.1667  0.4071 -0.8641
  173SLPC  C21219558   2.430   3.535   5.163  0.0193  0.2937 -0.5554
  173SLPC  H12R19559   2.529   3.582   5.160 -0.0486  0.3887 -1.3350
  173SLPC  C21319560   2.367   3.491   5.055 -0.6117 -0.4194  0.4368
  173SLPC  H13R19561   2.413   3.507   4.956 -1.9621 -1.8446 -0.4820
  173SLPC  C21419562   2.224   3.440   5.049  0.1248 -0.4426 -0.1618
  173SLPC  H14R19563   2.190   3.396   5.145  0.5716 -0.8368 -0.1853
  173SLPC  H14S19564   2.210   3.368   4.966 -1.8940  0.8685 -1.0722
  173SLPC  C21519565   2.126   3.559   5.020  0.8237  0.4490  0.4538
  173SLPC  H15R19566   2.154   3.580   4.914 -0.0413 -1.3755 -0.1734
  173SLPC  H15S19567   2.152   3.647   5.082 -4.1417  0.3393  3.1859
  173SLPC  C21619568   1.975   3.523   5.034 -0.4646  0.0878  0.2480
  173SLPC  H16R19569   1.920   3.618   5.017 -0.2186  0.0174 -1.0371
  173SLPC  H16S19570   1.950   3.493   5.138  1.8099  0.9981  1.1131
  173SLPC  C21719571   1.923   3.416   4.939  0.4966  0.4144 -0.3126
  173SLPC  H17R19572   1.815   3.401   4.961  0.7702 -0.0314  0.8110
  173SLPC  H17S19573   1.972   3.318   4.959 -0.1134  0.3659  1.0728
  173SLPC  C21819574   1.964   3.433   4.789  0.2181 -0.0379  0.3634
  173SLPC  H18R19575   1.911   3.369   4.715 -2.0242  2.2250 -0.1413
  173SLPC  H18S19576   2.074   3.432   4.782  0.4319 -0.6427  2.8896
  173SLPC  H18T19577   1.922   3.529   4.751 -0.0002 -0.4620 -0.4836
  173SLPC   C3319578   2.784   3.273   5.861 -0.4963 -0.0095  0.1551
  173SLPC   H3X19579   2.838   3.193   5.807  0.6991  1.3716 -0.7683
  173SLPC   H3Y19580   2.862   3.330   5.917  1.6292 -3.0602  0.5047
  173SLPC   C3419581   2.725   3.365   5.754  0.1227  0.2145 -0.1785
  173SLPC   H4X19582   2.695   3.465   5.793 -0.4756  0.3994 -1.0876
  173SLPC   H4Y19583   2.633   3.319   5.713 -0.5277  2.0010 -0.8467
  173SLPC   C3519584   2.825   3.384   5.636  0.3799 -0.0896  0.4445
  173SLPC   H5X19585   2.852   3.282   5.602 -1.8356 -1.2903  1.9890
  173SLPC   H5Y19586   2.920   3.425   5.675  1.3087 -0.9955 -0.7764
  173SLPC   C3619587   2.753   3.460   5.527  0.0769  0.8633 -0.2347
  173SLPC   H6X19588   2.726   3.561   5.566  0.7506  0.0419  2.6400
  173SLPC   H6Y19589   2.658   3.405   5.508  0.3077  0.6987 -0.9367
  173SLPC   C3719590   2.835   3.471   5.397  0.0682  0.2340  1.1172
  173SLPC   H7X19591   2.877   3.373   5.364 -4.1513 -1.4293 -0.0235
  173SLPC   H7Y19592   2.920   3.537   5.423 -0.2114  0.3967  1.6268
  173SLPC   C3819593   2.757   3.519   5.277  0.2133 -0.0444  0.3618
  173SLPC   H8X19594   2.699   3.610   5.307  0.2590 -0.0484  0.4633
  173SLPC   H8Y19595   2.670   3.452   5.260 -1.1812  1.3022  1.8386
  173SLPC   C3919596   2.839   3.549   5.148 -0.4424  0.0000  0.3973
  173SLPC   H9X19597   2.893   3.454   5.128  1.4159  0.6624  1.9622
  173SLPC   H9Y19598   2.918   3.628   5.153  1.1307 -1.5439  0.8200
  173SLPC  C31019599   2.753   3.581   5.027  0.8545 -0.3538 -0.3357
  173SLPC  H10X19600   2.670   3.651   5.051 -0.1316 -1.4188 -0.5388
  173SLPC  H10Y19601   2.726   3.482   4.986 -0.7592  0.5628 -1.6250
  173SLPC  C31119602   2.830   3.648   4.908  0.5916 -0.6636 -0.0608
  173SLPC  H11X19603   2.907   3.575   4.874  1.9372  1.3639 -1.5662
  173SLPC  H11Y19604   2.875   3.741   4.948  0.0975 -1.4158  2.4414
  173SLPC  C31219605   2.738   3.679   4.790  0.2445  0.2440  1.0789
  173SLPC  H12X19606   2.645   3.734   4.818  0.7958  1.0115  1.4583
  173SLPC  H12Y19607   2.704   3.580   4.753 -0.7354  0.9429  0.0268
  173SLPC  C31319608   2.803   3.758   4.673 -0.4529  0.3475  0.5471
  173SLPC  H13X19609   2.914   3.768   4.683 -0.2084 -2.7467  1.9110
  173SLPC  H13Y19610   2.750   3.856   4.673 -0.7581  0.1825  1.2639
  173SLPC  C31419611   2.776   3.675   4.550 -0.1578 -0.3004 -0.0963
  173SLPC  H14X19612   2.774   3.566   4.570 -1.4055 -0.0696  1.1693
  173SLPC  H14Y19613   2.856   3.694   4.476 -0.7009  2.0704 -0.1585
  173SLPC  C31519614   2.640   3.706   4.485 -0.4366  0.3682  0.2818
  173SLPC  H15X19615   2.561   3.685   4.560 -0.6988  0.1585 -0.0513
  173SLPC  H15Y19616   2.628   3.639   4.398  0.2311  3.1916 -2.1503
  173SLPC  C31619617   2.615   3.846   4.434  0.0053  0.3434 -0.0629
  173SLPC  H16X19618   2.606   3.912   4.523  3.3431  0.4772  0.3277
  173SLPC  H16Y19619   2.517   3.854   4.383  0.4179  2.3551 -0.6208
  173SLPC  C31719620   2.725   3.899   4.344  0.0614 -0.2544  0.4168
  173SLPC  H17X19621   2.814   3.909   4.409  0.6479 -1.3276 -0.1969
  173SLPC  H17Y19622   2.694   4.002   4.313 -0.0466 -0.7156 -1.1010
  173SLPC  C31819623   2.768   3.811   4.221 -0.3643 -0.1950 -0.1749
  173SLPC  H18X19624   2.821   3.881   4.152  0.4253 -0.6036  0.0032
  173SLPC  H18Y19625   2.663   3.798   4.188 -1.0427  2.7551  0.5378
  173SLPC  H18Z19626   2.820   3.719   4.254 -0.3138  0.1809  0.8342
  174SLPC     N19627   4.875   5.135   7.023 -0.7948  0.1124  0.6827
  174SLPC   C1319628   4.737   5.144   7.074 -0.0400 -0.5924  0.1997
  174SLPC  H13A19629   4.686   5.214   7.010 -2.5713 -2.6930 -0.2536
  174SLPC  H13B19630   4.683   5.052   7.090 -0.3980 -1.0817 -3.1606
  174SLPC  H13C19631   4.742   5.203   7.164 -1.1124  2.4270 -1.5886
  174SLPC   C1419632   4.954   5.082   7.141  0.3360 -0.1208  0.7807
  174SLPC  H14A19633   4.962   4.975   7.142 -0.9618 -0.2347  0.5420
  174SLPC  H14B19634   5.058   5.112   7.132  0.8779 -2.1101 -0.1644
  174SLPC  H14C19635   4.922   5.130   7.233  0.5398  0.9050  0.3341
  174SLPC   C1519636   4.926   5.271   6.994 -0.0828  0.2801  0.5551
  174SLPC  H15A19637   5.026   5.268   6.952 -0.2740 -1.2391  0.1318
  174SLPC  H15B19638   4.861   5.325   6.928 -0.4428 -0.6504  0.1291
  174SLPC  H15C19639   4.932   5.324   7.088  0.8469  1.6002 -0.2253
  174SLPC   C1219640   4.889   5.044   6.908 -0.5100  0.2710 -0.1176
  174SLPC  H12A19641   4.805   5.058   6.841  1.1874  0.9258 -2.2047
  174SLPC  H12B19642   4.880   4.943   6.945 -0.0995  0.2558 -0.0543
  174SLPC   C1119643   5.021   5.045   6.825 -0.0264 -1.0371 -0.1337
  174SLPC  H11A19644   5.006   5.128   6.752 -3.7685 -0.1740  1.3837
  174SLPC  H11B19645   5.034   4.941   6.790  0.6811 -0.6928 -0.9269
  174SLPC     P19646   5.261   4.988   6.947 -0.3304  0.1449  0.3055
  174SLPC   O1319647   5.357   5.057   7.035 -0.0223  0.0764  0.0004
  174SLPC   O1419648   5.210   4.851   6.983  0.4852 -0.7871  0.2438
  174SLPC   O1219649   5.138   5.080   6.904  0.2966  0.7368  0.3392
  174SLPC   O1119650   5.335   4.985   6.805 -0.4565  0.0858 -0.1016
  174SLPC    C119651   5.375   5.113   6.758  0.0662  0.3442 -0.0417
  174SLPC    HA19652   5.290   5.184   6.751  0.8515  1.2221 -1.0038
  174SLPC    HB19653   5.446   5.170   6.822 -0.2815  0.6748  0.0568
  174SLPC    C219654   5.436   5.101   6.621  0.7140 -0.3961  0.6128
  174SLPC    HS19655   5.446   5.202   6.576  0.1246 -1.5438 -2.3023
  174SLPC   O2119656   5.365   5.012   6.535 -0.6979  0.1241 -0.4058
  174SLPC   C2119657   5.242   5.045   6.505 -0.6906 -0.1464  0.0111
  174SLPC   O2219658   5.189   5.153   6.531 -0.8791 -0.0576 -0.2054
  174SLPC   C2219659   5.174   4.928   6.432  0.3332  0.4539 -0.2051
  174SLPC   H2R19660   5.241   4.853   6.384  0.9173 -0.7324  2.3324
  174SLPC   H2S19661   5.115   4.882   6.514  2.1907 -0.7323  0.5333
  174SLPC    C319662   5.572   5.040   6.635  0.1961  0.0533  0.3325
  174SLPC    HX19663   5.570   4.944   6.690 -0.6817 -1.7999 -2.6884
  174SLPC    HY19664   5.628   5.104   6.707 -2.1477  0.4741  1.8912
  174SLPC   O3119665   5.633   5.025   6.502  0.4186 -0.2904  0.2971
  174SLPC   C3119666   5.651   4.902   6.451 -0.4725  0.1802  0.3059
  174SLPC   O3219667   5.637   4.797   6.511  0.2587 -0.3746 -0.4279
  174SLPC   C3219668   5.718   4.892   6.314  0.0501  0.5213  0.3768
  174SLPC   H2X19669   5.797   4.813   6.313  0.2619  0.7011 -1.3131
  174SLPC   H2Y19670   5.759   4.995   6.301 -3.0621  1.8476  0.2318
  174SLPC   C2319671   5.079   4.989   6.327 -0.0485 -0.0789 -0.3309
  174SLPC   H3R19672   5.014   5.075   6.356  1.7916  1.3677 -0.3052
  174SLPC   H3S19673   5.013   4.904   6.298 -0.5756  0.5499 -1.0455
  174SLPC   C2419674   5.158   5.046   6.203  0.6327  0.5544 -0.6361
  174SLPC   H4R19675   5.253   4.994   6.180  0.6706 -0.0293  0.7300
  174SLPC   H4S19676   5.193   5.149   6.227  1.2158  0.7490 -2.2298
  174SLPC   C2519677   5.073   5.054   6.078 -0.5808 -0.3965  0.0043
  174SLPC   H5R19678   4.975   5.097   6.106 -0.0071  1.3196 -0.5142
  174SLPC   H5S19679   5.060   4.948   6.046 -1.1772 -0.1533 -0.5700
  174SLPC   C2619680   5.134   5.142   5.965  0.6908 -0.0396  0.5767
  174SLPC   H6R19681   5.182   5.228   6.018  1.1535 -1.7352  3.0938
  174SLPC   H6S19682   5.045   5.182   5.912 -0.9987 -1.5831  2.1130
  174SLPC   C2719683   5.224   5.071   5.861 -0.0938 -0.1128 -0.1728
  174SLPC   H7R19684   5.313   5.018   5.902 -0.2382 -0.2607 -0.0505
  174SLPC   H7S19685   5.273   5.145   5.794 -1.3550  2.0647  1.2280
  174SLPC   C2819686   5.150   4.972   5.768 -0.8044 -0.0400 -0.9057
  174SLPC   H8R19687   5.054   5.027   5.767  1.5498  4.6675  0.2980
  174SLPC   H8S19688   5.129   4.881   5.828 -0.1938  0.1957 -0.3228
  174SLPC   C2919689   5.206   4.961   5.628  0.2684  0.4342 -0.0438
  174SLPC   H9R19690   5.279   4.879   5.616 -0.7931 -0.2995 -1.7865
  174SLPC  C21019691   5.181   5.047   5.526  0.6261  0.1674  0.0076
  174SLPC  H10R19692   5.206   5.022   5.422 -0.7691 -0.0849 -0.2902
  174SLPC  C21119693   5.086   5.162   5.545  0.1651 -0.5615  0.8180
  174SLPC  H11R19694   4.988   5.143   5.594  0.3686  0.7606  1.7901
  174SLPC  H11S19695   5.052   5.177   5.440  0.2391 -2.4319  0.4953
  174SLPC  C21219696   5.136   5.293   5.598  0.9144  0.0582  0.4496
  174SLPC  H12R19697   5.213   5.298   5.677 -0.5869  2.4980  1.8594
  174SLPC  C21319698   5.120   5.417   5.548 -0.2097 -1.0724 -0.4087
  174SLPC  H13R19699   5.163   5.496   5.612 -1.4244  1.2475 -2.3312
  174SLPC  C21419700   5.037   5.463   5.427 -0.6793  0.6740 -0.7601
  174SLPC  H14R19701   4.985   5.558   5.451  1.1551  1.3128  1.0296
  174SLPC  H14S19702   4.962   5.382   5.411 -0.2803  0.7331 -3.2648
  174SLPC  C21519703   5.125   5.472   5.300 -0.3040 -0.9438 -0.9070
  174SLPC  H15R19704   5.190   5.560   5.314  0.3310 -1.3595 -1.1805
  174SLPC  H15S19705   5.061   5.493   5.212  2.1072  0.1388 -2.5068
  174SLPC  C21619706   5.203   5.351   5.240  0.5375  0.0326 -0.6184
  174SLPC  H16R19707   5.125   5.283   5.199 -0.5701  0.0913  1.2695
  174SLPC  H16S19708   5.266   5.303   5.318  2.3645  2.0504 -0.7425
  174SLPC  C21719709   5.296   5.391   5.131  0.5015  0.5909 -0.4209
  174SLPC  H17R19710   5.335   5.294   5.093 -2.5441 -1.1186  0.5046
  174SLPC  H17S19711   5.386   5.449   5.161 -0.8930  1.1907  3.0558
  174SLPC  C21819712   5.235   5.452   4.999 -0.3443 -0.4313  0.6622
  174SLPC  H18R19713   5.168   5.537   5.026  1.0838  0.7362  0.6140
  174SLPC  H18S19714   5.190   5.362   4.952  1.8274 -1.1055 -0.2462
  174SLPC  H18T19715   5.314   5.494   4.934  0.4630  0.1364  1.9535
  174SLPC   C3319716   5.616   4.858   6.197 -0.2300  0.4600  0.7799
  174SLPC   H3X19717   5.518   4.910   6.212 -0.4148 -0.6334  4.0065
  174SLPC   H3Y19718   5.591   4.751   6.209 -5.4808  1.2595 -0.1625
  174SLPC   C3419719   5.670   4.892   6.061  0.0846 -0.6993  0.5676
  174SLPC   H4X19720   5.774   4.854   6.059  0.2260 -0.3070  0.2518
  174SLPC   H4Y19721   5.673   5.004   6.060 -0.5860 -0.6582 -1.6172
  174SLPC   C3519722   5.598   4.842   5.938 -0.2999  0.1050  0.2347
  174SLPC   H5X19723   5.492   4.873   5.934  0.1423  1.6157 -1.7637
  174SLPC   H5Y19724   5.595   4.731   5.944  1.4702  0.0919  2.0565
  174SLPC   C3619725   5.656   4.893   5.806 -0.7767 -0.0889  0.2857
  174SLPC   H6X19726   5.766   4.877   5.810 -0.6294  0.5057 -0.9460
  174SLPC   H6Y19727   5.639   5.002   5.793 -1.9435 -0.3129 -0.1787
  174SLPC   C3719728   5.593   4.832   5.677 -0.7423 -0.4052  0.2852
  174SLPC   H7X19729   5.488   4.867   5.669 -1.3864 -2.0126  1.1416
  174SLPC   H7Y19730   5.586   4.722   5.691 -1.9798 -0.4619 -0.6252
  174SLPC   C3819731   5.666   4.876   5.553 -0.0149  0.0988 -0.7070
  174SLPC   H8X19732   5.751   4.806   5.542  0.8312  1.3980 -3.2843
  174SLPC   H8Y19733   5.698   4.982   5.568 -1.0445  0.2537  0.5541
  174SLPC   C3919734   5.585   4.868   5.424  0.0421 -0.0346  0.6684
  174SLPC   H9X19735   5.506   4.945   5.427 -0.0213 -0.0380 -0.5327
  174SLPC   H9Y19736   5.541   4.769   5.398  0.6920  0.0971 -1.0990
  174SLPC  C31019737   5.672   4.904   5.299  0.3895 -0.3355  0.1341
  174SLPC  H10X19738   5.751   4.831   5.272 -0.1036 -0.2450 -1.6895
  174SLPC  H10Y19739   5.733   4.988   5.340  0.6355 -0.3964 -0.0981
  174SLPC  C31119740   5.599   4.955   5.180  0.7254 -0.4038  0.7669
  174SLPC  H11X19741   5.669   4.968   5.095 -0.5210 -1.5987 -0.4806
  174SLPC  H11Y19742   5.545   5.049   5.204  1.1862  0.7441 -2.3019
  174SLPC  C31219743   5.486   4.860   5.121  0.0004 -0.1209 -0.4516
  174SLPC  H12X19744   5.408   4.835   5.195  0.0248 -0.7124 -0.6235
  174SLPC  H12Y19745   5.550   4.778   5.081  1.2486  1.3620 -1.6447
  174SLPC  C31319746   5.411   4.928   5.003  0.1562 -0.1794 -0.2874
  174SLPC  H13X19747   5.350   5.014   5.038  2.5285  0.1569  3.7562
  174SLPC  H13Y19748   5.354   4.852   4.946  1.2975 -1.0037 -0.3789
  174SLPC  C31419749   5.502   5.011   4.905 -0.2185  0.2840 -0.2806
  174SLPC  H14X19750   5.581   4.944   4.866 -0.8946 -0.2337 -0.7796
  174SLPC  H14Y19751   5.525   5.101   4.966  0.1810 -0.7401  1.1205
  174SLPC  C31519752   5.440   5.039   4.765  0.7864 -0.1825 -0.4029
  174SLPC  H15X19753   5.381   5.131   4.786  1.0391 -0.2133  0.4676
  174SLPC  H15Y19754   5.365   4.958   4.756 -0.5993  0.8464  1.1764
  174SLPC  C31619755   5.541   5.052   4.648 -0.6224 -0.2237 -0.1513
  174SLPC  H16X19756   5.478   5.044   4.557 -0.5086  3.2308 -0.6881
  174SLPC  H16Y19757   5.612   4.967   4.658 -0.3767 -0.0095 -0.0500
  174SLPC  C31719758   5.619   5.190   4.642 -0.1261  0.2599 -0.2510
  174SLPC  H17X19759   5.695   5.181   4.722  0.1198 -1.2904 -0.6198
  174SLPC  H17Y19760   5.544   5.269   4.660  0.3541  0.8306 -0.6901
  174SLPC  C31819761   5.691   5.224   4.510 -0.4321  0.7601 -0.5772
  174SLPC  H18X19762   5.730   5.327   4.522 -0.8152  0.7260  1.2602
  174SLPC  H18Y19763   5.618   5.211   4.427 -0.0798  1.0081 -0.9297
  174SLPC  H18Z19764   5.776   5.153   4.494  0.3302  1.5787 -0.2552
  175SLPC     N19765   1.817   6.142   6.861  0.9211 -0.2877  0.4706
  175SLPC   C1319766   1.763   6.028   6.933  0.0868  0.1687 -0.6075
  175SLPC  H13A19767   1.684   6.065   6.997 -0.9717 -0.0697 -1.7427
  175SLPC  H13B19768   1.717   5.955   6.869 -0.0281 -0.4393  0.1590
  175SLPC  H13C19769   1.832   5.990   7.007  0.3011  0.0338 -0.8764
  175SLPC   C1419770   1.928   6.086   6.778  0.1667  0.6361  0.0943
  175SLPC  H14A19771   1.882   6.003   6.725  0.7848 -0.6104  1.4182
  175SLPC  H14B19772   1.968   6.164   6.715 -0.9416 -0.8740 -2.6609
  175SLPC  H14C19773   2.015   6.045   6.828  0.1826 -1.5428 -1.5493
  175SLPC   C1519774   1.857   6.249   6.967  0.0139  0.3883 -0.4463
  175SLPC  H15A19775   1.773   6.266   7.032  0.5965 -1.2230  0.8132
  175SLPC  H15B19776   1.944   6.221   7.025 -1.3168  0.1542  1.5317
  175SLPC  H15C19777   1.888   6.343   6.925  0.7636  1.8054  3.0118
  175SLPC   C1219778   1.714   6.208   6.770 -0.0554 -0.2618 -0.6541
  175SLPC  H12A19779   1.677   6.136   6.699 -1.1446  1.8308 -2.3377
  175SLPC  H12B19780   1.760   6.281   6.704  0.8577 -1.3361 -1.2595
  175SLPC   C1119781   1.591   6.279   6.842 -0.9358  0.1099 -0.3933
  175SLPC  H11A19782   1.533   6.326   6.760  2.6770 -0.9559 -3.8862
  175SLPC  H11B19783   1.614   6.375   6.894 -0.8194  0.3696 -0.9184
  175SLPC     P19784   1.393   6.108   6.889  0.1357  0.0171 -0.1551
  175SLPC   O1319785   1.439   5.969   6.860 -0.3803  0.2871 -0.2043
  175SLPC   O1419786   1.296   6.131   6.996  0.3402 -0.0285 -0.4076
  175SLPC   O1219787   1.519   6.184   6.922 -0.5672  0.1565  0.4247
  175SLPC   O1119788   1.339   6.190   6.765  0.1940  0.0510 -0.1557
  175SLPC    C119789   1.347   6.170   6.626  0.1350 -0.1208 -0.6511
  175SLPC    HA19790   1.386   6.263   6.579  1.7566 -0.7084 -0.5439
  175SLPC    HB19791   1.425   6.094   6.604  0.5188  0.3065 -0.7778
  175SLPC    C219792   1.218   6.124   6.561  0.3625  0.0605  0.1329
  175SLPC    HS19793   1.151   6.213   6.556  2.8612  1.9871 -1.1142
  175SLPC   O2119794   1.142   6.013   6.627  0.0523 -0.1478 -0.4401
  175SLPC   C2119795   1.012   6.018   6.629  0.1214  0.4284 -0.2842
  175SLPC   O2219796   0.936   6.105   6.591 -0.2464 -0.2929 -0.0266
  175SLPC   C2219797   0.959   5.890   6.696 -0.3216  0.6713  0.5314
  175SLPC   H2R19798   1.031   5.871   6.779  0.1870 -0.3174 -0.1195
  175SLPC   H2S19799   0.858   5.898   6.742 -0.6673 -0.4016 -0.0209
  175SLPC    C319800   1.248   6.066   6.417 -0.4922 -0.4466  0.3337
  175SLPC    HX19801   1.284   5.961   6.429 -3.0654 -1.4590 -0.0014
  175SLPC    HY19802   1.323   6.132   6.368 -0.7468 -0.9762 -0.8101
  175SLPC   O3119803   1.125   6.059   6.349  0.2642 -0.3251 -0.5938
  175SLPC   C3119804   1.138   6.009   6.225  0.2901  0.4745 -0.1946
  175SLPC   O3219805   1.243   5.972   6.182 -0.3525  0.2045  0.0069
  175SLPC   C3219806   1.005   6.013   6.162 -1.0167 -0.2138  0.0492
  175SLPC   H2X19807   0.952   6.110   6.172  0.7317  1.1020 -2.2904
  175SLPC   H2Y19808   0.936   5.943   6.213  0.1858 -0.9211  0.7562
  175SLPC   C2319809   0.945   5.778   6.591 -0.9906  0.2754 -0.4414
  175SLPC   H3R19810   0.937   5.686   6.654 -1.8088  1.6540  1.6003
  175SLPC   H3S19811   1.031   5.764   6.523 -0.4884 -2.2496  0.5885
  175SLPC   C2419812   0.819   5.784   6.498  0.2990  0.4678 -0.0280
  175SLPC   H4R19813   0.821   5.883   6.449 -1.1983 -0.1133 -1.3640
  175SLPC   H4S19814   0.730   5.777   6.564  1.2213 -0.4169  1.1855
  175SLPC   C2519815   0.812   5.690   6.374  0.0002  0.2213 -0.2795
  175SLPC   H5R19816   0.798   5.582   6.396  2.1986  0.2993  1.9171
  175SLPC   H5S19817   0.910   5.701   6.323  0.2023  1.6894  0.3534
  175SLPC   C2619818   0.707   5.720   6.264  0.2082 -0.1887 -0.2491
  175SLPC   H6R19819   0.701   5.827   6.234  0.4800  0.0211  0.4338
  175SLPC   H6S19820   0.608   5.707   6.313  1.3200 -0.4211  2.0977
  175SLPC   C2719821   0.726   5.638   6.136 -0.0476  0.0618  0.2671
  175SLPC   H7R19822   0.742   5.529   6.154 -3.3382 -0.7885 -1.1045
  175SLPC   H7S19823   0.820   5.668   6.085 -0.5429 -0.8443 -1.2471
  175SLPC   C2819824   0.613   5.659   6.040  0.3702 -0.3841 -0.3155
  175SLPC   H8R19825   0.648   5.622   5.941  0.2513 -0.7785 -0.2132
  175SLPC   H8S19826   0.582   5.764   6.028  0.0835  0.0688  3.2968
  175SLPC   C2919827   0.489   5.584   6.075 -0.1267  0.5169  0.3536
  175SLPC   H9R19828   0.489   5.571   6.185 -1.2754  0.6326  0.3697
  175SLPC  C21019829   0.389   5.527   6.002 -0.1179 -0.3485  0.1930
  175SLPC  H10R19830   0.305   5.471   6.046  0.3433 -1.0715  0.1610
  175SLPC  C21119831   0.365   5.553   5.853 -0.4382  0.4671  0.0808
  175SLPC  H11R19832   0.363   5.663   5.839 -3.3534  0.4419 -0.2332
  175SLPC  H11S19833   0.258   5.533   5.833 -0.4904 -1.0606  1.5984
  175SLPC  C21219834   0.450   5.481   5.749  0.4670 -0.0544 -0.6428
  175SLPC  H12R19835   0.559   5.482   5.765  0.4187  0.9325 -0.2885
  175SLPC  C21319836   0.405   5.438   5.634 -0.3682 -0.6216  0.3423
  175SLPC  H13R19837   0.481   5.401   5.563  1.1967  4.3055 -0.9709
  175SLPC  C21419838   0.261   5.426   5.586  0.6324 -0.4624  0.2192
  175SLPC  H14R19839   0.205   5.522   5.591  1.0359 -0.2710  1.2666
  175SLPC  H14S19840   0.201   5.350   5.640 -0.9351  0.0815 -0.6826
  175SLPC  C21519841   0.246   5.375   5.445  0.3884  0.4721  0.2212
  175SLPC  H15R19842   0.141   5.340   5.434 -0.3328  1.7672  2.3333
  175SLPC  H15S19843   0.292   5.275   5.433 -1.5332 -0.2503 -1.8233
  175SLPC  C21619844   0.296   5.476   5.338 -0.2193 -0.3872 -0.3964
  175SLPC  H16R19845   0.403   5.499   5.361  0.5491 -2.6449 -1.4464
  175SLPC  H16S19846   0.224   5.560   5.338  0.2984  0.1035  1.3046
  175SLPC  C21719847   0.292   5.433   5.194 -0.8382 -0.3858  0.1332
  175SLPC  H17R19848   0.341   5.517   5.142 -0.1846  0.4827  2.0565
  175SLPC  H17S19849   0.184   5.421   5.167 -1.0770 -1.5389  1.4781
  175SLPC  C21819850   0.371   5.304   5.152  0.4275  0.6129 -0.6469
  175SLPC  H18R19851   0.313   5.213   5.179  1.1091  0.9705  2.3893
  175SLPC  H18S19852   0.464   5.295   5.211 -0.4797 -0.9756  0.6152
  175SLPC  H18T19853   0.402   5.305   5.045  0.4550 -0.1097 -0.6479
  175SLPC   C3319854   1.014   5.973   6.009  0.0577  0.2182  0.1803
  175SLPC   H3X19855   1.056   5.871   5.998 -2.1883 -0.8267  0.8346
  175SLPC   H3Y19856   1.072   6.047   5.950  1.9693 -0.5741  0.9846
  175SLPC   C3419857   0.868   5.951   5.958  0.0489 -0.2984  0.2703
  175SLPC   H4X19858   0.818   6.050   5.967  0.2958 -0.1929  0.4918
  175SLPC   H4Y19859   0.820   5.875   6.023  1.3700  0.9127  2.8241
  175SLPC   C3519860   0.877   5.906   5.805  0.1330 -0.6975 -0.7513
  175SLPC   H5X19861   0.934   5.812   5.790 -0.4920 -1.1728 -0.2284
  175SLPC   H5Y19862   0.932   5.987   5.752  0.8643 -0.8113 -0.1753
  175SLPC   C3619863   0.728   5.888   5.750  0.2429 -0.2378  0.1692
  175SLPC   H6X19864   0.662   5.978   5.755  0.1078 -0.2916 -0.5863
  175SLPC   H6Y19865   0.684   5.798   5.797  2.2437 -1.9652 -1.1074
  175SLPC   C3719866   0.752   5.848   5.601  0.7216 -0.1498 -0.1922
  175SLPC   H7X19867   0.832   5.770   5.601  0.1846 -0.9456  4.0566
  175SLPC   H7Y19868   0.778   5.949   5.561 -1.6187 -0.2560 -2.1862
  175SLPC   C3819869   0.624   5.792   5.538 -0.0983 -1.0615  0.4704
  175SLPC   H8X19870   0.590   5.713   5.609  1.0364 -0.0827  2.1857
  175SLPC   H8Y19871   0.650   5.744   5.441  1.2597  1.3352 -0.4183
  175SLPC   C3919872   0.522   5.891   5.508  0.2640  0.1068  0.1573
  175SLPC   H9X19873   0.569   5.977   5.456  0.3534 -0.2641 -0.3792
  175SLPC   H9Y19874   0.470   5.931   5.598 -0.4775 -3.1707  1.3206
  175SLPC  C31019875   0.402   5.827   5.435 -0.1746  0.0614 -0.3050
  175SLPC  H10X19876   0.337   5.768   5.504  2.4461 -1.4906  1.0267
  175SLPC  H10Y19877   0.432   5.750   5.361 -1.5473  0.5226 -1.3893
  175SLPC  C31119878   0.323   5.944   5.378  0.2689 -0.0633 -0.1334
  175SLPC  H11X19879   0.372   5.996   5.292 -0.8471 -1.2611 -1.5544
  175SLPC  H11Y19880   0.318   6.023   5.456 -0.0920  0.5956 -0.8109
  175SLPC  C31219881   0.179   5.910   5.342  0.2167  0.4877 -0.4161
  175SLPC  H12X19882   0.128   5.898   5.440  0.6540 -0.1176 -0.2577
  175SLPC  H12Y19883   0.182   5.811   5.292  2.0020 -0.3401  1.2000
  175SLPC  C31319884   0.099   6.016   5.268 -0.5397 -0.0061 -0.5772
  175SLPC  H13X19885   0.088   6.108   5.329  0.4661  0.8585 -1.6495
  175SLPC  H13Y19886  -0.002   5.976   5.246 -1.4929  1.7924  0.3115
  175SLPC  C31419887   0.147   6.058   5.126  0.4783 -0.9858 -0.3296
  175SLPC  H14X19888   0.236   6.123   5.141 -1.6549  2.1086  0.0622
  175SLPC  H14Y19889   0.079   6.130   5.076  3.5172  2.6889  0.3396
  175SLPC  C31519890   0.181   5.949   5.025 -0.9770  0.1482  0.8038
  175SLPC  H15X19891   0.095   5.885   5.000 -0.2798  0.1920 -2.0234
  175SLPC  H15Y19892   0.254   5.885   5.079 -2.4361 -1.9636  0.3586
  175SLPC  C31619893   0.230   5.999   4.887 -0.4204 -0.6034  0.6971
  175SLPC  H16X19894   0.313   6.072   4.898 -0.7731 -0.0844 -0.0233
  175SLPC  H16Y19895   0.158   6.073   4.844  1.4794  1.2786  0.5764
  175SLPC  C31719896   0.262   5.892   4.790  0.3376  0.0144  1.2797
  175SLPC  H17X19897   0.308   5.937   4.700 -1.6277  0.4031  0.4198
  175SLPC  H17Y19898   0.171   5.834   4.765  0.7026 -1.0860  2.4065
  175SLPC  C31819899   0.350   5.776   4.844  0.5573 -0.3871  0.6075
  175SLPC  H18X19900   0.388   5.716   4.759 -1.5982 -1.2333  0.1739
  175SLPC  H18Y19901   0.297   5.710   4.916  1.6680 -0.9785  0.9012
  175SLPC  H18Z19902   0.436   5.826   4.893  1.2902  0.1803 -1.2012
  176SLPC     N19903   1.796   4.364   6.864 -0.1616 -0.0197  0.0589
  176SLPC   C1319904   1.813   4.509   6.828 -0.1505 -0.0071  0.0347
  176SLPC  H13A19905   1.842   4.556   6.921  0.1827 -1.7043  0.8367
  176SLPC  H13B19906   1.894   4.541   6.765 -0.8728  0.2005 -0.7994
  176SLPC  H13C19907   1.733   4.565   6.783  1.9965  3.1830 -0.1746
  176SLPC   C1419908   1.697   4.345   6.969  0.1484 -0.8713 -0.3574
  176SLPC  H14A19909   1.611   4.406   6.949  0.4138 -1.0608 -2.2896
  176SLPC  H14B19910   1.677   4.238   6.971  3.4179 -1.5914 -0.7046
  176SLPC  H14C19911   1.742   4.378   7.061  1.9351 -1.3634 -1.0172
  176SLPC   C1519912   1.933   4.299   6.902  0.4371  0.7863  0.1626
  176SLPC  H15A19913   1.912   4.193   6.910 -2.5300  1.3024  0.2849
  176SLPC  H15B19914   2.004   4.313   6.822  1.9661 -0.7814  1.1776
  176SLPC  H15C19915   1.963   4.337   6.998  0.3922 -0.9877  0.9293
  176SLPC   C1219916   1.746   4.283   6.741  0.2561  0.1515  0.0636
  176SLPC  H12A19917   1.814   4.306   6.661 -0.2813 -1.4681 -0.8860
  176SLPC  H12B19918   1.649   4.319   6.709 -1.2843 -3.1633  0.6031
  176SLPC   C1119919   1.721   4.127   6.751 -0.5239 -0.0625  0.0243
  176SLPC  H11A19920   1.815   4.085   6.793 -0.0516 -0.2510 -1.1826
  176SLPC  H11B19921   1.697   4.097   6.646 -3.2391 -0.8678  0.8017
  176SLPC     P19922   1.551   3.950   6.808 -0.6260  0.0450  0.0348
  176SLPC   O1319923   1.662   3.854   6.776 -0.1352  0.0035 -0.2246
  176SLPC   O1419924   1.453   3.913   6.917 -0.2548 -0.5073 -0.5618
  176SLPC   O1219925   1.611   4.091   6.840 -0.5730 -0.2810 -0.1965
  176SLPC   O1119926   1.465   3.977   6.679 -0.3384 -0.0453  0.1187
  176SLPC    C119927   1.361   4.077   6.678 -0.3596 -0.5008 -0.8838
  176SLPC    HA19928   1.281   4.047   6.749 -0.0025 -1.3467 -0.8194
  176SLPC    HB19929   1.404   4.174   6.710  1.4212 -0.2612 -3.6620
  176SLPC    C219930   1.295   4.087   6.543  0.4304 -0.5634  0.0334
  176SLPC    HS19931   1.256   3.989   6.509  0.9205 -0.3652 -1.1877
  176SLPC   O2119932   1.385   4.123   6.435  0.2171 -0.1205  0.2993
  176SLPC   C2119933   1.478   4.212   6.448 -0.2807  0.6607  0.1990
  176SLPC   O2219934   1.502   4.290   6.537  0.4070  0.5003 -0.4196
  176SLPC   C2219935   1.556   4.196   6.317  0.0951  0.3087 -0.2111
  176SLPC   H2R19936   1.663   4.213   6.338  0.0540 -0.2895  0.5477
  176SLPC   H2S19937   1.537   4.092   6.283  1.3824  0.1242 -0.4163
  176SLPC    C319938   1.177   4.184   6.546 -0.7079 -0.3478  0.0412
  176SLPC    HX19939   1.221   4.281   6.575 -1.3124  0.0107 -0.2070
  176SLPC    HY19940   1.109   4.164   6.631 -0.6164 -2.3580 -0.2948
  176SLPC   O3119941   1.116   4.203   6.421  0.1277 -0.2636 -0.5825
  176SLPC   C3119942   1.037   4.105   6.371  0.3408 -0.3919 -0.6262
  176SLPC   O3219943   1.036   3.990   6.410  0.1670  0.3798 -0.4106
  176SLPC   C3219944   0.970   4.154   6.245  0.2010  0.2153  0.0486
  176SLPC   H2X19945   0.946   4.263   6.247 -1.0631 -0.0182 -0.9541
  176SLPC   H2Y19946   0.873   4.100   6.245  0.6512 -0.9012  4.0690
  176SLPC   C2319947   1.509   4.295   6.200  0.1666  0.0996 -0.0083
  176SLPC   H3R19948   1.522   4.399   6.236  0.5763  0.5944 -1.4950
  176SLPC   H3S19949   1.400   4.279   6.190  0.1463  0.3810 -0.2625
  176SLPC   C2419950   1.586   4.285   6.072  0.0659  0.0756  0.3945
  176SLPC   H4R19951   1.568   4.178   6.048 -0.7768  0.0645  1.0584
  176SLPC   H4S19952   1.690   4.314   6.097  0.5019 -0.9112 -0.1975
  176SLPC   C2519953   1.534   4.378   5.959  0.2309 -0.0378  0.1597
  176SLPC   H5R19954   1.554   4.481   5.996  0.7694  0.4007 -1.2915
  176SLPC   H5S19955   1.423   4.369   5.962  0.3049 -2.1498 -1.2801
  176SLPC   C2619956   1.586   4.335   5.821  0.1780  0.1342 -0.1219
  176SLPC   H6R19957   1.691   4.307   5.842  0.2145 -1.5696 -2.2158
  176SLPC   H6S19958   1.600   4.417   5.747 -0.2606 -1.8640 -2.5576
  176SLPC   C2719959   1.496   4.222   5.771 -0.4404 -0.5516  0.5575
  176SLPC   H7R19960   1.389   4.250   5.777  0.0912  1.7079  0.1754
  176SLPC   H7S19961   1.506   4.143   5.849 -0.2731 -0.0233  1.0778
  176SLPC   C2819962   1.543   4.168   5.630  1.1966 -0.1533 -0.9506
  176SLPC   H8R19963   1.514   4.233   5.545  1.2265 -1.9854 -2.4512
  176SLPC   H8S19964   1.483   4.075   5.616  0.5601 -0.1461  1.3269
  176SLPC   C2919965   1.687   4.132   5.629  0.3155 -0.4729 -0.3651
  176SLPC   H9R19966   1.710   4.047   5.694 -2.1705 -2.7124 -2.1997
  176SLPC  C21019967   1.782   4.186   5.548 -0.2851 -0.2721 -0.0061
  176SLPC  H10R19968   1.887   4.156   5.563 -0.9223 -2.6608  0.2443
  176SLPC  C21119969   1.781   4.297   5.442  0.2238  0.0854 -0.0556
  176SLPC  H11R19970   1.689   4.284   5.382 -1.3636  2.2599  1.7598
  176SLPC  H11S19971   1.869   4.286   5.375  1.5680  0.4305  1.5552
  176SLPC  C21219972   1.794   4.435   5.497 -0.1999 -0.0120 -0.1481
  176SLPC  H12R19973   1.832   4.451   5.599 -0.0776  0.2018 -0.2258
  176SLPC  C21319974   1.770   4.551   5.432 -0.4504  0.2010 -0.0645
  176SLPC  H13R19975   1.787   4.649   5.478  1.6059 -0.8352  1.5896
  176SLPC  C21419976   1.725   4.559   5.288  0.7970  0.3882 -0.5065
  176SLPC  H14R19977   1.772   4.482   5.223  1.9650  0.3321  0.3667
  176SLPC  H14S19978   1.771   4.652   5.249 -2.8222  2.0200 -1.3335
  176SLPC  C21519979   1.573   4.575   5.278 -0.3712  0.0738  0.7786
  176SLPC  H15R19980   1.544   4.648   5.356  0.5537  1.1796  0.1270
  176SLPC  H15S19981   1.524   4.476   5.293  2.0176 -1.2888  0.0863
  176SLPC  C21619982   1.528   4.634   5.144  0.2120  0.4254  0.3759
  176SLPC  H16R19983   1.574   4.734   5.129 -1.1435  0.9686 -0.2501
  176SLPC  H16S19984   1.419   4.652   5.149  0.3451  1.6459 -0.5439
  176SLPC  C21719985   1.546   4.547   5.017  0.7255 -0.3627  0.1013
  176SLPC  H17R19986   1.497   4.450   5.043 -0.4420 -0.3432 -1.8498
  176SLPC  H17S19987   1.656   4.537   5.007  0.6346 -0.5852 -0.7366
  176SLPC  C21819988   1.490   4.620   4.895  0.0623  0.3644 -0.4755
  176SLPC  H18R19989   1.554   4.706   4.868  2.3046 -1.2654 -0.6165
  176SLPC  H18S19990   1.386   4.652   4.919  1.0247  2.7072  0.8750
  176SLPC  H18T19991   1.502   4.541   4.817  1.6545  0.5272 -0.4341
  176SLPC   C3319992   1.048   4.132   6.114  0.4451 -0.1277  0.2111
  176SLPC   H3X19993   1.119   4.046   6.115  0.0501 -0.4607  1.3695
  176SLPC   H3Y19994   1.104   4.222   6.082  0.2064 -0.0900 -0.1044
  176SLPC   C3419995   0.944   4.098   6.008  0.5017 -0.2291  0.7415
  176SLPC   H4X19996   0.863   4.170   5.984 -1.5226 -2.4972  0.2803
  176SLPC   H4Y19997   0.900   4.009   6.059  1.4262 -0.7898  0.5931
  176SLPC   C3519998   1.003   4.053   5.879  0.1227 -0.0278 -0.0346
  176SLPC   H5X19999   1.082   3.985   5.919  0.4831 -0.9124 -2.1476
  176SLPC   H5Y20000   1.046   4.135   5.818 -0.6400 -0.4492 -1.1741
  176SLPC   C3620001   0.909   3.980   5.780  0.2854  0.5225  0.6978
  176SLPC   H6X20002   0.873   3.890   5.834 -2.5144  0.9312 -0.3185
  176SLPC   H6Y20003   0.977   3.952   5.697 -0.1795  3.7131 -0.9020
  176SLPC   C3720004   0.792   4.066   5.723  0.1309  0.0095 -0.7203
  176SLPC   H7X20005   0.825   4.170   5.705  1.7813 -0.3718 -0.0794
  176SLPC   H7Y20006   0.707   4.073   5.794  1.1683  0.3601  0.5222
  176SLPC   C3820007   0.727   4.018   5.590 -0.3395 -0.4360  0.0178
  176SLPC   H8X20008   0.644   4.086   5.561 -0.3403 -0.5225 -0.1890
  176SLPC   H8Y20009   0.676   3.924   5.618  0.2408 -0.2268  1.9134
  176SLPC   C3920010   0.832   3.990   5.475  0.4612 -0.0501 -0.0721
  176SLPC   H9X20011   0.903   3.914   5.513  0.8266  0.3932  0.1511
  176SLPC   H9Y20012   0.887   4.084   5.455  0.5408  0.1147  0.8599
  176SLPC  C31020013   0.776   3.941   5.348  0.1409  0.3725  0.6889
  176SLPC  H10X20014   0.702   4.017   5.315  0.0047  0.3468  0.9296
  176SLPC  H10Y20015   0.711   3.854   5.373 -0.6715  0.7744  0.0124
  176SLPC  C31120016   0.877   3.916   5.238 -0.1403  0.2899  0.5200
  176SLPC  H11X20017   0.955   3.848   5.278 -0.6220 -0.1323  0.7495
  176SLPC  H11Y20018   0.928   4.010   5.207 -0.8678  0.7052  0.5528
  176SLPC  C31220019   0.814   3.839   5.122 -0.1203 -0.2484  0.2971
  176SLPC  H12X20020   0.751   3.753   5.153 -1.9942  0.2728 -1.8328
  176SLPC  H12Y20021   0.894   3.793   5.060  0.6286  1.4249 -0.0254
  176SLPC  C31320022   0.724   3.922   5.025  0.2689  0.2447  0.2611
  176SLPC  H13X20023   0.778   4.009   4.982 -1.8621  0.7624 -1.5482
  176SLPC  H13Y20024   0.638   3.965   5.080  0.4356  0.8485  0.0695
  176SLPC  C31420025   0.660   3.836   4.917 -0.5345  0.9849 -0.2985
  176SLPC  H14X20026   0.602   3.759   4.972  1.2107  0.7701  1.3581
  176SLPC  H14Y20027   0.736   3.788   4.852 -0.8124 -1.1822  0.8871
  176SLPC  C31520028   0.557   3.908   4.836  0.9194  0.4793  0.3125
  176SLPC  H15X20029   0.602   4.002   4.799 -0.2988  1.2121  0.6707
  176SLPC  H15Y20030   0.465   3.921   4.897  0.4400  1.1148 -0.5299
  176SLPC  C31620031   0.502   3.818   4.719  0.0597 -0.0615 -0.5625
  176SLPC  H16X20032   0.566   3.825   4.629  0.3777  0.6117 -0.2927
  176SLPC  H16Y20033   0.405   3.863   4.688 -0.0613  0.8225  0.9632
  176SLPC  C31720034   0.464   3.676   4.757 -0.4922  0.5231  0.0370
  176SLPC  H17X20035   0.429   3.663   4.862  1.3776  0.1850  0.6682
  176SLPC  H17Y20036   0.556   3.613   4.751  0.2893  1.7893 -1.9169
  176SLPC  C31820037   0.359   3.609   4.662  0.5798  0.1573 -0.0744
  176SLPC  H18X20038   0.307   3.527   4.716 -0.8165 -0.3164 -2.0626
  176SLPC  H18Y20039   0.401   3.562   4.571 -1.7359  0.3585 -1.3241
  176SLPC  H18Z20040   0.273   3.675   4.639  0.0752  0.2520  1.8508
  177SLPC     N20041   0.748   5.490   7.128  0.3868 -0.0889 -0.0344
  177SLPC   C1320042   0.675   5.602   7.059 -0.4325 -0.4798  0.2397
  177SLPC  H13A20043   0.743   5.664   7.004 -1.4344 -0.5248 -1.1010
  177SLPC  H13B20044   0.609   5.574   6.978 -1.2024  2.7027 -0.3482
  177SLPC  H13C20045   0.613   5.659   7.126  1.5386  0.8150  1.0327
  177SLPC   C1420046   0.642   5.395   7.171 -0.4887 -0.0517 -0.4707
  177SLPC  H14A20047   0.585   5.432   7.255  0.2914  0.4445 -0.1527
  177SLPC  H14B20048   0.567   5.373   7.096  0.0839 -1.6159 -0.6193
  177SLPC  H14C20049   0.681   5.301   7.206 -0.3955  0.4360  0.7751
  177SLPC   C1520050   0.818   5.531   7.247  0.2596  0.0777 -0.0139
  177SLPC  H15A20051   0.878   5.620   7.236 -0.2412  0.2790 -1.3125
  177SLPC  H15B20052   0.743   5.545   7.323 -2.0021 -2.1492 -1.6506
  177SLPC  H15C20053   0.879   5.451   7.287  0.6649  0.3419 -0.1031
  177SLPC   C1220054   0.841   5.412   7.028 -0.7217  0.1037 -0.2779
  177SLPC  H12A20055   0.778   5.380   6.946  1.0665  0.4740 -1.8710
  177SLPC  H12B20056   0.863   5.316   7.071 -0.7708  0.0273 -0.4249
  177SLPC   C1120057   0.961   5.484   6.961  0.3178 -0.3635 -0.3878
  177SLPC  H11A20058   0.936   5.584   6.920  1.6410  0.3104  0.3510
  177SLPC  H11B20059   0.987   5.425   6.871 -1.2075 -0.3324 -0.8623
  177SLPC     P20060   1.179   5.407   7.094 -0.0647 -0.0628  0.2764
  177SLPC   O1320061   1.277   5.455   7.195  0.3655  0.0172  0.1356
  177SLPC   O1420062   1.123   5.272   7.121  0.6920 -0.4929  0.2450
  177SLPC   O1220063   1.066   5.510   7.054  0.4414 -0.4090  0.0313
  177SLPC   O1120064   1.259   5.405   6.959 -0.0524 -0.1072  0.2241
  177SLPC    C120065   1.299   5.528   6.896 -0.3170 -0.4298 -0.3885
  177SLPC    HA20066   1.267   5.622   6.946 -0.8082  0.2192 -1.8632
  177SLPC    HB20067   1.410   5.530   6.902 -0.3795  0.2001  1.1825
  177SLPC    C220068   1.250   5.540   6.750 -0.4785  0.4379 -0.0420
  177SLPC    HS20069   1.139   5.537   6.749 -0.5612  2.4028  0.4231
  177SLPC   O2120070   1.309   5.434   6.669 -0.3199 -0.2969 -0.5808
  177SLPC   C2120071   1.235   5.375   6.577 -0.0512 -0.7270 -0.3068
  177SLPC   O2220072   1.116   5.401   6.552  0.4578  0.4040 -0.0053
  177SLPC   C2220073   1.312   5.280   6.493  0.0172 -0.2585 -0.7062
  177SLPC   H2R20074   1.356   5.344   6.414  0.2973  2.5091  1.5370
  177SLPC   H2S20075   1.389   5.230   6.555  0.9015  2.5150  0.5733
  177SLPC    C320076   1.293   5.680   6.694 -0.2530  0.5466 -0.0792
  177SLPC    HX20077   1.403   5.691   6.708 -0.4879  1.0571  1.6681
  177SLPC    HY20078   1.245   5.762   6.753  0.2787  0.0594  1.0716
  177SLPC   O3120079   1.251   5.686   6.551 -0.0553  0.6098 -0.1784
  177SLPC   C3120080   1.340   5.670   6.450  0.4584  0.3729 -0.1774
  177SLPC   O3220081   1.460   5.668   6.459 -0.6819  0.2924 -0.0528
  177SLPC   C3220082   1.259   5.656   6.318  0.1085 -0.0848 -0.1159
  177SLPC   H2X20083   1.207   5.753   6.302 -1.4368 -1.0766 -1.4763
  177SLPC   H2Y20084   1.189   5.572   6.339  0.2898 -0.1157  0.3803
  177SLPC   C2320085   1.210   5.191   6.420 -0.2070  0.2616  0.2476
  177SLPC   H3R20086   1.128   5.250   6.373 -0.4671 -0.0612  0.2860
  177SLPC   H3S20087   1.157   5.127   6.494  0.1814  0.6219  0.8354
  177SLPC   C2420088   1.280   5.098   6.311 -0.1098 -0.9743 -0.4658
  177SLPC   H4R20089   1.318   5.006   6.361 -0.4348 -0.8970 -0.0730
  177SLPC   H4S20090   1.365   5.149   6.261  0.7019 -1.8463 -0.0079
  177SLPC   C2520091   1.185   5.058   6.194  0.7287  0.1958 -0.1417
  177SLPC   H5R20092   1.145   5.149   6.144  0.4174 -0.6158 -1.4150
  177SLPC   H5S20093   1.100   5.005   6.242 -1.9518  0.7347 -3.9138
  177SLPC   C2620094   1.265   4.978   6.092  0.4987 -0.0202 -0.2916
  177SLPC   H6R20095   1.317   4.894   6.141  0.3448 -0.8709 -1.5261
  177SLPC   H6S20096   1.339   5.049   6.049  0.2280  0.0460 -0.6610
  177SLPC   C2720097   1.184   4.921   5.979  0.2613 -0.1876 -0.1344
  177SLPC   H7R20098   1.119   5.002   5.939  2.4953  1.5560 -0.4545
  177SLPC   H7S20099   1.119   4.843   6.024  1.9266 -0.5502  1.8009
  177SLPC   C2820100   1.268   4.874   5.862  0.1251 -0.6400 -0.2565
  177SLPC   H8R20101   1.214   4.816   5.784  2.7068 -3.8153  0.1149
  177SLPC   H8S20102   1.348   4.807   5.898  1.0887  0.5869 -0.0438
  177SLPC   C2920103   1.315   4.986   5.781  0.1201 -0.4224 -0.0523
  177SLPC   H9R20104   1.388   5.045   5.840  0.2943 -1.6313  0.9737
  177SLPC  C21020105   1.286   5.023   5.656  0.4985 -0.4534  0.0040
  177SLPC  H10R20106   1.341   5.110   5.618 -0.7901  1.4388  2.1526
  177SLPC  C21120107   1.175   4.964   5.565 -0.9091 -0.2763  0.2683
  177SLPC  H11R20108   1.126   5.046   5.507 -0.7773 -1.6453 -1.8693
  177SLPC  H11S20109   1.099   4.920   5.633  0.0635 -1.5137  0.5853
  177SLPC  C21220110   1.226   4.849   5.479  0.3691 -0.2789 -0.6506
  177SLPC  H12R20111   1.314   4.796   5.519 -1.0081 -1.0823  1.5369
  177SLPC  C21320112   1.173   4.802   5.373  0.5771  0.1196 -0.5116
  177SLPC  H13R20113   1.214   4.706   5.337 -0.1468 -0.3620 -0.1005
  177SLPC  C21420114   1.038   4.830   5.313  0.5373 -0.2062  0.5217
  177SLPC  H14R20115   0.990   4.926   5.343  0.3390 -0.0446 -0.2882
  177SLPC  H14S20116   0.962   4.755   5.343 -1.4339  1.4038 -0.1500
  177SLPC  C21520117   1.035   4.823   5.158  0.2510  0.3140  0.3376
  177SLPC  H15R20118   1.082   4.914   5.115 -2.1338  1.7893  0.6524
  177SLPC  H15S20119   0.926   4.825   5.137  0.1456  1.0684  0.9012
  177SLPC  C21620120   1.105   4.696   5.108 -0.3947  0.3853  0.3805
  177SLPC  H16R20121   1.058   4.599   5.136 -0.0762  0.0818 -0.1118
  177SLPC  H16S20122   1.208   4.676   5.145 -0.1608 -2.2096 -1.3930
  177SLPC  C21720123   1.112   4.701   4.953  0.7092 -0.8957  0.0070
  177SLPC  H17R20124   1.160   4.605   4.925  0.9021 -0.8177  0.0691
  177SLPC  H17S20125   1.183   4.779   4.918 -0.6529  0.5212  0.2800
  177SLPC  C21820126   0.981   4.710   4.871 -0.2245  0.1259  0.1409
  177SLPC  H18R20127   0.900   4.675   4.938  1.1952 -1.1186  1.2685
  177SLPC  H18S20128   0.994   4.646   4.781  1.4300  0.5143  0.0740
  177SLPC  H18T20129   0.971   4.809   4.820  1.7253 -0.0113 -0.5823
  177SLPC   C3320130   1.352   5.620   6.201  0.4048 -0.1504 -1.6678
  177SLPC   H3X20131   1.421   5.538   6.229  1.5171  0.7916 -1.6003
  177SLPC   H3Y20132   1.419   5.707   6.184  1.1706 -0.0891  1.1091
  177SLPC   C3420133   1.280   5.575   6.070 -0.1282  0.4164 -0.2113
  177SLPC   H4X20134   1.344   5.579   5.980  0.4493 -2.0969  0.0295
  177SLPC   H4Y20135   1.197   5.648   6.057  0.0427  0.8616  1.0475
  177SLPC   C3520136   1.218   5.434   6.080 -0.5401 -0.7127  0.0213
  177SLPC   H5X20137   1.157   5.419   6.171 -0.7811 -0.7354 -0.1416
  177SLPC   H5Y20138   1.298   5.357   6.084 -0.8280 -1.0712 -0.7984
  177SLPC   C3620139   1.129   5.406   5.953 -0.8364 -0.1268 -0.3329
  177SLPC   H6X20140   1.103   5.298   5.947 -0.3792 -0.1709 -1.7021
  177SLPC   H6Y20141   1.194   5.423   5.865 -0.2923 -1.7481 -0.2733
  177SLPC   C3720142   1.005   5.502   5.931 -0.2490  0.1012 -0.0963
  177SLPC   H7X20143   1.037   5.608   5.931 -1.4938  0.4957  0.4512
  177SLPC   H7Y20144   0.940   5.489   6.021  0.5772  0.1836  0.5217
  177SLPC   C3820145   0.928   5.467   5.800 -0.1787 -0.1812  0.6830
  177SLPC   H8X20146   0.822   5.496   5.812 -0.3629  0.3786 -1.8587
  177SLPC   H8Y20147   0.941   5.357   5.790  1.7593  0.1717 -1.8840
  177SLPC   C3920148   0.987   5.531   5.677 -0.1753 -0.2090  0.0955
  177SLPC   H9X20149   1.097   5.512   5.675  0.1599 -0.1722  4.8533
  177SLPC   H9Y20150   0.971   5.640   5.686 -3.2284 -0.4313 -1.3528
  177SLPC  C31020151   0.921   5.472   5.551 -0.2507  0.1423 -1.2070
  177SLPC  H10X20152   0.823   5.523   5.540 -1.4538 -1.1158  2.3795
  177SLPC  H10Y20153   0.881   5.370   5.569 -3.7527  1.7047  0.8565
  177SLPC  C31120154   1.004   5.480   5.416  0.3522 -0.1788  0.3630
  177SLPC  H11X20155   1.112   5.496   5.434  0.5829  0.4310 -1.3496
  177SLPC  H11Y20156   0.963   5.562   5.352 -1.9760 -1.3607  0.2095
  177SLPC  C31220157   0.990   5.357   5.337 -0.6316 -0.5345 -0.1217
  177SLPC  H12X20158   0.886   5.322   5.317 -0.2349 -2.7481  1.3638
  177SLPC  H12Y20159   1.039   5.274   5.391 -0.0329 -0.1569 -0.0814
  177SLPC  C31320160   1.054   5.376   5.191 -0.0632  0.8909  0.3941
  177SLPC  H13X20161   1.159   5.410   5.204 -0.0283  1.0315 -0.2436
  177SLPC  H13Y20162   1.010   5.468   5.146 -0.6057  0.2261 -0.4738
  177SLPC  C31420163   1.047   5.246   5.105  0.6587 -0.3157  0.2998
  177SLPC  H14X20164   0.944   5.221   5.071 -0.3105  2.0717  1.2733
  177SLPC  H14Y20165   1.077   5.154   5.161 -1.4460 -2.5965 -2.0470
  177SLPC  C31520166   1.130   5.240   4.973  0.1117 -0.4308 -0.5019
  177SLPC  H15X20167   1.232   5.277   4.992 -0.6403  0.5527  1.9733
  177SLPC  H15Y20168   1.085   5.315   4.903 -3.6461 -0.5775  1.4754
  177SLPC  C31620169   1.119   5.101   4.905 -0.6032 -0.4044  0.1109
  177SLPC  H16X20170   1.020   5.051   4.915 -0.5359 -0.3643  1.1517
  177SLPC  H16Y20171   1.180   5.023   4.956 -2.0554 -1.0819  0.8943
  177SLPC  C31720172   1.143   5.109   4.757 -0.2065 -0.5822 -0.3552
  177SLPC  H17X20173   1.224   5.182   4.733 -1.4758  1.0603  0.1818
  177SLPC  H17Y20174   1.063   5.164   4.705  1.2482  0.0390 -2.0430
  177SLPC  C31820175   1.160   4.978   4.677  0.1594 -0.1807 -0.3078
  177SLPC  H18X20176   1.177   4.999   4.569  0.8493  1.4912  0.0944
  177SLPC  H18Y20177   1.068   4.920   4.701  0.6558 -0.4461  1.0086
  177SLPC  H18Z20178   1.242   4.914   4.716  0.7506  1.2356  0.8416
  178SLPC     N20179   6.370   2.183   7.263 -0.0134 -0.3374 -0.0304
  178SLPC   C1320180   6.347   2.306   7.340  0.4259  0.8912 -0.0386
  178SLPC  H13A20181   6.441   2.347   7.372 -1.0767  4.0444  0.7260
  178SLPC  H13B20182   6.286   2.377   7.286 -2.1849 -0.3449  1.0961
  178SLPC  H13C20183   6.300   2.280   7.434  0.0434 -0.0742 -0.4854
  178SLPC   C1420184   6.246   2.097   7.265  0.0557  0.2695  0.1364
  178SLPC  H14A20185   6.272   2.010   7.206 -1.9426 -0.3488  0.0839
  178SLPC  H14B20186   6.212   2.058   7.359 -1.0655 -1.5554 -0.9632
  178SLPC  H14C20187   6.169   2.143   7.204 -1.5630 -1.9714  0.3519
  178SLPC   C1520188   6.476   2.108   7.345 -0.7595  0.5056  0.0277
  178SLPC  H15A20189   6.569   2.160   7.326 -1.4581  2.1600  0.9359
  178SLPC  H15B20190   6.444   2.106   7.448 -1.4833 -0.7866 -0.2027
  178SLPC  H15C20191   6.489   2.012   7.297  0.7616  1.5362 -1.8012
  178SLPC   C1220192   6.423   2.214   7.123 -0.2155  0.8249  0.7877
  178SLPC  H12A20193   6.492   2.139   7.088 -1.6831 -0.5056  0.5889
  178SLPC  H12B20194   6.489   2.298   7.136 -0.4417  1.3936 -1.3634
  178SLPC   C1120195   6.326   2.264   7.019  0.0350 -0.0668  0.3896
  178SLPC  H11A20196   6.265   2.177   6.987 -1.1270  0.6096  0.6946
  178SLPC  H11B20197   6.382   2.303   6.932 -1.3528  1.0870 -0.0084
  178SLPC     P20198   6.122   2.432   7.017 -0.1648  0.2029  0.1010
  178SLPC   O1320199   6.023   2.328   7.006 -0.5006 -0.0985 -0.4114
  178SLPC   O1420200   6.072   2.556   7.089 -0.1218  0.3205 -0.2509
  178SLPC   O1220201   6.260   2.382   7.078  0.3343  0.5666  0.0511
  178SLPC   O1120202   6.175   2.471   6.874 -0.1221  0.1743  0.1409
  178SLPC    C120203   6.094   2.545   6.786 -0.5168  0.5920  0.2684
  178SLPC    HA20204   6.017   2.607   6.836  0.2197  1.8291 -0.0584
  178SLPC    HB20205   6.159   2.622   6.738  0.3465 -0.2445  0.0590
  178SLPC    C220206   6.021   2.453   6.674 -0.3506 -1.0095  0.5506
  178SLPC    HS20207   5.982   2.361   6.722 -0.2626 -0.4695  1.7024
  178SLPC   O2120208   6.116   2.421   6.572  1.0627 -0.4749 -0.2056
  178SLPC   C2120209   6.081   2.339   6.486  0.7124 -0.0954 -0.3904
  178SLPC   O2220210   5.981   2.264   6.490 -0.3592 -0.0334  0.1781
  178SLPC   C2220211   6.188   2.346   6.381  0.5167 -0.2439  0.9642
  178SLPC   H2R20212   6.145   2.407   6.298  0.3284  0.3425  1.4822
  178SLPC   H2S20213   6.276   2.399   6.424  0.0109  0.2752  1.3751
  178SLPC    C320214   5.891   2.525   6.626  0.8170  0.0946  0.0905
  178SLPC    HX20215   5.823   2.540   6.713 -1.0135  0.2688 -1.3134
  178SLPC    HY20216   5.834   2.459   6.558  2.4578 -1.3410  0.0356
  178SLPC   O3120217   5.916   2.655   6.572 -0.5157 -0.1809  0.6611
  178SLPC   C3120218   5.905   2.662   6.444  0.6351  0.2880 -0.3083
  178SLPC   O3220219   5.894   2.570   6.368  0.5973  0.5601 -0.0901
  178SLPC   C3220220   5.919   2.814   6.388  0.0156  0.4461 -0.3883
  178SLPC   H2X20221   5.987   2.860   6.462 -0.6804  2.5775 -1.0041
  178SLPC   H2Y20222   5.815   2.851   6.380  0.3510  1.2259 -1.3620
  178SLPC   C2320223   6.233   2.203   6.328  0.6946  0.2143 -0.1156
  178SLPC   H3R20224   6.148   2.150   6.280  0.0144  0.7220  0.4984
  178SLPC   H3S20225   6.255   2.138   6.416  2.3500  1.0289  0.0993
  178SLPC   C2420226   6.359   2.198   6.240 -0.4858  0.2755 -0.2266
  178SLPC   H4R20227   6.449   2.229   6.297 -0.7766  0.8859 -0.0889
  178SLPC   H4S20228   6.340   2.268   6.156 -1.2543 -0.6450 -0.8439
  178SLPC   C2520229   6.381   2.056   6.181 -0.3563  0.1896  0.6727
  178SLPC   H5R20230   6.286   2.038   6.125  0.8323 -1.2935 -0.9484
  178SLPC   H5S20231   6.390   1.978   6.259  2.9456  0.5749  0.7799
  178SLPC   C2620232   6.500   2.051   6.086  0.3243  0.1469 -0.5194
  178SLPC   H6R20233   6.592   2.015   6.136  1.6391  2.3373 -1.2487
  178SLPC   H6S20234   6.522   2.151   6.043 -0.8572  0.0338 -1.4422
  178SLPC   C2720235   6.470   1.960   5.973  0.4136 -0.1337  0.0856
  178SLPC   H7R20236   6.376   1.988   5.920 -0.7542  0.5944  2.3705
  178SLPC   H7S20237   6.456   1.864   6.027  2.8465 -0.7288 -0.2278
  178SLPC   C2820238   6.579   1.921   5.870 -0.8603 -0.3407 -0.1667
  178SLPC   H8R20239   6.516   1.865   5.798 -0.9818 -1.0160  0.4542
  178SLPC   H8S20240   6.658   1.859   5.918 -0.8195 -0.7678 -0.7788
  178SLPC   C2920241   6.643   2.044   5.807 -0.0988 -0.0917 -0.4951
  178SLPC   H9R20242   6.703   2.108   5.874 -0.3027  2.0349 -2.2133
  178SLPC  C21020243   6.634   2.083   5.681  0.5758 -0.2937 -0.4837
  178SLPC  H10R20244   6.667   2.187   5.663 -1.1394  0.8956  2.4920
  178SLPC  C21120245   6.546   2.020   5.576  0.2921  0.0826 -0.3370
  178SLPC  H11R20246   6.446   2.000   5.619  0.1144  1.3349 -0.1356
  178SLPC  H11S20247   6.600   1.926   5.552 -0.3033 -0.1801 -0.6497
  178SLPC  C21220248   6.520   2.089   5.448 -0.3612  0.1418 -0.0593
  178SLPC  H12R20249   6.554   2.027   5.364 -0.3195 -0.0966  0.1322
  178SLPC  C21320250   6.455   2.210   5.437 -1.0639  0.1737  0.4391
  178SLPC  H13R20251   6.419   2.239   5.337 -0.7828 -1.9743 -0.3250
  178SLPC  C21420252   6.387   2.274   5.553 -0.2819 -0.5916  0.1263
  178SLPC  H14R20253   6.374   2.205   5.639  1.8537  0.9327  1.7601
  178SLPC  H14S20254   6.280   2.276   5.524 -0.3035  1.7867  0.1971
  178SLPC  C21520255   6.433   2.413   5.605  0.2339  0.3094  0.4293
  178SLPC  H15R20256   6.421   2.473   5.511 -1.2002  1.8639  1.5348
  178SLPC  H15S20257   6.537   2.422   5.641  0.2080 -0.0868  0.6017
  178SLPC  C21620258   6.332   2.482   5.699 -0.5743 -0.7097 -0.1743
  178SLPC  H16R20259   6.228   2.476   5.660 -0.9915  0.5948  0.6793
  178SLPC  H16S20260   6.356   2.590   5.695 -2.0252 -0.3915 -1.0368
  178SLPC  C21720261   6.345   2.428   5.841 -0.1946  0.4487 -0.5206
  178SLPC  H17R20262   6.450   2.432   5.875 -0.6024 -0.3289  0.9221
  178SLPC  H17S20263   6.317   2.321   5.841 -1.3674  0.7397 -0.4688
  178SLPC  C21820264   6.237   2.498   5.933 -1.4944  0.0416  0.5766
  178SLPC  H18R20265   6.132   2.485   5.897 -0.9525  2.1639 -2.0870
  178SLPC  H18S20266   6.264   2.604   5.920  2.6796 -0.8591  0.5814
  178SLPC  H18T20267   6.241   2.452   6.034  0.7110 -3.4063 -0.8587
  178SLPC   C3320268   5.981   2.821   6.244 -0.0059  0.8525 -0.5866
  178SLPC   H3X20269   6.078   2.769   6.251 -0.0012  1.1060  1.8461
  178SLPC   H3Y20270   6.002   2.928   6.224 -0.8118  1.0204 -0.5668
  178SLPC   C3420271   5.884   2.762   6.140 -0.0410 -0.2328 -0.1300
  178SLPC   H4X20272   5.784   2.805   6.163  0.8999  2.2778 -0.4513
  178SLPC   H4Y20273   5.888   2.654   6.165  0.3883 -0.2195 -0.1364
  178SLPC   C3520274   5.923   2.805   5.998  0.4741  0.3058  0.1424
  178SLPC   H5X20275   6.016   2.750   5.969  1.7500  0.1327  3.9917
  178SLPC   H5Y20276   5.972   2.905   5.996  2.1367 -0.4728 -0.8042
  178SLPC   C3620277   5.805   2.797   5.903 -0.2703  0.1342 -0.6109
  178SLPC   H6X20278   5.734   2.880   5.924 -0.3549 -0.2822  0.8906
  178SLPC   H6Y20279   5.736   2.714   5.930  0.3901 -0.0181  0.6750
  178SLPC   C3720280   5.838   2.795   5.754  0.2276  0.4115 -0.5612
  178SLPC   H7X20281   5.931   2.851   5.727  2.4323 -2.2991  0.8563
  178SLPC   H7Y20282   5.754   2.838   5.696 -0.6851  0.4407  0.7285
  178SLPC   C3820283   5.859   2.645   5.701  0.3243 -0.4398 -0.0651
  178SLPC   H8X20284   5.933   2.602   5.773  1.2146  1.4332  0.2111
  178SLPC   H8Y20285   5.909   2.652   5.602  0.2646  1.1428 -0.0163
  178SLPC   C3920286   5.732   2.567   5.693  1.7780 -0.4172 -0.0077
  178SLPC   H9X20287   5.658   2.632   5.641  0.9481 -1.2215  0.1598
  178SLPC   H9Y20288   5.694   2.541   5.794  1.4685  0.7902  0.2056
  178SLPC  C31020289   5.736   2.433   5.617 -0.2019  0.1151  0.9884
  178SLPC  H10X20290   5.812   2.364   5.661  1.6750  1.3355 -0.2060
  178SLPC  H10Y20291   5.783   2.455   5.519  0.9050  0.9932  1.6997
  178SLPC  C31120292   5.596   2.375   5.587 -1.2274 -0.7399 -0.1623
  178SLPC  H11X20293   5.540   2.464   5.549 -0.0352  1.2121  2.2887
  178SLPC  H11Y20294   5.542   2.348   5.681 -3.0911 -1.5949 -1.4129
  178SLPC  C31220295   5.577   2.261   5.488  0.3757  0.1268  0.5324
  178SLPC  H12X20296   5.471   2.229   5.480  0.1077  0.6795  1.8021
  178SLPC  H12Y20297   5.648   2.181   5.520 -0.0863 -0.3207  0.4536
  178SLPC  C31320298   5.628   2.303   5.350  0.3933  0.1042  0.2207
  178SLPC  H13X20299   5.738   2.309   5.338  0.2970  0.6338 -0.3885
  178SLPC  H13Y20300   5.603   2.409   5.330  1.5826 -0.1055 -2.8243
  178SLPC  C31420301   5.569   2.217   5.238  0.0371 -0.1087 -0.2938
  178SLPC  H14X20302   5.460   2.203   5.247 -0.0304  0.9358  0.8098
  178SLPC  H14Y20303   5.596   2.111   5.258  0.9603  0.1076 -0.3456
  178SLPC  C31520304   5.586   2.273   5.095  0.9388 -0.9944 -0.0391
  178SLPC  H15X20305   5.518   2.361   5.082  0.9004 -0.3276  3.6275
  178SLPC  H15Y20306   5.562   2.197   5.017 -0.2808 -0.2976 -0.3800
  178SLPC  C31620307   5.731   2.297   5.057 -0.3592  0.3155  0.0853
  178SLPC  H16X20308   5.785   2.202   5.078 -0.8007  0.0717  0.1125
  178SLPC  H16Y20309   5.761   2.376   5.129  1.7421  0.7615 -1.1855
  178SLPC  C31720310   5.758   2.340   4.914 -0.0191  0.6379 -0.1815
  178SLPC  H17X20311   5.724   2.259   4.846 -1.3812  1.1835 -0.1879
  178SLPC  H17Y20312   5.867   2.354   4.897  0.7192 -1.9270  1.7780
  178SLPC  C31820313   5.676   2.463   4.872 -0.3127 -1.1967 -0.6284
  178SLPC  H18X20314   5.694   2.492   4.766 -1.6463  2.7285  0.0196
  178SLPC  H18Y20315   5.683   2.546   4.946 -1.0955 -0.0124 -1.8216
  178SLPC  H18Z20316   5.566   2.447   4.870 -0.4252 -1.2482  2.2062
  179SLPC     N20317   2.924   0.682   2.375  0.3048  0.4846 -0.2678
  179SLPC   C1320318   2.940   0.763   2.496 -0.2129 -0.2026 -0.4101
  179SLPC  H13A20319   3.040   0.802   2.510 -0.9405  1.7713 -0.3071
  179SLPC  H13B20320   2.887   0.856   2.479  0.3187 -0.1746 -2.0894
  179SLPC  H13C20321   2.917   0.721   2.593 -2.3118 -1.1415 -1.2759
  179SLPC   C1420322   3.000   0.550   2.376 -0.0729  0.6759 -0.1185
  179SLPC  H14A20323   2.963   0.491   2.459  0.0593  0.3929 -0.2600
  179SLPC  H14B20324   2.971   0.492   2.290  0.8076  0.2136 -0.1159
  179SLPC  H14C20325   3.108   0.552   2.372  0.1811 -3.5084 -0.3218
  179SLPC   C1520326   2.976   0.765   2.262  0.3068 -0.6131 -0.2939
  179SLPC  H15A20327   3.083   0.781   2.271  0.3916  0.9893 -2.9702
  179SLPC  H15B20328   2.959   0.722   2.165 -1.4506 -0.0224 -0.2871
  179SLPC  H15C20329   2.933   0.864   2.273  1.8228  0.0945 -0.4153
  179SLPC   C1220330   2.778   0.648   2.360  0.4521 -0.4305  0.1680
  179SLPC  H12A20331   2.723   0.736   2.391  0.7271  0.1201 -0.8553
  179SLPC  H12B20332   2.744   0.575   2.432 -1.9729  2.1533  1.8775
  179SLPC   C1120333   2.728   0.626   2.219  0.8270 -0.9617 -0.7618
  179SLPC  H11A20334   2.767   0.702   2.149  0.7584  0.5511  0.7899
  179SLPC  H11B20335   2.617   0.626   2.213  0.7483 -0.9444  0.5980
  179SLPC     P20336   2.686   0.367   2.218 -0.3390 -0.0971  0.2851
  179SLPC   O1320337   2.556   0.368   2.147  0.7468 -0.1175 -0.0657
  179SLPC   O1420338   2.772   0.250   2.196  0.1137  0.8427  0.2343
  179SLPC   O1220339   2.760   0.493   2.165 -0.5036  0.2608  0.3057
  179SLPC   O1120340   2.657   0.393   2.369  0.2112 -0.0483  0.0490
  179SLPC    C120341   2.533   0.342   2.421  0.6163  0.4141 -0.8200
  179SLPC    HA20342   2.444   0.401   2.391 -1.4701 -0.9425  2.1775
  179SLPC    HB20343   2.518   0.237   2.388  0.2751  0.4397 -0.7548
  179SLPC    C220344   2.515   0.354   2.578 -0.4600 -0.6804 -0.4408
  179SLPC    HS20345   2.427   0.290   2.601  0.7176 -1.9132  0.8097
  179SLPC   O2120346   2.476   0.488   2.607 -0.0187  0.1537  0.0690
  179SLPC   C2120347   2.551   0.583   2.639  0.5525 -0.2933 -0.4120
  179SLPC   O2220348   2.670   0.590   2.632 -0.4418  0.3895  0.4124
  179SLPC   C2220349   2.458   0.707   2.649 -0.3335  0.3078 -0.4619
  179SLPC   H2R20350   2.505   0.793   2.596  0.3551  1.5716  2.0166
  179SLPC   H2S20351   2.365   0.686   2.592  0.4341  1.3281 -2.1886
  179SLPC    C320352   2.637   0.298   2.662  0.2735  0.0879  0.9513
  179SLPC    HX20353   2.734   0.329   2.618  1.8422  0.8213  4.5078
  179SLPC    HY20354   2.638   0.188   2.644  0.3522 -0.1017  2.0202
  179SLPC   O3120355   2.641   0.329   2.802 -0.3713 -0.1930 -0.5162
  179SLPC   C3120356   2.562   0.250   2.880  0.3185 -0.6223  0.6006
  179SLPC   O3220357   2.490   0.162   2.837 -0.2947  0.8781  0.1066
  179SLPC   C3220358   2.576   0.287   3.030  0.2997 -0.0425 -0.4601
  179SLPC   H2X20359   2.663   0.354   3.047  1.2656 -1.0409 -1.2791
  179SLPC   H2Y20360   2.591   0.193   3.087 -1.6164  1.1230  2.1970
  179SLPC   C2320361   2.423   0.751   2.797 -0.2514 -0.4648  0.0513
  179SLPC   H3R20362   2.425   0.663   2.864  1.1345 -0.4128  0.1072
  179SLPC   H3S20363   2.318   0.789   2.793 -0.8384 -2.0035  0.0683
  179SLPC   C2420364   2.523   0.849   2.862 -0.2166 -0.4026 -0.1697
  179SLPC   H4R20365   2.523   0.943   2.803  1.5534  0.3505  0.9546
  179SLPC   H4S20366   2.629   0.818   2.857 -0.3494 -1.0889  1.0583
  179SLPC   C2520367   2.499   0.891   3.006  0.2652  0.4406 -0.2262
  179SLPC   H5R20368   2.399   0.940   3.008  1.7500  3.6914  1.6273
  179SLPC   H5S20369   2.585   0.958   3.027  2.0282 -1.6146 -0.5640
  179SLPC   C2620370   2.509   0.776   3.115  0.2350  0.2504  0.0269
  179SLPC   H6R20371   2.575   0.697   3.072 -1.2592 -0.3740 -1.2076
  179SLPC   H6S20372   2.410   0.728   3.130  1.2852 -1.4048  2.2901
  179SLPC   C2720373   2.542   0.832   3.249 -0.2361 -0.0538  0.0364
  179SLPC   H7R20374   2.474   0.912   3.287  0.1312  0.3042 -0.0578
  179SLPC   H7S20375   2.638   0.886   3.238 -0.3448  0.0827 -0.2499
  179SLPC   C2820376   2.546   0.716   3.353 -0.0206 -0.1416  0.4837
  179SLPC   H8R20377   2.622   0.649   3.308 -1.6340 -0.5942 -1.7680
  179SLPC   H8S20378   2.448   0.666   3.342  0.0060 -0.2589  0.7652
  179SLPC   C2920379   2.574   0.760   3.491 -0.0328 -0.3458  0.1605
  179SLPC   H9R20380   2.545   0.864   3.511  1.6469  0.3024 -0.6049
  179SLPC  C21020381   2.644   0.694   3.586  0.0797  0.3244 -0.4464
  179SLPC  H10R20382   2.642   0.733   3.689 -1.5118 -1.0037  0.0786
  179SLPC  C21120383   2.713   0.558   3.576  0.0790 -0.1917 -0.4051
  179SLPC  H11R20384   2.721   0.534   3.467  0.2847  0.0571 -0.4451
  179SLPC  H11S20385   2.654   0.478   3.626 -0.3871  0.6700  0.4442
  179SLPC  C21220386   2.847   0.549   3.642 -0.4890 -0.4779  0.0171
  179SLPC  H12R20387   2.933   0.561   3.574 -2.4475  1.7889 -2.2413
  179SLPC  C21320388   2.866   0.535   3.775  0.2234  0.3732  0.0930
  179SLPC  H13R20389   2.968   0.522   3.814 -0.5361 -2.1059  1.4282
  179SLPC  C21420390   2.756   0.526   3.878  0.2090  0.1574 -0.5729
  179SLPC  H14R20391   2.683   0.446   3.854 -0.1941 -0.1600  1.4905
  179SLPC  H14S20392   2.706   0.625   3.872  1.0530  0.6528  0.2817
  179SLPC  C21520393   2.798   0.496   4.024 -0.0593  0.1181  0.0845
  179SLPC  H15R20394   2.864   0.579   4.059  0.3046 -0.2655  0.3137
  179SLPC  H15S20395   2.848   0.397   4.024  1.9543  1.0731 -0.8414
  179SLPC  C21620396   2.670   0.493   4.115  0.3097 -0.6250 -0.5088
  179SLPC  H16R20397   2.628   0.394   4.141  0.8608 -0.7007  0.1303
  179SLPC  H16S20398   2.586   0.539   4.059 -1.1147 -2.1456  0.2733
  179SLPC  C21720399   2.688   0.567   4.247 -0.1519 -0.4261  0.0447
  179SLPC  H17R20400   2.718   0.672   4.224  1.0170 -0.5991  0.6818
  179SLPC  H17S20401   2.769   0.517   4.304 -2.6772 -1.3889  3.1078
  179SLPC  C21820402   2.572   0.582   4.344 -0.2728  0.3918  0.2862
  179SLPC  H18R20403   2.494   0.641   4.291 -0.1578  1.6746  1.4977
  179SLPC  H18S20404   2.617   0.637   4.429 -1.5842  1.7992  0.1079
  179SLPC  H18T20405   2.535   0.485   4.384 -1.6192  0.3117 -1.0831
  179SLPC   C3320406   2.429   0.329   3.075 -0.1751 -0.1557  0.4363
  179SLPC   H3X20407   2.361   0.244   3.054  0.3372 -0.1750 -1.2791
  179SLPC   H3Y20408   2.398   0.417   3.016  0.9059 -0.4412 -0.6040
  179SLPC   C3420409   2.422   0.365   3.223  0.6046 -0.4034 -1.0948
  179SLPC   H4X20410   2.488   0.448   3.254 -0.8747  0.3562  0.1257
  179SLPC   H4Y20411   2.442   0.276   3.286  4.0240  2.0331  1.5820
  179SLPC   C3520412   2.279   0.407   3.272 -0.4499 -0.9673 -0.0354
  179SLPC   H5X20413   2.271   0.517   3.262  3.4338 -0.4407  0.9623
  179SLPC   H5Y20414   2.213   0.354   3.199  1.6150 -3.6050 -0.1593
  179SLPC   C3620415   2.241   0.372   3.417  0.0688  0.4150  0.1499
  179SLPC   H6X20416   2.257   0.265   3.440  0.7091  0.5989  0.5642
  179SLPC   H6Y20417   2.133   0.399   3.421 -0.0132  0.2242 -0.5783
  179SLPC   C3720418   2.327   0.454   3.511 -0.0527 -0.4153 -0.0715
  179SLPC   H7X20419   2.309   0.562   3.493 -0.4262 -0.3860  0.4709
  179SLPC   H7Y20420   2.434   0.436   3.487  0.2042 -0.0267  0.7494
  179SLPC   C3820421   2.304   0.409   3.660 -0.0066 -0.3911  0.2228
  179SLPC   H8X20422   2.346   0.309   3.683  4.4917  0.8520 -1.4823
  179SLPC   H8Y20423   2.193   0.403   3.658 -0.1079  1.0807 -2.0796
  179SLPC   C3920424   2.367   0.509   3.764 -0.0550 -0.8734 -0.0776
  179SLPC   H9X20425   2.339   0.612   3.737  0.5422 -0.8395 -0.5861
  179SLPC   H9Y20426   2.477   0.498   3.772 -0.1719 -1.9817  0.3020
  179SLPC  C31020427   2.315   0.488   3.913 -0.4050 -0.1422 -0.1582
  179SLPC  H10X20428   2.204   0.482   3.913 -0.4588 -1.1608 -3.4689
  179SLPC  H10Y20429   2.359   0.575   3.967  0.6969 -1.2805  0.8533
  179SLPC  C31120430   2.369   0.360   3.975 -0.0316  0.6658 -0.2470
  179SLPC  H11X20431   2.479   0.344   3.965  0.1675  1.8458 -0.1026
  179SLPC  H11Y20432   2.324   0.275   3.919  1.5657 -1.7214  1.8562
  179SLPC  C31220433   2.339   0.346   4.125  0.5444 -0.7148 -0.1792
  179SLPC  H12X20434   2.234   0.381   4.132  1.1486  0.9153  2.0933
  179SLPC  H12Y20435   2.395   0.421   4.184 -0.2488 -0.3982  0.1866
  179SLPC  C31320436   2.331   0.196   4.169 -0.1146 -0.0663 -0.3093
  179SLPC  H13X20437   2.302   0.138   4.080 -0.7014 -1.3476  0.6848
  179SLPC  H13Y20438   2.254   0.193   4.249 -1.4804 -0.9786 -1.6080
  179SLPC  C31420439   2.471   0.127   4.201 -0.0259 -0.4578 -0.5318
  179SLPC  H14X20440   2.538   0.174   4.125  1.0553  0.4367  0.9168
  179SLPC  H14Y20441   2.452   0.018   4.192  0.1915 -0.6747  1.3404
  179SLPC  C31520442   2.517   0.167   4.342 -0.2464  0.1803  0.7353
  179SLPC  H15X20443   2.489   0.270   4.373  1.1636  0.4735  1.0850
  179SLPC  H15Y20444   2.627   0.173   4.331 -0.1463 -2.7383 -0.6886
  179SLPC  C31620445   2.469   0.069   4.445 -0.0619 -0.3486  0.4418
  179SLPC  H16X20446   2.361   0.047   4.429  0.0867 -1.9269  1.4415
  179SLPC  H16Y20447   2.496   0.120   4.540  3.0512 -1.8439  0.4798
  179SLPC  C31720448   2.543  -0.067   4.446  0.3221 -0.3888 -0.5164
  179SLPC  H17X20449   2.648  -0.036   4.464 -0.6280  2.3732  1.0537
  179SLPC  H17Y20450   2.538  -0.115   4.346  1.1184  1.6950 -1.6274
  179SLPC  C31820451   2.501  -0.163   4.554  0.2565  0.0713  0.0576
  179SLPC  H18X20452   2.484  -0.102   4.645 -0.0989 -0.5846  0.4342
  179SLPC  H18Y20453   2.574  -0.245   4.570 -0.8978 -1.0640 -0.3053
  179SLPC  H18Z20454   2.409  -0.219   4.528 -1.1762  1.2352  2.3051
  180SLPC     N20455   1.500   1.766   2.051  0.4673  0.3705 -0.8963
  180SLPC   C1320456   1.426   1.676   2.136 -0.0517  0.5074  0.3598
  180SLPC  H13A20457   1.481   1.600   2.191  1.8964  0.7257 -1.1679
  180SLPC  H13B20458   1.378   1.734   2.214 -0.5439 -0.8349  1.0904
  180SLPC  H13C20459   1.351   1.625   2.079 -0.6910  3.2762 -1.4242
  180SLPC   C1420460   1.519   1.692   1.915  0.6082  0.1902 -0.3373
  180SLPC  H14A20461   1.589   1.747   1.855  0.4369  0.8990  0.0998
  180SLPC  H14B20462   1.563   1.594   1.926  0.3173 -0.1537 -2.0619
  180SLPC  H14C20463   1.422   1.675   1.870  0.9053 -0.5978 -0.6921
  180SLPC   C1520464   1.626   1.793   2.111 -0.1916 -0.0006  0.3952
  180SLPC  H15A20465   1.679   1.699   2.112 -0.9411 -0.4453  0.0169
  180SLPC  H15B20466   1.681   1.853   2.040  1.1464 -3.6831 -1.9694
  180SLPC  H15C20467   1.610   1.827   2.212 -1.6252  0.5009  0.0360
  180SLPC   C1220468   1.421   1.896   2.040  0.0145 -0.3195 -0.3622
  180SLPC  H12A20469   1.320   1.877   2.009  0.2049 -1.9238 -0.0815
  180SLPC  H12B20470   1.468   1.965   1.971 -1.1349  0.8382 -0.0241
  180SLPC   C1120471   1.407   1.986   2.162 -1.0470 -0.2999 -0.5243
  180SLPC  H11A20472   1.371   2.083   2.123  0.2823  0.2096 -0.5185
  180SLPC  H11B20473   1.511   2.008   2.195 -0.6507 -3.7429  0.9872
  180SLPC     P20474   1.184   1.913   2.264 -0.3780  0.0253 -0.3995
  180SLPC   O1320475   1.148   1.921   2.125  0.0779  0.6392  0.0762
  180SLPC   O1420476   1.145   1.793   2.338  0.1485  0.5968  0.1460
  180SLPC   O1220477   1.336   1.938   2.284 -0.3037  0.5346 -0.2117
  180SLPC   O1120478   1.110   2.029   2.341  0.0102 -0.1633  0.0445
  180SLPC    C120479   1.181   2.128   2.421 -0.6764 -0.5095  0.7282
  180SLPC    HA20480   1.283   2.151   2.383 -0.4339 -0.9543  1.1046
  180SLPC    HB20481   1.116   2.218   2.410  2.5446  2.0144  0.8860
  180SLPC    C220482   1.185   2.084   2.568 -0.3273  0.2483 -0.3089
  180SLPC    HS20483   1.238   1.986   2.568  1.1607  0.9765 -2.5641
  180SLPC   O2120484   1.042   2.083   2.612  0.4845  0.1145  0.8569
  180SLPC   C2120485   1.011   1.990   2.698 -0.0806 -0.2779  0.4553
  180SLPC   O2220486   1.082   1.905   2.747 -0.0212  0.3906 -0.6499
  180SLPC   C2220487   0.868   2.017   2.744  0.7627  0.0178  0.1612
  180SLPC   H2R20488   0.864   2.127   2.758  0.2744  0.2160 -1.3672
  180SLPC   H2S20489   0.790   1.999   2.667  2.6542 -0.4222 -1.7475
  180SLPC    C320490   1.268   2.172   2.666  0.0919 -1.4493 -0.1910
  180SLPC    HX20491   1.226   2.275   2.665 -0.1830 -1.5320  0.8646
  180SLPC    HY20492   1.370   2.178   2.623 -0.0002  0.2199 -0.2295
  180SLPC   O3120493   1.257   2.137   2.801 -0.5897 -0.1794 -0.2866
  180SLPC   C3120494   1.356   2.059   2.849  0.4866  0.4731  0.1038
  180SLPC   O3220495   1.460   2.024   2.798  0.0860  0.3271  0.1801
  180SLPC   C3220496   1.322   2.019   2.992 -0.3213  0.1066 -0.4601
  180SLPC   H2X20497   1.422   1.994   3.034  0.6806  0.5116 -2.4524
  180SLPC   H2Y20498   1.264   1.925   2.992  1.3858 -1.0672  2.0241
  180SLPC   C2320499   0.835   1.934   2.879  0.3107  0.1773 -0.1659
  180SLPC   H3R20500   0.923   1.960   2.941 -0.1671  1.2939  0.0687
  180SLPC   H3S20501   0.836   1.825   2.860  0.4130 -0.1771  1.7146
  180SLPC   C2420502   0.693   1.963   2.937 -0.5666 -0.6317  0.6492
  180SLPC   H4R20503   0.619   1.908   2.875  1.0461 -1.8220 -0.3133
  180SLPC   H4S20504   0.679   2.073   2.937  0.9030 -0.4187  0.9417
  180SLPC   C2520505   0.682   1.919   3.082 -0.3786 -0.7940 -0.4537
  180SLPC   H5R20506   0.784   1.935   3.123  0.3491 -1.8715 -1.7581
  180SLPC   H5S20507   0.674   1.809   3.067  0.7208 -1.0682  0.7720
  180SLPC   C2620508   0.567   1.981   3.163 -0.1953 -0.6564 -0.0431
  180SLPC   H6R20509   0.479   1.997   3.097  1.1729 -1.9973 -2.3243
  180SLPC   H6S20510   0.602   2.082   3.192  1.8648 -1.9232  2.2872
  180SLPC   C2720511   0.553   1.906   3.295  0.2865 -0.4829 -0.2157
  180SLPC   H7R20512   0.647   1.934   3.347  0.4101  0.7307 -1.0418
  180SLPC   H7S20513   0.550   1.797   3.274  0.1998 -1.3388  3.6030
  180SLPC   C2820514   0.427   1.951   3.368 -0.1119  0.0763 -0.3654
  180SLPC   H8R20515   0.338   1.935   3.303 -0.4187 -0.0031  0.0656
  180SLPC   H8S20516   0.441   2.057   3.400  0.7974 -0.1889  0.1694
  180SLPC   C2920517   0.429   1.864   3.493 -0.0739  1.0348 -0.6356
  180SLPC   H9R20518   0.457   1.760   3.472  0.3310  1.2863 -1.3602
  180SLPC  C21020519   0.400   1.892   3.620  0.1064 -0.1428  0.1482
  180SLPC  H10R20520   0.423   1.814   3.693  1.3936  2.3250  2.5477
  180SLPC  C21120521   0.355   2.028   3.670  0.0275  0.0274 -0.3498
  180SLPC  H11R20522   0.423   2.104   3.625 -0.5730  0.6567 -0.2155
  180SLPC  H11S20523   0.382   2.033   3.777 -0.4873 -1.1147 -0.1473
  180SLPC  C21220524   0.203   2.042   3.649  0.0213 -0.1451 -0.9433
  180SLPC  H12R20525   0.179   2.067   3.545 -0.0842  3.0270 -0.2776
  180SLPC  C21320526   0.099   2.011   3.745 -0.2304 -0.4777 -0.0526
  180SLPC  H13R20527  -0.002   2.042   3.714  0.1481  0.8311 -0.0805
  180SLPC  C21420528   0.122   1.964   3.885  0.3747  0.1172 -0.4931
  180SLPC  H14R20529   0.207   1.893   3.896  0.7348  0.6145 -0.0393
  180SLPC  H14S20530   0.035   1.897   3.901  1.1724 -0.8151  0.0922
  180SLPC  C21520531   0.110   2.080   3.984  0.7128 -0.0479  0.2879
  180SLPC  H15R20532   0.013   2.128   3.958 -1.9505 -4.9791 -0.0811
  180SLPC  H15S20533   0.190   2.156   3.976 -0.3974  1.4502  2.4126
  180SLPC  C21620534   0.094   2.042   4.128 -0.2479  0.6918  0.2087
  180SLPC  H16R20535   0.012   1.968   4.138 -0.4745  0.4443 -2.5049
  180SLPC  H16S20536   0.065   2.125   4.195  0.5233 -0.7165  2.3770
  180SLPC  C21720537   0.223   1.986   4.189 -0.4194 -0.0121 -0.1556
  180SLPC  H17R20538   0.307   2.052   4.161 -1.9551  1.9733 -0.3043
  180SLPC  H17S20539   0.238   1.884   4.146 -1.6049  0.1300 -0.9465
  180SLPC  C21820540   0.209   1.982   4.341  0.0080 -0.7973 -0.0114
  180SLPC  H18R20541   0.133   1.914   4.385 -1.0004  1.0132  1.2265
  180SLPC  H18S20542   0.185   2.082   4.383 -1.2309 -1.6670  1.4450
  180SLPC  H18T20543   0.307   1.960   4.390  1.0876  1.9256 -0.7340
  180SLPC   C3320544   1.274   2.136   3.083  0.0351 -0.0793 -0.0787
  180SLPC   H3X20545   1.165   2.126   3.062 -0.0154 -2.0205  0.8538
  180SLPC   H3Y20546   1.328   2.227   3.049 -1.4013  1.2880  1.1307
  180SLPC   C3420547   1.297   2.104   3.232  0.4165 -0.5608  0.3062
  180SLPC   H4X20548   1.272   2.192   3.294  0.1479  0.4119 -1.1379
  180SLPC   H4Y20549   1.405   2.088   3.251  0.2796 -2.2524 -0.1041
  180SLPC   C3520550   1.216   1.984   3.282  0.6806  0.2743 -0.9219
  180SLPC   H5X20551   1.239   1.893   3.222 -1.8599 -2.7749  2.2815
  180SLPC   H5Y20552   1.106   1.984   3.271  0.4794 -2.8139  0.2331
  180SLPC   C3620553   1.246   1.937   3.423 -0.5135 -0.4764 -0.5709
  180SLPC   H6X20554   1.355   1.948   3.443 -0.5433 -1.6182  0.2557
  180SLPC   H6Y20555   1.221   1.829   3.430 -3.3557  0.1640  1.2665
  180SLPC   C3720556   1.153   1.995   3.526  0.2200 -0.1821  0.0213
  180SLPC   H7X20557   1.045   1.981   3.505  0.0613  0.5793  0.3016
  180SLPC   H7Y20558   1.176   2.104   3.529 -2.5077  0.4583  2.5051
  180SLPC   C3820559   1.177   1.932   3.670  0.4942 -0.0280  1.0776
  180SLPC   H8X20560   1.285   1.932   3.693  0.3542 -2.3108  1.9944
  180SLPC   H8Y20561   1.148   1.825   3.662  1.1294 -0.0995 -0.7275
  180SLPC   C3920562   1.099   2.013   3.781 -0.0814 -1.1532 -0.1645
  180SLPC   H9X20563   0.990   2.001   3.761 -0.3914 -2.4058  1.9461
  180SLPC   H9Y20564   1.124   2.120   3.771  1.2906 -1.5099 -0.8591
  180SLPC  C31020565   1.134   1.971   3.924  0.2183  0.1949 -0.1547
  180SLPC  H10X20566   1.244   1.975   3.941  0.3034  2.2142 -0.8730
  180SLPC  H10Y20567   1.105   1.867   3.948  1.8758 -1.0190 -2.9824
  180SLPC  C31120568   1.061   2.072   4.012 -0.4215  0.1606 -0.1011
  180SLPC  H11X20569   0.954   2.041   4.022 -0.2905 -0.6056 -0.8889
  180SLPC  H11Y20570   1.063   2.170   3.960 -1.0342 -0.1002 -0.6440
  180SLPC  C31220571   1.133   2.088   4.155 -0.7811 -0.1900  0.3684
  180SLPC  H12X20572   1.229   2.144   4.147  0.7151 -2.2630  2.5166
  180SLPC  H12Y20573   1.166   1.986   4.184  0.9688 -0.0689 -0.9948
  180SLPC  C31320574   1.039   2.153   4.253  0.7570 -0.1683  0.0205
  180SLPC  H13X20575   0.958   2.083   4.282  0.1614  0.7320  0.6069
  180SLPC  H13Y20576   0.986   2.243   4.214 -2.7031 -1.6281  0.9363
  180SLPC  C31420577   1.100   2.194   4.387 -0.6453  0.0841 -0.0653
  180SLPC  H14X20578   1.174   2.123   4.431 -1.5385 -1.2852 -0.6948
  180SLPC  H14Y20579   1.019   2.195   4.463  1.2721 -1.3498  2.1454
  180SLPC  C31520580   1.159   2.335   4.374 -0.4740 -0.1896 -0.0486
  180SLPC  H15X20581   1.092   2.404   4.318 -0.2887 -0.2561 -0.3564
  180SLPC  H15Y20582   1.245   2.317   4.306 -1.4489 -1.0489 -1.0859
  180SLPC  C31620583   1.190   2.405   4.513  0.2991  0.4317  0.5019
  180SLPC  H16X20584   1.239   2.330   4.579 -1.0103  0.5037  1.5849
  180SLPC  H16Y20585   1.094   2.435   4.559  0.1910  1.6222 -0.4550
  180SLPC  C31720586   1.281   2.527   4.509  0.0149  0.4620  0.2075
  180SLPC  H17X20587   1.230   2.621   4.481 -0.7510  0.4280  1.4226
  180SLPC  H17Y20588   1.363   2.509   4.436  0.9094 -1.2554  1.5479
  180SLPC  C31820589   1.350   2.552   4.646 -0.4718  0.3077 -0.2289
  180SLPC  H18X20590   1.276   2.540   4.728 -1.9219 -0.6266 -1.6066
  180SLPC  H18Y20591   1.397   2.651   4.630 -0.4259 -0.0652 -2.8385
  180SLPC  H18Z20592   1.436   2.483   4.660  0.5540  1.6210  0.0770
  181SLPC     N20593   2.483   1.522   1.886 -0.0884 -0.3483 -0.3419
  181SLPC   C1320594   2.339   1.524   1.933  0.9898 -0.0215  0.5674
  181SLPC  H13A20595   2.287   1.619   1.939 -2.3417 -1.6919  1.0357
  181SLPC  H13B20596   2.283   1.465   1.863 -0.4047  0.2366  1.4152
  181SLPC  H13C20597   2.340   1.496   2.038 -0.0935 -0.8930  0.3659
  181SLPC   C1420598   2.562   1.635   1.942 -0.1355 -0.1179 -0.2799
  181SLPC  H14A20599   2.645   1.664   1.879 -0.4864  0.6315 -0.4143
  181SLPC  H14B20600   2.505   1.726   1.956  2.2750  1.4009  0.2565
  181SLPC  H14C20601   2.604   1.601   2.036 -1.8585 -1.1657  0.1535
  181SLPC   C1520602   2.476   1.530   1.748 -0.9930  0.4241  0.7385
  181SLPC  H15A20603   2.578   1.523   1.711 -1.3686 -0.0654 -0.2321
  181SLPC  H15B20604   2.421   1.451   1.699  0.0855  1.1994 -1.9227
  181SLPC  H15C20605   2.437   1.623   1.710 -2.0864  0.0903  1.0304
  181SLPC   C1220606   2.535   1.394   1.939 -0.1724  0.5541 -0.4857
  181SLPC  H12A20607   2.633   1.384   1.895 -0.1815  0.0390 -0.3937
  181SLPC  H12B20608   2.485   1.306   1.903  1.3111 -1.0966  1.2112
  181SLPC   C1120609   2.553   1.373   2.092  0.6938 -0.1984  0.4730
  181SLPC  H11A20610   2.612   1.460   2.127  1.2492  0.3607 -1.6937
  181SLPC  H11B20611   2.613   1.281   2.107  2.0845  0.5428 -0.3706
  181SLPC     P20612   2.334   1.244   2.154 -0.1809  0.3649 -0.4895
  181SLPC   O1320613   2.195   1.284   2.187  0.0856 -0.2599  0.4099
  181SLPC   O1420614   2.351   1.170   2.030 -0.1743  0.6287 -0.1057
  181SLPC   O1220615   2.425   1.374   2.156  0.7808 -0.2633 -0.0363
  181SLPC   O1120616   2.399   1.157   2.273  0.2855  0.0544  0.0375
  181SLPC    C120617   2.423   1.215   2.404 -0.6077 -0.9974 -0.1359
  181SLPC    HA20618   2.512   1.172   2.455 -1.6269 -0.1765  2.4967
  181SLPC    HB20619   2.444   1.324   2.401 -1.1877 -0.7713  2.0729
  181SLPC    C220620   2.314   1.172   2.505  0.1076 -0.8419 -0.0999
  181SLPC    HS20621   2.216   1.201   2.462  0.3690 -0.8809 -0.7219
  181SLPC   O2120622   2.355   1.238   2.625  0.4912 -0.3186 -1.4249
  181SLPC   C2120623   2.305   1.357   2.646 -0.4497  0.3118  0.2570
  181SLPC   O2220624   2.230   1.416   2.574  0.1360 -0.2507 -0.2343
  181SLPC   C2220625   2.363   1.416   2.780  0.1191 -0.2396  0.2724
  181SLPC   H2R20626   2.462   1.464   2.768 -1.4314  2.8426 -1.3705
  181SLPC   H2S20627   2.293   1.496   2.811  1.9300  1.2979  0.5682
  181SLPC    C320628   2.319   1.018   2.532  0.3834  0.1548 -0.0280
  181SLPC    HX20629   2.419   0.990   2.571  0.2435 -2.1965 -1.1709
  181SLPC    HY20630   2.290   0.956   2.444 -2.0563 -1.7925  1.9687
  181SLPC   O3120631   2.222   0.981   2.640  0.5877 -0.5235 -0.3783
  181SLPC   C3120632   2.095   0.993   2.612  0.1972 -0.0960  1.1069
  181SLPC   O3220633   2.057   1.010   2.497 -0.3485  0.2963 -0.2599
  181SLPC   C3220634   2.011   0.989   2.742  0.8019 -0.4316  0.1404
  181SLPC   H2X20635   2.074   1.016   2.829  0.5222 -0.3771  0.3257
  181SLPC   H2Y20636   1.987   0.881   2.755 -1.3204 -0.0257 -0.0420
  181SLPC   C2320637   2.361   1.309   2.895  0.2096  0.3961 -0.2300
  181SLPC   H3R20638   2.422   1.221   2.866 -0.1612 -0.6916  2.0605
  181SLPC   H3S20639   2.257   1.269   2.893  0.9677 -1.7113 -0.7603
  181SLPC   C2420640   2.372   1.373   3.037  0.8220 -0.1178  0.4080
  181SLPC   H4R20641   2.280   1.428   3.066  1.0851 -0.7400  2.6325
  181SLPC   H4S20642   2.451   1.450   3.045  1.0305 -0.4708  2.2805
  181SLPC   C2520643   2.393   1.265   3.142  0.0678  0.1114 -0.5409
  181SLPC   H5R20644   2.481   1.206   3.108  0.0107 -0.4514  0.2835
  181SLPC   H5S20645   2.299   1.207   3.153 -1.3670  1.3109 -4.6061
  181SLPC   C2620646   2.429   1.331   3.274 -0.0454  0.4145 -0.4152
  181SLPC   H6R20647   2.344   1.396   3.304 -1.3295 -0.5668 -1.7705
  181SLPC   H6S20648   2.518   1.397   3.258  0.0648  0.4313  0.2432
  181SLPC   C2720649   2.459   1.222   3.378  0.1231 -0.6570 -0.3998
  181SLPC   H7R20650   2.535   1.149   3.343  1.5880 -0.8675  2.8503
  181SLPC   H7S20651   2.368   1.163   3.402 -0.6028 -0.4127 -2.4039
  181SLPC   C2820652   2.516   1.278   3.511 -0.2430  0.3157  0.6640
  181SLPC   H8R20653   2.607   1.335   3.485 -1.9039  3.0220  0.4567
  181SLPC   H8S20654   2.552   1.196   3.578  0.1325 -0.7028 -0.7265
  181SLPC   C2920655   2.432   1.370   3.593  0.7182  0.5661  0.5969
  181SLPC   H9R20656   2.407   1.469   3.550 -2.6001 -0.4293 -0.0431
  181SLPC  C21020657   2.366   1.345   3.706 -1.0268 -0.2876  0.2448
  181SLPC  H10R20658   2.298   1.423   3.743  0.9471  2.2663 -1.1654
  181SLPC  C21120659   2.390   1.224   3.791 -0.4235  0.9758 -0.6789
  181SLPC  H11R20660   2.441   1.141   3.738 -1.4952 -0.1820  0.0437
  181SLPC  H11S20661   2.293   1.171   3.800 -0.1530  0.4309 -0.9211
  181SLPC  C21220662   2.452   1.254   3.922 -0.2588  0.2497 -1.0369
  181SLPC  H12R20663   2.503   1.352   3.934  1.8689 -0.7647 -1.2557
  181SLPC  C21320664   2.463   1.172   4.025  0.7109  0.0082 -0.1340
  181SLPC  H13R20665   2.505   1.218   4.115  2.5275 -0.7805 -0.5240
  181SLPC  C21420666   2.403   1.035   4.037  0.0080 -0.1735  0.2796
  181SLPC  H14R20667   2.485   0.963   4.012  0.3527  0.0667  0.7133
  181SLPC  H14S20668   2.315   1.024   3.970 -1.9573  1.9513  2.3314
  181SLPC  C21520669   2.362   1.006   4.186 -0.2737  0.1516  0.9567
  181SLPC  H15R20670   2.310   0.908   4.190  0.3428 -0.1903  0.7010
  181SLPC  H15S20671   2.305   1.089   4.235 -0.4457 -0.3561  1.6351
  181SLPC  C21620672   2.483   0.977   4.280 -0.7568  0.3074  0.2325
  181SLPC  H16R20673   2.556   1.061   4.278  1.4032 -1.4988  0.5871
  181SLPC  H16S20674   2.542   0.891   4.242 -1.2003 -0.1317  0.5254
  181SLPC  C21720675   2.442   0.944   4.422  0.4316 -0.7238  0.6560
  181SLPC  H17R20676   2.378   0.854   4.423 -1.9678  0.7243 -2.6879
  181SLPC  H17S20677   2.375   1.028   4.451  0.4850  0.0644 -1.3376
  181SLPC  C21820678   2.555   0.946   4.526  0.2658 -0.4784 -0.3100
  181SLPC  H18R20679   2.523   0.929   4.631  2.5215  1.0734  0.7221
  181SLPC  H18S20680   2.603   1.046   4.530 -2.1422  0.7709 -0.7415
  181SLPC  H18T20681   2.627   0.864   4.507  1.6976  1.2535 -2.9742
  181SLPC   C3320682   1.876   1.059   2.732 -0.0787 -0.4629 -1.2540
  181SLPC   H3X20683   1.819   0.998   2.805  0.2788  0.1161 -0.4682
  181SLPC   H3Y20684   1.826   1.046   2.634  2.1163 -0.6503 -2.4129
  181SLPC   C3420685   1.882   1.208   2.768  0.6331 -0.0574 -0.2225
  181SLPC   H4X20686   1.782   1.245   2.737  1.4881  0.9419 -1.9379
  181SLPC   H4Y20687   1.955   1.254   2.697  0.1788 -0.0431 -0.6896
  181SLPC   C3520688   1.922   1.260   2.906  0.6725 -0.2197 -1.0818
  181SLPC   H5X20689   2.023   1.221   2.933 -0.8634 -4.2562 -0.4652
  181SLPC   H5Y20690   1.855   1.213   2.981  1.5978  0.8896  0.5083
  181SLPC   C3620691   1.918   1.419   2.918 -0.3111  0.6425  0.4925
  181SLPC   H6X20692   1.817   1.464   2.909 -0.6949 -0.3052 -0.1808
  181SLPC   H6Y20693   1.983   1.441   2.831 -1.2629 -1.5256 -0.8654
  181SLPC   C3720694   1.983   1.468   3.043  0.1715  0.2264  0.4218
  181SLPC   H7X20695   2.001   1.575   3.023  1.8784 -0.1723 -0.3002
  181SLPC   H7Y20696   2.064   1.393   3.056 -1.8155 -2.1756 -0.0083
  181SLPC   C3820697   1.886   1.475   3.172 -0.4761 -0.4328 -0.2146
  181SLPC   H8X20698   1.854   1.370   3.188 -1.4319 -0.4964 -2.2261
  181SLPC   H8Y20699   1.809   1.551   3.148  0.6174  0.2775 -1.6632
  181SLPC   C3920700   1.960   1.528   3.297  0.0268 -0.5122  0.3945
  181SLPC   H9X20701   1.953   1.639   3.293 -2.9849 -0.6651 -1.7309
  181SLPC   H9Y20702   2.065   1.493   3.290 -0.1003 -0.6000 -1.7185
  181SLPC  C31020703   1.908   1.480   3.431  0.1521  0.0650  0.2853
  181SLPC  H10X20704   1.914   1.369   3.432  2.7313  0.1534  1.4430
  181SLPC  H10Y20705   1.800   1.505   3.445 -0.4799 -2.9012  1.5565
  181SLPC  C31120706   1.985   1.552   3.541 -0.2106 -0.0096  0.4091
  181SLPC  H11X20707   1.997   1.658   3.511  1.7957 -0.6312 -1.2428
  181SLPC  H11Y20708   2.086   1.507   3.533  0.6496  2.0133 -0.9717
  181SLPC  C31220709   1.936   1.536   3.680  0.8908 -0.1493  0.9072
  181SLPC  H12X20710   1.930   1.428   3.705  1.0926 -0.3084  0.2777
  181SLPC  H12Y20711   1.837   1.586   3.693  0.4755 -1.4469  3.4610
  181SLPC  C31320712   2.027   1.599   3.785 -0.6718 -0.0797 -0.2936
  181SLPC  H13X20713   2.031   1.708   3.761  2.3445 -0.8118 -4.0929
  181SLPC  H13Y20714   2.132   1.564   3.777 -0.4300  0.6502 -0.3941
  181SLPC  C31420715   1.980   1.582   3.934 -1.3873  0.0915  0.0743
  181SLPC  H14X20716   2.026   1.490   3.975 -2.0645 -1.0322 -1.5734
  181SLPC  H14Y20717   1.875   1.548   3.935 -0.8554 -1.6917  2.0230
  181SLPC  C31520718   1.974   1.707   4.022 -0.4229 -0.2968 -0.4885
  181SLPC  H15X20719   1.913   1.788   3.979 -0.2723 -0.6900 -1.4768
  181SLPC  H15Y20720   2.073   1.755   4.038 -1.7945  2.3097  0.8240
  181SLPC  C31620721   1.917   1.678   4.169 -0.1913 -0.0216  0.4970
  181SLPC  H16X20722   1.971   1.591   4.211 -0.2973 -1.1206 -1.5033
  181SLPC  H16Y20723   1.808   1.655   4.164 -0.0407 -0.8061  0.6832
  181SLPC  C31720724   1.942   1.793   4.255  0.3294 -0.2430 -0.0281
  181SLPC  H17X20725   1.896   1.890   4.226 -0.7262 -0.9869 -0.9578
  181SLPC  H17Y20726   2.051   1.810   4.263  0.0652  1.8135 -0.2104
  181SLPC  C31820727   1.895   1.781   4.400 -0.6040 -0.0036  1.0616
  181SLPC  H18X20728   1.903   1.878   4.453  2.5018  0.6458 -0.3715
  181SLPC  H18Y20729   1.962   1.713   4.459 -1.5348 -2.5716 -0.6661
  181SLPC  H18Z20730   1.793   1.737   4.400 -1.2647  1.4182 -0.5758
  182SLPC     N20731   6.129   0.960   2.827 -0.1441 -0.4526  0.0595
  182SLPC   C1320732   6.091   0.905   2.960  0.3120 -0.3424 -0.4902
  182SLPC  H13A20733   6.146   0.814   2.983  1.2490 -0.5512 -3.1639
  182SLPC  H13B20734   6.118   0.978   3.035  1.0246  0.5461 -1.5734
  182SLPC  H13C20735   5.986   0.884   2.969  0.4676 -0.7043  0.6297
  182SLPC   C1420736   6.278   0.983   2.810 -0.3118  0.3273 -0.3037
  182SLPC  H14A20737   6.337   0.894   2.792 -0.4591  0.4192 -1.3089
  182SLPC  H14B20738   6.292   1.053   2.730  1.6984 -1.7198 -1.8679
  182SLPC  H14C20739   6.327   1.012   2.902  1.3718 -1.3363 -0.6153
  182SLPC   C1520740   6.059   1.093   2.817  0.4151  0.1027  0.3092
  182SLPC  H15A20741   6.102   1.146   2.733  0.8814  1.0513  1.1214
  182SLPC  H15B20742   5.954   1.078   2.795 -0.4310  1.9147  2.5650
  182SLPC  H15C20743   6.071   1.157   2.904  0.9411 -0.0326  0.3393
  182SLPC   C1220744   6.077   0.868   2.722 -0.3041  0.3309  0.4037
  182SLPC  H12A20745   5.980   0.844   2.762 -0.0832 -0.3344  0.5573
  182SLPC  H12B20746   6.139   0.779   2.719 -0.7520  0.0442 -0.4755
  182SLPC   C1120747   6.056   0.911   2.578 -0.2318  0.2389  0.4092
  182SLPC  H11A20748   6.006   0.828   2.523 -1.7036  0.3111  1.5513
  182SLPC  H11B20749   6.158   0.930   2.539  0.5481 -0.6717  1.8987
  182SLPC     P20750   5.822   1.014   2.560  0.1338 -0.0491 -0.3515
  182SLPC   O1320751   5.748   1.145   2.557 -0.2382  0.4949  0.1255
  182SLPC   O1420752   5.780   0.917   2.462 -0.1406  0.0780  0.2204
  182SLPC   O1220753   5.976   1.032   2.555 -0.0673  0.2224 -0.1093
  182SLPC   O1120754   5.821   0.960   2.705 -0.0609  1.0512 -0.1985
  182SLPC    C120755   5.712   0.879   2.740  0.5913  0.5934 -0.0009
  182SLPC    HA20756   5.617   0.935   2.727 -0.1224 -0.8991 -1.7915
  182SLPC    HB20757   5.702   0.787   2.677  0.2619  0.6259  0.0008
  182SLPC    C220758   5.709   0.827   2.892  0.1207 -0.2078  0.2074
  182SLPC    HS20759   5.605   0.818   2.928  0.1946  0.8304  0.6992
  182SLPC   O2120760   5.779   0.919   2.977 -0.0551 -0.4217  0.3490
  182SLPC   C2120761   5.710   1.023   3.002  0.7364 -0.7520 -0.9216
  182SLPC   O2220762   5.611   1.068   2.948 -0.3947 -0.7088 -0.6499
  182SLPC   C2220763   5.788   1.102   3.104 -1.0692 -0.2018 -0.7340
  182SLPC   H2R20764   5.862   1.035   3.153 -0.7973  0.7860  0.2621
  182SLPC   H2S20765   5.849   1.174   3.047 -1.4596 -0.7014 -1.8089
  182SLPC    C320766   5.777   0.687   2.889  0.2052  0.1107 -0.9712
  182SLPC    HX20767   5.860   0.693   2.815 -0.6523  0.4928 -1.9278
  182SLPC    HY20768   5.692   0.623   2.857 -0.2938 -0.9117  2.0807
  182SLPC   O3120769   5.835   0.641   3.021  0.2966 -0.4177 -0.4213
  182SLPC   C3120770   5.848   0.513   3.032 -0.2526 -0.0661  0.1491
  182SLPC   O3220771   5.784   0.434   2.968 -0.1473 -0.0152  0.6003
  182SLPC   C3220772   5.942   0.455   3.138  0.2358  0.6393 -0.1671
  182SLPC   H2X20773   6.040   0.426   3.094 -0.2586 -2.1393  0.3166
  182SLPC   H2Y20774   5.889   0.374   3.194  0.8919  0.2712 -0.0693
  182SLPC   C2320775   5.700   1.161   3.212  0.0918  0.1429 -0.6486
  182SLPC   H3R20776   5.609   1.210   3.171 -0.9556 -1.0614  0.1522
  182SLPC   H3S20777   5.751   1.226   3.286 -0.0669  1.0650 -1.3284
  182SLPC   C2420778   5.657   1.043   3.302 -0.5519 -1.0800  0.0514
  182SLPC   H4R20779   5.610   0.963   3.241  0.4458 -0.5401 -1.4619
  182SLPC   H4S20780   5.572   1.085   3.360 -0.2077  1.9438 -1.4520
  182SLPC   C2520781   5.760   0.980   3.408  0.3990 -0.5346  0.3414
  182SLPC   H5R20782   5.811   1.066   3.456  0.8669  0.1705 -1.3251
  182SLPC   H5S20783   5.837   0.932   3.343  0.7426 -0.9048  1.0105
  182SLPC   C2620784   5.709   0.885   3.512  0.2592  0.0960  0.2080
  182SLPC   H6R20785   5.651   0.955   3.577  0.4249  0.2707  0.1681
  182SLPC   H6S20786   5.791   0.843   3.574 -0.8621 -2.5985 -0.0115
  182SLPC   C2720787   5.615   0.773   3.461 -0.7126 -0.6648 -0.3996
  182SLPC   H7R20788   5.657   0.714   3.377  1.8139  1.4084 -0.7348
  182SLPC   H7S20789   5.530   0.819   3.406 -0.4657  0.8223  0.4022
  182SLPC   C2820790   5.568   0.687   3.574  0.1806 -0.1791 -0.0698
  182SLPC   H8R20791   5.482   0.627   3.538 -0.7270  1.1993 -0.2834
  182SLPC   H8S20792   5.518   0.743   3.656  0.0894 -0.7708  0.2837
  182SLPC   C2920793   5.669   0.596   3.633 -0.8030 -0.3293 -0.4771
  182SLPC   H9R20794   5.718   0.521   3.569  1.3281 -0.3377  1.0686
  182SLPC  C21020795   5.706   0.588   3.763 -0.3363  0.4326  0.5967
  182SLPC  H10R20796   5.792   0.526   3.790 -1.9885 -1.9765  0.6075
  182SLPC  C21120797   5.647   0.666   3.876  0.2881  0.6152 -0.1074
  182SLPC  H11R20798   5.608   0.765   3.844 -1.6033  0.3121  1.0830
  182SLPC  H11S20799   5.734   0.687   3.942  0.3377 -0.8375  0.3146
  182SLPC  C21220800   5.555   0.584   3.958  0.2698 -0.0928  0.4902
  182SLPC  H12R20801   5.519   0.493   3.908  0.1053  0.0448  0.3569
  182SLPC  C21320802   5.512   0.604   4.081  0.0901  0.7213 -0.1550
  182SLPC  H13R20803   5.426   0.550   4.123  0.6422 -0.5899 -0.6611
  182SLPC  C21420804   5.557   0.715   4.175  0.3739 -0.7088 -0.9931
  182SLPC  H14R20805   5.468   0.781   4.177  0.9556  0.0810 -0.8386
  182SLPC  H14S20806   5.648   0.761   4.131 -0.5535 -0.1499 -2.3939
  182SLPC  C21520807   5.581   0.658   4.316  0.6380 -0.1185  0.3351
  182SLPC  H15R20808   5.675   0.600   4.311  0.8468  0.1632  0.9515
  182SLPC  H15S20809   5.502   0.590   4.354  0.7998  0.6190  2.0989
  182SLPC  C21620810   5.597   0.768   4.421 -0.3505 -0.3336  0.6554
  182SLPC  H16R20811   5.507   0.833   4.431  0.6354  1.1820  0.0499
  182SLPC  H16S20812   5.674   0.835   4.377 -2.3578  0.4062 -2.0398
  182SLPC  C21720813   5.656   0.723   4.557  0.8362 -0.1324 -0.1534
  182SLPC  H17R20814   5.743   0.663   4.525 -0.3510 -1.5746 -0.8281
  182SLPC  H17S20815   5.595   0.646   4.610 -1.3161  0.5706 -1.4856
  182SLPC  C21820816   5.681   0.842   4.646 -0.5708  0.3456  0.4508
  182SLPC  H18R20817   5.708   0.814   4.750  1.4511 -2.4277 -0.7107
  182SLPC  H18S20818   5.585   0.897   4.659 -1.1662 -0.2322 -1.2215
  182SLPC  H18T20819   5.759   0.906   4.600  0.3554  0.9710  2.7808
  182SLPC   C3320820   5.970   0.554   3.246  0.4816 -1.0507 -0.1530
  182SLPC   H3X20821   5.881   0.583   3.306  0.2880 -0.6182 -0.6457
  182SLPC   H3Y20822   6.016   0.643   3.197 -0.1872 -0.5911  0.0367
  182SLPC   C3420823   6.075   0.500   3.339 -0.0655  0.0307  0.2477
  182SLPC   H4X20824   6.152   0.446   3.281  2.3139  3.3510  0.0123
  182SLPC   H4Y20825   6.026   0.426   3.406  0.0610  0.4621  0.8304
  182SLPC   C3520826   6.147   0.600   3.428  0.3080  1.1313  0.3593
  182SLPC   H5X20827   6.182   0.681   3.361  0.7355 -0.3985 -1.3453
  182SLPC   H5Y20828   6.230   0.548   3.480 -2.2504  0.5561  4.3925
  182SLPC   C3620829   6.055   0.673   3.528  0.1438 -0.1449  0.1732
  182SLPC   H6X20830   5.997   0.587   3.569  3.7623 -3.6545 -1.4641
  182SLPC   H6Y20831   5.990   0.745   3.473  1.7286  1.8757  0.8433
  182SLPC   C3720832   6.123   0.743   3.642 -0.3668  0.2122 -0.7410
  182SLPC   H7X20833   6.178   0.831   3.605  0.2813 -0.1014 -0.5446
  182SLPC   H7Y20834   6.194   0.680   3.700 -2.0834 -1.6398 -0.5282
  182SLPC   C3820835   6.022   0.792   3.748 -0.9610  0.1331 -0.0856
  182SLPC   H8X20836   5.958   0.705   3.770 -1.1440  0.6120  1.4325
  182SLPC   H8Y20837   5.963   0.874   3.701  1.8397  1.4838 -1.5082
  182SLPC   C3920838   6.092   0.835   3.872  0.2839  0.2572 -0.3197
  182SLPC   H9X20839   6.133   0.937   3.854  1.2943  0.0419  0.6510
  182SLPC   H9Y20840   6.173   0.771   3.913  0.7200  2.3949  2.4358
  182SLPC  C31020841   5.986   0.855   3.978 -0.4839  0.5447 -0.4182
  182SLPC  H10X20842   5.922   0.764   3.979  3.1135 -2.3208  2.7675
  182SLPC  H10Y20843   5.913   0.936   3.958 -0.0973  0.5929 -1.6851
  182SLPC  C31120844   6.042   0.881   4.110  0.1350 -0.8447 -0.3770
  182SLPC  H11X20845   6.091   0.981   4.105 -2.9068  0.8273  0.4339
  182SLPC  H11Y20846   6.118   0.807   4.142  0.2857  0.3155  2.3006
  182SLPC  C31220847   5.938   0.880   4.223  0.1161  0.6654  0.3899
  182SLPC  H12X20848   5.863   0.799   4.208  1.3448 -1.0842  2.9334
  182SLPC  H12Y20849   5.880   0.973   4.208  0.6068  1.0702  0.9922
  182SLPC  C31320850   5.988   0.903   4.371  0.4547  0.1231  0.9600
  182SLPC  H13X20851   6.071   0.834   4.395 -0.7850 -2.0251 -0.5960
  182SLPC  H13Y20852   5.903   0.908   4.443 -0.2007 -1.1011  0.2990
  182SLPC  C31420853   6.043   1.048   4.396 -0.4055 -0.0722  0.1898
  182SLPC  H14X20854   5.959   1.120   4.388  0.3595  0.7709 -0.5133
  182SLPC  H14Y20855   6.111   1.074   4.311  0.0190  1.8500  1.0664
  182SLPC  C31520856   6.137   1.069   4.516  0.2854  0.6154  0.4763
  182SLPC  H15X20857   6.195   1.162   4.498 -0.9074  1.0445 -1.5760
  182SLPC  H15Y20858   6.205   0.981   4.508  0.6006  0.9673 -0.9511
  182SLPC  C31620859   6.078   1.058   4.654  0.6405 -0.7984 -0.4132
  182SLPC  H16X20860   5.968   1.072   4.654  0.8295  1.2538 -2.4539
  182SLPC  H16Y20861   6.109   1.143   4.718 -0.9770  0.6790 -1.4978
  182SLPC  C31720862   6.116   0.926   4.722  0.4957  0.1237 -0.2158
  182SLPC  H17X20863   6.225   0.939   4.740  0.3370  0.3680  0.5921
  182SLPC  H17Y20864   6.108   0.845   4.646 -2.1998  1.0560 -1.0461
  182SLPC  C31820865   6.056   0.910   4.859 -0.2660 -0.0021 -0.3816
  182SLPC  H18X20866   5.949   0.939   4.855 -0.3796 -0.4607 -0.9009
  182SLPC  H18Y20867   6.117   0.968   4.932 -0.2924  1.2618 -1.3429
  182SLPC  H18Z20868   6.061   0.801   4.880  0.1736  0.2807  1.0944
  183SLPC     N20869   6.316   2.377   1.520 -0.0048  0.3993  0.1236
  183SLPC   C1320870   6.272   2.371   1.376  0.0892 -0.3655 -0.5216
  183SLPC  H13A20871   6.285   2.277   1.324 -0.8972 -0.3944 -0.7242
  183SLPC  H13B20872   6.167   2.392   1.368 -0.0674 -1.1762 -0.7217
  183SLPC  H13C20873   6.319   2.450   1.319  0.4983  0.0348  0.3546
  183SLPC   C1420874   6.278   2.511   1.567 -0.6064  0.1770 -0.1045
  183SLPC  H14A20875   6.282   2.509   1.675 -0.5359  1.3253 -0.0769
  183SLPC  H14B20876   6.344   2.584   1.524  2.4343 -1.4319  1.4930
  183SLPC  H14C20877   6.177   2.537   1.540 -0.0341  3.1971  0.3022
  183SLPC   C1520878   6.460   2.354   1.527 -0.0597  0.0703  0.1482
  183SLPC  H15A20879   6.502   2.330   1.623  0.3831  0.7213  0.1260
  183SLPC  H15B20880   6.490   2.278   1.456  0.7234 -0.0745  0.6234
  183SLPC  H15C20881   6.519   2.439   1.495  0.9625 -0.5684  0.2609
  183SLPC   C1220882   6.236   2.266   1.596 -0.7520 -0.2278  0.1939
  183SLPC  H12A20883   6.222   2.181   1.531 -1.1222  1.2074 -1.6953
  183SLPC  H12B20884   6.136   2.302   1.617 -0.4679  0.3548  0.5951
  183SLPC   C1120885   6.286   2.213   1.728 -0.1358 -0.2006 -1.0213
  183SLPC  H11A20886   6.355   2.127   1.711  0.0757 -0.6747  1.7627
  183SLPC  H11B20887   6.194   2.167   1.771  2.0761 -1.8029  2.4617
  183SLPC     P20888   6.263   2.395   1.925 -0.2342  0.0583 -0.1038
  183SLPC   O1320889   6.367   2.459   2.010  0.3725  0.4330 -0.0598
  183SLPC   O1420890   6.166   2.480   1.854 -0.4294  0.1031 -1.0430
  183SLPC   O1220891   6.341   2.311   1.818 -0.2020 -0.1839  0.0311
  183SLPC   O1120892   6.178   2.292   2.012  0.2006  0.7314 -0.1006
  183SLPC    C120893   6.234   2.200   2.109  0.0890 -0.1297 -0.0916
  183SLPC    HA20894   6.196   2.096   2.096  1.4589 -0.9251  1.7553
  183SLPC    HB20895   6.345   2.206   2.114  0.1835 -0.8790 -1.1516
  183SLPC    C220896   6.185   2.246   2.259  0.5502  0.0831 -0.2713
  183SLPC    HS20897   6.080   2.211   2.257  0.5396  0.1135 -2.0548
  183SLPC   O2120898   6.205   2.392   2.287  0.0598  0.1253  0.2293
  183SLPC   C2120899   6.097   2.448   2.338  0.7001  0.0966  0.1633
  183SLPC   O2220900   5.996   2.390   2.368  0.5810  0.0204 -0.0256
  183SLPC   C2220901   6.112   2.594   2.349  0.1538 -1.2177 -0.4722
  183SLPC   H2R20902   6.095   2.645   2.252  0.4035  1.8181  0.9679
  183SLPC   H2S20903   6.034   2.639   2.414  0.5598 -0.2670 -0.6220
  183SLPC    C320904   6.244   2.160   2.371 -0.6595  1.8464  0.5894
  183SLPC    HX20905   6.352   2.186   2.376  0.2660 -1.5126  0.9255
  183SLPC    HY20906   6.234   2.050   2.357 -1.5343  1.4949  3.2832
  183SLPC   O3120907   6.198   2.191   2.502 -0.2064 -0.3221  0.1978
  183SLPC   C3120908   6.081   2.147   2.532  0.6335  0.7959 -0.3842
  183SLPC   O3220909   5.999   2.083   2.469 -0.2665  0.3442  0.1593
  183SLPC   C3220910   6.048   2.183   2.672  0.6964 -0.0289  0.2460
  183SLPC   H2X20911   6.053   2.291   2.695 -0.8176 -0.0097  0.5867
  183SLPC   H2Y20912   6.125   2.140   2.740  0.9450  0.0765  0.0320
  183SLPC   C2320913   6.241   2.638   2.421  0.4998  0.1657 -0.2360
  183SLPC   H3R20914   6.244   2.748   2.434  0.8398  0.2879 -1.2355
  183SLPC   H3S20915   6.323   2.608   2.353  0.1271 -0.2050 -0.5311
  183SLPC   C2420916   6.255   2.572   2.555 -0.1146  0.1074  0.6353
  183SLPC   H4R20917   6.357   2.598   2.589  0.1034  0.9940 -0.6274
  183SLPC   H4S20918   6.259   2.461   2.551 -1.0368  0.1047 -1.1476
  183SLPC   C2520919   6.156   2.620   2.658  0.1762  0.9414  0.0863
  183SLPC   H5R20920   6.054   2.585   2.628  0.2007 -0.0353  1.0529
  183SLPC   H5S20921   6.149   2.730   2.669  1.5477  0.8610  2.3201
  183SLPC   C2620922   6.184   2.561   2.800 -0.2874  0.3263  0.2244
  183SLPC   H6R20923   6.284   2.597   2.833  0.8225 -1.7120 -0.7185
  183SLPC   H6S20924   6.207   2.454   2.782  0.3179  0.3550  0.7803
  183SLPC   C2720925   6.083   2.569   2.917 -0.5494 -0.6112  0.1671
  183SLPC   H7R20926   6.017   2.485   2.886  0.0533 -0.8601 -0.4824
  183SLPC   H7S20927   6.028   2.665   2.920 -1.0232 -0.9121  2.0344
  183SLPC   C2820928   6.143   2.535   3.055 -0.2943 -0.0572 -0.0821
  183SLPC   H8R20929   6.193   2.628   3.090  2.8904 -1.0629 -1.4889
  183SLPC   H8S20930   6.222   2.460   3.034  0.6067  1.0862 -0.9588
  183SLPC   C2920931   6.033   2.487   3.144 -0.4084 -0.4514  0.1152
  183SLPC   H9R20932   5.980   2.403   3.096  2.6141 -2.1194 -0.5341
  183SLPC  C21020933   5.989   2.530   3.264  0.0491 -0.3527  0.6407
  183SLPC  H10R20934   5.902   2.476   3.305  0.1824 -1.4223 -0.4236
  183SLPC  C21120935   6.061   2.631   3.342 -0.2265 -0.1949 -0.0096
  183SLPC  H11R20936   5.998   2.721   3.361  0.7977  0.2214  1.6344
  183SLPC  H11S20937   6.159   2.662   3.299 -1.2576  2.0053 -0.9661
  183SLPC  C21220938   6.082   2.582   3.484 -0.2206 -0.3482 -0.3292
  183SLPC  H12R20939   6.065   2.473   3.492 -1.5305 -0.2539 -1.5426
  183SLPC  C21320940   6.138   2.645   3.588 -0.8615  0.6460 -0.1280
  183SLPC  H13R20941   6.141   2.602   3.689 -0.7569  0.7019 -0.1073
  183SLPC  C21420942   6.194   2.786   3.590  0.8683 -0.1975 -0.2802
  183SLPC  H14R20943   6.221   2.818   3.488  1.3080 -0.2914 -0.1941
  183SLPC  H14S20944   6.291   2.802   3.642  0.8836  3.1479 -1.0866
  183SLPC  C21520945   6.100   2.896   3.654 -0.7119  0.0951 -0.2660
  183SLPC  H15R20946   5.996   2.904   3.616 -0.8034 -1.2873 -0.3581
  183SLPC  H15S20947   6.157   2.989   3.633 -1.9605  0.6770 -1.2238
  183SLPC  C21620948   6.078   2.888   3.804 -0.2458  0.4146  0.0935
  183SLPC  H16R20949   6.066   2.993   3.839  0.8728  0.2632  1.0074
  183SLPC  H16S20950   6.169   2.848   3.855 -1.1460 -0.4263  1.0961
  183SLPC  C21720951   5.961   2.798   3.847  0.1613 -0.4175  0.4681
  183SLPC  H17R20952   5.970   2.701   3.793 -1.6769  0.3873 -1.4323
  183SLPC  H17S20953   5.865   2.841   3.810  1.5300  1.3475 -1.2239
  183SLPC  C21820954   5.942   2.773   3.999  0.5956 -0.6671 -0.1787
  183SLPC  H18R20955   5.837   2.750   4.027  0.4687  1.9972  1.9949
  183SLPC  H18S20956   5.956   2.869   4.053 -0.2243 -0.8453  0.3722
  183SLPC  H18T20957   6.014   2.697   4.037 -0.2783 -1.1825  0.5099
  183SLPC   C3320958   5.913   2.129   2.727  0.1478  0.0521  0.0076
  183SLPC   H3X20959   5.913   2.018   2.718 -0.7312  0.2068 -2.5265
  183SLPC   H3Y20960   5.827   2.176   2.674  0.5156  0.7208 -0.0054
  183SLPC   C3420961   5.899   2.169   2.876  0.2817 -0.1176  0.2816
  183SLPC   H4X20962   5.888   2.280   2.877 -0.8725 -0.2010 -0.5487
  183SLPC   H4Y20963   5.987   2.130   2.931  1.2680  1.2014 -0.3043
  183SLPC   C3520964   5.772   2.117   2.943 -0.3377 -0.8879  0.4085
  183SLPC   H5X20965   5.752   2.016   2.902  1.4761 -0.3887 -1.8660
  183SLPC   H5Y20966   5.695   2.195   2.922  0.6374 -0.7658 -3.4247
  183SLPC   C3620967   5.797   2.120   3.096 -0.6299  0.1672  0.0364
  183SLPC   H6X20968   5.843   2.217   3.123  0.2883 -0.3872  0.5495
  183SLPC   H6Y20969   5.872   2.039   3.113  1.1651  1.6181 -0.5704
  183SLPC   C3720970   5.670   2.091   3.175 -0.1544  0.6814 -0.1481
  183SLPC   H7X20971   5.612   2.001   3.145  2.3373 -1.0319 -0.1298
  183SLPC   H7Y20972   5.606   2.181   3.175 -0.1238  0.7100 -1.3171
  183SLPC   C3820973   5.711   2.068   3.322 -0.4608  0.5464  0.6127
  183SLPC   H8X20974   5.795   1.995   3.320 -1.4586 -0.6370 -0.7483
  183SLPC   H8Y20975   5.626   2.009   3.363 -1.7337  1.3001 -0.8057
  183SLPC   C3920976   5.754   2.187   3.406 -0.3552 -1.1957  0.3687
  183SLPC   H9X20977   5.695   2.275   3.372  0.6827 -2.0775 -4.4651
  183SLPC   H9Y20978   5.857   2.214   3.374 -0.7852  0.9549  0.6364
  183SLPC  C31020979   5.744   2.151   3.555  0.3287 -0.2996 -0.3839
  183SLPC  H10X20980   5.784   2.047   3.561  1.2455 -0.1238 -2.6570
  183SLPC  H10Y20981   5.635   2.146   3.580 -0.0426  1.4868 -1.4874
  183SLPC  C31120982   5.813   2.251   3.649  0.9193  0.2549  0.4882
  183SLPC  H11X20983   5.764   2.235   3.747  2.4807 -0.3897  1.1967
  183SLPC  H11Y20984   5.781   2.346   3.601 -0.2729 -0.7605 -0.8172
  183SLPC  C31220985   5.971   2.241   3.665  0.0884 -0.5088  0.0210
  183SLPC  H12X20986   6.025   2.253   3.568  0.9254 -3.1406  0.0861
  183SLPC  H12Y20987   5.998   2.136   3.690  0.5271 -0.2444  0.6739
  183SLPC  C31320988   6.031   2.341   3.763 -0.2528  0.0219 -0.4027
  183SLPC  H13X20989   6.017   2.441   3.716 -0.5546 -0.3562 -1.1340
  183SLPC  H13Y20990   6.138   2.316   3.747 -0.6394  0.0792 -3.7311
  183SLPC  C31420991   5.978   2.330   3.904  0.4459 -0.1529 -0.4534
  183SLPC  H14X20992   6.065   2.342   3.972  2.8318  0.3589 -3.4035
  183SLPC  H14Y20993   5.937   2.227   3.912 -0.9478  0.4720  1.5510
  183SLPC  C31520994   5.869   2.432   3.942  0.6558  0.1679  0.0671
  183SLPC  H15X20995   5.790   2.427   3.864 -1.0802  1.1873  1.6732
  183SLPC  H15Y20996   5.903   2.538   3.935 -1.1206  0.6924 -1.5903
  183SLPC  C31620997   5.801   2.401   4.080 -0.2320  0.6391  0.3580
  183SLPC  H16X20998   5.779   2.292   4.082 -2.5005  1.0181 -0.3387
  183SLPC  H16Y20999   5.700   2.447   4.072 -0.1415  0.6130 -1.6552
  183SLPC  C31721000   5.880   2.459   4.205  0.1198 -0.1655 -0.2077
  183SLPC  H17X21001   5.885   2.569   4.224 -0.5468  0.2617 -2.1994
  183SLPC  H17Y21002   5.983   2.421   4.185  0.6413  0.7563  0.6227
  183SLPC  C31821003   5.829   2.392   4.329 -0.1259  0.2330 -0.6050
  183SLPC  H18X21004   5.723   2.424   4.325 -0.2184 -0.1728 -1.4076
  183SLPC  H18Y21005   5.881   2.441   4.415  1.2056 -1.3746 -0.4478
  183SLPC  H18Z21006   5.842   2.282   4.332 -1.0263  0.1342 -0.0895
  184SLPC     N21007   0.026   3.124   2.736  0.0583 -0.2255  0.4234
  184SLPC   C1321008  -0.060   3.009   2.759 -0.2405 -0.6119 -0.2928
  184SLPC  H13A21009  -0.033   2.961   2.851  0.5717  1.1908  0.4637
  184SLPC  H13B21010  -0.164   3.039   2.761 -0.1714 -0.3858  0.0878
  184SLPC  H13C21011  -0.038   2.939   2.680  0.4078  0.9502 -1.5598
  184SLPC   C1421012   0.170   3.091   2.738 -0.1482 -0.4198  0.1240
  184SLPC  H14A21013   0.187   3.011   2.667  2.9226  0.2716 -0.0625
  184SLPC  H14B21014   0.228   3.176   2.706  1.0351 -0.8791  0.9767
  184SLPC  H14C21015   0.198   3.060   2.838  1.2996  1.5544  0.3781
  184SLPC   C1521016  -0.003   3.230   2.836  0.5143  0.3831 -0.0538
  184SLPC  H15A21017   0.070   3.310   2.829  0.5579  0.4600  1.1272
  184SLPC  H15B21018  -0.103   3.265   2.817  0.3250 -1.1408 -2.2243
  184SLPC  H15C21019  -0.006   3.193   2.937 -2.2870 -0.5990 -0.4361
  184SLPC   C1221020  -0.009   3.179   2.598  0.3081 -0.4567 -0.5840
  184SLPC  H12A21021  -0.115   3.197   2.588  0.0142 -0.8742  1.3188
  184SLPC  H12B21022   0.010   3.101   2.526 -0.8488 -0.6356 -0.7259
  184SLPC   C1121023   0.061   3.312   2.551  0.8789 -0.3976 -0.9811
  184SLPC  H11A21024   0.053   3.388   2.631 -2.3275  0.4899 -2.0133
  184SLPC  H11B21025   0.007   3.359   2.467 -1.2597 -0.5143  0.2643
  184SLPC     P21026   0.307   3.392   2.544 -0.3746  0.1471 -0.2496
  184SLPC   O1321027   0.370   3.388   2.678  0.3137 -0.3024 -0.1030
  184SLPC   O1421028   0.399   3.386   2.431  0.1101 -0.2056  0.0903
  184SLPC   O1221029   0.194   3.287   2.525  0.0151 -0.7950 -0.0743
  184SLPC   O1121030   0.234   3.528   2.528 -0.1649  0.0381  0.2535
  184SLPC    C121031   0.317   3.644   2.550 -0.0362 -0.2255 -0.3314
  184SLPC    HA21032   0.428   3.637   2.543 -0.0380 -0.3765 -0.2278
  184SLPC    HB21033   0.294   3.715   2.469 -2.1957  1.7788  1.8784
  184SLPC    C221034   0.287   3.708   2.687 -0.0802  0.5476  0.1889
  184SLPC    HS21035   0.307   3.629   2.762 -2.0323 -0.3597 -0.1677
  184SLPC   O2121036   0.151   3.752   2.685 -0.0799  0.8014  0.9530
  184SLPC   C2121037   0.075   3.686   2.777 -0.4388  0.3909 -0.5287
  184SLPC   O2221038   0.111   3.602   2.856 -0.4389 -0.8313  0.1491
  184SLPC   C2221039  -0.070   3.731   2.759 -0.7118  0.2998  0.5781
  184SLPC   H2R21040  -0.100   3.733   2.652  0.8009 -2.0070  0.0326
  184SLPC   H2S21041  -0.126   3.652   2.814 -2.3041  2.2416  1.8905
  184SLPC    C321042   0.381   3.828   2.716  0.0307 -0.4353  0.3158
  184SLPC    HX21043   0.375   3.899   2.631  0.5974 -2.7115 -1.7555
  184SLPC    HY21044   0.482   3.780   2.721  1.0303  1.1613 -2.3724
  184SLPC   O3121045   0.346   3.890   2.845 -0.2868 -0.1567 -0.2718
  184SLPC   C3121046   0.392   3.822   2.953 -0.6673  0.3975  0.8441
  184SLPC   O3221047   0.444   3.711   2.944  0.2719 -0.2045 -0.7855
  184SLPC   C3221048   0.361   3.903   3.081 -0.6033 -0.3616 -0.5757
  184SLPC   H2X21049   0.255   3.939   3.079 -1.1686 -1.9096 -0.1039
  184SLPC   H2Y21050   0.431   3.988   3.089 -1.3495  0.3344 -1.1693
  184SLPC   C2321051  -0.101   3.858   2.837  0.4550 -0.7223  0.3460
  184SLPC   H3R21052  -0.205   3.880   2.803  1.0281  0.0796 -0.9672
  184SLPC   H3S21053  -0.040   3.941   2.796 -0.3526 -0.5666 -0.5939
  184SLPC   C2421054  -0.108   3.836   2.984  0.0626 -0.3298 -0.3658
  184SLPC   H4R21055  -0.010   3.801   3.026 -0.9581 -1.0277  1.5875
  184SLPC   H4S21056  -0.180   3.755   3.008  1.9597 -1.5880  1.5574
  184SLPC   C2521057  -0.152   3.958   3.066 -0.5329  0.2797  0.2389
  184SLPC   H5R21058  -0.237   4.015   3.025 -1.7411 -2.1388 -0.7963
  184SLPC   H5S21059  -0.071   4.034   3.075 -1.5981  1.5319 -0.4854
  184SLPC   C2621060  -0.184   3.926   3.216  1.1680 -0.6515  0.2216
  184SLPC   H6R21061  -0.272   3.858   3.219  0.1103  0.5490 -1.5796
  184SLPC   H6S21062  -0.227   4.015   3.266 -4.9333 -1.9902 -1.7534
  184SLPC   C2721063  -0.063   3.875   3.297 -0.1706  0.6605  0.0240
  184SLPC   H7R21064   0.033   3.912   3.256  0.0091 -0.5845 -0.7207
  184SLPC   H7S21065  -0.058   3.765   3.314 -0.3960  0.5862 -0.3698
  184SLPC   C2821066  -0.064   3.946   3.435  0.4397 -0.0341  0.0440
  184SLPC   H8R21067  -0.166   3.939   3.476  0.2962 -1.0650 -0.4494
  184SLPC   H8S21068  -0.023   4.049   3.422  1.9884 -0.4051  1.6006
  184SLPC   C2921069   0.025   3.881   3.540  0.2931 -0.1941 -0.1096
  184SLPC   H9R21070   0.109   3.817   3.510 -0.9075 -2.3457  0.8594
  184SLPC  C21021071   0.005   3.886   3.676 -0.5481 -0.2666 -0.0248
  184SLPC  H10R21072   0.069   3.826   3.743  0.8405  1.2044  0.0165
  184SLPC  C21121073  -0.106   3.957   3.744 -0.3213 -0.2021  0.0327
  184SLPC  H11R21074  -0.193   3.963   3.674 -0.7267 -3.3654  0.1222
  184SLPC  H11S21075  -0.074   4.063   3.757 -0.3203 -0.2558  0.4615
  184SLPC  C21221076  -0.155   3.881   3.863  0.1103  0.4434 -0.7227
  184SLPC  H12R21077  -0.187   3.778   3.844  0.7292 -0.3448  2.0079
  184SLPC  C21321078  -0.159   3.926   3.992 -0.1335  0.3130 -0.0883
  184SLPC  H13R21079  -0.193   3.855   4.068 -0.8980 -0.7330 -1.3499
  184SLPC  C21421080  -0.109   4.062   4.034  0.1168 -0.4998 -0.2820
  184SLPC  H14R21081  -0.165   4.089   4.125  1.6823 -0.6651  0.7633
  184SLPC  H14S21082  -0.146   4.142   3.966 -0.4845 -0.2181  0.3691
  184SLPC  C21521083   0.045   4.079   4.059  0.4548 -0.0700  0.4081
  184SLPC  H15R21084   0.061   4.176   4.111 -0.0352  0.1861  0.0867
  184SLPC  H15S21085   0.096   4.061   3.962  0.7232 -0.7729  0.6757
  184SLPC  C21621086   0.087   3.969   4.161 -0.7107  0.4270 -0.1276
  184SLPC  H16R21087   0.191   3.936   4.141 -0.7492  0.6422 -0.6954
  184SLPC  H16S21088   0.036   3.875   4.133  2.2271 -0.4858 -3.0712
  184SLPC  C21721089   0.058   4.002   4.306  0.4059 -0.3784 -0.1792
  184SLPC  H17R21090  -0.053   3.997   4.312  0.4152  0.2380  0.8113
  184SLPC  H17S21091   0.080   4.111   4.318 -1.3982 -0.0084  0.0336
  184SLPC  C21821092   0.128   3.914   4.418  0.0634  1.2990  0.1574
  184SLPC  H18R21093   0.083   3.935   4.518 -2.0491 -0.7069 -0.2945
  184SLPC  H18S21094   0.239   3.911   4.417  0.0388 -0.8598 -0.0375
  184SLPC  H18T21095   0.107   3.806   4.404  2.9717  0.5348  0.9369
  184SLPC   C3321096   0.385   3.817   3.210  0.2737 -0.0011 -0.5003
  184SLPC   H3X21097   0.486   3.773   3.199  0.1006 -0.4874 -0.1894
  184SLPC   H3Y21098   0.306   3.740   3.223 -0.4887  0.9805  1.0862
  184SLPC   C3421099   0.375   3.879   3.351  0.3708  0.0212 -0.6201
  184SLPC   H4X21100   0.270   3.900   3.381  0.1934 -2.8582  1.0937
  184SLPC   H4Y21101   0.421   3.977   3.327 -2.0157  1.3397 -0.1926
  184SLPC   C3521102   0.458   3.800   3.454 -0.3769  0.2114 -0.0384
  184SLPC   H5X21103   0.547   3.751   3.408 -1.8876 -2.1145 -0.6433
  184SLPC   H5Y21104   0.401   3.707   3.474  3.8021 -2.7121 -0.4542
  184SLPC   C3621105   0.490   3.868   3.583  0.4640  0.2789 -0.4268
  184SLPC   H6X21106   0.392   3.896   3.628  0.6384 -0.3836  0.4062
  184SLPC   H6Y21107   0.546   3.963   3.574 -1.7508  1.7749  0.7561
  184SLPC   C3721108   0.578   3.774   3.673 -0.6119  0.0359 -0.2462
  184SLPC   H7X21109   0.665   3.739   3.613 -1.8249 -2.5957 -0.6228
  184SLPC   H7Y21110   0.524   3.680   3.696  0.5347 -0.8783 -1.1029
  184SLPC   C3821111   0.606   3.832   3.801  0.1631 -0.0055  0.8547
  184SLPC   H8X21112   0.639   3.937   3.788 -0.7573  0.1914 -0.0150
  184SLPC   H8Y21113   0.690   3.780   3.852  0.3065  1.3622  2.0858
  184SLPC   C3921114   0.488   3.827   3.897  0.1255  0.1212  0.3334
  184SLPC   H9X21115   0.461   3.721   3.913  1.1723 -0.4546 -1.5113
  184SLPC   H9Y21116   0.405   3.878   3.843  0.4870 -0.3650 -0.6913
  184SLPC  C31021117   0.505   3.906   4.025 -0.2772  0.6348 -0.4719
  184SLPC  H10X21118   0.407   3.912   4.077  0.2998 -0.2162  0.7814
  184SLPC  H10Y21119   0.536   4.007   3.992  1.1594 -0.2165 -1.8836
  184SLPC  C31121120   0.601   3.846   4.127  0.1015 -0.9015  0.2266
  184SLPC  H11X21121   0.640   3.925   4.194  0.9422 -1.5420  0.5151
  184SLPC  H11Y21122   0.689   3.806   4.073  2.2528  1.1783  1.9728
  184SLPC  C31221123   0.533   3.733   4.210 -0.4392  0.2154  0.6128
  184SLPC  H12X21124   0.534   3.637   4.154  0.7788  1.5605 -1.8386
  184SLPC  H12Y21125   0.429   3.768   4.222 -0.8026 -0.9821  1.1128
  184SLPC  C31321126   0.602   3.718   4.353 -0.3563  0.1903 -0.3174
  184SLPC  H13X21127   0.529   3.665   4.419 -0.9776  2.0130  0.5409
  184SLPC  H13Y21128   0.624   3.820   4.393  1.9976  0.2001 -1.4806
  184SLPC  C31421129   0.735   3.641   4.349 -0.6158  0.4658  0.5695
  184SLPC  H14X21130   0.808   3.700   4.289  2.4487 -0.7271  2.8686
  184SLPC  H14Y21131   0.716   3.549   4.289 -0.7711  0.6475  0.3383
  184SLPC  C31521132   0.794   3.595   4.484  0.3565  0.2577  0.2922
  184SLPC  H15X21133   0.700   3.557   4.529  0.3871 -1.0538 -0.6866
  184SLPC  H15Y21134   0.803   3.688   4.544 -1.2314  1.9874 -1.9570
  184SLPC  C31621135   0.903   3.490   4.467 -0.0824 -0.4129 -1.0369
  184SLPC  H16X21136   0.985   3.531   4.404  1.5268 -1.9657 -0.0457
  184SLPC  H16Y21137   0.855   3.405   4.414 -0.3357 -2.0933  1.6602
  184SLPC  C31721138   0.952   3.435   4.595 -0.3117  0.3057 -0.1494
  184SLPC  H17X21139   0.871   3.387   4.653  1.5232 -1.2125  1.2420
  184SLPC  H17Y21140   0.997   3.506   4.667 -1.5647  0.2785  0.6979
  184SLPC  C31821141   1.049   3.312   4.567 -0.0582 -0.2499 -0.1006
  184SLPC  H18X21142   1.103   3.293   4.663  0.3887  0.7233 -0.1400
  184SLPC  H18Y21143   1.126   3.339   4.492  1.1489 -1.8803  0.4944
  184SLPC  H18Z21144   0.999   3.215   4.545  3.6567 -2.2568 -0.4808
  185POPC     N21145   3.277   2.335   6.743  0.4185  0.1076 -0.4934
  185POPC   C1221146   3.350   2.370   6.615 -0.6154  0.7697  0.2742
  185POPC  H12A21147   3.458   2.367   6.629 -0.8158 -0.2870  1.8666
  185POPC  H12B21148   3.332   2.472   6.587 -0.3852  0.8520  0.4192
  185POPC   C1321149   3.132   2.329   6.719  0.9951  0.4245  0.1553
  185POPC  H13A21150   3.098   2.425   6.683  1.4379  0.8177  0.7765
  185POPC  H13B21151   3.096   2.258   6.646  0.3624  1.6127 -0.7114
  185POPC  H13C21152   3.083   2.304   6.812  1.1460 -3.5348 -0.6471
  185POPC   C1421153   3.322   2.207   6.818  0.0423  0.2150 -0.4926
  185POPC  H14A21154   3.424   2.222   6.850 -0.0950  0.0603  0.0235
  185POPC  H14B21155   3.269   2.194   6.911 -2.2341  0.3309 -1.6923
  185POPC  H14C21156   3.321   2.127   6.745  2.4806  0.9250 -1.3735
  185POPC   C1521157   3.283   2.449   6.839  0.0593 -0.2615  0.2794
  185POPC  H15A21158   3.248   2.548   6.816 -1.1254 -0.0482  2.6752
  185POPC  H15B21159   3.387   2.476   6.855  0.2394 -1.0501  0.4819
  185POPC  H15C21160   3.232   2.425   6.932  0.5931  2.5645  1.4190
  185POPC   C1121161   3.298   2.291   6.489  0.7671  0.0999 -0.1424
  185POPC  H11A21162   3.355   2.332   6.403  0.3838  0.8205 -0.0593
  185POPC  H11B21163   3.194   2.325   6.468  1.3054  1.2985 -1.0093
  185POPC     P21164   3.448   2.075   6.522  0.1136 -0.1235  0.1190
  185POPC   O1321165   3.421   1.976   6.631 -0.2071 -0.1316  0.7441
  185POPC   O1421166   3.562   2.171   6.536  0.1666  0.0326  0.0418
  185POPC   O1221167   3.307   2.150   6.494 -0.1966  0.4112  0.1804
  185POPC   O1121168   3.468   1.990   6.389 -0.3744  0.0677  0.1333
  185POPC    C121169   3.465   2.066   6.261  0.4144  0.0990  0.1830
  185POPC    HA21170   3.531   2.009   6.192  3.1173  0.7283  2.0736
  185POPC    HB21171   3.513   2.166   6.262 -0.7881  0.7873 -2.3359
  185POPC    C221172   3.323   2.067   6.199 -0.2754 -0.7313 -0.0367
  185POPC    HS21173   3.259   2.106   6.281  2.2637  1.2457  1.1824
  185POPC   O2121174   3.293   1.931   6.151 -0.6960  0.0281 -0.3706
  185POPC   C2121175   3.170   1.895   6.179 -0.6194 -0.4151 -0.4784
  185POPC   O2221176   3.100   1.947   6.265  0.1898 -0.0943 -0.5064
  185POPC   C2221177   3.132   1.777   6.094 -0.2127  0.4431 -0.2754
  185POPC   H2R21178   3.074   1.710   6.161  0.2058 -1.0029 -1.3383
  185POPC   H2S21179   3.221   1.718   6.065  0.6627 -0.3983  3.5240
  185POPC    C321180   3.315   2.167   6.080  0.0153 -0.3630  0.5422
  185POPC    HX21181   3.335   2.268   6.121  3.2448 -0.7263  0.1509
  185POPC    HY21182   3.212   2.161   6.040  1.2780 -1.9641 -2.9189
  185POPC   O3121183   3.409   2.131   5.973 -0.3831  0.0509  0.0476
  185POPC   C3121184   3.375   2.167   5.852 -0.1261 -0.5070  0.1995
  185POPC   O3221185   3.283   2.245   5.825  0.4787 -0.5401  0.3278
  185POPC   C3221186   3.471   2.109   5.745  0.3557  0.5578 -0.3183
  185POPC   H2X21187   3.450   2.001   5.731 -2.5805  1.0923 -0.7894
  185POPC   H2Y21188   3.574   2.111   5.787  0.3838  0.5699 -0.3884
  185POPC   C2321189   3.045   1.807   5.969  0.4731 -0.1905 -0.0711
  185POPC   H3R21190   2.972   1.883   6.004  2.1716  1.3476  0.2905
  185POPC   H3S21191   3.006   1.709   5.935 -0.0233  0.1009 -0.3636
  185POPC   C2421192   3.128   1.864   5.854 -0.8407 -0.5652 -0.2738
  185POPC   H4R21193   3.183   1.779   5.808 -0.8569  0.3974 -2.1407
  185POPC   H4S21194   3.203   1.936   5.892  0.1882 -0.7262 -1.9256
  185POPC   C2521195   3.039   1.914   5.740  0.4999 -0.0267  0.5848
  185POPC   H5R21196   2.985   2.002   5.781 -1.6252 -0.6648 -0.6745
  185POPC   H5S21197   2.961   1.837   5.724  1.3693 -0.9318  0.6034
  185POPC   C2621198   3.107   1.952   5.607 -0.0407 -0.1154  0.7178
  185POPC   H6R21199   3.159   1.861   5.569  0.8298  0.5204  0.3487
  185POPC   H6S21200   3.181   2.034   5.618  0.8130 -0.6390 -0.8764
  185POPC   C2721201   3.012   2.002   5.493  1.2714 -0.5147  0.1924
  185POPC   H7R21202   3.066   2.046   5.406  0.1607  2.1456  0.7497
  185POPC   H7S21203   2.940   2.077   5.534 -1.2399 -1.2521 -2.5544
  185POPC   C2821204   2.908   1.895   5.436  0.1866 -0.3265 -0.3393
  185POPC   H8R21205   2.837   1.943   5.365 -0.3934  0.7831  0.9542
  185POPC   H8S21206   2.849   1.852   5.520 -1.2218  0.0467 -1.1005
  185POPC   C2921207   2.986   1.780   5.375 -0.1038  0.3558  1.2595
  185POPC   H9121208   3.019   1.713   5.455 -0.1797  0.3607  1.2959
  185POPC  C21021209   3.004   1.747   5.239 -0.2017  1.4961 -0.7180
  185POPC  H10121210   3.072   1.661   5.221 -0.4694  1.0967  0.1304
  185POPC  C21121211   2.938   1.827   5.132  0.4928  0.1825 -0.3444
  185POPC  H11R21212   2.919   1.927   5.177  4.4486  0.9321  0.0049
  185POPC  H11S21213   2.843   1.775   5.105  0.2535  0.6514 -0.4129
  185POPC  C21221214   3.029   1.863   5.012  0.2806 -0.0947  0.1479
  185POPC  H12R21215   3.127   1.908   5.037  0.1866 -0.5020  1.2858
  185POPC  H12S21216   2.975   1.947   4.962 -2.0422 -1.8457 -0.4558
  185POPC  C21321217   3.050   1.738   4.917 -0.3597  0.5379  0.2017
  185POPC  H13R21218   2.948   1.697   4.903  0.3596 -1.0236 -0.8390
  185POPC  H13S21219   3.105   1.660   4.975 -0.3598  0.6617  0.3682
  185POPC  C21421220   3.129   1.766   4.780  0.1824  0.4614 -0.1508
  185POPC  H14R21221   3.214   1.834   4.805 -0.4834  0.9265  0.9147
  185POPC  H14S21222   3.059   1.823   4.716  1.4095  0.6943 -1.3430
  185POPC  C21521223   3.181   1.644   4.708  0.3059  0.1364 -0.6594
  185POPC  H15R21224   3.091   1.580   4.698 -1.5796  2.3511  1.0464
  185POPC  H15S21225   3.271   1.611   4.765  0.4984  0.8056 -0.5616
  185POPC  C21621226   3.226   1.662   4.560  0.0311 -0.5944  0.0063
  185POPC  H16R21227   3.299   1.745   4.566 -0.2204 -0.4614  1.7084
  185POPC  H16S21228   3.143   1.702   4.497  0.4477 -1.9003 -1.4268
  185POPC  C21721229   3.296   1.542   4.508  0.0245 -0.6275 -0.0360
  185POPC  H17R21230   3.232   1.454   4.529 -0.9985  0.0520 -0.1998
  185POPC  H17S21231   3.390   1.518   4.561 -0.7716  1.3360  2.4882
  185POPC  C21821232   3.320   1.549   4.355  0.4498  0.8646  0.0064
  185POPC  H18R21233   3.382   1.466   4.317 -1.3238  0.8533 -3.2423
  185POPC  H18S21234   3.374   1.641   4.325  1.4694  0.5127  0.7016
  185POPC  H18T21235   3.225   1.551   4.298  0.2552 -0.5286  0.2545
  185POPC   C3321236   3.466   2.191   5.618  0.5146 -0.4290 -0.3165
  185POPC   H3X21237   3.471   2.300   5.639 -1.0136 -0.2638 -0.7161
  185POPC   H3Y21238   3.367   2.175   5.569  0.9796 -1.1057 -1.0590
  185POPC   C3421239   3.576   2.167   5.512 -0.0329 -0.4838  0.4165
  185POPC   H4X21240   3.563   2.067   5.465  0.9562 -0.0258 -0.8776
  185POPC   H4Y21241   3.673   2.173   5.565  0.7059 -2.5130 -0.6302
  185POPC   C3521242   3.576   2.264   5.398 -0.2416  0.6724  0.6716
  185POPC   H5X21243   3.654   2.245   5.321 -0.4920 -1.0425  0.8177
  185POPC   H5Y21244   3.596   2.367   5.435  1.2452  0.5795  0.1955
  185POPC   C3621245   3.439   2.272   5.322  0.1285 -0.6447  0.5300
  185POPC   H6X21246   3.443   2.346   5.239 -1.1780  0.1206  1.1281
  185POPC   H6Y21247   3.363   2.307   5.395 -0.7788 -1.1424 -0.1667
  185POPC   C3721248   3.395   2.134   5.269  0.5832  0.0952  0.6140
  185POPC   H7X21249   3.360   2.066   5.350  0.8823 -0.9289 -0.1002
  185POPC   H7Y21250   3.465   2.070   5.211 -1.4733 -1.2503 -0.4886
  185POPC   C3821251   3.267   2.135   5.189  1.2379 -0.2951 -0.0256
  185POPC   H8X21252   3.215   2.037   5.198 -0.1729  0.2738 -1.5459
  185POPC   H8Y21253   3.301   2.142   5.084  0.1979  2.1149 -0.2705
  185POPC   C3921254   3.167   2.246   5.232  0.5838  0.0844 -0.2573
  185POPC   H9X21255   3.202   2.344   5.194  2.7541 -0.0681  1.1945
  185POPC   H9Y21256   3.164   2.252   5.342  0.4840  0.8053 -0.2977
  185POPC  C31021257   3.026   2.239   5.159 -0.4257 -0.5772 -0.0747
  185POPC  H10X21258   2.980   2.333   5.199  0.4490 -0.1913  0.0413
  185POPC  H10Y21259   2.967   2.152   5.194  0.5121 -1.3290 -0.3372
  185POPC  C31121260   3.029   2.253   5.007 -0.1807  0.0057 -0.4857
  185POPC  H11X21261   3.100   2.180   4.962  0.4122 -0.8429  1.6791
  185POPC  H11Y21262   3.074   2.352   4.983  3.1178 -1.2810 -0.0883
  185POPC  C31221263   2.892   2.241   4.944 -0.1022 -0.1527 -0.3353
  185POPC  H12X21264   2.823   2.320   4.981 -0.9573 -0.8576 -0.4097
  185POPC  H12Y21265   2.844   2.156   4.997  1.4229 -0.7973  0.0732
  185POPC  C31321266   2.872   2.216   4.790  0.5105 -0.1708 -0.0584
  185POPC  H13X21267   2.924   2.120   4.768 -0.9687 -1.0911  0.3117
  185POPC  H13Y21268   2.905   2.302   4.728 -1.0156  0.5805  0.1348
  185POPC  C31421269   2.723   2.180   4.769  0.6419  0.7019 -0.0519
  185POPC  H14X21270   2.655   2.257   4.810 -0.5006 -0.6526  0.6690
  185POPC  H14Y21271   2.706   2.090   4.832  0.2628  0.6211 -0.2686
  185POPC  C31521272   2.696   2.135   4.620 -0.0190 -0.5977  0.1396
  185POPC  H15X21273   2.765   2.050   4.601  1.1230  0.7459 -2.0947
  185POPC  H15Y21274   2.724   2.215   4.549 -2.4025  0.6965  0.5376
  185POPC  C31621275   2.546   2.086   4.592 -0.0573 -0.4061  0.1925
  185POPC  H16X21276   2.513   2.002   4.657 -2.1339 -0.0678 -0.3481
  185POPC  H16Y21277   2.524   2.063   4.485  2.5552 -1.1145 -0.2755
  185POPC  H16Z21278   2.475   2.167   4.617 -1.9481 -1.6047 -1.0652
  186POPC     N21279   4.136   1.423   7.092 -0.1493 -0.1127  0.6336
  186POPC   C1221280   4.243   1.364   7.003  0.2179  0.0650  0.1084
  186POPC  H12A21281   4.208   1.263   6.994 -2.5128  0.9279  0.2115
  186POPC  H12B21282   4.340   1.360   7.049  0.5515 -2.0459 -0.6461
  186POPC   C1321283   3.994   1.400   7.057 -0.4147 -0.3107  0.7956
  186POPC  H13A21284   3.974   1.296   7.038  0.3262 -0.3934  0.4171
  186POPC  H13B21285   3.924   1.451   7.122 -0.2315  1.0593 -0.0366
  186POPC  H13C21286   3.966   1.456   6.969 -0.1525  1.3342  1.7011
  186POPC   C1421287   4.160   1.358   7.232 -0.2951 -0.3405 -0.2954
  186POPC  H14A21288   4.263   1.373   7.260 -0.0911  2.1616 -2.0947
  186POPC  H14B21289   4.099   1.408   7.305  1.6798 -0.3091  1.4425
  186POPC  H14C21290   4.123   1.256   7.236 -0.3554 -0.2887  1.3253
  186POPC   C1521291   4.160   1.566   7.123  0.2664  0.0077 -0.0522
  186POPC  H15A21292   4.085   1.610   7.187 -1.7296 -1.0107 -1.5917
  186POPC  H15B21293   4.144   1.629   7.037 -0.5958  2.4001  1.7448
  186POPC  H15C21294   4.260   1.591   7.157 -0.2591  1.4318  0.5462
  186POPC   C1121295   4.276   1.419   6.859 -0.0261  0.3524 -0.0390
  186POPC  H11A21296   4.185   1.402   6.797 -0.8247  1.6501  0.7355
  186POPC  H11B21297   4.350   1.351   6.812  0.3444  1.0956 -0.5554
  186POPC     P21298   4.452   1.600   6.887  0.3483  0.2672 -0.1109
  186POPC   O1321299   4.517   1.495   6.969 -0.3740  0.0789  0.5995
  186POPC   O1421300   4.444   1.735   6.938  0.2009  0.3137  0.6060
  186POPC   O1221301   4.302   1.553   6.858 -0.3753 -0.6158  0.3710
  186POPC   O1121302   4.511   1.601   6.740 -0.1338 -0.5086  0.2470
  186POPC    C121303   4.467   1.697   6.642 -0.6611 -0.5426  0.1454
  186POPC    HA21304   4.546   1.773   6.623 -1.2337  0.5837  1.9494
  186POPC    HB21305   4.378   1.754   6.677  0.3991  1.1258  0.2353
  186POPC    C221306   4.433   1.619   6.508  0.1014  1.0428 -0.3510
  186POPC    HS21307   4.364   1.540   6.543  1.7873  0.0262  0.7983
  186POPC   O2121308   4.555   1.563   6.450 -0.0757  0.2294  0.1691
  186POPC   C2121309   4.557   1.432   6.437 -0.3472  0.0304 -0.1320
  186POPC   O2221310   4.460   1.362   6.458 -0.8737 -0.0342  0.6356
  186POPC   C2221311   4.700   1.387   6.389 -0.2497 -0.1162  0.0938
  186POPC   H2R21312   4.743   1.332   6.476  0.7349 -0.3540 -0.5300
  186POPC   H2S21313   4.767   1.473   6.369  2.0631 -1.9067 -0.2750
  186POPC    C321314   4.355   1.706   6.406 -0.7334  0.0865  0.4154
  186POPC    HX21315   4.427   1.786   6.380 -0.9711 -0.5671 -2.7194
  186POPC    HY21316   4.270   1.760   6.452  0.1789  0.9823  1.0857
  186POPC   O3121317   4.318   1.639   6.285 -0.8270 -0.1049 -0.1388
  186POPC   C3121318   4.204   1.580   6.297  0.2606  0.5159  0.5711
  186POPC   O3221319   4.144   1.546   6.396 -0.4514 -0.0438 -0.5840
  186POPC   C3221320   4.165   1.547   6.156 -0.4967  0.0369  0.9473
  186POPC   H2X21321   4.241   1.479   6.111 -0.2562 -0.2245  1.7362
  186POPC   H2Y21322   4.147   1.641   6.100 -0.5518 -1.8250 -2.4716
  186POPC   C2321323   4.695   1.297   6.264 -0.2250  0.1287  0.1080
  186POPC   H3R21324   4.684   1.369   6.180  0.4144  0.4802  0.3150
  186POPC   H3S21325   4.617   1.218   6.267 -0.7710  0.5624 -1.4815
  186POPC   C2421326   4.821   1.222   6.260 -0.0424  0.0247  0.8966
  186POPC   H4R21327   4.823   1.147   6.178  0.3582  0.6079  0.3705
  186POPC   H4S21328   4.837   1.152   6.346  2.0794 -0.6670  0.0029
  186POPC   C2521329   4.947   1.307   6.241 -0.0982  0.1128  0.4799
  186POPC   H5R21330   4.946   1.387   6.317 -2.7037  0.8623 -0.2433
  186POPC   H5S21331   4.924   1.374   6.155  0.7980  0.3855  0.4456
  186POPC   C2621332   5.083   1.237   6.229 -0.3698  0.1377  0.3836
  186POPC   H6R21333   5.082   1.177   6.135 -1.4534  1.5102 -0.5195
  186POPC   H6S21334   5.085   1.164   6.313 -0.2006 -0.7302 -0.3496
  186POPC   C2721335   5.212   1.310   6.240 -0.2324  0.1286  0.1800
  186POPC   H7R21336   5.295   1.237   6.231 -0.1863  0.1313  0.5387
  186POPC   H7S21337   5.216   1.357   6.341  0.6291 -2.3669  1.3779
  186POPC   C2821338   5.239   1.410   6.125  0.0093  0.1774  0.5943
  186POPC   H8R21339   5.210   1.348   6.038 -2.6697 -0.4518  1.8089
  186POPC   H8S21340   5.349   1.422   6.122 -0.1866  2.1004 -1.6975
  186POPC   C2921341   5.170   1.542   6.122  0.9074  0.4065 -0.3455
  186POPC   H9121342   5.215   1.607   6.198 -0.5916 -1.4147  2.2617
  186POPC  C21021343   5.080   1.596   6.038  0.0057  0.3829  0.0399
  186POPC  H10121344   5.049   1.699   6.061  0.0582  0.1217  1.3599
  186POPC  C21121345   5.018   1.525   5.921  0.4620 -0.3177  0.9473
  186POPC  H11R21346   4.907   1.523   5.926  0.3582 -1.2772 -0.8620
  186POPC  H11S21347   5.045   1.417   5.917  0.2639 -0.3435 -2.1430
  186POPC  C21221348   5.055   1.574   5.783 -0.4734 -0.6888  0.1419
  186POPC  H12R21349   5.164   1.591   5.790 -0.5272 -0.7985  1.7275
  186POPC  H12S21350   5.021   1.678   5.762  1.9527 -0.0321 -0.7834
  186POPC  C21321351   5.026   1.467   5.667  0.3418  0.1706 -0.4834
  186POPC  H13R21352   4.929   1.414   5.683 -0.8962  2.1270 -1.1269
  186POPC  H13S21353   5.107   1.394   5.687  1.2672  1.2061 -0.3939
  186POPC  C21421354   5.050   1.517   5.528 -0.3639  0.1198  0.3221
  186POPC  H14R21355   5.121   1.603   5.525 -2.5746  2.1459  2.2149
  186POPC  H14S21356   4.951   1.556   5.497  0.0989 -1.3065 -3.4674
  186POPC  C21521357   5.087   1.401   5.421  0.0156  0.4861 -1.0941
  186POPC  H15R21358   5.002   1.329   5.415  0.9097 -0.5625 -1.6908
  186POPC  H15S21359   5.171   1.340   5.461 -1.4140 -0.6916  0.2317
  186POPC  C21621360   5.113   1.466   5.282  0.0602  0.0553 -0.5586
  186POPC  H16R21361   5.187   1.549   5.287 -0.5846  0.5939  0.4017
  186POPC  H16S21362   5.023   1.515   5.239  0.9959  1.4550 -1.0181
  186POPC  C21721363   5.158   1.372   5.171  0.0805  0.0303 -0.0398
  186POPC  H17R21364   5.059   1.339   5.132 -0.3387 -0.2331  1.1926
  186POPC  H17S21365   5.214   1.287   5.215 -0.5847 -0.4844 -0.1659
  186POPC  C21821366   5.230   1.435   5.062  0.6647 -0.0725  0.0130
  186POPC  H18R21367   5.268   1.358   4.992  0.6157 -0.2676  0.2007
  186POPC  H18S21368   5.318   1.496   5.093  1.1465  0.4143 -2.0970
  186POPC  H18T21369   5.154   1.486   4.999 -0.9308 -3.1382 -0.7535
  186POPC   C3321370   4.035   1.469   6.157 -0.0234 -0.3804 -0.0209
  186POPC   H3X21371   3.964   1.538   6.208  1.6272  1.5965 -0.2637
  186POPC   H3Y21372   4.040   1.371   6.209 -0.2530 -1.1222 -1.3518
  186POPC   C3421373   3.979   1.440   6.012 -0.2997  0.1701 -1.1948
  186POPC   H4X21374   3.955   1.535   5.961 -1.8619  0.9950  0.9314
  186POPC   H4Y21375   3.885   1.382   6.028  0.1137 -0.5589 -1.3201
  186POPC   C3521376   4.067   1.332   5.942 -0.1121  0.3003  0.4615
  186POPC   H5X21377   4.057   1.238   6.000 -0.6239 -0.3131 -0.5880
  186POPC   H5Y21378   4.173   1.366   5.946  1.5544 -3.8415 -1.4843
  186POPC   C3621379   4.043   1.298   5.789 -0.6184 -0.0157  0.2411
  186POPC   H6X21380   3.941   1.253   5.785 -0.0844 -1.2484  0.1291
  186POPC   H6Y21381   4.123   1.224   5.769 -0.6675  0.1261 -0.5368
  186POPC   C3721382   4.066   1.412   5.692 -0.6943 -0.3439  0.4493
  186POPC   H7X21383   4.169   1.446   5.715 -0.5938 -0.5589  0.3224
  186POPC   H7Y21384   3.985   1.483   5.720 -0.6804  0.0403 -0.4494
  186POPC   C3821385   4.057   1.357   5.543 -0.8801 -0.1013  0.0975
  186POPC   H8X21386   3.951   1.336   5.517 -1.6117 -1.8208  3.7379
  186POPC   H8Y21387   4.116   1.264   5.527  0.2970  0.7126 -0.4768
  186POPC   C3921388   4.097   1.463   5.432  0.5614  0.2269  0.2113
  186POPC   H9X21389   4.015   1.536   5.418  0.9140  0.1115 -3.2912
  186POPC   H9Y21390   4.097   1.417   5.331 -1.4425 -3.0768  1.5388
  186POPC  C31021391   4.225   1.538   5.453  0.4304 -0.3342  0.1882
  186POPC  H10X21392   4.295   1.463   5.496 -1.3724 -0.8965  2.3820
  186POPC  H10Y21393   4.227   1.630   5.516  0.4465 -0.8359  0.9427
  186POPC  C31121394   4.292   1.585   5.319  0.0976 -0.0373  0.1283
  186POPC  H11X21395   4.233   1.657   5.259  0.9466 -0.4593 -1.2735
  186POPC  H11Y21396   4.312   1.493   5.259 -0.1385  0.1850 -0.2938
  186POPC  C31221397   4.427   1.657   5.348 -0.1453  0.7695 -0.1194
  186POPC  H12X21398   4.473   1.610   5.437 -1.0422 -0.0436 -0.0691
  186POPC  H12Y21399   4.404   1.763   5.372  3.3509  1.4697  0.7629
  186POPC  C31321400   4.524   1.645   5.232 -0.7682  0.5999  0.6528
  186POPC  H13X21401   4.463   1.654   5.139 -1.8833  1.7510  1.4674
  186POPC  H13Y21402   4.575   1.546   5.226 -0.6520  0.6579  0.7004
  186POPC  C31421403   4.640   1.748   5.222  0.5908  0.6076 -0.3547
  186POPC  H14X21404   4.697   1.743   5.317 -1.5062 -0.3791  0.9152
  186POPC  H14Y21405   4.597   1.850   5.206  1.5651  0.8365 -1.6394
  186POPC  C31521406   4.738   1.731   5.101  0.2374  0.1514 -0.5847
  186POPC  H15X21407   4.828   1.790   5.129  0.5464 -0.5401 -0.0973
  186POPC  H15Y21408   4.687   1.779   5.015  1.4683 -0.3705 -1.6374
  186POPC  C31621409   4.781   1.586   5.062 -0.3256 -0.4801  0.1431
  186POPC  H16X21410   4.839   1.536   5.143  1.0663  0.0857 -0.4803
  186POPC  H16Y21411   4.830   1.589   4.963 -1.2482  0.6633 -0.2992
  186POPC  H16Z21412   4.695   1.516   5.051  2.1603 -3.4499 -2.3186
  187POPC     N21413   0.857   4.432   2.285 -0.0505 -0.0866  0.7040
  187POPC   C1221414   0.880   4.515   2.409 -0.0038  1.2734  0.2806
  187POPC  H12A21415   0.865   4.621   2.392  0.0312  1.2117 -0.1609
  187POPC  H12B21416   0.984   4.500   2.431 -0.4167  0.0903  1.6063
  187POPC   C1321417   0.945   4.472   2.172  0.2379 -0.5800  0.5481
  187POPC  H13A21418   0.915   4.568   2.131 -0.1028 -1.0350 -0.2710
  187POPC  H13B21419   1.045   4.472   2.214 -0.1317 -0.2830  1.4526
  187POPC  H13C21420   0.928   4.402   2.092  2.4133  0.4720 -0.9413
  187POPC   C1421421   0.892   4.284   2.319  0.5107 -0.1684 -0.4137
  187POPC  H14A21422   0.876   4.253   2.421 -1.2508 -1.2661 -0.9781
  187POPC  H14B21423   0.829   4.219   2.261 -2.6285  1.1117  1.3009
  187POPC  H14C21424   0.997   4.270   2.296  0.4052 -0.0458 -0.9999
  187POPC   C1521425   0.711   4.448   2.244 -0.0951  0.2943 -0.4516
  187POPC  H15A21426   0.672   4.386   2.165 -0.0792  0.1979 -0.3848
  187POPC  H15B21427   0.700   4.547   2.202 -1.1686  0.4258  0.0959
  187POPC  H15C21428   0.649   4.435   2.332  1.5597  0.5809  0.7927
  187POPC   C1121429   0.795   4.477   2.531  0.4773  0.3692  0.1441
  187POPC  H11A21430   0.851   4.525   2.615  2.0475  1.3980 -1.4125
  187POPC  H11B21431   0.807   4.367   2.546  0.7212  0.4427  0.5073
  187POPC     P21432   0.631   4.668   2.546 -0.4917 -0.4467 -0.3106
  187POPC   O1321433   0.491   4.701   2.528  0.5823 -0.6054  0.2381
  187POPC   O1421434   0.715   4.743   2.455  0.0028 -0.1636 -0.0284
  187POPC   O1221435   0.657   4.516   2.522  0.1815 -0.1494  0.4221
  187POPC   O1121436   0.674   4.675   2.697  0.1348  0.1617  0.5727
  187POPC    C121437   0.603   4.592   2.797 -0.1373  0.0776 -0.1799
  187POPC    HA21438   0.555   4.510   2.739  1.0921  0.0601 -1.2236
  187POPC    HB21439   0.533   4.668   2.838 -0.1793  0.0253 -0.1547
  187POPC    C221440   0.695   4.515   2.894  1.0228 -0.9064 -0.1337
  187POPC    HS21441   0.770   4.580   2.944  3.1027 -3.6787  0.6349
  187POPC   O2121442   0.754   4.407   2.825  0.2838  0.1615  0.0600
  187POPC   C2121443   0.888   4.398   2.821  0.2836 -0.1524 -0.2143
  187POPC   O2221444   0.961   4.490   2.859 -0.1529  0.5459  0.3273
  187POPC   C2221445   0.937   4.262   2.788  0.0402  0.1961 -0.7947
  187POPC   H2R21446   0.961   4.243   2.682  0.5414 -0.6502 -0.5461
  187POPC   H2S21447   0.860   4.190   2.825  1.6698 -1.7266 -0.9380
  187POPC    C321448   0.614   4.445   3.010  0.4685 -0.3390 -0.0484
  187POPC    HX21449   0.562   4.355   2.970 -0.1249 -0.0912  0.1380
  187POPC    HY21450   0.526   4.513   3.019 -0.0953 -0.7830 -1.7584
  187POPC   O3121451   0.685   4.425   3.131 -0.1723 -0.0372  0.2591
  187POPC   C3121452   0.732   4.304   3.155  0.0745 -0.8450  0.2744
  187POPC   O3221453   0.731   4.216   3.076 -0.1159 -0.3060  1.0283
  187POPC   C3221454   0.785   4.291   3.301  0.1818  0.3129  0.0772
  187POPC   H2X21455   0.719   4.358   3.361  2.6100  1.9607  1.0508
  187POPC   H2Y21456   0.888   4.331   3.309 -0.3353  1.5861  0.5822
  187POPC   C2321457   1.070   4.231   2.866 -0.0383 -0.1059 -0.1358
  187POPC   H3R21458   1.147   4.309   2.848  0.2145 -0.8803 -2.9504
  187POPC   H3S21459   1.115   4.136   2.831 -0.7507 -0.2026 -0.8280
  187POPC   C2421460   1.046   4.216   3.015 -0.2894 -0.0785  0.8592
  187POPC   H4R21461   0.980   4.131   3.042  1.5903 -1.1366  2.4456
  187POPC   H4S21462   0.994   4.310   3.043 -1.0430  0.3403 -1.7024
  187POPC   C2521463   1.176   4.209   3.104  0.0157 -0.2869  0.0806
  187POPC   H5R21464   1.226   4.308   3.110 -2.9863  1.5179 -2.0480
  187POPC   H5S21465   1.245   4.143   3.048 -0.0316  0.5925 -1.0437
  187POPC   C2621466   1.161   4.171   3.248 -0.6965  0.1322  0.9728
  187POPC   H6R21467   1.115   4.070   3.252 -1.9373  0.4031 -2.6101
  187POPC   H6S21468   1.090   4.240   3.299 -1.4992  0.3871 -0.4248
  187POPC   C2721469   1.299   4.150   3.316  0.1696 -0.2967 -0.2867
  187POPC   H7R21470   1.364   4.239   3.308  1.9415 -1.3609  1.2290
  187POPC   H7S21471   1.343   4.063   3.262  0.5796 -1.3540  1.6566
  187POPC   C2821472   1.279   4.105   3.463 -0.0653  0.6566 -0.2971
  187POPC   H8R21473   1.217   4.013   3.474  0.2571  0.4415 -0.2706
  187POPC   H8S21474   1.234   4.192   3.515  0.9227  2.4823 -2.3283
  187POPC   C2921475   1.407   4.074   3.534 -0.6130 -0.0017  0.1292
  187POPC   H9121476   1.495   4.069   3.468  0.2916  1.9580  1.1171
  187POPC  C21021477   1.428   4.065   3.664 -0.3544  0.0062 -0.1107
  187POPC  H10121478   1.527   4.024   3.689 -0.2145  1.3738  1.7295
  187POPC  C21121479   1.333   4.092   3.776  0.7254 -1.1275 -0.4382
  187POPC  H11R21480   1.248   4.020   3.782 -1.7089  1.5690 -0.0150
  187POPC  H11S21481   1.279   4.188   3.762 -0.8158 -1.9573 -0.5048
  187POPC  C21221482   1.408   4.085   3.913 -0.2678 -0.2408  0.2072
  187POPC  H12R21483   1.498   4.151   3.917  0.6630 -1.3898 -0.8700
  187POPC  H12S21484   1.444   3.981   3.924 -1.2539 -0.8476 -1.8309
  187POPC  C21321485   1.314   4.111   4.036 -0.4557 -0.3498  0.5151
  187POPC  H13R21486   1.234   4.035   4.022  0.0061 -0.7166 -0.1969
  187POPC  H13S21487   1.274   4.215   4.031 -0.9077 -0.5104  0.7160
  187POPC  C21421488   1.380   4.094   4.167 -0.3375  0.0330 -0.3437
  187POPC  H14R21489   1.468   4.161   4.171  1.6837 -2.4832  0.4602
  187POPC  H14S21490   1.405   3.986   4.179 -1.0634 -0.1311 -0.2504
  187POPC  C21521491   1.283   4.131   4.277 -0.4695  0.0205 -0.5057
  187POPC  H15R21492   1.214   4.044   4.289  0.9636 -1.6257 -3.1753
  187POPC  H15S21493   1.220   4.216   4.244 -0.8608 -0.3422 -0.7128
  187POPC  C21621494   1.345   4.155   4.420 -0.3988  0.5909 -0.0417
  187POPC  H16R21495   1.263   4.190   4.486 -0.5984  1.2317 -0.6160
  187POPC  H16S21496   1.428   4.228   4.416  2.0587 -2.0181 -0.1379
  187POPC  C21721497   1.397   4.023   4.489  0.3032  0.1478  0.3482
  187POPC  H17R21498   1.474   3.982   4.420 -1.5520  0.9825 -2.3854
  187POPC  H17S21499   1.315   3.948   4.484  0.5529 -0.0808 -2.6182
  187POPC  C21821500   1.451   4.040   4.623 -0.4225 -0.4455 -0.6214
  187POPC  H18R21501   1.384   4.092   4.695 -2.5045 -4.1513  0.4032
  187POPC  H18S21502   1.553   4.078   4.602  0.6729 -2.7067  0.2711
  187POPC  H18T21503   1.465   3.939   4.667 -2.0775  0.0492  1.2164
  187POPC   C3321504   0.781   4.151   3.345  0.1312  0.6106 -0.6749
  187POPC   H3X21505   0.870   4.097   3.304 -0.1753  0.5620 -1.2839
  187POPC   H3Y21506   0.693   4.088   3.322  1.5559 -0.9377 -2.1727
  187POPC   C3421507   0.796   4.141   3.500  0.9873 -0.3080  0.3475
  187POPC   H4X21508   0.753   4.044   3.534 -0.2488 -0.3244 -1.1714
  187POPC   H4Y21509   0.731   4.218   3.546 -0.3498 -1.7992  1.0351
  187POPC   C3521510   0.936   4.172   3.552  0.1127 -0.2448  0.0509
  187POPC   H5X21511   0.975   4.266   3.507 -1.0512  0.7088  0.9655
  187POPC   H5Y21512   0.999   4.087   3.520 -1.0780 -2.2853  2.7351
  187POPC   C3621513   0.946   4.180   3.705  0.6905  0.4652  0.1454
  187POPC   H6X21514   0.868   4.247   3.746  1.6023  1.1753  0.7761
  187POPC   H6Y21515   1.038   4.236   3.735  0.5231  0.2487  1.1051
  187POPC   C3721516   0.934   4.050   3.776 -0.1209  0.7456 -0.1491
  187POPC   H7X21517   1.007   3.980   3.731  0.2045  1.4139 -0.6934
  187POPC   H7Y21518   0.828   4.017   3.771 -1.2750  3.8085  1.2707
  187POPC   C3821519   0.964   4.067   3.922  0.4215 -0.3451  0.0814
  187POPC   H8X21520   1.064   4.116   3.925  0.2785  0.2089 -2.3041
  187POPC   H8Y21521   0.975   3.971   3.976  0.8422 -0.1724  0.3128
  187POPC   C3921522   0.870   4.156   4.004  0.1601  0.4040 -0.4252
  187POPC   H9X21523   0.764   4.125   3.993  0.3890 -0.3678 -0.4986
  187POPC   H9Y21524   0.870   4.257   3.956 -0.0493  0.6890  0.1650
  187POPC  C31021525   0.909   4.187   4.147 -0.0686  0.3373  0.0325
  187POPC  H10X21526   0.831   4.245   4.201  0.1201  1.9330 -1.2924
  187POPC  H10Y21527   0.997   4.255   4.148 -0.2980  0.6398  1.5797
  187POPC  C31121528   0.923   4.059   4.232  0.2605 -0.2652 -0.1892
  187POPC  H11X21529   0.995   3.982   4.196  0.2645 -0.8795  1.0547
  187POPC  H11Y21530   0.833   3.996   4.217  2.0933 -3.1956  0.2768
  187POPC  C31221531   0.940   4.093   4.382  0.6026  0.2354  0.2598
  187POPC  H12X21532   0.907   4.197   4.401 -1.0813 -0.3909  0.9997
  187POPC  H12Y21533   1.045   4.078   4.414  0.4683 -1.7170 -0.0526
  187POPC  C31321534   0.855   4.007   4.473 -0.0727 -0.6963 -0.3781
  187POPC  H13X21535   0.840   3.901   4.443 -0.1612 -0.9865  0.6533
  187POPC  H13Y21536   0.754   4.053   4.471  0.7677  1.2562 -0.2912
  187POPC  C31421537   0.894   4.011   4.617  0.0106 -0.6479  0.4523
  187POPC  H14X21538   0.814   3.974   4.685  0.4092 -2.5807 -0.0848
  187POPC  H14Y21539   0.903   4.121   4.630  1.3383 -0.6531 -0.2325
  187POPC  C31521540   1.030   3.952   4.646 -0.1925  0.0413  1.0054
  187POPC  H15X21541   1.103   4.027   4.611  0.0259 -1.1284 -1.1641
  187POPC  H15Y21542   1.044   3.858   4.589  1.2722  0.0305  1.3549
  187POPC  C31621543   1.058   3.921   4.796 -0.0059  0.1013  0.0432
  187POPC  H16X21544   0.972   3.862   4.834  0.6520 -0.4603  0.6896
  187POPC  H16Y21545   1.062   4.014   4.858  0.5893 -0.9444  1.6278
  187POPC  H16Z21546   1.151   3.861   4.794 -0.1330 -0.2121 -3.8891
  188POPC     N21547   6.027   4.554   2.334 -0.4026 -0.3614 -0.1772
  188POPC   C1221548   6.041   4.497   2.472 -0.4205 -1.5160  1.1783
  188POPC  H12A21549   6.085   4.399   2.461  1.4319 -1.1018  3.9929
  188POPC  H12B21550   5.944   4.480   2.516 -1.3178  0.8572  0.3019
  188POPC   C1321551   5.947   4.460   2.248 -0.0878  0.3420 -0.1210
  188POPC  H13A21552   5.965   4.354   2.247 -1.9276  0.0066 -1.2705
  188POPC  H13B21553   5.840   4.473   2.261 -0.9202 -2.5780 -2.9022
  188POPC  H13C21554   5.950   4.495   2.146 -1.9675  1.2867  0.1010
  188POPC   C1421555   5.962   4.689   2.340  0.1662  0.0584  0.0868
  188POPC  H14A21556   6.007   4.740   2.424  0.0049  0.2356  0.0654
  188POPC  H14B21557   5.976   4.733   2.242  0.3172 -4.4981 -2.2196
  188POPC  H14C21558   5.857   4.680   2.363  0.3810  1.6393  1.9549
  188POPC   C1521559   6.162   4.568   2.268  0.5046  0.2217 -0.5121
  188POPC  H15A21560   6.219   4.627   2.339 -0.3831 -1.2877  1.5789
  188POPC  H15B21561   6.146   4.616   2.173 -0.1044  0.5610 -0.2439
  188POPC  H15C21562   6.214   4.476   2.244 -2.1656 -0.4422 -4.7032
  188POPC   C1121563   6.126   4.579   2.577  0.5217  0.4164 -0.3414
  188POPC  H11A21564   6.232   4.580   2.544  0.4888 -0.7701 -0.5080
  188POPC  H11B21565   6.110   4.529   2.675  0.7490 -0.0094 -0.5194
  188POPC     P21566   6.163   4.829   2.648 -0.3040 -0.1000 -0.2034
  188POPC   O1321567   6.094   4.958   2.612  0.0576 -0.1811 -0.0576
  188POPC   O1421568   6.301   4.809   2.594  0.2242 -0.5457 -0.4003
  188POPC   O1221569   6.082   4.711   2.594  0.5912  0.1645  0.0501
  188POPC   O1121570   6.172   4.805   2.804  0.2928 -0.6029 -0.9175
  188POPC    C121571   6.067   4.851   2.887  0.4187  0.2982  0.1293
  188POPC    HA21572   6.024   4.766   2.943 -0.4896  0.1377 -0.7782
  188POPC    HB21573   5.978   4.881   2.827 -2.4133 -3.0263  2.2910
  188POPC    C221574   6.121   4.953   2.998  0.7403  0.2587  0.1437
  188POPC    HS21575   6.166   5.032   2.934  2.7222 -2.5167 -2.1266
  188POPC   O2121576   6.214   4.890   3.084  0.3758  0.0394  0.8635
  188POPC   C2121577   6.303   4.970   3.127  0.6164 -0.7008  0.3154
  188POPC   O2221578   6.334   5.081   3.084 -0.0057 -0.1079 -0.2655
  188POPC   C2221579   6.366   4.923   3.257 -0.1765  0.3717 -0.1168
  188POPC   H2R21580   6.424   4.830   3.235  0.5993  0.5394  1.1492
  188POPC   H2S21581   6.283   4.888   3.321  1.4807 -2.9578  0.4626
  188POPC    C321582   5.995   5.006   3.077 -0.4454  0.4122  0.3638
  188POPC    HX21583   5.939   4.921   3.123 -0.9210  0.4113 -0.2001
  188POPC    HY21584   5.932   5.047   2.995  1.6012  0.1549 -1.4290
  188POPC   O3121585   6.039   5.103   3.177 -0.0900 -0.2004 -0.1624
  188POPC   C3121586   6.023   5.229   3.159  0.0954 -0.3344 -0.0078
  188POPC   O3221587   5.978   5.274   3.056 -0.4737 -0.5769  0.2849
  188POPC   C3221588   6.051   5.312   3.280 -0.1207 -0.2149  0.2678
  188POPC   H2X21589   5.976   5.390   3.304 -0.8910 -1.7422  3.3533
  188POPC   H2Y21590   6.144   5.371   3.264  0.1646 -1.2025 -2.1603
  188POPC   C2321591   6.440   5.033   3.337 -0.2462  0.2850  0.1763
  188POPC   H3R21592   6.373   5.121   3.346  2.6924  2.7497 -0.3536
  188POPC   H3S21593   6.518   5.075   3.271 -0.2209 -1.4316 -0.9516
  188POPC   C2421594   6.483   4.991   3.481 -0.5276  0.4487 -0.2299
  188POPC   H4R21595   6.389   5.005   3.539 -0.7601 -0.4475 -0.3630
  188POPC   H4S21596   6.547   5.072   3.522 -0.9734  0.4562  0.4689
  188POPC   C2521597   6.531   4.843   3.511  0.2019 -0.5680 -0.1432
  188POPC   H5R21598   6.635   4.828   3.477  0.3020 -0.1267 -0.0358
  188POPC   H5S21599   6.472   4.772   3.450  1.1300 -1.3137 -0.1843
  188POPC   C2621600   6.529   4.813   3.658 -0.0343  0.4778 -0.0309
  188POPC   H6R21601   6.505   4.708   3.685 -0.4692  0.0513 -1.9149
  188POPC   H6S21602   6.438   4.862   3.701  0.0614  0.5810  0.0533
  188POPC   C2721603   6.649   4.858   3.742  0.2179 -0.4794  0.1330
  188POPC   H7R21604   6.624   4.868   3.850 -1.8789 -2.0242 -0.1518
  188POPC   H7S21605   6.678   4.963   3.718  0.2779  0.0710  2.3484
  188POPC   C2821606   6.767   4.758   3.745  0.4393 -0.2246 -0.1918
  188POPC   H8R21607   6.785   4.731   3.639 -1.2264 -0.3096 -0.4845
  188POPC   H8S21608   6.731   4.665   3.795 -3.4522  2.0111  1.6101
  188POPC   C2921609   6.891   4.811   3.817 -0.1913  0.8270  0.1166
  188POPC   H9121610   6.885   4.920   3.831 -0.2853  0.7512  0.6758
  188POPC  C21021611   6.985   4.733   3.871  0.7539  0.1782  0.4188
  188POPC  H10121612   7.066   4.787   3.921 -1.8219  1.2175  3.7926
  188POPC  C21121613   7.000   4.589   3.858  0.6851  0.7261  0.3110
  188POPC  H11R21614   7.106   4.560   3.841  0.4652  0.0703  0.0200
  188POPC  H11S21615   6.954   4.561   3.761  3.6758  1.7092 -1.5265
  188POPC  C21221616   6.945   4.510   3.979 -0.5601  0.6676  0.2023
  188POPC  H12R21617   6.961   4.401   3.969  0.0277  0.5141  2.3559
  188POPC  H12S21618   6.837   4.523   4.001 -1.0964  1.1898 -2.3362
  188POPC  C21321619   7.012   4.564   4.103  0.5723  0.5469 -0.6405
  188POPC  H13R21620   6.990   4.670   4.127  0.9322  0.7003 -0.9747
  188POPC  H13S21621   7.120   4.568   4.075  0.3482  1.1373 -1.4410
  188POPC  C21421622   6.991   4.474   4.228  0.5212 -0.1084 -0.0090
  188POPC  H14R21623   6.972   4.368   4.200  0.2781  0.0394 -0.4220
  188POPC  H14S21624   6.897   4.506   4.279  1.3815  2.1038  0.3020
  188POPC  C21521625   7.102   4.481   4.333 -0.4633 -0.4591 -0.1516
  188POPC  H15R21626   7.109   4.589   4.360  0.8450 -0.9287  1.5713
  188POPC  H15S21627   7.207   4.467   4.300 -0.7885  0.1343 -1.5129
  188POPC  C21621628   7.065   4.426   4.471 -0.8711  0.5093  0.1424
  188POPC  H16R21629   7.081   4.316   4.482 -1.0850  0.3727 -0.7914
  188POPC  H16S21630   6.956   4.440   4.488 -0.3800  2.1021  2.4759
  188POPC  C21721631   7.122   4.510   4.592  0.5653  0.1465  0.2371
  188POPC  H17R21632   7.083   4.614   4.587 -2.1693 -0.7337  1.3209
  188POPC  H17S21633   7.233   4.499   4.591  0.6075  0.5682 -0.1019
  188POPC  C21821634   7.083   4.445   4.726 -0.0212 -0.8507 -0.0536
  188POPC  H18R21635   6.976   4.434   4.754  0.1420 -2.1777  0.1067
  188POPC  H18S21636   7.105   4.523   4.802 -0.8177 -0.9053  0.2458
  188POPC  H18T21637   7.139   4.349   4.737  2.6645  0.6558  0.2377
  188POPC   C3321638   6.066   5.225   3.411  0.6838  0.2513 -0.0143
  188POPC   H3X21639   6.156   5.162   3.425  0.7486  0.4469  0.4719
  188POPC   H3Y21640   5.972   5.168   3.420 -0.3798  1.6997 -1.2722
  188POPC   C3421641   6.075   5.314   3.531 -0.3166 -0.5792 -0.3419
  188POPC   H4X21642   5.975   5.350   3.561  0.2636  0.4639  0.4364
  188POPC   H4Y21643   6.148   5.396   3.511 -2.3396  1.9985  1.9551
  188POPC   C3521644   6.122   5.247   3.655  0.1276  0.6433 -0.2016
  188POPC   H5X21645   6.198   5.169   3.630 -0.4361  0.1507 -0.4089
  188POPC   H5Y21646   6.041   5.177   3.685  0.7791  0.6834  1.7495
  188POPC   C3621647   6.169   5.343   3.765 -0.2056  0.6767  0.0582
  188POPC   H6X21648   6.088   5.416   3.786 -0.4983  0.5138 -0.4882
  188POPC   H6Y21649   6.254   5.405   3.727 -1.0954 -0.0035 -3.4269
  188POPC   C3721650   6.212   5.269   3.898  0.4217  0.1577  0.6825
  188POPC   H7X21651   6.117   5.233   3.942  0.0407  0.2627 -0.0523
  188POPC   H7Y21652   6.251   5.352   3.961  0.6557  0.2010  0.4833
  188POPC   C3821653   6.313   5.158   3.896  0.8230 -0.6311 -0.0167
  188POPC   H8X21654   6.401   5.201   3.843  0.5993 -1.1836 -0.8430
  188POPC   H8Y21655   6.266   5.073   3.843 -1.0152 -0.1942  0.8203
  188POPC   C3921656   6.355   5.116   4.029  0.2086 -0.1372  0.4627
  188POPC   H9X21657   6.271   5.093   4.098 -0.9566  0.4629 -0.7079
  188POPC   H9Y21658   6.420   5.197   4.067  0.4736  0.2139 -0.7038
  188POPC  C31021659   6.449   4.994   4.027 -0.4117 -0.0235  0.1716
  188POPC  H10X21660   6.529   5.014   3.953 -0.2814 -3.3913 -0.7600
  188POPC  H10Y21661   6.395   4.905   3.988 -1.9495 -0.2299  2.5745
  188POPC  C31121662   6.503   4.954   4.162  0.3118  0.2702  0.3841
  188POPC  H11X21663   6.406   4.941   4.215 -0.7504  1.5516 -1.1359
  188POPC  H11Y21664   6.553   5.045   4.202  0.6786  0.3841 -0.3241
  188POPC  C31221665   6.599   4.848   4.139 -0.0266  0.1285 -0.4364
  188POPC  H12X21666   6.705   4.882   4.132  0.7889 -1.6269  1.8281
  188POPC  H12Y21667   6.573   4.791   4.048 -0.6376 -2.9552  1.5198
  188POPC  C31321668   6.597   4.743   4.257  0.3984 -0.1397 -0.0260
  188POPC  H13X21669   6.661   4.657   4.227  2.6671  1.6791 -0.6983
  188POPC  H13Y21670   6.498   4.695   4.274  0.9568 -0.9533  1.0024
  188POPC  C31421671   6.638   4.791   4.401  0.2060 -0.1819  0.2358
  188POPC  H14X21672   6.563   4.855   4.451  2.5295  1.8527  1.3406
  188POPC  H14Y21673   6.733   4.847   4.387  2.1561 -3.1830  0.4517
  188POPC  C31521674   6.646   4.668   4.496 -0.1678 -0.0069  0.3859
  188POPC  H15X21675   6.726   4.603   4.453 -0.2447 -0.7721  1.3535
  188POPC  H15Y21676   6.551   4.611   4.504  0.1323 -0.4691  0.7542
  188POPC  C31621677   6.694   4.692   4.642  0.0856 -0.0460  0.1495
  188POPC  H16X21678   6.787   4.752   4.648  0.9471 -1.3214  0.0113
  188POPC  H16Y21679   6.729   4.597   4.689  0.9499  0.1493 -0.0840
  188POPC  H16Z21680   6.613   4.738   4.702  0.5392  0.1891  0.5959
  189SAPI   C1221681   5.903   1.035   6.797  0.7422  0.1735 -0.5671
  189SAPI    H221682   5.874   1.015   6.691 -1.4266 -0.6893  0.1458
  189SAPI    O221683   5.783   0.990   6.864 -0.3634 -0.9490 -0.6070
  189SAPI   HO221684   5.779   0.894   6.861  0.2377 -1.0541  0.9198
  189SAPI   C1321685   6.025   0.965   6.838  0.2654  0.0631  0.6174
  189SAPI    H321686   6.114   0.999   6.781 -1.3583 -2.1994 -3.7697
  189SAPI    O321687   6.019   0.834   6.786  0.0218 -0.4127  0.2866
  189SAPI   HO321688   5.999   0.770   6.854  1.6607  0.2049  1.4022
  189SAPI   C1421689   6.052   0.977   6.986  0.8683  0.3986  0.3210
  189SAPI    H421690   5.979   0.911   7.036  1.0061 -0.1883 -0.2335
  189SAPI    O421691   6.179   0.918   7.015  0.3385 -0.2281 -0.0100
  189SAPI   HO421692   6.251   0.966   6.974 -0.1863  0.4623 -0.1373
  189SAPI   C1521693   6.033   1.117   7.042  0.4431  0.1603  0.3769
  189SAPI    H521694   6.133   1.162   7.026  0.4405  0.1267  0.2663
  189SAPI    O521695   6.015   1.118   7.183 -0.4613  0.0457 -0.5278
  189SAPI   HO521696   5.940   1.069   7.217 -0.5550  0.5432  0.0199
  189SAPI   C1621697   5.934   1.209   6.969 -0.3266 -0.1073 -0.5498
  189SAPI    H621698   5.836   1.174   7.010 -0.2821 -2.1577 -2.0596
  189SAPI    O621699   5.966   1.342   7.011  0.1748  0.5292  0.4702
  189SAPI   HO621700   6.029   1.376   6.947  0.2524  2.2419  1.3882
  189SAPI   C1121701   5.917   1.181   6.817  0.1265 -0.0542  0.3044
  189SAPI    H121702   6.011   1.215   6.769  1.0272  1.2028  2.7875
  189SAPI     P21703   5.832   1.399   6.681 -0.2139 -0.2356 -0.0636
  189SAPI   O1321704   5.923   1.484   6.759 -0.3362  0.1182  0.1546
  189SAPI   O1421705   5.705   1.468   6.646  0.5207 -0.4892 -0.1907
  189SAPI   O1221706   5.804   1.256   6.765  0.3298 -0.2715 -0.1891
  189SAPI   O1121707   5.896   1.352   6.540  0.0733  0.1385 -0.0289
  189SAPI    C121708   5.841   1.249   6.458 -1.0822 -0.9408 -0.4272
  189SAPI    HA21709   5.925   1.185   6.423 -1.4149 -0.6555 -1.7801
  189SAPI    HB21710   5.774   1.182   6.516 -1.3904  0.8998  1.4683
  189SAPI    C221711   5.761   1.315   6.340  0.1313  0.8827  0.8822
  189SAPI    HS21712   5.670   1.352   6.391  0.3571 -0.3164  2.1999
  189SAPI   O2121713   5.740   1.218   6.235 -0.0709 -0.2593  0.0773
  189SAPI   C2121714   5.635   1.143   6.251  0.3839 -0.8379  1.0757
  189SAPI   O2221715   5.568   1.142   6.355  0.1045  0.1228 -0.5764
  189SAPI   C2221716   5.610   1.058   6.129 -0.9241  0.1411  0.5594
  189SAPI   H2R21717   5.698   1.058   6.062 -1.6288 -1.4790 -0.4302
  189SAPI   H2S21718   5.592   0.952   6.157  0.4034 -0.6175 -1.2420
  189SAPI    C321719   5.829   1.441   6.285 -0.1514 -0.1974  0.3119
  189SAPI    HX21720   5.934   1.409   6.271  0.0603  0.8110 -0.5406
  189SAPI    HY21721   5.834   1.511   6.371  2.1348  0.1329 -0.0251
  189SAPI   O3121722   5.767   1.493   6.162  0.1854  0.2684  0.3404
  189SAPI   C3121723   5.653   1.559   6.175 -0.1529  0.4760  0.1881
  189SAPI   O3221724   5.586   1.569   6.275  0.1520  0.3475 -0.1657
  189SAPI   C3221725   5.627   1.618   6.036  0.7789  0.0967 -0.3023
  189SAPI   H2X21726   5.526   1.578   6.013  0.6317  0.1605  0.2330
  189SAPI   H2Y21727   5.700   1.577   5.962  0.2585  0.0641 -0.8101
  189SAPI   C2321728   5.480   1.096   6.059  0.5721 -0.0983 -0.0546
  189SAPI   H3R21729   5.468   1.204   6.038 -1.3963 -0.0619  1.0469
  189SAPI   H3S21730   5.398   1.063   6.126  0.4773 -2.8024 -1.3346
  189SAPI   C2421731   5.444   1.011   5.937  0.1024 -0.4858  0.6107
  189SAPI   H4R21732   5.453   0.903   5.960  1.3622 -0.2873  1.1106
  189SAPI   H4S21733   5.507   1.054   5.856  0.7529 -0.8708  0.9043
  189SAPI   C2521734   5.304   1.047   5.886  0.1398  0.2882  0.1490
  189SAPI   H5R21735   5.215   1.006   5.936 -0.1326  0.0755 -0.4983
  189SAPI   C2621736   5.265   1.123   5.778  0.1304 -0.0914  0.3767
  189SAPI   H6R21737   5.157   1.138   5.770  0.0940 -0.4047  0.2415
  189SAPI   C2721738   5.360   1.193   5.686  0.0970 -0.0335 -0.1103
  189SAPI   H7R21739   5.332   1.200   5.579  2.5889 -1.3969 -0.9343
  189SAPI   H7S21740   5.448   1.126   5.683 -1.1501 -1.8508  1.3362
  189SAPI   C2821741   5.387   1.337   5.724 -0.7669  0.4241 -0.3630
  189SAPI   H8R21742   5.337   1.375   5.814  1.0075  0.9731  0.4375
  189SAPI   C2921743   5.489   1.411   5.671 -0.0882 -0.2594  0.4295
  189SAPI   H9R21744   5.507   1.512   5.711 -1.5724  0.0516  0.3815
  189SAPI  C21021745   5.586   1.360   5.563 -0.3846  0.5854 -0.3147
  189SAPI  H10R21746   5.586   1.425   5.472  0.1563 -0.3323 -0.9896
  189SAPI  H10S21747   5.564   1.257   5.528 -2.1430  0.7911  0.1105
  189SAPI  C21121748   5.728   1.356   5.618  0.2123 -0.1256  0.3176
  189SAPI  H11R21749   5.739   1.313   5.718 -1.9129 -0.3130  0.5257
  189SAPI  C21221750   5.848   1.402   5.564  0.4948  0.1696 -0.0392
  189SAPI  H12R21751   5.941   1.400   5.623  0.4129 -0.2518  0.0800
  189SAPI  C21321752   5.869   1.440   5.420  0.0338 -0.7916 -0.0209
  189SAPI  H13R21753   5.773   1.485   5.389  0.2209  0.8439  1.6060
  189SAPI  H13S21754   5.884   1.347   5.361  1.9414  0.9738 -2.5183
  189SAPI  C21421755   5.987   1.529   5.394  0.2785 -0.3162  0.4596
  189SAPI  H14R21756   6.010   1.609   5.467 -0.7109  0.8016 -0.4256
  189SAPI  C21521757   6.079   1.522   5.297  0.7452  0.1720 -0.0305
  189SAPI  H15R21758   6.167   1.587   5.305  0.7373  0.1411  0.3177
  189SAPI  C21621759   6.077   1.427   5.176  0.1849  0.4951 -0.5273
  189SAPI  H16R21760   6.086   1.493   5.087 -0.6535 -0.1778 -1.1229
  189SAPI  H16S21761   5.979   1.377   5.168 -0.8278  1.6006  3.1334
  189SAPI  C21721762   6.193   1.321   5.179  0.0709 -0.9635 -0.5076
  189SAPI  H17R21763   6.194   1.280   5.075 -1.7559  0.1701 -1.0318
  189SAPI  H17S21764   6.160   1.237   5.244  0.8814 -1.5413 -0.8272
  189SAPI  C21821765   6.334   1.360   5.218 -0.2151  0.2328  0.5580
  189SAPI  H18R21766   6.334   1.413   5.315 -0.2313 -0.3658  0.8926
  189SAPI  H18S21767   6.385   1.425   5.143  1.5071  0.6867  2.0584
  189SAPI  C21921768   6.418   1.233   5.245  0.5246 -0.3991  0.3785
  189SAPI  H19R21769   6.404   1.156   5.166 -1.8116 -0.4269  0.7477
  189SAPI  H19S21770   6.371   1.177   5.329  0.6829 -0.8877  0.1474
  189SAPI  C22021771   6.560   1.258   5.281 -0.5955  0.4088 -0.4385
  189SAPI  H20R21772   6.618   1.190   5.215 -2.0877  0.1640 -1.5480
  189SAPI  H20S21773   6.579   1.234   5.388  1.8260 -0.5459 -1.0138
  189SAPI  H20T21774   6.602   1.358   5.259 -0.4988  0.6084  0.5718
  189SAPI   C3321775   5.621   1.770   6.030  0.6400  0.0180 -0.3699
  189SAPI   H3X21776   5.710   1.804   6.087 -0.8290  0.7476  1.6070
  189SAPI   H3Y21777   5.533   1.806   6.088  0.6034  0.2111 -0.5422
  189SAPI   C3421778   5.607   1.827   5.884  1.3115  0.5202 -0.2694
  189SAPI   H4X21779   5.566   1.930   5.877  1.4597  0.5729 -0.3702
  189SAPI   H4Y21780   5.530   1.767   5.830  2.7952  0.0076 -1.8942
  189SAPI   C3521781   5.726   1.806   5.791  0.0613  0.2912 -0.5393
  189SAPI   H5X21782   5.754   1.699   5.784  1.2691  0.5524  0.0987
  189SAPI   H5Y21783   5.806   1.868   5.837 -0.7098  1.3740 -0.5952
  189SAPI   C3621784   5.708   1.851   5.647  0.1371 -0.3301  0.2105
  189SAPI   H6X21785   5.800   1.854   5.585 -0.7954  1.7962 -1.2068
  189SAPI   H6Y21786   5.667   1.954   5.647 -0.1244 -0.4288  0.6623
  189SAPI   C3721787   5.631   1.762   5.547  0.6224 -0.0684 -0.3096
  189SAPI   H7X21788   5.524   1.753   5.573  0.6142 -0.4664 -0.4787
  189SAPI   H7Y21789   5.672   1.660   5.564  0.6461  0.1383  0.9991
  189SAPI   C3821790   5.637   1.805   5.398 -0.3649  0.0251 -0.6231
  189SAPI   H8X21791   5.741   1.825   5.363 -0.4059  0.5460 -0.4461
  189SAPI   H8Y21792   5.593   1.906   5.388 -2.6010 -0.9261 -0.8809
  189SAPI   C3921793   5.582   1.704   5.301 -0.3319  0.5456 -0.6857
  189SAPI   H9X21794   5.473   1.701   5.324 -0.1406  0.3351  0.2113
  189SAPI   H9Y21795   5.632   1.607   5.322 -1.3040  0.2506  0.3441
  189SAPI  C31021796   5.587   1.751   5.155 -0.0922 -0.3945 -1.0300
  189SAPI  H10X21797   5.542   1.851   5.140 -2.5359 -1.3435 -0.3734
  189SAPI  H10Y21798   5.523   1.681   5.098  0.7936 -0.2900 -2.1790
  189SAPI  C31121799   5.735   1.748   5.101 -0.7447  0.0895  0.0545
  189SAPI  H11X21800   5.778   1.647   5.112 -0.1563  0.4260  0.9184
  189SAPI  H11Y21801   5.801   1.816   5.159 -1.4846  0.0346  0.9951
  189SAPI  C31221802   5.738   1.787   4.956 -0.8523 -0.3221  0.2190
  189SAPI  H12X21803   5.693   1.704   4.897  2.7407 -1.8666 -0.6157
  189SAPI  H12Y21804   5.842   1.795   4.919 -0.9379  2.0713  0.3554
  189SAPI  C31321805   5.655   1.911   4.920 -0.8736  0.3040  0.1228
  189SAPI  H13X21806   5.680   1.995   4.988  0.0473 -0.1630  0.3910
  189SAPI  H13Y21807   5.547   1.887   4.931 -0.6515  0.3259  3.3032
  189SAPI  C31421808   5.678   1.964   4.775  0.2822  0.0081 -0.2475
  189SAPI  H14X21809   5.687   1.874   4.711  0.5625  0.6413 -1.1308
  189SAPI  H14Y21810   5.778   2.012   4.761 -0.0184  0.1545 -2.1831
  189SAPI  C31521811   5.566   2.059   4.721 -0.4872  0.0260 -0.1060
  189SAPI  H15X21812   5.544   2.143   4.791  0.4341 -0.0411  0.2700
  189SAPI  H15Y21813   5.471   2.003   4.709 -0.4434 -0.3192  1.0301
  189SAPI  C31621814   5.618   2.118   4.582 -0.5917  0.2682  0.0513
  189SAPI  H16X21815   5.634   2.025   4.522 -2.9497 -2.7043  3.5521
  189SAPI  H16Y21816   5.714   2.169   4.602  0.2525 -1.0404 -0.4992
  189SAPI  C31721817   5.536   2.224   4.502 -0.2788 -0.3817 -0.0426
  189SAPI  H17X21818   5.449   2.162   4.473 -1.1328  0.4804  0.6090
  189SAPI  H17Y21819   5.606   2.252   4.419  0.4211 -2.0727 -0.0581
  189SAPI  C31821820   5.504   2.348   4.584 -0.3852 -0.4817 -0.2369
  189SAPI  H18X21821   5.418   2.406   4.545 -1.4456 -0.8484  1.4752
  189SAPI  H18Y21822   5.595   2.405   4.613 -0.4174 -1.0574  1.0462
  189SAPI  H18Z21823   5.454   2.318   4.678 -0.8038 -2.8764 -1.1645
  190SAPI   C1221824   3.006   5.110   6.922 -0.6543  0.2798 -0.5057
  190SAPI    H221825   2.953   5.107   6.824 -0.7315 -0.4713 -0.4528
  190SAPI    O221826   3.111   5.203   6.910 -0.0423 -0.5729  0.2233
  190SAPI   HO221827   3.195   5.157   6.918  0.3555  0.3538  1.5038
  190SAPI   C1321828   2.922   5.154   7.035  0.0653  1.0410  0.2661
  190SAPI    H321829   2.830   5.090   7.033  1.5533 -1.2262 -1.9335
  190SAPI    O321830   2.866   5.285   7.022 -0.2284 -0.3394  0.3468
  190SAPI   HO321831   2.934   5.337   6.980  0.2374 -1.0932  0.1454
  190SAPI   C1421832   2.987   5.134   7.169 -0.1398  0.7908  0.1214
  190SAPI    H421833   3.057   5.220   7.166 -0.4503  1.0208 -1.7797
  190SAPI    O421834   2.899   5.153   7.276  0.1724 -0.2035 -0.4544
  190SAPI   HO421835   2.819   5.113   7.241 -0.1128 -0.7427  0.7652
  190SAPI   C1521836   3.078   5.020   7.200  0.4897  0.1431  0.0847
  190SAPI    H521837   3.005   4.942   7.230  0.4815  0.3654  0.6523
  190SAPI    O521838   3.167   5.039   7.317 -0.2808 -0.2259  0.4381
  190SAPI   HO521839   3.215   5.120   7.296 -3.7219  1.8217 -0.2366
  190SAPI   C1621840   3.141   4.955   7.075 -0.5711  0.3235  0.6270
  190SAPI    H621841   3.237   5.008   7.060 -0.2426 -0.5967 -0.7227
  190SAPI    O621842   3.180   4.819   7.099  0.3858  0.2718 -0.4893
  190SAPI   HO621843   3.275   4.804   7.104  0.2113 -0.7837 -0.0837
  190SAPI   C1121844   3.065   4.969   6.940 -0.3562 -0.8875 -0.5136
  190SAPI    H121845   2.978   4.900   6.952 -0.8578 -0.3834 -1.1524
  190SAPI     P21846   3.075   4.872   6.687  0.2734  0.1309 -0.2853
  190SAPI   O1321847   2.925   4.891   6.693 -0.4291 -0.3142  0.4836
  190SAPI   O1421848   3.131   4.736   6.665 -0.2016  0.0511  0.2809
  190SAPI   O1221849   3.141   4.929   6.827  0.1079  0.7280 -0.8145
  190SAPI   O1121850   3.134   4.964   6.571  0.7094  0.0489  0.7565
  190SAPI    C121851   3.074   5.096   6.572  0.6394 -0.2136  0.3837
  190SAPI    HA21852   2.969   5.099   6.608  0.0373 -0.5859 -1.2505
  190SAPI    HB21853   3.129   5.156   6.647 -0.6390 -1.0115  2.0377
  190SAPI    C221854   3.073   5.175   6.440 -0.3884 -0.6306 -0.0642
  190SAPI    HS21855   2.990   5.249   6.444  0.1442  0.0053 -0.6199
  190SAPI   O2121856   3.050   5.087   6.333 -0.2705 -0.7523  0.7382
  190SAPI   C2121857   2.932   5.032   6.316 -0.1719  0.1369 -0.1105
  190SAPI   O2221858   2.826   5.077   6.363 -0.3640 -0.5534  0.2215
  190SAPI   C2221859   2.944   4.895   6.254  0.9828  0.0007 -0.1509
  190SAPI   H2R21860   3.037   4.887   6.194  0.3559 -2.0218 -0.9604
  190SAPI   H2S21861   2.938   4.823   6.339 -0.2781 -1.1926 -1.2021
  190SAPI    C321862   3.210   5.251   6.425  0.1956  0.5193  0.0053
  190SAPI    HX21863   3.293   5.184   6.453 -0.3045  0.4487  1.3799
  190SAPI    HY21864   3.231   5.333   6.497  2.6495  1.4375 -1.6101
  190SAPI   O3121865   3.219   5.305   6.296 -0.1411 -0.9311 -0.2697
  190SAPI   C3121866   3.272   5.222   6.209 -0.1037  0.0468 -0.4358
  190SAPI   O3221867   3.335   5.121   6.232 -0.3399 -0.3056  0.3305
  190SAPI   C3221868   3.256   5.273   6.067 -0.4654  0.4257 -0.3049
  190SAPI   H2X21869   3.345   5.330   6.034  0.5004 -0.7433  0.1981
  190SAPI   H2Y21870   3.168   5.341   6.063 -0.6122  0.1988 -1.2739
  190SAPI   C2321871   2.815   4.871   6.176  0.0463  0.2316 -0.1375
  190SAPI   H3R21872   2.726   4.879   6.243  0.2410 -0.1630  0.1745
  190SAPI   H3S21873   2.825   4.768   6.136  1.8115 -0.0767  1.0010
  190SAPI   C2421874   2.785   4.966   6.060  0.3121 -0.9489 -0.1963
  190SAPI   H4R21875   2.864   4.953   5.982  2.1016  1.3560  1.1019
  190SAPI   H4S21876   2.809   5.068   6.097  0.6587 -0.8914 -0.5732
  190SAPI   C2521877   2.647   4.961   5.999 -0.5990  0.2403 -0.0029
  190SAPI   H5R21878   2.568   4.990   6.070  0.3264 -0.9561  1.5815
  190SAPI   C2621879   2.616   4.935   5.873  0.5939  0.4802  0.0643
  190SAPI   H6R21880   2.507   4.936   5.860  0.3211  1.5955  2.1195
  190SAPI   C2721881   2.697   4.909   5.747  0.6373  0.3357  0.3358
  190SAPI   H7R21882   2.802   4.923   5.779  0.9278 -0.4147 -0.2641
  190SAPI   H7S21883   2.678   4.988   5.670 -0.7975 -0.8562 -0.5813
  190SAPI   C2821884   2.674   4.770   5.691 -0.1092 -0.5127  0.5488
  190SAPI   H8R21885   2.691   4.682   5.754  0.5364 -0.3733  0.5795
  190SAPI   C2921886   2.651   4.743   5.563  0.1456  0.0274  0.1222
  190SAPI   H9R21887   2.641   4.640   5.525  1.6783 -0.5642  1.2528
  190SAPI  C21021888   2.618   4.843   5.452  0.6111  0.2374 -0.6567
  190SAPI  H10R21889   2.565   4.930   5.497  0.4320 -1.5124  2.8584
  190SAPI  H10S21890   2.547   4.798   5.380  1.2991 -0.0595 -1.1619
  190SAPI  C21121891   2.737   4.898   5.374 -0.0721  0.6302  0.3676
  190SAPI  H11R21892   2.837   4.872   5.409 -1.0488 -2.0377  1.3863
  190SAPI  C21221893   2.714   4.943   5.246  0.3486 -1.0191 -1.0046
  190SAPI  H12R21894   2.801   4.970   5.185  0.6101  1.5640  0.3613
  190SAPI  C21321895   2.584   4.962   5.183  0.1620 -0.1293  0.8313
  190SAPI  H13R21896   2.574   5.071   5.166  2.6922 -0.3044 -3.0660
  190SAPI  H13S21897   2.500   4.933   5.250  0.6190 -0.5493  1.2308
  190SAPI  C21421898   2.571   4.904   5.045 -0.1414  0.0476 -0.4353
  190SAPI  H14R21899   2.609   4.803   5.026  0.8393 -0.0598  1.8050
  190SAPI  C21521900   2.524   4.974   4.936  0.8845  0.6038 -0.4229
  190SAPI  H15R21901   2.533   4.918   4.842  1.5519 -1.8190  1.0051
  190SAPI  C21621902   2.445   5.100   4.931 -0.3329  0.0699  0.2786
  190SAPI  H16R21903   2.390   5.110   5.027 -2.0927  0.8789 -0.7650
  190SAPI  H16S21904   2.364   5.103   4.855  0.3997  1.0589 -0.4919
  190SAPI  C21721905   2.545   5.223   4.904  0.3672 -0.1975  0.7279
  190SAPI  H17R21906   2.591   5.223   4.803  1.2437  1.3257  1.1077
  190SAPI  H17S21907   2.627   5.209   4.977 -0.0896 -2.2327  0.9090
  190SAPI  C21821908   2.496   5.370   4.925  0.4108  0.5260 -0.4983
  190SAPI  H18R21909   2.582   5.440   4.918 -1.2197  2.7425  0.5404
  190SAPI  H18S21910   2.465   5.375   5.031 -0.5379 -1.0406 -0.6605
  190SAPI  C21921911   2.384   5.422   4.834  0.1712  0.3531  0.2547
  190SAPI  H19R21912   2.341   5.516   4.874  0.2992  0.6380 -0.2679
  190SAPI  H19S21913   2.303   5.346   4.832 -0.6647  1.2347 -0.3288
  190SAPI  C22021914   2.437   5.444   4.693  0.8553 -0.0027 -0.0955
  190SAPI  H20R21915   2.471   5.347   4.649  0.2340 -0.4752  0.4412
  190SAPI  H20S21916   2.517   5.521   4.684 -0.8237  1.6371 -1.7119
  190SAPI  H20T21917   2.345   5.471   4.637  0.9365 -2.8042 -1.7835
  190SAPI   C3321918   3.235   5.161   5.956  0.0312 -0.5490  0.0865
  190SAPI   H3X21919   3.136   5.118   5.983 -1.4925  1.8135 -1.3220
  190SAPI   H3Y21920   3.318   5.091   5.978 -0.0328  0.0621  2.6331
  190SAPI   C3421921   3.230   5.209   5.810  0.0729  0.0375 -0.4196
  190SAPI   H4X21922   3.330   5.239   5.772 -0.9636  3.1546 -0.9426
  190SAPI   H4Y21923   3.166   5.299   5.799 -2.5213 -1.5948  0.4766
  190SAPI   C3521924   3.172   5.103   5.711  0.0404  0.3002  0.2735
  190SAPI   H5X21925   3.070   5.066   5.737 -0.5279  0.5251 -1.4981
  190SAPI   H5Y21926   3.241   5.016   5.714 -0.3733 -0.2159 -2.5409
  190SAPI   C3621927   3.176   5.161   5.571 -0.9205 -0.4527  0.5539
  190SAPI   H6X21928   3.277   5.202   5.553 -1.1268  0.2519  0.9535
  190SAPI   H6Y21929   3.122   5.257   5.561 -0.6451 -0.2556  0.9297
  190SAPI   C3721930   3.128   5.071   5.456 -0.1023 -0.6922 -0.0794
  190SAPI   H7X21931   3.096   5.128   5.366  0.5888 -0.3633 -0.1270
  190SAPI   H7Y21932   3.037   5.017   5.489 -1.3246  0.7614 -0.9173
  190SAPI   C3821933   3.245   4.973   5.425 -0.1397 -0.0185 -0.4801
  190SAPI   H8X21934   3.245   4.899   5.508 -1.2086  0.3373 -0.1507
  190SAPI   H8Y21935   3.339   5.031   5.432  2.0149 -3.2479 -0.5412
  190SAPI   C3921936   3.236   4.913   5.286 -0.5041  0.1146 -0.0987
  190SAPI   H9X21937   3.228   4.995   5.212  2.1716  0.2213 -0.3791
  190SAPI   H9Y21938   3.143   4.854   5.275 -0.3768 -0.1557  0.2465
  190SAPI  C31021939   3.360   4.828   5.240  0.0403  0.0724  0.1121
  190SAPI  H10X21940   3.369   4.741   5.309  2.8032  1.1501  1.2386
  190SAPI  H10Y21941   3.444   4.901   5.248 -0.7716  0.9753  0.6069
  190SAPI  C31121942   3.334   4.779   5.090  0.6667  0.2445  0.0009
  190SAPI  H11X21943   3.317   4.862   5.018  1.4525  0.3284 -0.0903
  190SAPI  H11Y21944   3.245   4.712   5.094 -0.6138  1.9273  1.8231
  190SAPI  C31221945   3.453   4.693   5.038  0.4685  0.1696 -0.1498
  190SAPI  H12X21946   3.430   4.634   4.946  1.6712 -0.6815  0.0805
  190SAPI  H12Y21947   3.469   4.613   5.113  0.9424  1.0438  0.7069
  190SAPI  C31321948   3.581   4.759   4.999 -0.9074 -0.0752  0.0419
  190SAPI  H13X21949   3.611   4.825   5.084 -1.5392  2.8992 -1.8864
  190SAPI  H13Y21950   3.557   4.822   4.911  0.7254 -2.2383 -2.0593
  190SAPI  C31421951   3.696   4.657   4.964  0.3262  0.5645 -0.1680
  190SAPI  H14X21952   3.647   4.608   4.877  0.9765  1.4278 -1.0514
  190SAPI  H14Y21953   3.728   4.594   5.049  1.6803  1.3447 -0.0715
  190SAPI  C31521954   3.825   4.731   4.914  0.3185  0.6065 -1.0675
  190SAPI  H15X21955   3.791   4.807   4.841 -1.5003  0.1604 -0.7605
  190SAPI  H15Y21956   3.880   4.647   4.867 -0.4726  0.1507 -1.2063
  190SAPI  C31621957   3.899   4.794   5.027 -0.4580 -0.2685 -0.6590
  190SAPI  H16X21958   3.922   4.713   5.099  0.1225 -1.1446 -1.7892
  190SAPI  H16Y21959   3.831   4.863   5.080 -1.1395 -0.7784 -0.8548
  190SAPI  C31721960   4.035   4.852   4.979  0.3960  0.3781 -0.7897
  190SAPI  H17X21961   4.084   4.767   4.927  0.1066 -0.6335  0.5375
  190SAPI  H17Y21962   4.103   4.896   5.055  2.0301  0.9307 -2.4657
  190SAPI  C31821963   4.022   4.985   4.891  0.0019  0.2092  0.0998
  190SAPI  H18X21964   3.946   4.967   4.812 -0.3042  1.5524  0.0755
  190SAPI  H18Y21965   4.125   5.012   4.860  0.3300  2.8077  2.9985
  190SAPI  H18Z21966   3.977   5.069   4.948 -2.3739 -0.9681  0.0873
  191SAPI   C1221967   6.145   3.166   2.352  0.7113 -0.8716  1.6293
  191SAPI    H221968   6.072   3.190   2.433 -1.5031  1.8297 -0.9578
  191SAPI    O221969   6.144   3.282   2.264  0.1126 -0.3604 -0.1247
  191SAPI   HO221970   6.055   3.314   2.249  0.5159  0.5991 -0.5481
  191SAPI   C1321971   6.278   3.138   2.416  0.2446 -0.7885 -0.4216
  191SAPI    H321972   6.275   3.047   2.480  0.5797 -0.2207  0.4073
  191SAPI    O321973   6.316   3.246   2.499  0.0017 -0.2640  0.5852
  191SAPI   HO321974   6.332   3.327   2.450  0.7385 -1.7928 -1.8661
  191SAPI   C1421975   6.378   3.124   2.303  0.0579 -0.3063 -0.2472
  191SAPI    H421976   6.384   3.218   2.245  0.6743  0.4407  0.9860
  191SAPI    O421977   6.499   3.099   2.360 -0.8154 -1.1177 -0.1469
  191SAPI   HO421978   6.530   3.185   2.391 -2.5188  0.2013 -1.9275
  191SAPI   C1521979   6.341   3.010   2.221 -0.3728  0.3891  0.1372
  191SAPI    H521980   6.354   2.921   2.286  0.3516  0.4265  0.0462
  191SAPI    O521981   6.423   2.994   2.106  0.1954  0.0946  0.6482
  191SAPI   HO521982   6.502   2.957   2.147 -0.1771  0.8183  2.0825
  191SAPI   C1621983   6.195   3.001   2.177  0.0635  0.5570 -0.4315
  191SAPI    H621984   6.181   3.073   2.093  1.1004 -1.8263 -2.8193
  191SAPI    O621985   6.148   2.872   2.127 -0.1369  0.3846  0.3727
  191SAPI   HO621986   6.061   2.873   2.167 -0.3277 -0.3187 -0.0191
  191SAPI   C1121987   6.096   3.044   2.285  0.1934  0.0782  0.1786
  191SAPI    H121988   6.084   2.971   2.368  0.0761  1.4437  1.4015
  191SAPI     P21989   5.831   2.999   2.251 -0.1332 -0.1366  0.5519
  191SAPI   O1321990   5.836   2.855   2.225  0.6304 -0.0946 -0.0353
  191SAPI   O1421991   5.729   3.074   2.173 -0.0754  0.5597  0.2912
  191SAPI   O1221992   5.974   3.074   2.213 -0.8497  0.2719 -0.5231
  191SAPI   O1121993   5.830   3.035   2.402  0.2611  0.4453  0.2623
  191SAPI    C121994   5.800   3.163   2.458 -0.0677  0.0214  0.4665
  191SAPI    HA21995   5.893   3.197   2.508  1.3538  0.1752 -2.1598
  191SAPI    HB21996   5.785   3.241   2.380 -0.6886  1.6808  2.1538
  191SAPI    C221997   5.666   3.166   2.545  0.7571  0.8643 -0.3118
  191SAPI    HS21998   5.629   3.271   2.554 -1.3721  0.2500 -1.2275
  191SAPI   O2121999   5.687   3.100   2.672  0.1744  0.1061  0.2036
  191SAPI   C2122000   5.763   3.171   2.750  0.4868 -0.7480  0.1855
  191SAPI   O2222001   5.806   3.285   2.730 -0.1479  0.5775 -0.9247
  191SAPI   C2222002   5.774   3.090   2.875  0.4763  0.5563 -0.4188
  191SAPI   H2R22003   5.669   3.059   2.893  0.6731  0.8249  1.3548
  191SAPI   H2S22004   5.832   2.999   2.850  0.0313  0.2042 -0.1852
  191SAPI    C322005   5.549   3.088   2.480 -0.4991  0.2604  0.3949
  191SAPI    HX22006   5.582   2.982   2.478 -0.7769  0.1679 -1.7383
  191SAPI    HY22007   5.534   3.117   2.373 -1.5402 -0.8391  0.2259
  191SAPI   O3122008   5.421   3.093   2.550 -0.6349 -0.0199 -0.1998
  191SAPI   C3122009   5.383   3.209   2.599 -0.1557  0.7002 -0.0316
  191SAPI   O3222010   5.415   3.322   2.569  0.7401 -0.2063 -0.3919
  191SAPI   C3222011   5.277   3.189   2.711  0.3161 -0.0284  0.7599
  191SAPI   H2X22012   5.281   3.082   2.743 -0.3040 -0.3298 -0.1129
  191SAPI   H2Y22013   5.183   3.196   2.653 -0.3997  0.8137  1.9881
  191SAPI   C2322014   5.831   3.171   2.994  0.1594  0.2296  0.4040
  191SAPI   H3R22015   5.769   3.263   2.996 -1.7781 -0.9986 -0.6273
  191SAPI   H3S22016   5.936   3.201   2.971  0.0302  0.0565 -0.4759
  191SAPI   C2422017   5.831   3.094   3.124  0.4017 -0.1048 -0.6173
  191SAPI   H4R22018   5.729   3.050   3.128 -0.0203  0.9689  1.5492
  191SAPI   H4S22019   5.820   3.163   3.210 -1.1188 -1.8238  0.6421
  191SAPI   C2522020   5.941   2.997   3.128 -0.2488  0.0575  0.6135
  191SAPI   H5R22021   5.913   2.903   3.077  1.1113 -1.5044  2.5948
  191SAPI   C2622022   6.057   3.004   3.195  0.2207 -0.2336 -0.1499
  191SAPI   H6R22023   6.127   2.919   3.192  0.7160  0.1722 -2.8906
  191SAPI   C2722024   6.105   3.129   3.261 -0.0424  0.0602  0.2915
  191SAPI   H7R22025   6.105   3.120   3.371  2.4191  0.7310  0.3955
  191SAPI   H7S22026   6.021   3.200   3.248 -1.2301 -1.4053 -0.3582
  191SAPI   C2822027   6.227   3.195   3.205  0.4910 -0.1959 -0.0306
  191SAPI   H8R22028   6.252   3.192   3.098  1.5563  0.7323  0.1818
  191SAPI   C2922029   6.320   3.264   3.276 -0.3457 -0.5811 -0.5620
  191SAPI   H9R22030   6.396   3.317   3.217 -0.2412 -0.2656 -0.1527
  191SAPI  C21022031   6.318   3.281   3.428  0.5324  0.2160  0.7363
  191SAPI  H10R22032   6.420   3.260   3.469  1.2166  1.9100  0.0066
  191SAPI  H10S22033   6.253   3.210   3.483  0.6136  0.2737  0.9088
  191SAPI  C21122034   6.283   3.429   3.453 -0.1419 -0.8259 -0.6139
  191SAPI  H11R22035   6.222   3.474   3.374  0.2681 -3.4734 -2.5850
  191SAPI  C21222036   6.337   3.515   3.545  0.0634 -0.6009  0.2232
  191SAPI  H12R22037   6.306   3.620   3.543  2.3470  0.1119 -1.1140
  191SAPI  C21322038   6.428   3.476   3.658 -0.0000  1.1672  0.5893
  191SAPI  H13R22039   6.440   3.365   3.662  1.5127  1.2815  0.1191
  191SAPI  H13S22040   6.386   3.512   3.754  0.9944  2.6743  0.5000
  191SAPI  C21422041   6.564   3.534   3.640  0.1884 -0.0666 -0.2951
  191SAPI  H14R22042   6.580   3.585   3.544  0.6711 -1.1548 -0.8101
  191SAPI  C21522043   6.659   3.523   3.735 -0.4558  0.4305 -0.3974
  191SAPI  H15R22044   6.754   3.568   3.701  0.3469  0.2550  1.5297
  191SAPI  C21622045   6.660   3.456   3.874  0.8054  0.3191  0.4192
  191SAPI  H16R22046   6.732   3.372   3.879  0.5722  0.1746  1.8091
  191SAPI  H16S22047   6.554   3.426   3.891  0.1119 -0.5348 -4.1382
  191SAPI  C21722048   6.698   3.563   3.984 -0.2847  0.3639 -0.3626
  191SAPI  H17R22049   6.629   3.649   3.999  1.2122  1.5079  0.1939
  191SAPI  H17S22050   6.798   3.598   3.952  0.2788 -1.4802 -0.7172
  191SAPI  C21822051   6.717   3.479   4.114  0.5498 -0.3859 -0.1265
  191SAPI  H18R22052   6.802   3.409   4.101  3.1029  2.5248 -0.1824
  191SAPI  H18S22053   6.620   3.429   4.137  0.6641 -1.1723 -1.2254
  191SAPI  C21922054   6.744   3.574   4.228 -0.9705  0.1717 -0.3907
  191SAPI  H19R22055   6.674   3.658   4.243 -1.6855 -0.7957  2.1817
  191SAPI  H19S22056   6.841   3.626   4.210 -0.4610 -0.0131  1.5124
  191SAPI  C22022057   6.755   3.513   4.370 -0.8315 -0.7712 -0.0877
  191SAPI  H20R22058   6.663   3.468   4.413 -2.3834  4.0068  2.4313
  191SAPI  H20S22059   6.797   3.591   4.437  3.7890  0.2760 -3.6795
  191SAPI  H20T22060   6.841   3.443   4.373  1.2218  1.6463  1.4849
  191SAPI   C3322061   5.302   3.281   2.834 -0.5743 -0.0765  0.4039
  191SAPI   H3X22062   5.209   3.276   2.894  1.0130 -0.7299  2.9420
  191SAPI   H3Y22063   5.324   3.388   2.810  2.2326 -0.1535  2.1943
  191SAPI   C3422064   5.417   3.234   2.918  0.7557  0.6511 -0.2647
  191SAPI   H4X22065   5.502   3.211   2.851  0.6015  0.8256 -0.5231
  191SAPI   H4Y22066   5.390   3.134   2.959  1.9610  0.7167  0.7534
  191SAPI   C3522067   5.470   3.327   3.024  0.2631  0.1872 -0.2227
  191SAPI   H5X22068   5.391   3.401   3.049 -0.3293 -0.9375  1.4625
  191SAPI   H5Y22069   5.561   3.377   2.984  0.3755  1.1275  1.1458
  191SAPI   C3622070   5.499   3.254   3.159 -0.4464  0.1740 -0.0098
  191SAPI   H6X22071   5.562   3.167   3.133  0.7402  1.8851 -3.4275
  191SAPI   H6Y22072   5.399   3.218   3.193 -1.6586  3.1421 -0.0342
  191SAPI   C3722073   5.550   3.350   3.264  0.8219 -0.0296 -0.1077
  191SAPI   H7X22074   5.490   3.443   3.263  2.0978  0.8390  0.4594
  191SAPI   H7Y22075   5.654   3.369   3.229  1.5044 -2.6830  0.2577
  191SAPI   C3822076   5.529   3.299   3.405 -0.6033  0.2144  0.0322
  191SAPI   H8X22077   5.584   3.203   3.419 -0.9729 -0.2001 -1.2273
  191SAPI   H8Y22078   5.420   3.283   3.424 -0.9791  1.9080 -0.5618
  191SAPI   C3922079   5.589   3.394   3.508 -0.2950 -0.1927 -0.1260
  191SAPI   H9X22080   5.536   3.491   3.504 -0.9331 -0.4969  0.7084
  191SAPI   H9Y22081   5.691   3.409   3.466 -1.2862  2.6064 -1.8181
  191SAPI  C31022082   5.584   3.350   3.658  0.2308 -0.2245 -0.3553
  191SAPI  H10X22083   5.615   3.435   3.722 -1.5589 -1.2092  1.9455
  191SAPI  H10Y22084   5.654   3.263   3.664 -0.4451 -0.6769  2.5582
  191SAPI  C31122085   5.445   3.310   3.693  0.2397 -0.0033  0.1285
  191SAPI  H11X22086   5.428   3.203   3.666 -1.8211  0.8810 -2.3387
  191SAPI  H11Y22087   5.368   3.378   3.651 -0.1178 -0.3782  0.1672
  191SAPI  C31222088   5.414   3.326   3.849 -0.7873 -0.0672 -0.0414
  191SAPI  H12X22089   5.306   3.314   3.872 -0.5977  1.2002  1.7056
  191SAPI  H12Y22090   5.431   3.435   3.863  0.3549 -0.1157 -0.8968
  191SAPI  C31322091   5.501   3.257   3.954 -0.1139 -0.3464  0.1188
  191SAPI  H13X22092   5.604   3.296   3.938  0.0299 -0.2281  1.3021
  191SAPI  H13Y22093   5.513   3.148   3.938 -1.3750 -0.4410 -0.3302
  191SAPI  C31422094   5.465   3.281   4.101 -0.6441  0.4168 -0.0456
  191SAPI  H14X22095   5.392   3.199   4.116 -1.8800  0.7828 -3.4115
  191SAPI  H14Y22096   5.420   3.379   4.128 -0.1178  0.7867 -0.4967
  191SAPI  C31522097   5.589   3.270   4.184  0.1333  0.3767  0.0748
  191SAPI  H15X22098   5.656   3.351   4.150 -0.4904  0.3676 -1.2521
  191SAPI  H15Y22099   5.640   3.178   4.149 -0.4654  0.2716 -0.5474
  191SAPI  C31622100   5.583   3.273   4.340 -0.0903  0.5971  0.5980
  191SAPI  H16X22101   5.552   3.373   4.378  2.0894  1.7108 -0.3988
  191SAPI  H16Y22102   5.691   3.261   4.362  0.0064  0.7815  0.2381
  191SAPI  C31722103   5.501   3.154   4.396 -0.1563 -1.0152 -0.1753
  191SAPI  H17X22104   5.550   3.059   4.366 -0.3930 -1.0367 -0.5032
  191SAPI  H17Y22105   5.397   3.138   4.361  0.9804 -4.6139 -2.3532
  191SAPI  C31822106   5.496   3.159   4.547 -0.4893 -0.9969 -0.2410
  191SAPI  H18X22107   5.466   3.263   4.572  0.5020 -0.9833  0.9894
  191SAPI  H18Y22108   5.600   3.151   4.584 -0.0067 -0.3462 -1.3957
  191SAPI  H18Z22109   5.432   3.082   4.595 -0.6242 -0.7338 -0.0019
  192SAPI   C1222110   0.433   2.270   2.223  0.7942 -0.2098 -0.1474
  192SAPI    H222111   0.533   2.271   2.176  1.2705 -2.0676  0.7404
  192SAPI    O222112   0.335   2.297   2.131 -0.1308  0.0385 -0.5141
  192SAPI   HO222113   0.367   2.363   2.069 -0.0984  2.3959  1.8561
  192SAPI   C1322114   0.410   2.125   2.280  0.3286 -0.5696  0.2487
  192SAPI    H322115   0.498   2.102   2.343 -0.4816  0.7255  1.9349
  192SAPI    O322116   0.412   2.038   2.171  0.3520 -0.0105  0.4028
  192SAPI   HO322117   0.343   2.063   2.109 -1.2812  2.6945  3.0639
  192SAPI   C1422118   0.281   2.120   2.361 -0.1253  0.9913  1.6887
  192SAPI    H422119   0.208   2.126   2.278  2.0018 -2.5258 -0.7191
  192SAPI    O422120   0.274   1.993   2.425  0.1750 -0.2835 -0.0638
  192SAPI   HO422121   0.231   1.928   2.370 -2.0295  0.5485  0.5631
  192SAPI   C1522122   0.246   2.239   2.448 -0.2720 -0.2455  0.1681
  192SAPI    H522123   0.293   2.214   2.546  0.1363  1.4950  0.4391
  192SAPI    O522124   0.114   2.258   2.485  0.0216 -0.1663  0.1325
  192SAPI   HO522125   0.086   2.181   2.534  0.1572 -1.7376 -2.1061
  192SAPI   C1622126   0.307   2.377   2.419  0.2080  0.0323 -0.1561
  192SAPI    H622127   0.227   2.435   2.370 -0.8827 -0.7817  0.5921
  192SAPI    O622128   0.328   2.451   2.538  0.5558  0.3244 -0.4630
  192SAPI   HO622129   0.256   2.514   2.549  0.1846  0.1048 -1.5412
  192SAPI   C1122130   0.428   2.378   2.330  0.5369  0.5452  0.7103
  192SAPI    H122131   0.510   2.353   2.400  0.8195 -1.9114 -0.3990
  192SAPI     P22132   0.599   2.574   2.255 -0.1478 -0.0214 -0.2425
  192SAPI   O1322133   0.588   2.687   2.164 -0.3037 -0.4648  0.0821
  192SAPI   O1422134   0.713   2.484   2.226  0.3739  0.7420  0.2388
  192SAPI   O1222135   0.450   2.502   2.267 -0.2404 -0.1499  0.1013
  192SAPI   O1122136   0.627   2.638   2.399  0.3051  0.5056  0.1568
  192SAPI    C122137   0.755   2.713   2.422 -0.4570  0.3846  0.0676
  192SAPI    HA22138   0.843   2.670   2.370 -0.4993  0.9011 -0.4492
  192SAPI    HB22139   0.747   2.818   2.385  1.9953  0.3399 -0.7649
  192SAPI    C222140   0.810   2.700   2.564 -0.6862  0.2342 -0.2965
  192SAPI    HS22141   0.897   2.769   2.564 -1.7475  1.7494 -3.5665
  192SAPI   O2122142   0.835   2.563   2.596 -0.2160 -0.6657 -0.3799
  192SAPI   C2122143   0.956   2.535   2.648 -0.5146  0.3349 -0.2811
  192SAPI   O2222144   1.046   2.616   2.656 -0.1191  0.2303  0.5091
  192SAPI   C2222145   0.958   2.390   2.694  0.7012  0.2430  0.4324
  192SAPI   H2R22146   0.854   2.353   2.698  0.6305  0.4434  0.4430
  192SAPI   H2S22147   1.006   2.338   2.608 -1.0271 -0.5527 -0.1006
  192SAPI    C322148   0.718   2.775   2.669 -0.6289  0.3745  0.6858
  192SAPI    HX22149   0.617   2.728   2.669 -0.0729 -0.8828 -0.2717
  192SAPI    HY22150   0.686   2.874   2.631  0.6390  0.5664  0.0549
  192SAPI   O3122151   0.769   2.769   2.804 -0.0151  0.5610 -0.2885
  192SAPI   C3122152   0.834   2.876   2.839 -0.6106  0.2417 -0.5148
  192SAPI   O3222153   0.833   2.987   2.787  0.0629 -0.6262 -0.3607
  192SAPI   C3222154   0.877   2.852   2.982 -0.6220 -0.2096  0.1596
  192SAPI   H2X22155   0.937   2.758   2.982  2.4565  1.5938 -0.3943
  192SAPI   H2Y22156   0.783   2.829   3.035  0.2751  0.0421  1.9289
  192SAPI   C2322157   1.036   2.380   2.826 -0.6837  0.5356 -0.5773
  192SAPI   H3R22158   1.141   2.414   2.809 -0.1436 -0.9817 -0.4632
  192SAPI   H3S22159   1.041   2.272   2.850 -0.5224  0.6813  0.0496
  192SAPI   C2422160   0.964   2.439   2.954  0.2324 -0.2827  0.3491
  192SAPI   H4R22161   0.874   2.377   2.973 -0.2869  0.1845 -0.4899
  192SAPI   H4S22162   0.934   2.545   2.936  1.3730  0.1923  1.1372
  192SAPI   C2522163   1.053   2.453   3.072 -0.1794  0.1063  0.0636
  192SAPI   H5R22164   1.108   2.548   3.071  0.1365 -0.0607 -1.8974
  192SAPI   C2622165   1.046   2.371   3.180  0.3251 -0.5466 -0.7468
  192SAPI   H6R22166   1.124   2.368   3.258  0.2854 -2.3641 -0.7496
  192SAPI   C2722167   0.940   2.263   3.199 -0.1180 -0.2107  0.8284
  192SAPI   H7R22168   0.984   2.196   3.276  1.4573 -1.9839 -1.4576
  192SAPI   H7S22169   0.933   2.210   3.101 -2.5734  1.3050  0.0846
  192SAPI   C2822170   0.805   2.310   3.232 -0.1468 -0.1713  0.7768
  192SAPI   H8R22171   0.752   2.352   3.145  2.1238 -1.9053 -1.5602
  192SAPI   C2922172   0.743   2.313   3.354  0.6297  0.9337 -0.4786
  192SAPI   H9R22173   0.639   2.349   3.355 -0.5931 -2.2228  0.9925
  192SAPI  C21022174   0.794   2.252   3.482  0.7255 -0.2786 -0.9400
  192SAPI  H10R22175   0.864   2.322   3.532  0.1058 -0.7512  0.6724
  192SAPI  H10S22176   0.838   2.152   3.463  2.9020  0.7755 -1.6893
  192SAPI  C21122177   0.678   2.235   3.580  0.3243  0.1416 -0.1419
  192SAPI  H11R22178   0.591   2.186   3.534  1.9968 -3.8766  0.4893
  192SAPI  C21222179   0.670   2.256   3.706  0.4186 -0.1075  0.0967
  192SAPI  H12R22180   0.572   2.241   3.753 -0.2945 -2.1362 -1.8348
  192SAPI  C21322181   0.780   2.312   3.791 -0.4382  0.3498 -0.0114
  192SAPI  H13R22182   0.846   2.385   3.739  0.5541  0.4151  1.2600
  192SAPI  H13S22183   0.843   2.226   3.821 -0.9670  0.0294  0.1814
  192SAPI  C21422184   0.730   2.390   3.913  0.2769 -0.1020  0.2936
  192SAPI  H14R22185   0.622   2.377   3.930  0.7801 -2.3646  2.2476
  192SAPI  C21522186   0.807   2.462   3.999  0.1402 -0.0403  0.3595
  192SAPI  H15R22187   0.761   2.494   4.094  0.7058  0.2136  0.5531
  192SAPI  C21622188   0.960   2.462   3.988 -0.0705  0.0442  0.0941
  192SAPI  H16R22189   0.985   2.483   3.882 -0.8969  2.3559  0.3003
  192SAPI  H16S22190   1.015   2.371   4.019 -1.8886 -1.1336  0.0113
  192SAPI  C21722191   1.008   2.576   4.076 -0.2273  0.1402  0.3638
  192SAPI  H17R22192   1.117   2.575   4.052 -0.1615 -1.2818  0.6516
  192SAPI  H17S22193   0.991   2.554   4.184 -1.0207 -3.7054 -0.3960
  192SAPI  C21822194   0.967   2.721   4.040  0.5675 -0.3771  0.7315
  192SAPI  H18R22195   1.027   2.789   4.104  1.1201 -1.7731  1.7773
  192SAPI  H18S22196   0.859   2.743   4.055  1.0078  1.4783  1.3671
  192SAPI  C21922197   0.999   2.757   3.889  0.3298 -0.4239 -0.2016
  192SAPI  H19R22198   0.959   2.680   3.820  2.7338 -0.8388 -1.2314
  192SAPI  H19S22199   1.109   2.754   3.871  0.5985 -1.0866  1.3486
  192SAPI  C22022200   0.936   2.892   3.851  0.0148  0.2484  0.1159
  192SAPI  H20R22201   0.950   2.926   3.746 -1.4869  1.1761  0.1868
  192SAPI  H20S22202   0.979   2.972   3.915 -0.5925  1.4109 -0.8758
  192SAPI  H20T22203   0.831   2.910   3.882  0.6611  2.8937  1.1032
  192SAPI   C3322204   0.953   2.965   3.051  0.3869 -0.2776  0.0679
  192SAPI   H3X22205   0.898   3.061   3.043  0.7542 -0.1844 -1.9135
  192SAPI   H3Y22206   1.043   2.996   2.993  0.2101  0.2718  0.0782
  192SAPI   C3422207   1.004   2.918   3.189 -0.0156  0.1263  0.0883
  192SAPI   H4X22208   1.048   3.011   3.230 -0.2710  0.5792 -0.6514
  192SAPI   H4Y22209   1.071   2.830   3.178 -0.8845 -1.1430  3.5626
  192SAPI   C3522210   0.891   2.876   3.283 -0.0239 -0.4504  0.3900
  192SAPI   H5X22211   0.873   2.767   3.268 -0.4090 -0.4020  0.4923
  192SAPI   H5Y22212   0.796   2.929   3.263 -1.6586 -2.9709  1.0185
  192SAPI   C3622213   0.941   2.895   3.430 -0.0419  0.6121 -0.6318
  192SAPI   H6X22214   0.858   2.872   3.500  1.1682  1.4918  1.1675
  192SAPI   H6Y22215   0.945   3.005   3.443 -0.2551  0.3159  3.1312
  192SAPI   C3722216   1.072   2.824   3.474  0.4358  0.2393  0.0871
  192SAPI   H7X22217   1.096   2.865   3.574  1.4655  4.0110 -1.5540
  192SAPI   H7Y22218   1.150   2.856   3.401  0.2471  1.8080  0.5399
  192SAPI   C3822219   1.071   2.670   3.488  0.4497 -0.5748 -0.2504
  192SAPI   H8X22220   1.068   2.624   3.387 -1.0039  0.3448 -0.6550
  192SAPI   H8Y22221   0.983   2.632   3.544  1.5399 -0.5581  1.5399
  192SAPI   C3922222   1.191   2.616   3.571 -0.8135  0.1401  0.3508
  192SAPI   H9X22223   1.191   2.668   3.669 -0.9614 -0.6577  0.7816
  192SAPI   H9Y22224   1.274   2.644   3.502 -2.1340  1.6175 -0.7047
  192SAPI  C31022225   1.191   2.463   3.602  0.3605 -0.5404  0.3876
  192SAPI  H10X22226   1.143   2.400   3.525 -0.7389  1.1183 -0.3553
  192SAPI  H10Y22227   1.126   2.451   3.692 -0.7828  1.2515 -0.1345
  192SAPI  C31122228   1.331   2.402   3.631  0.1417 -0.3723 -0.2944
  192SAPI  H11X22229   1.397   2.433   3.548  1.7852  1.4772  1.5729
  192SAPI  H11Y22230   1.318   2.292   3.624  1.0560 -0.5827  0.8904
  192SAPI  C31222231   1.389   2.438   3.764  1.0046  0.0944  0.2288
  192SAPI  H12X22232   1.372   2.547   3.776 -0.7275 -0.0264 -0.8943
  192SAPI  H12Y22233   1.498   2.420   3.753  0.7010 -0.6411 -2.0921
  192SAPI  C31322234   1.356   2.359   3.890 -1.2296  0.0052 -0.6369
  192SAPI  H13X22235   1.350   2.250   3.867 -2.0077 -0.1623  0.3231
  192SAPI  H13Y22236   1.257   2.384   3.931 -1.0890 -1.3310  0.6079
  192SAPI  C31422237   1.472   2.388   3.992 -0.1736  0.0625  0.2964
  192SAPI  H14X22238   1.568   2.342   3.962 -0.8579  0.5803 -3.0237
  192SAPI  H14Y22239   1.436   2.346   4.089  2.5536  1.0926  1.8635
  192SAPI  C31522240   1.490   2.539   4.022  0.7059  0.4034  0.3986
  192SAPI  H15X22241   1.393   2.591   4.007 -0.1177 -1.8696 -3.2476
  192SAPI  H15Y22242   1.567   2.591   3.960  1.9530 -1.7449  0.0255
  192SAPI  C31622243   1.524   2.566   4.165 -0.0214  0.0528  0.0357
  192SAPI  H16X22244   1.624   2.527   4.193 -0.5949  0.0197  2.1802
  192SAPI  H16Y22245   1.447   2.514   4.226  1.6395 -0.3635  1.8651
  192SAPI  C31722246   1.537   2.709   4.201  0.3403 -0.3732 -0.2620
  192SAPI  H17X22247   1.447   2.760   4.161 -0.3838 -0.2507  1.4681
  192SAPI  H17Y22248   1.623   2.759   4.151 -1.7967  1.8900 -1.9423
  192SAPI  C31822249   1.559   2.744   4.348 -0.2292 -0.4889  0.4037
  192SAPI  H18X22250   1.477   2.699   4.409 -1.4301  0.4640 -0.4623
  192SAPI  H18Y22251   1.578   2.852   4.363  2.1858 -0.9374  0.9127
  192SAPI  H18Z22252   1.652   2.691   4.376  1.0233  0.1592 -2.2540
  193SOD    SOD22253   2.274   2.866   8.370  0.1418 -0.3313 -0.3789
  194SOD    SOD22254   6.772   6.585   7.905 -0.4264 -0.1896 -0.4707
  195SOD    SOD22255   4.750   4.551   2.759  0.0948 -0.3715  0.2272
  196SOD    SOD22256   3.924   3.804   7.375  0.5628 -0.1260  0.3396
  197SOD    SOD22257   6.427   1.308   2.408 -0.1269 -0.2864  0.4282
  198SOD    SOD22258   3.208   2.561   2.019 -0.0004  0.0132  0.0562
  199SOD    SOD22259   2.223   6.085   0.822  0.0809  0.2411 -0.3892
  200SOD    SOD22260   5.811   6.664   0.682 -0.7263  0.3038  0.0721
  201SOD    SOD22261   2.194   0.344   1.381 -0.0499 -0.2254  0.1561
  202SOD    SOD22262   3.475   6.134   1.296 -0.0801  0.0440  0.3097
  203SOD    SOD22263   6.629   5.841   2.612  0.0472  0.0482  0.0335
  204SOD    SOD22264   4.641   2.507   1.677  0.6788  0.5791  0.3061
  205SOD    SOD22265   2.795   2.393   8.202  0.6200 -0.2024 -0.2843
  206SOD    SOD22266   5.821   6.123   8.595 -0.0255 -0.6975 -0.0715
  207SOD    SOD22267   0.308   1.196   2.596 -0.2317  0.6089 -0.0006
  208SOD    SOD22268   5.650   1.861   1.769 -0.0390  0.3647 -0.4250
  209SOD    SOD22269   1.530   1.649   7.461  0.3120 -0.1194  0.5327
  210SOD    SOD22270   0.511   6.462   8.283 -0.1033  0.4917  0.0320
  211SOD    SOD22271   1.926   2.782   7.098  0.0335  0.1322 -0.0418
  212SOD    SOD22272   4.168   6.731   6.927  0.3355 -0.4326  0.2338
  213SOD    SOD22273   0.243   0.046   7.597  0.3329 -0.0696 -0.2906
  214SOD    SOD22274   5.680   5.830   2.311 -0.3518  0.6948  0.3306
  215SOD    SOD22275   3.764   2.899   7.490  0.2744 -0.1947  0.2836
  216SOD    SOD22276   6.674   1.597   0.238 -0.1330  0.0538  0.7365
  217SOD    SOD22277   2.520   5.131   7.432  0.1045  0.4611  0.1575
  218SOD    SOD22278   4.464   2.093   8.035  0.4264 -0.0673 -0.2259
  219SOD    SOD22279   1.448   4.154   7.805 -0.0067 -0.5082  0.1876
  220SOD    SOD22280   4.207   4.886   2.131  0.2500 -0.2931 -0.2826
  221SOD    SOD22281   5.439   6.754   0.118 -0.5051 -0.1908  0.2743
  222SOD    SOD22282   6.767   5.531   1.459  0.0527  0.1157 -0.2111
  223SOD    SOD22283   1.816   6.398   2.718  0.3566 -0.3793  0.3259
  224SOD    SOD22284   2.288   1.837   6.733  0.0642 -0.3338  0.2222
  225SOD    SOD22285   6.355   1.519   7.075 -0.2254  0.5581 -0.2805
  226SOD    SOD22286   5.950   4.047   1.033 -0.6270 -0.0457  0.1697
  227SOD    SOD22287   0.657   1.714   1.492 -0.6274 -0.3650  0.2485
  228SOD    SOD22288   1.163   1.105   6.995  0.2865 -0.3698  0.2310
  229SOD    SOD22289   4.711   1.375   6.938  0.3948 -0.1041 -0.2343
  230SOD    SOD22290   6.159   2.817   0.047 -0.3543 -0.4800 -0.2533
  231SOD    SOD22291   5.799   4.485   2.818  0.3073  0.2904  0.2367
  232SOD    SOD22292   4.768   5.229   1.564 -0.0327  0.0904 -0.1652
  233SOD    SOD22293   2.670   4.488   1.505 -0.1934 -0.0232 -0.3213
  234CLA    CLA22294   1.348   3.646   8.295  0.4648  0.2963  0.0127
  235CLA    CLA22295   6.226   5.064   1.727 -0.0473  0.3390  0.0295
  236CLA    CLA22296   2.542   2.420   1.685 -0.2600 -0.2674  0.3470
  237CLA    CLA22297   2.282   3.493   0.411 -0.2796 -0.2414  0.2429
  238CLA    CLA22298   4.435   4.347   8.121 -0.4476 -0.4122  0.0412
  239CLA    CLA22299   0.320   1.740   1.949  0.2870 -0.2180 -0.0780
  240CLA    CLA22300   0.461   0.067   8.045 -0.0531  0.1310  0.0806
  241CLA    CLA22301   5.600   1.934   7.690  0.0417  0.0077  0.2528
  242CLA    CLA22302   0.068   6.404   1.576 -0.0664 -0.2148  0.3558
  243CLA    CLA22303   2.505   5.082   1.294 -0.1215  0.1687  0.0325
  244CLA    CLA22304   5.700   6.347   8.495  0.3285 -0.2137  0.3360
  245CLA    CLA22305   6.333   0.113   7.290 -0.2988  0.1873  0.0634
  246CLA    CLA22306   6.567   1.016   8.647  0.0684  0.1372 -0.0276
  247CLA    CLA22307   2.835   2.596   7.488  0.0797 -0.1017  0.3178
  248CLA    CLA22308   3.376   3.457   8.229  0.1534  0.3389 -0.0308
  249CLA    CLA22309   3.343   6.859   0.325 -0.1933  0.0429  0.1007
  250CLA    CLA22310   4.757   0.275   1.240 -0.1647 -0.1849  0.0823
  251TIP3   OH222311   0.981   4.737   6.588 -0.1165 -0.3475  0.6419
  251TIP3    H122312   1.048   4.805   6.596 -0.5074  0.5598 -2.3863
  251TIP3    H222313   0.938   4.735   6.673  0.4245  2.6718  1.0801
  252TIP3   OH222314   4.954   3.231   7.518  0.1018  0.0089 -0.0080
  252TIP3    H122315   4.951   3.316   7.475  1.8357  0.2673  0.3148
  252TIP3    H222316   4.997   3.247   7.602  1.8442 -1.3815 -0.5500
  253TIP3   OH222317   1.301   5.287   0.949 -0.2379 -0.5405  0.0102
  253TIP3    H122318   1.387   5.276   0.991  1.0326 -0.2381 -2.3463
  253TIP3    H222319   1.289   5.382   0.943  0.4176 -0.5253 -1.7372
  254TIP3   OH222320   1.516   3.252   1.195  0.2133 -0.0692  0.3556
  254TIP3    H122321   1.531   3.329   1.141 -1.0100  0.0525  0.1527
  254TIP3    H222322   1.603   3.220   1.217  0.7359  1.2617  0.2847
  255TIP3   OH222323   2.342   3.907   1.494  0.3317  0.3729  0.0030
  255TIP3    H122324   2.329   3.866   1.580  1.3216 -0.3948 -0.1859
  255TIP3    H222325   2.254   3.915   1.458 -0.0549  0.2294  0.8784
  256TIP3   OH222326   1.772   4.411   0.880 -0.1877  0.8493 -0.3757
  256TIP3    H122327   1.813   4.472   0.942 -0.1730  0.2418  0.2160
  256TIP3    H222328   1.679   4.416   0.900  0.0613 -2.2089  2.4254
  257TIP3   OH222329   5.317   0.404   0.417  0.2731  0.1104  0.3735
  257TIP3    H122330   5.351   0.493   0.426  0.1173  0.2127 -0.0370
  257TIP3    H222331   5.226   0.410   0.444 -1.2120  1.1173 -4.0132
  258TIP3   OH222332   3.507   0.116   7.473  0.5983 -0.4449 -0.1133
  258TIP3    H122333   3.463   0.036   7.501  3.5389 -2.1574  0.0320
  258TIP3    H222334   3.508   0.172   7.550 -0.9657 -0.4846 -0.0400
  259TIP3   OH222335   1.441   2.944   7.665  0.1380 -0.1060  0.3472
  259TIP3    H122336   1.387   3.006   7.616 -0.8587  0.5087  2.1501
  259TIP3    H222337   1.523   2.940   7.616 -0.5339  1.0326 -0.9440
  260TIP3   OH222338   4.505   0.267   0.449 -0.4013 -0.1509  0.3986
  260TIP3    H122339   4.476   0.176   0.443 -0.8596  0.0678 -0.8405
  260TIP3    H222340   4.461   0.312   0.377 -0.2066  1.0659  1.0073
  261TIP3   OH222341   6.026   6.290   2.174 -0.3602  0.0658  0.3581
  261TIP3    H122342   5.950   6.243   2.138 -0.2140  0.6918 -0.8000
  261TIP3    H222343   6.052   6.351   2.105 -0.0048  1.2441  1.4944
  262TIP3   OH222344   4.074   4.718   2.520  0.1532 -0.3684  0.0121
  262TIP3    H122345   4.100   4.739   2.431  0.6467 -1.7576 -0.2093
  262TIP3    H222346   4.151   4.738   2.573  0.3985 -0.9706 -0.1065
  263TIP3   OH222347   5.705   0.717   0.342 -0.4420 -0.2515  0.1023
  263TIP3    H122348   5.723   0.768   0.262  1.8210 -0.0911  0.6679
  263TIP3    H222349   5.703   0.783   0.412  0.1984 -0.6660  0.5196
  264TIP3   OH222350   5.222   5.886   8.289  0.2744 -0.9945 -0.1865
  264TIP3    H122351   5.187   5.800   8.265 -1.3070 -0.5062  0.2511
  264TIP3    H222352   5.210   5.892   8.384 -1.0874  0.2846 -0.3905
  265TIP3   OH222353   2.362   1.005   0.127  0.0063  0.1526  0.2468
  265TIP3    H122354   2.389   0.985   0.038 -0.1439  0.6340  0.0877
  265TIP3    H222355   2.396   1.093   0.143 -1.3502  0.7249  0.0841
  266TIP3   OH222356   5.476   4.657   0.806  0.3236  0.0661  0.3398
  266TIP3    H122357   5.498   4.567   0.780  1.4746 -0.3638  2.5569
  266TIP3    H222358   5.380   4.657   0.811  0.2934 -0.9499  0.0495
  267TIP3   OH222359   6.273   0.899   1.223 -0.3572 -0.4927 -0.3033
  267TIP3    H122360   6.189   0.903   1.178 -0.9829 -1.2799  0.7598
  267TIP3    H222361   6.266   0.823   1.281  0.5332  0.2974  0.8844
  268TIP3   OH222362   2.164   3.020   8.500 -0.1496 -0.9446 -0.1043
  268TIP3    H122363   2.164   3.005   8.595  0.0156 -0.0161  0.0462
  268TIP3    H222364   2.073   3.044   8.480  0.4191  1.9355  0.3471
  269TIP3   OH222365   1.267   6.842   7.193  0.0227  0.8017  0.2732
  269TIP3    H122366   1.214   6.788   7.251  1.1568 -0.2400  0.3952
  269TIP3    H222367   1.210   6.913   7.167 -1.3283 -0.1195  0.6237
  270TIP3   OH222368   4.041   4.192   1.028  0.1359 -0.3826 -0.3110
  270TIP3    H122369   3.978   4.212   1.098  0.4815 -0.5149  0.0401
  270TIP3    H222370   4.122   4.236   1.054  0.6099 -1.3864 -0.0279
  271TIP3   OH222371   6.790   1.864   0.815 -0.1535 -0.6390  0.2875
  271TIP3    H122372   6.852   1.935   0.802  0.5562 -1.0810  1.1801
  271TIP3    H222373   6.830   1.789   0.772  0.2837 -1.0969  1.4444
  272TIP3   OH222374   0.928   4.815   0.156  0.6422 -0.2775 -0.1260
  272TIP3    H122375   0.990   4.807   0.083  1.4247  0.7986  0.3959
  272TIP3    H222376   0.945   4.902   0.192  1.3887 -1.3579  2.3313
  273TIP3   OH222377   4.313   6.745   1.587  0.2848  0.1387 -0.6907
  273TIP3    H122378   4.364   6.665   1.571  0.0861  0.3017 -2.3523
  273TIP3    H222379   4.365   6.794   1.651  1.7969 -0.1057 -1.6725
  274TIP3   OH222380   3.951   4.456   8.379 -0.2240 -0.2114 -0.9625
  274TIP3    H122381   3.984   4.467   8.468 -0.8996  0.3253 -0.7702
  274TIP3    H222382   4.028   4.436   8.327  0.0890 -1.2446 -0.1417
  275TIP3   OH222383   5.435   3.918   1.547 -0.1893  0.4555  0.1091
  275TIP3    H122384   5.438   3.855   1.619  3.1620  0.6148  0.2985
  275TIP3    H222385   5.461   3.867   1.470 -0.7400  0.9343 -0.4058
  276TIP3   OH222386   4.463   0.425   6.756 -0.1717  0.5097  0.3882
  276TIP3    H122387   4.517   0.455   6.683 -0.3408  0.4019  0.2195
  276TIP3    H222388   4.401   0.496   6.771  1.6361  1.8261  2.2786
  277TIP3   OH222389   1.439   1.105   7.494  0.2264  0.1891  0.7837
  277TIP3    H122390   1.371   1.140   7.552 -1.3717 -0.2817 -0.7172
  277TIP3    H222391   1.437   1.162   7.417  1.3955  0.0202  0.6053
  278TIP3   OH222392   0.279   4.503   7.759  0.0730  0.2259  0.4418
  278TIP3    H122393   0.297   4.527   7.850 -0.8997 -1.5349  1.1477
  278TIP3    H222394   0.207   4.560   7.733 -0.6021 -0.2340  1.2686
  279TIP3   OH222395   0.595   4.479   7.500 -0.1644 -0.0452  0.0444
  279TIP3    H122396   0.592   4.574   7.512 -0.0550  0.2652 -1.9635
  279TIP3    H222397   0.534   4.463   7.428 -0.6130 -1.5881  0.7264
  280TIP3   OH222398   0.360   3.906   6.883  0.4895 -0.4638 -0.2868
  280TIP3    H122399   0.354   3.810   6.875  2.2605 -0.5137 -1.4758
  280TIP3    H222400   0.340   3.938   6.795 -1.0555  0.3650  0.3205
  281TIP3   OH222401   5.374   2.340   7.227 -0.4009  0.1849 -0.1934
  281TIP3    H122402   5.351   2.258   7.271  1.1630 -0.2326 -0.0965
  281TIP3    H222403   5.391   2.314   7.136 -1.0649  0.6165 -0.4508
  282TIP3   OH222404   1.508   6.120   1.133  0.5415  0.1376  0.3036
  282TIP3    H122405   1.463   6.202   1.150  0.4985 -0.2843  2.5752
  282TIP3    H222406   1.474   6.090   1.048  1.2535  2.8423 -1.0321
  283TIP3   OH222407   4.333   6.348   7.699  0.3161  0.6108  0.2073
  283TIP3    H122408   4.296   6.436   7.708 -2.0228 -0.3034  0.2948
  283TIP3    H222409   4.387   6.336   7.777 -0.1755  1.5918  0.7161
  284TIP3   OH222410   4.360   3.199   7.535  0.1942 -0.2713 -0.1694
  284TIP3    H122411   4.286   3.243   7.494  0.9112 -0.6032 -1.9181
  284TIP3    H222412   4.363   3.234   7.624 -0.3742  1.8267 -0.9162
  285TIP3   OH222413   1.899   3.324   6.954  0.0147  0.1577  0.3914
  285TIP3    H122414   1.985   3.312   6.995  0.3808 -0.9928 -0.6552
  285TIP3    H222415   1.868   3.408   6.988  1.7090  0.7661  0.5227
  286TIP3   OH222416   3.868   4.935   0.438  0.2379  0.0535  0.2769
  286TIP3    H122417   3.894   4.856   0.486  0.1879  0.3226  0.7481
  286TIP3    H222418   3.772   4.934   0.440  0.2358  0.0853  0.2131
  287TIP3   OH222419   0.396   1.202   6.489  0.2370 -0.6314 -0.1607
  287TIP3    H122420   0.479   1.250   6.479 -0.0413  0.2160  1.2778
  287TIP3    H222421   0.421   1.110   6.490  1.5042 -0.3519  2.4961
  288TIP3   OH222422   0.652   3.392   1.385  0.4022 -0.4544 -0.0658
  288TIP3    H122423   0.593   3.351   1.447  0.9583  0.0464  0.8121
  288TIP3    H222424   0.595   3.423   1.314 -0.2590 -0.8540  0.2840
  289TIP3   OH222425   1.580   4.752   6.764  0.0070 -0.5496  0.0061
  289TIP3    H122426   1.665   4.781   6.797 -0.8940  0.9643  1.0746
  289TIP3    H222427   1.557   4.817   6.698 -0.2384 -1.0909 -0.4504
  290TIP3   OH222428   3.126   0.851   7.784  0.6303  0.2536 -0.1621
  290TIP3    H122429   3.175   0.840   7.866  1.0370  0.6571 -0.3496
  290TIP3    H222430   3.190   0.834   7.715 -0.0963 -1.7121 -0.4123
  291TIP3   OH222431   1.456   5.053   0.483 -0.2337 -0.2808 -0.1053
  291TIP3    H122432   1.394   4.986   0.455  1.9327 -2.2048 -0.6190
  291TIP3    H222433   1.448   5.054   0.578 -0.7922 -0.8086 -0.1387
  292TIP3   OH222434   0.357   2.763   0.389  0.2462  0.2348  0.3113
  292TIP3    H122435   0.338   2.794   0.301 -0.3653 -0.0396  0.3413
  292TIP3    H222436   0.447   2.789   0.405 -0.1001  1.5787  0.1615
  293TIP3   OH222437   4.394   3.246   1.724  0.4216  0.3295  0.4263
  293TIP3    H122438   4.391   3.159   1.684  0.1559  0.4051  0.2772
  293TIP3    H222439   4.459   3.238   1.794 -0.0195 -0.1528  0.7890
  294TIP3   OH222440   2.354   1.709   0.972 -0.3346  0.2717  0.8753
  294TIP3    H122441   2.402   1.651   0.914  2.4345  1.2761  1.9819
  294TIP3    H222442   2.285   1.654   1.009  0.5618 -1.5675 -0.0529
  295TIP3   OH222443   0.429   5.275   0.566 -0.5028  0.4000 -0.2564
  295TIP3    H122444   0.477   5.296   0.486 -0.6790  1.2337 -0.1494
  295TIP3    H222445   0.407   5.360   0.604 -1.2160  0.0177  0.2033
  296TIP3   OH222446   1.814   2.245   0.853  0.7412  0.1402  0.0211
  296TIP3    H122447   1.754   2.287   0.916 -0.1102 -0.5815 -0.2788
  296TIP3    H222448   1.806   2.151   0.872  0.4306 -0.0929 -1.1838
  297TIP3   OH222449   5.678   3.910   7.242  0.6833 -0.0087 -0.1361
  297TIP3    H122450   5.670   3.851   7.318  1.1828 -0.4809 -0.4458
  297TIP3    H222451   5.771   3.927   7.234  0.5273  0.9732  0.0481
  298TIP3   OH222452   4.121   0.850   1.962 -0.4217  0.2511 -0.5045
  298TIP3    H122453   4.089   0.912   2.027  2.5166  0.6976  0.6827
  298TIP3    H222454   4.197   0.894   1.923 -0.9903 -0.7653 -2.9881
  299TIP3   OH222455   3.766   2.209   1.666  0.4517 -0.8408 -0.5033
  299TIP3    H122456   3.802   2.175   1.748  2.1430 -0.9214 -1.2329
  299TIP3    H222457   3.790   2.301   1.665  1.5155 -1.0968 -1.4104
  300TIP3   OH222458   6.828   6.106   0.873  0.3692  0.3975  0.5780
  300TIP3    H122459   6.748   6.064   0.906  0.1622  1.4404  1.4878
  300TIP3    H222460   6.874   6.134   0.952  0.9802  0.9828  0.0217
  301TIP3   OH222461   3.472   4.330   1.032  0.3253 -0.3626  0.8284
  301TIP3    H122462   3.503   4.410   1.074 -1.3005  0.9411 -0.3443
  301TIP3    H222463   3.462   4.353   0.940 -0.1860 -1.9237  0.4580
  302TIP3   OH222464   0.062   3.195   1.808  0.2632 -0.1049  0.7287
  302TIP3    H122465   0.119   3.268   1.783  0.6562  0.1448  2.2323
  302TIP3    H222466   0.121   3.132   1.850 -0.6116  0.4187  2.8613
  303TIP3   OH222467   6.029   1.791   8.364 -0.0949  0.1208  0.5460
  303TIP3    H122468   6.119   1.771   8.391 -0.1726  0.5884  1.1793
  303TIP3    H222469   6.030   1.781   8.269  1.0051  1.5084  0.3734
  304TIP3   OH222470   3.849   5.265   2.584 -0.4563 -0.4432 -0.5426
  304TIP3    H122471   3.879   5.253   2.674  0.9655 -3.0654 -1.2681
  304TIP3    H222472   3.757   5.239   2.586  0.0527 -2.2995 -0.1647
  305TIP3   OH222473   3.689   5.997   8.656  0.0911 -0.2438 -0.1838
  305TIP3    H122474   3.705   6.037   8.571  1.2424  0.2322  0.2426
  305TIP3    H222475   3.711   5.904   8.644  2.9272  0.2912  0.2572
  306TIP3   OH222476   1.730   1.271   8.361  0.2992 -0.7759 -0.1356
  306TIP3    H122477   1.800   1.322   8.319  0.2494  0.4456  1.1922
  306TIP3    H222478   1.772   1.229   8.436 -0.1119 -1.0705 -0.0698
  307TIP3   OH222479   0.928   1.570   8.613  0.7078 -0.6340  0.1123
  307TIP3    H122480   0.853   1.629   8.609  1.7833  0.8217  0.4553
  307TIP3    H222481   0.982   1.596   8.538  1.8763 -0.2012  1.0766
  308TIP3   OH222482   3.352   2.675   8.014 -0.2988  0.4107 -0.0232
  308TIP3    H122483   3.374   2.679   7.921  1.3557  2.6361  0.3828
  308TIP3    H222484   3.324   2.764   8.035 -0.0849  0.0901  1.7181
  309TIP3   OH222485   0.432   4.060   1.556  0.0535  0.8347  0.0988
  309TIP3    H122486   0.370   3.987   1.554  1.6866 -0.6161  0.3830
  309TIP3    H222487   0.411   4.111   1.477  0.3245 -1.2293 -1.3902
  310TIP3   OH222488   0.037   1.742   1.568  0.5686  0.0909  0.0033
  310TIP3    H122489   0.004   1.777   1.486 -0.0304 -0.6707 -0.0880
  310TIP3    H222490   0.131   1.732   1.554  0.5810  0.6704 -0.3279
  311TIP3   OH222491   0.342   6.122   8.063 -0.4677  0.0831  0.1598
  311TIP3    H122492   0.252   6.106   8.092 -0.0627 -2.4241  0.2967
  311TIP3    H222493   0.337   6.128   7.968 -0.5544 -2.5715 -0.0678
  312TIP3   OH222494   1.720   2.372   6.977 -0.2838  0.0258 -0.2789
  312TIP3    H122495   1.704   2.279   6.995  0.6513  0.1563  1.4794
  312TIP3    H222496   1.681   2.387   6.891 -3.3790 -1.2023  0.7777
  313TIP3   OH222497   4.552   6.076   7.376  0.0289 -0.2478  0.8003
  313TIP3    H122498   4.566   6.040   7.289 -0.4887 -1.3418  1.1532
  313TIP3    H222499   4.518   6.164   7.361  2.0205  0.4220 -0.0761
  314TIP3   OH222500   2.900   1.049   6.958  0.9284 -0.1198 -0.0283
  314TIP3    H122501   2.978   1.064   6.905 -0.1181  0.2245 -1.5305
  314TIP3    H222502   2.834   1.018   6.896 -0.2437 -0.0431  1.1312
  315TIP3   OH222503   5.857   5.685   1.090  0.2062 -0.1491 -0.0054
  315TIP3    H122504   5.834   5.675   1.183 -0.2131 -0.7326 -0.1687
  315TIP3    H222505   5.883   5.777   1.082 -0.0895 -0.0052  0.6179
  316TIP3   OH222506   0.382   5.905   0.403  0.2239 -0.2096  0.4305
  316TIP3    H122507   0.303   5.942   0.442 -0.1528  0.2943 -0.7652
  316TIP3    H222508   0.382   5.938   0.313 -0.2414 -3.2470 -0.7911
  317TIP3   OH222509   1.748   4.038   7.535  0.1726  0.4052 -0.1631
  317TIP3    H122510   1.771   3.977   7.466  1.1073  0.2728  0.2526
  317TIP3    H222511   1.671   4.084   7.502 -0.7718 -1.2396 -0.3281
  318TIP3   OH222512   0.624   3.276   8.271  0.6848  0.3885 -0.1985
  318TIP3    H122513   0.675   3.332   8.330 -1.0345  0.8840  0.8930
  318TIP3    H222514   0.555   3.240   8.326 -0.4849  0.2030 -1.7260
  319TIP3   OH222515   5.419   3.821   2.558 -0.2371  0.0164 -0.1035
  319TIP3    H122516   5.436   3.911   2.530  0.5468 -0.6683 -1.9504
  319TIP3    H222517   5.353   3.830   2.627  0.2224  2.0345  0.1464
  320TIP3   OH222518   5.428   4.211   7.694  0.0735  0.4909 -0.0547
  320TIP3    H122519   5.499   4.177   7.749 -0.0840  2.5850  1.5634
  320TIP3    H222520   5.425   4.151   7.619  3.2944  0.0849  0.0005
  321TIP3   OH222521   3.282   0.848   1.217 -0.0033  0.0327 -0.7078
  321TIP3    H122522   3.289   0.790   1.142 -0.7440 -0.6037 -0.3019
  321TIP3    H222523   3.237   0.796   1.284  1.6163  0.1932  0.5866
  322TIP3   OH222524   0.313   3.510   8.148  0.1425  0.0570 -0.3990
  322TIP3    H122525   0.316   3.536   8.240  1.4054 -0.5934 -0.2352
  322TIP3    H222526   0.267   3.426   8.147 -0.0507  0.1615 -0.3935
  323TIP3   OH222527   2.715   6.314   1.087 -0.8417  0.1948 -0.2045
  323TIP3    H122528   2.627   6.279   1.076 -0.1654 -0.8135 -3.5781
  323TIP3    H222529   2.772   6.239   1.073  0.6215  0.9811  1.1962
  324TIP3   OH222530   2.762   6.046   8.023 -0.2730  0.0828 -0.2943
  324TIP3    H122531   2.692   6.100   7.986 -0.9026  0.3277  1.1867
  324TIP3    H222532   2.738   5.956   7.999 -1.0997  0.1651  0.1747
  325TIP3   OH222533   0.206   5.158   0.731  0.4362  0.7341 -0.0959
  325TIP3    H122534   0.159   5.203   0.661 -1.1629 -0.1090  0.3973
  325TIP3    H222535   0.295   5.194   0.727 -0.0735  1.9325 -1.4418
  326TIP3   OH222536   5.879   1.480   1.203  0.6450 -0.1557  0.6810
  326TIP3    H122537   5.804   1.438   1.245 -0.7743  1.9327  0.3633
  326TIP3    H222538   5.851   1.494   1.112 -0.3999  4.3544  1.4595
  327TIP3   OH222539   5.386   1.654   7.773  0.0349 -0.3275 -0.3557
  327TIP3    H122540   5.453   1.722   7.771 -0.9710  0.7172  0.2522
  327TIP3    H222541   5.381   1.628   7.865 -1.1831  0.4503 -0.1745
  328TIP3   OH222542   3.236   2.500   7.208 -0.4096 -0.7474  0.3040
  328TIP3    H122543   3.310   2.541   7.164 -2.8063  2.0075 -1.4565
  328TIP3    H222544   3.252   2.515   7.301  1.7162 -1.2423  0.0716
  329TIP3   OH222545   6.860   0.844   0.795 -0.4636 -0.0325 -0.2184
  329TIP3    H122546   6.857   0.764   0.743 -0.0257  0.7256 -1.4599
  329TIP3    H222547   6.944   0.885   0.771  0.0010  0.1040  1.4795
  330TIP3   OH222548   6.533   6.654   0.803  0.3726  0.2527  0.1006
  330TIP3    H122549   6.601   6.704   0.758 -1.2440  1.7995 -0.7601
  330TIP3    H222550   6.495   6.600   0.735  0.3097 -0.1239  0.4329
  331TIP3   OH222551   4.839   1.366   0.093 -0.5102  0.2069  0.0793
  331TIP3    H122552   4.919   1.332   0.053  1.1897 -0.2088  3.5009
  331TIP3    H222553   4.776   1.295   0.085  1.2309 -1.6934  2.1089
  332TIP3   OH222554   2.743   4.766   2.275 -0.1397 -0.4694 -0.1923
  332TIP3    H122555   2.805   4.708   2.230  2.0172  2.2757 -0.9792
  332TIP3    H222556   2.758   4.749   2.368 -0.8460 -2.3735 -0.3726
  333TIP3   OH222557   0.847   5.179   1.459 -0.1051 -0.3347  0.5399
  333TIP3    H122558   0.926   5.127   1.471 -0.6828 -1.3446  0.0753
  333TIP3    H222559   0.783   5.139   1.518 -0.0127  1.1039  1.6812
  334TIP3   OH222560   0.399   3.903   2.110  0.4294 -0.3905  0.0567
  334TIP3    H122561   0.314   3.944   2.125  0.8496 -0.2157  2.4047
  334TIP3    H222562   0.413   3.909   2.016 -0.6760  2.5692 -0.0062
  335TIP3   OH222563   4.925   0.874   0.131  0.1382 -0.1923  0.6823
  335TIP3    H122564   4.878   0.950   0.165  2.7294  0.6447  2.6720
  335TIP3    H222565   4.901   0.871   0.038 -1.1722  2.1613  0.8701
  336TIP3   OH222566   6.411   6.119   1.919 -0.7583  0.0969  0.1323
  336TIP3    H122567   6.426   6.095   1.827  2.2162 -0.2426  0.5824
  336TIP3    H222568   6.364   6.045   1.956  0.9543 -1.3263 -0.4077
  337TIP3   OH222569   5.659   6.236   7.718 -0.3473 -0.0867  0.1600
  337TIP3    H122570   5.704   6.303   7.770  0.2345 -0.9114  0.7519
  337TIP3    H222571   5.673   6.262   7.627 -0.1922  0.6288  0.3840
  338TIP3   OH222572   4.447   5.522   1.491  0.0297  0.3584  0.3914
  338TIP3    H122573   4.406   5.467   1.425 -0.8674 -1.1981  2.1350
  338TIP3    H222574   4.498   5.586   1.442  0.5921 -1.6242 -1.7643
  339TIP3   OH222575   5.132   6.299   2.147  0.3765 -0.0237  0.3162
  339TIP3    H122576   5.218   6.332   2.174  1.3216 -2.2182  0.2115
  339TIP3    H222577   5.097   6.257   2.225  0.8056 -1.8062 -0.3924
  340TIP3   OH222578   0.836   2.826   7.997 -0.0996 -0.6789  0.5261
  340TIP3    H122579   0.781   2.748   8.003  0.1568 -0.8146  1.1795
  340TIP3    H222580   0.915   2.804   8.046  0.4441 -0.3997 -0.2066
  341TIP3   OH222581   5.560   3.244   2.089  0.7678 -0.8108 -0.5308
  341TIP3    H122582   5.471   3.209   2.085  1.0186 -1.4554 -0.6493
  341TIP3    H222583   5.612   3.171   2.123  0.9004  0.2452  1.7241
  342TIP3   OH222584   5.800   0.038   2.147  0.4223 -1.0993  0.1115
  342TIP3    H122585   5.746   0.060   2.072  1.0706  1.6753  0.3429
  342TIP3    H222586   5.886   0.017   2.110 -0.0726 -3.0558 -0.0715
  343TIP3   OH222587   5.586   0.668   7.828  0.3379  0.4047  0.4901
  343TIP3    H122588   5.578   0.698   7.919 -0.5788  3.5125 -0.4911
  343TIP3    H222589   5.665   0.711   7.795  0.8875 -1.0089 -0.1216
  344TIP3   OH222590   4.089   4.698   2.839  0.3080  0.2997 -0.0043
  344TIP3    H122591   4.181   4.700   2.815  0.1343 -0.4123 -0.7719
  344TIP3    H222592   4.060   4.609   2.818 -0.9654  0.9916 -1.3520
  345TIP3   OH222593   0.902   2.064   1.215  0.2186  0.4729 -0.9031
  345TIP3    H122594   0.967   2.112   1.266 -0.4856 -0.8068  1.3183
  345TIP3    H222595   0.949   1.989   1.180  0.8578  1.6807 -2.7853
  346TIP3   OH222596   5.599   1.034   8.509  0.0144 -0.0482 -0.2877
  346TIP3    H122597   5.572   1.014   8.598 -0.4704  2.0316  0.0893
  346TIP3    H222598   5.542   0.982   8.453 -0.5749 -0.3596  0.5946
  347TIP3   OH222599   4.045   5.678   1.334 -0.1230 -0.2513  0.3274
  347TIP3    H122600   4.015   5.637   1.253 -0.4131  0.9242 -0.1775
  347TIP3    H222601   4.116   5.737   1.306 -1.7976  1.9891  0.5335
  348TIP3   OH222602   6.759   0.957   7.638  0.3572 -0.1167  0.1184
  348TIP3    H122603   6.671   0.922   7.623 -0.0228 -0.0688  2.0009
  348TIP3    H222604   6.811   0.882   7.665  1.0750 -0.2407 -1.4476
  349TIP3   OH222605   2.550   3.597   1.416 -0.3674 -0.8619  0.0069
  349TIP3    H122606   2.638   3.570   1.389 -0.0256  1.2914 -1.2704
  349TIP3    H222607   2.563   3.637   1.502 -0.1817 -0.9679  0.0283
  350TIP3   OH222608   2.575   0.686   7.311  0.5166 -0.0895  0.5593
  350TIP3    H122609   2.581   0.727   7.398  0.1810 -1.5703  1.3158
  350TIP3    H222610   2.517   0.611   7.324 -1.7076  1.1458 -1.5431
  351TIP3   OH222611   0.546   2.524   1.566 -0.6970  0.5461 -0.2596
  351TIP3    H122612   0.534   2.613   1.533 -0.3425  0.9027  0.5562
  351TIP3    H222613   0.602   2.482   1.502  0.2277  1.3190  0.0167
  352TIP3   OH222614   0.940   1.952   0.749  0.1035 -0.0662  0.2597
  352TIP3    H122615   0.863   1.895   0.748 -1.5816  2.0443 -1.8582
  352TIP3    H222616   0.969   1.953   0.657  3.1862 -1.3647  1.1134
  353TIP3   OH222617   6.751   3.154   7.305 -0.3214  0.4418 -0.5096
  353TIP3    H122618   6.834   3.168   7.351 -2.0550 -0.9005  3.4381
  353TIP3    H222619   6.754   3.215   7.232  3.5036  1.4721  0.2661
  354TIP3   OH222620   0.389   0.313   7.602  0.2313 -0.6137 -0.3286
  354TIP3    H122621   0.324   0.383   7.603 -0.8748 -1.6147 -0.0511
  354TIP3    H222622   0.400   0.293   7.509 -0.8998 -1.3603 -0.3170
  355TIP3   OH222623   2.575   1.928   0.165  0.2826 -0.3568  0.0776
  355TIP3    H122624   2.637   1.863   0.199  0.0363 -0.4482  0.3612
  355TIP3    H222625   2.516   1.945   0.239  0.0002 -0.2350 -0.1757
  356TIP3   OH222626   5.594   2.099   8.328 -0.1493 -0.5405  0.3345
  356TIP3    H122627   5.671   2.043   8.315 -0.3402 -0.6713 -0.2475
  356TIP3    H222628   5.627   2.172   8.380  0.2131 -0.9446  0.6918
  357TIP3   OH222629   6.068   2.707   1.796 -0.7965  0.4865 -0.2071
  357TIP3    H122630   6.114   2.627   1.821 -0.7355  0.5777 -0.0225
  357TIP3    H222631   6.073   2.709   1.701  2.2726  2.0785 -0.1230
  358TIP3   OH222632   1.425   5.906   8.056  0.7365 -0.3189  0.2098
  358TIP3    H122633   1.382   5.976   8.008 -0.5155 -1.3507 -0.2172
  358TIP3    H222634   1.384   5.825   8.025  2.2531 -1.2781  0.5562
  359TIP3   OH222635   2.359   6.621   0.932  0.1962  0.4225  0.3148
  359TIP3    H122636   2.430   6.559   0.921 -0.5651 -0.6851  1.3893
  359TIP3    H222637   2.382   6.670   1.011  0.5837  1.2438 -0.2910
  360TIP3   OH222638   2.076   1.649   1.303  1.1336  0.1081  0.0166
  360TIP3    H122639   2.120   1.608   1.229  1.0282  1.0589 -0.5903
  360TIP3    H222640   2.009   1.705   1.263  1.1732  0.7425  0.8159
  361TIP3   OH222641   2.808   0.102   6.803 -0.0536  0.4465 -0.3882
  361TIP3    H122642   2.842   0.189   6.781  1.2695  0.0518 -0.0529
  361TIP3    H222643   2.822   0.050   6.723 -0.9985  0.5708 -0.6452
  362TIP3   OH222644   6.432   2.002   0.202 -0.5922 -0.3300  0.2587
  362TIP3    H122645   6.425   2.001   0.297 -0.0234 -0.6476  0.3043
  362TIP3    H222646   6.404   1.914   0.175 -0.3713 -0.3724  0.1659
  363TIP3   OH222647   6.391   3.107   1.861 -0.0943 -0.1374  0.3569
  363TIP3    H122648   6.393   3.201   1.883 -1.0081  0.1622 -0.7571
  363TIP3    H222649   6.392   3.063   1.946  1.4341  0.8299  0.8889
  364TIP3   OH222650   0.961   0.946   8.371 -0.1163  0.6251  0.0582
  364TIP3    H122651   1.024   1.007   8.408  1.0760 -0.0808 -0.7512
  364TIP3    H222652   1.004   0.860   8.375 -2.0565 -0.3672  1.9302
  365TIP3   OH222653   3.006   2.027   7.589  0.1015 -0.6737  0.6548
  365TIP3    H122654   2.915   1.999   7.584  0.3955 -1.3928 -1.8461
  365TIP3    H222655   3.056   1.947   7.604  0.3292 -0.1292  3.4817
  366TIP3   OH222656   0.452   4.646   1.913  0.5277  0.1795 -0.1763
  366TIP3    H122657   0.391   4.712   1.946 -1.9459 -1.9781 -0.0787
  366TIP3    H222658   0.530   4.656   1.969  0.0419  2.5628  0.1996
  367TIP3   OH222659   4.890   6.357   6.843 -0.5303 -0.3959 -0.3633
  367TIP3    H122660   4.966   6.299   6.828  0.2902  0.0405  1.7735
  367TIP3    H222661   4.927   6.445   6.844 -0.6328 -0.2776  2.5919
  368TIP3   OH222662   4.990   2.181   7.259 -0.2058 -0.4745 -0.3038
  368TIP3    H122663   5.045   2.174   7.337  0.4680  2.9384 -0.3343
  368TIP3    H222664   4.906   2.212   7.292 -0.3878 -0.4310 -0.8032
  369TIP3   OH222665   3.168   2.519   7.530  0.0111 -0.5201 -0.4968
  369TIP3    H122666   3.191   2.611   7.524 -0.0881 -0.4732 -0.1295
  369TIP3    H222667   3.072   2.518   7.530 -0.0038 -0.5281  0.9636
  370TIP3   OH222668   6.853   2.117   8.357  0.0579 -0.2012 -0.0448
  370TIP3    H122669   6.882   2.065   8.433 -0.9257 -1.0224 -0.2088
  370TIP3    H222670   6.794   2.059   8.310  1.2711 -0.0149 -1.9124
  371TIP3   OH222671   2.153   1.237   7.505  0.3108 -0.8785  0.0955
  371TIP3    H122672   2.172   1.158   7.455  1.3164 -0.7320  0.2298
  371TIP3    H222673   2.217   1.301   7.475  0.5809 -0.6226  1.1603
  372TIP3   OH222674   4.951   2.610   7.671 -0.2495 -0.3279  0.3867
  372TIP3    H122675   4.878   2.575   7.620  0.4067 -1.0720 -0.0547
  372TIP3    H222676   4.912   2.635   7.755 -0.8717 -1.4301  0.4401
  373TIP3   OH222677   6.711   6.782   8.452 -0.1728 -0.2833 -0.1099
  373TIP3    H122678   6.655   6.816   8.382 -0.4271 -0.2593  0.1022
  373TIP3    H222679   6.730   6.692   8.426 -0.7820 -0.4752  0.0970
  374TIP3   OH222680   3.421   5.497   1.339 -0.1866 -0.1764  0.1179
  374TIP3    H122681   3.498   5.473   1.390 -0.0298 -0.3402 -0.1934
  374TIP3    H222682   3.440   5.584   1.306  0.3698 -0.6712 -0.9164
  375TIP3   OH222683   6.132   3.840   7.362  0.6029 -0.8775 -0.4835
  375TIP3    H122684   6.058   3.864   7.307  1.1658  0.9721 -0.4914
  375TIP3    H222685   6.095   3.781   7.428 -0.9336  0.1762 -0.3575
  376TIP3   OH222686   3.680   1.376   7.458 -0.5827  0.3772  1.0376
  376TIP3    H122687   3.741   1.308   7.484 -0.6891  0.0360  0.3960
  376TIP3    H222688   3.703   1.397   7.368 -0.1550  1.6257  1.4083
  377TIP3   OH222689   3.591   0.903   7.982  0.3221  0.1450 -0.3329
  377TIP3    H122690   3.676   0.945   7.970  0.8500 -0.7904  0.0115
  377TIP3    H222691   3.547   0.955   8.049  0.6997  0.5210 -0.3741
  378TIP3   OH222692   4.647   6.000   7.124 -0.2628 -0.5700 -0.5850
  378TIP3    H122693   4.587   6.011   7.050  0.4171 -1.1179 -1.2355
  378TIP3    H222694   4.732   5.984   7.083 -0.2291 -2.9355  0.2769
  379TIP3   OH222695   2.827   4.555   1.673  0.1372 -0.4388  0.3395
  379TIP3    H122696   2.915   4.593   1.683  1.3839 -2.8582 -0.4877
  379TIP3    H222697   2.767   4.626   1.696  2.3148  0.8889  2.4085
  380TIP3   OH222698   2.438   4.761   2.236  0.1268 -0.2510  0.3325
  380TIP3    H122699   2.410   4.670   2.246  2.1038 -1.4125 -3.1241
  380TIP3    H222700   2.533   4.757   2.236  0.2620  1.6370 -1.1705
  381TIP3   OH222701   6.332   6.301   1.037  0.3262 -0.2603  0.4910
  381TIP3    H122702   6.377   6.341   0.963 -2.3691  1.9060 -0.1657
  381TIP3    H222703   6.357   6.355   1.112  2.0909 -1.7163  1.0361
  382TIP3   OH222704   4.388   5.608   0.417 -0.7763 -0.1488 -0.6024
  382TIP3    H122705   4.402   5.591   0.510  0.4598  1.3699 -0.4727
  382TIP3    H222706   4.386   5.704   0.410 -2.8828 -0.2150 -1.8783
  383TIP3   OH222707   5.625   0.258   8.280  0.6041  0.3926  0.0776
  383TIP3    H122708   5.709   0.221   8.253 -0.5311 -1.5566 -1.0772
  383TIP3    H222709   5.560   0.199   8.241 -1.2814  0.9854  2.1252
  384TIP3   OH222710   3.052   0.415   0.936 -0.1963  0.2056  0.0922
  384TIP3    H122711   3.084   0.352   1.000  0.0323  1.6325  1.4516
  384TIP3    H222712   3.004   0.363   0.872 -1.0011 -1.1977  1.7801
  385TIP3   OH222713   5.803   6.518   2.033 -0.0146 -0.0185 -0.1798
  385TIP3    H122714   5.848   6.600   2.010  0.8008  0.1534  1.8271
  385TIP3    H222715   5.725   6.545   2.080  0.5099 -0.3754  0.9259
  386TIP3   OH222716   6.228   2.920   0.742  0.5754 -0.8220  0.4984
  386TIP3    H122717   6.288   2.995   0.734  1.6668 -1.6790  0.4352
  386TIP3    H222718   6.190   2.930   0.830  0.7438 -0.2260  0.5127
  387TIP3   OH222719   5.532   3.942   6.646 -0.0026  0.0305  0.5034
  387TIP3    H122720   5.549   4.012   6.583  1.3938 -1.6384 -1.1147
  387TIP3    H222721   5.597   3.955   6.715  2.3030 -1.2362 -1.2612
  388TIP3   OH222722   0.659   4.896   0.962 -0.0255  0.0741 -0.3152
  388TIP3    H122723   0.690   4.986   0.956  1.1428 -0.2194  0.7511
  388TIP3    H222724   0.705   4.850   0.891 -1.8762  0.5945 -1.9365
  389TIP3   OH222725   2.952   0.004   1.055 -0.2215  0.0125  0.9289
  389TIP3    H122726   3.036   0.039   1.025 -0.1037 -0.4795  0.6891
  389TIP3    H222727   2.965  -0.090   1.062 -1.2411 -0.2963 -0.7727
  390TIP3   OH222728   3.689   1.515   0.116  0.0889 -0.4552 -0.0340
  390TIP3    H122729   3.641   1.566   0.181 -0.9580 -1.1609 -0.2238
  390TIP3    H222730   3.667   1.556   0.032 -0.0948 -0.7003 -0.1090
  391TIP3   OH222731   5.317   0.009   0.732  0.5483  0.6815  0.1779
  391TIP3    H122732   5.252  -0.049   0.691 -0.9763  0.9066  2.1270
  391TIP3    H222733   5.311   0.090   0.682 -0.1957  0.4678 -0.0992
  392TIP3   OH222734   5.700   6.091   0.110  0.1395 -0.1564 -0.2025
  392TIP3    H122735   5.717   6.108   0.203  1.3234 -0.8096 -0.2786
  392TIP3    H222736   5.662   6.004   0.108 -0.7770  0.2280 -0.2734
  393TIP3   OH222737   1.474   0.165   1.617 -0.1910  0.3916  0.4601
  393TIP3    H122738   1.466   0.088   1.673 -0.2048  0.0822  0.0354
  393TIP3    H222739   1.509   0.233   1.675  0.8747 -0.2368  0.5856
  394TIP3   OH222740   4.670   4.556   1.060  0.3199  0.1882 -0.2553
  394TIP3    H122741   4.730   4.482   1.070  1.5836  0.7858 -2.7534
  394TIP3    H222742   4.713   4.628   1.108 -0.6627 -0.4588  1.7348
  395TIP3   OH222743   5.840   0.784   7.341 -0.3197  0.5173  0.5483
  395TIP3    H122744   5.881   0.834   7.411 -0.4519 -1.0435  1.8017
  395TIP3    H222745   5.791   0.849   7.291  1.3595  1.9846  0.6917
  396TIP3   OH222746   6.100   0.974   7.852 -0.1097 -0.9964  0.7368
  396TIP3    H122747   6.072   1.028   7.778 -1.9120 -1.9909  0.6391
  396TIP3    H222748   6.145   0.900   7.811 -1.0603 -1.5197  0.6140
  397TIP3   OH222749   6.511   0.963   7.124  0.4930 -1.3783  0.3241
  397TIP3    H122750   6.603   0.964   7.100  0.5921 -0.3091  0.7025
  397TIP3    H222751   6.464   0.982   7.043  0.7543  0.7241  0.6058
  398TIP3   OH222752   3.492   5.120   0.236  0.3979 -0.4176  0.7479
  398TIP3    H122753   3.431   5.047   0.242  2.0690 -1.9523  0.0539
  398TIP3    H222754   3.500   5.153   0.325 -2.7838  1.0793  0.6152
  399TIP3   OH222755   3.424   0.354   8.006 -0.1181  0.1417  0.0016
  399TIP3    H122756   3.479   0.432   7.998 -1.3888  0.9721 -0.9187
  399TIP3    H222757   3.335   0.386   7.997 -0.7093 -1.3388  0.2693
  400TIP3   OH222758   6.016   2.352   8.666 -0.2533  0.1494  0.7646
  400TIP3    H122759   6.042   2.384   8.580 -1.3031 -0.3217  0.2514
  400TIP3    H222760   5.992   2.430   8.716  0.4702  0.4305  0.6709
  401TIP3   OH222761   6.741   2.205   0.676  0.0264 -0.2381  0.1353
  401TIP3    H122762   6.797   2.178   0.749  0.0301 -1.5020 -0.3155
  401TIP3    H222763   6.796   2.193   0.598  0.7563  3.0539  0.0066
  402TIP3   OH222764   2.645   4.387   1.939 -0.2166  0.1591  0.1327
  402TIP3    H122765   2.730   4.353   1.910 -0.3993  0.5908 -0.9483
  402TIP3    H222766   2.662   4.422   2.026  0.7513  0.3700 -0.1277
  403TIP3   OH222767   0.244   5.108   1.519  0.1559  0.0511  0.1761
  403TIP3    H122768   0.196   5.132   1.598 -0.0113 -1.5159  0.5831
  403TIP3    H222769   0.178   5.105   1.450  0.1641  0.6299  0.1388
  404TIP3   OH222770   1.135   5.335   7.968  0.0382 -0.5358 -0.2965
  404TIP3    H122771   1.076   5.265   7.943 -1.6787  0.9230 -0.5028
  404TIP3    H222772   1.120   5.405   7.904 -1.3454  1.6027  2.1314
  405TIP3   OH222773   0.889   0.423   1.454  0.1789 -0.2482 -0.0562
  405TIP3    H122774   0.980   0.397   1.443  0.6264  0.6350  1.3473
  405TIP3    H222775   0.854   0.360   1.518 -0.0067 -0.1839 -0.0938
  406TIP3   OH222776   0.371   4.114   0.837 -0.1507  0.1486  0.3916
  406TIP3    H122777   0.297   4.156   0.793 -1.0054 -0.1733  1.4736
  406TIP3    H222778   0.415   4.064   0.768  0.0829  1.6837 -0.6252
  407TIP3   OH222779   6.681   5.442   2.812  0.5863  0.2766  0.2035
  407TIP3    H122780   6.707   5.353   2.787 -1.1510  0.0876 -1.0719
  407TIP3    H222781   6.616   5.429   2.881 -0.1411  0.4998 -0.4211
  408TIP3   OH222782   0.767   3.673   2.315  0.2801  0.6586  0.2396
  408TIP3    H122783   0.682   3.715   2.307  0.9647  1.9436 -0.7004
  408TIP3    H222784   0.750   3.592   2.363 -1.7143  0.1045 -1.2947
  409TIP3   OH222785   0.030   5.646   1.121  0.2175  0.3905  0.1184
  409TIP3    H122786   0.048   5.553   1.134  1.0883  0.6670  1.0329
  409TIP3    H222787   0.074   5.667   1.039  1.6874  0.3940  0.8674
  410TIP3   OH222788   3.024   5.530   0.532  0.4375 -0.1095  0.9883
  410TIP3    H122789   2.935   5.536   0.497  0.2564 -2.5991  0.8355
  410TIP3    H222790   3.080   5.530   0.454  0.6246  1.6447  1.0920
  411TIP3   OH222791   6.164   5.104   8.520 -0.2861  0.7339 -0.1094
  411TIP3    H122792   6.087   5.127   8.468 -0.0034  0.7573 -0.5229
  411TIP3    H222793   6.227   5.173   8.501 -1.6569  3.3645  3.6887
  412TIP3   OH222794   5.278   4.167   1.821  0.2823  0.3305 -0.1068
  412TIP3    H122795   5.372   4.149   1.827  0.4603  1.2931  0.0699
  412TIP3    H222796   5.243   4.092   1.774  0.7843 -1.2065  1.7987
  413TIP3   OH222797   4.129   0.923   8.397  0.1460  0.6330  0.0235
  413TIP3    H122798   4.165   1.011   8.383  3.7407 -1.0071 -3.0187
  413TIP3    H222799   4.131   0.882   8.310  2.1354 -3.5368  1.7235
  414TIP3   OH222800   5.044   4.575   1.272  0.0499  0.3271 -0.2076
  414TIP3    H122801   5.120   4.608   1.319  1.0699 -0.8713 -0.9326
  414TIP3    H222802   4.989   4.533   1.339  0.1768  0.9195  0.2721
  415TIP3   OH222803   2.646   1.539   1.333  0.6127 -0.2948  0.0142
  415TIP3    H122804   2.582   1.474   1.303  0.0123  0.4572 -0.3546
  415TIP3    H222805   2.684   1.500   1.412 -0.7923 -0.4725  0.6427
  416TIP3   OH222806   5.728   0.908   0.123 -0.3841  0.1378  0.6233
  416TIP3    H122807   5.673   0.982   0.147  2.0392  1.8308  1.2798
  416TIP3    H222808   5.762   0.930   0.036 -0.7991 -0.9812  0.1436
  417TIP3   OH222809   1.731   6.246   7.378  0.0141  0.3949  0.2369
  417TIP3    H122810   1.792   6.179   7.348 -2.1189 -1.1314 -1.0151
  417TIP3    H222811   1.672   6.259   7.304 -0.4321  2.7571  0.9222
  418TIP3   OH222812   2.219   2.708   7.922  0.4279 -0.0613 -0.3989
  418TIP3    H122813   2.236   2.640   7.987 -0.0921  0.2454  0.0716
  418TIP3    H222814   2.177   2.779   7.972 -2.4854 -0.8762 -1.4684
  419TIP3   OH222815   4.510   5.532   7.446  0.2661  0.0507  0.6171
  419TIP3    H122816   4.500   5.525   7.541  0.1279  1.0630  0.6855
  419TIP3    H222817   4.432   5.491   7.410  0.7318 -1.1372  0.9071
  420TIP3   OH222818   6.080   1.785   2.766 -0.1706 -0.1044  0.5013
  420TIP3    H122819   6.113   1.847   2.831  2.4694 -1.2878  0.4242
  420TIP3    H222820   5.987   1.806   2.757 -0.3850  0.8490  3.7942
  421TIP3   OH222821   1.151   4.601   2.738  0.2469  0.0166 -0.1117
  421TIP3    H122822   1.084   4.551   2.785  0.7695 -0.4253  0.1826
  421TIP3    H222823   1.199   4.536   2.688  2.1004 -0.1074  1.6728
  422TIP3   OH222824   6.281   6.667   7.414  0.2253 -0.1539 -0.1019
  422TIP3    H122825   6.282   6.755   7.374  0.0739 -0.7439 -1.4561
  422TIP3    H222826   6.367   6.631   7.394 -0.2182 -0.8461 -0.8115
  423TIP3   OH222827   4.873   2.327   0.166  0.2184 -0.4917  0.0991
  423TIP3    H122828   4.786   2.295   0.146  0.0341  0.1658 -0.1934
  423TIP3    H222829   4.862   2.378   0.246  0.6175 -1.6239  0.8956
  424TIP3   OH222830   2.707   3.155   0.604  0.2074  0.0793 -0.0196
  424TIP3    H122831   2.639   3.219   0.587 -0.1591 -0.2824  0.0623
  424TIP3    H222832   2.775   3.174   0.539  0.2967  0.8132  0.2782
  425TIP3   OH222833   6.029   6.010   6.732  0.4547  0.0441 -0.0164
  425TIP3    H122834   6.084   6.089   6.726 -0.1558  0.5099  0.4110
  425TIP3    H222835   5.940   6.043   6.727  0.0192 -0.2243  3.4087
  426TIP3   OH222836   4.911   4.695   1.064  0.2967 -0.2794 -0.1284
  426TIP3    H122837   4.960   4.657   1.137  0.4993 -1.7497 -0.9935
  426TIP3    H222838   4.972   4.756   1.024  0.8100 -0.7843 -0.1287
  427TIP3   OH222839   1.144   3.367   1.787 -0.3146 -0.2164  0.0110
  427TIP3    H122840   1.048   3.358   1.782 -0.2329 -1.4597  0.1698
  427TIP3    H222841   1.167   3.422   1.712 -1.1009 -0.5315 -0.4835
  428TIP3   OH222842   3.497   0.293   7.252  0.0909  0.3575  0.5712
  428TIP3    H122843   3.547   0.366   7.287  0.1293 -0.1834  1.7055
  428TIP3    H222844   3.531   0.216   7.299 -0.5953 -0.2590  0.0857
  429TIP3   OH222845   2.624   6.149   0.671  0.6435 -0.6770 -0.2830
  429TIP3    H122846   2.597   6.143   0.579  1.8944  0.0950 -0.7314
  429TIP3    H222847   2.703   6.203   0.669  0.3885 -0.1931  1.3231
  430TIP3   OH222848   4.892   6.563   2.818 -0.0794  0.3541  0.1264
  430TIP3    H122849   4.798   6.557   2.837 -0.0588  2.3113  1.0256
  430TIP3    H222850   4.929   6.484   2.858 -1.2920 -0.2790  0.0409
  431TIP3   OH222851   0.837   1.835   1.382  0.0244  0.6391 -0.4611
  431TIP3    H122852   0.837   1.931   1.372  0.6729  0.8201  1.0736
  431TIP3    H222853   0.867   1.803   1.297  3.2552  1.9564  0.0397
  432TIP3   OH222854   3.167   6.049   0.156  0.6177 -0.3401 -0.1670
  432TIP3    H122855   3.105   5.983   0.124 -2.8900  2.1913  0.7963
  432TIP3    H222856   3.178   6.109   0.083  2.2229 -0.8479 -0.3854
  433TIP3   OH222857   3.635   4.416   8.568  0.4738 -0.9788 -0.1965
  433TIP3    H122858   3.676   4.352   8.510  1.9819  0.0920 -0.3789
  433TIP3    H222859   3.670   4.396   8.654 -0.1868 -1.2914  0.0074
  434TIP3   OH222860   0.827   5.243   2.127 -0.2024 -0.2809 -1.1940
  434TIP3    H122861   0.892   5.199   2.182 -0.4555  0.0413 -0.6297
  434TIP3    H222862   0.767   5.283   2.189 -0.8116 -0.3807 -1.7145
  435TIP3   OH222863   0.779   2.889   0.674 -0.1262  0.1603 -0.3888
  435TIP3    H122864   0.771   2.944   0.595 -1.4659  0.0426 -0.3528
  435TIP3    H222865   0.692   2.890   0.713  0.3166 -0.4631  0.6559
  436TIP3   OH222866   2.610   3.625   0.262 -0.1355 -0.5384  0.1522
  436TIP3    H122867   2.615   3.532   0.239 -0.5029  0.0723 -2.7558
  436TIP3    H222868   2.520   3.650   0.240  0.2477  0.7384 -0.0307
  437TIP3   OH222869   3.624   3.457   1.092 -0.2399  0.0536 -0.5424
  437TIP3    H122870   3.531   3.477   1.079 -0.3330 -0.0492 -0.0684
  437TIP3    H222871   3.643   3.487   1.181  0.1729  0.0474 -0.6268
  438TIP3   OH222872   4.280   0.571   7.978 -0.0359  0.2935 -0.4825
  438TIP3    H122873   4.273   0.511   7.904  0.9059  0.7605 -0.9627
  438TIP3    H222874   4.235   0.525   8.050 -1.1169 -0.0738 -1.3755
  439TIP3   OH222875   3.793   3.978   2.586  0.6783 -0.7752 -0.0166
  439TIP3    H122876   3.832   3.895   2.559 -0.4732 -0.8178 -1.6739
  439TIP3    H222877   3.822   4.041   2.521 -0.7837 -0.5118 -0.4556
  440TIP3   OH222878   3.836   1.591   1.009  0.6032 -0.1736  0.0513
  440TIP3    H122879   3.784   1.533   0.953 -0.2563 -1.6765  2.2922
  440TIP3    H222880   3.772   1.650   1.049  0.8461 -0.7419  1.3136
  441TIP3   OH222881   2.312   1.720   7.027  0.0899 -0.0156 -0.0352
  441TIP3    H122882   2.233   1.760   7.064  1.1901 -0.2109  2.7587
  441TIP3    H222883   2.293   1.627   7.024  1.0938 -0.5277  3.6236
  442TIP3   OH222884   0.747   1.720   1.727 -0.4984  0.2932 -0.3446
  442TIP3    H122885   0.775   1.783   1.793 -1.5652 -0.6006  1.0116
  442TIP3    H222886   0.798   1.641   1.746 -1.0599 -0.0818 -0.3590
  443TIP3   OH222887   3.577   6.784   7.197 -0.5920 -0.0306  0.0508
  443TIP3    H122888   3.537   6.812   7.115 -0.3800  0.2904  0.0535
  443TIP3    H222889   3.670   6.804   7.186 -0.6266  0.4255  0.5344
  444TIP3   OH222890   3.185   1.052   1.074  0.4109  0.1279 -0.3385
  444TIP3    H122891   3.199   1.126   1.133  0.0708 -0.7278  0.8637
  444TIP3    H222892   3.230   0.979   1.116  0.5506 -0.4089 -1.3866
  445TIP3   OH222893   2.067   6.510   8.430  0.3630 -0.3650  0.2512
  445TIP3    H122894   2.126   6.585   8.438  2.2012 -1.6092 -0.8495
  445TIP3    H222895   2.065   6.491   8.336 -0.5815 -1.3222  0.4447
  446TIP3   OH222896   2.090   6.426   2.082  0.1713  0.2483  0.5989
  446TIP3    H122897   2.135   6.412   2.165  0.5373 -0.5064  0.2914
  446TIP3    H222898   2.001   6.451   2.106  0.9695  2.7119  1.2271
  447TIP3   OH222899   0.378   4.372   7.320 -0.3346  0.5152 -0.1605
  447TIP3    H122900   0.429   4.327   7.252  1.0338 -0.1855  1.2832
  447TIP3    H222901   0.335   4.301   7.368  1.3696  0.7226  1.7691
  448TIP3   OH222902   0.282   3.042   7.458  0.0627 -0.0916  0.0049
  448TIP3    H122903   0.329   3.103   7.401  0.6250  0.6712  1.2472
  448TIP3    H222904   0.243   3.097   7.525 -2.0230 -0.7878 -0.5453
  449TIP3   OH222905   1.396   1.216   8.435  0.0235 -0.3633  0.2369
  449TIP3    H122906   1.377   1.147   8.499 -1.5726 -0.8957 -0.7458
  449TIP3    H222907   1.485   1.245   8.456 -0.1553 -1.0708  2.1705
  450TIP3   OH222908   3.088   5.864   8.189  0.2142  0.3363  0.5017
  450TIP3    H122909   3.088   5.950   8.146 -0.3211  0.0531 -0.0886
  450TIP3    H222910   3.096   5.884   8.282  2.6622  0.9307  0.2288
  451TIP3   OH222911   2.380   6.761   1.171  0.3183 -0.5833 -0.2762
  451TIP3    H122912   2.363   6.776   1.264  1.2602  0.4612 -0.2580
  451TIP3    H222913   2.472   6.784   1.159 -0.4217  1.9051 -1.9574
  452TIP3   OH222914   5.478   1.495   2.575  0.0442 -0.4467 -0.3389
  452TIP3    H122915   5.556   1.544   2.549 -0.2610  0.7997  0.9939
  452TIP3    H222916   5.406   1.556   2.561 -0.1734  0.2119  3.0012
  453TIP3   OH222917   5.180   2.014   1.725  0.1889  0.3264  0.2176
  453TIP3    H122918   5.203   2.031   1.633 -0.6253  1.1666  0.1479
  453TIP3    H222919   5.128   2.090   1.750  0.9526  0.4168  1.5874
  454TIP3   OH222920   5.096   5.758   1.951  0.3834  0.0675  0.1741
  454TIP3    H122921   5.192   5.759   1.962  0.2528 -0.1945  1.5614
  454TIP3    H222922   5.064   5.816   2.019 -0.4835 -0.3493  0.1264
  455TIP3   OH222923   2.379   3.962   0.810 -0.1733 -0.5555 -0.1424
  455TIP3    H122924   2.322   4.001   0.743  2.6423  1.2207 -1.7220
  455TIP3    H222925   2.367   3.868   0.799 -2.7275 -0.2709 -0.3925
  456TIP3   OH222926   4.003   4.194   6.722  0.2749 -0.1061  0.9071
  456TIP3    H122927   4.067   4.249   6.768  0.2109  0.2095  0.6221
  456TIP3    H222928   3.992   4.119   6.779  0.2256  0.2635  1.3939
  457TIP3   OH222929   1.424   0.795   1.294  0.1944 -0.0579  1.0928
  457TIP3    H122930   1.370   0.838   1.227 -0.4565 -0.2006  1.5141
  457TIP3    H222931   1.510   0.785   1.253  0.0354  0.6107  0.5789
  458TIP3   OH222932   2.158   5.521   8.186  0.3420 -0.3341  0.4814
  458TIP3    H122933   2.240   5.487   8.222 -0.3932 -1.6117  1.0527
  458TIP3    H222934   2.175   5.531   8.093  1.4761  0.4893  0.7568
  459TIP3   OH222935   2.294   0.637   8.311  0.2983  0.5999 -0.5747
  459TIP3    H122936   2.272   0.547   8.334  2.5306 -0.3241 -1.7265
  459TIP3    H222937   2.218   0.669   8.262 -1.0000 -0.2064  0.8245
  460TIP3   OH222938   0.298   3.684   8.374  0.1194 -0.2740 -0.3492
  460TIP3    H122939   0.206   3.679   8.401  0.1258 -0.3191 -0.3354
  460TIP3    H222940   0.309   3.773   8.341  0.3538  0.0944  0.6903
  461TIP3   OH222941   6.399   2.302   7.706 -0.2203 -0.6313 -0.0514
  461TIP3    H122942   6.385   2.356   7.628 -1.1165  0.9587  1.1722
  461TIP3    H222943   6.479   2.337   7.745 -0.4234 -0.6516  0.3833
  462TIP3   OH222944   0.698   4.159   7.389  0.7462 -0.2442 -0.1508
  462TIP3    H122945   0.643   4.089   7.354 -0.6056 -0.4890  2.2346
  462TIP3    H222946   0.732   4.124   7.472  1.6370  1.2154  0.1337
  463TIP3   OH222947   3.549   1.316   7.998 -0.8609 -0.6467 -0.4930
  463TIP3    H122948   3.585   1.393   8.043 -0.5897 -0.1029 -1.5875
  463TIP3    H222949   3.589   1.241   8.042  0.9334 -0.0813 -1.0727
  464TIP3   OH222950   1.957   3.723   1.160 -0.1540  0.0266 -0.1745
  464TIP3    H122951   2.017   3.691   1.093  0.6451  0.6111  0.2302
  464TIP3    H222952   1.875   3.741   1.114 -0.2230 -1.3798 -0.6289
  465TIP3   OH222953   2.490   3.138   6.913  0.4871 -0.4060  0.0649
  465TIP3    H122954   2.400   3.121   6.942 -0.0192 -0.1615 -1.3034
  465TIP3    H222955   2.531   3.052   6.910  0.5460 -0.4415  1.4368
  466TIP3   OH222956   3.991   0.694   0.443 -0.6196 -0.1604 -0.2260
  466TIP3    H122957   3.988   0.679   0.349  1.2068  0.4186 -0.4100
  466TIP3    H222958   3.992   0.607   0.481  0.3699 -0.4277 -0.8364
  467TIP3   OH222959   5.234   6.764   7.256 -0.3496  0.4162 -0.4304
  467TIP3    H122960   5.163   6.738   7.197  0.3692  0.0283 -1.1443
  467TIP3    H222961   5.190   6.786   7.338 -1.2388 -0.4169 -0.6624
  468TIP3   OH222962   1.583   1.193   0.254  0.2387 -0.0045  0.1871
  468TIP3    H122963   1.592   1.288   0.249 -1.6658  0.2355  0.4490
  468TIP3    H222964   1.571   1.175   0.347 -1.1983 -0.2698 -0.0228
  469TIP3   OH222965   2.663   2.306   2.509 -0.2469  0.0035  0.1189
  469TIP3    H122966   2.575   2.280   2.483 -0.4446  1.0742 -0.3289
  469TIP3    H222967   2.677   2.264   2.594 -1.2261 -0.0979  0.2340
  470TIP3   OH222968   6.439   5.722   2.555  0.4993 -0.4735 -0.0164
  470TIP3    H122969   6.388   5.641   2.559  1.2244 -0.9259  0.2250
  470TIP3    H222970   6.382   5.788   2.595 -1.9746  0.1888 -4.0687
  471TIP3   OH222971   2.274   0.584   1.417  0.9822 -0.3216 -0.6294
  471TIP3    H122972   2.367   0.600   1.435  1.0297  0.7269 -1.7409
  471TIP3    H222973   2.249   0.650   1.353 -0.7703 -0.0275  0.2846
  472TIP3   OH222974   5.808   5.386   1.698 -0.2660 -0.2858 -0.1088
  472TIP3    H122975   5.823   5.447   1.770  2.3529 -0.0040 -0.7854
  472TIP3    H222976   5.889   5.390   1.646 -2.0053 -0.5386 -3.0375
  473TIP3   OH222977   6.247   2.488   7.968  0.1839 -0.2198 -0.3851
  473TIP3    H122978   6.182   2.423   7.943 -1.6412  0.4424  2.3028
  473TIP3    H222979   6.319   2.437   8.005 -0.4712 -0.8135  0.1033
  474TIP3   OH222980   2.473   4.113   1.653  0.0514 -0.0871 -0.3510
  474TIP3    H122981   2.389   4.067   1.644  0.4396 -0.9106  0.0872
  474TIP3    H222982   2.523   4.085   1.576  0.9018 -1.7722  0.7562
  475TIP3   OH222983   3.969   2.486   0.501 -0.1690  0.6283 -0.0951
  475TIP3    H122984   3.876   2.479   0.480 -0.0054  0.9219 -0.9420
  475TIP3    H222985   4.003   2.550   0.439  0.6905  0.1939 -0.0835
  476TIP3   OH222986   2.307   0.800   1.006 -0.0024  0.1817  0.0963
  476TIP3    H122987   2.371   0.850   0.956  0.4947 -0.3990  0.1410
  476TIP3    H222988   2.266   0.864   1.063 -0.0621  0.7179 -0.5305
  477TIP3   OH222989   6.602   1.176   8.362 -0.2189 -0.0737 -0.2326
  477TIP3    H122990   6.513   1.149   8.382  0.3450 -2.4080 -0.6144
  477TIP3    H222991   6.641   1.195   8.448 -0.1784 -2.1801  0.2683
  478TIP3   OH222992   2.456   6.650   7.898 -0.1250  0.2884 -0.3152
  478TIP3    H122993   2.365   6.681   7.905 -1.3470 -2.5374 -2.0242
  478TIP3    H222994   2.459   6.573   7.955  1.3418  0.5762  0.0276
  479TIP3   OH222995   5.173   6.874   1.895 -0.3457 -1.0884  0.8002
  479TIP3    H122996   5.253   6.883   1.946 -0.3054 -0.6435  0.6640
  479TIP3    H222997   5.135   6.962   1.894 -1.3080 -1.4721  1.6249
  480TIP3   OH222998   3.265   1.292   1.235  0.2993  0.2357  0.0642
  480TIP3    H122999   3.298   1.372   1.276  1.6527 -0.7932  1.0843
  480TIP3    H223000   3.219   1.322   1.156 -0.3358  2.0903  1.0899
  481TIP3   OH223001   1.432   6.584   7.508  0.1253 -0.2806  0.2083
  481TIP3    H123002   1.403   6.614   7.594 -3.1717 -1.3530 -0.3682
  481TIP3    H223003   1.497   6.516   7.527 -0.8094 -0.7754  1.8962
  482TIP3   OH223004   2.213   3.014   6.932  0.5038 -0.2991 -0.1808
  482TIP3    H123005   2.157   2.942   6.902 -0.9746  0.8944 -0.3924
  482TIP3    H223006   2.231   3.065   6.853  1.1040 -0.1366  0.0563
  483TIP3   OH223007   5.978   1.860   0.377  0.2281 -0.3986 -0.2520
  483TIP3    H123008   5.886   1.843   0.359 -0.2680 -0.0562  1.7235
  483TIP3    H223009   6.018   1.872   0.291 -1.8593  0.9503 -1.1079
  484TIP3   OH223010   2.548   4.265   1.161  0.0350 -0.1437 -1.0667
  484TIP3    H123011   2.527   4.223   1.244 -1.4881  1.0314 -0.8240
  484TIP3    H223012   2.493   4.221   1.096  0.5742 -0.4693 -1.3075
  485TIP3   OH223013   2.958   1.966   0.809 -0.1927  0.0044  0.1634
  485TIP3    H123014   3.032   1.912   0.781  1.8473  2.0478  1.2422
  485TIP3    H223015   2.943   1.941   0.900  0.0867  0.5285  0.3568
  486TIP3   OH223016   2.806   3.470   8.167 -0.6453 -0.1028  0.1190
  486TIP3    H123017   2.750   3.518   8.228 -0.3815  2.1097 -1.2797
  486TIP3    H223018   2.870   3.535   8.137  0.9733 -1.8450 -0.4225
  487TIP3   OH223019   2.708   0.318   1.330  0.1308 -0.1347  0.2143
  487TIP3    H123020   2.713   0.223   1.342 -1.2796 -0.4259 -1.2095
  487TIP3    H223021   2.780   0.352   1.383 -0.4328 -1.8460  2.2156
  488TIP3   OH223022   3.929   0.322   7.383  0.2568 -0.1815 -0.5050
  488TIP3    H123023   3.964   0.270   7.311  0.1470 -2.5161  1.0218
  488TIP3    H223024   4.006   0.363   7.423  0.3079  1.2041 -1.9342
  489TIP3   OH223025   1.386   1.914   1.356  0.0984 -0.1866  0.2170
  489TIP3    H123026   1.417   1.828   1.383  0.6856 -0.3839 -1.0202
  489TIP3    H223027   1.330   1.943   1.428  0.0559 -1.5040  0.7384
  490TIP3   OH223028   6.551   4.358   1.372  0.3387 -0.2442  0.2481
  490TIP3    H123029   6.475   4.365   1.429  0.7589  1.6558  0.6400
  490TIP3    H223030   6.615   4.308   1.424  0.6030  1.1957  1.3882
  491TIP3   OH223031   4.074   4.460   1.868 -0.1720  0.3421  0.5108
  491TIP3    H123032   4.132   4.532   1.843  1.5140 -0.8028  1.0257
  491TIP3    H223033   4.126   4.381   1.857 -2.0786 -0.8812 -0.3300
  492TIP3   OH223034   4.924   3.741   2.524  0.3413 -0.0636  0.1249
  492TIP3    H123035   4.981   3.818   2.527  0.1784  0.1335 -1.3223
  492TIP3    H223036   4.848   3.766   2.577  1.1108  0.0598  1.1988
  493TIP3   OH223037   2.685   6.792   0.336 -0.2179  0.1335  0.4198
  493TIP3    H123038   2.605   6.750   0.369 -0.6574  0.2229 -0.5098
  493TIP3    H223039   2.653   6.864   0.281  0.5169  0.8675  0.9332
  494TIP3   OH223040   6.111   5.576   1.352 -0.2098 -0.2567  0.0839
  494TIP3    H123041   6.203   5.553   1.367  0.1985  0.8867 -0.5754
  494TIP3    H223042   6.097   5.558   1.259  0.2927  2.5516 -0.6220
  495TIP3   OH223043   5.065   5.495   2.136  0.6335 -0.1597 -0.7960
  495TIP3    H123044   5.039   5.530   2.051  0.7527  1.9303 -0.0273
  495TIP3    H223045   5.096   5.571   2.185  0.3042 -1.2604  1.2244
  496TIP3   OH223046   5.217   6.838   0.085 -0.5851 -0.0107 -0.1537
  496TIP3    H123047   5.133   6.793   0.088 -1.4359  1.4988 -0.1335
  496TIP3    H223048   5.196   6.924   0.049  0.2967  1.6975  3.0048
  497TIP3   OH223049   4.913   0.520   2.375 -0.2007 -0.1650 -0.3122
  497TIP3    H123050   5.007   0.532   2.387 -0.5287  1.0921  1.6246
  497TIP3    H223051   4.892   0.568   2.295  0.7888 -0.4349 -0.7443
  498TIP3   OH223052   3.217   6.847   1.329  0.1045  0.0034  0.2472
  498TIP3    H123053   3.288   6.785   1.346  1.3861  1.4750  0.4732
  498TIP3    H223054   3.247   6.899   1.255  0.5494  2.4722  2.0401
  499TIP3   OH223055   6.155   2.511   7.519 -0.0937 -0.3571  0.0621
  499TIP3    H123056   6.138   2.578   7.585  0.9665 -1.1532  1.1892
  499TIP3    H223057   6.112   2.543   7.440 -1.7638  0.4351  1.2300
  500TIP3   OH223058   6.431   4.155   0.539  0.1638 -0.4862  0.4824
  500TIP3    H123059   6.503   4.207   0.574 -1.2343  1.1473  1.0893
  500TIP3    H223060   6.364   4.158   0.607 -1.8797  1.1431 -1.4210
  501TIP3   OH223061   0.432   0.751   2.400 -0.2589  0.5679 -0.4114
  501TIP3    H123062   0.411   0.685   2.334 -0.5247 -1.2282  1.3702
  501TIP3    H223063   0.357   0.752   2.459  1.1786 -0.1224  1.5551
  502TIP3   OH223064   6.106   6.710   6.432 -0.0271  0.2790 -0.3348
  502TIP3    H123065   6.166   6.762   6.377 -0.6990  0.6445 -0.7374
  502TIP3    H223066   6.126   6.738   6.521  0.6404  0.1460 -0.4364
  503TIP3   OH223067   5.645   4.941   8.053  0.0091  0.4891  0.3761
  503TIP3    H123068   5.648   4.856   8.009  2.1596 -1.2016  3.3569
  503TIP3    H223069   5.679   5.003   7.989 -1.7777 -0.8099 -1.9622
  504TIP3   OH223070   3.991   5.522   1.115 -0.0688 -0.2813 -0.1266
  504TIP3    H123071   4.032   5.436   1.123  0.1666 -0.2650 -1.0470
  504TIP3    H223072   3.971   5.530   1.022  0.4942  0.9396 -0.1499
  505TIP3   OH223073   0.507   2.776   1.469 -0.0538 -0.1465 -0.0886
  505TIP3    H123074   0.524   2.860   1.427  1.6751 -0.2785  0.2819
  505TIP3    H223075   0.463   2.799   1.551  0.5872  0.4283  0.1060
  506TIP3   OH223076   6.780   2.293   0.234 -0.3833 -0.6053  0.7113
  506TIP3    H123077   6.807   2.374   0.191 -1.4860 -1.2735 -1.3520
  506TIP3    H223078   6.709   2.319   0.293 -2.5094 -0.3313 -1.8076
  507TIP3   OH223079   5.000   3.813   1.755  0.3547 -0.4441 -0.1592
  507TIP3    H123080   5.045   3.751   1.812 -0.2849 -1.3383 -0.6079
  507TIP3    H223081   5.050   3.813   1.674  0.7027  0.0911  0.0516
  508TIP3   OH223082   3.907   5.050   8.388 -0.2019  0.1858 -0.1342
  508TIP3    H123083   3.822   5.010   8.368 -0.2515  0.6422 -0.8677
  508TIP3    H223084   3.912   5.125   8.329 -0.3928  1.6490  1.6275
  509TIP3   OH223085   6.851   4.368   7.268 -0.1310  0.0263 -0.5052
  509TIP3    H123086   6.881   4.279   7.251 -0.7642 -0.2984  0.0096
  509TIP3    H223087   6.874   4.417   7.189  2.3229 -0.0171  0.0978
  510TIP3   OH223088   3.572   3.291   0.364  0.0413 -0.5765 -0.3336
  510TIP3    H123089   3.582   3.225   0.434 -1.7098 -1.6336 -1.0157
  510TIP3    H223090   3.524   3.245   0.295  1.0180  0.6956 -1.9199
  511TIP3   OH223091   1.861   2.008   0.632  0.8835 -0.6813 -0.2115
  511TIP3    H123092   1.875   2.095   0.595  0.2643 -0.8070 -0.7459
  511TIP3    H223093   1.769   1.989   0.617  0.7133 -0.9273  1.0027
  512TIP3   OH223094   2.099   5.679   0.034 -0.1713 -0.4105 -0.2401
  512TIP3    H123095   2.162   5.693  -0.036 -1.0522 -1.1428 -1.2230
  512TIP3    H223096   2.031   5.624  -0.005 -0.5899 -1.0230  1.2564
  513TIP3   OH223097   2.967   3.321   7.259  0.2082 -0.4532 -0.2072
  513TIP3    H123098   2.937   3.332   7.169 -0.4623 -2.0014 -0.2108
  513TIP3    H223099   2.887   3.303   7.309  0.7319 -1.1279  0.4190
  514TIP3   OH223100   6.252   1.278   7.844  0.3300 -0.5363 -0.4793
  514TIP3    H123101   6.218   1.247   7.928 -1.0101 -1.3871 -1.2932
  514TIP3    H223102   6.246   1.373   7.849  3.4462 -0.3107  1.6421
  515TIP3   OH223103   1.628   0.427   7.268 -0.0508  0.1355  0.1281
  515TIP3    H123104   1.624   0.473   7.352 -0.0127  1.5736 -0.6395
  515TIP3    H223105   1.542   0.385   7.260 -0.5731  1.1668  0.2388
  516TIP3   OH223106   4.096   5.161   6.946 -0.1310  0.1943  0.3078
  516TIP3    H123107   4.019   5.112   6.973  0.6347 -1.3633 -0.1924
  516TIP3    H223108   4.062   5.233   6.892 -1.2181 -0.6840 -0.2247
  517TIP3   OH223109   1.773   4.910   0.431 -0.2630  0.1287  0.3423
  517TIP3    H123110   1.766   4.880   0.341 -0.3990  1.5513 -0.1558
  517TIP3    H223111   1.693   4.880   0.473 -1.3820  1.5083 -0.6902
  518TIP3   OH223112   3.627   3.966   0.276  0.2042  0.3077 -0.1462
  518TIP3    H123113   3.588   4.053   0.273  0.7737  0.6721  1.8706
  518TIP3    H223114   3.622   3.940   0.368  4.0730  0.1406  0.1780
  519TIP3   OH223115   3.428   5.926   0.588 -0.1576 -0.3759  0.3024
  519TIP3    H123116   3.376   5.966   0.518 -1.2129 -0.3733  1.0562
  519TIP3    H223117   3.517   5.956   0.573 -0.6738  1.0724 -0.0070
  520TIP3   OH223118   4.650   3.344   0.746  0.0667  0.4458 -0.2720
  520TIP3    H123119   4.633   3.255   0.775 -1.8504  1.1087  0.8558
  520TIP3    H223120   4.599   3.354   0.666  1.8568 -0.0268 -1.5304
  521TIP3   OH223121   1.166   0.393   7.243  0.4789 -0.0963 -0.6450
  521TIP3    H123122   1.143   0.414   7.153 -0.5951 -0.8450 -0.5658
  521TIP3    H223123   1.249   0.346   7.237 -0.1279 -1.0992 -1.3494
  522TIP3   OH223124   0.354   5.236   2.059 -0.4827 -0.2505 -0.0047
  522TIP3    H123125   0.360   5.235   2.154 -2.4923  0.2869  0.1861
  522TIP3    H223126   0.417   5.301   2.031  0.4875 -0.7748  0.9069
  523TIP3   OH223127   6.860   3.787   1.508  0.0130 -0.7351 -0.4503
  523TIP3    H123128   6.847   3.852   1.439  0.9536  0.3793  0.3872
  523TIP3    H223129   6.783   3.796   1.565 -1.2059 -2.2548 -1.7522
  524TIP3   OH223130   2.420   6.432   8.083  0.1267  0.6032 -0.0669
  524TIP3    H123131   2.414   6.419   8.178  1.3225 -0.5288 -0.1102
  524TIP3    H223132   2.330   6.446   8.054 -0.4088 -0.3840  1.0600
  525TIP3   OH223133   1.690   1.373   1.914  0.7258 -0.1504 -0.6575
  525TIP3    H123134   1.694   1.331   1.828 -1.7904  3.4891 -2.8226
  525TIP3    H223135   1.781   1.391   1.936  1.5733 -2.8284 -1.5408
  526TIP3   OH223136   1.486   2.578   8.399 -0.3687 -0.2211  0.0021
  526TIP3    H123137   1.545   2.524   8.451  0.2312  0.1564 -0.2738
  526TIP3    H223138   1.478   2.660   8.448  0.2030  0.1384 -0.4888
  527TIP3   OH223139   6.462   0.870   8.311  0.1104 -0.2120  0.0053
  527TIP3    H123140   6.506   0.905   8.388 -0.5938  3.0454 -0.9410
  527TIP3    H223141   6.396   0.935   8.289 -1.6567 -2.4243 -1.7097
  528TIP3   OH223142   5.226   1.958   0.839  0.4384  0.1006  0.2157
  528TIP3    H123143   5.187   1.977   0.754  1.3081  0.6056 -0.0885
  528TIP3    H223144   5.318   1.939   0.820  0.3495 -1.1355  0.9023
  529TIP3   OH223145   0.323   2.506   0.227  0.1494  0.2545 -0.3156
  529TIP3    H123146   0.405   2.527   0.181  0.7535 -0.6788  0.2878
  529TIP3    H223147   0.325   2.561   0.305  0.7697 -0.5714  0.2687
  530TIP3   OH223148   0.912   0.141   0.460  0.4739  0.1883 -0.0205
  530TIP3    H123149   1.002   0.109   0.466 -0.1080 -1.2378  2.6973
  530TIP3    H223150   0.921   0.235   0.448  2.2709 -0.1080 -1.5007
  531TIP3   OH223151   4.101   3.271   7.446 -0.2929 -0.1825  0.0158
  531TIP3    H123152   4.092   3.220   7.366 -1.2965  2.3738 -1.6322
  531TIP3    H223153   4.041   3.231   7.508 -0.0224 -1.7864 -0.7075
  532TIP3   OH223154   2.649   1.492   8.452 -0.2179  0.1685 -0.5214
  532TIP3    H123155   2.687   1.573   8.420 -0.6607  0.8745  0.6789
  532TIP3    H223156   2.706   1.423   8.417  0.1475  0.9762 -1.5716
  533TIP3   OH223157   2.129   6.694   2.234 -0.0908 -0.3647  0.2468
  533TIP3    H123158   2.137   6.690   2.138  2.2130 -2.1851  0.4260
  533TIP3    H223159   2.208   6.739   2.263  0.2742 -1.6466  1.3539
  534TIP3   OH223160   0.855   0.156   7.419 -0.5793  0.4907  0.0090
  534TIP3    H123161   0.919   0.141   7.350  0.2687  0.8944  0.7001
  534TIP3    H223162   0.782   0.098   7.396  0.2091 -0.3203 -0.5333
  535TIP3   OH223163   4.949   1.282   2.276 -0.0627 -0.5398 -0.0172
  535TIP3    H123164   4.958   1.347   2.346 -0.4536 -1.4700  0.9198
  535TIP3    H223165   4.856   1.260   2.276 -0.1567 -0.2054 -1.1637
  536TIP3   OH223166   1.320   6.111   0.469  0.1727 -0.3574 -0.3141
  536TIP3    H123167   1.293   6.019   0.476  0.0778 -0.3196 -0.1924
  536TIP3    H223168   1.279   6.154   0.544  0.4326 -0.2679 -0.2206
  537TIP3   OH223169   1.986   1.279   7.976 -0.3978  0.2169 -0.4299
  537TIP3    H123170   2.019   1.267   8.065 -1.3727  2.6726  0.3506
  537TIP3    H223171   1.897   1.312   7.987 -1.3365 -1.4074 -2.4091
  538TIP3   OH223172   3.170   3.257   1.027 -0.1916  0.0785  0.4026
  538TIP3    H123173   3.200   3.283   0.940 -2.0819  1.2933  0.0398
  538TIP3    H223174   3.152   3.164   1.020  3.7860 -0.9040  0.8176
  539TIP3   OH223175   6.437   3.645   7.702  0.2141 -0.2320 -0.3315
  539TIP3    H123176   6.412   3.706   7.771  0.6977 -0.9434  0.5021
  539TIP3    H223177   6.531   3.659   7.690  0.6339 -1.7070  0.8464
  540TIP3   OH223178   3.393   3.288   1.420  0.5575 -0.2339  0.2772
  540TIP3    H123179   3.306   3.314   1.451  0.8298 -0.0910  0.9361
  540TIP3    H223180   3.445   3.281   1.500  0.5542 -2.6320  0.1431
  541TIP3   OH223181   3.422   2.646   0.647  0.0386  0.5113  0.6461
  541TIP3    H123182   3.334   2.675   0.624  0.7011  2.4767  0.3717
  541TIP3    H223183   3.472   2.657   0.566  0.7452  0.3397  1.0511
  542TIP3   OH223184   3.565   5.870   7.389  0.2607  0.1446  0.0814
  542TIP3    H123185   3.575   5.796   7.449  0.5979  0.7548  0.8080
  542TIP3    H223186   3.575   5.833   7.302  0.5732 -0.6375  0.4457
  543TIP3   OH223187   6.636   5.469   7.113  0.1734 -0.3768 -0.6833
  543TIP3    H123188   6.624   5.440   7.022 -0.9293 -2.1337 -0.0364
  543TIP3    H223189   6.561   5.431   7.159  0.3737  1.0201  0.8578
  544TIP3   OH223190   4.202   4.043   2.484  0.0655 -0.1770  0.2230
  544TIP3    H123191   4.139   4.047   2.555  0.8291 -0.2771  0.9273
  544TIP3    H223192   4.236   3.953   2.487 -0.2877 -0.3502 -0.6243
  545TIP3   OH223193   2.621   1.429   7.218  0.4192 -0.1704 -0.7287
  545TIP3    H123194   2.616   1.495   7.148  0.8497 -0.2170 -0.8082
  545TIP3    H223195   2.696   1.375   7.194  0.4800 -0.2770 -0.3049
  546TIP3   OH223196   0.025   0.534   0.395  0.2584  0.2056  0.2619
  546TIP3    H123197  -0.064   0.520   0.427 -0.0530 -2.1818 -1.3984
  546TIP3    H223198   0.013   0.565   0.305  1.1202  0.7197  0.3123
  547TIP3   OH223199   2.003   6.121   0.878  0.0656  0.7216  0.0328
  547TIP3    H123200   1.939   6.071   0.827  1.2276 -0.2072 -0.5695
  547TIP3    H223201   1.966   6.126   0.966 -0.3797 -0.6559 -0.0634
  548TIP3   OH223202   4.668   0.328   8.477 -0.1753 -0.0760 -0.0189
  548TIP3    H123203   4.738   0.355   8.536 -0.4709  1.6184 -0.3841
  548TIP3    H223204   4.681   0.381   8.398 -2.3905  0.9996  0.2651
  549TIP3   OH223205   2.265   1.557   0.069 -0.1036 -0.5562 -0.2840
  549TIP3    H123206   2.229   1.585   0.153  0.0711  0.0804 -0.4106
  549TIP3    H223207   2.358   1.542   0.086  0.4216  1.7293 -0.8179
  550TIP3   OH223208   1.620   3.019   6.840 -0.1259 -0.1738 -0.3247
  550TIP3    H123209   1.651   2.969   6.764  0.1517 -0.6319  0.0867
  550TIP3    H223210   1.698   3.059   6.876 -0.1070 -0.7475  0.2896
  551TIP3   OH223211   5.010   3.723   0.071  0.5187  0.1635 -0.1385
  551TIP3    H123212   5.023   3.630   0.092  1.4293  0.3173  0.0244
  551TIP3    H223213   4.937   3.750   0.126 -1.1566 -0.9627 -1.6865
  552TIP3   OH223214   3.167   3.761   7.364  0.3411 -0.5576 -0.3736
  552TIP3    H123215   3.172   3.670   7.393 -0.9915 -0.3776  0.5163
  552TIP3    H223216   3.096   3.761   7.299 -0.2596 -0.0122  0.2725
  553TIP3   OH223217   4.909   3.438   0.605 -0.1784 -0.4232 -0.2094
  553TIP3    H123218   4.848   3.420   0.677  0.9646  0.6073  1.0933
  553TIP3    H223219   4.914   3.356   0.556 -1.7438 -0.8539  0.2860
  554TIP3   OH223220   2.216   4.744   1.487 -0.2537 -0.1773 -0.0589
  554TIP3    H123221   2.121   4.730   1.483 -0.0166 -1.7911 -0.9140
  554TIP3    H223222   2.231   4.823   1.436 -1.2581  0.9622  1.3102
  555TIP3   OH223223   5.664   1.472   0.221 -0.1297  0.4807  0.1250
  555TIP3    H123224   5.733   1.468   0.287 -1.8123 -1.0455  1.9654
  555TIP3    H223225   5.585   1.494   0.271 -1.8522 -2.6344 -0.9387
  556TIP3   OH223226   4.264   3.316   0.104 -0.1845 -0.2246 -0.2895
  556TIP3    H123227   4.326   3.304   0.032 -1.5263 -2.2361 -1.2137
  556TIP3    H223228   4.311   3.371   0.167  1.6391  0.2597 -1.9642
  557TIP3   OH223229   1.355   3.886   7.475  0.0146 -0.1981  0.0507
  557TIP3    H123230   1.334   3.906   7.384 -0.8132  1.0161  0.4843
  557TIP3    H223231   1.270   3.876   7.518  0.3436 -3.4746  0.1957
  558TIP3   OH223232   0.644   4.723   1.661  0.2000 -0.1284  0.0148
  558TIP3    H123233   0.673   4.704   1.572 -0.2406  1.3398 -0.4702
  558TIP3    H223234   0.570   4.782   1.650  0.3782  0.3813  1.3743
  559TIP3   OH223235   6.223   1.592   1.487  0.1448  0.4240  0.3035
  559TIP3    H123236   6.219   1.507   1.530  2.6218  0.7912  1.4481
  559TIP3    H223237   6.281   1.644   1.543 -0.6822  2.6272 -0.7679
  560TIP3   OH223238   1.064   5.341   2.592 -0.6111 -0.0119 -0.0250
  560TIP3    H123239   1.153   5.343   2.558 -0.7480  0.2009 -0.3776
  560TIP3    H223240   1.017   5.283   2.533 -1.1019  1.1691 -0.8438
  561TIP3   OH223241   2.828   2.307   7.993 -0.2643  0.2237  1.3378
  561TIP3    H123242   2.760   2.251   7.956  1.0411 -0.4206 -0.1834
  561TIP3    H223243   2.909   2.276   7.954  0.7865  1.6946  2.2433
  562TIP3   OH223244   1.926   4.721   7.604 -0.3589 -0.4262 -0.4975
  562TIP3    H123245   1.978   4.726   7.684  2.5035  0.3141 -2.2264
  562TIP3    H223246   1.991   4.720   7.534 -2.7144  1.1196 -2.9198
  563TIP3   OH223247   4.332   1.751   0.984  0.1507 -0.3057 -0.2814
  563TIP3    H123248   4.355   1.816   1.051 -0.2090 -0.2148 -0.2412
  563TIP3    H223249   4.319   1.670   1.032 -1.2891  0.0202 -0.0616
  564TIP3   OH223250   2.983   2.604   8.541  0.2947  0.1388  0.1219
  564TIP3    H123251   3.027   2.521   8.560 -0.5651 -0.4721 -0.4449
  564TIP3    H223252   3.047   2.671   8.563  1.3673 -0.7056 -0.3321
  565TIP3   OH223253   4.015   2.314   1.446 -0.7301 -0.8919 -0.5644
  565TIP3    H123254   3.976   2.381   1.503  2.5608 -0.8372  1.8946
  565TIP3    H223255   3.977   2.331   1.360 -2.9380  1.6395  0.7531
  566TIP3   OH223256   0.247   6.312   1.817 -0.1330  0.0237 -0.4337
  566TIP3    H123257   0.185   6.343   1.883 -0.7967 -1.1987 -0.4482
  566TIP3    H223258   0.207   6.337   1.734 -1.5401 -2.2466 -0.5235
  567TIP3   OH223259   5.436   4.753   8.521 -0.1065 -0.2198  0.2477
  567TIP3    H123260   5.491   4.779   8.447 -0.0879  0.3877  0.4653
  567TIP3    H223261   5.350   4.736   8.482  0.2524 -1.2719 -0.1063
  568TIP3   OH223262   6.726   1.821   7.934 -0.0183 -0.1799  0.5253
  568TIP3    H123263   6.682   1.741   7.962 -0.3312 -0.4429 -0.6412
  568TIP3    H223264   6.663   1.864   7.876  0.2245  0.8255  0.9809
  569TIP3   OH223265   4.865   4.494   1.776  0.5091 -0.3712 -0.1652
  569TIP3    H123266   4.812   4.573   1.777  1.5516  0.3628  1.6134
  569TIP3    H223267   4.900   4.489   1.687 -1.1415  0.0440 -0.8682
  570TIP3   OH223268   3.078   6.821   8.131 -0.1771  0.0688  0.2403
  570TIP3    H123269   3.092   6.767   8.053  0.8096 -0.2829  0.6391
  570TIP3    H223270   3.094   6.910   8.101  1.1686 -0.1516  0.2396
  571TIP3   OH223271   3.020   3.913   7.880  0.0690  0.2315 -0.2863
  571TIP3    H123272   2.953   3.974   7.850 -1.3246 -0.8126  0.5767
  571TIP3    H223273   3.068   3.961   7.947  0.4247  1.0978 -1.1350
  572TIP3   OH223274   1.396   4.447   8.427  0.7146 -0.3596  0.0813
  572TIP3    H123275   1.303   4.440   8.408  0.6938 -0.6465  0.2882
  572TIP3    H223276   1.407   4.535   8.463 -0.1540 -1.6127  3.8279
  573TIP3   OH223277   5.554   5.474   2.689  0.5537 -0.1445  0.3024
  573TIP3    H123278   5.552   5.566   2.714 -0.7877 -0.6347  2.2904
  573TIP3    H223279   5.501   5.469   2.610  2.5529  1.0689 -1.2082
  574TIP3   OH223280   4.395   2.895   1.867  0.0673 -0.1255 -0.4626
  574TIP3    H123281   4.480   2.874   1.905 -0.5194  0.0455  1.0085
  574TIP3    H223282   4.409   2.890   1.773  1.3022 -1.6418 -0.2293
  575TIP3   OH223283   1.455   4.602   1.965 -0.1032  0.3716  0.0056
  575TIP3    H123284   1.372   4.573   1.926 -0.8799  1.8804  0.4657
  575TIP3    H223285   1.471   4.688   1.926 -0.2298  1.3417  1.9868
  576TIP3   OH223286   1.785   6.120   1.051 -0.0845  0.5616 -0.1506
  576TIP3    H123287   1.702   6.113   1.003 -0.8371  0.1592  1.1598
  576TIP3    H223288   1.760   6.153   1.137  0.9589 -0.7335  0.6879
  577TIP3   OH223289   5.788   6.703   7.707 -0.3046 -0.5105 -0.0408
  577TIP3    H123290   5.751   6.695   7.795 -2.6034  0.3802 -0.8650
  577TIP3    H223291   5.767   6.792   7.680  4.2667  0.8506  0.0977
  578TIP3   OH223292   2.215   0.884   8.567  0.0112  0.0537  0.5463
  578TIP3    H123293   2.193   0.862   8.477  0.1536 -0.0456  0.5373
  578TIP3    H223294   2.305   0.854   8.579  0.1567  0.4818  0.5787
  579TIP3   OH223295   0.425   1.581   6.669 -0.1364 -0.2987 -0.7891
  579TIP3    H123296   0.514   1.555   6.694 -0.3210 -0.8075 -0.6507
  579TIP3    H223297   0.432   1.675   6.652  0.6153 -0.4779 -1.5905
  580TIP3   OH223298   0.845   3.168   7.618 -0.1554 -0.0199 -0.4076
  580TIP3    H123299   0.894   3.133   7.544 -1.0332  0.0087 -1.0165
  580TIP3    H223300   0.885   3.127   7.695  0.2078 -0.7168 -0.9559
  581TIP3   OH223301   2.594   6.877   8.173  0.0707 -0.2613 -0.4858
  581TIP3    H123302   2.673   6.854   8.124 -0.3963 -0.0243 -1.3724
  581TIP3    H223303   2.570   6.798   8.220  1.3126 -0.1012  0.4889
  582TIP3   OH223304   3.782   4.026   7.080  0.6289  0.5153  0.0398
  582TIP3    H123305   3.744   3.990   7.160 -0.1189 -1.4156 -1.1269
  582TIP3    H223306   3.708   4.065   7.033  1.1586  2.1469  0.5208
  583TIP3   OH223307   3.153   2.655   0.518  0.0051  0.2789  0.0490
  583TIP3    H123308   3.102   2.720   0.470 -2.0494  0.1277  1.8755
  583TIP3    H223309   3.113   2.571   0.495  0.2137  0.0268  0.5939
  584TIP3   OH223310   4.239   1.262   6.510  0.1643 -0.0585 -0.6214
  584TIP3    H123311   4.319   1.306   6.479 -0.4429  1.4767 -0.1366
  584TIP3    H223312   4.190   1.242   6.430  0.6376 -0.2003 -0.8793
  585TIP3   OH223313   1.798   1.472   6.542  0.0942 -0.1135  0.7243
  585TIP3    H123314   1.817   1.410   6.472  0.0448  0.2283  0.4025
  585TIP3    H223315   1.859   1.544   6.527  0.1199 -0.0636  1.0667
  586TIP3   OH223316   6.353   3.509   8.139 -0.0844 -0.0002  0.1596
  586TIP3    H123317   6.264   3.513   8.103 -0.5487 -1.5017  1.0773
  586TIP3    H223318   6.388   3.426   8.109  0.2252 -0.3916  1.5316
  587TIP3   OH223319   0.481   2.669   7.795  0.4168  0.2223  0.0192
  587TIP3    H123320   0.457   2.709   7.878  0.3720 -0.8667  0.5474
  587TIP3    H223321   0.470   2.739   7.730  0.1877  0.9995  0.8843
  588TIP3   OH223322   4.431   6.711   0.956 -0.1099 -0.0643  0.6158
  588TIP3    H123323   4.385   6.743   1.033  0.3877  2.1124  0.0649
  588TIP3    H223324   4.522   6.740   0.969 -0.1127  0.7299 -0.9741
  589TIP3   OH223325   5.863   0.218   7.420  0.4111  0.1343 -0.0676
  589TIP3    H123326   5.854   0.124   7.402 -0.3304  0.2638 -0.4091
  589TIP3    H223327   5.868   0.258   7.333 -0.0588  0.4768  0.0593
  590TIP3   OH223328   6.736   1.241   7.663 -0.5666 -0.3738 -0.2579
  590TIP3    H123329   6.731   1.149   7.689  2.1827 -0.7680 -0.7609
  590TIP3    H223330   6.647   1.264   7.638 -1.1413 -3.2575 -1.2587
  591TIP3   OH223331   1.356   4.068   0.309 -0.1467 -0.2322  0.8196
  591TIP3    H123332   1.360   3.991   0.252  0.5214  0.6365 -0.3539
  591TIP3    H223333   1.406   4.042   0.387 -1.3929 -1.5659  1.2121
  592TIP3   OH223334   5.659   5.216   8.266 -0.5420 -0.0487  0.2117
  592TIP3    H123335   5.589   5.196   8.204 -0.0021 -1.8826  0.1111
  592TIP3    H223336   5.630   5.178   8.349  0.0470 -0.2810  0.3214
  593TIP3   OH223337   0.919   1.370   8.122 -0.2102 -0.1327 -0.2341
  593TIP3    H123338   0.957   1.423   8.051  0.8493 -1.3410 -0.6200
  593TIP3    H223339   0.900   1.286   8.081 -2.6475  0.1523  0.1590
  594TIP3   OH223340   1.243   3.757   0.614 -0.4588  0.7264 -0.1674
  594TIP3    H123341   1.224   3.776   0.522 -0.1717  0.5261 -0.2691
  594TIP3    H223342   1.286   3.671   0.613 -1.8312 -0.0081  0.2885
  595TIP3   OH223343   1.620   5.569   0.592 -0.1437 -0.2045  0.6252
  595TIP3    H123344   1.705   5.607   0.569 -0.7121 -0.0878 -1.4189
  595TIP3    H223345   1.638   5.476   0.604  0.3275 -0.1318  0.5190
  596TIP3   OH223346   5.894   5.176   8.630 -0.2152 -0.5020  0.1615
  596TIP3    H123347   5.895   5.086   8.599  1.2431 -0.0231 -1.3337
  596TIP3    H223348   5.975   5.186   8.680  1.5840  0.8585 -2.7150
  597TIP3   OH223349   5.695   1.674   0.714  0.3637 -0.3638 -0.1207
  597TIP3    H123350   5.665   1.746   0.659  0.3587 -0.0821  0.2434
  597TIP3    H223351   5.622   1.656   0.774  0.7973  0.1329  0.5770
  598TIP3   OH223352   6.672   4.517   0.071 -0.2426 -0.4644  0.7820
  598TIP3    H123353   6.619   4.476   0.004  0.9907 -1.3363  0.3031
  598TIP3    H223354   6.634   4.604   0.083 -1.4459 -0.8857  0.1165
  599TIP3   OH223355   5.242   3.289   0.636 -0.3991  0.3564  0.1746
  599TIP3    H123356   5.291   3.366   0.609 -0.6026  0.4970  0.2095
  599TIP3    H223357   5.218   3.246   0.553  0.7525 -0.3250  0.1725
  600TIP3   OH223358   5.268   1.269   1.655 -0.1811 -0.3254 -0.6031
  600TIP3    H123359   5.227   1.239   1.736  0.1972 -0.4242 -0.4453
  600TIP3    H223360   5.202   1.325   1.614 -0.7594 -1.0760 -0.7240
  601TIP3   OH223361   2.197   5.181   7.707  0.1517 -0.0207  0.4973
  601TIP3    H123362   2.103   5.174   7.691  0.5950 -2.4426 -1.7186
  601TIP3    H223363   2.208   5.151   7.798 -1.0878 -1.4616  0.2172
  602TIP3   OH223364   2.562   6.788   6.857  0.3518 -0.4270  0.1682
  602TIP3    H123365   2.627   6.839   6.906  0.4618 -1.0082  0.6337
  602TIP3    H223366   2.612   6.749   6.785 -0.3542  2.9691 -2.4251
  603TIP3   OH223367   1.690   6.020   2.914  0.2083  0.0565  0.4275
  603TIP3    H123368   1.658   5.954   2.852  1.0962  0.5057 -0.5547
  603TIP3    H223369   1.624   6.023   2.983 -1.6704  0.6798 -1.3129
  604TIP3   OH223370   3.355   1.001   8.456  0.8710 -0.2503  0.0774
  604TIP3    H123371   3.392   0.938   8.518  1.4645  0.8509  0.8912
  604TIP3    H223372   3.285   1.044   8.505  0.0530 -0.7116 -0.6809
  605TIP3   OH223373   0.557   1.807   6.777  0.1383 -0.3635 -0.3266
  605TIP3    H123374   0.652   1.798   6.790  0.2592 -1.2721 -1.7272
  605TIP3    H223375   0.542   1.902   6.781  1.3993 -0.0514 -1.9354
  606TIP3   OH223376   2.526   3.156   8.063 -0.4336 -0.1658 -0.0737
  606TIP3    H123377   2.615   3.152   8.098  0.1607  0.9686 -1.3839
  606TIP3    H223378   2.536   3.138   7.970 -1.7139 -0.9679 -0.0768
  607TIP3   OH223379   0.789   4.990   2.367 -0.3566 -0.1390 -0.4879
  607TIP3    H123380   0.771   4.899   2.391 -1.2287 -0.3599 -1.8714
  607TIP3    H223381   0.702   5.031   2.358 -0.0022  1.5280  2.4309
  608TIP3   OH223382   3.547   0.610   8.051 -0.5732  0.2938  0.3765
  608TIP3    H123383   3.544   0.593   8.145 -0.5436  0.7965  0.4670
  608TIP3    H223384   3.516   0.700   8.041 -1.0197  0.0925 -0.1384
  609TIP3   OH223385   3.893   6.175   2.910  0.4050 -0.4980  0.4911
  609TIP3    H123386   3.862   6.085   2.895 -1.8832  0.3873 -0.5622
  609TIP3    H223387   3.958   6.189   2.842 -0.2244 -0.9327 -0.2228
  610TIP3   OH223388   1.597   6.691   0.327 -0.0189  0.9282 -0.0746
  610TIP3    H123389   1.668   6.721   0.270 -0.0405 -1.6881 -1.6141
  610TIP3    H223390   1.524   6.673   0.268 -0.2447 -1.3274  0.8119
  611TIP3   OH223391   1.459   4.158   7.577 -0.0440  0.5745 -0.2308
  611TIP3    H123392   1.413   4.078   7.553  0.6767  0.4339 -1.1909
  611TIP3    H223393   1.507   4.183   7.498  1.7843  0.5390  0.8071
  612TIP3   OH223394   5.250   1.677   2.573  0.0343 -0.8157  0.3448
  612TIP3    H123395   5.220   1.748   2.517 -0.3788 -0.7815  0.6021
  612TIP3    H223396   5.170   1.632   2.600  0.3579 -2.5479 -1.3140
  613TIP3   OH223397   1.345   0.603   1.027  0.6869  0.4774  0.1360
  613TIP3    H123398   1.258   0.643   1.038  0.2456 -0.6560  0.9591
  613TIP3    H223399   1.346   0.574   0.936  0.4455  1.0511 -0.0553
  614TIP3   OH223400   1.191   1.389   8.465 -0.4154  0.0530  0.3536
  614TIP3    H123401   1.269   1.338   8.488 -1.4084 -1.2375  1.0234
  614TIP3    H223402   1.131   1.375   8.539 -0.5294  2.7173  0.8595
  615TIP3   OH223403   0.029   2.458   7.287  0.0360  0.2640  0.2452
  615TIP3    H123404   0.038   2.483   7.195  0.1238 -0.1136  0.1495
  615TIP3    H223405   0.064   2.369   7.291  0.7035  0.5467  0.7816
  616TIP3   OH223406   2.696   5.730   2.384 -0.0576 -0.6883 -0.1878
  616TIP3    H123407   2.659   5.668   2.446 -0.4687  1.4710  1.8918
  616TIP3    H223408   2.644   5.810   2.397  1.9216  0.8153 -1.0078
  617TIP3   OH223409   2.229   0.168   7.319  0.1057  0.0132 -0.3595
  617TIP3    H123410   2.262   0.102   7.258 -0.6438  0.5225 -1.3645
  617TIP3    H223411   2.303   0.188   7.376  0.6282 -0.9805 -0.6661
  618TIP3   OH223412   6.208   2.243   8.197  0.4379 -0.2172  0.3088
  618TIP3    H123413   6.152   2.168   8.177  1.2497 -0.9397  0.6958
  618TIP3    H223414   6.297   2.209   8.188  0.8107  0.4640  1.3648
  619TIP3   OH223415   2.865   6.727   6.416  0.7566 -0.0679  0.2076
  619TIP3    H123416   2.874   6.812   6.372  1.2431 -0.1547  0.1407
  619TIP3    H223417   2.943   6.678   6.391  0.2559 -0.7118 -0.1351
  620TIP3   OH223418   0.843   4.532   0.554  0.0818  0.3877 -0.6077
  620TIP3    H123419   0.885   4.562   0.474  2.0741 -0.6937 -0.0246
  620TIP3    H223420   0.881   4.446   0.572 -4.0866 -1.8696 -1.2484
  621TIP3   OH223421   5.816   0.588   8.521  0.3975 -0.4799  0.4107
  621TIP3    H123422   5.850   0.519   8.465  1.1455  0.9235 -0.9469
  621TIP3    H223423   5.891   0.616   8.573  0.2454 -0.3096  0.5407
  622TIP3   OH223424   5.634   0.107   1.924  0.4591  0.3581  0.0079
  622TIP3    H123425   5.629   0.202   1.931  0.2068  0.5529 -2.0206
  622TIP3    H223426   5.546   0.076   1.943  0.5613  0.5224  0.7508
  623TIP3   OH223427   4.107   4.671   1.683 -0.6252 -0.1122 -0.3850
  623TIP3    H123428   4.041   4.668   1.752  0.0487  2.5203  0.4862
  623TIP3    H223429   4.102   4.760   1.648  2.1125  0.0493 -0.6077
  624TIP3   OH223430   4.581   3.166   8.460 -0.2635  0.2628  0.4479
  624TIP3    H123431   4.596   3.072   8.453  2.8313  0.7453 -2.7281
  624TIP3    H223432   4.666   3.205   8.440 -1.3729  3.7748  1.8437
  625TIP3   OH223433   4.472   2.235   8.231  0.2248  0.0475 -0.0188
  625TIP3    H123434   4.515   2.184   8.299 -1.3392 -0.6633  0.5027
  625TIP3    H223435   4.422   2.302   8.279  0.9948  1.0910 -0.6206
  626TIP3   OH223436   2.306   2.749   8.599 -0.0728 -0.3624  0.4170
  626TIP3    H123437   2.304   2.658   8.627  2.8897 -0.8973 -0.7306
  626TIP3    H223438   2.352   2.795   8.669  1.8836 -0.5424 -0.6927
  627TIP3   OH223439   0.317   6.045   1.725 -0.1067  0.4430  0.0015
  627TIP3    H123440   0.334   6.081   1.638  0.5690 -2.3509 -1.1291
  627TIP3    H223441   0.222   6.050   1.735 -0.5753 -1.8555 -2.2675
  628TIP3   OH223442   2.180   2.113   7.689 -0.0860 -0.3378  0.1710
  628TIP3    H123443   2.171   2.109   7.594  0.2506 -1.0130  0.1589
  628TIP3    H223444   2.209   2.025   7.714 -1.7128 -0.6584  1.0721
  629TIP3   OH223445   1.903   6.668   0.282 -0.0473 -0.4638  0.3061
  629TIP3    H123446   1.896   6.573   0.267 -0.9418 -0.5711  1.2691
  629TIP3    H223447   1.895   6.677   0.377 -0.4823  0.6168  0.1776
  630TIP3   OH223448   2.136   3.348   0.861  0.4468  0.2846  0.2108
  630TIP3    H123449   2.094   3.412   0.804 -0.6633 -1.2176 -0.7342
  630TIP3    H223450   2.083   3.349   0.941  1.9590  2.3356  1.2964
  631TIP3   OH223451   4.465   1.886   7.894  0.1082 -0.0738 -0.4190
  631TIP3    H123452   4.430   1.814   7.842 -1.7422  1.2888 -1.1574
  631TIP3    H223453   4.544   1.850   7.934 -0.6718 -2.4646 -0.8542
  632TIP3   OH223454   5.265   3.876   8.647  0.2933  0.1406  1.1444
  632TIP3    H123455   5.174   3.857   8.670 -0.3229  0.2594 -1.0448
  632TIP3    H223456   5.270   3.971   8.642  0.4738  0.1260  1.0049
  633TIP3   OH223457   6.212   2.518   0.689  0.1162  0.3018  0.0475
  633TIP3    H123458   6.116   2.520   0.685  0.0489  3.1634  1.0665
  633TIP3    H223459   6.232   2.532   0.781  1.5150  0.0689 -0.2095
  634TIP3   OH223460   2.008   0.898   0.068  0.0813 -0.5773  0.5500
  634TIP3    H123461   2.080   0.896   0.004 -0.3430  0.6859 -0.0004
  634TIP3    H223462   1.940   0.843   0.029 -1.6351  2.9766 -2.0003
  635TIP3   OH223463   5.171   5.375   7.161 -0.3084  0.0011 -0.1801
  635TIP3    H123464   5.236   5.355   7.093 -2.8134  0.0560 -2.7849
  635TIP3    H223465   5.142   5.464   7.142 -0.9465  0.0976  1.1266
  636TIP3   OH223466   1.009   2.430   1.550 -0.0306 -0.2976 -0.1783
  636TIP3    H123467   1.077   2.495   1.530 -1.3442  0.7359 -1.5169
  636TIP3    H223468   0.930   2.466   1.510 -0.9656 -2.3938 -0.3110
  637TIP3   OH223469   2.831   2.389   6.614  0.5242  0.0822 -0.2166
  637TIP3    H123470   2.841   2.410   6.521  1.1088  1.0378  0.0554
  637TIP3    H223471   2.777   2.310   6.615 -0.1938  0.5428 -1.3420
  638TIP3   OH223472   3.881   0.004   0.875 -0.0273  0.0269  0.0951
  638TIP3    H123473   3.836   0.021   0.792 -1.3576  1.0973  0.9827
  638TIP3    H223474   3.902  -0.089   0.873 -2.6291 -0.6279 -0.2420
  639TIP3   OH223475   3.127   3.709   7.746  0.6245 -0.1439 -0.3099
  639TIP3    H123476   3.082   3.772   7.803  1.3267 -0.5755  0.7515
  639TIP3    H223477   3.065   3.692   7.675 -0.1985  0.5519  0.2249
  640TIP3   OH223478   1.633   1.682   7.261  0.7143 -0.1895  0.7854
  640TIP3    H123479   1.633   1.773   7.230 -0.8353 -0.6300 -0.6882
  640TIP3    H223480   1.722   1.667   7.293  1.4180  1.4048 -0.3156
  641TIP3   OH223481   1.773   5.249   7.802 -0.0919  0.8255 -0.5043
  641TIP3    H123482   1.679   5.242   7.787 -0.0622  0.5638 -0.5691
  641TIP3    H223483   1.795   5.170   7.851 -0.8155  3.1642  4.1592
  642TIP3   OH223484   6.028   6.127   8.445  0.3213  0.0038  0.4776
  642TIP3    H123485   6.050   6.217   8.419  0.3252 -0.3566 -0.8714
  642TIP3    H223486   5.983   6.091   8.368 -0.9771 -0.7035  1.5291
  643TIP3   OH223487   5.012   6.704   7.077  0.1674 -0.1761  0.6756
  643TIP3    H123488   5.028   6.655   6.996 -1.4219  0.1490  0.1161
  643TIP3    H223489   4.937   6.660   7.117  0.0528  0.5149  1.2473
  644TIP3   OH223490   3.579   5.940   1.197 -0.1901  0.3550 -0.1089
  644TIP3    H123491   3.563   5.879   1.269 -0.8471 -0.1471 -0.6661
  644TIP3    H223492   3.596   5.884   1.121 -1.4336  0.8370 -0.7743
  645TIP3   OH223493   2.633   0.647   8.023 -0.2403 -0.2958 -0.4471
  645TIP3    H123494   2.695   0.652   7.949  1.7486 -0.3691  1.1158
  645TIP3    H223495   2.627   0.554   8.042 -0.2688 -0.2367 -0.1632
  646TIP3   OH223496   4.741   3.283   7.914  0.8088 -0.6561 -0.0843
  646TIP3    H123497   4.768   3.349   7.851  0.5202  0.0995  0.5657
  646TIP3    H223498   4.782   3.202   7.883  0.4312 -0.3640 -1.3921
  647TIP3   OH223499   4.712   5.169   7.978 -0.2016  0.1002 -0.3785
  647TIP3    H123500   4.711   5.075   7.962  2.2725 -0.4212  1.8805
  647TIP3    H223501   4.737   5.177   8.071 -2.6323  2.9611  0.1765
  648TIP3   OH223502   2.363   4.313   7.144 -0.6212 -0.0963  0.5285
  648TIP3    H123503   2.356   4.324   7.050 -0.4341 -1.2502  0.3687
  648TIP3    H223504   2.452   4.281   7.159 -1.0180 -1.0693  0.9604
  649TIP3   OH223505   6.204   3.188   8.088  0.0718 -0.1905  0.4626
  649TIP3    H123506   6.297   3.208   8.095  0.0191  0.0797  0.4263
  649TIP3    H223507   6.170   3.202   8.176 -0.1373  0.8095  0.2407
  650TIP3   OH223508   0.806   0.787   1.111 -0.3400  0.0495  0.5147
  650TIP3    H123509   0.791   0.707   1.061  1.1952  0.0419  0.0018
  650TIP3    H223510   0.792   0.761   1.202  0.4201 -0.8985  0.3830
  651TIP3   OH223511   3.780   3.606   0.600  0.2548 -0.0507  0.0233
  651TIP3    H123512   3.793   3.685   0.652 -0.3533 -0.2820  0.5346
  651TIP3    H223513   3.844   3.544   0.636  1.3956  0.4982 -1.0111
  652TIP3   OH223514   3.024   5.148   7.551 -0.0195  0.4460 -0.2026
  652TIP3    H123515   2.976   5.232   7.549 -0.0118  0.4387 -0.9766
  652TIP3    H223516   3.034   5.125   7.459 -2.6964 -1.9400 -0.0432
  653TIP3   OH223517   6.675   2.042   0.983 -0.5354 -0.3084  0.6817
  653TIP3    H123518   6.707   2.007   0.900 -2.9269 -0.2866 -0.3252
  653TIP3    H223519   6.582   2.020   0.984 -0.8181  0.7514  2.8244
  654TIP3   OH223520   5.226   2.928   2.343  0.1940  0.1116 -0.8517
  654TIP3    H123521   5.301   2.894   2.392 -1.1229 -0.2156  1.0448
  654TIP3    H223522   5.177   2.980   2.407 -1.5872 -0.3108 -1.8011
  655TIP3   OH223523   2.711   2.357   7.092 -0.3233 -0.2089  0.2197
  655TIP3    H123524   2.763   2.385   7.167 -0.4989  1.2360 -0.1667
  655TIP3    H223525   2.746   2.408   7.018  0.3350 -2.1117 -0.8663
  656TIP3   OH223526   4.422   3.419   7.706 -0.4600 -0.3704 -0.5280
  656TIP3    H123527   4.448   3.455   7.791 -1.4775  0.0769 -0.3912
  656TIP3    H223528   4.488   3.452   7.645 -0.2208  0.0412 -0.0574
  657TIP3   OH223529   2.147   3.963   1.720  0.4945  0.0315  0.3936
  657TIP3    H123530   2.076   4.016   1.756  0.5125  1.2893 -1.2893
  657TIP3    H223531   2.133   3.876   1.757 -1.4676  0.4248  0.7030
  658TIP3   OH223532   0.109   0.618   8.016 -0.4243 -0.2639  0.1940
  658TIP3    H123533   0.138   0.535   8.055  1.4608 -0.1437 -0.8504
  658TIP3    H223534   0.138   0.684   8.079 -0.5438 -0.2928  0.2802
  659TIP3   OH223535   4.047   3.544   7.355 -0.0503  0.6643  0.2723
  659TIP3    H123536   4.078   3.463   7.396 -0.6597  0.4826  0.3845
  659TIP3    H223537   4.063   3.532   7.262 -1.6879 -0.3057  0.0871
  660TIP3   OH223538   5.669   5.992   8.421  0.2051  0.7841  0.8889
  660TIP3    H123539   5.748   5.977   8.368  1.2256 -0.0567  2.5717
  660TIP3    H223540   5.597   5.978   8.360  1.3093  2.5316 -0.9613
  661TIP3   OH223541   5.209   2.031   0.075 -0.0571 -0.2534 -0.2831
  661TIP3    H123542   5.241   2.004  -0.011 -0.1867  1.1545 -0.8005
  661TIP3    H223543   5.117   2.052   0.061  0.4739  2.3143 -0.4118
  662TIP3   OH223544   3.615   0.481   7.630  0.3757  0.7086 -0.4232
  662TIP3    H123545   3.640   0.447   7.544  0.8571  0.5473 -0.2210
  662TIP3    H223546   3.589   0.404   7.680 -1.0036  0.9160 -0.7751
  663TIP3   OH223547   4.684   6.001   0.761 -0.1586 -0.1684 -0.3405
  663TIP3    H123548   4.732   5.996   0.843 -0.6123 -1.5357 -0.1279
  663TIP3    H223549   4.596   5.971   0.783 -0.2091 -0.8415 -1.3648
  664TIP3   OH223550   1.851   4.042   0.467 -0.1125  0.2028 -0.2971
  664TIP3    H123551   1.812   4.105   0.527 -1.7012 -0.2372 -0.8136
  664TIP3    H223552   1.898   3.981   0.524 -2.6960 -1.0107  0.7487
  665TIP3   OH223553   4.400   5.483   8.246 -0.0056 -0.4033  0.3511
  665TIP3    H123554   4.446   5.471   8.330 -0.7441 -0.9212  0.6896
  665TIP3    H223555   4.464   5.456   8.180 -0.6560 -3.9763  0.9327
  666TIP3   OH223556   0.522   1.910   0.056 -0.3325  0.8561  0.5255
  666TIP3    H123557   0.488   1.938  -0.028  0.1747  1.1128  0.3994
  666TIP3    H223558   0.446   1.907   0.114 -0.5078  1.8476  0.3640
  667TIP3   OH223559   6.125   0.041   8.380  0.9494  1.1271 -0.2896
  667TIP3    H123560   6.059  -0.018   8.346  1.1815  1.3692 -1.1692
  667TIP3    H223561   6.204  -0.013   8.389  0.9220  1.0947 -0.2417
  668TIP3   OH223562   1.278   0.105   2.418 -0.0821  0.1268  0.0436
  668TIP3    H123563   1.208   0.127   2.356  0.6536  0.8182 -0.5689
  668TIP3    H223564   1.235   0.101   2.503 -0.8829  0.4677 -0.3364
  669TIP3   OH223565   0.951   2.774   0.033  0.3668  0.7540 -0.1919
  669TIP3    H123566   1.010   2.760   0.107  0.6974  0.8194 -0.4392
  669TIP3    H223567   0.991   2.845  -0.017  0.8740 -0.1897 -1.1632
  670TIP3   OH223568   3.394   3.132   0.227 -0.5189 -0.2212  0.1230
  670TIP3    H123569   3.377   3.038   0.229  3.5211 -1.2111 -1.4299
  670TIP3    H223570   3.366   3.160   0.140 -1.0469 -0.1387  0.3175
  671TIP3   OH223571   1.341   2.599   8.138 -0.2068 -0.6679  0.2041
  671TIP3    H123572   1.365   2.607   8.230  1.5538  1.7786 -0.3622
  671TIP3    H223573   1.315   2.687   8.112  0.7922 -0.9527 -1.9745
  672TIP3   OH223574   2.629   6.552   1.711 -0.3769 -0.0446 -0.5624
  672TIP3    H123575   2.671   6.544   1.625 -0.7021 -1.3084 -0.6217
  672TIP3    H223576   2.539   6.578   1.691 -0.2848  0.2689 -0.5694
  673TIP3   OH223577   0.254   6.679   1.474 -0.2836  0.0914  0.2251
  673TIP3    H123578   0.208   6.755   1.511  0.6902  0.5742  0.4780
  673TIP3    H223579   0.199   6.605   1.497  0.9941  0.1236  4.2292
  674TIP3   OH223580   0.612   4.073   2.687  0.2603  0.2844 -0.2772
  674TIP3    H123581   0.526   4.097   2.650  0.3347  0.2344 -0.4855
  674TIP3    H223582   0.662   4.042   2.611  1.0946  2.0664 -0.5146
  675TIP3   OH223583   3.324   3.999   3.007 -0.8079 -0.2977 -0.2695
  675TIP3    H123584   3.244   3.964   3.047 -1.6426  1.7394 -0.0082
  675TIP3    H223585   3.316   3.975   2.914 -1.0382 -1.2673 -0.0124
  676TIP3   OH223586   1.180   1.241   0.360  0.0742 -0.4368  0.3785
  676TIP3    H123587   1.090   1.214   0.342 -0.2816  1.2870 -0.6026
  676TIP3    H223588   1.184   1.333   0.335  2.2898 -0.6352 -0.2569
  677TIP3   OH223589   1.493   3.020   7.294  0.3741  0.2176 -0.0306
  677TIP3    H123590   1.410   3.007   7.340  0.1651  0.2499 -0.3937
  677TIP3    H223591   1.511   2.935   7.255 -0.0236  0.4880 -0.8220
  678TIP3   OH223592   5.866   5.368   7.158 -0.4034  0.0079 -0.3214
  678TIP3    H123593   5.774   5.346   7.173 -0.1620  1.1353  4.4069
  678TIP3    H223594   5.865   5.460   7.134 -0.4984 -0.3890 -1.9677
  679TIP3   OH223595   0.419   5.896   1.312 -0.1968  0.2794  0.3532
  679TIP3    H123596   0.470   5.815   1.308 -1.0629 -0.2519 -0.6313
  679TIP3    H223597   0.432   5.937   1.226 -0.6861  0.5949  0.4259
  680TIP3   OH223598   4.413   1.887   0.260 -0.2316 -0.2139 -0.4837
  680TIP3    H123599   4.374   1.822   0.201 -1.6059 -0.4944  0.6880
  680TIP3    H223600   4.390   1.971   0.221 -1.6915 -0.3826 -0.0673
  681TIP3   OH223601   5.740   6.080   7.163 -0.3034 -0.0561 -0.2424
  681TIP3    H123602   5.689   6.138   7.107 -0.3080 -0.2011 -0.3905
  681TIP3    H223603   5.675   6.027   7.209 -0.3659  1.1287  1.0871
  682TIP3   OH223604   6.530   4.002   1.875  0.0042 -0.0394 -0.1003
  682TIP3    H123605   6.533   3.996   1.970 -1.6140 -1.0029 -0.0671
  682TIP3    H223606   6.440   3.979   1.853 -0.3074  2.4103 -1.7314
  683TIP3   OH223607   0.344   3.366   8.650 -0.1365 -0.0073  0.3022
  683TIP3    H123608   0.355   3.322   8.734  0.6031  0.8555  0.6744
  683TIP3    H223609   0.255   3.401   8.653  0.3918  1.3315  1.3981
  684TIP3   OH223610   4.533   5.372   8.015  0.3256  0.5821  0.3180
  684TIP3    H123611   4.602   5.439   8.020  1.9024 -0.9955  0.6076
  684TIP3    H223612   4.580   5.290   8.001 -1.4962 -0.6026  0.8254
  685TIP3   OH223613   4.712   0.594   2.587  0.6984  0.1810  0.1642
  685TIP3    H123614   4.670   0.662   2.535  0.6522 -0.1836 -0.2868
  685TIP3    H223615   4.781   0.559   2.529  1.7506  0.8816  0.9495
  686TIP3   OH223616   3.382   5.696   1.089 -0.2339 -1.1214 -0.2435
  686TIP3    H123617   3.478   5.695   1.086 -0.0490  1.7915  0.9351
  686TIP3    H223618   3.355   5.720   1.000  0.2683 -0.3200 -0.1961
  687TIP3   OH223619   1.917   0.589   7.051 -0.0022 -0.2402 -0.2465
  687TIP3    H123620   1.873   0.578   6.967 -1.0976  2.1765 -0.0813
  687TIP3    H223621   1.984   0.520   7.053 -1.1037 -1.4577 -2.2941
  688TIP3   OH223622   0.182   1.172   8.463 -0.1445  0.0121  0.3525
  688TIP3    H123623   0.106   1.115   8.467 -0.9409  1.0388  0.2180
  688TIP3    H223624   0.253   1.115   8.432 -0.5554 -1.2324  1.6181
  689TIP3   OH223625   4.103   4.359   7.597  1.1472 -0.1004 -0.3728
  689TIP3    H123626   4.195   4.376   7.574  1.3643  1.9075  1.5612
  689TIP3    H223627   4.085   4.422   7.667 -2.3158  0.9345 -1.9904
  690TIP3   OH223628   4.195   4.630   0.282 -0.0243 -0.2198  0.0897
  690TIP3    H123629   4.102   4.614   0.269  0.1559 -1.2086 -0.0610
  690TIP3    H223630   4.221   4.685   0.208 -0.4666 -0.0208  0.0809
  691TIP3   OH223631   4.693   5.741   7.467 -0.0280 -0.3078  0.3603
  691TIP3    H123632   4.667   5.770   7.554  1.9515 -2.3494  1.7559
  691TIP3    H223633   4.628   5.674   7.444 -0.3641  0.0058  0.3752
  692TIP3   OH223634   2.635   4.500   7.382  0.3466  0.2179 -0.4884
  692TIP3    H123635   2.719   4.499   7.427 -0.0654  0.2779  0.2934
  692TIP3    H223636   2.654   4.461   7.296  1.2872  0.7805 -0.5536
  693TIP3   OH223637   5.445   5.207   7.693  0.0291 -0.0037  0.0112
  693TIP3    H123638   5.470   5.287   7.740  0.3464 -0.5245  0.7569
  693TIP3    H223639   5.379   5.167   7.750 -0.4468 -0.0593 -0.5729
  694TIP3   OH223640   2.196   3.174   6.695 -0.1045  0.2850 -0.3052
  694TIP3    H123641   2.268   3.125   6.654  1.4135 -0.0237  2.4576
  694TIP3    H223642   2.238   3.250   6.734 -1.0350 -0.3575  2.1591
  695TIP3   OH223643   3.640   3.281   8.001  0.5585  0.1859  0.7654
  695TIP3    H123644   3.680   3.271   8.087  4.6827  1.5101 -0.7463
  695TIP3    H223645   3.588   3.361   8.008  2.1697  1.2067  1.6813
  696TIP3   OH223646   2.359   0.087   6.712  0.2848  0.2528 -0.1723
  696TIP3    H123647   2.427   0.026   6.742 -0.3681 -1.1626 -1.4127
  696TIP3    H223648   2.390   0.119   6.627 -0.2670  0.1319 -0.4264
  697TIP3   OH223649   0.200   6.399   2.275  0.6003 -0.4496  0.1467
  697TIP3    H123650   0.229   6.311   2.249  3.1966 -0.2059  1.9255
  697TIP3    H223651   0.150   6.385   2.355  1.3503 -0.2968  0.6499
  698TIP3   OH223652   0.417   2.409   8.260  0.2116  0.3012  0.5939
  698TIP3    H123653   0.493   2.364   8.298  1.8618  3.0927  0.8844
  698TIP3    H223654   0.433   2.502   8.278 -1.7535  1.2757 -2.0475
  699TIP3   OH223655   2.576   4.545   7.736  0.2085 -0.4762  0.6930
  699TIP3    H123656   2.654   4.582   7.693  0.7005 -0.9499  1.1605
  699TIP3    H223657   2.577   4.583   7.823  0.2077 -0.8916  0.8745
  700TIP3   OH223658   6.639   1.563   1.783 -0.2940 -0.8509  0.3238
  700TIP3    H123659   6.735   1.570   1.786 -0.2680 -1.6058  1.6020
  700TIP3    H223660   6.610   1.652   1.763  0.5890 -0.0996  2.1802
  701TIP3   OH223661   3.741   6.658   1.019  0.4204  0.2008 -0.1317
  701TIP3    H123662   3.718   6.745   0.988  0.2405 -0.5140 -2.1359
  701TIP3    H223663   3.657   6.617   1.040  0.4220  0.1134 -0.2984
  702TIP3   OH223664   0.194   5.475   1.791 -0.0165  0.1953  0.7142
  702TIP3    H123665   0.260   5.542   1.811  0.0978  0.5419 -0.7071
  702TIP3    H223666   0.243   5.393   1.790  0.0970  0.2570  1.1973
  703TIP3   OH223667   0.261   2.851   0.802 -0.7916  0.4816 -0.5941
  703TIP3    H123668   0.216   2.931   0.830 -0.5432  0.2535  0.5019
  703TIP3    H223669   0.196   2.782   0.815 -1.3749  0.5858 -2.5180
  704TIP3   OH223670   2.034   4.370   8.089 -0.0453  0.5371 -0.1610
  704TIP3    H123671   1.962   4.308   8.095  0.4565  0.0603  1.2210
  704TIP3    H223672   2.085   4.356   8.169 -0.5246  3.4969  0.7621
  705TIP3   OH223673   3.651   0.217   8.586  0.0668 -0.0961 -0.4330
  705TIP3    H123674   3.594   0.152   8.628  1.5989 -0.4038  1.2726
  705TIP3    H223675   3.670   0.179   8.500 -0.2739 -1.1889 -0.0539
  706TIP3   OH223676   1.320   5.391   2.067  0.0424 -0.0007  1.1591
  706TIP3    H123677   1.255   5.376   2.136 -0.7804 -0.2650  0.3404
  706TIP3    H223678   1.277   5.451   2.006  1.1342  1.0416  1.3747
  707TIP3   OH223679   1.189   1.106   1.775  0.4534  0.2388  0.0417
  707TIP3    H123680   1.250   1.066   1.713 -0.4708 -1.5744  0.2226
  707TIP3    H223681   1.148   1.178   1.726  3.2750  2.0923  0.1941
  708TIP3   OH223682   3.863   5.060   2.285 -0.3590 -0.3432  0.1116
  708TIP3    H123683   3.928   5.126   2.308 -0.2787  0.0323 -1.1232
  708TIP3    H223684   3.780   5.097   2.313 -0.3772  0.5417 -1.0507
  709TIP3   OH223685   5.879   5.476   2.816 -0.2067 -0.0841  0.0846
  709TIP3    H123686   5.798   5.428   2.834 -0.0480 -0.7116 -0.8255
  709TIP3    H223687   5.946   5.408   2.808  0.4017  0.4211  0.7151
  710TIP3   OH223688   3.357   6.329   7.129 -0.2034 -0.0713  0.3780
  710TIP3    H123689   3.420   6.256   7.129 -0.6065 -0.5678  3.9485
  710TIP3    H223690   3.412   6.407   7.136  0.1066 -0.3225  0.8335
  711TIP3   OH223691   5.556   2.523   8.365 -0.4597  0.4810  0.3787
  711TIP3    H123692   5.625   2.459   8.383  1.1128  1.7504 -0.8831
  711TIP3    H223693   5.505   2.525   8.446  1.2488 -0.1963  1.5442
  712TIP3   OH223694   0.489   2.777   1.943  0.3499 -0.6093  0.0611
  712TIP3    H123695   0.446   2.699   1.909  0.3446 -1.3493  1.6734
  712TIP3    H223696   0.527   2.749   2.026 -1.6426  1.6878  1.8652
  713TIP3   OH223697   5.261   5.127   7.879 -0.3601  0.6357  0.0124
  713TIP3    H123698   5.197   5.089   7.819 -1.5306 -0.4958  1.9033
  713TIP3    H223699   5.293   5.053   7.931 -0.9841  1.8250  2.2239
  714TIP3   OH223700   5.733   2.593   8.043 -0.1897 -0.1503  0.2580
  714TIP3    H123701   5.705   2.561   7.957 -0.4344  0.8359 -0.0338
  714TIP3    H223702   5.655   2.632   8.082  0.0412 -0.1408  0.7232
  715TIP3   OH223703   5.301   5.041   8.433  1.2027  0.2630 -0.1494
  715TIP3    H123704   5.224   5.066   8.483 -0.0705  2.1879 -2.8185
  715TIP3    H223705   5.287   4.949   8.410 -1.1679  0.9603 -1.8438
  716TIP3   OH223706   3.380   2.258   0.365  0.3319 -0.5244  0.5677
  716TIP3    H123707   3.358   2.203   0.290 -0.6145  0.6153 -0.0197
  716TIP3    H223708   3.296   2.274   0.408  0.5071  0.9256  0.3978
  717TIP3   OH223709   2.388   0.578   7.514 -0.0450 -0.2966  0.4670
  717TIP3    H123710   2.387   0.633   7.591  2.4282  0.2231  0.2167
  717TIP3    H223711   2.301   0.539   7.511 -1.2365  2.0496  1.7417
  718TIP3   OH223712   2.529   6.489   2.462 -0.2423 -0.2098  0.1563
  718TIP3    H123713   2.480   6.504   2.381 -0.0239 -0.8774 -0.1047
  718TIP3    H223714   2.620   6.480   2.434 -0.1387 -0.2598  0.4983
  719TIP3   OH223715   0.088   5.157   2.020 -0.0826  0.2004 -0.6519
  719TIP3    H123716   0.070   5.163   2.114 -0.8249  0.4133 -0.8053
  719TIP3    H223717   0.181   5.178   2.012  0.0418 -0.0428  0.0573
  720TIP3   OH223718   1.562   1.104   7.880 -0.3219 -0.0595 -0.2483
  720TIP3    H123719   1.601   1.161   7.815 -1.3656 -0.5737 -1.3696
  720TIP3    H223720   1.610   1.123   7.961  0.7840  0.8192 -1.0812
  721TIP3   OH223721   1.700   1.777   7.564  0.6167  0.0367  0.5966
  721TIP3    H123722   1.777   1.778   7.508  0.3868 -0.0735  0.2711
  721TIP3    H223723   1.716   1.708   7.628  2.2011  2.0973  2.5733
  722TIP3   OH223724   3.537   5.508   0.725 -0.0719 -0.3651  0.1766
  722TIP3    H123725   3.567   5.565   0.655 -0.4107 -0.4161 -0.0109
  722TIP3    H223726   3.449   5.481   0.699 -0.4184  0.0611  0.8917
  723TIP3   OH223727   3.797   3.094   0.093 -0.3732  0.3655 -0.0966
  723TIP3    H123728   3.730   3.145   0.047  0.7934  0.6267 -1.6059
  723TIP3    H223729   3.857   3.160   0.129  0.3220  0.1171 -0.7650
  724TIP3   OH223730   4.533   0.387   2.394  0.1659 -0.0740  0.5352
  724TIP3    H123731   4.612   0.410   2.443 -0.2658 -0.8149  1.6111
  724TIP3    H223732   4.462   0.427   2.443 -0.1884  0.0613 -0.0807
  725TIP3   OH223733   3.100   5.045   0.669 -0.6785  0.9158 -0.6325
  725TIP3    H123734   3.014   5.012   0.643 -1.0757  1.3702  0.0586
  725TIP3    H223735   3.108   5.129   0.624  0.8859 -0.5862 -3.4416
  726TIP3   OH223736   5.281   5.351   1.461 -0.2597 -0.1331 -0.4090
  726TIP3    H123737   5.194   5.336   1.425 -0.5007  0.2127  0.0229
  726TIP3    H223738   5.283   5.444   1.482  0.1194 -0.1922 -0.1707
  727TIP3   OH223739   1.294   0.098   1.171  0.1374 -0.2342  0.1159
  727TIP3    H123740   1.226   0.119   1.106 -0.6222 -1.6565  0.3982
  727TIP3    H223741   1.257   0.128   1.254 -0.1395 -0.9503  0.2603
  728TIP3   OH223742   5.438   5.616   7.285 -0.0974  0.0587  0.0830
  728TIP3    H123743   5.498   5.649   7.218 -0.3795  0.4614  0.0250
  728TIP3    H223744   5.380   5.690   7.304 -1.0072 -0.5258 -0.3491
  729TIP3   OH223745   6.759   6.495   8.342 -0.2096  0.5533  0.2636
  729TIP3    H123746   6.772   6.417   8.396 -0.6905  0.1875 -0.1414
  729TIP3    H223747   6.664   6.506   8.338 -0.1633  0.7987 -0.1875
  730TIP3   OH223748   0.155   6.787   2.093  0.1116  0.1403  0.0061
  730TIP3    H123749   0.133   6.740   2.013 -0.0979 -0.7857  0.5969
  730TIP3    H223750   0.210   6.860   2.064 -1.1683  0.6994 -1.1550
  731TIP3   OH223751   4.158   4.666   2.061 -0.1176  0.0713 -0.5791
  731TIP3    H123752   4.128   4.610   2.133  0.7321  1.0215  0.5464
  731TIP3    H223753   4.237   4.624   2.029 -0.6050 -0.4603 -1.1111
  732TIP3   OH223754   5.413   2.563   1.599  0.5941  0.4203 -0.1409
  732TIP3    H123755   5.423   2.599   1.687 -0.3563  0.3226  0.0162
  732TIP3    H223756   5.332   2.512   1.603  1.5164 -1.1367 -0.5580
  733TIP3   OH223757   2.847   4.596   2.095  0.3738 -0.0281  0.1738
  733TIP3    H123758   2.937   4.584   2.125  0.0255 -2.0512  0.5832
  733TIP3    H223759   2.845   4.557   2.008  0.2461  1.5451 -0.5729
  734TIP3   OH223760   2.701   1.795   7.263 -0.1764 -0.2317 -0.1539
  734TIP3    H123761   2.682   1.759   7.176  4.7435 -0.0796 -1.6298
  734TIP3    H223762   2.708   1.718   7.320  0.7853 -0.7928 -0.9923
  735TIP3   OH223763   6.086   3.938   1.790  0.6795 -0.3579  0.2777
  735TIP3    H123764   6.131   3.959   1.708  2.7043 -2.7374  0.6431
  735TIP3    H223765   6.106   4.010   1.849 -0.3708  1.1338 -1.1157
  736TIP3   OH223766   2.515   4.310   8.000 -0.4290  0.2011 -0.1582
  736TIP3    H123767   2.503   4.278   7.911 -1.4223  0.5127 -0.1392
  736TIP3    H223768   2.610   4.302   8.015 -0.0009  1.6003 -1.7906
  737TIP3   OH223769   5.550   0.270   6.994  0.5750 -0.2518  0.4852
  737TIP3    H123770   5.591   0.211   7.058  0.7437 -2.1581 -1.2896
  737TIP3    H223771   5.622   0.295   6.936  0.1283  0.2528  0.1497
  738TIP3   OH223772   6.308   0.495   7.597  0.0204 -0.1950 -0.1853
  738TIP3    H123773   6.392   0.538   7.584  0.4858 -0.3189  1.9949
  738TIP3    H223774   6.303   0.479   7.692 -2.1078 -0.9027 -0.3472
  739TIP3   OH223775   4.684   3.568   1.912 -0.0759  0.0184  0.1615
  739TIP3    H123776   4.690   3.561   2.007 -0.6060  4.0825  0.6866
  739TIP3    H223777   4.762   3.524   1.879 -0.9874 -3.5081  2.1759
  740TIP3   OH223778   2.929   1.907   6.898 -0.5056  0.0731 -0.0628
  740TIP3    H123779   2.867   1.881   6.829 -0.2476 -2.9102  0.7355
  740TIP3    H223780   2.881   1.893   6.980  0.3967  0.1210  0.4810
  741TIP3   OH223781   4.855   5.038   0.207  0.5915  0.0846 -0.6592
  741TIP3    H123782   4.915   5.078   0.271  2.1697 -1.0645 -1.3454
  741TIP3    H223783   4.833   4.953   0.245 -1.9309  1.0725  0.3114
  742TIP3   OH223784   1.755   6.627   2.770  0.0133 -0.4019 -0.1825
  742TIP3    H123785   1.717   6.656   2.852  2.4343 -0.1384  0.9416
  742TIP3    H223786   1.706   6.673   2.703  0.6078  2.6826  1.3310
  743TIP3   OH223787   3.973   2.026   0.123 -0.3059  0.5550 -0.0233
  743TIP3    H123788   3.940   2.001   0.210  1.0540  0.1144  0.3987
  743TIP3    H223789   3.923   1.973   0.062  0.1725 -0.7316  0.6489
  744TIP3   OH223790   1.983   3.981   6.957 -0.2678  0.2543  0.2769
  744TIP3    H123791   1.933   3.909   6.918  0.0004 -0.1891  0.7530
  744TIP3    H223792   2.061   3.988   6.903  0.4317 -0.8057  1.1124
  745TIP3   OH223793   1.193   3.276   0.303  0.2319  0.2616 -0.3286
  745TIP3    H123794   1.249   3.254   0.378  0.1034 -1.3050 -0.6605
  745TIP3    H223795   1.105   3.252   0.331  0.2816 -1.0350 -1.2385
  746TIP3   OH223796   4.296   5.349   8.527 -0.0187 -0.5298  0.1408
  746TIP3    H123797   4.227   5.328   8.591 -1.3405 -0.1362 -1.1065
  746TIP3    H223798   4.250   5.395   8.457  1.5017 -0.4551 -0.8382
  747TIP3   OH223799   6.215   0.564   8.504  0.1233 -0.4941  0.5473
  747TIP3    H123800   6.225   0.469   8.498 -1.3490 -0.5906 -1.7339
  747TIP3    H223801   6.303   0.596   8.522  1.1367 -2.1753 -1.0185
  748TIP3   OH223802   2.043   6.544   1.515 -0.6270  0.1685 -0.1730
  748TIP3    H123803   2.085   6.576   1.435 -1.1065 -0.1116 -0.5400
  748TIP3    H223804   1.954   6.523   1.490 -1.5536  2.3991  1.0034
  749TIP3   OH223805   5.672   3.193   8.480  0.9184  0.1340  0.0951
  749TIP3    H123806   5.597   3.144   8.446  0.6123  0.6922 -0.0564
  749TIP3    H223807   5.729   3.127   8.518 -0.9906 -0.0805  2.8349
  750TIP3   OH223808   6.057   2.671   7.341  0.0118  0.9315  0.5176
  750TIP3    H123809   6.055   2.630   7.255  1.2980  1.2724  0.3137
  750TIP3    H223810   6.013   2.755   7.329 -0.8365  0.5011  0.4822
  751TIP3   OH223811   5.750   3.043   1.904  0.0544  0.4599  0.3655
  751TIP3    H123812   5.830   2.992   1.911  0.3828  0.9319  0.1144
  751TIP3    H223813   5.732   3.073   1.993 -0.3221 -0.3598  0.5717
  752TIP3   OH223814   6.327   4.835   2.318  0.0974 -0.4039 -0.8132
  752TIP3    H123815   6.315   4.793   2.403 -1.6113  1.2455 -0.1474
  752TIP3    H223816   6.399   4.788   2.277  0.8083 -1.4133  1.4470
  753TIP3   OH223817   5.902   6.401   7.612  0.0625 -0.3911 -0.7949
  753TIP3    H123818   5.896   6.384   7.706 -1.4736 -0.0265 -0.7936
  753TIP3    H223819   5.995   6.415   7.596  0.2831  0.2803  0.8130
  754TIP3   OH223820   5.747   5.669   1.392  0.0121  0.1445  0.6401
  754TIP3    H123821   5.687   5.598   1.414 -0.8422  1.0572  1.3773
  754TIP3    H223822   5.769   5.709   1.476  0.5382  0.7044  0.2470
  755TIP3   OH223823   5.727   3.977   1.574  0.1599 -0.3428 -0.4926
  755TIP3    H123824   5.695   3.904   1.628 -1.6166  0.3868 -0.4888
  755TIP3    H223825   5.648   4.022   1.545  1.1785  2.5741  0.8236
  756TIP3   OH223826   4.336   3.906   7.801  0.1920 -0.5030 -0.1977
  756TIP3    H123827   4.391   3.954   7.863  1.8495 -0.0404 -1.9072
  756TIP3    H223828   4.279   3.973   7.763 -1.2490 -0.8915  1.2012
  757TIP3   OH223829   3.699   3.085   1.134  0.2461 -0.4133  0.4195
  757TIP3    H123830   3.765   3.056   1.071  0.8572  0.3241  0.7116
  757TIP3    H223831   3.617   3.084   1.084  0.1078 -3.1413  0.5504
  758TIP3   OH223832   5.204   4.150   0.861 -0.3317 -0.3753  0.4509
  758TIP3    H123833   5.234   4.061   0.841  2.5206  0.4263  0.6343
  758TIP3    H223834   5.152   4.140   0.941  0.7978 -1.7939  1.0707
  759TIP3   OH223835   2.357   2.347   0.953 -0.5329 -0.2570  0.4542
  759TIP3    H123836   2.401   2.354   1.038  0.6531  1.3325 -0.2400
  759TIP3    H223837   2.264   2.344   0.974 -0.2362 -0.4799  1.8284
  760TIP3   OH223838   6.185   3.357   8.452  0.6833 -0.1139  0.0583
  760TIP3    H123839   6.107   3.313   8.417  0.7587 -0.6397  0.5340
  760TIP3    H223840   6.150   3.428   8.506  0.5683  0.7666 -1.1346
  761TIP3   OH223841   4.777   0.488   7.504  0.8052  0.0753 -0.2268
  761TIP3    H123842   4.749   0.402   7.475  1.1404  0.8625 -3.2655
  761TIP3    H223843   4.707   0.519   7.561 -0.8436 -0.9871 -1.5906
  762TIP3   OH223844   5.172   1.239   1.156 -0.4470 -0.5381  0.1517
  762TIP3    H123845   5.132   1.285   1.230 -1.3076  0.0138 -0.6285
  762TIP3    H223846   5.098   1.214   1.101  0.1488 -1.3562 -0.3007
  763TIP3   OH223847   0.623   2.390   2.631 -0.5340 -1.2575  0.3846
  763TIP3    H123848   0.628   2.472   2.582  0.4346 -1.3191  0.3511
  763TIP3    H223849   0.533   2.386   2.663 -0.3305  0.3438  1.2737
  764TIP3   OH223850   3.478   0.692   1.450  0.5773  0.2913 -0.0655
  764TIP3    H123851   3.542   0.657   1.512 -0.0674  2.1644  1.7537
  764TIP3    H223852   3.516   0.774   1.420  0.0397  0.2938 -0.7753
  765TIP3   OH223853   4.422   4.865   8.395 -0.2770  0.4229 -0.0022
  765TIP3    H123854   4.363   4.833   8.464  0.8364 -1.1279  0.2676
  765TIP3    H223855   4.445   4.787   8.344  1.0744  1.0843 -0.4584
  766TIP3   OH223856   0.575   2.156   7.623 -0.1335  0.4341 -0.0887
  766TIP3    H123857   0.606   2.168   7.713  0.7715  0.2091 -0.3631
  766TIP3    H223858   0.653   2.163   7.569 -0.4295 -0.8979 -0.7418
  767TIP3   OH223859   3.152   5.975   0.975 -0.0277  0.2855 -0.4151
  767TIP3    H123860   3.158   5.880   0.965  3.2987  0.1504  1.3073
  767TIP3    H223861   3.158   6.009   0.885  0.7304 -1.1237 -0.9340
  768TIP3   OH223862   3.044   4.523   6.776 -0.2714  0.0166  0.1552
  768TIP3    H123863   3.002   4.567   6.850 -2.8079 -0.8307 -0.6753
  768TIP3    H223864   3.080   4.594   6.723  0.3978  0.7078  1.4849
  769TIP3   OH223865   2.539   1.625   0.352  0.1399  0.0058  0.7592
  769TIP3    H123866   2.515   1.537   0.380 -3.2109  0.3951 -0.3634
  769TIP3    H223867   2.469   1.681   0.387  0.8693  1.8373 -0.5312
  770TIP3   OH223868   4.736   5.554   7.912  0.3542  0.4913 -0.4377
  770TIP3    H123869   4.811   5.493   7.909  0.1085  0.1552  0.1778
  770TIP3    H223870   4.757   5.614   7.983 -0.5734 -0.4362  0.6749
  771TIP3   OH223871   5.389   5.320   7.001 -0.2894  0.5437  0.1593
  771TIP3    H123872   5.375   5.226   7.013 -2.9309  0.7756 -0.4418
  771TIP3    H223873   5.461   5.341   7.061  0.7453 -1.9193 -0.0936
  772TIP3   OH223874   0.779   1.922   1.931  0.2490 -0.0348 -0.4021
  772TIP3    H123875   0.685   1.929   1.915  0.0767  1.8077  1.1281
  772TIP3    H223876   0.797   1.988   1.998  2.4390 -1.1753  0.2108
  773TIP3   OH223877   2.072   2.839   8.268 -0.5253 -0.1502 -0.4025
  773TIP3    H123878   2.008   2.802   8.207  1.0650 -0.1238 -2.1996
  773TIP3    H223879   2.028   2.914   8.307 -1.7294 -0.4038 -1.2189
  774TIP3   OH223880   5.800   1.683   0.118  0.1435  0.2693  0.4505
  774TIP3    H123881   5.733   1.621   0.146  0.7358 -0.4736  0.2323
  774TIP3    H223882   5.876   1.629   0.095  0.0887  0.9234 -1.4708
  775TIP3   OH223883   5.972   2.429   1.649 -0.4287  0.2059 -0.5075
  775TIP3    H123884   6.028   2.450   1.724  1.6664 -0.5719 -1.7693
  775TIP3    H223885   5.883   2.436   1.683  0.3504  2.4997  1.3548
  776TIP3   OH223886   1.275   2.556   8.668  0.5139 -0.1134  1.1385
  776TIP3    H123887   1.302   2.647   8.674 -1.4513  0.5187  1.1618
  776TIP3    H223888   1.282   2.523   8.758  1.0686  0.0396  1.1578
  777TIP3   OH223889   4.887   2.970   8.468 -0.4028 -0.2896 -0.5069
  777TIP3    H123890   4.945   3.025   8.521 -1.4949  1.7889 -1.3528
  777TIP3    H223891   4.945   2.905   8.429  0.9502  0.2423  0.5297
  778TIP3   OH223892   4.557   4.358   2.116  0.2554  0.3123 -0.4873
  778TIP3    H123893   4.608   4.326   2.191 -1.4963 -1.2396  0.1578
  778TIP3    H223894   4.600   4.438   2.089  1.9717 -0.0105  1.0946
  779TIP3   OH223895   4.352   1.198   1.187 -0.6597  0.3142  0.1711
  779TIP3    H123896   4.383   1.139   1.119 -0.0087  1.2257 -0.3448
  779TIP3    H223897   4.286   1.148   1.235 -0.9143 -0.4438 -0.9399
  780TIP3   OH223898   2.526   3.107   1.495 -0.2000  0.4225  0.2294
  780TIP3    H123899   2.620   3.121   1.506  0.0235 -1.4922  1.1371
  780TIP3    H223900   2.490   3.195   1.479  1.8025  1.1068 -0.8018
  781TIP3   OH223901   6.410   1.416   0.486 -0.1309  0.0150  0.1009
  781TIP3    H123902   6.436   1.325   0.501 -2.2275 -0.6312  0.0607
  781TIP3    H223903   6.388   1.449   0.573 -0.7415  0.0375 -0.0611
  782TIP3   OH223904   4.396   1.312   0.266 -0.4827 -0.1614 -0.2163
  782TIP3    H123905   4.445   1.290   0.345 -0.0612 -0.2288 -0.4929
  782TIP3    H223906   4.382   1.406   0.272 -0.3833 -0.1545 -0.0979
  783TIP3   OH223907   0.534   1.499   6.208 -0.6530 -0.1527 -0.3470
  783TIP3    H123908   0.554   1.451   6.288  0.1484  0.8136  0.0595
  783TIP3    H223909   0.612   1.486   6.153 -0.9934 -0.4114 -0.7706
  784TIP3   OH223910   4.027   6.358   1.624  0.9308 -0.1039  0.2911
  784TIP3    H123911   4.081   6.313   1.560  1.2173  1.2517 -0.4556
  784TIP3    H223912   4.081   6.363   1.703  1.3599  0.0165 -0.0115
  785TIP3   OH223913   6.623   6.216   1.486  0.2369 -0.1928 -0.1284
  785TIP3    H123914   6.662   6.128   1.485 -1.9865 -1.2554  0.2528
  785TIP3    H223915   6.653   6.256   1.405  1.6756 -1.1257 -0.0930
  786TIP3   OH223916   4.498   2.980   1.091  0.5694 -0.3175  0.4209
  786TIP3    H123917   4.474   3.064   1.051 -0.1140 -0.0726  1.3069
  786TIP3    H223918   4.477   2.915   1.024  0.7184  0.1837 -0.1227
  787TIP3   OH223919   4.994   5.624   0.662  0.0912 -0.3271 -0.1549
  787TIP3    H123920   4.930   5.695   0.664  1.0610  0.6089 -1.3370
  787TIP3    H223921   5.074   5.664   0.629  1.7902 -1.1170  2.6229
  788TIP3   OH223922   2.028   4.898   0.753  0.1358 -0.1496 -0.2396
  788TIP3    H123923   2.038   4.969   0.689 -3.0734  0.8156  0.1236
  788TIP3    H223924   2.019   4.819   0.700  1.1966  0.0613 -0.7676
  789TIP3   OH223925   0.193   4.962   8.462  0.0913  0.2557  0.2294
  789TIP3    H123926   0.157   4.881   8.427 -1.5881  0.7226  0.7873
  789TIP3    H223927   0.171   4.960   8.555  2.0497  0.3179  0.7476
  790TIP3   OH223928   2.157   1.933   6.538  0.2799 -1.0013 -0.3123
  790TIP3    H123929   2.203   1.889   6.467 -2.2107 -1.9701 -1.4376
  790TIP3    H223930   2.130   2.017   6.501  0.5658 -0.7147  0.1197
  791TIP3   OH223931   3.547   0.784   0.497 -0.1182 -0.2055 -0.4446
  791TIP3    H123932   3.564   0.690   0.497  1.2291  0.0105 -0.0762
  791TIP3    H223933   3.629   0.823   0.528 -1.4807  0.9527  2.0375
  792TIP3   OH223934   6.233   6.315   8.666 -0.3334 -0.3597  0.0069
  792TIP3    H123935   6.276   6.295   8.583 -1.8130 -2.8741 -0.2634
  792TIP3    H223936   6.232   6.232   8.714 -1.9407  0.3589  1.3584
  793TIP3   OH223937   0.184   3.924   8.647 -0.4070  0.2125  0.0937
  793TIP3    H123938   0.259   3.977   8.674  0.5119 -1.1363  0.2570
  793TIP3    H223939   0.145   3.973   8.574 -0.5674  1.9089  1.2772
  794TIP3   OH223940   5.626   1.957   8.002  0.5942 -0.2503 -0.3070
  794TIP3    H123941   5.622   1.874   8.048  2.0376 -0.4568 -0.5196
  794TIP3    H223942   5.619   1.934   7.909 -0.5432  0.0157 -0.3048
  795TIP3   OH223943   5.108   5.064   1.964  0.1227 -0.0189 -0.0934
  795TIP3    H123944   5.081   5.113   2.041 -1.1436  0.8962 -1.0728
  795TIP3    H223945   5.147   4.984   1.998 -1.7841 -0.3439  1.4771
  796TIP3   OH223946   3.189   2.982   0.479 -0.0364  0.1642 -0.5712
  796TIP3    H123947   3.167   2.913   0.541 -0.1416  0.0086 -0.7811
  796TIP3    H223948   3.120   2.979   0.413  0.3010  0.0505 -0.9263
  797TIP3   OH223949   2.798   1.231   7.135 -0.3020  1.2045 -0.7648
  797TIP3    H123950   2.775   1.157   7.191 -1.3496  1.5858 -0.6649
  797TIP3    H223951   2.832   1.192   7.055 -1.3344  0.5925 -0.9190
  798TIP3   OH223952   3.745   4.737   7.281 -0.0319  0.0178  0.5303
  798TIP3    H123953   3.721   4.748   7.189 -0.3353  2.6932  0.8291
  798TIP3    H223954   3.837   4.763   7.284  0.3262 -1.2156  0.8434
  799TIP3   OH223955   1.959   0.078   7.426  0.0030  0.0755  0.1444
  799TIP3    H123956   2.030   0.112   7.371 -0.0189  1.1817  0.7854
  799TIP3    H223957   1.890   0.055   7.363  0.4772  0.0730 -0.3900
  800TIP3   OH223958   3.861   0.681   0.784  0.2875 -0.4870 -0.2621
  800TIP3    H123959   3.804   0.627   0.839  1.8877 -1.0687  0.9027
  800TIP3    H223960   3.949   0.653   0.807  1.0492 -0.7664 -3.1890
  801TIP3   OH223961   3.814   5.977   7.503 -0.1136  0.8288 -0.1466
  801TIP3    H123962   3.726   5.948   7.478 -1.4388  5.2813 -1.6475
  801TIP3    H223963   3.808   6.073   7.505  4.5692  1.3546  0.4647
  802TIP3   OH223964   2.635   6.426   2.141  0.7035 -0.0490 -1.0471
  802TIP3    H123965   2.682   6.436   2.223  0.3819 -1.0790 -0.7169
  802TIP3    H223966   2.595   6.512   2.125  1.1810  0.2978 -0.3937
  803TIP3   OH223967   0.789   1.227   7.709 -0.6686  0.0331 -0.1815
  803TIP3    H123968   0.726   1.196   7.645  0.3733  0.2803 -1.3545
  803TIP3    H223969   0.757   1.193   7.793 -1.4171 -1.2735 -0.9712
  804TIP3   OH223970   5.529   4.500   1.687 -0.0976  0.2489  0.5149
  804TIP3    H123971   5.588   4.532   1.755  0.2155 -0.5808  0.6376
  804TIP3    H223972   5.447   4.481   1.733  0.4851 -1.4794  0.9184
  805TIP3   OH223973   1.751   5.953   8.303 -0.4642  0.3005  0.2505
  805TIP3    H123974   1.792   5.878   8.259 -1.9656 -0.4758  0.0958
  805TIP3    H223975   1.824   6.011   8.324  0.8514 -1.5190  1.0212
  806TIP3   OH223976   0.751   1.579   8.027  0.8416  0.6486  0.0274
  806TIP3    H123977   0.835   1.570   7.981  0.2523 -2.1878 -0.6929
  806TIP3    H223978   0.756   1.514   8.097 -0.7433  0.4033 -0.0471
  807TIP3   OH223979   5.494   2.052   1.874  0.2719  0.4125 -0.2351
  807TIP3    H123980   5.489   2.088   1.785 -0.8709 -3.0834 -1.7789
  807TIP3    H223981   5.437   2.109   1.926 -1.9476  0.5748 -2.6118
  808TIP3   OH223982   5.961   1.080   8.570  0.1525  0.1310  0.7092
  808TIP3    H123983   5.969   1.079   8.475  0.8396  0.0288  0.7658
  808TIP3    H223984   5.960   1.173   8.593  0.3356  0.1537  0.6283
  809TIP3   OH223985   5.784   4.425   2.595  0.1926 -0.1025 -0.5062
  809TIP3    H123986   5.747   4.500   2.548 -0.8118 -0.4366 -0.2819
  809TIP3    H223987   5.732   4.350   2.565  1.0066 -0.6781 -0.5243
  810TIP3   OH223988   3.839   2.643   7.156 -0.4859  0.2834  0.1038
  810TIP3    H123989   3.851   2.687   7.072 -0.8827  0.7383  0.2794
  810TIP3    H223990   3.928   2.623   7.186 -0.2077  2.0381  0.5702
  811TIP3   OH223991   2.445   3.472   8.033 -0.9484 -0.2872  0.0403
  811TIP3    H123992   2.385   3.416   7.983 -0.5884 -2.4386  1.8444
  811TIP3    H223993   2.520   3.415   8.051  0.5091  1.5431  0.0521
  812TIP3   OH223994   4.140   0.312   2.639 -0.7041  0.0125 -0.0212
  812TIP3    H123995   4.096   0.268   2.712 -0.7189 -0.6628 -0.4334
  812TIP3    H223996   4.074   0.371   2.603 -0.5100  0.8121  0.8893
  813TIP3   OH223997   0.205   3.015   1.147  0.3977 -0.4607 -0.0036
  813TIP3    H123998   0.144   2.963   1.199  0.0184  0.4552  0.4927
  813TIP3    H223999   0.168   3.012   1.058  0.4663 -1.1548 -0.0130
  814TIP3   OH224000   2.477   2.973   8.441  0.0648  0.2345 -0.3712
  814TIP3    H124001   2.564   2.993   8.406  0.2111 -2.0083 -1.4308
  814TIP3    H224002   2.480   3.002   8.532  1.5034  1.2594 -0.7159
  815TIP3   OH224003   2.158   2.551   6.564  0.1163  0.5363  0.1601
  815TIP3    H124004   2.164   2.644   6.544 -1.5791  0.3326 -1.7007
  815TIP3    H224005   2.199   2.508   6.488 -0.1905 -0.2239  0.4135
  816TIP3   OH224006   6.433   3.638   0.527  0.2779 -0.6381  0.3187
  816TIP3    H124007   6.506   3.679   0.482 -1.1833  0.5607 -1.0816
  816TIP3    H224008   6.384   3.711   0.566 -1.6619 -1.0566 -1.1392
  817TIP3   OH224009   2.047   4.304   7.189  0.5439 -0.0199  0.0359
  817TIP3    H124010   2.138   4.327   7.208  0.3421  1.1674 -0.3283
  817TIP3    H224011   1.998   4.382   7.213 -0.4266 -0.7776  0.5574
  818TIP3   OH224012   0.012   1.513   2.259  0.3786  0.2903 -0.1393
  818TIP3    H124013  -0.058   1.556   2.209  0.7064  0.4534 -0.4690
  818TIP3    H224014   0.080   1.497   2.194 -0.3110 -2.0925 -0.3383
  819TIP3   OH224015   5.551   0.021   1.227 -0.1461  0.2856 -0.1296
  819TIP3    H124016   5.470  -0.013   1.189 -0.0404  0.1827 -0.2644
  819TIP3    H224017   5.543   0.004   1.321  0.3879 -1.1524 -0.3136
  820TIP3   OH224018   1.384   4.785   0.110  0.0463  0.1389 -0.2363
  820TIP3    H124019   1.321   4.854   0.131 -0.3768  0.3332 -2.0303
  820TIP3    H224020   1.463   4.832   0.084 -0.2039 -0.0259 -1.3450
  821TIP3   OH224021   2.793   5.643   0.380 -0.3109 -0.0048 -0.3812
  821TIP3    H124022   2.811   5.736   0.366 -0.3558 -0.0115 -0.4812
  821TIP3    H224023   2.758   5.612   0.296 -1.9492  0.2762  0.1727
  822TIP3   OH224024   1.770   5.198   8.197  0.5015  0.4546  0.0023
  822TIP3    H124025   1.702   5.254   8.160  0.3641 -0.9150 -1.9981
  822TIP3    H224026   1.852   5.234   8.163  0.3846 -0.7239 -1.6559
  823TIP3   OH224027   6.038   3.035   7.532  0.0750  0.9379  0.2129
  823TIP3    H124028   6.104   3.075   7.589  1.0761 -0.4582  0.0886
  823TIP3    H224029   6.038   3.090   7.454 -0.0594  1.8605  0.8419
  824TIP3   OH224030   4.573   1.431   8.335  0.7464  0.9031 -0.0724
  824TIP3    H124031   4.637   1.364   8.357  0.0920  0.5020  0.6723
  824TIP3    H224032   4.508   1.386   8.281 -0.3724  0.5728  1.4727
  825TIP3   OH224033   5.598   2.842   6.684  0.3223  0.3748  0.2897
  825TIP3    H124034   5.582   2.756   6.646 -1.0874 -0.3081  2.2434
  825TIP3    H224035   5.514   2.888   6.675  0.5014  0.8472  0.9115
  826TIP3   OH224036   0.705   2.150   0.045 -0.3563 -0.1732 -0.0135
  826TIP3    H124037   0.643   2.077   0.051  0.5001 -0.9615 -0.4796
  826TIP3    H224038   0.673   2.214   0.109 -0.8278 -1.1769  0.7854
  827TIP3   OH224039   0.411   5.063   6.717  0.0629  0.2680 -0.4488
  827TIP3    H124040   0.498   5.090   6.686  0.1931 -1.8277 -2.1794
  827TIP3    H224041   0.398   4.977   6.677 -3.0812  0.7809 -0.7258
  828TIP3   OH224042   0.611   1.681   7.085 -0.9007 -0.3550 -0.3324
  828TIP3    H124043   0.702   1.672   7.056 -0.7939  0.6923 -0.3772
  828TIP3    H224044   0.589   1.772   7.065 -0.8587  0.4495  2.7480
  829TIP3   OH224045   3.550   2.691   1.858  0.2777 -0.3059  0.0373
  829TIP3    H124046   3.460   2.718   1.876 -0.0692 -0.5721 -1.2239
  829TIP3    H224047   3.599   2.716   1.937 -1.0500 -0.9446  1.1060
  830TIP3   OH224048   1.008   3.442   1.430  0.6370  0.5896  0.7329
  830TIP3    H124049   1.010   3.457   1.336  1.0092 -0.5480  0.5462
  830TIP3    H224050   0.917   3.457   1.455  0.2386 -0.4017 -0.0480
  831TIP3   OH224051   5.295   6.757   1.688  0.0980  0.1447 -0.3598
  831TIP3    H124052   5.246   6.792   1.762 -0.5764  1.8449 -1.5519
  831TIP3    H224053   5.368   6.710   1.728  0.0444  1.4360  1.3859
  832TIP3   OH224054   4.309   4.441   0.815 -0.1853 -0.0915  0.1848
  832TIP3    H124055   4.375   4.388   0.772 -1.0029 -0.7654 -0.2727
  832TIP3    H224056   4.227   4.394   0.801 -1.1061  1.7352 -1.0678
  833TIP3   OH224057   0.899   2.778   1.318  0.5313  0.1818 -0.1673
  833TIP3    H124058   0.962   2.844   1.288  0.2996  0.4172 -0.1438
  833TIP3    H224059   0.864   2.740   1.238  1.0009 -0.2330 -0.1734
  834TIP3   OH224060   2.228   0.109   0.062  0.4836 -0.2211 -0.1690
  834TIP3    H124061   2.259   0.018   0.061  0.8554 -0.1649  1.8737
  834TIP3    H224062   2.196   0.122   0.151  0.5333  1.6930 -0.3978
  835TIP3   OH224063   2.401   0.548   0.738 -0.3234  1.1060 -0.5402
  835TIP3    H124064   2.475   0.515   0.788 -1.9012 -1.7994  0.0746
  835TIP3    H224065   2.441   0.603   0.670  2.4545 -0.9303 -0.7207
  836TIP3   OH224066   0.188   0.190   7.380 -0.3274  0.0282 -0.2956
  836TIP3    H124067   0.258   0.149   7.330  0.0347  0.8556 -0.4802
  836TIP3    H224068   0.114   0.193   7.320 -0.1511  0.2487 -0.5047
  837TIP3   OH224069   0.584   2.219   1.128 -0.0754  0.2156 -0.0558
  837TIP3    H124070   0.562   2.134   1.089  0.7621 -0.6452  1.2490
  837TIP3    H224071   0.680   2.223   1.122 -0.1597  1.4772 -0.8775
  838TIP3   OH224072   0.679   2.654   0.219  0.0001 -0.1970  0.8334
  838TIP3    H124073   0.680   2.595   0.143  0.2602  0.4005  0.3642
  838TIP3    H224074   0.620   2.725   0.193  1.5517  1.0135  0.3931
  839TIP3   OH224075   4.110   3.524   7.082 -0.0917  0.5451  0.4330
  839TIP3    H124076   4.189   3.497   7.036  0.8480 -0.8902  2.6974
  839TIP3    H224077   4.039   3.479   7.037  0.1337  2.5548 -2.2037
  840TIP3   OH224078   5.682   4.197   7.133  0.4787  0.3299 -0.0848
  840TIP3    H124079   5.753   4.184   7.071 -0.4548 -0.9073 -0.9531
  840TIP3    H224080   5.646   4.109   7.147  1.1882  0.3991  2.9241
  841TIP3   OH224081   5.425   0.295   0.643  0.0570 -0.1953  0.3194
  841TIP3    H124082   5.386   0.318   0.559  2.5437  0.2627 -0.8082
  841TIP3    H224083   5.504   0.349   0.649  1.6622 -2.4953  1.4506
  842TIP3   OH224084   4.298   2.204   0.308 -0.0581  1.2765 -0.0113
  842TIP3    H124085   4.266   2.291   0.282  0.6008  1.5819  0.1778
  842TIP3    H224086   4.293   2.205   0.404 -0.8382  0.7926 -0.0374
  843TIP3   OH224087   2.806   3.799   8.527  0.2617  0.2153  1.0242
  843TIP3    H124088   2.812   3.776   8.619  0.6713 -0.2783  0.8839
  843TIP3    H224089   2.816   3.894   8.525  0.1135  0.2429  1.4965
  844TIP3   OH224090   4.753   6.255   7.227 -0.2349 -0.6525 -0.5377
  844TIP3    H124091   4.718   6.274   7.314  0.6332  0.3668 -0.3906
  844TIP3    H224092   4.728   6.164   7.211 -1.8441 -0.3563  0.0648
  845TIP3   OH224093   5.728   6.836   7.457 -0.1951  0.3347 -0.1719
  845TIP3    H124094   5.683   6.753   7.445 -0.0304 -0.1259  1.9659
  845TIP3    H224095   5.821   6.813   7.464  0.0855  0.9464 -1.4734
  846TIP3   OH224096   4.741   1.476   6.725 -0.2447 -0.0955 -0.1114
  846TIP3    H124097   4.672   1.543   6.724  0.2565  0.4456 -2.0238
  846TIP3    H224098   4.820   1.522   6.699  0.2884 -1.2592 -0.6253
  847TIP3   OH224099   2.090   2.192   6.731  0.5619  0.0624  0.0936
  847TIP3    H124100   2.160   2.221   6.673  1.2593  1.1488  1.4180
  847TIP3    H224101   2.119   2.106   6.762 -0.4379 -1.1556 -2.0850
  848TIP3   OH224102   5.077   6.582   6.810 -0.3629 -0.2218  0.1874
  848TIP3    H124103   5.118   6.661   6.774 -0.6261 -0.2795 -0.2405
  848TIP3    H224104   5.120   6.510   6.764  0.8054 -0.4012  1.4972
  849TIP3   OH224105   3.000   3.436   1.142 -0.2919 -0.1234  0.1154
  849TIP3    H124106   3.043   3.351   1.136 -2.6749 -1.4375  0.3304
  849TIP3    H224107   2.996   3.468   1.052  0.7075 -0.1705  0.0450
  850TIP3   OH224108   6.609   0.986   6.441 -0.2052 -0.3144  0.4606
  850TIP3    H124109   6.679   1.046   6.465 -0.6564  0.7760 -0.8459
  850TIP3    H224110   6.541   1.001   6.507  0.8463 -1.5756  1.8990
  851TIP3   OH224111   3.240   2.288   1.143  0.2666  0.2026 -0.0138
  851TIP3    H124112   3.224   2.377   1.174  1.4401  1.5850 -2.9778
  851TIP3    H224113   3.153   2.255   1.119 -0.0637  0.9502  0.1324
  852TIP3   OH224114   2.201   4.595   2.027 -0.2247 -0.3497 -0.0311
  852TIP3    H124115   2.122   4.589   1.972 -0.6881  0.1188  0.5628
  852TIP3    H224116   2.273   4.591   1.965 -0.6386 -2.6337 -0.4553
  853TIP3   OH224117   0.103   1.976   1.925  0.1128  0.1005 -0.0362
  853TIP3    H124118   0.020   1.935   1.948 -1.3846  2.2420 -1.2493
  853TIP3    H224119   0.166   1.904   1.926 -2.3009 -2.2783 -2.0786
  854TIP3   OH224120   1.717   0.095   0.889 -0.1980  0.1296 -0.1095
  854TIP3    H124121   1.784   0.059   0.832 -2.3517 -1.4451 -1.7992
  854TIP3    H224122   1.686   0.173   0.843 -1.5402 -0.8199 -0.8669
  855TIP3   OH224123   1.804   5.702   0.818 -0.4539 -0.0579  0.7778
  855TIP3    H124124   1.798   5.607   0.815 -1.3278 -0.0734  2.0376
  855TIP3    H224125   1.841   5.727   0.734  0.0346 -1.5257  0.5336
  856TIP3   OH224126   6.146   5.362   0.117  0.0055  0.5864  0.7491
  856TIP3    H124127   6.184   5.349   0.204 -0.7989  2.1773  1.3711
  856TIP3    H224128   6.152   5.456   0.102 -1.6335  0.5924 -0.0920
  857TIP3   OH224129   6.437   0.078   2.035 -0.3696 -0.5620 -0.4797
  857TIP3    H124130   6.359   0.036   2.071 -0.3049  0.4323  0.9168
  857TIP3    H224131   6.421   0.172   2.047  1.7944 -0.3454  1.6337
  858TIP3   OH224132   1.826   3.573   7.011  0.3518  0.0907 -0.5058
  858TIP3    H124133   1.737   3.589   7.043  1.0856  1.5158  0.9891
  858TIP3    H224134   1.835   3.630   6.935  0.0027 -0.0225 -0.6327
  859TIP3   OH224135   0.327   3.549   2.214 -0.2302 -0.4790 -0.5043
  859TIP3    H124136   0.289   3.489   2.149  1.6850 -0.3629 -1.8164
  859TIP3    H224137   0.355   3.492   2.285 -3.4107 -0.5003  0.9026
  860TIP3   OH224138   5.058   3.420   1.246  0.0900  0.7131  0.3235
  860TIP3    H124139   5.071   3.503   1.292  3.4083 -0.2047  1.3327
  860TIP3    H224140   5.130   3.416   1.183 -0.5029 -1.0494 -0.3008
  861TIP3   OH224141   1.480   6.326   8.180  0.2617  0.0202  0.3022
  861TIP3    H124142   1.394   6.348   8.216  1.2180  1.2811  1.9655
  861TIP3    H224143   1.511   6.252   8.233  1.0346  0.9079  1.1396
  862TIP3   OH224144   5.983   6.739   7.507  0.2554  0.8290  0.6148
  862TIP3    H124145   6.077   6.746   7.525  0.7157  0.4100 -1.3936
  862TIP3    H224146   5.945   6.712   7.591  1.8840  1.1748  1.5153
  863TIP3   OH224147   3.151   3.423   1.462  0.5758 -0.0349 -0.1142
  863TIP3    H124148   3.178   3.515   1.457 -0.8086  0.3351 -2.4245
  863TIP3    H224149   3.084   3.421   1.530 -0.6712  1.0741 -1.2511
  864TIP3   OH224150   0.603   6.167   7.266  0.1887  0.5660 -0.3478
  864TIP3    H124151   0.638   6.228   7.201  0.7527  0.8644  0.2345
  864TIP3    H224152   0.522   6.208   7.297  1.0531  1.4993  0.7382
  865TIP3   OH224153   3.529   4.404   1.982 -0.6381 -0.1861 -0.1612
  865TIP3    H124154   3.601   4.347   1.956 -1.0421 -0.0506 -1.6286
  865TIP3    H224155   3.497   4.442   1.901 -0.5993  1.9081  0.7260
  866TIP3   OH224156   6.668   2.385   7.099  0.2682  0.0326  0.0332
  866TIP3    H124157   6.671   2.401   7.194 -0.5619  1.2344 -0.1224
  866TIP3    H224158   6.747   2.428   7.066 -0.7794  1.9961 -0.0990
  867TIP3   OH224159   2.633   4.839   0.063 -0.1035  0.1678 -0.1109
  867TIP3    H124160   2.558   4.794   0.026 -0.3062 -0.2280  0.7748
  867TIP3    H224161   2.611   4.932   0.056  0.2356  0.1573 -1.7593
  868TIP3   OH224162   3.261   4.777   1.663  0.1752 -0.5469 -0.1949
  868TIP3    H124163   3.307   4.859   1.645 -0.9018  0.0082 -0.5128
  868TIP3    H224164   3.168   4.801   1.662 -0.1059 -1.3462  1.7910
  869TIP3   OH224165   2.292   2.163   1.195  0.2216 -0.1716 -0.1703
  869TIP3    H124166   2.355   2.094   1.172 -0.4368 -1.1691  0.8667
  869TIP3    H224167   2.289   2.161   1.290  0.0556  1.2034 -0.1350
  870TIP3   OH224168   5.645   4.632   2.096 -0.1988  0.2705 -0.0476
  870TIP3    H124169   5.665   4.706   2.153 -0.8191  0.4455 -0.0514
  870TIP3    H224170   5.649   4.556   2.153  1.3841  0.1839 -0.2347
  871TIP3   OH224171   0.196   2.948   8.518 -0.0865 -0.0010 -0.4195
  871TIP3    H124172   0.193   2.864   8.472  1.8926  0.0517 -0.7162
  871TIP3    H224173   0.218   3.012   8.451  2.4329  0.1334  0.4259
  872TIP3   OH224174   1.802   6.365   2.486  0.7837 -0.3354 -0.6073
  872TIP3    H124175   1.723   6.376   2.432  0.0584 -1.1428  0.2393
  872TIP3    H224176   1.849   6.293   2.444 -0.0105 -1.2732  0.0529
  873TIP3   OH224177   4.193   1.252   1.585  0.7699 -0.0778  0.1948
  873TIP3    H124178   4.118   1.298   1.546 -0.4417 -0.5834  1.8044
  873TIP3    H224179   4.160   1.221   1.669  2.2368 -1.9798  0.1212
  874TIP3   OH224180   3.493   2.207   7.132  0.1095  0.4884 -0.0068
  874TIP3    H124181   3.548   2.268   7.180  0.3848  1.1785 -1.1651
  874TIP3    H224182   3.549   2.174   7.062 -0.7669  0.7761 -0.8626
  875TIP3   OH224183   1.282   6.476   2.664  0.1892  0.2903  0.5884
  875TIP3    H124184   1.202   6.462   2.613  0.9905  1.7767 -1.1887
  875TIP3    H224185   1.252   6.488   2.754 -1.3685 -1.4235  0.3676
  876TIP3   OH224186   3.460   4.427   0.553  0.4922  0.2496  0.1145
  876TIP3    H124187   3.552   4.428   0.528  0.7056 -0.5406  0.8175
  876TIP3    H224188   3.459   4.384   0.639 -0.3784  1.4795  0.7441
  877TIP3   OH224189   4.386   2.708   7.283 -0.6321 -0.2409 -0.0137
  877TIP3    H124190   4.418   2.644   7.220 -0.2160 -0.3344  0.2920
  877TIP3    H224191   4.294   2.721   7.259 -0.2293  0.5067 -1.3079
  878TIP3   OH224192   2.109   5.896   7.654 -0.2383 -0.2706  0.1992
  878TIP3    H124193   2.045   5.928   7.717  0.4576 -1.4001  1.5322
  878TIP3    H224194   2.057   5.875   7.576 -1.6683 -1.8457  1.4910
  879TIP3   OH224195   2.017   6.422   1.112 -0.0409  0.0253 -0.2435
  879TIP3    H124196   2.046   6.414   1.021  1.5444  1.0558  0.1258
  879TIP3    H224197   1.922   6.434   1.107  0.2146  1.9273 -1.9129
  880TIP3   OH224198   0.837   0.320   1.176 -0.1492  0.1919  0.1806
  880TIP3    H124199   0.845   0.388   1.109 -1.2985 -1.1572 -1.4388
  880TIP3    H224200   0.835   0.368   1.259  1.7942  1.9052 -0.6657
  881TIP3   OH224201   6.398   5.239   8.429 -0.1128  0.2099 -0.0538
  881TIP3    H124202   6.396   5.259   8.335  0.4792  1.1306  0.1137
  881TIP3    H224203   6.471   5.178   8.439  0.0814  0.4273 -0.1381
  882TIP3   OH224204   1.055   6.669   7.682  0.8711 -0.6149 -0.4334
  882TIP3    H124205   1.142   6.692   7.648  1.3479  0.6198  1.4764
  882TIP3    H224206   1.063   6.675   7.777 -0.4366 -3.7752  0.0368
  883TIP3   OH224207   2.376   3.863   7.746  0.3640  0.3703  0.0277
  883TIP3    H124208   2.375   3.798   7.676  1.0706 -0.7819  1.0514
  883TIP3    H224209   2.469   3.875   7.765  0.1863  0.8948  0.5778
  884TIP3   OH224210   6.658   0.303   0.028 -0.1612  0.3505 -0.0943
  884TIP3    H124211   6.752   0.298   0.045  0.0782  1.4687 -0.9296
  884TIP3    H224212   6.651   0.319  -0.066 -1.1491  0.9784  0.0642
  885TIP3   OH224213   5.078   3.155   1.183 -0.1885 -0.0174  0.5148
  885TIP3    H124214   5.050   3.239   1.220  0.0773  0.3372 -0.0767
  885TIP3    H224215   5.173   3.160   1.180 -0.2018 -0.0975 -0.0914
  886TIP3   OH224216   1.531   6.595   1.550  1.0699 -0.1994 -0.1912
  886TIP3    H124217   1.583   6.618   1.627  1.5399 -0.7928 -0.3257
  886TIP3    H224218   1.528   6.675   1.498  0.0704  0.4444  0.8235
  887TIP3   OH224219   3.037   6.697   0.672 -0.8247  0.4928 -0.1322
  887TIP3    H124220   3.025   6.781   0.716 -1.1978 -0.0291  0.8098
  887TIP3    H224221   3.053   6.719   0.581  0.3168  1.6298  0.3220
  888TIP3   OH224222   2.640   1.115   6.267 -0.6091  0.1741 -0.3086
  888TIP3    H124223   2.635   1.028   6.228 -1.0307  0.2519 -0.4352
  888TIP3    H224224   2.559   1.124   6.317  0.5228 -0.4544  1.7369
  889TIP3   OH224225   5.380   2.931   0.146  0.0262 -0.0287 -0.2887
  889TIP3    H124226   5.372   3.026   0.149 -0.1692 -0.0711  0.7720
  889TIP3    H224227   5.358   2.908   0.056 -0.7940  0.8538 -0.3292
  890TIP3   OH224228   0.867   5.705   8.040 -0.3369  0.1037  0.3636
  890TIP3    H124229   0.790   5.660   8.006 -0.1126 -0.4073  0.5353
  890TIP3    H224230   0.833   5.759   8.112 -1.0830  2.3400 -1.5210
  891TIP3   OH224231   5.509   5.687   0.232  0.2444  0.1014 -0.3897
  891TIP3    H124232   5.473   5.642   0.156 -0.5029 -0.1909  0.1315
  891TIP3    H224233   5.503   5.624   0.303  0.7733  0.4338 -0.0417
  892TIP3   OH224234   6.650   1.611   2.156  0.2072  0.3902  0.0467
  892TIP3    H124235   6.604   1.670   2.217  0.9771 -0.5452  1.6067
  892TIP3    H224236   6.618   1.524   2.179 -0.2853  0.0785 -1.6692
  893TIP3   OH224237   6.657   1.432   1.305 -0.5449  0.3511 -0.4160
  893TIP3    H124238   6.613   1.458   1.386 -1.8736  0.6265 -1.1831
  893TIP3    H224239   6.586   1.398   1.249  0.3326  0.1652 -1.4541
  894TIP3   OH224240   2.828   2.486   1.494  0.3245 -0.2426  0.1274
  894TIP3    H124241   2.773   2.416   1.529  0.5121  0.9690  3.1025
  894TIP3    H224242   2.768   2.558   1.475  0.6400  0.6022  2.1071
  895TIP3   OH224243   0.200   0.107   1.872 -0.1594  0.5807 -0.3243
  895TIP3    H124244   0.234   0.177   1.817 -1.2945 -0.4209 -2.4310
  895TIP3    H224245   0.110   0.133   1.891 -0.1081  0.4028  0.1911
  896TIP3   OH224246   2.406   0.856   8.013  0.1645 -0.2375 -0.0004
  896TIP3    H124247   2.450   0.773   7.995 -1.0906 -1.2522  1.2934
  896TIP3    H224248   2.476   0.921   8.015  1.6388 -1.7654  1.9104
  897TIP3   OH224249   4.914   2.441   0.484 -0.1089 -0.0700 -0.5640
  897TIP3    H124250   4.879   2.353   0.497 -0.1245 -0.3442 -2.2232
  897TIP3    H224251   4.841   2.500   0.506  0.2075 -0.4023  1.5049
  898TIP3   OH224252   5.102   5.233   1.260 -0.5390 -1.0879  0.0179
  898TIP3    H124253   5.150   5.202   1.184 -2.0405 -0.8805 -1.0573
  898TIP3    H224254   5.075   5.322   1.237 -0.9513 -0.9893  0.8315
  899TIP3   OH224255   3.509   1.973   8.269  0.4171 -0.0104  0.4455
  899TIP3    H124256   3.518   1.916   8.345 -0.2100  0.2573  0.7207
  899TIP3    H224257   3.454   2.045   8.298  0.0156  0.0045 -0.3148
  900TIP3   OH224258   6.357   0.323   2.371  0.4060  0.2363  0.0863
  900TIP3    H124259   6.377   0.243   2.420  1.6271  1.3122  1.4380
  900TIP3    H224260   6.285   0.298   2.314  0.7508 -1.8364  0.4495
  901TIP3   OH224261   6.100   2.851   0.487  0.3170 -0.0399 -0.1542
  901TIP3    H124262   6.105   2.945   0.469 -1.7453 -0.0018 -0.8423
  901TIP3    H224263   6.138   2.840   0.574  0.4560  1.4457 -0.0142
  902TIP3   OH224264   3.293   1.023   8.185 -0.2687  0.0387  0.3519
  902TIP3    H124265   3.287   1.119   8.179 -0.2559  0.1274  1.4925
  902TIP3    H224266   3.323   1.007   8.274  0.4977 -1.0105 -0.0750
  903TIP3   OH224267   4.702   3.514   0.239  0.1407 -0.0193 -0.7173
  903TIP3    H124268   4.629   3.557   0.195 -1.9666 -0.0225  2.4828
  903TIP3    H224269   4.705   3.426   0.200  0.2008  0.7900 -2.6718
  904TIP3   OH224270   0.619   6.207   0.770 -0.0312  0.2370 -0.2793
  904TIP3    H124271   0.629   6.160   0.688 -0.0335  0.3996 -0.3738
  904TIP3    H224272   0.606   6.299   0.744 -1.1097  0.1377 -0.1342
  905TIP3   OH224273   3.800   4.102   1.452  0.8325 -0.3863  0.4628
  905TIP3    H124274   3.887   4.069   1.431  0.0524 -2.0866 -0.3142
  905TIP3    H224275   3.755   4.106   1.368  0.5540  1.8134  0.6613
  906TIP3   OH224276   5.251   2.597   0.979 -0.0732 -0.2493 -0.0173
  906TIP3    H124277   5.314   2.575   0.911 -1.2332 -2.0364 -0.5700
  906TIP3    H224278   5.208   2.677   0.946 -0.5088 -0.9943 -1.3414
  907TIP3   OH224279   3.756   0.862   0.274 -0.2157 -0.0774  0.0466
  907TIP3    H124280   3.673   0.831   0.309 -0.1450  1.1732  1.4073
  907TIP3    H224281   3.745   0.957   0.267  0.9402  0.0542 -0.1684
  908TIP3   OH224282   0.050   5.901   0.282 -0.3510 -0.1275 -0.2417
  908TIP3    H124283   0.067   5.987   0.243 -1.6168  0.0141 -0.5138
  908TIP3    H224284   0.096   5.839   0.225  0.5903  0.3511 -0.0301
  909TIP3   OH224285   1.035   0.384   0.466  0.0065 -0.1729 -0.9242
  909TIP3    H124286   1.016   0.460   0.522  0.3010  0.8975 -2.2358
  909TIP3    H224287   1.093   0.330   0.519 -2.6129 -1.0749  1.2512
  910TIP3   OH224288   0.180   4.268   7.897 -0.7208  0.1142  0.5404
  910TIP3    H124289   0.153   4.205   7.830  0.9608  0.7288 -0.8026
  910TIP3    H224290   0.216   4.342   7.847 -0.1640  0.9450  2.1160
  911TIP3   OH224291   1.321   0.312   7.980  0.2178 -0.1777 -0.2144
  911TIP3    H124292   1.376   0.389   7.994 -0.7264  0.3031  1.1325
  911TIP3    H224293   1.364   0.263   7.910  1.0542  1.3679 -0.8177
  912TIP3   OH224294   0.568   0.725   2.655 -0.4111  0.2033  0.3677
  912TIP3    H124295   0.657   0.692   2.663 -0.9874 -1.1166  1.7922
  912TIP3    H224296   0.552   0.729   2.560  1.8047  2.4295 -0.0093
  913TIP3   OH224297   1.795   4.734   7.137 -0.3872  0.0336 -0.0173
  913TIP3    H124298   1.805   4.747   7.232 -2.3743 -1.5939  0.5023
  913TIP3    H224299   1.738   4.805   7.109  1.8019  1.7184 -0.4652
  914TIP3   OH224300   2.090   2.258   1.880  0.2738 -0.1881  0.3565
  914TIP3    H124301   2.084   2.169   1.846  1.1865  0.0063 -0.3517
  914TIP3    H224302   2.184   2.278   1.878 -0.0132  1.2240 -0.6630
  915TIP3   OH224303   5.995   3.987   1.426  0.4112 -0.4712  0.2368
  915TIP3    H124304   5.918   3.992   1.483 -0.9556 -2.0197 -1.3647
  915TIP3    H224305   6.021   3.895   1.429  1.4802 -0.1885 -0.1800
  916TIP3   OH224306   5.147   1.559   8.631 -0.2855 -0.1482 -0.6617
  916TIP3    H124307   5.138   1.508   8.550 -1.1234 -0.5609 -0.3282
  916TIP3    H224308   5.078   1.625   8.626 -0.0377  0.1252 -0.4956
  917TIP3   OH224309   0.674   4.874   6.746 -0.2084 -0.6834 -0.0131
  917TIP3    H124310   0.696   4.922   6.666  1.8977 -0.9036  0.3736
  917TIP3    H224311   0.649   4.943   6.808  1.9193 -0.0805  0.2673
  918TIP3   OH224312   2.135   5.081   2.295  0.4400  0.4995  0.6771
  918TIP3    H124313   2.152   5.004   2.240 -2.6443  0.0607  0.1178
  918TIP3    H224314   2.171   5.058   2.380  1.8808 -0.4482 -0.1415
  919TIP3   OH224315   4.206   6.270   8.281 -0.1728  0.2481  0.8620
  919TIP3    H124316   4.222   6.179   8.255 -1.5686 -0.9758  3.7750
  919TIP3    H224317   4.130   6.297   8.229  0.9163  0.2128 -0.8280
  920TIP3   OH224318   5.392   6.033   1.806  0.0737 -0.0734  0.4216
  920TIP3    H124319   5.306   6.022   1.765  0.3053  1.6658 -0.6188
  920TIP3    H224320   5.455   6.005   1.740  0.3491 -1.9281  1.3910
  921TIP3   OH224321   5.391   5.638   8.644  0.3726  0.1874  0.1260
  921TIP3    H124322   5.410   5.684   8.563 -2.4551 -0.2130 -0.8617
  921TIP3    H224323   5.398   5.545   8.621  0.5276  0.0754  0.6095
  922TIP3   OH224324   4.699   5.780   8.107  0.0714  0.3142  0.6906
  922TIP3    H124325   4.653   5.808   8.028  1.2421  0.4992  0.0422
  922TIP3    H224326   4.635   5.790   8.177 -0.4004  2.0904  0.0741
  923TIP3   OH224327   3.914   5.473   8.640 -0.0582  0.4737 -0.2734
  923TIP3    H124328   3.823   5.480   8.610  0.0662 -0.6669 -0.9622
  923TIP3    H224329   3.929   5.380   8.649  1.0989  0.6481 -0.3119
  924TIP3   OH224330   1.348   4.937   6.829  0.1565  0.1193  0.4807
  924TIP3    H124331   1.401   5.017   6.835 -0.0090  0.2200  0.5834
  924TIP3    H224332   1.412   4.866   6.835  0.3888  0.2445 -0.3413
  925TIP3   OH224333   6.806   3.496   0.465 -0.2486 -0.0919 -0.0480
  925TIP3    H124334   6.884   3.459   0.506 -0.8329 -1.8973 -0.4783
  925TIP3    H224335   6.764   3.547   0.534  1.0364  0.5064  0.3188
  926TIP3   OH224336   4.508   4.616   6.897 -0.3553  0.4480  0.0679
  926TIP3    H124337   4.417   4.619   6.928 -0.4421 -0.8020 -0.0233
  926TIP3    H224338   4.500   4.602   6.803 -0.1069 -2.6011  0.4199
  927TIP3   OH224339   2.103   5.289   0.538 -0.4149  0.4622 -0.0978
  927TIP3    H124340   2.184   5.251   0.573 -0.1091 -0.2505 -1.4808
  927TIP3    H224341   2.132   5.341   0.463 -1.0184  2.1519  0.7917
  928TIP3   OH224342   2.541   5.141   7.685  0.0413 -0.4175 -0.7079
  928TIP3    H124343   2.630   5.123   7.714 -0.0119  2.0295  1.2234
  928TIP3    H224344   2.485   5.108   7.755 -0.4016  0.5549 -0.5831
  929TIP3   OH224345   2.307   1.168   7.075  0.1773  0.5123 -0.5944
  929TIP3    H124346   2.394   1.128   7.067 -0.3360 -0.5614 -1.0391
  929TIP3    H224347   2.271   1.165   6.987 -1.0403 -0.8059 -0.0954
  930TIP3   OH224348   4.681   4.847   8.536 -1.0727  0.2992 -0.1987
  930TIP3    H124349   4.638   4.829   8.619 -0.8912  0.6152 -0.0384
  930TIP3    H224350   4.672   4.941   8.523 -2.8285  0.0144 -1.4847
  931TIP3   OH224351   5.394   1.213   0.039  0.2763 -0.4354 -0.1533
  931TIP3    H124352   5.380   1.284   0.101  0.1474 -0.8201  0.2660
  931TIP3    H224353   5.323   1.151   0.056 -0.7966  0.2558 -1.8756
  932TIP3   OH224354   3.880   3.785   0.363  0.1083  0.1468 -0.6322
  932TIP3    H124355   3.800   3.820   0.324  1.0558  1.5439 -1.4391
  932TIP3    H224356   3.854   3.701   0.401 -1.7757  0.6675 -0.6576
  933TIP3   OH224357   4.385   3.224   7.887  0.3255 -0.2304 -0.0026
  933TIP3    H124358   4.435   3.277   7.824 -0.0356  0.7881  0.5557
  933TIP3    H224359   4.375   3.281   7.963  0.3782 -1.2983  0.8149
  934TIP3   OH224360   1.992   6.616   1.790 -0.2788 -0.0489 -0.1201
  934TIP3    H124361   1.992   6.606   1.695 -1.2661 -0.5249 -0.0794
  934TIP3    H224362   2.010   6.528   1.823 -1.2197 -0.1444  0.1495
  935TIP3   OH224363   6.656   3.914   0.710 -0.1890 -0.2121  0.1938
  935TIP3    H124364   6.683   3.981   0.773 -0.2322  0.2824 -0.2981
  935TIP3    H224365   6.580   3.873   0.749 -1.2947  1.2829 -0.2923
  936TIP3   OH224366   3.344   1.525   0.912 -0.4222 -0.1159  0.5188
  936TIP3    H124367   3.355   1.607   0.959  2.8217 -0.7281  1.0655
  936TIP3    H224368   3.425   1.514   0.862  0.0819 -3.7228  1.7889
  937TIP3   OH224369   3.208   1.701   2.153  0.0590  0.2059  0.0727
  937TIP3    H124370   3.232   1.794   2.155  0.5345  0.0964 -0.2417
  937TIP3    H224371   3.292   1.655   2.148 -0.0830 -0.3273  2.0320
  938TIP3   OH224372   1.520   1.361   8.170  0.5111  0.0035 -0.3659
  938TIP3    H124373   1.486   1.272   8.161 -1.2986  0.7619 -1.4829
  938TIP3    H224374   1.572   1.358   8.251 -0.6346 -1.7223  0.3730
  939TIP3   OH224375   5.960   5.733   6.682 -0.2389  0.1560 -0.5145
  939TIP3    H124376   6.008   5.813   6.662 -0.9038 -0.1073 -3.6204
  939TIP3    H224377   5.869   5.761   6.688 -0.1192  0.2602  2.9917
  940TIP3   OH224378   5.879   4.110   0.251  0.1647  0.0512  0.1628
  940TIP3    H124379   5.905   4.020   0.234  2.1948  0.4534  0.8320
  940TIP3    H224380   5.840   4.108   0.339 -2.2016 -0.5481 -0.8252
  941TIP3   OH224381   4.407   3.477   2.122 -0.3649 -0.0141 -0.0701
  941TIP3    H124382   4.454   3.410   2.073 -1.6566 -1.5985  0.7653
  941TIP3    H224383   4.476   3.531   2.160  0.7502 -1.1906 -0.3396
  942TIP3   OH224384   0.860   2.684   0.840 -0.0232  0.2640  0.6041
  942TIP3    H124385   0.858   2.745   0.766  0.3173 -1.2259 -0.6898
  942TIP3    H224386   0.953   2.672   0.859 -0.1183  2.1952  2.6912
  943TIP3   OH224387   3.119   1.131   6.816  0.0010 -0.2478  0.6283
  943TIP3    H124388   3.130   1.167   6.728  0.5568  0.1355  0.8429
  943TIP3    H224389   3.209   1.116   6.847 -0.1799 -0.2229  1.1882
  944TIP3   OH224390   4.957   6.221   7.463 -0.0736  0.0474  0.1351
  944TIP3    H124391   4.896   6.163   7.418 -0.5136  0.4129  0.2468
  944TIP3    H224392   4.924   6.226   7.553 -1.7949  2.7256 -0.5213
  945TIP3   OH224393   5.589   3.473   7.385 -0.0067  0.1912 -0.8599
  945TIP3    H124394   5.564   3.530   7.312 -0.9693  0.8932 -0.0149
  945TIP3    H224395   5.684   3.479   7.389 -0.0638  1.4520 -1.0341
  946TIP3   OH224396   6.718   5.326   1.611  0.0464  0.1598  0.0663
  946TIP3    H124397   6.666   5.362   1.682  1.0836 -0.1257  0.9967
  946TIP3    H224398   6.785   5.273   1.654 -1.5527 -3.1789 -1.1951
  947TIP3   OH224399   4.025   2.784   8.258  0.3351  0.5022 -0.3362
  947TIP3    H124400   3.985   2.845   8.196 -2.5094 -1.4407 -0.5753
  947TIP3    H224401   4.008   2.822   8.344 -1.8288 -0.0652 -0.4578
  948TIP3   OH224402   2.571   2.185   6.387  0.0466 -0.2770 -0.1920
  948TIP3    H124403   2.584   2.091   6.375 -0.8077 -0.5138  0.6131
  948TIP3    H224404   2.655   2.217   6.421  0.7919 -0.4851 -1.7561
  949TIP3   OH224405   4.688   0.134   6.579  0.3063 -0.2467  0.1449
  949TIP3    H124406   4.685   0.230   6.580 -0.2652 -0.2494 -0.6019
  949TIP3    H224407   4.632   0.108   6.652 -0.1818 -0.0200 -0.1463
  950TIP3   OH224408   0.354   5.114   8.284 -0.0033  0.9876  0.0136
  950TIP3    H124409   0.274   5.071   8.315  0.7477  0.2905  1.0674
  950TIP3    H224410   0.425   5.065   8.325  0.9281  2.7133  0.5606
  951TIP3   OH224411   2.871   2.464   6.885  0.1954 -0.0578 -0.1372
  951TIP3    H124412   2.873   2.430   6.796  1.9972 -1.8058  0.5065
  951TIP3    H224413   2.894   2.556   6.876  0.0223 -0.1302 -1.5050
  952TIP3   OH224414   1.094   3.825   6.959  0.3483 -0.1179  0.0615
  952TIP3    H124415   1.121   3.831   6.867  0.6119  0.2286  0.1586
  952TIP3    H224416   1.008   3.785   6.956  0.6686 -0.7948 -0.2857
  953TIP3   OH224417   0.597   3.126   8.662  0.6051 -0.0288 -0.2416
  953TIP3    H124418   0.684   3.123   8.703  0.4142 -0.8020  0.1336
  953TIP3    H224419   0.545   3.179   8.722  0.8039  0.3896 -0.4377
  954TIP3   OH224420   1.874   6.773   6.754  0.2691  0.1556 -0.0260
  954TIP3    H124421   1.939   6.703   6.761  0.1112  0.0472  0.4074
  954TIP3    H224422   1.926   6.853   6.745  0.4792  0.1183  0.7541
  955TIP3   OH224423   2.815   0.090   0.535  0.1659  0.5005  0.4474
  955TIP3    H124424   2.818   0.014   0.476  4.2321  0.8287 -0.0881
  955TIP3    H224425   2.777   0.160   0.481 -1.4788 -0.5350  0.1924
  956TIP3   OH224426   5.563   1.311   0.621 -0.4170 -0.1538  0.4205
  956TIP3    H124427   5.521   1.354   0.695  2.6433  1.5675  1.3557
  956TIP3    H224428   5.604   1.383   0.572 -0.6656 -1.4543 -1.8552
  957TIP3   OH224429   5.707   3.141   0.132  0.4723 -0.8510  1.1445
  957TIP3    H124430   5.757   3.096   0.064 -0.3543  0.3909 -0.3374
  957TIP3    H224431   5.763   3.215   0.157  0.5091 -0.9627  1.3995
  958TIP3   OH224432   6.498   0.605   1.368  0.0730  0.8344  0.6109
  958TIP3    H124433   6.529   0.693   1.392  0.0208  1.3320 -1.0061
  958TIP3    H224434   6.577   0.551   1.369  0.2402  1.0781  0.8200
  959TIP3   OH224435   4.929   1.187   0.474  0.4493  0.7671  0.0269
  959TIP3    H124436   4.947   1.268   0.427  0.5257 -0.1768 -1.6574
  959TIP3    H224437   4.874   1.136   0.414  1.2995 -0.8793  0.5688
  960TIP3   OH224438   5.750   4.140   0.541  0.4069  0.3660  0.2910
  960TIP3    H124439   5.785   4.227   0.561  0.2759  0.3011  0.8441
  960TIP3    H224440   5.659   4.144   0.571  0.1216  0.3397 -0.5670
  961TIP3   OH224441   6.335   3.175   0.535  0.0549  0.1360  0.2914
  961TIP3    H124442   6.393   3.219   0.597 -0.2338  1.2628 -0.2160
  961TIP3    H224443   6.338   3.229   0.456 -0.1315 -0.8911 -0.4325
  962TIP3   OH224444   1.287   4.689   7.481  0.1906  0.0157  0.0690
  962TIP3    H124445   1.237   4.713   7.403  0.2296 -0.9622 -0.2764
  962TIP3    H224446   1.274   4.594   7.490  2.7016 -0.4672 -0.5885
  963TIP3   OH224447   5.977   0.357   7.157 -0.3319  0.6814 -0.3765
  963TIP3    H124448   6.043   0.349   7.226 -0.4133 -0.4027 -0.4150
  963TIP3    H224449   5.912   0.418   7.193 -1.2744 -1.1900  1.2605
  964TIP3   OH224450   5.341   3.778   0.600 -0.1214 -0.4765  0.2782
  964TIP3    H124451   5.263   3.816   0.558  1.5273  2.4819 -0.4409
  964TIP3    H224452   5.355   3.834   0.677  1.9696 -0.0878 -0.3344
  965TIP3   OH224453   0.190   4.808   1.338  0.2778 -0.0511 -0.1579
  965TIP3    H124454   0.166   4.825   1.429  0.3932  1.3682 -0.3781
  965TIP3    H224455   0.277   4.768   1.343  0.2022 -0.1505  0.3574
  966TIP3   OH224456   2.508   4.168   7.746 -0.0993 -0.3713  0.0585
  966TIP3    H124457   2.414   4.151   7.750  0.1399 -1.7837  0.5265
  966TIP3    H224458   2.531   4.155   7.654 -0.3737  0.0690 -0.0728
  967TIP3   OH224459   1.050   1.123   8.005  0.0476 -0.3127 -0.5548
  967TIP3    H124460   1.079   1.192   7.945  2.9460 -2.5287 -1.9946
  967TIP3    H224461   1.104   1.135   8.083 -0.2331 -0.3017 -0.3616
  968TIP3   OH224462   4.613   2.145   6.840  0.0054  0.2288  0.1629
  968TIP3    H124463   4.607   2.217   6.903 -0.7511  1.1429 -0.9228
  968TIP3    H224464   4.537   2.089   6.859  0.2539  0.0349  0.6044
  969TIP3   OH224465   6.532   0.350   7.974 -0.5243 -0.2573  0.1544
  969TIP3    H124466   6.510   0.262   7.943 -1.4937  0.0558 -0.0660
  969TIP3    H224467   6.625   0.360   7.953  0.2984 -2.1632  2.3797
  970TIP3   OH224468   6.162   1.628   8.587  0.0696  0.0402 -0.0878
  970TIP3    H124469   6.184   1.554   8.531 -1.1163 -0.2165 -0.2475
  970TIP3    H224470   6.074   1.653   8.559  0.2308  1.1509  0.3507
  971TIP3   OH224471   5.977   3.790   8.550 -0.1023  0.3050  1.0205
  971TIP3    H124472   6.070   3.811   8.560 -0.2099  0.4260  1.8647
  971TIP3    H224473   5.959   3.807   8.458  0.9187 -0.5705  0.6357
  972TIP3   OH224474   3.862   4.212   2.870  0.2863 -0.6150 -0.7998
  972TIP3    H124475   3.833   4.231   2.959  0.5931  1.2930 -1.0603
  972TIP3    H224476   3.782   4.188   2.823 -0.0843 -0.3061 -0.3310
  973TIP3   OH224477   3.518   6.491   0.310  0.3199  0.0509  0.1550
  973TIP3    H124478   3.449   6.546   0.274  2.1144  2.1168 -0.3885
  973TIP3    H224479   3.545   6.537   0.390  2.0366  0.1696 -0.4435
  974TIP3   OH224480   4.136   6.255   0.223  0.2890 -0.6601  0.0462
  974TIP3    H124481   4.048   6.226   0.247 -0.0585  0.8486  0.6749
  974TIP3    H224482   4.123   6.313   0.148  0.9238 -1.6670 -0.8654
  975TIP3   OH224483   1.401   4.864   2.154 -0.0490 -0.1305 -0.3809
  975TIP3    H124484   1.461   4.864   2.079  0.4271  0.6701 -0.0142
  975TIP3    H224485   1.429   4.938   2.207 -1.3516  0.2303 -0.1684
  976TIP3   OH224486   2.671   5.420   7.668  0.2642 -0.5808  0.2547
  976TIP3    H124487   2.651   5.411   7.575 -1.0465  1.4146  0.2729
  976TIP3    H224488   2.601   5.371   7.712  0.8256 -1.4383  0.2108
  977TIP3   OH224489   6.481   1.280   7.715 -0.4478  0.2735  0.4599
  977TIP3    H124490   6.417   1.280   7.643 -0.7577  1.3597  0.7072
  977TIP3    H224491   6.429   1.266   7.794  0.0374 -2.1537  0.4056
  978TIP3   OH224492   0.482   0.940   2.811 -0.3842  0.7080  0.1775
  978TIP3    H124493   0.502   0.857   2.767 -2.1787 -0.1397  0.8704
  978TIP3    H224494   0.557   0.996   2.792  0.1398 -0.5370 -1.6458
  979TIP3   OH224495   4.698   1.078   0.609  0.1135  0.9382  0.6125
  979TIP3    H124496   4.718   0.998   0.657  1.2409  1.1561  0.5214
  979TIP3    H224497   4.766   1.140   0.635 -0.9474  2.0040  0.9670
  980TIP3   OH224498   1.615   6.670   2.996  0.4053  0.3229  0.3607
  980TIP3    H124499   1.530   6.703   3.024 -0.0720  1.1644 -1.8838
  980TIP3    H224500   1.606   6.575   3.001 -0.9657  0.3726 -0.6009
  981TIP3   OH224501   6.444   3.419   8.502  0.6125  0.5406 -0.4472
  981TIP3    H124502   6.352   3.442   8.487  0.3238 -0.9596 -1.1065
  981TIP3    H224503   6.493   3.494   8.468 -0.2718  0.1303 -2.8439
  982TIP3   OH224504   0.164   5.690   7.667 -0.3805  0.4306  0.4801
  982TIP3    H124505   0.095   5.630   7.696  0.5704 -1.5959 -1.1409
  982TIP3    H224506   0.117   5.762   7.625 -1.5510 -0.6466 -0.1495
  983TIP3   OH224507   3.547   6.041   0.841 -0.1708  0.5523 -0.3411
  983TIP3    H124508   3.605   5.986   0.788 -1.6357  0.3460 -1.8149
  983TIP3    H224509   3.459   6.006   0.825 -0.7991  1.3253  1.2230
  984TIP3   OH224510   4.971   0.202   7.475  0.0712 -0.1710  0.4380
  984TIP3    H124511   5.039   0.251   7.522 -0.6179  2.1324 -0.8129
  984TIP3    H224512   4.970   0.240   7.387 -1.7948 -1.2055 -0.0419
  985TIP3   OH224513   4.933   5.360   1.478 -0.2214  0.0423  0.3416
  985TIP3    H124514   4.988   5.432   1.507 -0.4272 -0.4599  2.0732
  985TIP3    H224515   4.926   5.372   1.383  1.9769  0.7198  0.2153
  986TIP3   OH224516   5.524   4.844   1.876 -0.0146  0.5609 -0.7826
  986TIP3    H124517   5.615   4.850   1.904 -0.3737 -0.0723  0.6696
  986TIP3    H224518   5.500   4.933   1.850  0.4130  1.2066  0.9083
  987TIP3   OH224519   4.487   3.170   7.012  0.1286  0.7999  0.2649
  987TIP3    H124520   4.459   3.090   6.967  2.4272 -0.0703  0.2215
  987TIP3    H224521   4.476   3.150   7.105  0.6538  0.4306  0.2524
  988TIP3   OH224522   2.292   5.327   2.428  0.3453 -0.0466 -0.4182
  988TIP3    H124523   2.251   5.258   2.479 -0.5298  0.4540 -0.4220
  988TIP3    H224524   2.377   5.340   2.469 -0.4932  0.6245  1.1980
  989TIP3   OH224525   6.046   5.827   1.765  0.5151  0.6318  0.6127
  989TIP3    H124526   5.995   5.904   1.789 -0.6885  0.5466 -1.4324
  989TIP3    H224527   6.042   5.824   1.669  0.7086 -1.8304  0.6140
  990TIP3   OH224528   2.591   5.374   7.418  0.3992 -0.0738 -0.0058
  990TIP3    H124529   2.664   5.384   7.357  0.1360  0.0660 -0.3013
  990TIP3    H224530   2.514   5.398   7.367 -0.1108 -2.2138 -0.3451
  991TIP3   OH224531   4.382   6.295   1.135 -0.0137  0.0655 -0.0632
  991TIP3    H124532   4.476   6.298   1.114  0.5333 -2.0866  1.6894
  991TIP3    H224533   4.364   6.381   1.173  1.2464  0.5209 -0.4296
  992TIP3   OH224534   2.648   0.259   6.496 -0.1272 -0.5605  1.0269
  992TIP3    H124535   2.710   0.210   6.441 -0.9082 -0.2754 -0.1165
  992TIP3    H224536   2.562   0.241   6.458 -0.5160  1.0023  1.1334
  993TIP3   OH224537   3.415   0.395   8.491  0.0721  0.0932  0.2122
  993TIP3    H124538   3.352   0.456   8.453 -0.7576  1.9935  4.1698
  993TIP3    H224539   3.363   0.317   8.511 -0.1310  0.1841  0.0488
  994TIP3   OH224540   1.031   1.491   2.016  0.2519  0.0282 -0.3356
  994TIP3    H124541   1.025   1.545   2.094 -0.9196  1.1757 -1.1771
  994TIP3    H224542   1.012   1.402   2.046 -0.3134  0.4725  0.6530
  995TIP3   OH224543   6.044   5.606   7.744  0.5637 -0.1296 -0.4057
  995TIP3    H124544   6.095   5.602   7.663  2.2639  1.7924  0.4820
  995TIP3    H224545   6.033   5.700   7.760 -0.5099 -0.4853  1.1498
  996TIP3   OH224546   3.947   4.462   7.369  0.0415 -0.0284  0.2689
  996TIP3    H124547   3.991   4.546   7.354 -2.4848  1.2993 -0.1605
  996TIP3    H224548   3.998   4.421   7.439  1.1621  1.9857  0.7096
  997TIP3   OH224549   1.679   2.526   1.858 -0.1492 -0.2519 -0.5147
  997TIP3    H124550   1.759   2.482   1.888  0.4843  0.5411 -0.9964
  997TIP3    H224551   1.641   2.563   1.938  0.3005 -0.1018 -0.3683
  998TIP3   OH224552   3.205   6.059   0.722  0.0476  0.1945  0.2039
  998TIP3    H124553   3.231   6.150   0.738  0.2281  0.3093 -0.6737
  998TIP3    H224554   3.266   6.028   0.656  0.9669 -1.0652  1.5708
  999TIP3   OH224555   6.204   6.627   1.745  0.0112 -0.2456  0.6456
  999TIP3    H124556   6.277   6.644   1.806  0.7506 -0.7361 -0.0814
  999TIP3    H224557   6.233   6.552   1.694  0.2041  1.2332 -1.5515
 1000TIP3   OH224558   5.960   2.060   7.370  0.4014  0.1503 -0.6622
 1000TIP3    H124559   5.945   1.987   7.310  1.6823 -0.2956 -0.4771
 1000TIP3    H224560   5.885   2.118   7.357 -0.7389 -1.2624 -0.7070
 1001TIP3   OH224561   5.966   0.507   0.156 -0.3909 -0.3636  0.5365
 1001TIP3    H124562   5.972   0.566   0.081  0.3373 -2.2075 -0.9324
 1001TIP3    H224563   5.941   0.422   0.118  1.0045 -1.5997  2.2325
 1002TIP3   OH224564   5.790   4.462   1.551  0.0810 -0.1212  0.1620
 1002TIP3    H124565   5.844   4.410   1.611 -1.1434  0.6179  1.9905
 1002TIP3    H224566   5.705   4.469   1.594 -1.2783 -0.5484 -2.2509
 1003TIP3   OH224567   2.213   5.274   0.987  0.5679 -0.0789 -0.1134
 1003TIP3    H124568   2.183   5.215   1.057  0.9723 -0.7809 -0.5131
 1003TIP3    H224569   2.302   5.299   1.014 -0.0490  1.3681  0.6765
 1004TIP3   OH224570   4.049   1.344   8.431  0.2252  0.2333  0.5832
 1004TIP3    H124571   4.122   1.287   8.458  0.0038 -1.5106 -2.1953
 1004TIP3    H224572   3.973   1.308   8.475  0.5957  0.5378  1.5167
 1005TIP3   OH224573   5.585   5.973   1.616 -0.0200  0.0043 -0.2013
 1005TIP3    H124574   5.591   5.877   1.615 -0.9046 -0.0531 -1.0122
 1005TIP3    H224575   5.661   6.002   1.567  1.0650 -0.2079  1.2719
 1006TIP3   OH224576   3.922   3.953   0.123  0.2037  0.2404 -0.8423
 1006TIP3    H124577   3.839   3.938   0.168  1.3733 -1.6825  0.8353
 1006TIP3    H224578   3.938   4.047   0.132 -0.5598  0.2134  1.0887
 1007TIP3   OH224579   4.483   6.797   1.318 -0.4282 -0.8233 -0.4766
 1007TIP3    H124580   4.436   6.829   1.395  0.9307  0.4759 -0.1376
 1007TIP3    H224581   4.447   6.847   1.245 -1.9535 -2.2938 -0.7784
 1008TIP3   OH224582   1.149   3.616   7.550  0.0028  0.8082  0.1322
 1008TIP3    H124583   1.170   3.647   7.639 -1.4893 -1.3711  1.3465
 1008TIP3    H224584   1.059   3.646   7.536 -0.1960  0.1006 -0.1211
 1009TIP3   OH224585   6.526   5.618   0.315  0.3804 -0.4399 -0.3329
 1009TIP3    H124586   6.566   5.547   0.364 -0.9263 -0.4150  0.8278
 1009TIP3    H224587   6.441   5.584   0.287 -0.0979  0.5080 -0.0964
 1010TIP3   OH224588   5.426   1.342   7.681  0.1811  0.2579 -0.1717
 1010TIP3    H124589   5.445   1.288   7.758 -0.7827  0.3953  0.1752
 1010TIP3    H224590   5.495   1.408   7.681  0.4690 -0.0333  0.2957
 1011TIP3   OH224591   1.105   4.834   8.595 -0.1908  0.1189  0.0186
 1011TIP3    H124592   1.042   4.865   8.529  1.8261 -0.8764 -2.5502
 1011TIP3    H224593   1.185   4.884   8.578  1.0174 -1.6200  0.2991
 1012TIP3   OH224594   2.864   1.479   1.945 -0.1251 -0.2482 -0.5438
 1012TIP3    H124595   2.854   1.510   2.035 -0.8400 -0.5233 -0.5224
 1012TIP3    H224596   2.857   1.384   1.952 -2.5746 -0.1745 -1.1627
 1013TIP3   OH224597   1.115   1.678   2.598 -0.2179 -0.1382  0.4759
 1013TIP3    H124598   1.097   1.749   2.660 -1.3574 -0.1645  0.2046
 1013TIP3    H224599   1.133   1.723   2.515  3.9796  0.0537  1.2772
 1014TIP3   OH224600   6.200   6.825   7.724 -0.3326  0.2518  0.0948
 1014TIP3    H124601   6.235   6.913   7.708  0.2773  0.3615  1.7814
 1014TIP3    H224602   6.144   6.836   7.800 -3.9113  0.0014 -2.2874
 1015TIP3   OH224603   2.293   1.879   7.747 -0.0222  0.6069  0.3615
 1015TIP3    H124604   2.380   1.901   7.779  1.0190 -0.2287 -1.6739
 1015TIP3    H224605   2.299   1.788   7.720 -0.8191  1.1079 -1.8110
 1016TIP3   OH224606   0.833   0.365   8.137  0.2796 -0.2202 -0.5682
 1016TIP3    H124607   0.888   0.390   8.210 -0.7597  0.0558  0.1415
 1016TIP3    H224608   0.858   0.423   8.066 -1.5601  2.4464  0.8076
 1017TIP3   OH224609   6.819   3.053   2.344  0.1087  0.0813 -0.4724
 1017TIP3    H124610   6.740   3.028   2.297 -0.8069 -0.7399  1.3784
 1017TIP3    H224611   6.843   2.974   2.394  1.2252  0.7771  0.1422
 1018TIP3   OH224612   2.551   2.818   0.108 -0.2874  0.1957 -0.5102
 1018TIP3    H124613   2.555   2.733   0.064 -1.2026  0.2729 -0.7678
 1018TIP3    H224614   2.641   2.838   0.131 -0.0756 -0.9070 -0.3384
 1019TIP3   OH224615   5.699   0.426   1.751  0.1328 -0.2824  0.5440
 1019TIP3    H124616   5.611   0.421   1.716  0.5035  0.9033 -0.6530
 1019TIP3    H224617   5.745   0.351   1.712  0.1819  0.2659 -0.4818
 1020TIP3   OH224618   2.526   4.375   1.675 -0.9473 -0.4098  0.0885
 1020TIP3    H124619   2.514   4.281   1.665  1.2759 -0.8959  1.2889
 1020TIP3    H224620   2.561   4.386   1.763 -2.8867  1.7605  0.6807
 1021TIP3   OH224621   4.162   5.260   2.793  0.3512 -0.2455  0.5589
 1021TIP3    H124622   4.157   5.356   2.790  0.8005 -0.2163  0.6427
 1021TIP3    H224623   4.225   5.242   2.862 -0.9269 -0.6428  1.6531
 1022TIP3   OH224624   4.373   3.624   1.102  0.5515  0.0219 -0.2392
 1022TIP3    H124625   4.461   3.613   1.066  0.5134 -3.2854  0.3503
 1022TIP3    H224626   4.386   3.634   1.196  0.3076  0.6459 -0.2639
 1023TIP3   OH224627   6.506   6.600   7.274 -0.0292  0.2798 -0.3323
 1023TIP3    H124628   6.581   6.649   7.239  1.2455 -0.6296  0.9889
 1023TIP3    H224629   6.476   6.546   7.201  0.7170  0.5314 -0.8375
 1024TIP3   OH224630   4.857   4.463   8.427  0.0447  0.1470 -0.7519
 1024TIP3    H124631   4.858   4.429   8.337  0.1978  0.3649 -0.8346
 1024TIP3    H224632   4.884   4.389   8.481 -0.1872 -0.0263 -0.8703
 1025TIP3   OH224633   6.627   2.383   7.835 -0.1819 -0.4827  0.2303
 1025TIP3    H124634   6.649   2.476   7.824 -1.2382 -0.3932 -1.6214
 1025TIP3    H224635   6.705   2.336   7.805 -0.2337 -0.1737 -0.4138
 1026TIP3   OH224636   4.220   0.770   7.531 -0.1228  0.5161  0.3342
 1026TIP3    H124637   4.296   0.821   7.504  0.5043 -0.3181  0.5082
 1026TIP3    H224638   4.239   0.680   7.505 -1.7028  0.5030 -0.9886
 1027TIP3   OH224639   6.877   0.325   8.422 -0.6236  0.1137 -0.0427
 1027TIP3    H124640   6.892   0.300   8.514  3.5718 -0.7983 -0.7431
 1027TIP3    H224641   6.917   0.412   8.415 -1.9078  0.6620 -0.8259
 1028TIP3   OH224642   6.512   3.485   7.302 -0.5219 -0.0669  0.3528
 1028TIP3    H124643   6.455   3.504   7.227 -3.1561 -0.2642  2.1841
 1028TIP3    H224644   6.523   3.568   7.346  2.2620  0.3586 -0.9232
 1029TIP3   OH224645   4.475   0.352   8.137  0.5974 -0.1034  0.5613
 1029TIP3    H124646   4.488   0.441   8.105  1.0200 -0.2011  0.4477
 1029TIP3    H224647   4.382   0.347   8.159  0.9647  1.1059  2.7439
 1030TIP3   OH224648   4.480   2.011   6.496 -0.3513  0.3979 -0.5923
 1030TIP3    H124649   4.530   2.091   6.511 -0.6915  0.4247  0.4895
 1030TIP3    H224650   4.541   1.954   6.449 -0.1124  1.2838 -1.3917
 1031TIP3   OH224651   6.788   4.461   0.953 -0.2502  0.0520  0.2605
 1031TIP3    H124652   6.703   4.464   0.997 -0.1984 -1.6998  0.5411
 1031TIP3    H224653   6.807   4.553   0.931 -2.3040  0.4607 -0.0182
 1032TIP3   OH224654   3.861   3.315   7.241  0.1218 -0.1539  0.7979
 1032TIP3    H124655   3.870   3.409   7.253 -0.4871  0.0455 -0.2009
 1032TIP3    H224656   3.867   3.302   7.146  1.5080 -1.2708  0.9963
 1033TIP3   OH224657   6.415   0.326   0.561  0.0574 -0.5209 -0.4435
 1033TIP3    H124658   6.396   0.233   0.574  0.7623 -0.5512  0.4878
 1033TIP3    H224659   6.456   0.330   0.474  0.9478 -1.2431 -0.0860
 1034TIP3   OH224660   6.117   3.737   7.715 -0.1802 -0.2592 -0.0162
 1034TIP3    H124661   6.195   3.792   7.706  0.2334 -0.7007  0.7069
 1034TIP3    H224662   6.085   3.755   7.804 -0.1809 -0.9890  0.1376
 1035TIP3   OH224663   5.111   4.305   0.203  0.0527  0.3589  0.1846
 1035TIP3    H124664   5.198   4.290   0.168  0.0199  0.1255  0.2006
 1035TIP3    H224665   5.054   4.248   0.151 -0.2045  1.1044 -0.3659
 1036TIP3   OH224666   6.873   1.363   2.954  0.7620 -0.4201  0.5259
 1036TIP3    H124667   6.918   1.411   3.023 -0.7503 -0.5008  1.6204
 1036TIP3    H224668   6.785   1.349   2.989  0.2954 -1.4210 -0.9859
 1037TIP3   OH224669   4.953   5.600   0.950  0.1089 -0.3853 -0.0444
 1037TIP3    H124670   4.968   5.601   0.856 -2.9386  0.2124 -0.6249
 1037TIP3    H224671   4.999   5.677   0.983  2.0691 -1.1583 -0.8030
 1038TIP3   OH224672   4.028   0.127   7.229  0.1064  0.1070  0.0651
 1038TIP3    H124673   3.965   0.088   7.168 -0.2219 -1.5674  1.3828
 1038TIP3    H224674   4.112   0.089   7.204  0.1713  0.3607 -0.1014
 1039TIP3   OH224675   4.405   1.099   6.948  0.2381  0.5696 -0.5797
 1039TIP3    H124676   4.482   1.121   6.896 -0.0748 -1.1527 -1.8376
 1039TIP3    H224677   4.332   1.100   6.886 -0.8254  2.1766  0.5817
 1040TIP3   OH224678   4.647   5.039   1.581  0.0313 -0.1238  0.4975
 1040TIP3    H124679   4.626   4.980   1.509 -2.5724  0.8772  0.3400
 1040TIP3    H224680   4.596   5.007   1.655  0.0026  0.8632  0.9239
 1041TIP3   OH224681   1.372   5.848   1.184  0.1366 -0.2000 -0.7294
 1041TIP3    H124682   1.319   5.911   1.134  1.4031 -0.3902 -2.3913
 1041TIP3    H224683   1.309   5.806   1.243 -0.6024  3.2512  1.1956
 1042TIP3   OH224684   0.697   4.119   1.412  0.7514  0.3745 -0.2449
 1042TIP3    H124685   0.617   4.124   1.464  0.7173 -0.3550 -0.2144
 1042TIP3    H224686   0.674   4.156   1.327  0.2573 -0.2419 -0.3810
 1043TIP3   OH224687   5.814   0.483   0.439 -0.4889 -0.2914  0.0879
 1043TIP3    H124688   5.906   0.485   0.415 -0.7288 -1.2976 -1.0739
 1043TIP3    H224689   5.777   0.563   0.402 -0.6718 -1.3981 -2.3586
 1044TIP3   OH224690   4.959   1.424   7.399  0.4920 -0.4968  0.4496
 1044TIP3    H124691   5.030   1.399   7.457  0.9841  0.3665  0.2286
 1044TIP3    H224692   4.971   1.518   7.385 -0.1847 -0.5097 -0.2724
 1045TIP3   OH224693   1.713   4.617   7.740  0.8186  0.3764 -0.7352
 1045TIP3    H124694   1.775   4.674   7.694  0.5939 -0.9134 -2.7289
 1045TIP3    H224695   1.755   4.531   7.740 -0.5735 -0.3367 -1.3681
 1046TIP3   OH224696   3.508   3.789   0.094 -0.0748  0.0636  0.2080
 1046TIP3    H124697   3.544   3.830   0.173 -0.0750 -0.2493  0.3746
 1046TIP3    H224698   3.585   3.761   0.045 -0.0197  1.8033 -0.7566
 1047TIP3   OH224699   6.271   4.863   8.585  0.3473 -0.2164  0.5532
 1047TIP3    H124700   6.353   4.887   8.544 -0.3366  1.6344  0.1657
 1047TIP3    H224701   6.212   4.935   8.565 -0.6637 -0.3062  2.8893
 1048TIP3   OH224702   3.660   5.762   0.996  0.4092 -0.9028 -0.3153
 1048TIP3    H124703   3.635   5.670   0.981 -2.0751 -0.5320  0.9885
 1048TIP3    H224704   3.714   5.784   0.921 -1.5216 -2.5459 -2.3602
 1049TIP3   OH224705   2.609   3.002   1.168  0.2258  0.6310  0.3587
 1049TIP3    H124706   2.524   2.996   1.211  0.1315 -0.0618  0.0908
 1049TIP3    H224707   2.665   3.047   1.231  0.1788 -0.6496  1.3481
 1050TIP3   OH224708   1.482   3.136   2.287  0.6409  0.0448 -0.0422
 1050TIP3    H124709   1.505   3.218   2.331  0.9449  1.1778 -2.1677
 1050TIP3    H224710   1.545   3.072   2.322  1.7652  1.2107  0.1556
 1051TIP3   OH224711   3.515   1.005   7.398 -0.3303 -0.3137 -0.7266
 1051TIP3    H124712   3.465   0.950   7.459  0.4246 -0.1912  0.0374
 1051TIP3    H224713   3.605   1.001   7.432 -0.3944  2.1113 -0.0788
 1052TIP3   OH224714   5.249   0.201   7.323  0.1111 -0.5840 -0.2663
 1052TIP3    H124715   5.214   0.219   7.410  0.9618 -0.4244  0.0456
 1052TIP3    H224716   5.341   0.226   7.328  0.1614 -0.5434 -1.2219
 1053TIP3   OH224717   2.000   2.598   1.443  0.2642 -0.4566 -0.4553
 1053TIP3    H124718   2.030   2.572   1.530 -0.9247  0.0158  0.1245
 1053TIP3    H224719   2.078   2.631   1.399  0.5919  0.9498  1.0682
 1054TIP3   OH224720   6.741   1.825   0.187  0.2872  0.3550 -0.4424
 1054TIP3    H124721   6.834   1.813   0.169  0.2123  1.0523 -1.4107
 1054TIP3    H224722   6.735   1.914   0.221 -0.0805  0.4907 -0.8571
 1055TIP3   OH224723   5.114   3.324   6.597  0.0237 -0.1654 -0.2185
 1055TIP3    H124724   5.039   3.356   6.547 -0.4419 -1.8979 -0.6836
 1055TIP3    H224725   5.183   3.389   6.580 -0.9711  0.7730 -0.8049
 1056TIP3   OH224726   4.724   2.134   6.599 -0.0779  0.0794  0.3740
 1056TIP3    H124727   4.674   2.138   6.680  0.2919  1.9453  0.5653
 1056TIP3    H224728   4.810   2.171   6.621 -0.4489  2.0555 -1.1351
 1057TIP3   OH224729   6.403   1.496   1.142 -0.6306 -0.1515 -0.1942
 1057TIP3    H124730   6.327   1.453   1.102 -1.7096  0.3076  1.2914
 1057TIP3    H224731   6.416   1.451   1.225 -0.6204  1.1615  0.5374
 1058TIP3   OH224732   1.611   3.031   8.562  0.1881  0.0162  0.1059
 1058TIP3    H124733   1.630   2.938   8.555  0.1532  0.0085  0.1173
 1058TIP3    H224734   1.698   3.072   8.567  0.2003 -0.0333  0.3129
 1059TIP3   OH224735   6.309   6.033   8.276 -0.7869  0.2751  0.2104
 1059TIP3    H124736   6.240   6.003   8.336  0.2621 -2.4307  0.2357
 1059TIP3    H224737   6.270   6.026   8.189 -1.6205  2.1460  0.3980
 1060TIP3   OH224738   6.108   3.541   8.019  0.2016  0.5960 -0.3368
 1060TIP3    H124739   6.097   3.471   7.955 -1.0729  0.7535 -0.3066
 1060TIP3    H224740   6.032   3.535   8.075  0.9612  0.8991  0.7619
 1061TIP3   OH224741   4.741   4.632   1.491 -0.1798  0.2892  0.0402
 1061TIP3    H124742   4.789   4.672   1.564 -1.5413 -0.8213  1.6155
 1061TIP3    H224743   4.665   4.591   1.532 -0.6108 -1.0166 -1.9357
 1062TIP3   OH224744   1.273   4.431   8.130  0.0182 -0.3451 -0.4527
 1062TIP3    H124745   1.223   4.351   8.143 -0.7872  0.0729 -0.8588
 1062TIP3    H224746   1.206   4.498   8.112  0.6324  0.5141  0.3612
 1063TIP3   OH224747   3.436   5.693   7.810  0.3332  0.3899  0.0216
 1063TIP3    H124748   3.398   5.719   7.894  0.5268 -0.9297  0.5424
 1063TIP3    H224749   3.362   5.697   7.748 -0.3651 -0.7990  0.7321
 1064TIP3   OH224750   2.935   0.190   1.997 -0.1381 -0.4814  0.3442
 1064TIP3    H124751   3.013   0.241   2.017  0.6875 -1.3576 -0.4741
 1064TIP3    H224752   2.870   0.219   2.059  0.5923  0.8727  0.5089
 1065TIP3   OH224753   5.708   4.117   7.670 -0.3580  0.0042  0.0401
 1065TIP3    H124754   5.669   4.031   7.688 -0.6100 -0.3161 -1.8722
 1065TIP3    H224755   5.700   4.128   7.575  0.5254  1.7402  0.1289
 1066TIP3   OH224756   3.763   5.159   1.972 -0.4611  0.6781 -0.1762
 1066TIP3    H124757   3.760   5.095   2.044  0.4032  0.9512  0.1053
 1066TIP3    H224758   3.837   5.131   1.918  0.1440  1.6393  0.1356
 1067TIP3   OH224759   3.612   4.897   1.368  0.1499 -0.0414 -0.0731
 1067TIP3    H124760   3.672   4.828   1.396 -1.3343 -0.7683  1.4457
 1067TIP3    H224761   3.528   4.853   1.357 -0.5604  1.3136 -0.2795
 1068TIP3   OH224762   3.166   5.542   7.694 -0.1884 -0.2511  0.3452
 1068TIP3    H124763   3.079   5.571   7.720 -0.6836  0.0180 -1.5244
 1068TIP3    H224764   3.195   5.607   7.630  0.5382 -1.4505 -0.5810
 1069TIP3   OH224765   3.552   3.219   1.876  0.0573 -0.0140  0.5428
 1069TIP3    H124766   3.638   3.199   1.913  0.8406  2.1897  0.0430
 1069TIP3    H224767   3.491   3.169   1.930  1.6364 -1.8252  0.7486
 1070TIP3   OH224768   4.893   0.068   7.100  0.5890  0.0201  0.1985
 1070TIP3    H124769   4.927  -0.021   7.094 -0.2617 -0.2322 -1.2346
 1070TIP3    H224770   4.874   0.093   7.009  0.8005  1.6628  0.5698
 1071TIP3   OH224771   5.769   5.580   7.480 -0.0349  0.4640 -0.8167
 1071TIP3    H124772   5.777   5.674   7.499 -0.9310  0.1799  1.1481
 1071TIP3    H224773   5.860   5.550   7.473  0.2629  1.4607 -1.4990
 1072TIP3   OH224774   1.943   5.112   0.941  0.4288 -0.8591 -0.1794
 1072TIP3    H124775   2.002   5.070   0.879 -0.0162  0.8486 -1.8337
 1072TIP3    H224776   1.987   5.101   1.026  3.0313  0.1250 -1.2969
 1073TIP3   OH224777   0.818   6.237   6.934  0.1216  0.2514 -0.8483
 1073TIP3    H124778   0.820   6.299   6.861  2.1830  0.7792 -0.3841
 1073TIP3    H224779   0.851   6.286   7.009 -0.4468 -0.7506  0.0932
 1074TIP3   OH224780   3.752   4.603   7.538 -0.1520 -0.3153 -0.2249
 1074TIP3    H124781   3.820   4.629   7.600 -1.0161  0.1964  0.5362
 1074TIP3    H224782   3.774   4.648   7.457  0.5078 -0.2942 -0.0405
 1075TIP3   OH224783   0.757   2.967   1.542 -0.1704 -0.5256  0.6029
 1075TIP3    H124784   0.774   2.916   1.463 -1.1915  0.5310 -0.3410
 1075TIP3    H224785   0.790   2.913   1.614  1.5390 -1.1476 -0.5951
 1076TIP3   OH224786   3.968   1.027   7.604 -0.3327  0.4942  0.1048
 1076TIP3    H124787   3.986   1.104   7.659  2.9577  1.1077 -1.5684
 1076TIP3    H224788   4.043   0.970   7.619 -0.9281 -0.7485 -1.4090
 1077TIP3   OH224789   4.741   1.458   1.858  0.3411  0.1552 -0.3656
 1077TIP3    H124790   4.751   1.366   1.834  1.3874  0.6899 -2.1257
 1077TIP3    H224791   4.797   1.505   1.797 -0.2431  1.9881  0.4453
 1078TIP3   OH224792   1.123   1.293   1.565  0.2225 -0.4029  0.3098
 1078TIP3    H124793   1.183   1.266   1.495  0.4249 -0.5862  0.5554
 1078TIP3    H224794   1.114   1.388   1.553  2.5398  0.0634  1.7850
 1079TIP3   OH224795   0.205   4.086   2.135 -0.6600  0.2039  0.4030
 1079TIP3    H124796   0.120   4.042   2.137 -1.1379  1.1246  2.0523
 1079TIP3    H224797   0.185   4.179   2.127  0.0243  0.6427  2.7846
 1080TIP3   OH224798   1.357   3.933   1.294 -0.9933 -0.2555  0.6054
 1080TIP3    H124799   1.342   3.902   1.205  1.0438 -1.6082  0.6571
 1080TIP3    H224800   1.345   3.856   1.349  0.1681 -0.0327  1.2119
 1081TIP3   OH224801   3.747   2.911   8.238  0.1609  0.7233  0.1462
 1081TIP3    H124802   3.729   2.958   8.320 -0.3151  0.4152  0.2187
 1081TIP3    H224803   3.750   2.980   8.172 -0.3529  0.8799  0.2837
 1082TIP3   OH224804   2.658   5.650   7.934 -0.3385  0.3591 -0.1023
 1082TIP3    H124805   2.737   5.677   7.980  0.1106 -2.0523  0.6845
 1082TIP3    H224806   2.682   5.654   7.841  0.3611  0.6786  0.0900
 1083TIP3   OH224807   1.321   4.173   1.571  0.7655  0.1667 -0.6478
 1083TIP3    H124808   1.251   4.111   1.551  2.2946 -2.3287  1.1024
 1083TIP3    H224809   1.399   4.135   1.530  1.9750  0.2383  1.4320
 1084TIP3   OH224810   4.916   5.476   0.030  0.4906 -0.2641  0.8625
 1084TIP3    H124811   4.858   5.403   0.008 -0.2485  0.8086 -1.0015
 1084TIP3    H224812   5.004   5.443   0.014  0.1775 -0.8454  0.3211
 1085TIP3   OH224813   4.682   2.911   8.093  0.0078 -0.1899  0.6501
 1085TIP3    H124814   4.777   2.906   8.098 -0.0777 -2.0516  0.8035
 1085TIP3    H224815   4.652   2.896   8.183 -0.4638 -0.9533  0.3714
 1086TIP3   OH224816   0.032   0.320   8.004 -0.7145 -0.5277 -0.1670
 1086TIP3    H124817   0.115   0.318   8.051 -1.1401  1.4396  0.7506
 1086TIP3    H224818   0.016   0.412   7.987 -2.9645 -0.8169  0.1055
 1087TIP3   OH224819   2.041   6.115   1.234 -0.2068 -0.1448 -0.0109
 1087TIP3    H124820   1.964   6.140   1.181 -0.6365  0.2362  0.7824
 1087TIP3    H224821   2.014   6.035   1.278 -1.7842  2.0838  3.5102
 1088TIP3   OH224822   0.618   1.236   6.781 -0.2505  0.8110 -0.6830
 1088TIP3    H124823   0.713   1.228   6.768 -0.1614 -0.0080  0.3785
 1088TIP3    H224824   0.582   1.158   6.738 -0.2497  0.0228  0.6904
 1089TIP3   OH224825   3.794   1.107   8.007  0.8388  0.4102 -0.0828
 1089TIP3    H124826   3.818   1.158   7.930  0.6616  1.2462  0.4086
 1089TIP3    H224827   3.875   1.104   8.059  0.9720 -0.1956 -0.3190
 1090TIP3   OH224828   3.949   4.757   8.140 -0.1473  0.0858 -0.0916
 1090TIP3    H124829   4.040   4.773   8.114 -0.5222  1.7136 -0.4961
 1090TIP3    H224830   3.919   4.690   8.080  1.7342 -3.0382  2.1616
 1091TIP3   OH224831   5.158   6.079   0.662 -0.1808 -0.1419 -0.1921
 1091TIP3    H124832   5.162   5.984   0.674 -1.1893 -0.1401  0.1758
 1091TIP3    H224833   5.181   6.115   0.748  2.0086  0.0064 -0.7609
 1092TIP3   OH224834   1.262   5.798   0.155 -0.1479  0.3360 -0.3071
 1092TIP3    H124835   1.316   5.741   0.100 -0.5186 -0.7029  0.3739
 1092TIP3    H224836   1.179   5.805   0.108 -1.1442 -2.0837  0.9377
 1093TIP3   OH224837   2.537   0.281   1.888  0.0989 -0.0013  0.3838
 1093TIP3    H124838   2.568   0.191   1.898 -0.4914 -0.2957 -0.3606
 1093TIP3    H224839   2.546   0.319   1.976  2.0113 -0.2251  0.3150
 1094TIP3   OH224840   6.800   3.179   8.405 -0.4344 -0.0982 -0.0023
 1094TIP3    H124841   6.803   3.084   8.389  0.9235  0.1711 -1.6024
 1094TIP3    H224842   6.729   3.190   8.469 -0.8972 -2.1413 -0.0854
 1095TIP3   OH224843   1.105   2.167   8.124  0.0541 -0.2128  0.1686
 1095TIP3    H124844   1.088   2.178   8.218 -1.3047  1.1495 -0.1928
 1095TIP3    H224845   1.162   2.240   8.102 -1.6632  1.0015 -0.5038
 1096TIP3   OH224846   5.436   4.356   8.269  0.2735 -0.4153  0.5147
 1096TIP3    H124847   5.344   4.385   8.269 -0.3293 -2.1575  1.0506
 1096TIP3    H224848   5.439   4.286   8.204  1.2673 -0.2536  0.3791
 1097TIP3   OH224849   0.622   0.515   1.816 -0.0418  0.4064  0.2321
 1097TIP3    H124850   0.706   0.541   1.776 -0.6494  1.9268 -0.1364
 1097TIP3    H224851   0.622   0.557   1.902 -0.5933  0.7754  0.0584
 1098TIP3   OH224852   5.998   3.854   0.440 -0.0678 -0.0876  0.3925
 1098TIP3    H124853   6.086   3.834   0.408  0.5205 -0.1315  1.9357
 1098TIP3    H224854   5.940   3.830   0.368  1.0525 -1.7984  0.0097
 1099TIP3   OH224855   3.528   0.024   1.665 -0.2525  0.6069 -0.5101
 1099TIP3    H124856   3.464   0.085   1.629 -0.5031  0.9160  0.4268
 1099TIP3    H224857   3.595   0.017   1.598 -0.4609  1.5425 -0.8316
 1100TIP3   OH224858   0.415   4.677   1.349  0.5316  0.6435  0.4478
 1100TIP3    H124859   0.477   4.633   1.407 -0.9018 -1.5963  0.3911
 1100TIP3    H224860   0.463   4.690   1.268  1.0885 -0.5868  0.5670
 1101TIP3   OH224861   0.661   4.756   2.067 -0.7575 -0.1307  0.3344
 1101TIP3    H124862   0.636   4.848   2.072 -1.5730 -0.2741 -0.7905
 1101TIP3    H224863   0.757   4.757   2.069 -0.7598  0.7226  0.4427
 1102TIP3   OH224864   5.775   4.460   1.071  0.4385 -0.4300 -0.5330
 1102TIP3    H124865   5.839   4.412   1.018 -0.2724  0.0664 -1.8974
 1102TIP3    H224866   5.767   4.408   1.151  2.1399 -0.7797 -0.5552
 1103TIP3   OH224867   3.377   1.482   1.381 -0.4600  0.0085 -0.5524
 1103TIP3    H124868   3.375   1.464   1.475  3.4064 -0.8623 -0.4567
 1103TIP3    H224869   3.444   1.550   1.371 -2.3992  1.7720 -2.5530
 1104TIP3   OH224870   6.333   3.803   7.897  0.5394 -0.5262 -0.7569
 1104TIP3    H124871   6.301   3.890   7.870  0.2716 -0.4580 -0.2417
 1104TIP3    H224872   6.339   3.809   7.992  1.5023 -0.7469 -0.8000
 1105TIP3   OH224873   5.209   4.489   8.569  0.1125  0.2783 -0.2566
 1105TIP3    H124874   5.162   4.436   8.504 -1.1445  0.9408  0.1039
 1105TIP3    H224875   5.293   4.509   8.526 -0.3849  0.0608 -1.3720
 1106TIP3   OH224876   1.460   5.785   2.362  0.6126 -0.1297  0.1040
 1106TIP3    H124877   1.548   5.753   2.338 -0.3223 -0.8350 -2.8493
 1106TIP3    H224878   1.424   5.715   2.416  1.9480  0.3220  1.6531
 1107TIP3   OH224879   4.320   6.131   2.357 -1.0903 -0.4252 -0.5485
 1107TIP3    H124880   4.399   6.081   2.341 -1.0391 -0.2212 -0.9524
 1107TIP3    H224881   4.319   6.146   2.452 -0.0905  0.4690 -0.6625
 1108TIP3   OH224882   3.983   0.445   8.056  0.1696  0.0706 -0.0585
 1108TIP3    H124883   3.974   0.540   8.051  2.1545  0.2606 -0.8182
 1108TIP3    H224884   3.939   0.413   7.977 -0.0729  0.3821 -0.0539
 1109TIP3   OH224885   3.844   0.267   2.360 -0.1666 -0.0768  0.7088
 1109TIP3    H124886   3.885   0.336   2.413 -2.4924  1.3567  0.7520
 1109TIP3    H224887   3.821   0.199   2.424  1.5439 -0.6699  0.7568
 1110TIP3   OH224888   0.230   2.047   8.263  0.1623  0.1621  0.7137
 1110TIP3    H124889   0.188   1.962   8.249  0.1833  0.2065  0.3895
 1110TIP3    H224890   0.167   2.111   8.230  0.0929  0.2832  1.0733
 1111TIP3   OH224891   3.528   6.499   8.297  0.1527  0.1314  0.3386
 1111TIP3    H124892   3.592   6.558   8.335 -1.1232  1.6071  0.2927
 1111TIP3    H224893   3.539   6.417   8.346  2.0377  0.3341  0.3160
 1112TIP3   OH224894   1.423   6.403   1.180 -0.1576  0.1419  0.7718
 1112TIP3    H124895   1.351   6.391   1.242  0.7366 -0.4380  1.7183
 1112TIP3    H224896   1.460   6.489   1.202 -0.0159  0.0600  0.8546
 1113TIP3   OH224897   6.602   4.808   0.046  0.2056  0.1405  0.4703
 1113TIP3    H124898   6.628   4.885   0.097 -1.6938  1.5638 -0.5959
 1113TIP3    H224899   6.546   4.843  -0.023 -0.7666 -2.2380 -0.0226
 1114TIP3   OH224900   3.163   0.680   0.155  0.3536 -0.4687  0.2756
 1114TIP3    H124901   3.158   0.589   0.127 -1.1347 -0.7617  1.3764
 1114TIP3    H224902   3.204   0.677   0.241  0.0518 -0.1398  0.4360
 1115TIP3   OH224903   4.974   2.801   2.269  0.4844  0.2805  0.2248
 1115TIP3    H124904   5.068   2.818   2.280  0.8177 -1.2942  0.1695
 1115TIP3    H224905   4.970   2.709   2.243 -1.0711  0.4114 -0.0942
 1116TIP3   OH224906   4.429   5.342   7.171  0.0488 -0.3816  0.1780
 1116TIP3    H124907   4.428   5.282   7.097 -0.1616 -1.8153  1.2814
 1116TIP3    H224908   4.345   5.328   7.214 -0.4266  1.4592 -0.0727
 1117TIP3   OH224909   4.240   4.776   0.004  0.2081  0.8717 -0.0763
 1117TIP3    H124910   4.159   4.754  -0.042 -0.4164 -1.9042  2.1055
 1117TIP3    H224911   4.224   4.863   0.040 -2.4954 -0.1783  1.5430
 1118TIP3   OH224912   6.638   2.685   2.496  0.4873 -0.7218  0.2807
 1118TIP3    H124913   6.721   2.731   2.507  0.0988 -0.3309  1.7591
 1118TIP3    H224914   6.611   2.661   2.584 -0.9936 -0.8321 -0.1645
 1119TIP3   OH224915   4.606   6.778   6.468 -0.2111 -0.1678 -0.3212
 1119TIP3    H124916   4.596   6.870   6.496 -0.4470  0.5571 -2.5969
 1119TIP3    H224917   4.663   6.740   6.534 -0.4203  1.5066  0.9123
 1120TIP3   OH224918   1.445   1.099   8.166  1.0042 -0.5081 -0.2947
 1120TIP3    H124919   1.372   1.040   8.147 -0.0315  0.9464 -1.0103
 1120TIP3    H224920   1.498   1.051   8.230 -0.3171 -1.8088 -0.1122
 1121TIP3   OH224921   3.646   0.678   0.994  0.0900  0.7853 -0.0675
 1121TIP3    H124922   3.678   0.658   1.082 -0.3026 -0.6573 -0.2258
 1121TIP3    H224923   3.628   0.772   0.996  0.2763  0.8162  1.3289
 1122TIP3   OH224924   2.923   4.073   1.780 -0.0428 -0.3617  0.0148
 1122TIP3    H124925   2.960   4.065   1.868  1.2809  1.5926 -0.3030
 1122TIP3    H224926   2.863   4.148   1.786  1.8608  1.3922 -1.2093
 1123TIP3   OH224927   4.069   5.308   7.760 -0.1907 -0.4804  0.3437
 1123TIP3    H124928   4.074   5.220   7.723  1.2988 -1.4587  2.7000
 1123TIP3    H224929   4.157   5.325   7.794 -0.3068  2.1431 -0.4430
 1124TIP3   OH224930   4.525   5.048   0.873  0.0661 -0.3237 -0.2666
 1124TIP3    H124931   4.586   5.009   0.936  0.4055  2.5980  1.3760
 1124TIP3    H224932   4.565   5.031   0.788  0.6754 -2.5476  0.3805
 1125TIP3   OH224933   1.580   6.288   1.521 -0.2434 -0.1913 -0.2726
 1125TIP3    H124934   1.610   6.230   1.591 -1.6530 -1.0200 -0.3030
 1125TIP3    H224935   1.557   6.370   1.566 -2.3389 -1.1241  0.5204
 1126TIP3   OH224936   5.477   6.549   1.416 -0.1992 -0.7374 -0.0236
 1126TIP3    H124937   5.530   6.576   1.341  0.6574 -1.9757  0.1005
 1126TIP3    H224938   5.511   6.462   1.439  1.1596  0.5219  3.2653
 1127TIP3   OH224939   1.736   6.271   1.288 -0.4924 -0.1744  0.3383
 1127TIP3    H124940   1.713   6.338   1.224  0.1843 -1.0002 -0.8031
 1127TIP3    H224941   1.654   6.251   1.332 -0.5341  2.1425  1.4875
 1128TIP3   OH224942   4.735   6.785   7.402  0.5936  0.2957 -0.2252
 1128TIP3    H124943   4.688   6.802   7.483 -1.3747  0.2281 -1.2970
 1128TIP3    H224944   4.765   6.871   7.373  0.5456  0.4319  0.1274
 1129TIP3   OH224945   1.781   4.205   1.723 -0.5120 -0.0363 -0.1933
 1129TIP3    H124946   1.713   4.268   1.697 -0.3674 -0.0426 -0.6032
 1129TIP3    H224947   1.796   4.223   1.815  0.3813  1.3472 -0.5724
 1130TIP3   OH224948   6.738   3.856   8.097 -0.3601 -0.4655 -0.0356
 1130TIP3    H124949   6.703   3.769   8.119  0.4439 -1.0002 -0.8233
 1130TIP3    H224950   6.832   3.848   8.109 -0.1349 -0.1163 -1.4482
 1131TIP3   OH224951   4.661   4.145   6.842  0.0009 -0.1463 -0.0539
 1131TIP3    H124952   4.755   4.153   6.828 -0.3917  2.2441 -1.9898
 1131TIP3    H224953   4.629   4.099   6.764 -0.5496 -0.0843  0.1279
 1132TIP3   OH224954   4.927   5.586   1.862  0.5624  0.5284 -0.3601
 1132TIP3    H124955   4.966   5.500   1.845  0.4355  0.0671  1.4261
 1132TIP3    H224956   5.001   5.641   1.889  0.3270  0.2325  0.9877
 1133TIP3   OH224957   3.509   1.213   7.637  0.0338 -0.0295 -0.1095
 1133TIP3    H124958   3.548   1.126   7.625  0.1522 -0.1191  0.8428
 1133TIP3    H224959   3.568   1.272   7.591  0.8320 -0.2706  0.5727
 1134TIP3   OH224960   3.078   3.801   1.297 -0.3060  0.0131  0.0293
 1134TIP3    H124961   3.007   3.781   1.236  0.1600 -0.8245 -0.2533
 1134TIP3    H224962   3.153   3.824   1.241 -0.2363  0.5046  0.3156
 1135TIP3   OH224963   5.547   2.524   0.811  0.6616 -0.3721 -0.4640
 1135TIP3    H124964   5.588   2.464   0.873 -0.9018  0.0423  1.0621
 1135TIP3    H224965   5.604   2.600   0.808  1.8984 -1.2914 -1.2922
 1136TIP3   OH224966   0.977   5.590   2.647  0.5069 -0.0546 -0.2256
 1136TIP3    H124967   0.901   5.581   2.704  0.9272  0.2178  0.3911
 1136TIP3    H224968   1.007   5.501   2.632  1.4042 -0.0824  1.3958
 1137TIP3   OH224969   5.034   0.208   1.318  0.0060 -0.1508 -0.3597
 1137TIP3    H124970   5.047   0.134   1.378  2.0374  0.2855 -0.1978
 1137TIP3    H224971   4.940   0.210   1.304 -0.3768 -1.2013  1.6305
 1138TIP3   OH224972   4.500   2.959   7.876 -0.0891  0.1542  0.3422
 1138TIP3    H124973   4.554   2.956   7.954  2.0067  1.0706 -0.9721
 1138TIP3    H224974   4.451   3.042   7.884  0.5913  0.5554  0.3914
 1139TIP3   OH224975   5.912   1.667   6.972 -0.1984 -0.7351 -0.7839
 1139TIP3    H124976   5.872   1.738   6.921 -4.6186  0.0251  3.0345
 1139TIP3    H224977   5.904   1.590   6.916 -3.9960  0.1653 -1.7980
 1140TIP3   OH224978   0.129   4.830   1.063  0.6528 -0.0221 -0.3266
 1140TIP3    H124979   0.109   4.832   1.157  0.3434 -1.7789 -0.3222
 1140TIP3    H224980   0.216   4.870   1.056  0.5786  0.3399  0.6758
 1141TIP3   OH224981   4.687   5.043   0.648  0.2792  0.3524  0.0676
 1141TIP3    H124982   4.699   5.135   0.625  3.0179  0.0952  0.2464
 1141TIP3    H224983   4.773   5.014   0.677 -0.7175 -2.0763  0.7932
 1142TIP3   OH224984   3.371   0.328   2.291 -0.3778  0.4535  0.3564
 1142TIP3    H124985   3.328   0.387   2.353  0.7866 -0.1177  1.7828
 1142TIP3    H224986   3.460   0.362   2.283  1.1485 -2.3088  3.1494
 1143TIP3   OH224987   4.410   4.061   6.979  0.1199 -0.2665  0.3156
 1143TIP3    H124988   4.434   3.972   7.006  0.1107 -0.6936 -1.0031
 1143TIP3    H224989   4.480   4.116   7.014  1.3127 -1.0905 -0.6752
 1144TIP3   OH224990   5.157   5.535   2.600  0.0489  0.1765 -0.2502
 1144TIP3    H124991   5.165   5.531   2.695 -0.3713  1.8676 -0.1184
 1144TIP3    H224992   5.236   5.493   2.568  0.8690  0.8061  0.8641
 1145TIP3   OH224993   4.787   3.197   0.463  0.1787  0.1544 -0.5210
 1145TIP3    H124994   4.795   3.180   0.369 -1.0392  1.5995 -0.9205
 1145TIP3    H224995   4.700   3.235   0.473  0.2461 -0.0789  1.2260
 1146TIP3   OH224996   4.905   0.118   8.171  0.3504  0.6312 -0.1326
 1146TIP3    H124997   4.838   0.180   8.143 -1.0971 -0.8201 -0.0288
 1146TIP3    H224998   4.867   0.032   8.155  1.4640 -0.2602  1.6403
 1147TIP3   OH224999   1.857   6.611   2.135  0.4521  0.5892  0.4111
 1147TIP3    H125000   1.936   6.657   2.163  0.6033  0.2576  0.5370
 1147TIP3    H225001   1.790   6.639   2.198  0.9566 -0.6973  1.5810
 1148TIP3   OH225002   0.654   0.190   0.485  0.4502  0.0635 -0.3372
 1148TIP3    H125003   0.743   0.157   0.473  0.6216  0.5149 -0.2870
 1148TIP3    H225004   0.663   0.265   0.543 -0.3537 -2.1450  2.9211
 1149TIP3   OH225005   5.575   5.699   7.922 -0.1896 -0.0625 -0.1211
 1149TIP3    H125006   5.602   5.765   7.858 -1.7735  1.4567  0.7033
 1149TIP3    H225007   5.524   5.748   7.987 -3.3330 -2.4024 -0.6142
 1150TIP3   OH225008   1.112   6.405   7.631  0.0518  0.1186  0.4911
 1150TIP3    H125009   1.088   6.498   7.637 -1.3013 -0.0559 -1.1800
 1150TIP3    H225010   1.053   6.362   7.692  1.1278  0.3984  1.7568
 1151TIP3   OH225011   3.590   6.883   0.086  0.2195 -0.4380  0.1777
 1151TIP3    H125012   3.668   6.850   0.130  0.0005 -1.7632 -0.3793
 1151TIP3    H225013   3.519   6.870   0.149  0.0289 -1.6622 -0.2608
 1152TIP3   OH225014   4.743   1.309   1.462  0.3722  0.0351 -0.2461
 1152TIP3    H125015   4.802   1.256   1.408  0.6146  0.2418 -0.1894
 1152TIP3    H225016   4.663   1.317   1.410  0.2345 -0.6133 -0.1364
 1153TIP3   OH225017   3.431   2.498   7.822  0.1156  0.4240 -0.3977
 1153TIP3    H125018   3.373   2.461   7.755  0.7889  0.6897 -1.1525
 1153TIP3    H225019   3.399   2.462   7.905 -2.0250  1.7141 -0.6158
 1154TIP3   OH225020   3.939   3.821   7.604 -0.1281  0.8024  0.2919
 1154TIP3    H125021   4.010   3.784   7.656 -0.9658 -0.9318  0.2420
 1154TIP3    H225022   3.894   3.880   7.663 -1.8363 -2.0541  2.0427
 1155TIP3   OH225023   6.100   4.950   1.087 -0.4399 -0.5503 -0.3186
 1155TIP3    H125024   6.126   4.896   1.161  0.0375 -0.1847 -0.2095
 1155TIP3    H225025   6.020   4.911   1.054  0.7717 -2.3603 -1.2891
 1156TIP3   OH225026   4.632   3.580   1.064  0.7599  0.0418  0.0938
 1156TIP3    H125027   4.654   3.489   1.079  0.7074  0.1549  0.8873
 1156TIP3    H225028   4.716   3.626   1.063  0.9977 -0.2975 -2.5562
 1157TIP3   OH225029   6.869   2.605   8.551  0.3499  0.2962  0.3826
 1157TIP3    H125030   6.817   2.529   8.525  1.8792 -0.9498  0.8581
 1157TIP3    H225031   6.905   2.582   8.636  1.5268  1.2042  0.1546
 1158TIP3   OH225032   3.018   1.935   1.570  0.1758  0.8256  0.2100
 1158TIP3    H125033   2.991   1.936   1.478 -0.2329  0.5917  0.3260
 1158TIP3    H225034   2.953   1.987   1.616 -1.7486 -1.9747  0.9207
 1159TIP3   OH225035   3.793   1.773   8.252 -0.9316  0.0966  0.2872
 1159TIP3    H125036   3.775   1.867   8.256  0.4919  0.5234 -1.8988
 1159TIP3    H225037   3.887   1.766   8.270 -0.7435 -0.7388 -0.9353
 1160TIP3   OH225038   3.779   1.287   8.515  0.5000 -0.1276  0.0802
 1160TIP3    H125039   3.744   1.363   8.468  0.1275  0.0685  0.6673
 1160TIP3    H225040   3.722   1.215   8.491 -0.5750  0.2620  1.3147
 1161TIP3   OH225041   3.289   5.433   1.104  0.1003  0.4459  0.0214
 1161TIP3    H125042   3.314   5.522   1.080  1.6922 -0.3962 -1.6713
 1161TIP3    H225043   3.327   5.421   1.191  2.5411  0.4941 -0.9395
 1162TIP3   OH225044   5.664   3.570   7.097  0.5438 -0.7155 -1.1312
 1162TIP3    H125045   5.718   3.559   7.018  1.8760 -0.2301 -0.3339
 1162TIP3    H225046   5.725   3.555   7.169 -0.4957 -0.5106 -0.1908
 1163TIP3   OH225047   2.876   6.659   7.478  0.3565 -0.3894 -0.5303
 1163TIP3    H125048   2.848   6.625   7.393 -0.7253 -1.5461  0.2360
 1163TIP3    H225049   2.796   6.659   7.531  0.8579  0.9971  0.2881
 1164TIP3   OH225050   6.290   5.334   1.350  0.5618 -0.4946 -0.0913
 1164TIP3    H125051   6.355   5.352   1.417 -0.0211  1.6954 -0.0298
 1164TIP3    H225052   6.219   5.288   1.396  1.1418 -1.0463  0.2646
 1165TIP3   OH225053   4.240   5.755   1.569  0.0748  0.5019 -0.7436
 1165TIP3    H125054   4.161   5.776   1.618  0.6781  4.5451 -1.1984
 1165TIP3    H225055   4.309   5.751   1.635  0.0499  0.5326 -0.7157
 1166TIP3   OH225056   5.359   2.035   1.139  0.8264  0.3136 -0.3395
 1166TIP3    H125057   5.313   1.953   1.161  0.8928  0.7264  1.5484
 1166TIP3    H225058   5.293   2.103   1.153  1.4889  0.7685  0.6658
 1167TIP3   OH225059   3.856   6.580   0.362 -0.6482 -0.7718  0.6509
 1167TIP3    H125060   3.770   6.623   0.360 -0.3959 -0.2659  0.1536
 1167TIP3    H225061   3.853   6.524   0.439 -2.0919 -2.1552 -0.3465
 1168TIP3   OH225062   4.389   2.491   0.622 -0.0574 -0.1507  0.0781
 1168TIP3    H125063   4.441   2.421   0.583  1.4953  0.0327  1.6926
 1168TIP3    H225064   4.300   2.455   0.628  0.7272 -2.0309  0.9512
 1169TIP3   OH225065   5.835   0.450   2.197 -0.4069  0.3896  0.4351
 1169TIP3    H125066   5.863   0.518   2.258  0.4121  0.5220 -0.0801
 1169TIP3    H225067   5.857   0.483   2.111  1.3649 -1.0938  0.2417
 1170TIP3   OH225068   1.139   6.553   1.488  0.5542  0.0556 -0.1674
 1170TIP3    H125069   1.058   6.557   1.437 -0.9593  2.2306  2.1716
 1170TIP3    H225070   1.183   6.473   1.457 -1.9074 -0.6102 -2.2920
 1171TIP3   OH225071   4.159   6.830   1.008  0.0241 -0.3856  0.0403
 1171TIP3    H125072   4.087   6.891   1.023  0.4907  0.5699 -1.4074
 1171TIP3    H225073   4.124   6.766   0.946 -0.2145 -1.1679  0.9542
 1172TIP3   OH225074   2.573   5.126   7.203 -0.3494  0.0181 -0.0402
 1172TIP3    H125075   2.532   5.165   7.126 -1.4622 -0.7978  0.1093
 1172TIP3    H225076   2.617   5.048   7.169 -1.3195 -0.6581  0.2095
 1173TIP3   OH225077   5.937   3.818   8.291 -0.3478  0.0296 -0.7236
 1173TIP3    H125078   5.986   3.879   8.236  0.5909 -0.7822 -0.8198
 1173TIP3    H225079   5.926   3.740   8.237 -1.9896  0.2684 -0.7900
 1174TIP3   OH225080   5.575   0.610   2.158 -0.5436 -0.6851 -0.2458
 1174TIP3    H125081   5.595   0.687   2.104 -0.4972  0.4556  1.3345
 1174TIP3    H225082   5.489   0.582   2.129 -0.6661  0.1101 -0.6867
 1175TIP3   OH225083   2.489   5.631   8.444  0.3159 -0.1267 -0.5311
 1175TIP3    H125084   2.558   5.565   8.443  0.5675  0.0891  0.7181
 1175TIP3    H225085   2.499   5.677   8.361  1.2674 -0.5039 -0.6436
 1176TIP3   OH225086   1.627   3.609   2.092  0.1414 -0.0143 -0.1540
 1176TIP3    H125087   1.574   3.658   2.155 -0.4908 -1.5525  0.5659
 1176TIP3    H225088   1.571   3.602   2.014 -0.5430 -1.1235  0.3972
 1177TIP3   OH225089   6.615   3.611   1.911 -0.0946 -0.5011 -0.1087
 1177TIP3    H125090   6.575   3.540   1.861  0.7663 -2.3025  1.6169
 1177TIP3    H225091   6.545   3.641   1.969 -0.2215 -0.4880 -0.2658
 1178TIP3   OH225092   1.923   4.147   0.204  0.1464  0.2887 -0.5804
 1178TIP3    H125093   1.905   4.085   0.275 -2.2039  0.7023 -0.7321
 1178TIP3    H225094   2.002   4.113   0.162  0.3306 -1.1967  0.8803
 1179TIP3   OH225095   4.220   2.488   0.252 -0.7384 -0.4280  0.6071
 1179TIP3    H125096   4.285   2.534   0.200  0.4293 -0.7423  1.7430
 1179TIP3    H225097   4.147   2.549   0.258  0.0205  0.5101  0.4976
 1180TIP3   OH225098   4.720   1.471   0.918 -0.1493  0.0789  0.9665
 1180TIP3    H125099   4.675   1.391   0.891 -1.1817  0.4666  1.4517
 1180TIP3    H225100   4.685   1.538   0.860  0.5020  0.2301  0.7451
 1181TIP3   OH225101   5.810   3.438   0.810 -0.0964 -0.3509  0.3222
 1181TIP3    H125102   5.866   3.366   0.782 -1.7015 -1.0382 -1.3354
 1181TIP3    H225103   5.853   3.517   0.775  0.3629 -0.7644 -0.0524
 1182TIP3   OH225104   4.167   3.595   2.096 -0.5987  0.2190  0.0158
 1182TIP3    H125105   4.246   3.541   2.094  0.2819  1.4257  0.5648
 1182TIP3    H225106   4.095   3.533   2.102  0.2418 -0.9590 -1.3926
 1183TIP3   OH225107   4.418   1.375   1.754  0.2618 -0.6411  0.3118
 1183TIP3    H125108   4.357   1.416   1.815 -0.0246  2.5230 -1.8538
 1183TIP3    H225109   4.366   1.359   1.675  1.6074 -0.2017 -0.7103
 1184TIP3   OH225110   5.406   0.554   8.230 -0.5200  0.1273  0.1888
 1184TIP3    H125111   5.422   0.461   8.216 -0.1350  0.2386 -0.1263
 1184TIP3    H225112   5.461   0.577   8.304 -0.3572  0.1790  0.0518
 1185TIP3   OH225113   6.226   5.728   0.430 -0.4976  0.8744 -0.0212
 1185TIP3    H125114   6.236   5.643   0.471  1.7763  1.1386  0.0552
 1185TIP3    H225115   6.208   5.788   0.503  0.9842  0.9303  0.3199
 1186TIP3   OH225116   4.498   2.749   0.666 -0.7667 -0.0551 -0.4521
 1186TIP3    H125117   4.461   2.786   0.585  0.4506 -0.2357 -1.1149
 1186TIP3    H225118   4.461   2.661   0.670 -1.1154  0.0793 -0.6204
 1187TIP3   OH225119   6.512   6.002   1.668  0.0630 -0.3017 -0.1195
 1187TIP3    H125120   6.590   5.974   1.620 -0.3927 -3.4604  0.7516
 1187TIP3    H225121   6.473   6.070   1.613  1.4586 -1.2422 -2.4182
 1188TIP3   OH225122   6.178   3.616   6.878 -0.6398  0.6409 -0.1409
 1188TIP3    H125123   6.236   3.670   6.825  5.3764 -3.2504  1.4854
 1188TIP3    H225124   6.165   3.536   6.827 -0.4468 -0.4685  1.4623
 1189TIP3   OH225125   3.883   5.988   1.233 -0.4103  0.0236  0.2582
 1189TIP3    H125126   3.796   5.992   1.194 -0.3521 -0.2366  0.0981
 1189TIP3    H225127   3.926   5.916   1.187  0.4273  1.1417 -0.7576
 1190TIP3   OH225128   0.776   2.551   8.643  0.5248 -0.3382  0.2168
 1190TIP3    H125129   0.834   2.625   8.660  0.4127  0.1168 -1.2230
 1190TIP3    H225130   0.832   2.487   8.599  0.2899 -0.5135  0.1710
 1191TIP3   OH225131   2.650   4.611   7.994  0.2666  0.4480 -0.0339
 1191TIP3    H125132   2.705   4.536   8.012  2.3118  2.1756  1.3697
 1191TIP3    H225133   2.573   4.599   8.050  0.6880 -0.4228  0.3703
 1192TIP3   OH225134   4.400   4.609   1.884  0.9353 -0.2847 -0.6416
 1192TIP3    H125135   4.427   4.563   1.805  0.4949 -0.6825 -0.5613
 1192TIP3    H225136   4.482   4.637   1.925  1.1999 -0.8812 -0.7583
 1193TIP3   OH225137   6.260   6.772   2.158  0.7181  0.3714  0.1105
 1193TIP3    H125138   6.199   6.706   2.189 -0.3878  1.3287  0.0403
 1193TIP3    H225139   6.328   6.776   2.225  0.2404 -0.0893  0.6304
 1194TIP3   OH225140   5.664   2.444   1.469 -0.0620 -0.4305 -0.5615
 1194TIP3    H125141   5.569   2.448   1.477 -0.2516 -3.2868 -0.6567
 1194TIP3    H225142   5.697   2.491   1.546 -1.5703 -1.1040  0.5302
 1195TIP3   OH225143   5.079   5.052   2.412 -0.3689 -0.3919 -0.8294
 1195TIP3    H125144   5.081   4.978   2.350 -1.7693 -0.0044 -1.3647
 1195TIP3    H225145   5.048   5.126   2.360  0.3334  0.4176 -0.1174
 1196TIP3   OH225146   5.205   5.022   0.520  0.2992  0.1638  0.5187
 1196TIP3    H125147   5.257   5.071   0.584  0.2457  0.8413  0.0617
 1196TIP3    H225148   5.136   5.084   0.493  0.1465 -0.2113  0.0305
 1197TIP3   OH225149   3.079   3.197   1.308  0.4052  0.9089 -0.4172
 1197TIP3    H125150   3.056   3.142   1.384  2.5952 -0.0352 -0.3685
 1197TIP3    H225151   3.107   3.280   1.347  2.5603  0.0632 -0.0530
 1198TIP3   OH225152   4.344   2.672   1.142  0.2740  0.2242  0.6964
 1198TIP3    H125153   4.352   2.744   1.080  2.1221  1.8661  2.6729
 1198TIP3    H225154   4.375   2.595   1.095 -0.8974  0.8365 -1.1835
 1199TIP3   OH225155   2.626   1.939   0.711  0.3693  0.2325  0.0928
 1199TIP3    H125156   2.630   1.864   0.770  1.0617  0.0257 -0.1977
 1199TIP3    H225157   2.567   2.001   0.754 -0.0561 -0.3957  0.4303
 1200TIP3   OH225158   6.408   2.696   2.128 -0.4813  0.3566 -0.6440
 1200TIP3    H125159   6.399   2.612   2.082  0.6975 -0.5118  0.6199
 1200TIP3    H225160   6.318   2.722   2.149 -0.8450 -0.7679 -0.7559
 1201TIP3   OH225161   4.319   0.137   1.745  0.2780 -0.4929 -0.1573
 1201TIP3    H125162   4.376   0.092   1.807 -0.5533 -0.7774  0.4326
 1201TIP3    H225163   4.378   0.189   1.690  1.0429 -0.2661  0.8455
 1202TIP3   OH225164   2.317   1.903   0.802 -0.1797 -0.0206 -0.2363
 1202TIP3    H125165   2.222   1.901   0.816 -0.1049  1.0466  0.5689
 1202TIP3    H225166   2.352   1.837   0.862 -0.3088  0.6876  0.6472
 1203TIP3   OH225167   0.012   4.852   0.004  0.1009  0.2223  0.3319
 1203TIP3    H125168  -0.067   4.799   0.016  0.0843  0.5937  2.2680
 1203TIP3    H225169   0.081   4.789  -0.016 -0.4676 -0.2255 -0.2414
 1204TIP3   OH225170   6.736   3.933   8.532 -0.4129 -0.2719  0.1355
 1204TIP3    H125171   6.795   3.936   8.456 -0.6475  0.9197 -0.0173
 1204TIP3    H225172   6.763   4.007   8.586 -0.9861 -0.4374  0.6565
 1205TIP3   OH225173   0.684   3.873   8.583 -0.7140 -0.0286  0.2915
 1205TIP3    H125174   0.634   3.866   8.664 -2.6512  0.2227 -0.8173
 1205TIP3    H225175   0.699   3.967   8.571 -0.5769 -0.0525  0.2627
 1206TIP3   OH225176   5.842   6.627   8.567 -0.4944  0.0682  0.1459
 1206TIP3    H125177   5.795   6.544   8.555  0.2864 -0.7014  2.0858
 1206TIP3    H225178   5.932   6.607   8.543 -0.2621  0.2943  0.8159
 1207TIP3   OH225179   4.097   3.124   0.192 -0.6442 -0.3812 -0.2937
 1207TIP3    H125180   4.167   3.189   0.192 -0.0486 -1.0132  0.1166
 1207TIP3    H225181   4.044   3.145   0.269 -1.3251  0.5211 -0.9823
 1208TIP3   OH225182   4.040   4.803   0.842  0.2997 -0.1966  0.2543
 1208TIP3    H125183   3.971   4.755   0.887  0.2834 -0.3023  0.1154
 1208TIP3    H225184   4.116   4.794   0.899  0.7052 -1.6236 -0.4731
 1209TIP3   OH225185   0.554   6.491   0.714 -0.1054  0.2073  0.0302
 1209TIP3    H125186   0.606   6.571   0.704  0.1257  0.0205 -0.2963
 1209TIP3    H225187   0.539   6.483   0.808 -0.6995  0.9961  0.0038
 1210TIP3   OH225188   2.060   5.220   8.203 -0.3195  0.3385  0.5716
 1210TIP3    H125189   2.117   5.294   8.180 -0.3193 -0.1612 -1.1660
 1210TIP3    H225190   2.120   5.154   8.239 -0.3189  1.1270  2.1292
 1211TIP3   OH225191   1.082   1.065   0.013 -0.0097  0.3905  0.6038
 1211TIP3    H125192   0.987   1.071   0.013 -0.1647 -1.5322  0.2704
 1211TIP3    H225193   1.112   1.155   0.030 -1.8566  1.0608  0.4914
 1212TIP3   OH225194   3.111   6.205   8.614  0.4436 -0.8742  0.0159
 1212TIP3    H125195   3.075   6.291   8.637 -2.1381 -1.7318 -0.4739
 1212TIP3    H225196   3.193   6.225   8.569  0.3383  1.2781  0.6631
 1213TIP3   OH225197   1.606   5.813   0.308 -0.2863 -0.5143  0.2216
 1213TIP3    H125198   1.526   5.761   0.317 -0.2668 -0.4719  0.6768
 1213TIP3    H225199   1.674   5.748   0.292 -0.4957 -0.5061 -0.7230
 1214TIP3   OH225200   3.709   5.927   6.919 -0.0252  0.1755 -0.0189
 1214TIP3    H125201   3.647   5.903   6.988  0.5706 -1.2858  0.0450
 1214TIP3    H225202   3.676   6.010   6.885 -1.0198  0.3120  1.1934
 1215TIP3   OH225203   3.169   1.211   0.738  0.6863  0.5330  0.2135
 1215TIP3    H125204   3.217   1.174   0.664 -2.0298 -0.7701 -1.0397
 1215TIP3    H225205   3.110   1.141   0.766  1.3779  1.0811  3.5022
 1216TIP3   OH225206   1.667   0.811   0.665 -0.2444 -0.0102  0.4879
 1216TIP3    H125207   1.659   0.855   0.750 -1.0420  2.3672 -0.7303
 1216TIP3    H225208   1.577   0.808   0.632  0.1185 -0.4687 -0.4921
 1217TIP3   OH225209   1.182   4.734   1.757 -0.3093 -0.9440  0.1172
 1217TIP3    H125210   1.176   4.678   1.835 -1.2410 -0.1851  0.6167
 1217TIP3    H225211   1.094   4.732   1.720 -0.2521 -0.1270 -0.0716
 1218TIP3   OH225212   4.912   5.213   1.767 -0.3361  0.1276 -0.4109
 1218TIP3    H125213   4.978   5.278   1.792  0.2389 -0.1454 -1.2044
 1218TIP3    H225214   4.940   5.133   1.811 -0.2841  0.0749 -0.5408
 1219TIP3   OH225215   5.468   3.420   6.920 -0.0497 -0.4551  0.0307
 1219TIP3    H125216   5.498   3.422   6.829  0.4778  0.3213  0.2148
 1219TIP3    H225217   5.523   3.484   6.965  0.4250 -1.5770  1.1178
 1220TIP3   OH225218   3.120   5.192   1.316  0.5501  0.5072  0.2564
 1220TIP3    H125219   3.035   5.182   1.359  0.6384 -0.9902  0.1245
 1220TIP3    H225220   3.103   5.173   1.224  1.4475 -2.4141  0.6078
 1221TIP3   OH225221   5.917   0.275   1.629 -0.2071  0.2421  0.4375
 1221TIP3    H125222   5.975   0.351   1.621  3.8922 -2.5300  0.9172
 1221TIP3    H225223   5.918   0.235   1.542 -0.0421 -0.7166  0.8694
 1222TIP3   OH225224   3.344   3.903   0.759  0.3452 -0.1234  0.8415
 1222TIP3    H125225   3.267   3.919   0.704  1.0597 -0.0368 -0.1518
 1222TIP3    H225226   3.358   3.808   0.753  0.3610 -0.1284  0.9608
 1223TIP3   OH225227   3.103   1.510   1.799  0.2954  0.2345  0.2073
 1223TIP3    H125228   3.098   1.602   1.773 -1.3500  0.0139 -0.4117
 1223TIP3    H225229   3.022   1.496   1.849 -0.3135 -1.2748 -1.1284
 1224TIP3   OH225230   2.972   4.129   7.342 -0.0089 -0.0317 -0.0346
 1224TIP3    H125231   2.884   4.166   7.343  0.2245  0.5450 -0.6297
 1224TIP3    H225232   3.026   4.194   7.387  0.0370 -0.5983  0.7554
 1225TIP3   OH225233   5.151   4.314   8.383 -0.2071  0.2661  0.2236
 1225TIP3    H125234   5.172   4.221   8.372 -0.9783 -0.0622  1.3873
 1225TIP3    H225235   5.096   4.336   8.308 -0.7929 -0.4566  0.4419
 1226TIP3   OH225236   0.057   0.288   2.074 -0.2676 -0.2816 -0.4140
 1226TIP3    H125237   0.035   0.361   2.131  1.6079  0.3929 -0.5027
 1226TIP3    H225238   0.142   0.258   2.104 -0.9572 -2.4513 -0.4087
 1227TIP3   OH225239   4.720   1.814   1.786  0.1545  0.1199  0.5647
 1227TIP3    H125240   4.787   1.778   1.844 -0.3677 -0.7683  0.6289
 1227TIP3    H225241   4.680   1.885   1.836  1.9026  1.5315  0.0394
 1228TIP3   OH225242   0.534   5.438   1.924  0.4154 -0.1339 -0.5774
 1228TIP3    H125243   0.619   5.480   1.932  0.1501  0.1214  1.3681
 1228TIP3    H225244   0.485   5.495   1.865  0.7837  1.1258  0.2898
 1229TIP3   OH225245   5.928   1.703   8.106 -0.2516  1.0020  0.5668
 1229TIP3    H125246   5.901   1.613   8.122  1.7385  0.1677 -0.4758
 1229TIP3    H225247   5.899   1.720   8.016  0.5749  0.9148  0.2804
 1230TIP3   OH225248   0.597   4.384   7.905  0.0250 -0.4859 -0.1339
 1230TIP3    H125249   0.511   4.393   7.946  0.2413  0.5149  0.1383
 1230TIP3    H225250   0.631   4.302   7.940 -0.3703 -0.3459  0.6213
 1231TIP3   OH225251   0.165   6.715   8.463  0.3787 -0.6581 -0.1456
 1231TIP3    H125252   0.120   6.799   8.471 -1.1789 -1.6338  2.7345
 1231TIP3    H225253   0.258   6.737   8.467  0.0098  0.9505  0.3442
 1232TIP3   OH225254   2.840   5.616   1.717  0.3419 -0.1027  0.6552
 1232TIP3    H125255   2.914   5.557   1.729 -0.5270 -1.4020 -0.0397
 1232TIP3    H225256   2.776   5.587   1.782  0.4651  1.0751  1.3266
 1233TIP3   OH225257   3.486   0.673   7.371  0.0190  0.7305 -0.1488
 1233TIP3    H125258   3.545   0.600   7.354  0.0248  0.7415 -0.1758
 1233TIP3    H225259   3.479   0.719   7.287  0.3239  0.9822 -0.0408
 1234TIP3   OH225260   1.143   5.927   8.585 -1.0254  0.2033 -0.6882
 1234TIP3    H125261   1.222   5.907   8.535 -1.4131  1.7972 -2.0367
 1234TIP3    H225262   1.085   5.852   8.570 -0.4140 -0.1978 -1.0804
 1235TIP3   OH225263   4.583   5.823   6.717 -0.0986  0.6622  0.1452
 1235TIP3    H125264   4.638   5.812   6.795  0.0120 -0.1793 -0.0482
 1235TIP3    H225265   4.635   5.786   6.645 -1.2428 -0.9503  0.0932
 1236TIP3   OH225266   0.343   1.603   6.057  0.4809 -0.0996 -0.2072
 1236TIP3    H125267   0.412   1.565   6.111  1.0835 -0.1468 -0.9988
 1236TIP3    H225268   0.281   1.531   6.042  0.3907 -0.1246  0.2863
 1237TIP3   OH225269   1.691   2.209   1.758 -0.7078  0.5437 -0.2847
 1237TIP3    H125270   1.712   2.294   1.719 -1.6334  1.1487  0.4822
 1237TIP3    H225271   1.597   2.198   1.744 -1.1783  0.9746  2.0294
 1238TIP3   OH225272   0.337   3.835   0.951 -0.0176 -0.5317 -0.2912
 1238TIP3    H125273   0.427   3.810   0.972  0.7750  0.4696 -2.2271
 1238TIP3    H225274   0.340   3.930   0.938 -1.6274 -0.2882  0.7431
 1239TIP3   OH225275   5.961   5.811   0.416  0.0745  0.3367  0.1060
 1239TIP3    H125276   6.023   5.819   0.343 -0.0352  0.8763  0.0628
 1239TIP3    H225277   5.994   5.872   0.482 -0.8277  1.2171 -0.2295
 1240TIP3   OH225278   0.610   6.733   2.081  0.2698 -0.3947  0.0759
 1240TIP3    H125279   0.699   6.699   2.079 -0.0069 -1.5738  2.9842
 1240TIP3    H225280   0.557   6.659   2.112 -1.8726  0.0621 -2.2258
 1241TIP3   OH225281   2.517   2.679   7.283  0.6351 -0.2582  0.0280
 1241TIP3    H125282   2.478   2.709   7.366 -0.6066 -2.7030  0.4325
 1241TIP3    H225283   2.571   2.604   7.308  0.3924 -0.9201 -1.3567
 1242TIP3   OH225284   5.852   6.233   6.817  0.0884  0.0152  0.6652
 1242TIP3    H125285   5.759   6.213   6.831  0.1866 -1.1104 -0.1718
 1242TIP3    H225286   5.852   6.321   6.778 -0.6989 -0.4128 -0.3463
 1243TIP3   OH225287   3.375   4.869   0.280 -0.3744 -0.0923 -1.0678
 1243TIP3    H125288   3.289   4.869   0.321  0.5380 -1.8365  0.9964
 1243TIP3    H225289   3.393   4.778   0.259  1.5209  0.0027 -0.1366
 1244TIP3   OH225290   1.034   1.248   2.196  0.1257 -0.3087 -0.3256
 1244TIP3    H125291   0.977   1.254   2.273 -2.2056  3.8197 -2.0180
 1244TIP3    H225292   1.118   1.281   2.227 -0.8311  1.5178  0.5530
 1245TIP3   OH225293   2.372   5.335   8.274  0.4585 -0.0976  0.1501
 1245TIP3    H125294   2.420   5.374   8.201  0.7920 -0.3423  0.2373
 1245TIP3    H225295   2.412   5.249   8.286 -0.0454 -0.3327  0.1810
 1246TIP3   OH225296   0.497   6.207   8.603 -0.1254 -0.0952 -0.4799
 1246TIP3    H125297   0.409   6.227   8.633 -0.1494 -1.6581  0.5592
 1246TIP3    H225298   0.516   6.276   8.539 -1.1177  1.7633  1.1162
 1247TIP3   OH225299   4.152   2.277   0.929  0.1456 -0.3627 -0.0430
 1247TIP3    H125300   4.104   2.359   0.920  1.2779  0.5096  1.2189
 1247TIP3    H225301   4.087   2.213   0.957 -0.5272  0.4421  0.2602
 1248TIP3   OH225302   6.508   4.442   2.420  0.2009 -0.2297  0.1448
 1248TIP3    H125303   6.501   4.515   2.483  0.8156  0.2138 -0.2831
 1248TIP3    H225304   6.443   4.379   2.449  0.5238 -0.0629  1.2815
 1249TIP3   OH225305   3.959   4.849   2.161 -0.0018  0.1714  0.0275
 1249TIP3    H125306   3.873   4.820   2.132  0.0981  0.4210 -0.5384
 1249TIP3    H225307   3.942   4.927   2.213 -0.1451 -0.0048  0.2482
 1250TIP3   OH225308   3.585   1.337   0.341 -0.0907  0.1111  0.6325
 1250TIP3    H125309   3.541   1.422   0.339  0.6574  0.4910 -1.0772
 1250TIP3    H225310   3.550   1.290   0.265 -1.7451 -1.8210  2.4337
 1251TIP3   OH225311   0.921   2.345   8.542  0.7871  0.0289 -0.1801
 1251TIP3    H125312   1.000   2.328   8.490  0.9608 -1.2731  0.4679
 1251TIP3    H225313   0.857   2.282   8.509 -0.0074  1.0644 -0.6870
 1252TIP3   OH225314   5.535   6.159   0.377 -0.3899 -0.1160 -0.4161
 1252TIP3    H125315   5.619   6.133   0.412 -0.7156 -0.9082 -0.2098
 1252TIP3    H225316   5.507   6.085   0.323 -0.1693  0.8340 -1.8852
 1253TIP3   OH225317   0.320   6.029   7.500  0.5085 -0.4231  0.3106
 1253TIP3    H125318   0.265   6.051   7.424 -0.6928 -1.2719  0.8908
 1253TIP3    H225319   0.291   6.090   7.568  1.4077  0.1694  0.1738
 1254TIP3   OH225320   4.931   6.573   7.713  0.2875 -0.5713  0.1158
 1254TIP3    H125321   4.868   6.633   7.753 -1.2650 -2.6039  0.9142
 1254TIP3    H225322   5.016   6.607   7.740 -0.5760  0.5532  1.5981
 1255TIP3   OH225323   0.893   4.244   1.722  0.0535 -0.4321 -0.0091
 1255TIP3    H125324   0.882   4.187   1.646 -0.4716 -2.6156  1.6439
 1255TIP3    H225325   0.808   4.243   1.766  0.2696  1.0103  0.5066
 1256TIP3   OH225326   0.266   2.558   0.981 -0.3845  0.6517 -0.3776
 1256TIP3    H125327   0.243   2.564   0.888  0.4521 -2.3904 -0.9221
 1256TIP3    H225328   0.345   2.504   0.982 -0.7499  0.0253  2.1509
 1257TIP3   OH225329   5.324   1.593   7.492  0.6413 -0.3361 -0.2422
 1257TIP3    H125330   5.330   1.620   7.583  1.0379  0.3489 -0.4656
 1257TIP3    H225331   5.252   1.530   7.491  0.6089 -0.3255  0.5326
 1258TIP3   OH225332   1.617   0.647   8.549  0.1164  0.1818 -0.5594
 1258TIP3    H125333   1.560   0.572   8.533  1.3094 -0.7048 -0.8459
 1258TIP3    H225334   1.569   0.722   8.514 -0.0647 -0.8166 -2.5942
 1259TIP3   OH225335   2.070   3.663   7.558 -0.0227 -0.2700 -0.2214
 1259TIP3    H125336   2.003   3.624   7.502  0.5197 -2.0851  0.3054
 1259TIP3    H225337   2.043   3.641   7.647  0.1981  0.7954  0.1243
 1260TIP3   OH225338   6.057   0.042   2.070  0.2648 -0.1521  0.3160
 1260TIP3    H125339   6.121  -0.018   2.109  0.9072 -1.0204 -1.8898
 1260TIP3    H225340   6.090   0.057   1.981 -0.8593  2.0629  0.2217
 1261TIP3   OH225341   1.672   5.145   0.357 -0.2016 -0.0460  0.4950
 1261TIP3    H125342   1.731   5.079   0.393  0.6503  1.0788  1.2423
 1261TIP3    H225343   1.585   5.119   0.387  0.2953 -0.0469  2.0283
 1262TIP3   OH225344   0.578   4.316   0.536 -0.2696  0.5989 -0.3147
 1262TIP3    H125345   0.608   4.341   0.624  0.8558 -2.1073  0.1971
 1262TIP3    H225346   0.651   4.340   0.479  0.1291 -0.0307 -0.0797
 1263TIP3   OH225347   3.293   3.322   7.936 -0.1483  0.1834 -0.1858
 1263TIP3    H125348   3.322   3.362   8.018 -0.8020 -0.4118  0.3439
 1263TIP3    H225349   3.219   3.376   7.908  0.0124  0.3270 -0.3376
 1264TIP3   OH225350   0.890   5.498   1.345  0.0116 -0.1701 -0.2422
 1264TIP3    H125351   0.818   5.548   1.383  0.3940  0.5861 -0.4724
 1264TIP3    H225352   0.902   5.537   1.258  2.1069  1.2209  0.5988
 1265TIP3   OH225353   2.147   6.847   1.867  0.1522  0.4924  0.0174
 1265TIP3    H125354   2.131   6.869   1.775 -1.8820 -0.1081  0.1734
 1265TIP3    H225355   2.091   6.771   1.883  1.7338 -0.4753  1.3370
 1266TIP3   OH225356   2.086   0.691   7.519 -0.6168  0.0986 -0.2072
 1266TIP3    H125357   1.992   0.708   7.517 -0.6827 -0.3305 -1.8686
 1266TIP3    H225358   2.097   0.609   7.471  0.3470 -1.3446  2.2692
 1267TIP3   OH225359   3.350   0.077   8.144 -0.3550 -0.0506  0.1992
 1267TIP3    H125360   3.314   0.154   8.189 -1.6951 -0.4250 -0.1670
 1267TIP3    H225361   3.353   0.102   8.052 -2.5487 -0.9765 -0.2088
 1268TIP3   OH225362   6.151   4.256   2.662  0.0254 -0.1843  0.4079
 1268TIP3    H125363   6.114   4.168   2.669 -1.1466  0.2737  0.2201
 1268TIP3    H225364   6.110   4.304   2.734  1.3191 -0.0076  1.0431
 1269TIP3   OH225365   2.103   0.474   2.614 -0.3551  0.5159  0.1506
 1269TIP3    H125366   2.178   0.426   2.648  0.2257  0.2873 -1.3536
 1269TIP3    H225367   2.030   0.412   2.618 -0.3561  0.5735  1.1533
 1270TIP3   OH225368   6.522   2.035   6.695 -0.0552  0.6458 -0.6791
 1270TIP3    H125369   6.582   1.972   6.734 -2.2641 -1.6694 -0.7685
 1270TIP3    H225370   6.499   1.997   6.610 -2.9811  0.4366  0.0953
 1271TIP3   OH225371   5.484   5.009   0.455 -0.3881  0.0746  0.2789
 1271TIP3    H125372   5.472   5.032   0.547 -3.2740  2.5328 -0.5094
 1271TIP3    H225373   5.413   5.056   0.410  1.7797  0.2014 -3.3870
 1272TIP3   OH225374   5.845   0.886   8.420  0.2392  0.4447 -0.7292
 1272TIP3    H125375   5.768   0.934   8.449  1.1782  1.4489  0.2043
 1272TIP3    H225376   5.901   0.881   8.498 -0.4148 -3.5478 -0.3028
 1273TIP3   OH225377   0.026   1.953   7.713 -0.2712 -0.1728  0.4014
 1273TIP3    H125378   0.022   1.871   7.665 -0.1379  0.9872 -1.7240
 1273TIP3    H225379   0.114   1.955   7.751 -0.4810 -1.2451  0.9600
 1274TIP3   OH225380   3.503   3.611   1.872 -0.3584 -0.2374  0.0316
 1274TIP3    H125381   3.568   3.681   1.871 -1.2178  0.5912 -0.1108
 1274TIP3    H225382   3.491   3.589   1.964 -0.5121  0.2350  0.1277
 1275TIP3   OH225383   6.365   1.565   1.934 -0.2868 -0.2787  0.3276
 1275TIP3    H125384   6.357   1.643   1.988 -0.1678 -1.9320  2.8960
 1275TIP3    H225385   6.454   1.570   1.898 -0.0095  0.4114  1.0736
 1276TIP3   OH225386   1.324   5.905   8.336 -0.3238 -0.0476  0.4791
 1276TIP3    H125387   1.413   5.930   8.311  0.2853 -3.1598 -0.9466
 1276TIP3    H225388   1.268   5.946   8.271  0.4509 -0.9368 -0.7882
 1277TIP3   OH225389   1.427   6.865   1.802  0.2804 -0.3213  0.1275
 1277TIP3    H125390   1.468   6.858   1.888 -0.5492 -0.2491  0.5399
 1277TIP3    H225391   1.363   6.794   1.800  2.1754 -2.0907 -1.5245
 1278TIP3   OH225392   5.547   1.287   7.938 -0.5418  0.1790 -0.2291
 1278TIP3    H125393   5.545   1.303   8.032  1.3458  0.0884 -0.1315
 1278TIP3    H225394   5.600   1.208   7.928 -0.5815  0.2795 -1.3715
 1279TIP3   OH225395   2.771   1.729   0.152 -0.1243 -0.2340  0.8982
 1279TIP3    H125396   2.752   1.637   0.170  0.9833 -0.9200 -0.9873
 1279TIP3    H225397   2.852   1.726   0.100 -0.3557  1.7766  0.3387
 1280TIP3   OH225398   2.308   6.359   1.121  0.3154 -0.0638  0.2712
 1280TIP3    H125399   2.335   6.411   1.196  0.5261  1.1483 -0.6138
 1280TIP3    H225400   2.215   6.342   1.135 -0.3538  2.5422 -0.5052
 1281TIP3   OH225401   6.224   4.562   2.924 -0.5911  0.0702  0.4112
 1281TIP3    H125402   6.195   4.636   2.870 -1.2220 -0.5399 -0.0973
 1281TIP3    H225403   6.316   4.582   2.943 -0.2636  0.1811 -1.1055
 1282TIP3   OH225404   0.940   2.587   7.643  0.3026  0.5918 -0.3159
 1282TIP3    H125405   0.981   2.554   7.724  1.0662 -0.5573 -1.1300
 1282TIP3    H225406   0.850   2.554   7.647  0.6493 -0.4236 -0.4308
 1283TIP3   OH225407   0.328   4.339   2.253  0.3254  0.7521 -0.7038
 1283TIP3    H125408   0.252   4.394   2.235 -0.3491  0.2062  0.3463
 1283TIP3    H225409   0.354   4.364   2.342  1.2074  0.7410 -0.9571
 1284TIP3   OH225410   6.272   2.371   1.031 -0.4411 -0.6320  0.2187
 1284TIP3    H125411   6.355   2.349   0.988  0.0245  0.1373  0.6833
 1284TIP3    H225412   6.237   2.287   1.061 -0.7033 -1.1667 -1.4877
 1285TIP3   OH225413   1.122   6.201   1.108  0.0703 -0.2462 -0.1963
 1285TIP3    H125414   1.083   6.286   1.127  1.8605  0.4239  0.6975
 1285TIP3    H225415   1.083   6.142   1.173  1.9413  0.8422  2.0639
 1286TIP3   OH225416   1.077   5.051   1.150  0.3029 -0.1963 -0.0998
 1286TIP3    H125417   1.068   5.119   1.217 -0.7658  1.4229 -1.7924
 1286TIP3    H225418   1.150   4.997   1.181  0.0800  0.6912  2.1585
 1287TIP3   OH225419   2.477   0.518   8.642 -0.7627  0.3121 -0.4310
 1287TIP3    H125420   2.516   0.605   8.632  0.4509 -0.3412 -1.8424
 1287TIP3    H225421   2.527   0.477   8.712  0.1481  0.0056 -1.2366
 1288TIP3   OH225422   1.272   0.006   7.954 -0.1805  0.6430  0.0379
 1288TIP3    H125423   1.268   0.057   7.873  1.7625 -1.0750 -1.2494
 1288TIP3    H225424   1.351   0.038   7.998  0.0348 -0.0020  0.1203
 1289TIP3   OH225425   3.170   6.398   7.396 -0.4935 -0.1469  0.3980
 1289TIP3    H125426   3.235   6.387   7.326  0.1674  1.9220  0.6198
 1289TIP3    H225427   3.096   6.440   7.353 -0.9417 -0.7807  0.5367
 1290TIP3   OH225428   5.061   4.715   7.535  0.0147  0.2318 -0.0482
 1290TIP3    H125429   4.969   4.699   7.511  0.4117  0.2262 -1.7178
 1290TIP3    H225430   5.081   4.801   7.498 -0.0614  1.5594  2.7323
 1291TIP3   OH225431   3.513   1.308   0.027  0.2384 -0.1989  0.0166
 1291TIP3    H125432   3.578   1.378   0.040  0.8277 -0.5412 -0.9919
 1291TIP3    H225433   3.511   1.295  -0.067 -0.6130 -0.8617  0.1179
 1292TIP3   OH225434   2.695   0.690   8.490  0.5951  0.0065  0.2056
 1292TIP3    H125435   2.775   0.738   8.510  0.2686  0.7293 -0.1784
 1292TIP3    H225436   2.659   0.733   8.412 -0.8302  0.5259  1.1084
 1293TIP3   OH225437   0.253   6.293   0.007  0.1531  0.0845 -0.3379
 1293TIP3    H125438   0.190   6.256  -0.054 -0.1544  1.2062 -0.7232
 1293TIP3    H225439   0.225   6.261   0.093  0.8713 -1.8920 -0.7975
 1294TIP3   OH225440   2.882   1.542   7.989 -0.0900 -0.6401  0.3133
 1294TIP3    H125441   2.869   1.447   7.997 -0.3925 -0.5783  0.5584
 1294TIP3    H225442   2.961   1.550   7.936 -0.6374 -1.0288 -0.5952
 1295TIP3   OH225443   5.540   4.845   7.541  0.3417  0.0095 -0.3346
 1295TIP3    H125444   5.447   4.864   7.551  0.2133 -1.3013  1.5460
 1295TIP3    H225445   5.572   4.911   7.479 -2.1028 -0.3979 -2.2046
 1296TIP3   OH225446   3.841   5.102   7.029 -0.4765  0.1065  0.1212
 1296TIP3    H125447   3.833   5.018   6.984  0.6423  0.2174 -0.3141
 1296TIP3    H225448   3.751   5.135   7.034 -0.6505  0.0423 -1.9429
 1297TIP3   OH225449   3.062   0.596   1.235  0.1952  0.4749 -0.2206
 1297TIP3    H125450   3.080   0.505   1.210 -1.7217  0.5309 -2.0617
 1297TIP3    H225451   3.118   0.611   1.312  2.0648 -1.5929 -1.0622
 1298TIP3   OH225452   2.102   3.776   1.970 -0.4436  0.0147  0.7042
 1298TIP3    H125453   2.014   3.747   1.946 -0.6256  1.8303 -1.1542
 1298TIP3    H225454   2.161   3.717   1.922 -0.7456  0.6360 -0.4790
 1299TIP3   OH225455   1.221   4.178   7.858 -0.0300  0.6264  0.4632
 1299TIP3    H125456   1.153   4.152   7.795  0.6597 -0.5099  0.1782
 1299TIP3    H225457   1.186   4.151   7.943 -0.0529  0.2735  0.3440
 1300TIP3   OH225458   4.987   2.821   1.914  0.3890 -0.4435  0.0137
 1300TIP3    H125459   4.918   2.863   1.965  0.9528 -1.7651  1.9622
 1300TIP3    H225460   4.971   2.850   1.824 -2.7430 -0.7829  0.3517
 1301TIP3   OH225461   1.851   2.885   1.252  0.6469 -0.2496  0.7473
 1301TIP3    H125462   1.923   2.878   1.315  0.7112 -0.7773  0.6188
 1301TIP3    H225463   1.860   2.807   1.197  1.2056  0.6983 -0.5621
 1302TIP3   OH225464   0.688   3.460   8.467  0.2459  0.6454  0.5599
 1302TIP3    H125465   0.619   3.502   8.518 -1.0091  1.1568 -1.4903
 1302TIP3    H225466   0.760   3.448   8.530 -0.6784  2.5861  2.0806
 1303TIP3   OH225467   1.066   5.198   0.366  0.0049 -0.3249  0.0875
 1303TIP3    H125468   1.042   5.254   0.440  0.0457  0.7562 -0.6827
 1303TIP3    H225469   0.985   5.155   0.341 -0.2085  0.0231  0.1765
 1304TIP3   OH225470   3.268   5.472   0.636 -0.4562 -0.3330 -0.0100
 1304TIP3    H125471   3.207   5.434   0.698 -0.0571 -1.5289 -0.3247
 1304TIP3    H225472   3.217   5.485   0.556 -1.1018  1.6782  0.6799
 1305TIP3   OH225473   6.346   1.761   1.223  0.7702  0.4667 -0.1478
 1305TIP3    H125474   6.380   1.684   1.178 -0.3075  0.1346 -0.4320
 1305TIP3    H225475   6.252   1.744   1.231  0.8560  0.6812  1.9007
 1306TIP3   OH225476   0.880   1.801   8.112  0.0550 -0.5821  0.4737
 1306TIP3    H125477   0.813   1.736   8.131 -0.0527 -0.1636  1.5539
 1306TIP3    H225478   0.904   1.837   8.197 -1.0840  1.9736 -0.1768
 1307TIP3   OH225479   3.354   5.340   6.785 -0.3274 -0.1282  0.7339
 1307TIP3    H125480   3.424   5.362   6.723  0.9481  0.2235  2.2316
 1307TIP3    H225481   3.275   5.374   6.743  0.4874  0.1576 -0.6700
 1308TIP3   OH225482   6.862   5.736   0.693  0.2464  0.3106  0.2745
 1308TIP3    H125483   6.807   5.800   0.647 -1.3300 -2.4403 -2.0013
 1308TIP3    H225484   6.806   5.702   0.763  0.3520  0.0560  0.2374
 1309TIP3   OH225485   5.505   1.157   0.998  0.7035  0.3386  0.2680
 1309TIP3    H125486   5.489   1.125   1.087 -1.2545  0.3569 -0.0172
 1309TIP3    H225487   5.418   1.160   0.958  1.2918  2.2023 -1.0245
 1310TIP3   OH225488   2.352   6.737   1.490 -0.4891  1.1703 -0.2438
 1310TIP3    H125489   2.269   6.758   1.533  0.7630  1.2107  2.3123
 1310TIP3    H225490   2.402   6.818   1.495  1.1883  0.1080  2.0080
 1311TIP3   OH225491   4.318   5.660   8.536 -0.7583 -0.2172 -0.1997
 1311TIP3    H125492   4.251   5.620   8.481  0.2309 -2.4197  0.0667
 1311TIP3    H225493   4.371   5.586   8.567  1.1864  1.3230  0.3975
 1312TIP3   OH225494   4.917   6.207   0.893  0.0910  0.2237 -0.1095
 1312TIP3    H125495   4.934   6.159   0.974 -0.1963 -0.1667 -0.2770
 1312TIP3    H225496   4.966   6.289   0.903  1.0134 -0.3153 -0.0353
 1313TIP3   OH225497   6.387   5.314   7.191  0.0379 -0.4961  0.5754
 1313TIP3    H125498   6.385   5.221   7.168 -2.0812 -0.4700  0.4630
 1313TIP3    H225499   6.296   5.336   7.211  0.4294  1.6492  0.2539
 1314TIP3   OH225500   3.437   3.647   0.652 -0.5225 -0.7748  0.3862
 1314TIP3    H125501   3.382   3.569   0.645 -0.9326 -0.3317 -2.2685
 1314TIP3    H225502   3.527   3.613   0.645 -0.6518 -1.0974  0.2831
 1315TIP3   OH225503   6.531   6.316   7.328 -0.3824  0.2952  0.1427
 1315TIP3    H125504   6.550   6.237   7.278 -1.6014 -0.2362  0.4950
 1315TIP3    H225505   6.585   6.384   7.287  0.1022 -0.5419 -0.6436
 1316TIP3   OH225506   5.603   4.927   7.040  0.0499  0.6069  0.5492
 1316TIP3    H125507   5.528   4.986   7.051 -0.2450 -0.0004  2.0338
 1316TIP3    H225508   5.674   4.983   7.008 -0.8634  1.2991 -0.3087
 1317TIP3   OH225509   3.186   5.749   1.316 -0.0488 -0.3999 -0.4416
 1317TIP3    H125510   3.148   5.831   1.282  0.0020 -0.7671 -1.4037
 1317TIP3    H225511   3.242   5.717   1.245  0.6946 -0.7761  0.2989
 1318TIP3   OH225512   0.967   2.462   2.183 -0.1603 -0.1875  0.1126
 1318TIP3    H125513   0.871   2.465   2.189 -0.1893 -0.3502 -0.2547
 1318TIP3    H225514   0.994   2.553   2.172 -0.2090 -0.0375  1.1213
 1319TIP3   OH225515   2.957   5.866   0.059 -0.1100 -0.3303 -0.1193
 1319TIP3    H125516   2.901   5.940   0.040 -0.6151 -0.7080 -0.1275
 1319TIP3    H225517   2.907   5.790   0.029  1.2925 -0.5356 -2.1301
 1320TIP3   OH225518   3.703   3.729   8.593  0.4207 -0.0021  0.4806
 1320TIP3    H125519   3.670   3.718   8.504  2.0431  0.3221 -0.1856
 1320TIP3    H225520   3.768   3.660   8.603  1.8198  1.2880  0.6248
 1321TIP3   OH225521   5.997   1.158   8.284 -0.2695 -0.2290  0.7042
 1321TIP3    H125522   5.989   1.174   8.190 -0.7765  0.1076  0.8029
 1321TIP3    H225523   5.923   1.204   8.323  0.1984  0.0124  1.3173
 1322TIP3   OH225524   2.134   4.356   8.341 -0.4340  0.6154  0.2572
 1322TIP3    H125525   2.104   4.426   8.399 -1.4756 -0.7968  1.4990
 1322TIP3    H225526   2.230   4.358   8.348 -0.3210  2.8771 -0.9665
 1323TIP3   OH225527   0.247   3.705   1.165 -0.5050  0.2404  0.3443
 1323TIP3    H125528   0.161   3.662   1.161  0.9084 -2.7125 -1.3848
 1323TIP3    H225529   0.262   3.736   1.075  1.1199 -1.2634  0.0495
 1324TIP3   OH225530   4.246   6.062   1.035  0.5073  0.6902 -0.3087
 1324TIP3    H125531   4.157   6.088   1.060  0.3772  0.4366 -0.4931
 1324TIP3    H225532   4.300   6.139   1.049  0.6325  0.2827  1.7320
 1325TIP3   OH225533   3.663   2.425   1.402 -0.2340 -0.1461  0.2182
 1325TIP3    H125534   3.582   2.379   1.427  0.3807 -0.8681  0.9317
 1325TIP3    H225535   3.711   2.435   1.484  0.8624 -0.6319 -0.3462
 1326TIP3   OH225536   3.631   5.108   2.369  0.1628 -0.5764  0.4847
 1326TIP3    H125537   3.569   5.164   2.417 -0.9198  1.5614 -3.0197
 1326TIP3    H225538   3.577   5.035   2.339 -0.1726  0.1062 -0.6421
 1327TIP3   OH225539   4.586   4.171   1.304  0.3004 -0.7023  0.0350
 1327TIP3    H125540   4.569   4.092   1.355  2.4958 -1.2844 -0.0388
 1327TIP3    H225541   4.572   4.243   1.366  1.4524 -1.3324  1.0725
 1328TIP3   OH225542   4.241   5.104   0.463 -0.2561 -0.1700  0.2196
 1328TIP3    H125543   4.171   5.093   0.527 -0.4502 -1.0650 -0.1375
 1328TIP3    H225544   4.254   5.198   0.458  0.4637 -0.1002  2.3460
 1329TIP3   OH225545   2.698   0.002   2.226 -0.4624  0.1502 -0.1196
 1329TIP3    H125546   2.730   0.089   2.203 -2.7678  0.9880 -0.4721
 1329TIP3    H225547   2.756  -0.058   2.180 -0.7331  1.6150 -2.5880
 1330TIP3   OH225548   6.250   5.203   8.104 -0.2896  0.0101  0.6132
 1330TIP3    H125549   6.228   5.122   8.150 -0.3012 -1.2491 -1.4892
 1330TIP3    H225550   6.301   5.175   8.028 -0.9205  1.8958 -0.5834
 1331TIP3   OH225551   5.645   0.813   8.066  0.7486 -0.0857 -0.1236
 1331TIP3    H125552   5.553   0.809   8.091  0.4269  0.9156 -1.0547
 1331TIP3    H225553   5.690   0.760   8.131 -0.3383  0.4027  1.0643
 1332TIP3   OH225554   2.652   4.746   1.730 -0.0149  0.3859 -0.1573
 1332TIP3    H125555   2.677   4.772   1.819  1.1105  1.3072 -0.7072
 1332TIP3    H225556   2.588   4.812   1.703  0.7772  1.0267 -0.5485
 1333TIP3   OH225557   1.733   6.492   1.112 -0.4834 -0.0218  0.0345
 1333TIP3    H125558   1.737   6.582   1.078 -0.1117  0.1947  0.6236
 1333TIP3    H225559   1.692   6.442   1.042 -0.0225  0.4678 -0.6053
 1334TIP3   OH225560   4.958   5.890   1.728 -0.5409 -0.0088 -0.0078
 1334TIP3    H125561   5.036   5.857   1.773 -0.1638  0.9229  0.0555
 1334TIP3    H225562   4.886   5.875   1.789  0.0863  2.0283  1.3646
 1335TIP3   OH225563   1.514   3.636   7.862 -0.0147 -0.5392 -0.1770
 1335TIP3    H125564   1.595   3.679   7.889 -0.6450 -0.0074  0.9560
 1335TIP3    H225565   1.513   3.644   7.767  1.2582 -0.5657 -0.2112
 1336TIP3   OH225566   6.105   1.354   2.599 -0.3687  0.4277 -0.2838
 1336TIP3    H125567   6.131   1.285   2.538 -0.2341 -0.3637  0.6431
 1336TIP3    H225568   6.171   1.351   2.668 -1.1855  0.4848  0.5179
 1337TIP3   OH225569   6.546   1.436   1.541  0.6309  0.4085 -0.6604
 1337TIP3    H125570   6.582   1.348   1.547 -1.2163 -0.4282 -1.0509
 1337TIP3    H225571   6.591   1.486   1.609  0.2818 -1.3735  0.9555
 1338TIP3   OH225572   5.318   5.167   2.550 -0.8236 -0.4898  1.0011
 1338TIP3    H125573   5.232   5.129   2.531 -0.1281 -0.9293 -1.6479
 1338TIP3    H225574   5.374   5.093   2.571 -0.1667 -0.7709 -1.3700
 1339TIP3   OH225575   5.361   5.842   8.030 -0.0529 -0.0197  0.1578
 1339TIP3    H125576   5.377   5.935   8.045 -0.3147 -0.0944  0.9454
 1339TIP3    H225577   5.292   5.820   8.092  2.1225 -1.4464  2.2558
 1340TIP3   OH225578   4.121   0.570   0.866  0.1895 -0.1894  0.2061
 1340TIP3    H125579   4.172   0.642   0.905 -0.8622  1.3785 -1.1727
 1340TIP3    H225580   4.187   0.510   0.832  1.1277  0.6871  0.4173
 1341TIP3   OH225581   3.186   1.840   7.656  0.4143  0.3169  0.0241
 1341TIP3    H125582   3.279   1.862   7.660  0.2879  0.7612  0.8776
 1341TIP3    H225583   3.184   1.746   7.636  1.1358 -0.3923  2.8065
 1342TIP3   OH225584   0.435   2.029   8.468 -0.2692 -0.1034 -0.0709
 1342TIP3    H125585   0.363   2.022   8.406 -0.1677 -0.7636 -0.1161
 1342TIP3    H225586   0.412   2.105   8.522 -1.9822 -1.4286  1.1712
 1343TIP3   OH225587   5.543   5.129   8.533  0.2796  0.4215 -0.1267
 1343TIP3    H125588   5.532   5.097   8.622  0.5390  1.4608  0.2844
 1343TIP3    H225589   5.467   5.094   8.486  0.4164 -0.5726  0.3597
 1344TIP3   OH225590   1.016   0.950   7.793  0.0418 -0.5754 -0.4952
 1344TIP3    H125591   1.042   1.021   7.852  0.1345  0.2289 -1.4779
 1344TIP3    H225592   0.931   0.922   7.825  1.0896 -1.7734  1.4539
 1345TIP3   OH225593   6.082   0.372   1.116 -0.2391 -0.1672  0.4502
 1345TIP3    H125594   6.125   0.429   1.179  1.8471  0.3718 -1.3529
 1345TIP3    H225595   6.079   0.423   1.035  2.9623 -2.9236 -1.6345
 1346TIP3   OH225596   5.051   6.659   8.411 -0.3563 -0.2571 -0.1300
 1346TIP3    H125597   5.029   6.751   8.427  0.3689 -0.1074  0.0625
 1346TIP3    H225598   5.082   6.657   8.321 -1.1386 -0.4700 -0.4053
 1347TIP3   OH225599   6.467   1.756   7.380 -0.2433 -0.3329  0.4696
 1347TIP3    H125600   6.488   1.666   7.405  0.2709 -0.6429 -0.9871
 1347TIP3    H225601   6.402   1.747   7.310 -0.1479  0.4382  0.2690
 1348TIP3   OH225602   3.380   6.624   1.426 -0.1149  0.1190  0.4527
 1348TIP3    H125603   3.473   6.633   1.403 -0.5842  1.4158 -1.1252
 1348TIP3    H225604   3.379   6.554   1.492  1.6430 -2.3067 -1.8578
 1349TIP3   OH225605   4.121   5.438   2.082  0.7026 -0.6619 -0.2448
 1349TIP3    H125606   4.109   5.482   2.166 -0.0920 -1.5144  0.1209
 1349TIP3    H225607   4.216   5.434   2.070  0.8888 -1.6636  1.2627
 1350TIP3   OH225608   3.742   2.274   7.757  0.1223 -0.5110 -0.1051
 1350TIP3    H125609   3.757   2.268   7.851  2.9247 -0.4437 -0.4888
 1350TIP3    H225610   3.685   2.200   7.737  1.1398 -1.7327  1.3560
 1351TIP3   OH225611   1.784   1.591   7.748 -0.0877 -0.1616  0.0575
 1351TIP3    H125612   1.852   1.536   7.788 -0.1534  0.1901  0.6698
 1351TIP3    H225613   1.751   1.644   7.820  0.7614  1.5047 -0.7059
 1352TIP3   OH225614   1.459   5.098   0.749 -0.2741  0.2281  0.6495
 1352TIP3    H125615   1.370   5.091   0.783 -0.2757 -0.9593  0.4476
 1352TIP3    H225616   1.512   5.048   0.811  0.2769  1.0520  0.8467
 1353TIP3   OH225617   3.376   1.747   6.358 -0.2444  0.4511  0.1181
 1353TIP3    H125618   3.439   1.744   6.430 -0.9903 -2.1069  0.8007
 1353TIP3    H225619   3.379   1.837   6.326  1.2449  1.2720  2.3382
 1354TIP3   OH225620   1.322   0.392   0.222  0.0652  0.4058  0.4160
 1354TIP3    H125621   1.403   0.443   0.230  0.8089 -0.8045  0.8819
 1354TIP3    H225622   1.351   0.301   0.222 -1.1695 -0.0285 -1.2332
 1355TIP3   OH225623   5.632   0.800   1.859 -0.0062  0.2518 -0.2257
 1355TIP3    H125624   5.548   0.780   1.899  0.5186 -1.6999  0.0099
 1355TIP3    H225625   5.610   0.835   1.773 -1.0683  1.6645  0.5834
 1356TIP3   OH225626   4.988   2.534   2.242  0.0604  0.0884  0.2250
 1356TIP3    H125627   4.995   2.480   2.164 -0.5426 -1.2773  1.0775
 1356TIP3    H225628   5.039   2.486   2.308 -1.0326  0.2151  1.1772
 1357TIP3   OH225629   0.986   4.833   1.345 -0.6280 -0.2298  0.7984
 1357TIP3    H125630   1.027   4.758   1.303 -0.7757 -0.8646  1.7424
 1357TIP3    H225631   1.059   4.884   1.381 -0.5829 -0.7122  1.4181
 1358TIP3   OH225632   5.194   0.711   0.168 -0.0682 -0.4183  0.6037
 1358TIP3    H125633   5.238   0.744   0.247 -2.4759  0.6705  1.5873
 1358TIP3    H225634   5.114   0.763   0.162  0.0486 -0.4061 -2.6497
 1359TIP3   OH225635   0.878   1.270   1.666  0.7048  0.9218  0.1736
 1359TIP3    H125636   0.968   1.272   1.633  0.0933  2.0097 -1.5527
 1359TIP3    H225637   0.876   1.336   1.735  1.0842  1.3235 -0.1971
 1360TIP3   OH225638   1.739   0.910   0.917  0.2412 -0.4766  0.0031
 1360TIP3    H125639   1.828   0.883   0.894  1.3418  2.5740  0.2569
 1360TIP3    H225640   1.744   1.005   0.926 -1.9681 -0.5177  4.4800
 1361TIP3   OH225641   4.386   3.673   1.504 -0.5751  0.1353 -0.2113
 1361TIP3    H125642   4.402   3.611   1.434 -1.6627 -0.2049 -0.1837
 1361TIP3    H225643   4.419   3.630   1.583  0.3035  0.3618 -0.4430
 1362TIP3   OH225644   6.796   5.865   2.989 -0.4121 -0.1708  0.2428
 1362TIP3    H125645   6.732   5.936   2.985 -0.5950 -0.3367  0.2651
 1362TIP3    H225646   6.859   5.893   3.056 -1.6197 -0.9846  1.7646
 1363TIP3   OH225647   4.889   4.133   0.238 -0.1892  0.5368  0.5500
 1363TIP3    H125648   4.858   4.069   0.174  0.0767  1.6215 -0.7047
 1363TIP3    H225649   4.851   4.104   0.321  0.9111 -1.9249  0.2740
 1364TIP3   OH225650   2.176   5.788   8.490  0.2415 -0.4014 -0.1194
 1364TIP3    H125651   2.121   5.801   8.412 -0.5926 -0.3045  0.4814
 1364TIP3    H225652   2.258   5.754   8.455  0.4363  1.0693 -1.2086
 1365TIP3   OH225653   3.736   2.705   1.012 -0.6475 -0.0103  0.2376
 1365TIP3    H125654   3.815   2.757   0.997  0.4070 -1.0891  1.6441
 1365TIP3    H225655   3.707   2.731   1.100 -0.9801 -0.6801  0.3299
 1366TIP3   OH225656   4.313   3.565   6.651  1.0343 -0.3666 -0.0078
 1366TIP3    H125657   4.229   3.588   6.611  0.9205 -0.8062 -0.0275
 1366TIP3    H225658   4.290   3.530   6.737  1.2120 -0.2944  0.0691
 1367TIP3   OH225659   6.812   6.829   2.233  0.0352 -0.1949  0.1230
 1367TIP3    H125660   6.824   6.910   2.283 -1.1314  0.2693 -0.3223
 1367TIP3    H225661   6.882   6.831   2.167  1.4604 -0.7177  1.5570
 1368TIP3   OH225662   0.459   6.366   8.087  0.8095  0.2063  0.1754
 1368TIP3    H125663   0.522   6.363   8.016  0.9606  0.3735  0.3045
 1368TIP3    H225664   0.408   6.285   8.076  1.1605 -0.0174  0.1795
 1369TIP3   OH225665   2.083   0.342   0.920 -0.0427 -0.1194  0.1915
 1369TIP3    H125666   2.156   0.316   0.864  0.0821  1.0298 -0.1941
 1369TIP3    H225667   2.014   0.369   0.860 -0.3308  0.0095  0.5704
 1370TIP3   OH225668   2.639   1.316   0.770 -0.1075 -0.0170 -0.3943
 1370TIP3    H125669   2.654   1.284   0.859  1.6952  1.6418 -0.0500
 1370TIP3    H225670   2.723   1.351   0.742 -1.4558  2.7257 -1.4186
 1371TIP3   OH225671   2.356   1.466   7.503  0.0622  0.6743  0.3183
 1371TIP3    H125672   2.393   1.409   7.435  4.1297  0.7487  2.1959
 1371TIP3    H225673   2.363   1.554   7.467  0.5902  0.5791  0.1797
 1372TIP3   OH225674   2.013   6.254   0.041  0.0717  0.3007 -0.4215
 1372TIP3    H125675   1.991   6.176   0.091  1.0651 -0.4393 -1.1073
 1372TIP3    H225676   2.088   6.229  -0.013  0.3695  1.7008 -0.7204
 1373TIP3   OH225677   0.905   3.444   7.517 -0.1124  0.7707 -0.3171
 1373TIP3    H125678   0.879   3.367   7.566 -0.8515  0.4739 -1.1394
 1373TIP3    H225679   0.994   3.424   7.485 -0.2625  0.2935 -0.4484
 1374TIP3   OH225680   6.424   6.441   1.293  0.1617 -0.3880 -0.1408
 1374TIP3    H125681   6.444   6.533   1.273 -0.6111  0.5604  2.9474
 1374TIP3    H225682   6.506   6.395   1.274  0.2256  0.6519 -2.8987
 1375TIP3   OH225683   4.943   3.851   0.917 -0.5342 -0.2506 -0.4564
 1375TIP3    H125684   4.923   3.797   0.993  3.1738 -1.7227 -0.3253
 1375TIP3    H225685   4.932   3.792   0.842  0.3480 -0.2707 -0.5882
 1376TIP3   OH225686   0.206   4.453   8.617 -0.5085  0.7175  0.0466
 1376TIP3    H125687   0.294   4.465   8.654 -1.0502  2.5985  0.8469
 1376TIP3    H225688   0.154   4.420   8.690 -0.8204  1.2255  0.0635
 1377TIP3   OH225689   5.102   1.510   0.478  0.8840  0.3789  0.4780
 1377TIP3    H125690   5.171   1.568   0.445 -0.6116  2.1055  0.2697
 1377TIP3    H225691   5.039   1.505   0.407 -0.3564  0.7647  1.5155
 1378TIP3   OH225692   0.736   4.983   8.539 -0.0415 -0.3310  0.2288
 1378TIP3    H125693   0.777   5.043   8.478  0.3028  1.2235  1.8947
 1378TIP3    H225694   0.663   4.945   8.490 -0.5871  1.8367 -0.7760
 1379TIP3   OH225695   2.059   4.781   1.148  0.5120 -0.4932  0.6887
 1379TIP3    H125696   1.980   4.834   1.149  0.9296  0.1963 -0.8458
 1379TIP3    H225697   2.123   4.831   1.199  0.2307 -0.6312  1.1801
 1380TIP3   OH225698   1.851   3.669   1.942 -0.5258 -0.0152 -0.0307
 1380TIP3    H125699   1.813   3.747   1.902  1.2858  0.8997 -0.0542
 1380TIP3    H225700   1.781   3.634   1.998 -1.2488  1.8106  0.2564
 1381TIP3   OH225701   5.436   6.312   2.175  0.3092  0.0176  0.5785
 1381TIP3    H125702   5.520   6.324   2.131 -0.5579 -0.6846 -1.4128
 1381TIP3    H225703   5.415   6.397   2.212  2.7982 -0.2743  2.9030
 1382TIP3   OH225704   3.757   0.305   6.961 -0.2532 -0.1131  0.2554
 1382TIP3    H125705   3.669   0.330   6.933  0.1018  0.8337 -0.0595
 1382TIP3    H225706   3.804   0.388   6.969  0.7913 -0.6409 -0.1808
 1383TIP3   OH225707   5.507   1.064   8.155 -0.5118 -0.4486  0.3955
 1383TIP3    H125708   5.581   1.048   8.096 -0.5706  0.4012  0.0767
 1383TIP3    H225709   5.451   0.987   8.144 -0.5526 -0.2788 -0.7176
 1384TIP3   OH225710   1.413   2.360   0.673 -0.1142 -0.5766 -0.0570
 1384TIP3    H125711   1.429   2.414   0.750 -1.9052  1.4248 -0.9627
 1384TIP3    H225712   1.431   2.418   0.599 -0.5030 -1.7612 -1.1211
 1385TIP3   OH225713   3.957   4.439   2.787 -0.2983 -0.3012  0.2003
 1385TIP3    H125714   3.938   4.345   2.793 -1.6940 -0.3374 -2.8560
 1385TIP3    H225715   3.872   4.480   2.772  0.5604  1.1262 -1.0946
 1386TIP3   OH225716   2.402   2.909   1.358  0.2495 -0.2609  0.9258
 1386TIP3    H125717   2.430   2.833   1.407  1.1581  0.8426  2.1765
 1386TIP3    H225718   2.438   2.984   1.406 -2.6731  1.1192  1.1734
 1387TIP3   OH225719   0.017   2.238   8.117  0.2683 -0.1504  0.1849
 1387TIP3    H125720  -0.046   2.228   8.045 -0.4267  1.8264  0.4685
 1387TIP3    H225721  -0.029   2.202   8.193  0.5619 -1.1991 -0.1198
 1388TIP3   OH225722   0.135   4.390   7.557  0.5106 -0.4022 -0.2465
 1388TIP3    H125723   0.199   4.430   7.615 -0.1129  0.5311 -0.1797
 1388TIP3    H225724   0.183   4.321   7.511  1.5209  0.1898 -0.0974
 1389TIP3   OH225725   1.173   3.296   7.336 -0.6231  0.5875 -0.4716
 1389TIP3    H125726   1.179   3.264   7.246 -1.7611  0.1193 -0.4005
 1389TIP3    H225727   1.243   3.361   7.343 -0.2505  0.3318 -1.5617
 1390TIP3   OH225728   3.748   4.456   0.761  0.5299 -0.5109  0.3147
 1390TIP3    H125729   3.747   4.361   0.758  0.8486 -0.5010 -0.5604
 1390TIP3    H225730   3.813   4.478   0.828  1.3294 -0.9133 -0.3084
 1391TIP3   OH225731   6.666   5.458   1.262 -0.4425 -0.6051 -1.1483
 1391TIP3    H125732   6.664   5.504   1.178 -0.0270 -0.3661 -1.0298
 1391TIP3    H225733   6.638   5.369   1.241  0.6988 -0.8440 -1.7351
 1392TIP3   OH225734   3.248   0.250   7.148 -0.0389  0.0882  0.1474
 1392TIP3    H125735   3.212   0.310   7.084 -0.0676 -1.6821 -1.6040
 1392TIP3    H225736   3.341   0.274   7.154  0.4203 -0.9016 -2.0760
 1393TIP3   OH225737   2.831   4.009   0.706 -0.2368  0.2680  0.0009
 1393TIP3    H125738   2.912   3.985   0.749 -1.0801 -0.5444  1.2117
 1393TIP3    H225739   2.770   4.029   0.777 -1.3423  0.0172 -0.8299
 1394TIP3   OH225740   6.630   2.500   1.189  0.3689  0.4472  0.4166
 1394TIP3    H125741   6.671   2.529   1.270  0.1473 -0.2517  0.7801
 1394TIP3    H225742   6.622   2.405   1.197  1.4215  0.2037 -0.9239
 1395TIP3   OH225743   4.530   3.453   6.526  0.6651 -0.5404  0.1837
 1395TIP3    H125744   4.517   3.364   6.560 -0.3930 -1.0651 -1.4789
 1395TIP3    H225745   4.459   3.504   6.564 -0.5956 -1.1537 -1.2608
 1396TIP3   OH225746   5.938   4.429   8.391  0.2821 -0.5355  1.0872
 1396TIP3    H125747   5.955   4.336   8.378 -1.8045 -0.6576 -1.5472
 1396TIP3    H225748   5.844   4.439   8.375  0.5323  2.0907  0.8050
 1397TIP3   OH225749   1.373   2.518   6.520  0.5322 -0.4877 -0.3477
 1397TIP3    H125750   1.311   2.539   6.590  0.8818  0.0953 -0.2109
 1397TIP3    H225751   1.342   2.434   6.486 -0.0007 -0.4792  0.0961
 1398TIP3   OH225752   3.680   0.452   7.361  0.3017 -0.5312 -0.1025
 1398TIP3    H125753   3.751   0.400   7.396  1.1882  1.1704  0.7781
 1398TIP3    H225754   3.722   0.511   7.298 -0.3362  0.3095  0.2288
 1399TIP3   OH225755   3.293   3.608   6.899 -0.2409 -0.5683 -0.0081
 1399TIP3    H125756   3.337   3.631   6.980 -0.8597  1.6929 -0.2452
 1399TIP3    H225757   3.203   3.587   6.925 -1.2734  2.9295 -0.2553
 1400TIP3   OH225758   1.057   5.076   7.929  0.5967  0.2870  0.4747
 1400TIP3    H125759   1.002   5.046   8.002  0.8418 -1.2893  0.0399
 1400TIP3    H225760   1.143   5.038   7.946  1.1266  1.3362  0.2478
 1401TIP3   OH225761   5.386   0.742   1.119  0.5485  0.2229 -0.5817
 1401TIP3    H125762   5.426   0.827   1.098  0.3772 -0.1730 -2.7193
 1401TIP3    H225763   5.403   0.688   1.042 -2.2783 -0.6086 -0.7394
 1402TIP3   OH225764   6.823   1.689   7.407 -0.4135 -0.0381  0.1020
 1402TIP3    H125765   6.738   1.645   7.419 -0.6876  0.8237  1.5696
 1402TIP3    H225766   6.873   1.629   7.353 -2.2510 -0.1833 -1.5441
 1403TIP3   OH225767   2.068   1.448   1.693 -0.2242  0.6716 -0.4377
 1403TIP3    H125768   2.013   1.436   1.771 -0.5716 -1.4368 -0.9497
 1403TIP3    H225769   2.138   1.384   1.703  0.0596  0.7847 -1.5813
 1404TIP3   OH225770   2.451   3.381   1.739  0.5642  0.1822  0.2882
 1404TIP3    H125771   2.514   3.338   1.797  1.1109  0.2461 -0.2397
 1404TIP3    H225772   2.444   3.470   1.773 -1.3324 -0.5459  1.9911
 1405TIP3   OH225773   3.746   4.235   8.413  0.1658 -0.0750 -0.0949
 1405TIP3    H125774   3.700   4.161   8.453 -0.0281  0.8122  1.4122
 1405TIP3    H225775   3.829   4.199   8.382 -0.4073 -1.1433 -0.4156
 1406TIP3   OH225776   1.450   2.813   0.204 -0.1230 -0.0024  0.4214
 1406TIP3    H125777   1.368   2.814   0.154  0.1121  0.4198  0.0398
 1406TIP3    H225778   1.446   2.892   0.258  0.7219  0.8571 -0.7381
 1407TIP3   OH225779   4.613   4.977   8.190  0.4010 -0.3175 -0.4716
 1407TIP3    H125780   4.615   4.900   8.247 -2.0960 -1.0671 -1.2368
 1407TIP3    H225781   4.589   5.050   8.249 -1.7621 -1.0110 -0.4112
 1408TIP3   OH225782   4.515   6.111   8.059  0.1974  0.2811  0.4838
 1408TIP3    H125783   4.492   6.113   8.152 -0.6689  0.7508  0.2639
 1408TIP3    H225784   4.509   6.202   8.031 -1.2359 -0.0646 -0.4303
 1409TIP3   OH225785   3.781   4.815   0.123 -0.0729 -0.2791  0.0865
 1409TIP3    H125786   3.722   4.817   0.048  1.8009  0.0503 -1.4652
 1409TIP3    H225787   3.777   4.904   0.159  1.0143  0.3806 -1.3285
 1410TIP3   OH225788   3.880   3.303   1.306  0.2515 -0.4896  0.4116
 1410TIP3    H125789   3.914   3.366   1.243  0.7251  0.0971  1.2367
 1410TIP3    H225790   3.808   3.260   1.260  0.0900  0.4669 -0.2585
 1411TIP3   OH225791   0.399   0.182   0.702  0.0585 -0.1549  0.4926
 1411TIP3    H125792   0.351   0.228   0.770 -0.0415 -1.2141  1.1539
 1411TIP3    H225793   0.479   0.234   0.690 -0.7763  1.0894  0.0496
 1412TIP3   OH225794   5.592   3.462   1.040  0.1730 -0.1824 -0.0090
 1412TIP3    H125795   5.598   3.556   1.023 -3.0591  0.1682  0.2845
 1412TIP3    H225796   5.603   3.421   0.954  0.6391  0.5042 -0.2851
 1413TIP3   OH225797   3.959   3.772   7.152 -0.1431 -0.5545 -0.6218
 1413TIP3    H125798   4.031   3.716   7.124  0.4181 -0.1925  0.0819
 1413TIP3    H225799   3.969   3.852   7.100  0.7649  0.0267  0.4085
 1414TIP3   OH225800   5.822   3.008   8.270  0.6052  0.3095  0.3097
 1414TIP3    H125801   5.856   2.919   8.272 -0.0758  0.0517  1.6531
 1414TIP3    H225802   5.760   3.008   8.197  1.9004  0.2115 -0.8355
 1415TIP3   OH225803   3.463   6.019   7.123 -0.1918 -0.1755  0.3553
 1415TIP3    H125804   3.535   6.071   7.088 -1.3087  0.5421 -0.9937
 1415TIP3    H225805   3.500   5.931   7.133  1.3966  0.5812  1.5530
 1416TIP3   OH225806   3.419   2.956   7.303 -0.3903  0.2602 -0.5125
 1416TIP3    H125807   3.513   2.943   7.288  0.5305  1.8093  2.8607
 1416TIP3    H225808   3.405   3.050   7.287 -0.5189  0.7739  2.0711
 1417TIP3   OH225809   0.101   6.516   6.688 -0.1806  0.4874 -0.4226
 1417TIP3    H125810   0.148   6.589   6.727  1.0787 -0.2343 -0.5447
 1417TIP3    H225811   0.120   6.521   6.595 -1.0892  0.6971 -0.6116
 1418TIP3   OH225812   6.175   5.261   1.992 -0.1265 -0.3770 -0.3005
 1418TIP3    H125813   6.083   5.260   2.016 -0.2895  0.9184 -0.8148
 1418TIP3    H225814   6.182   5.197   1.921 -0.4921 -0.9471  0.1670
 1419TIP3   OH225815   4.344   4.340   7.228  0.3704 -0.0870 -0.1495
 1419TIP3    H125816   4.410   4.331   7.159  1.1538  4.1504 -0.2098
 1419TIP3    H225817   4.270   4.382   7.185 -0.3903 -0.2293  0.9725
 1420TIP3   OH225818   2.350   0.335   1.589 -0.0664 -0.2049 -0.5863
 1420TIP3    H125819   2.376   0.247   1.614  1.0728  0.0268 -0.8962
 1420TIP3    H225820   2.428   0.389   1.605  0.0926  0.2880 -2.7390
 1421TIP3   OH225821   3.166   6.012   7.213 -0.1670 -0.0942 -0.2562
 1421TIP3    H125822   3.260   6.029   7.204  0.2558 -2.6196 -1.2576
 1421TIP3    H225823   3.125   6.081   7.160  1.1005  0.9245  0.0144
 1422TIP3   OH225824   3.110   1.426   2.791 -0.5263 -0.3201  0.0250
 1422TIP3    H125825   3.172   1.353   2.787 -0.2799 -0.0609 -2.8627
 1422TIP3    H225826   3.122   1.473   2.709 -2.0456  1.8879  0.9501
 1423TIP3   OH225827   0.796   1.716   2.170  0.4431  0.3539 -0.1377
 1423TIP3    H125828   0.866   1.753   2.114  1.5173  0.3517  1.1531
 1423TIP3    H225829   0.715   1.751   2.133  1.1276  0.4449 -1.6260
 1424TIP3   OH225830   4.823   3.383   8.135  0.9265 -0.5422 -0.1986
 1424TIP3    H125831   4.757   3.390   8.204  0.1930  2.1298 -1.0375
 1424TIP3    H225832   4.779   3.334   8.066  0.1873  0.1906 -0.2794
 1425TIP3   OH225833   4.784   6.880   1.644 -0.1505 -0.4494 -0.2700
 1425TIP3    H125834   4.785   6.976   1.642 -0.9973 -0.4250  0.0282
 1425TIP3    H225835   4.804   6.854   1.554 -0.5917  0.0185 -0.5117
 1426TIP3   OH225836   0.467   1.724   0.391 -0.0977  0.1845  0.0132
 1426TIP3    H125837   0.471   1.808   0.437  0.3616 -0.0597  0.4319
 1426TIP3    H225838   0.553   1.715   0.349  0.3110 -0.6350  0.9893
 1427TIP3   OH225839   4.195   1.312   2.074 -0.5737  0.0973  0.0803
 1427TIP3    H125840   4.246   1.371   2.018 -0.1410  2.6007  2.8774
 1427TIP3    H225841   4.106   1.317   2.039 -0.2152  1.1196 -0.7272
 1428TIP3   OH225842   4.527   6.478   0.162 -0.3795 -0.1761 -0.1122
 1428TIP3    H125843   4.447   6.521   0.131 -1.2746 -0.3471  1.8088
 1428TIP3    H225844   4.501   6.387   0.176  0.6044 -0.6078 -0.9596
 1429TIP3   OH225845   0.077   0.750   7.782  0.4978 -0.5018 -0.5232
 1429TIP3    H125846   0.063   0.843   7.802 -1.3390 -0.3213 -2.3353
 1429TIP3    H225847   0.076   0.707   7.868 -3.3919  0.6072  0.1678
 1430TIP3   OH225848   1.797   5.655   7.751 -0.1809  0.5626  0.3587
 1430TIP3    H125849   1.721   5.599   7.770 -0.0410  0.8968  2.0422
 1430TIP3    H225850   1.866   5.593   7.727 -0.0644 -0.0393  2.0665
 1431TIP3   OH225851   3.696   1.166   2.089 -0.2336  0.1155  0.3779
 1431TIP3    H125852   3.666   1.149   1.999 -1.0489 -0.4533  0.7509
 1431TIP3    H225853   3.671   1.258   2.104 -0.7665 -0.0086  0.2806
 1432TIP3   OH225854   2.318   4.288   6.543 -0.1830  0.4858 -0.4181
 1432TIP3    H125855   2.379   4.290   6.616  1.0198  0.7898 -1.3954
 1432TIP3    H225856   2.277   4.375   6.543  0.5690  0.8478 -0.7089
 1433TIP3   OH225857   4.833   5.974   7.400  0.2126 -0.3059  0.3204
 1433TIP3    H125858   4.852   5.923   7.321 -0.9676 -0.0502 -0.1527
 1433TIP3    H225859   4.762   5.926   7.443 -0.2003  0.3619  0.4050
 1434TIP3   OH225860   3.376   0.550   6.990  0.0684 -0.0134  0.0690
 1434TIP3    H125861   3.418   0.513   6.913 -0.6794 -0.4337 -0.1533
 1434TIP3    H225862   3.444   0.601   7.033  0.4087  0.4975 -1.0475
 1435TIP3   OH225863   6.679   6.513   0.324  0.1140 -0.4889  0.4701
 1435TIP3    H125864   6.684   6.559   0.241 -0.5034 -1.4554 -0.1128
 1435TIP3    H225865   6.770   6.503   0.351  0.3946 -1.2614 -0.7076
 1436TIP3   OH225866   4.100   1.591   1.484 -0.1567 -0.2805 -0.0079
 1436TIP3    H125867   4.097   1.613   1.577  2.7160 -1.3463  0.4230
 1436TIP3    H225868   4.037   1.520   1.473  0.0314 -0.6601  1.2834
 1437TIP3   OH225869   0.541   3.308   7.973 -0.0304 -0.1151 -0.1555
 1437TIP3    H125870   0.535   3.312   8.069  0.4716  0.8978 -0.1570
 1437TIP3    H225871   0.628   3.271   7.957  0.6182  1.3966 -0.2189
 1438TIP3   OH225872   1.382   1.755   0.800  0.3840  0.2193 -0.9851
 1438TIP3    H125873   1.426   1.707   0.730  2.0218 -0.3800  0.3778
 1438TIP3    H225874   1.396   1.701   0.878  1.0617  2.1866  0.3225
 1439TIP3   OH225875   3.297   4.696   7.768 -0.3725  0.3048 -0.4206
 1439TIP3    H125876   3.321   4.683   7.860  0.4974 -0.0672 -0.6878
 1439TIP3    H225877   3.376   4.672   7.719 -0.0096  2.8065 -1.1707
 1440TIP3   OH225878   2.463   6.031   0.841 -0.1454 -0.7102 -0.4288
 1440TIP3    H125879   2.524   6.093   0.802  1.6110 -1.7665  0.5154
 1440TIP3    H225880   2.506   5.946   0.831 -0.7428 -1.3064  1.6151
 1441TIP3   OH225881   0.454   5.429   8.325  0.1207 -0.3642 -0.6093
 1441TIP3    H125882   0.449   5.378   8.244  0.1045 -1.5194  0.0928
 1441TIP3    H225883   0.546   5.449   8.336  0.4105 -1.8901  0.0592
 1442TIP3   OH225884   4.167   3.256   0.964  0.2937 -0.2190  0.1895
 1442TIP3    H125885   4.081   3.297   0.965  0.9305  1.1562  0.7016
 1442TIP3    H225886   4.195   3.262   0.873 -0.1372 -0.6616  0.0223
 1443TIP3   OH225887   1.028   0.087   7.652 -0.4094 -0.7232  0.2687
 1443TIP3    H125888   0.956   0.027   7.633 -0.5945 -0.8090  1.1823
 1443TIP3    H225889   1.017   0.159   7.590 -2.0121 -0.1381  1.1541
 1444TIP3   OH225890   2.346   3.640   7.526  0.2790  0.0295 -0.2472
 1444TIP3    H125891   2.366   3.571   7.462 -1.8780  0.8079 -1.8494
 1444TIP3    H225892   2.251   3.640   7.533  0.2665  2.3169  0.3074
 1445TIP3   OH225893   5.827   1.877   6.819 -0.2166 -0.4460  0.2095
 1445TIP3    H125894   5.769   1.818   6.771 -0.4023  1.1517 -1.6023
 1445TIP3    H225895   5.870   1.929   6.752 -0.4711  1.8947  1.7545
 1446TIP3   OH225896   1.322   3.530   7.346  0.6143  0.8226 -0.3097
 1446TIP3    H125897   1.255   3.574   7.398 -0.9712 -1.6205 -0.1596
 1446TIP3    H225898   1.302   3.553   7.255  0.1975  0.8841 -0.2011
 1447TIP3   OH225899   2.423   4.511   8.137  0.2519  0.2112 -0.0305
 1447TIP3    H125900   2.439   4.435   8.082  0.8549  0.5707 -0.3597
 1447TIP3    H225901   2.357   4.562   8.090 -0.3837 -0.2527  0.3401
 1448TIP3   OH225902   0.841   5.159   0.901  0.2227 -0.7623 -0.5101
 1448TIP3    H125903   0.895   5.236   0.883 -0.9521  0.0359 -0.7016
 1448TIP3    H225904   0.872   5.093   0.838  1.7687 -0.7393  0.1784
 1449TIP3   OH225905   3.171   4.726   0.471 -0.0587 -0.6315  0.3893
 1449TIP3    H125906   3.188   4.632   0.469  1.0502 -0.4527  0.6913
 1449TIP3    H225907   3.089   4.735   0.520 -1.5171 -1.5914 -1.7247
 1450TIP3   OH225908   0.120   3.389   0.667  0.1415 -0.3755  0.1924
 1450TIP3    H125909   0.109   3.467   0.721  3.6822  1.4443 -1.3075
 1450TIP3    H225910   0.212   3.365   0.679 -0.5659 -3.7068 -0.2787
 1451TIP3   OH225911   5.786   1.475   1.712  0.3142 -0.1092 -0.0777
 1451TIP3    H125912   5.697   1.455   1.744  0.3816  1.5001  1.2522
 1451TIP3    H225913   5.809   1.400   1.657 -1.1509 -1.4419  1.0327
 1452TIP3   OH225914   3.077   4.519   0.816  0.2213 -0.1911 -0.5299
 1452TIP3    H125915   3.139   4.491   0.884  0.4676 -1.2530 -1.1652
 1452TIP3    H225916   3.124   4.505   0.734 -1.4214 -2.7671 -1.1632
 1453TIP3   OH225917   1.508   2.607   7.590 -0.3328  0.3702 -0.2495
 1453TIP3    H125918   1.480   2.555   7.514 -1.0665  1.0856 -0.4856
 1453TIP3    H225919   1.448   2.682   7.591 -0.6253  0.1472  1.2948
 1454TIP3   OH225920   2.327   5.762   8.259 -0.1024  0.2002 -0.7478
 1454TIP3    H125921   2.411   5.808   8.262  1.0969 -1.9016 -0.0168
 1454TIP3    H225922   2.309   5.751   8.165 -0.6391  2.4188 -0.9515
 1455TIP3   OH225923   6.269   3.996   1.565  0.0942  0.0467 -0.9303
 1455TIP3    H125924   6.362   3.994   1.544 -0.2647 -1.6520 -2.6539
 1455TIP3    H225925   6.229   4.044   1.491 -0.3896  1.0984 -0.0217
 1456TIP3   OH225926   5.746   1.503   0.511 -0.3378 -0.1692  0.1864
 1456TIP3    H125927   5.710   1.551   0.585 -0.4753 -0.4381  0.2946
 1456TIP3    H225928   5.832   1.544   0.496 -1.3264  1.5894 -1.1166
 1457TIP3   OH225929   6.794   4.682   7.939  0.0124  0.2202  0.0232
 1457TIP3    H125930   6.781   4.597   7.896  2.8342  0.6827 -2.0331
 1457TIP3    H225931   6.795   4.745   7.867  2.0597  1.4268  1.0142
 1458TIP3   OH225932   4.485   0.694   2.209 -0.2559 -0.0165  0.7439
 1458TIP3    H125933   4.521   0.775   2.173  0.6508 -0.4669  0.6171
 1458TIP3    H225934   4.509   0.627   2.145 -2.5320 -0.1547 -0.0918
 1459TIP3   OH225935   6.402   4.955   6.608  0.5689 -0.0239  0.0818
 1459TIP3    H125936   6.451   4.917   6.536  0.3634  0.1832 -0.1699
 1459TIP3    H225937   6.358   5.031   6.570 -0.1312 -0.3373  0.2455
 1460TIP3   OH225938   3.722   4.486   0.456 -0.6018 -0.0233 -0.1130
 1460TIP3    H125939   3.773   4.489   0.537  1.6870 -0.6412 -1.4364
 1460TIP3    H225940   3.786   4.501   0.387 -2.7965  2.6981 -1.7831
 1461TIP3   OH225941   5.357   5.526   1.704  0.0027  0.4496 -0.0201
 1461TIP3    H125942   5.416   5.455   1.679  0.4477  0.9014 -0.2896
 1461TIP3    H225943   5.396   5.564   1.783 -0.3622  0.2443  0.2598
 1462TIP3   OH225944   2.886   0.873   8.553 -0.1796 -0.1827 -0.1432
 1462TIP3    H125945   2.857   0.965   8.553  2.0676  0.6199 -1.4542
 1462TIP3    H225946   2.938   0.865   8.633 -0.8877 -0.5241  0.2934
 1463TIP3   OH225947   1.815   6.821   1.723 -0.0713 -0.4443 -0.4069
 1463TIP3    H125948   1.809   6.817   1.627 -0.7366  1.7711 -0.5123
 1463TIP3    H225949   1.869   6.746   1.747  0.1480 -1.0176 -2.5187
 1464TIP3   OH225950   4.242   4.887   1.823  0.1708 -0.1017 -0.0909
 1464TIP3    H125951   4.271   4.966   1.779  2.4581 -0.2738  0.9785
 1464TIP3    H225952   4.309   4.822   1.802 -0.5251 -1.1486  0.8055
 1465TIP3   OH225953   5.919   4.653   8.557 -0.0345  0.1032  0.3401
 1465TIP3    H125954   5.938   4.566   8.521  1.1710  0.6894 -0.5027
 1465TIP3    H225955   5.938   4.644   8.651  0.1341 -0.5197  0.2497
 1466TIP3   OH225956   2.417   0.336   1.248 -0.4097  0.1143  0.1143
 1466TIP3    H125957   2.426   0.399   1.176  1.3616 -1.1246 -0.8180
 1466TIP3    H225958   2.507   0.321   1.278 -0.5633 -3.1237 -0.7695
 1467TIP3   OH225959   1.450   2.183   8.551  0.3735 -0.1541  0.1561
 1467TIP3    H125960   1.360   2.165   8.580 -0.3968  1.8594 -0.7436
 1467TIP3    H225961   1.495   2.212   8.630 -0.3909  0.8063  0.2684
 1468TIP3   OH225962   5.810   1.261   2.071 -0.1030 -0.0325  0.4150
 1468TIP3    H125963   5.752   1.211   2.128 -0.1449  0.8817  1.2138
 1468TIP3    H225964   5.801   1.221   1.985 -0.9203 -0.7221  0.8121
 1469TIP3   OH225965   6.065   3.097   6.976  0.4626  0.5746  0.2102
 1469TIP3    H125966   5.994   3.130   6.919  0.3274 -0.2449 -0.1156
 1469TIP3    H225967   6.097   3.174   7.021  0.0208  1.1224 -0.3850
 1470TIP3   OH225968   1.491   0.239   2.315 -0.6427 -0.5181 -0.0904
 1470TIP3    H125969   1.413   0.189   2.339 -0.0318 -0.6948  1.6693
 1470TIP3    H225970   1.556   0.173   2.293 -0.6880 -0.4033 -0.5713
 1471TIP3   OH225971   4.369   3.976   0.425  1.2157  0.1663  0.1973
 1471TIP3    H125972   4.400   3.897   0.469  0.6628 -0.3871 -0.3872
 1471TIP3    H225973   4.279   3.988   0.455  0.6832 -0.4636 -1.0756
 1472TIP3   OH225974   4.808   5.948   1.517 -0.3066  0.4955 -0.0504
 1472TIP3    H125975   4.733   5.976   1.570 -1.2269 -1.7698 -0.0774
 1472TIP3    H225976   4.877   5.932   1.582 -1.7326 -3.2741  0.7656
 1473TIP3   OH225977   5.649   3.951   1.209  0.2160 -0.1852  0.1508
 1473TIP3    H125978   5.739   3.981   1.210  0.6353 -1.3808 -0.1300
 1473TIP3    H225979   5.599   4.024   1.246  1.3455  0.2846  0.7984
 1474TIP3   OH225980   4.146   2.248   6.248 -0.1121  0.3286 -0.2651
 1474TIP3    H125981   4.109   2.286   6.328 -0.0876 -0.8446  0.3435
 1474TIP3    H225982   4.208   2.313   6.216  0.9908  0.2463  1.5355
 1475TIP3   OH225983   0.771   1.522   1.453  0.5737 -0.8328 -0.2835
 1475TIP3    H125984   0.735   1.464   1.386  0.0290 -0.8489  0.0209
 1475TIP3    H225985   0.855   1.482   1.477  1.9159  0.3901 -2.5891
 1476TIP3   OH225986   2.308   0.293   0.770 -0.2346  0.1092  0.4438
 1476TIP3    H125987   2.396   0.257   0.779 -0.9077 -1.7050  0.2515
 1476TIP3    H225988   2.322   0.386   0.752  1.7112 -0.4314 -1.2610
 1477TIP3   OH225989   3.778   6.244   7.392 -0.2732  0.3839  0.0389
 1477TIP3    H125990   3.805   6.251   7.301  0.4273 -0.7468  0.1433
 1477TIP3    H225991   3.699   6.298   7.398 -0.1177  0.7651 -1.1420
 1478TIP3   OH225992   4.574   0.112   1.058  0.1148  0.0874  0.3671
 1478TIP3    H125993   4.624   0.163   1.121 -0.6566  0.0297  1.0387
 1478TIP3    H225994   4.631   0.039   1.034  0.9360  0.8434 -0.0297
 1479TIP3   OH225995   6.140   2.601   1.175 -0.3853  0.1378  0.4918
 1479TIP3    H125996   6.147   2.516   1.132 -0.2129  0.8498 -0.9724
 1479TIP3    H225997   6.090   2.584   1.254 -0.0235 -1.3875  0.4266
 1480TIP3   OH225998   0.750   3.670   0.312  0.0059  0.0593  0.3631
 1480TIP3    H125999   0.745   3.575   0.308 -0.3448  0.0839  0.2144
 1480TIP3    H226000   0.790   3.688   0.397  0.6628 -0.2363  0.1223
 1481TIP3   OH226001   4.711   0.267   7.970  0.5055 -0.0383  0.3345
 1481TIP3    H126002   4.629   0.270   8.019  0.8919  1.1029  0.9577
 1481TIP3    H226003   4.695   0.325   7.895  0.2370 -1.0277 -0.3839
 1482TIP3   OH226004   4.418   0.836   0.779  0.0437 -0.2499  0.3399
 1482TIP3    H126005   4.452   0.751   0.750 -0.0805 -0.5075  0.9356
 1482TIP3    H226006   4.343   0.814   0.835  0.8093  0.1986  1.5668
 1483TIP3   OH226007   4.524   5.843   0.149 -0.3144 -0.6967 -0.1245
 1483TIP3    H126008   4.577   5.864   0.073 -1.6811  0.5089 -0.7948
 1483TIP3    H226009   4.436   5.875   0.127 -1.1079 -1.7149  1.3318
 1484TIP3   OH226010   3.865   1.936   6.323  0.5214  0.1773 -0.0171
 1484TIP3    H126011   3.929   1.912   6.256  0.9606  1.0183  0.0910
 1484TIP3    H226012   3.904   1.907   6.406  0.8549  0.8444  0.0673
 1485TIP3   OH226013   0.660   3.439   2.423  0.2337  0.2872  0.0868
 1485TIP3    H126014   0.702   3.405   2.502  1.3983 -1.8551 -1.3299
 1485TIP3    H226015   0.567   3.418   2.435 -0.0144  2.1345  1.8488
 1486TIP3   OH226016   5.382   3.918   1.962  0.5266 -0.4509  0.4241
 1486TIP3    H126017   5.365   3.848   2.024 -1.8298 -0.7162 -0.4177
 1486TIP3    H226018   5.420   3.988   2.015  1.4145 -1.7416  1.5645
 1487TIP3   OH226019   4.572   1.035   8.173  0.5827 -0.3744 -1.4928
 1487TIP3    H126020   4.558   0.945   8.205  0.8445 -0.4386 -1.5626
 1487TIP3    H226021   4.599   1.084   8.251 -1.6415  0.1361 -0.9705
 1488TIP3   OH226022   6.597   4.742   1.097  0.4703  0.2248 -0.0382
 1488TIP3    H126023   6.510   4.760   1.134  1.7658  3.8441  1.7508
 1488TIP3    H226024   6.626   4.663   1.142 -1.4414 -0.4493  0.1157
 1489TIP3   OH226025   3.863   6.133   8.221  0.0475 -0.3031 -0.7363
 1489TIP3    H126026   3.785   6.117   8.167  0.5051 -1.2541 -1.1417
 1489TIP3    H226027   3.903   6.211   8.184 -0.1068 -0.4566 -1.2245
 1490TIP3   OH226028   5.642   2.165   7.342  0.4227  1.0501  0.0707
 1490TIP3    H126029   5.598   2.229   7.397  1.7295  0.3801  2.0015
 1490TIP3    H226030   5.700   2.217   7.286  1.0028  1.6072  1.1714
 1491TIP3   OH226031   4.970   4.695   6.741  0.2739  0.1167 -0.1351
 1491TIP3    H126032   4.925   4.626   6.693  1.8691 -1.6227  0.7249
 1491TIP3    H226033   4.943   4.682   6.832  0.9970  0.2845  0.1114
 1492TIP3   OH226034   5.740   2.645   1.656 -0.3778 -0.2796  0.3009
 1492TIP3    H126035   5.731   2.718   1.595 -0.1682 -0.5391 -0.0437
 1492TIP3    H226036   5.668   2.657   1.718  1.6679  2.3127  2.4815
 1493TIP3   OH226037   6.220   2.859   8.320  0.7444 -0.4073  0.6473
 1493TIP3    H126038   6.282   2.927   8.346  2.4749 -0.3430 -2.9784
 1493TIP3    H226039   6.205   2.874   8.227  1.3542 -4.9554 -0.4686
 1494TIP3   OH226040   1.048   4.300   1.927 -0.2142 -0.3441 -0.1525
 1494TIP3    H126041   0.969   4.294   1.874 -0.9164  0.4006  0.7770
 1494TIP3    H226042   1.054   4.216   1.972 -1.0431 -0.0403  0.5395
 1495TIP3   OH226043   0.910   2.074   7.492  0.4135  0.3585 -0.6383
 1495TIP3    H126044   0.844   2.016   7.454  0.0640  0.4707 -0.2029
 1495TIP3    H226045   0.972   2.015   7.535  0.2705  0.2906 -0.5284
 1496TIP3   OH226046   6.662   1.883   7.214  0.0824 -0.6384 -0.0187
 1496TIP3    H126047   6.592   1.862   7.277  0.4289  1.3009  1.1097
 1496TIP3    H226048   6.733   1.916   7.268  1.3122 -1.1425 -1.2841
 1497TIP3   OH226049   6.533   4.444   1.101 -0.0375  0.0060  0.5307
 1497TIP3    H126050   6.556   4.407   1.186 -1.5111  3.3986  2.6672
 1497TIP3    H226051   6.437   4.451   1.104 -0.0381  1.1165 -0.9551
 1498TIP3   OH226052   1.284   0.954   1.077 -0.0973 -0.2633 -0.0757
 1498TIP3    H126053   1.295   0.939   0.983 -0.6970  0.9606 -0.3642
 1498TIP3    H226054   1.190   0.968   1.088  0.1148  0.8575  0.4942
 1499TIP3   OH226055   3.469   4.589   0.289  0.3158 -0.0727  0.2012
 1499TIP3    H126056   3.561   4.574   0.308  0.0622 -0.8239  0.8791
 1499TIP3    H226057   3.426   4.505   0.309 -0.6293  0.4997  0.6509
 1500TIP3   OH226058   2.046   1.690   1.841 -0.4145  0.0836  0.3181
 1500TIP3    H126059   2.126   1.740   1.828  0.5696 -1.3106  0.7405
 1500TIP3    H226060   2.060   1.608   1.793 -2.3684  0.5541 -1.1689
 1501TIP3   OH226061   5.401   3.032   6.669 -0.5177 -0.2980  0.5388
 1501TIP3    H126062   5.348   3.081   6.733  2.4599  0.3287  2.7310
 1501TIP3    H226063   5.453   3.098   6.625 -1.9450 -0.8254 -2.1628
 1502TIP3   OH226064   0.737   4.668   0.744 -0.2634 -0.1424 -0.2905
 1502TIP3    H126065   0.778   4.619   0.673 -1.9318 -0.2956 -1.2081
 1502TIP3    H226066   0.664   4.613   0.773  0.7694 -0.4006  2.0668
 1503TIP3   OH226067   2.815   5.913   0.408  0.0472  0.4536 -0.0566
 1503TIP3    H126068   2.883   5.951   0.353  1.2045  0.9088  1.6403
 1503TIP3    H226069   2.836   5.940   0.497 -1.7886 -0.2386  0.6558
 1504TIP3   OH226070   0.420   1.085   0.542 -0.3507  0.4930 -0.7656
 1504TIP3    H126071   0.382   0.999   0.560  0.4636  0.3638  0.4815
 1504TIP3    H226072   0.346   1.140   0.517 -0.6063 -1.2308 -4.5792
 1505TIP3   OH226073   5.280   4.782   0.368  0.2527  0.0508 -0.0887
 1505TIP3    H126074   5.288   4.725   0.445  1.3736  1.7318  1.1137
 1505TIP3    H226075   5.249   4.865   0.404  1.5101  1.1058 -1.3541
 1506TIP3   OH226076   1.822   5.229   2.439  0.1656 -0.6064 -0.6842
 1506TIP3    H126077   1.826   5.197   2.529  0.0115  0.4624 -0.2857
 1506TIP3    H226078   1.875   5.167   2.389 -0.4858 -1.7305 -0.0188
 1507TIP3   OH226079   3.293   6.409   1.889 -0.2607  0.0530  0.1314
 1507TIP3    H126080   3.351   6.354   1.942 -0.0182 -0.5775 -0.7591
 1507TIP3    H226081   3.209   6.405   1.934 -0.0124 -0.3133  0.5772
 1508TIP3   OH226082   3.666   1.431   6.936  0.1651 -0.4109  0.3919
 1508TIP3    H126083   3.660   1.355   6.878 -1.2680 -0.8662  1.0885
 1508TIP3    H226084   3.720   1.494   6.887 -0.2321 -1.1257 -1.0355
 1509TIP3   OH226085   2.708   3.544   6.303 -0.0963  0.0781 -0.7825
 1509TIP3    H126086   2.655   3.465   6.315  1.0372 -0.3483  2.7764
 1509TIP3    H226087   2.651   3.615   6.333  0.5120 -0.1179  0.9701
 1510TIP3   OH226088   3.954   6.260   8.487 -0.0081 -0.4961 -0.0417
 1510TIP3    H126089   4.050   6.267   8.487 -0.0408  0.2717 -1.0448
 1510TIP3    H226090   3.934   6.200   8.416 -0.2594 -1.0626  0.5004
 1511TIP3   OH226091   1.530   6.414   7.913 -0.0347  0.0203  0.5374
 1511TIP3    H126092   1.560   6.349   7.850  0.6352  1.2146 -0.4142
 1511TIP3    H226093   1.515   6.365   7.994  0.0849 -1.3628 -0.2642
 1512TIP3   OH226094   3.876   4.298   7.131 -0.3128  0.2914  0.3297
 1512TIP3    H126095   3.949   4.322   7.188 -0.8983 -1.8517  2.1136
 1512TIP3    H226096   3.865   4.204   7.145 -1.5916  0.0196 -2.0952
 1513TIP3   OH226097   4.719   1.556   7.267  0.2289  0.0027 -0.5756
 1513TIP3    H126098   4.783   1.525   7.204  0.8260  2.3822 -1.2362
 1513TIP3    H226099   4.768   1.565   7.349  0.0018 -0.9298 -0.3259
 1514TIP3   OH226100   5.828   2.165   8.635  0.5577  0.6223  0.0696
 1514TIP3    H126101   5.852   2.074   8.617  2.1687  1.0985 -0.2929
 1514TIP3    H226102   5.910   2.209   8.655 -0.1604  2.0615  0.0242
 1515TIP3   OH226103   4.509   6.161   2.718 -0.0303  0.4674 -0.3198
 1515TIP3    H126104   4.501   6.185   2.810 -1.2668  0.1255 -0.3160
 1515TIP3    H226105   4.419   6.164   2.684  0.6222  3.0719 -2.1799
 1516TIP3   OH226106   5.229   4.110   0.569  0.0605 -0.0924  0.3359
 1516TIP3    H126107   5.193   4.021   0.563  0.4158 -0.1906 -0.4377
 1516TIP3    H226108   5.231   4.129   0.663 -0.2467 -0.8058  0.4915
 1517TIP3   OH226109   2.822   0.584   0.874  0.1569 -0.3746  0.2174
 1517TIP3    H126110   2.759   0.531   0.826 -0.9039 -0.4358  1.6412
 1517TIP3    H226111   2.887   0.522   0.907  0.0634 -0.5109  0.1422
 1518TIP3   OH226112   5.121   5.390   1.807 -0.5419  0.0874 -0.3776
 1518TIP3    H126113   5.171   5.375   1.887 -2.9785  0.6452  1.3578
 1518TIP3    H226114   5.175   5.450   1.755 -0.0273  1.8854  2.0756
 1519TIP3   OH226115   0.869   6.159   8.318  0.2452  0.0957  0.4708
 1519TIP3    H126116   0.961   6.136   8.330 -0.0220 -1.0127  0.4995
 1519TIP3    H226117   0.825   6.124   8.395 -0.4883 -1.1990 -0.4892
 1520TIP3   OH226118   5.418   3.292   0.854 -0.1623  0.3884 -0.4518
 1520TIP3    H126119   5.452   3.206   0.828 -1.3622 -0.2885  0.1413
 1520TIP3    H226120   5.390   3.333   0.772 -2.5093 -1.1093 -0.5073
 1521TIP3   OH226121   2.544   1.096   7.011 -0.2177 -0.5514 -0.1470
 1521TIP3    H126122   2.529   1.088   6.917 -0.0576 -0.0984 -0.2136
 1521TIP3    H226123   2.570   1.008   7.039  1.6488 -0.2850 -0.8661
 1522TIP3   OH226124   2.474   5.286   1.037 -0.5714  0.9264 -0.3542
 1522TIP3    H126125   2.533   5.290   0.962 -0.4818  1.0288 -0.2796
 1522TIP3    H226126   2.512   5.219   1.094 -1.9534 -0.8901 -1.5027
 1523TIP3   OH226127   4.067   3.332   1.957  0.4530  0.0135  0.4846
 1523TIP3    H126128   4.111   3.379   1.886  2.6770  1.3761  2.5909
 1523TIP3    H226129   4.091   3.241   1.943  1.4509  0.3437 -0.1320
 1524TIP3   OH226130   2.069   0.865   1.736  0.4386  0.2081 -0.0373
 1524TIP3    H126131   2.110   0.878   1.821  0.3070 -1.0259  0.2291
 1524TIP3    H226132   1.976   0.853   1.755  0.2968  0.6528 -0.4272
 1525TIP3   OH226133   4.623   1.223   0.916 -0.3799  0.0718 -0.3181
 1525TIP3    H126134   4.671   1.141   0.922 -0.2758  0.1249 -0.3996
 1525TIP3    H226135   4.538   1.205   0.956 -0.6284 -0.2829 -0.9847
 1526TIP3   OH226136   6.252   0.547   1.259  0.1476 -0.8792 -0.0308
 1526TIP3    H126137   6.346   0.563   1.251 -0.3323  1.5193 -2.1518
 1526TIP3    H226138   6.224   0.601   1.333  0.3001 -0.9134  0.0524
 1527TIP3   OH226139   2.985   3.084   0.305  0.7566 -0.5028 -0.3269
 1527TIP3    H126140   2.965   3.177   0.310 -1.9821 -0.9528 -0.9888
 1527TIP3    H226141   3.055   3.077   0.240 -0.6340  0.9438 -2.0637
 1528TIP3   OH226142   6.614   0.343   2.438 -0.0976 -0.8026 -0.2938
 1528TIP3    H126143   6.632   0.425   2.392  1.3387 -0.2394  1.1927
 1528TIP3    H226144   6.523   0.323   2.416 -0.5318  1.2606 -0.5920
 1529TIP3   OH226145   1.369   5.351   8.532  0.4517  0.3360  0.3214
 1529TIP3    H126146   1.301   5.331   8.596  0.2694  0.2719  0.1063
 1529TIP3    H226147   1.321   5.372   8.452  0.7024 -0.1408  0.0478
 1530TIP3   OH226148   0.096   4.819   1.604 -0.1375  0.1349  0.4988
 1530TIP3    H126149   0.058   4.731   1.602  1.8827 -0.8988  2.4449
 1530TIP3    H226150   0.026   4.874   1.639 -0.8909 -1.0295  0.9015
 1531TIP3   OH226151   5.400   1.530   1.977 -0.1907  0.0465  0.0049
 1531TIP3    H126152   5.309   1.508   1.993  0.1474 -1.1364  0.4252
 1531TIP3    H226153   5.438   1.539   2.065  0.6120 -1.8080 -0.1087
 1532TIP3   OH226154   4.209   0.626   8.397  0.1650  0.9777 -0.0870
 1532TIP3    H126155   4.228   0.634   8.490  1.5288 -0.9065 -0.1373
 1532TIP3    H226156   4.114   0.637   8.390  0.0089  0.8431  1.5562
 1533TIP3   OH226157   3.057   4.260   1.167  0.0471  0.0736 -0.4805
 1533TIP3    H126158   2.969   4.238   1.136  0.4733 -0.1742 -1.5802
 1533TIP3    H226159   3.056   4.238   1.260 -1.6960  2.0495  0.0584
 1534TIP3   OH226160   0.786   6.400   8.155 -0.0308  0.4091 -0.6230
 1534TIP3    H126161   0.822   6.317   8.185  3.6052  1.2545 -2.1395
 1534TIP3    H226162   0.750   6.380   8.068 -1.3040  0.0240 -0.0349
 1535TIP3   OH226163   5.575   2.429   7.683 -0.3156  0.0995 -0.4698
 1535TIP3    H126164   5.634   2.503   7.701  0.8617 -0.9913  0.2916
 1535TIP3    H226165   5.567   2.429   7.588  1.3198  0.0051 -0.6445
 1536TIP3   OH226166   6.321   0.903   1.940 -0.0095 -0.1161  0.0402
 1536TIP3    H126167   6.290   0.989   1.967  0.2912  0.1076 -0.3321
 1536TIP3    H226168   6.241   0.852   1.926 -0.1848  0.0153  0.5217
 1537TIP3   OH226169   2.913   3.125   1.089  0.2048  0.0545  0.1127
 1537TIP3    H126170   2.976   3.166   1.148  1.2795  1.2727 -1.7506
 1537TIP3    H226171   2.921   3.031   1.106  0.5012  0.3511  1.8190
 1538TIP3   OH226172   3.603   2.908   2.216 -0.1662  0.0986 -0.1673
 1538TIP3    H126173   3.656   2.836   2.182 -0.5845  0.2491 -1.1696
 1538TIP3    H226174   3.543   2.866   2.278 -0.9258 -0.5516 -1.3147
 1539TIP3   OH226175   3.274   2.288   7.635 -0.6105  0.0819 -0.1681
 1539TIP3    H126176   3.220   2.360   7.604 -0.7459  0.1427  0.2062
 1539TIP3    H226177   3.299   2.241   7.556 -1.1244  0.1157 -0.3514
 1540TIP3   OH226178   5.955   3.648   0.698 -0.1485  0.4190 -0.0306
 1540TIP3    H126179   6.040   3.656   0.739 -0.4023  0.9290  0.3958
 1540TIP3    H226180   5.963   3.696   0.615  0.0886  0.1468 -0.1673
 1541TIP3   OH226181   1.992   1.904   8.568  0.2213  0.5422 -0.2115
 1541TIP3    H126182   1.968   1.991   8.602  0.8889 -0.0755  1.9900
 1541TIP3    H226183   2.022   1.856   8.644  0.6811 -1.3824 -1.5358
 1542TIP3   OH226184   1.281   3.929   7.119 -0.2769  0.5239 -0.3964
 1542TIP3    H126185   1.370   3.928   7.084  0.1912  1.9600  0.6478
 1542TIP3    H226186   1.225   3.926   7.042  0.5670 -2.9366 -1.0265
 1543TIP3   OH226187   3.167   5.866   2.364 -0.2842  0.2952  0.3483
 1543TIP3    H126188   3.130   5.785   2.399 -0.7122 -0.3725 -1.4958
 1543TIP3    H226189   3.259   5.863   2.388 -0.1958 -0.9957 -0.0828
 1544TIP3   OH226190   0.631   4.147   8.282 -0.1144 -0.4378  0.2925
 1544TIP3    H126191   0.713   4.131   8.328 -0.2172 -0.3819  0.4939
 1544TIP3    H226192   0.656   4.146   8.189  0.8782  3.2681  0.3480
 1545TIP3   OH226193   0.723   5.884   0.702 -0.0495  0.0963  0.2879
 1545TIP3    H126194   0.815   5.907   0.709 -0.1447  0.5635  0.0526
 1545TIP3    H226195   0.702   5.839   0.784  0.3965 -0.0519  0.3191
 1546TIP3   OH226196   1.222   2.655   6.748  0.1356  0.2291 -0.7024
 1546TIP3    H126197   1.211   2.750   6.736  1.2136  0.7980  2.1167
 1546TIP3    H226198   1.142   2.626   6.792  0.6374  0.2512  0.2540
 1547TIP3   OH226199   3.654   1.456   6.418 -0.0987  0.4867 -0.3685
 1547TIP3    H126200   3.592   1.384   6.426  0.8233 -0.4870 -1.5679
 1547TIP3    H226201   3.600   1.534   6.417 -1.1851 -0.2272  0.1746
 1548TIP3   OH226202   2.152   3.482   1.126 -0.1781 -0.7890  0.0449
 1548TIP3    H126203   2.185   3.532   1.200 -1.2593  1.7641 -1.0670
 1548TIP3    H226204   2.188   3.527   1.049 -1.5117 -1.5045 -1.0403
 1549TIP3   OH226205   0.085   4.939   0.233 -0.0290 -0.2081 -0.3027
 1549TIP3    H126206   0.068   4.898   0.148  0.4938  0.0068 -0.5201
 1549TIP3    H226207   0.161   4.995   0.217  1.1181 -1.4206  0.6859
 1550TIP3   OH226208   2.736   4.266   1.437  0.1320  0.0226  0.0908
 1550TIP3    H126209   2.827   4.238   1.441  0.3705  0.2051 -2.4571
 1550TIP3    H226210   2.688   4.188   1.412 -0.5316 -0.1814  1.8603
 1551TIP3   OH226211   6.464   0.965   7.967 -0.2924 -0.4545  0.3999
 1551TIP3    H126212   6.371   0.951   7.982 -0.6680  1.6820  0.3630
 1551TIP3    H226213   6.470   0.985   7.873 -0.2540  2.0605  0.8494
 1552TIP3   OH226214   1.349   4.317   1.831  0.0692  0.0055  0.0844
 1552TIP3    H126215   1.280   4.323   1.764  0.4990  1.7848 -0.2411
 1552TIP3    H226216   1.309   4.355   1.910  0.0558 -0.7301  0.4393
 1553TIP3   OH226217   5.553   5.670   8.411  0.5352  0.0280  0.1107
 1553TIP3    H126218   5.512   5.679   8.325  0.5718  1.0121  0.1817
 1553TIP3    H226219   5.646   5.688   8.395  0.7216 -0.8611  0.1756
 1554TIP3   OH226220   5.278   4.819   1.661 -0.5064 -0.0650  0.1775
 1554TIP3    H126221   5.347   4.772   1.709  0.0139 -1.2016 -1.5683
 1554TIP3    H226222   5.268   4.902   1.707 -1.2516 -1.7254  3.2484
 1555TIP3   OH226223   0.288   0.905   1.111  0.3415  0.5488 -0.4959
 1555TIP3    H126224   0.335   0.822   1.117 -1.6643 -0.5864  1.0779
 1555TIP3    H226225   0.238   0.910   1.193 -1.2418  2.2554 -1.4841
 1556TIP3   OH226226   5.519   1.191   1.501  0.2877  0.5616  0.4406
 1556TIP3    H126227   5.521   1.287   1.495  0.2557  0.4783 -1.7731
 1556TIP3    H226228   5.444   1.172   1.557  0.1716  1.8399  0.7445
 1557TIP3   OH226229   1.113   1.690   7.210 -0.2723  0.2309  0.1576
 1557TIP3    H126230   1.030   1.643   7.216  0.2040 -0.6785 -0.1466
 1557TIP3    H226231   1.089   1.783   7.212 -1.1288  0.0314  2.4695
 1558TIP3   OH226232   1.368   0.233   7.664 -0.2560 -0.2588 -0.4875
 1558TIP3    H126233   1.298   0.272   7.613 -0.6683 -1.1995 -0.6654
 1558TIP3    H226234   1.443   0.292   7.651  0.1319 -1.2033 -3.4490
 1559TIP3   OH226235   4.743   5.658   8.544  0.1710  0.2344 -0.6957
 1559TIP3    H126236   4.810   5.659   8.612 -1.5869 -0.6134  1.1068
 1559TIP3    H226237   4.783   5.708   8.472  1.8398  1.7346  1.1464
 1560TIP3   OH226238   0.595   3.701   7.331 -0.0531  0.1410  0.0349
 1560TIP3    H126239   0.672   3.704   7.387  0.1698  0.2302 -0.2792
 1560TIP3    H226240   0.616   3.637   7.263 -0.2371  0.2009 -0.0801
 1561TIP3   OH226241   0.723   2.458   0.816  0.0991 -0.0407  0.1040
 1561TIP3    H126242   0.753   2.407   0.741 -0.7536 -0.9539  0.3544
 1561TIP3    H226243   0.774   2.539   0.813  0.9866 -0.6138 -0.7081
 1562TIP3   OH226244   2.969   0.608   7.739  0.1095 -0.2794  0.0528
 1562TIP3    H126245   3.018   0.685   7.767 -0.7695  0.5657 -0.6640
 1562TIP3    H226246   2.880   0.623   7.772 -0.1290 -0.8541 -0.3147
 1563TIP3   OH226247   5.498   1.921   0.781  0.0981 -0.2561 -0.2066
 1563TIP3    H126248   5.543   1.921   0.865 -1.0785  0.5711  0.4542
 1563TIP3    H226249   5.546   1.984   0.728 -0.8191  1.3533  0.8121
 1564TIP3   OH226250   2.783   0.231   7.999  0.0738 -0.7365  0.4020
 1564TIP3    H126251   2.728   0.288   7.945  0.5896  0.2097  0.8427
 1564TIP3    H226252   2.789   0.149   7.950  0.2887 -0.0095 -0.8346
 1565TIP3   OH226253   2.437   0.260   7.460  0.1731 -0.7788  0.4457
 1565TIP3    H126254   2.514   0.278   7.406  0.9705  3.0564  2.5460
 1565TIP3    H226255   2.470   0.204   7.531  0.7755 -0.1596  0.6651
 1566TIP3   OH226256   0.159   6.185   8.406  0.5672 -0.4110  0.0683
 1566TIP3    H126257   0.161   6.094   8.436  0.4845 -0.5388 -0.3108
 1566TIP3    H226258   0.081   6.191   8.350  1.1047 -0.3626 -0.7001
 1567TIP3   OH226259   4.804   4.770   2.706  0.1598  0.1646 -0.0705
 1567TIP3    H126260   4.773   4.839   2.647 -0.5382 -0.0243  0.0681
 1567TIP3    H226261   4.897   4.759   2.683 -0.0809  0.1496 -1.0801
 1568TIP3   OH226262   3.346   3.184   8.638 -0.5269  0.5431 -0.1706
 1568TIP3    H126263   3.364   3.115   8.574  1.6399 -0.0740  1.0257
 1568TIP3    H226264   3.323   3.261   8.584 -0.6690 -0.4555 -1.6002
 1569TIP3   OH226265   2.191   5.811   0.557 -1.0319  0.1286 -0.4455
 1569TIP3    H126266   2.271   5.759   0.560 -0.4893  0.9181  2.1986
 1569TIP3    H226267   2.131   5.761   0.501  0.8511 -1.1284 -1.4439
 1570TIP3   OH226268   2.137   2.249   8.531  0.2043 -0.5275 -0.0218
 1570TIP3    H126269   2.070   2.223   8.594 -0.9190 -0.3062 -1.0890
 1570TIP3    H226270   2.160   2.168   8.486  0.3124 -0.5179  0.0151
 1571TIP3   OH226271   2.394   0.167   6.423 -0.4649  0.0798  0.0952
 1571TIP3    H126272   2.381   0.092   6.365  0.5306  0.0344 -0.0920
 1571TIP3    H226273   2.323   0.227   6.401  0.1108  0.2259 -1.4585
 1572TIP3   OH226274   3.455   6.202   1.057 -0.1781 -0.2200 -0.3139
 1572TIP3    H126275   3.481   6.150   0.980 -0.8856 -0.2330 -0.5544
 1572TIP3    H226276   3.450   6.292   1.024 -1.0108 -0.2982 -0.4298
 1573TIP3   OH226277   6.288   4.818   1.880 -0.1747 -0.5392  0.3530
 1573TIP3    H126278   6.260   4.879   1.811 -0.8502 -0.9700  0.2354
 1573TIP3    H226279   6.383   4.812   1.869  0.1025  1.4921  1.1866
 1574TIP3   OH226280   5.615   2.797   7.344  1.0291  0.0655  0.0888
 1574TIP3    H126281   5.682   2.836   7.399  2.6732 -0.2210 -1.6057
 1574TIP3    H226282   5.636   2.703   7.342 -1.8621 -0.8010  2.7345
 1575TIP3   OH226283   6.821   6.216   1.816  0.0041 -0.3536 -0.1944
 1575TIP3    H126284   6.849   6.260   1.897  1.5725  0.5559 -1.1819
 1575TIP3    H226285   6.839   6.279   1.747 -3.0505 -0.3558 -1.1508
 1576TIP3   OH226286   1.715   4.509   1.887  0.3010  0.0546 -0.2052
 1576TIP3    H126287   1.694   4.420   1.912  0.8631 -0.4052 -1.3121
 1576TIP3    H226288   1.639   4.560   1.915  0.6291 -0.4915  1.8142
 1577TIP3   OH226289   2.095   1.949   6.846  0.3367  0.5329 -0.3813
 1577TIP3    H126290   2.064   1.977   6.932 -1.3341  1.1707 -1.1512
 1577TIP3    H226291   2.039   1.875   6.823  0.8575  0.2826 -0.8825
 1578TIP3   OH226292   0.426   4.097   6.620  0.4898  0.3094  0.5257
 1578TIP3    H126293   0.339   4.067   6.647  1.4626 -1.0339  2.3404
 1578TIP3    H226294   0.417   4.193   6.617 -1.3115  0.1676 -0.4038
 1579TIP3   OH226295   0.926   5.124   7.023 -0.0304 -0.5687 -0.0178
 1579TIP3    H126296   0.969   5.043   6.997  0.5630  0.2404 -1.7021
 1579TIP3    H226297   0.998   5.182   7.048 -0.2919  0.0784 -0.7390
 1580TIP3   OH226298   6.491   4.532   0.436 -0.0643  0.2050  0.2719
 1580TIP3    H126299   6.495   4.543   0.530  2.9717 -1.0245  0.3815
 1580TIP3    H226300   6.500   4.620   0.400 -0.9427  0.6380  1.0790
 1581TIP3   OH226301   5.252   6.225   0.930 -0.1467  0.0734 -0.0299
 1581TIP3    H126302   5.266   6.191   1.019 -0.0768 -1.2688 -0.5239
 1581TIP3    H226303   5.196   6.302   0.943 -1.3003 -0.8885  1.0899
 1582TIP3   OH226304   3.321   3.046   1.318 -0.7485  0.0120 -0.1932
 1582TIP3    H126305   3.392   3.097   1.357  0.0449 -2.1260  1.3038
 1582TIP3    H226306   3.246   3.105   1.319  0.3729  1.4994  0.4493
 1583TIP3   OH226307   6.541   4.550   6.800  0.3067 -0.2551  0.1286
 1583TIP3    H126308   6.493   4.469   6.819 -0.3795  0.4653  1.6711
 1583TIP3    H226309   6.475   4.619   6.812  0.8488  0.5350 -1.2887
 1584TIP3   OH226310   1.920   2.816   6.408  0.3894 -0.0701 -0.1150
 1584TIP3    H126311   2.006   2.836   6.443  0.5123  1.5496 -1.1956
 1584TIP3    H226312   1.934   2.808   6.313 -0.9534  2.8173 -0.6842
 1585TIP3   OH226313   4.861   2.202   0.834  0.1043  0.2740  0.1611
 1585TIP3    H126314   4.930   2.195   0.900 -0.0180  2.1464  0.5363
 1585TIP3    H226315   4.819   2.116   0.835  2.5048 -0.9944 -0.2065
 1586TIP3   OH226316   3.870   1.785   7.039 -0.4210 -0.2310  0.1879
 1586TIP3    H126317   3.867   1.722   6.967  1.1839 -0.6113  0.4193
 1586TIP3    H226318   3.963   1.801   7.053 -0.7351  0.4932  1.6169
 1587TIP3   OH226319   1.015   4.316   0.608  0.4967  0.5000  0.0703
 1587TIP3    H126320   1.106   4.335   0.633  1.0637  0.2345 -1.6190
 1587TIP3    H226321   0.989   4.242   0.664  1.7918 -0.2698 -0.2943
 1588TIP3   OH226322   1.415   5.578   0.028  0.3406 -0.0543  0.0804
 1588TIP3    H126323   1.469   5.509  -0.013  2.7447  1.8258 -0.1483
 1588TIP3    H226324   1.394   5.543   0.114  2.0306 -0.8632  0.2080
 1589TIP3   OH226325   4.524   2.271   1.382  0.1681  0.5324  0.6462
 1589TIP3    H126326   4.554   2.349   1.430  2.6434  0.2484 -0.2977
 1589TIP3    H226327   4.436   2.294   1.352  0.7921  2.9771  0.4306
 1590TIP3   OH226328   5.128   6.152   7.069  0.1520 -0.0917 -0.1413
 1590TIP3    H126329   5.188   6.206   7.017  0.2146 -0.3421 -0.3333
 1590TIP3    H226330   5.185   6.097   7.123  0.0855  0.2515  0.2831
 1591TIP3   OH226331   4.811   2.649   7.894  0.0825  0.4191 -0.3282
 1591TIP3    H126332   4.721   2.627   7.917  0.5149 -2.0185 -0.7078
 1591TIP3    H226333   4.851   2.678   7.976 -0.2279 -1.5748  0.5748
 1592TIP3   OH226334   1.401   3.765   8.631  0.3145  0.1532  0.3393
 1592TIP3    H126335   1.485   3.720   8.628  1.0429  1.4166  1.2133
 1592TIP3    H226336   1.355   3.733   8.553  2.3916  0.9524 -1.3055
 1593TIP3   OH226337   5.827   6.791   1.237 -0.0610 -0.6860  0.5397
 1593TIP3    H126338   5.763   6.861   1.251  1.1436  0.4917  0.4503
 1593TIP3    H226339   5.817   6.734   1.313  0.5477  0.9398  1.9221
 1594TIP3   OH226340   1.829   5.683   3.126 -0.0172 -0.0243  0.7925
 1594TIP3    H126341   1.905   5.731   3.094 -0.5010  0.7538  0.7858
 1594TIP3    H226342   1.759   5.706   3.065 -0.1740 -1.0192  0.5892
 1595TIP3   OH226343   2.759   6.582   1.060 -0.0440 -0.3355 -0.1092
 1595TIP3    H126344   2.822   6.568   0.989 -1.4335  0.5697 -1.6033
 1595TIP3    H226345   2.739   6.494   1.092 -0.5598 -0.9360 -1.9478
 1596TIP3   OH226346   4.721   6.297   8.183  0.5798  0.3517  0.1739
 1596TIP3    H126347   4.631   6.330   8.194  0.6872  0.1240  2.0361
 1596TIP3    H226348   4.762   6.359   8.123 -0.5688  0.9327 -0.0426
 1597TIP3   OH226349   4.737   4.278   1.045  0.0817  0.4833 -0.1855
 1597TIP3    H126350   4.752   4.191   1.006  1.3093 -0.0832  1.4282
 1597TIP3    H226351   4.684   4.260   1.122 -1.0979  1.4061 -0.7584
 1598TIP3   OH226352   0.060   1.843   8.235  0.9443  0.2819  0.3801
 1598TIP3    H126353   0.090   1.825   8.145  1.0108 -0.0804  0.4753
 1598TIP3    H226354  -0.028   1.879   8.224  0.1860 -1.5208  0.2643
 1599TIP3   OH226355   0.986   5.522   2.092 -0.1198  0.6279  0.1366
 1599TIP3    H126356   1.060   5.582   2.090  1.4253 -1.1320  0.8712
 1599TIP3    H226357   0.925   5.560   2.155 -0.7308  3.0027 -1.7705
 1600TIP3   OH226358   5.626   6.822   8.302  0.3843 -0.1324  0.0363
 1600TIP3    H126359   5.685   6.747   8.302  2.1299  1.1356 -1.6968
 1600TIP3    H226360   5.542   6.787   8.271  0.3885 -1.8022  1.7259
 1601TIP3   OH226361   2.378   5.611   2.470 -0.2641  0.6808  0.0318
 1601TIP3    H126362   2.327   5.680   2.426 -2.6592 -0.1248  1.3513
 1601TIP3    H226363   2.348   5.530   2.428  0.2773  0.2146  0.5409
 1602TIP3   OH226364   2.351   0.010   7.099 -0.8142 -0.0434  0.1004
 1602TIP3    H126365   2.428   0.017   7.043 -1.0786  3.4905 -0.0063
 1602TIP3    H226366   2.279  -0.007   7.038 -0.7431  1.3307 -0.4018
 1603TIP3   OH226367   6.485   2.758   0.618 -0.2206 -0.0303  0.2878
 1603TIP3    H126368   6.407   2.725   0.573  0.2292 -0.1877 -0.3870
 1603TIP3    H226369   6.483   2.716   0.703  0.7434 -2.4104 -0.7991
 1604TIP3   OH226370   5.294   6.038   2.210 -0.0057 -0.2181 -0.1243
 1604TIP3    H126371   5.203   6.028   2.182  0.0359  1.0332 -0.7890
 1604TIP3    H226372   5.332   6.097   2.145  1.5018 -1.3438 -0.3011
 1605TIP3   OH226373   0.363   5.703   8.266  0.2543 -0.3333 -0.1972
 1605TIP3    H126374   0.270   5.694   8.244  0.5298 -0.4515 -1.3657
 1605TIP3    H226375   0.405   5.628   8.225  0.5781 -1.6253  2.3008
 1606TIP3   OH226376   5.997   6.525   1.599  0.2911 -0.2124  0.7926
 1606TIP3    H126377   6.079   6.549   1.642  0.2795  0.3996  0.4821
 1606TIP3    H226378   5.960   6.456   1.654 -0.6827  1.8466  2.9027
 1607TIP3   OH226379   2.113   5.374   8.446  0.0976  0.2996  0.3705
 1607TIP3    H126380   2.129   5.413   8.360 -0.4611 -0.1157  0.0734
 1607TIP3    H226381   2.199   5.339   8.473  0.0459 -0.5781 -0.5325
 1608TIP3   OH226382   1.836   4.941   1.154  0.9875 -0.6425 -0.2443
 1608TIP3    H126383   1.788   4.936   1.072  0.6706  0.7178 -0.1674
 1608TIP3    H226384   1.769   4.957   1.220  1.4559  0.8028 -0.0722
 1609TIP3   OH226385   0.428   6.762   8.504 -0.4615 -0.0942 -0.5496
 1609TIP3    H126386   0.490   6.817   8.456  0.1414  0.6930  1.0574
 1609TIP3    H226387   0.459   6.765   8.595 -2.0977 -0.7608  0.0625
 1610TIP3   OH226388   5.968   2.620   1.422  0.4006 -0.1634  0.5354
 1610TIP3    H126389   5.904   2.690   1.406  0.2323 -0.7456 -1.6830
 1610TIP3    H226390   5.922   2.558   1.479 -1.0396 -0.5102 -0.9280
 1611TIP3   OH226391   0.353   4.363   6.701  0.1310  0.5216  0.3116
 1611TIP3    H126392   0.331   4.387   6.791 -0.3663  0.5070  0.1929
 1611TIP3    H226393   0.327   4.439   6.649  1.3232  0.9325  0.2904
 1612TIP3   OH226394   1.654   0.158   6.566  0.4323  0.4881 -0.0166
 1612TIP3    H126395   1.680   0.220   6.634  1.5476 -0.1399  0.1431
 1612TIP3    H226396   1.655   0.210   6.485 -0.4468  1.1171  0.3523
 1613TIP3   OH226397   1.655   3.572   8.587 -0.2979  0.4894 -0.6899
 1613TIP3    H126398   1.607   3.497   8.623  0.3160  0.5231  0.2357
 1613TIP3    H226399   1.745   3.539   8.576  0.3029  1.4132  0.9512
 1614TIP3   OH226400   4.838   5.336   2.078  0.0238  0.0205  0.5275
 1614TIP3    H126401   4.921   5.378   2.099  0.6986 -1.5776  1.2236
 1614TIP3    H226402   4.794   5.326   2.163  0.3313 -1.5120  0.5501
 1615TIP3   OH226403   4.095   2.873   1.711 -0.0180  0.3890  0.4828
 1615TIP3    H126404   4.182   2.877   1.671 -0.2296  1.0442  0.0798
 1615TIP3    H226405   4.046   2.943   1.668 -1.3831 -1.3020 -0.8748
 1616TIP3   OH226406   5.540   3.471   2.237 -0.0281 -0.2040 -0.2810
 1616TIP3    H126407   5.625   3.516   2.226  0.4083 -0.4914  1.6728
 1616TIP3    H226408   5.548   3.392   2.184  0.7546  0.0012 -0.4843
 1617TIP3   OH226409   6.687   2.129   2.823 -0.1077 -0.0113  0.4024
 1617TIP3    H126410   6.752   2.152   2.890  0.7120 -2.1518  0.4316
 1617TIP3    H226411   6.736   2.126   2.741 -0.8800  1.4804 -0.1586
 1618TIP3   OH226412   0.048   5.942   1.757 -0.2382  0.1989  0.1384
 1618TIP3    H126413   0.061   5.886   1.833 -0.2294 -0.4202 -0.3163
 1618TIP3    H226414  -0.010   6.012   1.788  1.4790  1.1759  1.3034
 1619TIP3   OH226415   1.384   3.172   8.639 -0.2436  0.4020  0.1734
 1619TIP3    H126416   1.343   3.212   8.562  1.5838 -0.0109 -1.0490
 1619TIP3    H226417   1.459   3.124   8.605  0.8090  0.4751  2.2592
 1620TIP3   OH226418   6.480   4.153   0.055  0.5345 -0.4862 -0.1549
 1620TIP3    H126419   6.421   4.181   0.125 -0.3635 -1.0734 -0.6632
 1620TIP3    H226420   6.540   4.092   0.098 -0.3211 -1.2294  0.0179
 1621TIP3   OH226421   1.709   1.667   8.001 -0.2841  0.6846 -0.2106
 1621TIP3    H126422   1.630   1.717   8.020 -1.5475 -1.6323  1.0230
 1621TIP3    H226423   1.774   1.733   7.976 -2.0400  2.8240  0.5972
 1622TIP3   OH226424   5.019   3.279   0.877 -0.3498 -0.6347 -0.3095
 1622TIP3    H126425   5.038   3.185   0.882  1.0936 -0.3966 -0.7794
 1622TIP3    H226426   5.074   3.311   0.805 -0.3882  0.6655  0.2051
 1623TIP3   OH226427   2.289   1.253   7.788  0.4362  0.1895 -0.4555
 1623TIP3    H126428   2.299   1.220   7.699  0.0650 -1.7011  0.1660
 1623TIP3    H226429   2.236   1.332   7.778  1.1475  0.5070 -1.9789
 1624TIP3   OH226430   2.007   4.585   0.365  0.2196  0.4031  0.3630
 1624TIP3    H126431   1.993   4.490   0.369 -0.6278  0.4576 -0.7534
 1624TIP3    H226432   2.004   4.605   0.272  0.3520  1.5379  0.5982
 1625TIP3   OH226433   3.894   0.441   1.014  0.2867  0.1942  0.4530
 1625TIP3    H126434   3.949   0.383   1.067  1.4401 -0.9921 -1.8762
 1625TIP3    H226435   3.955   0.503   0.974 -0.1558 -0.3824 -1.2232
 1626TIP3   OH226436   5.423   3.972   0.267  0.2286  0.1649  0.0674
 1626TIP3    H126437   5.328   3.963   0.262 -0.5788  4.4318  2.7352
 1626TIP3    H226438   5.449   3.998   0.178 -1.1416 -0.4384 -0.5425
 1627TIP3   OH226439   5.054   4.359   7.063 -0.0906 -0.0943  0.0649
 1627TIP3    H126440   5.146   4.378   7.046  0.0017 -0.2496  0.3919
 1627TIP3    H226441   5.024   4.433   7.117 -0.4232  0.4786 -0.8658
 1628TIP3   OH226442   6.647   4.298   7.458 -0.2533  0.0772  0.5425
 1628TIP3    H126443   6.631   4.375   7.513  0.0787  0.4379  0.1477
 1628TIP3    H226444   6.722   4.323   7.403 -0.0436 -0.5855  0.5153
 1629TIP3   OH226445   0.467   3.665   1.498 -0.4523  0.2343 -0.7787
 1629TIP3    H126446   0.528   3.684   1.569 -0.9565 -0.2622 -0.2053
 1629TIP3    H226447   0.439   3.574   1.513  0.1269 -0.2008 -2.1286
 1630TIP3   OH226448   5.437   0.886   2.463 -0.7741  0.4954  0.2966
 1630TIP3    H126449   5.413   0.977   2.476  1.9544  1.4120 -0.3786
 1630TIP3    H226450   5.364   0.848   2.414 -1.0601  2.9168 -1.3141
 1631TIP3   OH226451   5.516   0.078   0.125  0.3446 -0.5865  0.1690
 1631TIP3    H126452   5.517   0.156   0.181  1.7027 -0.7179  0.3731
 1631TIP3    H226453   5.567   0.103   0.048 -0.0484 -0.9651 -0.2158
 1632TIP3   OH226454   2.363   6.658   1.761  0.1118 -0.3495  0.1618
 1632TIP3    H126455   2.319   6.578   1.733  0.6205 -0.7317  0.4599
 1632TIP3    H226456   2.330   6.725   1.701 -0.8490 -0.6367  0.3490
 1633TIP3   OH226457   3.977   2.037   6.809 -0.1726 -0.0550 -0.1072
 1633TIP3    H126458   3.960   1.997   6.723  1.8563 -2.5173  0.5244
 1633TIP3    H226459   4.056   1.992   6.841 -0.5719  1.1475  2.8465
 1634TIP3   OH226460   2.155   0.974   1.963  0.2367  0.5410 -0.3894
 1634TIP3    H126461   2.122   0.929   2.041 -1.1338  1.3169 -0.4803
 1634TIP3    H226462   2.213   1.042   1.997  2.0678 -1.0295 -0.2366
 1635TIP3   OH226463   4.157   5.536   8.364  0.6746 -0.2570 -0.3068
 1635TIP3    H126464   4.211   5.527   8.285 -0.1746 -0.1185 -0.9173
 1635TIP3    H226465   4.118   5.623   8.357  1.4494  0.1887  0.8260
 1636TIP3   OH226466   5.882   6.694   2.300 -0.4754 -0.0232  0.0698
 1636TIP3    H126467   5.802   6.651   2.330 -1.5245  1.1666 -0.9158
 1636TIP3    H226468   5.851   6.773   2.256  1.2241  0.1558 -0.8564
 1637TIP3   OH226469   3.388   1.304   6.876 -0.2779 -0.2634  0.2462
 1637TIP3    H126470   3.398   1.393   6.842  1.0873 -0.6878 -0.5308
 1637TIP3    H226471   3.447   1.251   6.823 -0.0146 -1.4010  1.6104
 1638TIP3   OH226472   1.714   4.216   8.658 -0.0700 -0.6078 -0.1263
 1638TIP3    H126473   1.737   4.308   8.644 -0.0739 -0.8204 -1.8162
 1638TIP3    H226474   1.766   4.189   8.734 -1.0943  1.1178  1.2565
 1639TIP3   OH226475   1.274   6.401   1.744  0.0534 -0.8104 -0.2140
 1639TIP3    H126476   1.361   6.408   1.782 -0.3906  2.5606  0.5262
 1639TIP3    H226477   1.287   6.419   1.651  0.1621 -0.0084 -0.0546
 1640TIP3   OH226478   6.540   3.383   1.789 -0.0785  0.1855 -0.3713
 1640TIP3    H126479   6.583   3.311   1.743 -0.1549 -0.3763  0.4124
 1640TIP3    H226480   6.461   3.402   1.738  1.1767  1.4011 -1.9784
 1641TIP3   OH226481   4.205   4.456   1.507 -0.4374 -0.0049 -0.2255
 1641TIP3    H126482   4.166   4.536   1.541 -0.9250 -0.0524 -0.6629
 1641TIP3    H226483   4.204   4.395   1.581  0.5442  0.5850  0.3083
 1642TIP3   OH226484   6.789   1.275   7.231 -0.0754 -0.0135 -0.1610
 1642TIP3    H126485   6.784   1.336   7.157 -0.9780 -1.0933 -1.0153
 1642TIP3    H226486   6.821   1.194   7.193 -1.9914 -1.0445  0.2981
 1643TIP3   OH226487   2.891   6.783   8.312  0.4088  0.0088 -0.4255
 1643TIP3    H126488   2.829   6.728   8.265  0.9626 -0.6829 -0.3633
 1643TIP3    H226489   2.954   6.811   8.246 -1.2196  2.6558 -1.0112
 1644TIP3   OH226490   3.573   5.511   8.626 -0.6011 -0.0985 -0.3081
 1644TIP3    H126491   3.571   5.421   8.660  2.9265 -0.0583  0.3604
 1644TIP3    H226492   3.519   5.561   8.688 -1.7091 -1.5116 -0.0666
 1645TIP3   OH226493   1.570   2.584   6.786 -0.2784 -0.2665  0.0126
 1645TIP3    H126494   1.512   2.567   6.860  0.9506 -1.7054  0.7015
 1645TIP3    H226495   1.566   2.679   6.774  0.6910  0.2469  2.9663
 1646TIP3   OH226496   2.247   4.724   6.992  0.0064 -0.6208 -0.2213
 1646TIP3    H126497   2.282   4.655   6.935  0.6559  0.9980 -1.8800
 1646TIP3    H226498   2.278   4.806   6.952 -1.8931  0.7096  0.8796
 1647TIP3   OH226499   0.306   4.308   8.178 -0.3109 -0.2085 -0.1921
 1647TIP3    H126500   0.301   4.368   8.103  0.4805 -0.0583 -0.1340
 1647TIP3    H226501   0.248   4.235   8.154 -1.7216  0.8161 -0.0255
 1648TIP3   OH226502   5.881   0.764   0.595 -0.2385 -0.0171  0.0826
 1648TIP3    H126503   5.976   0.749   0.592 -0.1958  0.2837 -0.1079
 1648TIP3    H226504   5.867   0.840   0.538 -0.9046 -1.5997 -1.9613
 1649TIP3   OH226505   3.568   2.126   7.495  0.7876 -0.2023  0.5160
 1649TIP3    H126506   3.558   2.217   7.465 -0.9321  0.6697  3.3904
 1649TIP3    H226507   3.657   2.103   7.471  0.6413  1.4667 -2.1375
 1650TIP3   OH226508   0.068   6.086   8.031  0.3475 -0.0269  0.1926
 1650TIP3    H126509   0.043   6.131   7.950  0.2204 -0.6565 -0.1307
 1650TIP3    H226510   0.095   5.999   8.002 -1.9178 -1.0838  1.0080
 1651TIP3   OH226511   4.550   4.064   2.179  0.7961  0.2381  0.1510
 1651TIP3    H126512   4.508   4.139   2.221  0.3786  0.6170 -0.9114
 1651TIP3    H226513   4.630   4.050   2.230  0.1016  0.4000  1.3275
 1652TIP3   OH226514   0.730   6.031   8.525 -0.0592  0.3427 -0.1017
 1652TIP3    H126515   0.736   5.948   8.571  1.1368  0.7030  0.4377
 1652TIP3    H226516   0.645   6.067   8.552 -1.1171 -1.1893 -1.2489
 1653TIP3   OH226517   6.136   1.181   0.304  0.0739  0.0871 -0.1439
 1653TIP3    H126518   6.199   1.134   0.359 -0.3604 -0.4996 -0.1411
 1653TIP3    H226519   6.063   1.120   0.294  0.4552 -0.1044 -1.9661
 1654TIP3   OH226520   2.378   4.973   8.619  0.2835  0.6053 -0.2391
 1654TIP3    H126521   2.468   5.006   8.614  0.0219  1.2486 -0.9554
 1654TIP3    H226522   2.361   4.936   8.532  0.4053 -1.0216  0.4035
 1655TIP3   OH226523   6.491   2.649   7.852  0.0395  0.2136  0.2768
 1655TIP3    H126524   6.417   2.709   7.855  0.1256  0.3507 -0.2064
 1655TIP3    H226525   6.477   2.589   7.925  0.0556  0.9425  0.9016
 1656TIP3   OH226526   4.047   4.301   0.482 -0.0330  0.3169 -0.2312
 1656TIP3    H126527   4.141   4.285   0.472  0.2245  0.5273  1.6474
 1656TIP3    H226528   4.014   4.225   0.530 -0.8461  0.2456 -0.8701
 1657TIP3   OH226529   6.680   5.623   7.598 -0.0635 -0.7314  0.0609
 1657TIP3    H126530   6.680   5.650   7.506  0.7303  0.6544  0.4286
 1657TIP3    H226531   6.592   5.644   7.629 -2.1375 -5.7206 -1.5022
 1658TIP3   OH226532   0.880   5.996   7.805  0.4155 -0.1001 -0.0183
 1658TIP3    H126533   0.837   6.039   7.880 -0.5784  0.6147 -0.9688
 1658TIP3    H226534   0.864   5.903   7.819 -0.8920  0.1081 -0.0015
 1659TIP3   OH226535   1.762   1.643   8.321 -0.5280  0.2434  0.3036
 1659TIP3    H126536   1.707   1.666   8.396  0.5806  1.0449  0.8998
 1659TIP3    H226537   1.720   1.684   8.246 -1.0588  0.3553  0.6597
 1660TIP3   OH226538   2.941   0.330   6.718  0.3987  0.2557  0.3118
 1660TIP3    H126539   3.008   0.359   6.656  0.1618 -0.7405 -0.4398
 1660TIP3    H226540   2.860   0.371   6.687  0.3188 -0.0682  0.0931
 1661TIP3   OH226541   3.317   2.400   1.919 -0.2098  0.0596  0.0013
 1661TIP3    H126542   3.388   2.408   1.855  0.6935  1.4836  1.1077
 1661TIP3    H226543   3.337   2.319   1.967  1.1142  0.7957  0.7662
 1662TIP3   OH226544   5.084   4.732   2.971  0.4559 -0.1100 -1.0347
 1662TIP3    H126545   5.110   4.809   2.920  1.8913 -0.8537 -1.4744
 1662TIP3    H226546   5.158   4.672   2.964 -0.2463 -1.1576  0.0874
 1663TIP3   OH226547   3.440   3.599   6.644 -0.5267 -0.3096  0.1053
 1663TIP3    H126548   3.411   3.614   6.734 -0.7331 -2.0159  0.3539
 1663TIP3    H226549   3.430   3.684   6.601 -0.3067  0.5693  1.7123
 1664TIP3   OH226550   0.423   0.640   8.029  1.3115 -0.8738  0.2900
 1664TIP3    H126551   0.493   0.696   8.064 -0.3801  1.8426 -0.3809
 1664TIP3    H226552   0.349   0.699   8.018 -0.2424 -3.0354 -1.6705
 1665TIP3   OH226553   3.658   1.744   0.695  0.1957  0.2241 -0.3313
 1665TIP3    H126554   3.716   1.804   0.743  0.9326 -0.2274 -0.6327
 1665TIP3    H226555   3.671   1.766   0.603  0.6591 -0.5462 -0.4617
 1666TIP3   OH226556   2.311   5.922   1.589 -0.3552  0.1443  0.0956
 1666TIP3    H126557   2.309   5.827   1.579  3.5316  0.0289 -1.0364
 1666TIP3    H226558   2.317   5.955   1.499 -1.0780  1.4731  0.5126
 1667TIP3   OH226559   2.615   0.077   0.129  0.3146 -0.3925 -0.4112
 1667TIP3    H126560   2.687   0.119   0.081 -1.0792  0.9905 -1.3495
 1667TIP3    H226561   2.548   0.062   0.064 -0.9810  0.0148  0.7771
 1668TIP3   OH226562   2.804   6.778   7.117  1.1407  0.5537 -0.1162
 1668TIP3    H126563   2.757   6.853   7.080 -1.0649  0.8519  2.9215
 1668TIP3    H226564   2.793   6.787   7.211 -0.2147 -4.2068  0.4275
 1669TIP3   OH226565   1.463   1.012   1.850  0.4248  0.4261 -0.1975
 1669TIP3    H126566   1.446   0.988   1.759  1.9578  1.5499 -0.8140
 1669TIP3    H226567   1.399   1.081   1.868  0.7554  0.8781 -0.7378
 1670TIP3   OH226568   0.869   0.467   2.036 -0.1252 -0.2807 -0.1639
 1670TIP3    H126569   0.924   0.391   2.024  1.0840  0.6488 -0.7062
 1670TIP3    H226570   0.803   0.440   2.100  1.6623 -1.0711  1.4206
 1671TIP3   OH226571   3.708   5.138   1.668 -0.8602 -0.2701 -0.0355
 1671TIP3    H126572   3.724   5.221   1.713 -1.5301  0.0063 -0.2921
 1671TIP3    H226573   3.761   5.144   1.588  0.8504 -1.0360  0.9853
 1672TIP3   OH226574   5.311   3.255   8.538  0.8083  0.2042 -0.5961
 1672TIP3    H126575   5.347   3.244   8.626  0.8789 -0.3097 -0.6877
 1672TIP3    H226576   5.322   3.169   8.496  1.3112  0.6016 -1.3013
 1673TIP3   OH226577   4.672   0.515   0.461  0.3385  0.1383  0.2693
 1673TIP3    H126578   4.664   0.516   0.556 -1.7714 -0.3013  0.1413
 1673TIP3    H226579   4.616   0.442   0.433  2.0530 -0.6879 -1.2442
 1674TIP3   OH226580   0.323   6.108   1.464 -0.3221 -0.1489 -0.4005
 1674TIP3    H126581   0.348   6.034   1.408 -0.8386 -1.5934  1.1749
 1674TIP3    H226582   0.340   6.185   1.411 -1.2464 -1.4386 -2.7321
 1675TIP3   OH226583   2.385   2.275   8.629 -0.1516 -0.3158 -0.4477
 1675TIP3    H126584   2.293   2.277   8.600  0.3962 -0.7882 -2.3994
 1675TIP3    H226585   2.430   2.224   8.561  1.7061  0.6224  0.0175
 1676TIP3   OH226586   5.896   2.763   8.203  0.7486 -0.2862 -0.1633
 1676TIP3    H126587   5.960   2.691   8.211  0.2981 -0.5555  1.4791
 1676TIP3    H226588   5.833   2.732   8.138  2.0444 -0.1895 -1.5025
 1677TIP3   OH226589   1.832   1.720   1.181 -0.1728 -0.2230  0.6082
 1677TIP3    H126590   1.789   1.785   1.236  0.8481  0.4525  0.6221
 1677TIP3    H226591   1.834   1.759   1.094 -1.1994 -1.0200  0.1933
 1678TIP3   OH226592   6.738   4.430   8.330 -0.4408  0.4025  0.0483
 1678TIP3    H126593   6.788   4.369   8.384 -1.0822 -0.4814 -0.3191
 1678TIP3    H226594   6.800   4.459   8.263  0.0032  0.5195  0.5053
 1679TIP3   OH226595   6.673   6.194   8.515 -0.0849  0.5281 -0.2034
 1679TIP3    H126596   6.740   6.145   8.468  0.3335  1.7211 -0.9011
 1679TIP3    H226597   6.650   6.139   8.590  0.6717 -0.5115 -0.7214
 1680TIP3   OH226598   2.421   1.263   0.628  0.2102  0.4519 -0.2084
 1680TIP3    H126599   2.423   1.182   0.578 -0.5076  1.4834 -2.0082
 1680TIP3    H226600   2.511   1.274   0.659  0.6273 -0.3651 -1.0774
 1681TIP3   OH226601   0.744   4.123   8.645 -0.3023  0.6201  0.0793
 1681TIP3    H126602   0.676   4.189   8.628 -0.3116  1.2992  2.4440
 1681TIP3    H226603   0.826   4.171   8.636 -0.2878  0.8012  1.0569
 1682TIP3   OH226604   2.537   2.965   7.195  0.2261 -0.1066  0.2200
 1682TIP3    H126605   2.549   2.957   7.290  0.0119 -2.2791  0.1037
 1682TIP3    H226606   2.618   2.932   7.158  1.1518  2.6090 -0.4080
 1683TIP3   OH226607   2.504   0.936   7.646 -0.2263  0.1690 -0.0343
 1683TIP3    H126608   2.560   1.003   7.686 -1.1242 -0.3913  2.2889
 1683TIP3    H226609   2.493   0.966   7.555 -0.1388  2.8711  0.7554
 1684TIP3   OH226610   4.052   3.581   0.248 -0.3153  0.0242 -0.0518
 1684TIP3    H126611   3.994   3.639   0.299 -0.1569 -0.5186  0.7639
 1684TIP3    H226612   4.082   3.636   0.175  0.0105  1.0515  0.8242
 1685TIP3   OH226613   5.328   2.766   6.988 -0.7299  0.4976  0.3395
 1685TIP3    H126614   5.332   2.760   7.083 -0.6676 -0.8796  0.2777
 1685TIP3    H226615   5.398   2.709   6.957 -0.4587  1.2878 -0.5333
 1686TIP3   OH226616   3.045   5.425   7.476 -0.3124  0.0079 -0.0603
 1686TIP3    H126617   3.125   5.394   7.434 -0.6216  1.1759 -1.5839
 1686TIP3    H226618   3.074   5.452   7.564  1.1279  0.9796 -0.7784
 1687TIP3   OH226619   6.851   3.528   8.365 -0.1907 -0.2620  0.4014
 1687TIP3    H126620   6.881   3.468   8.433 -0.9476 -0.7864  0.2861
 1687TIP3    H226621   6.798   3.473   8.307 -1.8153  0.7182  0.8953
 1688TIP3   OH226622   5.328   5.298   1.984 -0.5773  0.2556 -0.1209
 1688TIP3    H126623   5.378   5.303   2.066 -1.2485 -0.2080  0.3277
 1688TIP3    H226624   5.395   5.287   1.916 -0.0624 -0.4224  0.4767
 1689TIP3   OH226625   4.783   3.661   1.635 -0.3791  0.6447  0.1130
 1689TIP3    H126626   4.722   3.733   1.619  0.7493  1.7584  0.5273
 1689TIP3    H226627   4.839   3.694   1.706  0.6493 -0.3450 -0.2140
 1690TIP3   OH226628   1.655   5.699   2.903  0.2299 -0.2469  0.4397
 1690TIP3    H126629   1.576   5.672   2.857 -0.5850 -0.7335  2.0418
 1690TIP3    H226630   1.726   5.679   2.843 -0.6568 -2.4045  0.0232
 1691TIP3   OH226631   5.027   5.806   1.108 -0.2761  0.1268 -0.1000
 1691TIP3    H126632   4.958   5.852   1.156 -0.8625 -0.6264 -0.2178
 1691TIP3    H226633   5.107   5.825   1.158 -1.0298 -1.6231  1.9132
 1692TIP3   OH226634   1.437   3.295   6.943  0.3844  0.0396  0.0098
 1692TIP3    H126635   1.464   3.333   6.860  0.8403 -1.1302 -0.4064
 1692TIP3    H226636   1.517   3.258   6.980 -0.2372 -1.6561 -0.2519
 1693TIP3   OH226637   2.317   2.639   8.272  0.1845 -0.2526  0.2062
 1693TIP3    H126638   2.276   2.593   8.345  0.7382 -2.4734 -0.8028
 1693TIP3    H226639   2.310   2.578   8.198  3.4790  0.0823 -0.5270
 1694TIP3   OH226640   3.237   3.110   7.775 -0.3297 -0.3534 -0.3135
 1694TIP3    H126641   3.173   3.147   7.715  1.7987  1.5060 -1.5710
 1694TIP3    H226642   3.265   3.184   7.829 -0.0673 -1.3899  1.0322
 1695TIP3   OH226643   3.697   2.381   6.652  0.4968 -0.1072  0.4381
 1695TIP3    H126644   3.789   2.356   6.660  0.7167  0.7261  0.6816
 1695TIP3    H226645   3.653   2.302   6.623  0.8918 -1.2369  2.6743
 1696TIP3   OH226646   2.207   0.897   1.504 -0.2007 -0.5439  0.0344
 1696TIP3    H126647   2.223   0.810   1.540 -1.3250 -0.0473  1.8295
 1696TIP3    H226648   2.133   0.931   1.554 -0.8040  0.8500 -1.6834
 1697TIP3   OH226649   6.293   3.722   1.690  0.0152 -0.0318  0.7378
 1697TIP3    H126650   6.259   3.725   1.779 -2.0881 -0.3049 -0.0073
 1697TIP3    H226651   6.312   3.814   1.669  2.2472 -0.1291  2.0266
 1698TIP3   OH226652   4.333   4.891   7.497 -0.1242 -0.1825  0.4036
 1698TIP3    H126653   4.276   4.965   7.474 -1.1010 -0.3709  2.0576
 1698TIP3    H226654   4.404   4.931   7.548  0.1118 -0.2108  0.0985
 1699TIP3   OH226655   0.105   5.767   1.960  0.6827 -0.2992 -0.3049
 1699TIP3    H126656   0.112   5.683   2.007  0.9815  0.3882  0.9356
 1699TIP3    H226657   0.195   5.799   1.955  0.9611 -1.2273 -3.1268
 1700TIP3   OH226658   6.520   4.646   2.598  0.7706 -0.9163  0.3389
 1700TIP3    H126659   6.454   4.716   2.587  2.0858  0.3761  0.3336
 1700TIP3    H226660   6.580   4.680   2.664  0.9447 -2.4633  1.0052
 1701TIP3   OH226661   5.132   4.667   7.845 -0.7769  0.1909  0.1618
 1701TIP3    H126662   5.047   4.624   7.837 -0.5406 -0.7382  2.0675
 1701TIP3    H226663   5.167   4.667   7.756 -2.3363 -0.2974 -0.4932
 1702TIP3   OH226664   5.059   4.781   2.665  0.0112  0.3790  0.5818
 1702TIP3    H126665   5.110   4.732   2.600  0.4154 -0.5330  1.5607
 1702TIP3    H226666   5.112   4.859   2.684 -0.3097  0.8754 -0.4694
 1703TIP3   OH226667   5.006   4.057   1.091 -0.0998  0.0069  0.4092
 1703TIP3    H126668   5.017   4.150   1.112 -0.6502  0.3472 -0.7262
 1703TIP3    H226669   4.926   4.054   1.039 -0.6666 -1.2643  1.3318
 1704TIP3   OH226670   3.848   0.376   7.832 -0.2199 -0.0305 -0.0784
 1704TIP3    H126671   3.899   0.442   7.786  0.8843 -0.0617  1.0398
 1704TIP3    H226672   3.869   0.294   7.786 -0.5298  0.1908 -0.6218
 1705TIP3   OH226673   3.611   6.224   2.127  0.4880 -0.4912  0.1716
 1705TIP3    H126674   3.615   6.145   2.181  1.5301 -1.6453 -1.4667
 1705TIP3    H226675   3.676   6.283   2.165 -0.3697 -0.3387  1.4753
 1706TIP3   OH226676   5.495   0.575   0.929 -0.6480  0.3208 -0.1454
 1706TIP3    H126677   5.504   0.614   0.842 -1.2039 -2.2418 -1.4653
 1706TIP3    H226678   5.584   0.552   0.955 -0.4953  0.9675 -0.0763
 1707TIP3   OH226679   3.742   2.771   0.653 -0.1155  0.0686  0.7709
 1707TIP3    H126680   3.679   2.769   0.581 -0.5555 -0.7976  1.1629
 1707TIP3    H226681   3.697   2.817   0.723 -0.5784 -1.1070  1.2707
 1708TIP3   OH226682   5.359   3.051   1.135  0.8411 -0.3258  0.8098
 1708TIP3    H126683   5.399   3.129   1.173 -1.4154  0.5763  1.4606
 1708TIP3    H226684   5.340   3.076   1.044  0.4878 -0.2577  0.9017
 1709TIP3   OH226685   2.643   1.906   1.645 -0.4342  0.6574  0.4299
 1709TIP3    H126686   2.720   1.855   1.668 -0.7916 -0.4608 -0.7263
 1709TIP3    H226687   2.657   1.991   1.687  1.1028  0.2619  0.7791
 1710TIP3   OH226688   4.100   1.908   0.827  0.2350  0.3444  0.0254
 1710TIP3    H126689   4.162   1.836   0.842 -0.9560 -1.0044 -1.2390
 1710TIP3    H226690   4.090   1.949   0.913  1.1378 -0.8519  0.7293
 1711TIP3   OH226691   4.210   1.819   0.018  0.4216  0.1011  0.3510
 1711TIP3    H126692   4.142   1.850  -0.041 -1.3752 -1.2574  1.6100
 1711TIP3    H226693   4.275   1.778  -0.040 -1.2211 -1.1087 -0.7415
 1712TIP3   OH226694   5.079   0.435   2.136 -0.6588  0.4397  0.3371
 1712TIP3    H126695   5.110   0.474   2.217  1.8108  0.4951 -0.5412
 1712TIP3    H226696   5.125   0.483   2.067 -1.1995 -0.8589 -0.9868
 1713TIP3   OH226697   6.183   0.315   0.168 -0.3471  0.4794 -0.8301
 1713TIP3    H126698   6.125   0.337   0.241 -0.5934 -0.2342 -0.8019
 1713TIP3    H226699   6.239   0.392   0.157  2.0054 -0.6216  2.3021
 1714TIP3   OH226700   0.258   1.408   0.902 -0.0973  0.2777 -0.3327
 1714TIP3    H126701   0.332   1.376   0.851 -0.5252  0.6868 -1.2325
 1714TIP3    H226702   0.181   1.371   0.860 -0.4121 -0.2436  0.6685
 1715TIP3   OH226703   5.463   4.097   8.435 -0.1854 -0.0656 -0.0717
 1715TIP3    H126704   5.522   4.071   8.364 -0.1389  0.8172 -0.3706
 1715TIP3    H226705   5.412   4.169   8.398 -2.0556 -1.3374 -0.1126
 1716TIP3   OH226706   4.955   0.780   7.745 -0.1797  0.5615 -0.4586
 1716TIP3    H126707   5.049   0.766   7.733 -0.2107 -1.1025  0.9406
 1716TIP3    H226708   4.921   0.788   7.656  1.1388  0.1443 -1.0262
 1717TIP3   OH226709   0.752   2.603   8.355  0.6563  0.2662  0.7381
 1717TIP3    H126710   0.712   2.564   8.433 -3.2706 -1.0718 -1.6608
 1717TIP3    H226711   0.748   2.697   8.370 -1.9368  0.1248  1.4470
 1718TIP3   OH226712   1.015   4.044   2.030  0.8048 -1.0742 -1.0476
 1718TIP3    H126713   1.090   4.018   1.977  0.0692 -2.1236 -1.5937
 1718TIP3    H226714   0.960   3.966   2.035  0.4129 -0.7497  0.5203
 1719TIP3   OH226715   2.097   4.624   0.680  0.0336  0.1943 -0.1616
 1719TIP3    H126716   2.184   4.647   0.649  0.6137 -1.0135  0.5054
 1719TIP3    H226717   2.099   4.639   0.775 -0.3381 -0.2226 -0.0764
 1720TIP3   OH226718   2.197   3.243   1.715  0.0446 -0.5087  0.0932
 1720TIP3    H126719   2.286   3.274   1.732  0.5628 -1.3703 -0.8778
 1720TIP3    H226720   2.172   3.196   1.794 -1.1803  3.0890  2.0614
 1721TIP3   OH226721   1.560   2.778   1.481  0.6300  0.1023  0.4003
 1721TIP3    H126722   1.482   2.738   1.520 -0.3065  0.6685 -0.7865
 1721TIP3    H226723   1.624   2.781   1.551 -0.4053 -0.4443  1.3985
 1722TIP3   OH226724   2.548   2.947   0.693 -0.1277 -0.1458 -0.1487
 1722TIP3    H126725   2.530   2.974   0.783  0.4668  1.4134 -0.4725
 1722TIP3    H226726   2.613   3.010   0.661  1.0988 -1.7999 -1.0647
 1723TIP3   OH226727   2.942   3.973   1.465  0.1389 -0.5279 -0.4657
 1723TIP3    H126728   3.004   3.925   1.410  1.6360  0.2326  0.4951
 1723TIP3    H226729   2.897   3.905   1.516  0.9944 -1.0240 -0.3563
 1724TIP3   OH226730   4.952   2.806   8.084  0.1878 -0.5523  0.1816
 1724TIP3    H126731   4.988   2.805   8.172 -0.5138  1.3814  0.5368
 1724TIP3    H226732   5.020   2.847   8.031 -0.4910  0.8850  0.3908
 1725TIP3   OH226733   3.169   2.973   1.021  0.4183 -0.1349 -0.3039
 1725TIP3    H126734   3.231   2.905   0.993 -0.7524 -1.6082  0.5744
 1725TIP3    H226735   3.125   2.936   1.097 -1.1326  1.1281 -0.5397
 1726TIP3   OH226736   4.900   5.378   7.550  0.0809 -0.0738  0.3397
 1726TIP3    H126737   4.864   5.323   7.480  0.6420 -2.4467  1.7996
 1726TIP3    H226738   4.849   5.356   7.627  0.6423  1.1506  1.1016
 1727TIP3   OH226739   2.333   2.306   8.293 -0.3869  0.1145 -0.4215
 1727TIP3    H126740   2.390   2.235   8.323 -1.0060 -0.0037  0.5216
 1727TIP3    H226741   2.244   2.275   8.310 -0.8396 -0.1850 -2.9202
 1728TIP3   OH226742   4.551   2.278   7.926 -0.0695  0.4875  0.4239
 1728TIP3    H126743   4.563   2.254   7.834 -0.0249 -0.1295  0.5874
 1728TIP3    H226744   4.562   2.373   7.928  2.4688  0.2712  0.1798
 1729TIP3   OH226745   5.381   0.783   8.108  0.2550 -0.7048 -0.3355
 1729TIP3    H126746   5.296   0.824   8.100  0.4632  0.4365  2.2702
 1729TIP3    H226747   5.362   0.695   8.140  0.0484 -0.1651  1.0824
 1730TIP3   OH226748   3.159   5.477   6.684 -0.4951  0.3113 -0.1747
 1730TIP3    H126749   3.198   5.565   6.687  0.3147  0.0275 -1.4464
 1730TIP3    H226750   3.096   5.476   6.756  0.0815  1.6477  0.3844
 1731TIP3   OH226751   5.987   5.163   8.331  0.1291  0.1657  0.3758
 1731TIP3    H126752   5.981   5.162   8.236 -1.0672  2.3043  0.3686
 1731TIP3    H226753   5.931   5.090   8.359 -0.9912  0.6315 -0.5477
 1732TIP3   OH226754   5.888   5.607   1.845  0.5842 -0.3659 -0.4944
 1732TIP3    H126755   5.941   5.608   1.924  1.0555 -2.1732 -0.7378
 1732TIP3    H226756   5.951   5.620   1.774  0.8506 -2.8962 -0.8113
 1733TIP3   OH226757   2.977   4.647   7.022 -0.0511 -0.3048 -0.0439
 1733TIP3    H126758   2.919   4.706   7.072  0.6336  0.2244  0.1361
 1733TIP3    H226759   3.061   4.693   7.019 -0.5312  0.6712 -3.3978
 1734TIP3   OH226760   2.112   6.763   7.625 -0.6747 -0.2189  0.3374
 1734TIP3    H126761   2.113   6.854   7.596  0.1287 -0.4129 -0.2611
 1734TIP3    H226762   2.196   6.727   7.596 -0.3998 -0.7920  1.7292
 1735TIP3   OH226763   1.920   1.541   0.121  0.2282  0.6084  0.4058
 1735TIP3    H126764   1.980   1.484   0.170  0.0473  0.9662  1.0616
 1735TIP3    H226765   1.949   1.535   0.030 -1.7357 -3.0589 -0.1583
 1736TIP3   OH226766   4.554   0.793   1.163 -0.0727 -0.0801 -0.3586
 1736TIP3    H126767   4.532   0.816   1.254  0.3183 -0.8981 -0.0520
 1736TIP3    H226768   4.589   0.705   1.169  1.7141  0.5423 -1.0580
 1737TIP3   OH226769   0.262   5.761   1.497 -0.2243 -0.3094  0.5550
 1737TIP3    H126770   0.307   5.695   1.444 -2.0641  1.3140 -3.4404
 1737TIP3    H226771   0.306   5.843   1.476  0.3006  0.2226  3.3408
 1738TIP3   OH226772   4.326   3.992   6.729 -0.0704 -1.1830 -0.5830
 1738TIP3    H126773   4.412   3.996   6.686 -0.2400  0.7266 -0.8175
 1738TIP3    H226774   4.342   4.024   6.817 -0.6063 -0.4300 -0.7564
 1739TIP3   OH226775   4.452   1.972   0.512  0.2562  0.6845 -0.0750
 1739TIP3    H126776   4.420   1.932   0.431  1.9828  0.8559 -0.8893
 1739TIP3    H226777   4.537   1.931   0.527  0.1828  1.0285  1.3922
 1740TIP3   OH226778   3.360   3.374   6.797  0.7333 -0.4912 -0.6279
 1740TIP3    H126779   3.338   3.454   6.845  0.7601 -1.4770  1.0906
 1740TIP3    H226780   3.384   3.404   6.709  0.9149  1.3863  0.0379
 1741TIP3   OH226781   5.680   6.593   1.699 -0.8068  0.4052 -0.3116
 1741TIP3    H126782   5.721   6.674   1.727  0.1924 -0.0888 -0.3057
 1741TIP3    H226783   5.711   6.580   1.609 -0.2218 -0.4246 -0.0046
 1742TIP3   OH226784   1.539   6.849   1.440  0.2305 -0.3257  0.0838
 1742TIP3    H126785   1.514   6.902   1.516 -1.2854 -0.1548 -0.5128
 1742TIP3    H226786   1.497   6.891   1.366  0.6076 -1.2572 -0.6774
 1743TIP3   OH226787   3.060   0.985   0.840  0.3554  0.2493 -0.5999
 1743TIP3    H126788   3.108   1.001   0.922 -0.3739  0.4703 -0.2100
 1743TIP3    H226789   3.007   0.908   0.858  0.0632  0.4012 -0.8059
 1744TIP3   OH226790   6.814   1.144   2.064  0.3314 -0.4374 -0.3834
 1744TIP3    H126791   6.794   1.165   2.155  1.0647  0.4972 -0.4223
 1744TIP3    H226792   6.903   1.176   2.051 -0.1512  0.4431 -1.7352
 1745TIP3   OH226793   2.349   1.614   7.748 -0.1904  0.7601  0.4843
 1745TIP3    H126794   2.408   1.550   7.708  0.7728  0.9998  1.4821
 1745TIP3    H226795   2.358   1.600   7.842 -3.4376 -0.7104  0.7022
 1746TIP3   OH226796   3.507   0.771   8.292 -0.1275  0.3339 -0.0004
 1746TIP3    H126797   3.435   0.780   8.355  0.4702 -0.2983  0.7971
 1746TIP3    H226798   3.538   0.681   8.304 -1.0983 -0.4189 -2.4223
 1747TIP3   OH226799   5.318   3.774   7.599  0.0005  0.5144  0.5184
 1747TIP3    H126800   5.314   3.800   7.507  1.3790 -0.3809  0.1755
 1747TIP3    H226801   5.243   3.715   7.610  0.0389  0.3250 -0.1453
 1748TIP3   OH226802   2.346   3.006   0.063  0.2593 -0.3344 -0.3067
 1748TIP3    H126803   2.418   2.954   0.098 -0.8714 -1.2989  0.7274
 1748TIP3    H226804   2.355   3.092   0.106  0.5955 -0.5569  0.0694
 1749TIP3   OH226805   1.181   2.355   8.441  0.0595 -0.1586  0.9329
 1749TIP3    H126806   1.142   2.436   8.408  0.9873 -0.5060 -1.1968
 1749TIP3    H226807   1.268   2.380   8.471  0.0811 -0.2456  0.9425
 1750TIP3   OH226808   4.515   5.024   7.718 -0.3686 -0.3782 -0.8559
 1750TIP3    H126809   4.544   4.933   7.708 -0.4723 -0.2548 -2.5897
 1750TIP3    H226810   4.481   5.028   7.807  0.6955 -1.7290 -0.3371
 1751TIP3   OH226811   4.994   4.416   2.012  0.1640 -0.3428  0.6666
 1751TIP3    H126812   5.014   4.474   1.939 -1.1316 -1.5245 -0.7029
 1751TIP3    H226813   4.909   4.446   2.045  0.0058 -0.7792  0.6651
 1752TIP3   OH226814   4.859   0.734   0.960  0.3423 -0.1548  0.5857
 1752TIP3    H126815   4.927   0.729   1.026 -0.0920 -0.3182  1.0264
 1752TIP3    H226816   4.815   0.649   0.963  1.0201 -0.5698 -0.6885
 1753TIP3   OH226817   3.167   6.413   8.299  0.4361 -0.5672  0.6599
 1753TIP3    H126818   3.196   6.456   8.219 -0.9915  2.4001  1.5887
 1753TIP3    H226819   3.155   6.484   8.362  1.7291 -2.7622  3.6514
 1754TIP3   OH226820   5.843   3.014   8.604 -0.1134  0.5508  0.1999
 1754TIP3    H126821   5.809   2.947   8.545  0.7309  0.3653 -0.0838
 1754TIP3    H226822   5.902   2.967   8.663  0.2520  0.9885  0.1901
 1755TIP3   OH226823   1.515   3.690   7.609 -0.2784  0.2891 -0.2008
 1755TIP3    H126824   1.467   3.761   7.565 -1.9919 -0.6916  0.0169
 1755TIP3    H226825   1.568   3.651   7.539  0.3958  1.5085 -0.4064
 1756TIP3   OH226826   1.376   2.504   1.097 -0.1293 -0.0848 -0.5921
 1756TIP3    H126827   1.378   2.559   1.019  0.1137  0.2132 -0.3785
 1756TIP3    H226828   1.368   2.566   1.170  0.7538 -0.2918 -0.3085
 1757TIP3   OH226829   2.512   5.418   8.040  0.4490  0.1309  0.0468
 1757TIP3    H126830   2.580   5.350   8.032  0.9469  0.8009 -1.9827
 1757TIP3    H226831   2.543   5.489   7.985 -0.7799  1.4491  0.9913
 1758TIP3   OH226832   5.651   5.791   2.773 -0.0220  0.2854  0.4462
 1758TIP3    H126833   5.671   5.855   2.842 -0.3821 -0.5873  1.3814
 1758TIP3    H226834   5.569   5.750   2.802 -0.1139 -0.1709 -0.4474
 1759TIP3   OH226835   4.505   3.238   2.004 -0.2732  0.3609  0.4173
 1759TIP3    H126836   4.426   3.212   2.051  0.1553 -1.8589  0.0184
 1759TIP3    H226837   4.576   3.190   2.046  0.8178  1.8635  0.3923
 1760TIP3   OH226838   1.980   2.273   0.593 -0.9312  0.6141 -0.3271
 1760TIP3    H126839   1.918   2.341   0.563 -1.9288 -0.0261  0.2482
 1760TIP3    H226840   1.972   2.273   0.688 -0.3467  0.2314 -0.2734
 1761TIP3   OH226841   2.665   5.894   2.142 -0.2585 -0.1938  0.8384
 1761TIP3    H126842   2.686   5.817   2.196 -0.0004 -1.9365 -1.5555
 1761TIP3    H226843   2.749   5.925   2.109 -0.4908  0.0995  0.5066
 1762TIP3   OH226844   1.811   4.699   8.356 -0.2168 -0.4060 -0.0976
 1762TIP3    H126845   1.789   4.784   8.317 -0.2900 -0.8547 -1.0747
 1762TIP3    H226846   1.904   4.706   8.378 -0.3369  0.0880  0.2568
 1763TIP3   OH226847   3.934   2.920   2.082 -0.1526 -0.7652 -0.3773
 1763TIP3    H126848   3.864   2.854   2.081 -0.9586  0.0516  0.5473
 1763TIP3    H226849   3.958   2.928   2.174 -0.7359  0.9024 -0.3342
 1764TIP3   OH226850   2.120   3.967   1.363  0.4290 -0.1118 -0.5934
 1764TIP3    H126851   2.064   3.894   1.389  0.8898 -0.5509 -0.8046
 1764TIP3    H226852   2.061   4.041   1.355 -0.0569 -0.4756 -0.4287
 1765TIP3   OH226853   3.165   6.308   0.863 -0.4051  0.4730  0.3186
 1765TIP3    H126854   3.126   6.298   0.949 -2.3357  1.6174 -0.3410
 1765TIP3    H226855   3.210   6.393   0.866  0.9000 -0.2071  0.6494
 1766TIP3   OH226856   1.353   2.602   0.838 -0.4297  0.1578  0.7518
 1766TIP3    H126857   1.352   2.688   0.879 -1.3512  0.0574  0.9757
 1766TIP3    H226858   1.270   2.597   0.791 -0.8579 -0.9852  1.5763
 1767TIP3   OH226859   1.961   4.819   1.509 -0.0351  0.3310  0.7669
 1767TIP3    H126860   1.955   4.914   1.498 -0.0043  0.3190  0.6514
 1767TIP3    H226861   1.882   4.796   1.558  0.9429  0.6855  2.5786
 1768TIP3   OH226862   3.260   3.847   6.710  0.5328  0.0291  0.4316
 1768TIP3    H126863   3.272   3.759   6.746  0.7235  0.5195  1.6068
 1768TIP3    H226864   3.339   3.863   6.659  1.0236 -0.0517  1.1503
 1769TIP3   OH226865   0.417   1.149   2.097 -0.1328 -0.2476 -0.5540
 1769TIP3    H126866   0.411   1.218   2.163 -0.8494  0.9723 -1.8608
 1769TIP3    H226867   0.486   1.091   2.130 -1.4075 -0.4734  1.9751
 1770TIP3   OH226868   4.520   0.643   7.616 -0.4653 -0.6063  0.3270
 1770TIP3    H126869   4.539   0.704   7.687  0.1739 -1.4991  0.9418
 1770TIP3    H226870   4.511   0.699   7.539 -0.3981  0.3092  0.9592
 1771TIP3   OH226871   2.250   3.567   0.091  0.2197  0.3796  0.2454
 1771TIP3    H126872   2.281   3.550   0.180  0.2852 -0.8555  0.0083
 1771TIP3    H226873   2.237   3.480   0.053 -0.9812  0.8755 -0.5536
 1772TIP3   OH226874   5.267   4.157   1.477 -0.0002  0.6918  0.1646
 1772TIP3    H126875   5.264   4.147   1.382 -1.0450  2.9974 -0.0974
 1772TIP3    H226876   5.357   4.134   1.501 -0.2634 -1.9269 -1.0676
 1773TIP3   OH226877   5.721   0.730   6.868 -0.5800  0.4793 -0.0877
 1773TIP3    H126878   5.781   0.686   6.928 -0.9761 -0.5476 -0.4180
 1773TIP3    H226879   5.648   0.669   6.858 -0.8963  0.9799 -0.9795
 1774TIP3   OH226880   3.719   0.871   1.650  0.1428 -0.0756  0.0022
 1774TIP3    H126881   3.741   0.924   1.573 -1.4296 -1.7314 -1.6767
 1774TIP3    H226882   3.627   0.890   1.666  0.0743 -0.8534  0.5829
 1775TIP3   OH226883   1.636   3.242   7.396 -0.1532 -0.0416  0.2155
 1775TIP3    H126884   1.711   3.218   7.451  0.1140 -0.9871 -0.5279
 1775TIP3    H226885   1.613   3.161   7.351 -0.7078  0.5822 -0.6537
 1776TIP3   OH226886   0.277   3.083   8.282  0.0811 -0.1519 -0.0305
 1776TIP3    H126887   0.344   3.124   8.336  0.1855  0.1001 -0.3484
 1776TIP3    H226888   0.232   3.156   8.239 -0.1888 -0.3342 -0.0631
 1777TIP3   OH226889   3.149   1.116   8.609  0.0150  0.5701  0.1856
 1777TIP3    H126890   3.101   1.076   8.681 -3.5939  0.6680 -1.9567
 1777TIP3    H226891   3.165   1.206   8.638 -0.7321  0.4134  1.1164
 1778TIP3   OH226892   6.666   6.283   6.892 -0.0207 -0.3547 -0.5452
 1778TIP3    H126893   6.679   6.362   6.839 -0.8246  0.4737  0.4434
 1778TIP3    H226894   6.734   6.223   6.862  2.5160  1.7146  0.6332
 1779TIP3   OH226895   1.123   4.513   6.711 -0.8738 -0.2932  0.2611
 1779TIP3    H126896   1.048   4.480   6.762 -2.4778  0.9861 -1.1662
 1779TIP3    H226897   1.086   4.581   6.655  1.6326  1.3307  0.4333
 1780TIP3   OH226898   5.223   3.507   7.561 -0.0370  0.1939 -0.1719
 1780TIP3    H126899   5.145   3.452   7.565  0.7112 -0.9300 -0.3751
 1780TIP3    H226900   5.256   3.496   7.472  0.1251  1.0019 -0.2252
 1781TIP3   OH226901   0.892   1.262   6.711 -0.1389 -0.2320  0.3631
 1781TIP3    H126902   0.901   1.340   6.764 -0.8115  0.8340 -1.0311
 1781TIP3    H226903   0.951   1.275   6.637 -2.3365  0.3373 -1.3950
 1782TIP3   OH226904   0.437   1.384   2.296 -0.5489  0.7339 -0.1506
 1782TIP3    H126905   0.523   1.415   2.268 -0.8001  2.5277  0.9002
 1782TIP3    H226906   0.448   1.366   2.390 -0.7486 -1.3338 -0.4651
 1783TIP3   OH226907   5.584   1.874   1.061 -0.0706 -0.5315  0.2691
 1783TIP3    H126908   5.614   1.805   1.120  0.6463 -0.0392  0.5026
 1783TIP3    H226909   5.521   1.924   1.112 -0.3290 -0.8091  0.2189
 1784TIP3   OH226910   5.943   2.897   2.585 -0.2811 -0.3407  0.4561
 1784TIP3    H126911   5.872   2.946   2.545  0.0913  0.4329  0.7266
 1784TIP3    H226912   6.011   2.962   2.604 -0.5880 -0.5778  2.6665
 1785TIP3   OH226913   2.239   2.926   2.386  0.1088  0.4331 -0.4513
 1785TIP3    H126914   2.191   2.992   2.436 -1.3927 -0.2747 -0.9011
 1785TIP3    H226915   2.249   2.964   2.299 -2.3662 -0.5697 -1.2612
 1786TIP3   OH226916   2.639   2.963   7.849 -0.0078 -0.4651 -0.1128
 1786TIP3    H126917   2.624   2.882   7.898  2.5116 -1.3900 -0.7191
 1786TIP3    H226918   2.668   2.934   7.763  0.2150  1.1147 -0.6067
 1787TIP3   OH226919   6.455   0.667   1.710 -0.4617  0.1679  0.2184
 1787TIP3    H126920   6.443   0.606   1.637  0.2217 -0.7528  0.8683
 1787TIP3    H226921   6.510   0.621   1.773  0.5783  1.6594  0.4721
 1788TIP3   OH226922   1.798   5.040   1.664 -0.2207 -0.5248  0.2909
 1788TIP3    H126923   1.736   5.085   1.720 -0.7142 -1.8976  0.8849
 1788TIP3    H226924   1.858   4.997   1.725 -0.1528 -1.1943 -0.2421
 1789TIP3   OH226925   4.398   6.622   8.088  0.5680 -0.1865 -0.6261
 1789TIP3    H126926   4.486   6.660   8.094 -0.1059  1.6950 -1.6712
 1789TIP3    H226927   4.383   6.582   8.173  1.6068  1.3943  0.3548
 1790TIP3   OH226928   5.205   3.538   1.583  0.2197 -0.3785 -0.1349
 1790TIP3    H126929   5.227   3.603   1.515 -0.4065  0.6040  0.5837
 1790TIP3    H226930   5.260   3.562   1.657 -0.2396 -0.4892  0.2420
 1791TIP3   OH226931   0.738   5.197   7.676 -0.7300 -0.2226  0.5037
 1791TIP3    H126932   0.694   5.149   7.746 -0.2771 -0.4425  0.6453
 1791TIP3    H226933   0.678   5.192   7.602 -1.7560  1.0325  1.2133
 1792TIP3   OH226934   6.558   1.622   8.015 -0.2573 -0.2128  0.2477
 1792TIP3    H126935   6.583   1.569   8.090  1.4005 -2.8833 -1.9902
 1792TIP3    H226936   6.517   1.561   7.954 -1.6414  1.8492 -1.0394
 1793TIP3   OH226937   0.228   0.130   7.816  0.0668  0.1435 -0.1950
 1793TIP3    H126938   0.150   0.175   7.849 -0.8036  0.3008 -2.3161
 1793TIP3    H226939   0.294   0.142   7.885 -1.5870  0.5174  1.3832
 1794TIP3   OH226940   2.742   2.843   6.999  0.1946  0.3990 -0.5098
 1794TIP3    H126941   2.673   2.866   6.937  1.6556 -0.2583 -2.4968
 1794TIP3    H226942   2.806   2.795   6.946  1.5249 -0.1920  1.5388
 1795TIP3   OH226943   0.105   6.384   6.917  0.1101  0.1335 -0.4450
 1795TIP3    H126944   0.194   6.352   6.935 -0.5293 -1.2630  0.4029
 1795TIP3    H226945   0.101   6.391   6.821  0.8852 -0.5675 -0.5393
 1796TIP3   OH226946   6.410   1.978   8.576 -0.6422 -0.0193  0.8612
 1796TIP3    H126947   6.459   1.977   8.659  0.0258  2.0783  0.5454
 1796TIP3    H226948   6.374   2.066   8.571 -2.7052 -0.8635  0.0332
 1797TIP3   OH226949   6.339   5.866   2.035 -1.1217  0.5649 -0.7705
 1797TIP3    H126950   6.312   5.807   1.965  0.1371  0.1966 -0.9670
 1797TIP3    H226951   6.354   5.809   2.111 -1.1457  0.7906 -0.5945
 1798TIP3   OH226952   0.484   0.202   7.383 -0.4782 -0.0128  0.2570
 1798TIP3    H126953   0.514   0.287   7.349  0.5576  0.5667  2.3925
 1798TIP3    H226954   0.532   0.137   7.333  0.8351  0.7801  0.4456
 1799TIP3   OH226955   5.170   0.668   8.329  0.3711 -0.0012 -0.1292
 1799TIP3    H126956   5.241   0.633   8.276  1.8568  0.0437  1.7124
 1799TIP3    H226957   5.140   0.593   8.381 -1.7612 -0.3060 -1.6423
 1800TIP3   OH226958   6.448   5.479   7.918  0.2878  0.5285  0.1799
 1800TIP3    H126959   6.446   5.518   7.831  1.5407 -1.0850 -0.6137
 1800TIP3    H226960   6.356   5.478   7.945 -0.1433  0.9061 -1.1830
 1801TIP3   OH226961   2.402   3.606   2.241 -1.0876 -0.0853 -0.5985
 1801TIP3    H126962   2.373   3.695   2.263  0.7449  0.6483 -0.9551
 1801TIP3    H226963   2.430   3.568   2.324 -1.1443 -0.0545 -0.5649
 1802TIP3   OH226964   3.892   4.837   6.953  0.5972  0.0379 -0.3879
 1802TIP3    H126965   3.807   4.796   6.970  0.9255 -0.1201  1.0585
 1802TIP3    H226966   3.951   4.763   6.936  0.7717  0.0256  0.2360
 1803TIP3   OH226967   6.522   3.123   6.849 -0.3830  0.2391 -0.7028
 1803TIP3    H126968   6.561   3.045   6.810  0.1745  0.3796 -0.4441
 1803TIP3    H226969   6.444   3.091   6.895 -0.4336 -0.0852 -1.0079
 1804TIP3   OH226970   5.144   0.426   8.444 -0.5647 -0.1443 -0.9305
 1804TIP3    H126971   5.205   0.397   8.513  0.6446  1.8278 -1.0897
 1804TIP3    H226972   5.150   0.358   8.377 -1.3265 -1.8202  0.5930
 1805TIP3   OH226973   3.121   1.049   1.918 -0.5407 -0.1954 -0.5324
 1805TIP3    H126974   3.030   1.019   1.926 -0.6148 -0.4260 -2.0050
 1805TIP3    H226975   3.170   0.992   1.978 -1.2822 -0.4089 -0.1132
 1806TIP3   OH226976   1.808   1.330   6.792  0.3212  0.1369 -0.0534
 1806TIP3    H126977   1.799   1.402   6.729  0.9748  0.6033  0.3808
 1806TIP3    H226978   1.788   1.252   6.741  0.7045  0.5237 -0.8139
 1807TIP3   OH226979   3.342   4.338   7.709  0.0497  0.0535 -0.2793
 1807TIP3    H126980   3.412   4.392   7.674  1.0110 -0.5766  0.6032
 1807TIP3    H226981   3.386   4.280   7.771 -1.0985 -1.0450 -0.4582
 1808TIP3   OH226982   0.587   2.033   7.875 -0.3995 -0.0124 -0.2295
 1808TIP3    H126983   0.615   1.948   7.908  0.9591  0.3624 -0.3285
 1808TIP3    H226984   0.510   2.055   7.927 -0.8522 -1.3418 -0.2894
 1809TIP3   OH226985   5.827   4.906   7.705 -0.0310 -0.0140 -0.3198
 1809TIP3    H126986   5.788   4.818   7.701 -0.6901  0.2542  0.0291
 1809TIP3    H226987   5.759   4.960   7.744  0.4459  0.6174 -0.3546
 1810TIP3   OH226988   1.560   4.720   0.508  0.4046 -0.2299  0.6198
 1810TIP3    H126989   1.589   4.631   0.530 -0.2530 -1.0325 -1.5209
 1810TIP3    H226990   1.493   4.707   0.441  1.5588  1.9338 -1.0834
 1811TIP3   OH226991   4.393   5.748   8.064 -0.3044  0.2150  0.0573
 1811TIP3    H126992   4.455   5.790   8.004 -0.3012 -0.2173 -0.2489
 1811TIP3    H226993   4.323   5.716   8.007 -1.0132  1.0470  0.4458
 1812TIP3   OH226994   5.726   2.367   1.809 -0.0410  0.0036  0.0618
 1812TIP3    H126995   5.705   2.459   1.821 -0.1313  0.8241 -4.4132
 1812TIP3    H226996   5.643   2.327   1.782  0.0165 -1.4663  1.8706
 1813TIP3   OH226997   0.014   4.627   7.405  0.3424 -0.2053  0.5285
 1813TIP3    H126998   0.042   4.535   7.396 -0.4401 -0.3359 -0.7981
 1813TIP3    H226999  -0.036   4.645   7.325 -1.7039  0.6187  1.9126
 1814TIP3   OH227000   6.518   2.322   0.890  0.1725 -0.0794  0.2539
 1814TIP3    H127001   6.549   2.300   0.978 -0.9593 -1.7392  0.2662
 1814TIP3    H227002   6.563   2.260   0.833 -1.4139 -1.0604  0.0333
 1815TIP3   OH227003   1.206   3.784   6.711 -0.2094 -0.4766  0.2180
 1815TIP3    H127004   1.297   3.803   6.686 -0.6471  0.2050 -0.8923
 1815TIP3    H227005   1.193   3.693   6.684  0.4640 -0.9493  1.3834
 1816TIP3   OH227006   3.696   1.558   8.090 -0.1378  0.0512 -0.1034
 1816TIP3    H127007   3.774   1.564   8.035 -0.3534  0.8019 -0.3357
 1816TIP3    H227008   3.693   1.641   8.138  0.0981 -0.6241  1.1321
 1817TIP3   OH227009   5.573   6.100   6.802  0.1144 -0.0315  0.2504
 1817TIP3    H127010   5.576   6.137   6.891 -0.7441 -0.5357  0.5023
 1817TIP3    H227011   5.487   6.060   6.796 -0.5612  1.5507 -1.4698
 1818TIP3   OH227012   2.397   4.900   1.912 -0.3098  0.6012  0.3711
 1818TIP3    H127013   2.434   4.952   1.983 -0.2785 -0.2343  0.9882
 1818TIP3    H227014   2.415   4.809   1.937 -0.4961  0.2811 -0.5989
 1819TIP3   OH227015   2.476   6.636   7.105  0.3178 -0.5816 -0.5993
 1819TIP3    H127016   2.451   6.692   7.179 -0.3183 -0.3975 -0.9466
 1819TIP3    H227017   2.502   6.697   7.037 -1.0253 -0.6566 -1.2163
 1820TIP3   OH227018   2.510   6.425   7.703  0.3683  0.0106  1.2901
 1820TIP3    H127019   2.594   6.385   7.680  0.2996  0.6144 -0.1665
 1820TIP3    H227020   2.449   6.352   7.711  0.7066 -0.3343  0.8002
 1821TIP3   OH227021   5.124   5.246   2.211 -0.0267  0.5671  0.3013
 1821TIP3    H127022   5.192   5.284   2.156  0.0521  1.3099  0.8987
 1821TIP3    H227023   5.089   5.320   2.261  0.2671 -0.1572  1.6314
 1822TIP3   OH227024   3.307   1.897   8.088  0.1942  0.3794 -0.6632
 1822TIP3    H127025   3.299   1.802   8.078 -0.6446  0.1114  1.7494
 1822TIP3    H227026   3.400   1.910   8.109  0.4672  0.2057 -1.7058
 1823TIP3   OH227027   2.217   4.974   1.711 -0.3296 -0.1180 -0.3000
 1823TIP3    H127028   2.278   4.960   1.784 -0.5344  1.9663  0.3141
 1823TIP3    H227029   2.251   4.917   1.642  1.8821  0.3557  0.2876
 1824TIP3   OH227030   4.049   1.718   0.221 -0.0919 -0.3510 -0.2133
 1824TIP3    H127031   4.044   1.625   0.197  1.4639 -0.6748  0.5781
 1824TIP3    H227032   4.110   1.756   0.157  1.0098 -0.3734  0.8013
 1825TIP3   OH227033   3.681   5.857   8.069  0.0735 -0.3083 -0.4171
 1825TIP3    H127034   3.669   5.775   8.021 -1.5576  0.1812 -0.9024
 1825TIP3    H227035   3.719   5.917   8.005  3.0408 -1.1095  0.4130
 1826TIP3   OH227036   1.974   5.775   7.407  0.3358  0.0238  0.5961
 1826TIP3    H127037   2.022   5.694   7.388 -2.0868 -1.0239 -1.6806
 1826TIP3    H227038   1.979   5.826   7.327 -1.3100  0.3855  0.6820
 1827TIP3   OH227039   3.414   6.614   7.324 -0.3115  0.4979  0.5712
 1827TIP3    H127040   3.454   6.681   7.268  0.8074  0.9617  1.8629
 1827TIP3    H227041   3.329   6.650   7.347 -2.2409 -1.0325 -3.2071
 1828TIP3   OH227042   1.135   2.112   7.761 -0.4014  0.3688  0.1233
 1828TIP3    H127043   1.069   2.058   7.805 -1.2494  0.5733 -0.8389
 1828TIP3    H227044   1.102   2.202   7.770  0.6232  0.6639  1.0871
 1829TIP3   OH227045   1.690   1.596   1.613  0.2618 -0.4330  0.3226
 1829TIP3    H127046   1.751   1.543   1.562 -0.4544 -1.7626  0.7933
 1829TIP3    H227047   1.744   1.641   1.678  0.7969 -1.3424  0.5248
 1830TIP3   OH227048   4.848   2.341   7.766  0.5425 -0.3099  0.3423
 1830TIP3    H127049   4.830   2.409   7.700 -0.1857 -0.7050  0.1189
 1830TIP3    H227050   4.926   2.296   7.733  0.2154 -0.4689 -0.2385
 1831TIP3   OH227051   1.433   2.003   7.247 -0.5214 -0.0233 -0.2109
 1831TIP3    H127052   1.343   2.035   7.241 -0.5274 -0.2194 -1.5135
 1831TIP3    H227053   1.441   1.970   7.336 -2.0468 -0.8806 -0.3523
 1832TIP3   OH227054   3.837   0.703   8.078  0.5440  0.5736 -0.8549
 1832TIP3    H127055   3.820   0.755   8.157  2.8715  0.7733 -0.3920
 1832TIP3    H227056   3.762   0.644   8.071  0.5734  0.0524  1.9371
 1833TIP3   OH227057   6.233   3.510   7.582 -0.2599  0.1541  0.2326
 1833TIP3    H127058   6.311   3.564   7.567 -1.6911  2.1078 -0.5982
 1833TIP3    H227059   6.183   3.558   7.648 -0.0138 -1.9755  2.1000
 1834TIP3   OH227060   5.635   6.113   0.624  0.1613  0.0650  0.0943
 1834TIP3    H127061   5.555   6.156   0.591  0.8234  1.4259  0.1767
 1834TIP3    H227062   5.632   6.025   0.586 -1.5130 -0.0118  0.3257
 1835TIP3   OH227063   5.458   6.036   8.215 -0.2674  0.2119  0.1824
 1835TIP3    H127064   5.434   6.124   8.244  0.4670  0.9859 -1.4339
 1835TIP3    H227065   5.382   5.982   8.238 -0.4049  1.0655  1.9382
 1836TIP3   OH227066   3.872   2.334   7.241  0.1657  0.4533  0.2248
 1836TIP3    H127067   3.833   2.370   7.162 -0.3271  1.3786  0.8812
 1836TIP3    H227068   3.882   2.240   7.222  1.1007  0.8314 -1.3496
 1837TIP3   OH227069   6.322   1.655   0.912 -0.1105  0.6763  0.5974
 1837TIP3    H127070   6.409   1.689   0.935  0.4915  0.0802 -0.7386
 1837TIP3    H227071   6.315   1.572   0.959  0.8433 -0.2086 -0.7517
 1838TIP3   OH227072   1.096   5.657   2.411 -0.3571 -0.6883 -0.1082
 1838TIP3    H127073   1.064   5.609   2.487 -0.3569 -0.8616 -0.2174
 1838TIP3    H227074   1.076   5.749   2.431 -1.4801 -0.8385 -0.4375
 1839TIP3   OH227075   5.594   2.567   6.600 -0.2908  0.2597  0.3828
 1839TIP3    H127076   5.543   2.554   6.520 -1.7111  4.7124  0.2400
 1839TIP3    H227077   5.576   2.490   6.654  1.2871 -3.3018 -3.6584
 1840TIP3   OH227078   1.639   6.521   7.109  0.1832 -0.0354 -0.4342
 1840TIP3    H127079   1.666   6.583   7.041  0.6667  0.3322  0.0807
 1840TIP3    H227080   1.590   6.575   7.172  3.6369  0.6990  1.9143
 1841TIP3   OH227081   5.241   5.519   6.851 -0.6658 -0.2485  0.1707
 1841TIP3    H127082   5.270   5.435   6.886 -0.0549 -0.3826 -0.6073
 1841TIP3    H227083   5.180   5.496   6.780 -0.3129 -0.0506 -0.2033
 1842TIP3   OH227084   0.412   1.054   2.442  0.4898  0.0816 -0.2362
 1842TIP3    H127085   0.455   1.036   2.358 -2.3959 -1.5615 -1.4809
 1842TIP3    H227086   0.394   0.968   2.480  0.4729  0.7740  1.4197
 1843TIP3   OH227087   5.097   1.485   8.120 -0.0759 -0.1028 -0.1541
 1843TIP3    H127088   5.078   1.471   8.027  1.4174  1.4623 -0.7423
 1843TIP3    H227089   5.039   1.557   8.146 -1.3791 -1.3311  0.5073
 1844TIP3   OH227090   4.006   1.945   8.099 -0.3076 -0.0506  0.1171
 1844TIP3    H127091   4.070   2.000   8.053 -0.3795  0.2453  0.3673
 1844TIP3    H227092   3.922   1.989   8.085 -0.7377 -1.3505 -1.6544
 1845TIP3   OH227093   6.864   0.606   0.137  0.2075  0.2825 -0.5531
 1845TIP3    H127094   6.956   0.619   0.115  0.3383  0.2730 -0.0183
 1845TIP3    H227095   6.821   0.592   0.052  0.5035  1.4338 -0.9045
 1846TIP3   OH227096   5.213   2.180   8.358  0.5273  0.4805  0.5609
 1846TIP3    H127097   5.286   2.206   8.301 -0.6009 -0.6109 -1.4995
 1846TIP3    H227098   5.219   2.085   8.362 -0.8050  0.3643  0.2833
 1847TIP3   OH227099   1.623   6.597   1.922 -0.1782 -0.1631  0.4571
 1847TIP3    H127100   1.549   6.640   1.966 -0.8594 -0.4932 -0.3332
 1847TIP3    H227101   1.694   6.602   1.986 -1.4177 -1.5846  2.0689
 1848TIP3   OH227102   6.516   0.517   2.638  0.6578  0.6778 -0.0744
 1848TIP3    H127103   6.534   0.587   2.574 -1.9405  1.0234 -0.5460
 1848TIP3    H227104   6.560   0.440   2.602  2.0349  1.6070 -0.5000
 1849TIP3   OH227105   2.398   0.620   1.840 -0.3399 -0.0372  0.0385
 1849TIP3    H127106   2.449   0.570   1.776 -0.3834  1.4620 -1.2164
 1849TIP3    H227107   2.307   0.601   1.817 -0.3548  0.4660 -0.3509
 1850TIP3   OH227108   0.055   5.196   2.546  0.1454 -0.5361 -0.0334
 1850TIP3    H127109  -0.019   5.149   2.583 -1.4797  0.7097 -1.5548
 1850TIP3    H227110   0.054   5.281   2.589  0.2415 -0.2559 -0.5749
 1851TIP3   OH227111   3.733   5.730   8.568  0.1791  0.1485 -0.5357
 1851TIP3    H127112   3.692   5.648   8.594 -1.4909  1.3864  1.0522
 1851TIP3    H227113   3.725   5.732   8.472 -1.7910 -0.5546 -0.4291
 1852TIP3   OH227114   1.192   4.683   2.167 -0.8149 -0.3016  0.5079
 1852TIP3    H127115   1.281   4.714   2.149 -0.6409  0.8927  2.9341
 1852TIP3    H227116   1.198   4.642   2.254 -2.5558 -0.4589  0.5868
 1853TIP3   OH227117   0.214   0.055   1.299 -0.5765 -0.0374  0.2099
 1853TIP3    H127118   0.292   0.086   1.346 -0.9516  0.8486  0.2678
 1853TIP3    H227119   0.155   0.027   1.369 -0.5077 -0.2218  0.1927
 1854TIP3   OH227120   6.237   6.515   0.226  0.5136 -0.0590 -0.0109
 1854TIP3    H127121   6.255   6.596   0.179 -0.1687 -0.2419 -0.6118
 1854TIP3    H227122   6.245   6.446   0.160  0.3438 -0.4006  0.3218
 1855TIP3   OH227123   3.158   5.229   0.422 -0.2758 -0.2461 -0.1629
 1855TIP3    H127124   3.086   5.292   0.422  0.7200  0.9107  0.0252
 1855TIP3    H227125   3.117   5.147   0.393 -1.4355  0.6555 -1.2018
 1856TIP3   OH227126   0.157   1.650   0.802  0.4062  0.2738 -0.1465
 1856TIP3    H127127   0.181   1.571   0.849  1.7554  1.0235  0.4744
 1856TIP3    H227128   0.157   1.719   0.869 -0.0517  0.9258 -0.8002
 1857TIP3   OH227129   1.181   1.504   0.312 -0.1716  0.0973  0.5390
 1857TIP3    H127130   1.162   1.591   0.279 -0.5423 -0.6691 -1.3978
 1857TIP3    H227131   1.269   1.484   0.280 -0.1005 -0.2625  0.9399
 1858TIP3   OH227132   1.570   6.272   7.153 -0.1829  0.2825 -0.3635
 1858TIP3    H127133   1.600   6.359   7.126  0.8830 -0.1881 -0.7744
 1858TIP3    H227134   1.552   6.226   7.071 -0.7672  0.1256 -0.1466
 1859TIP3   OH227135   2.886   1.960   7.167 -0.0267  0.0236 -0.7315
 1859TIP3    H127136   2.821   1.901   7.204 -0.4400  0.1893 -1.1853
 1859TIP3    H227137   2.941   1.985   7.242 -0.6063  0.0441 -0.3044
 1860TIP3   OH227138   1.358   1.331   1.409 -0.3879  0.3980  0.0300
 1860TIP3    H127139   1.442   1.300   1.442 -0.0572 -0.5868 -1.5741
 1860TIP3    H227140   1.332   1.400   1.469  1.9214  1.2413  0.1702
 1861TIP3   OH227141   2.519   0.168   0.903  0.1598 -0.0747  0.3546
 1861TIP3    H127142   2.561   0.202   0.982  0.7755  0.7215 -0.2924
 1861TIP3    H227143   2.584   0.110   0.864  1.9271  3.1946 -2.0791
 1862TIP3   OH227144   4.562   6.664   6.789  0.4230 -0.3296  0.1525
 1862TIP3    H127145   4.649   6.699   6.809  0.2150  0.8237 -0.8423
 1862TIP3    H227146   4.569   6.570   6.805  1.9050 -0.2788 -0.0841
 1863TIP3   OH227147   3.412   1.112   0.932  0.5450 -0.2011 -0.3561
 1863TIP3    H127148   3.394   1.063   0.853  0.0981  1.1316 -1.1124
 1863TIP3    H227149   3.327   1.120   0.975  0.3413  1.0488 -0.9401
 1864TIP3   OH227150   6.439   5.327   0.275  0.6939 -0.7429 -0.6241
 1864TIP3    H127151   6.404   5.252   0.228 -2.9342  0.5961 -0.3223
 1864TIP3    H227152   6.491   5.289   0.346 -0.3841 -2.9388 -0.9402
 1865TIP3   OH227153   6.383   2.906   7.267 -0.2246  0.3837 -0.2790
 1865TIP3    H127154   6.369   2.991   7.227 -2.6986  0.1357 -0.0945
 1865TIP3    H227155   6.341   2.844   7.208 -0.0981 -0.4936  0.5217
 1866TIP3   OH227156   4.080   0.308   0.243  0.0003 -0.7890 -0.3598
 1866TIP3    H127157   4.129   0.342   0.168  0.3048  0.5003  0.3850
 1866TIP3    H227158   3.994   0.284   0.207  0.3568 -0.7937 -1.2286
 1867TIP3   OH227159   4.913   1.752   1.961  0.0595  0.0056 -0.6530
 1867TIP3    H127160   4.919   1.705   2.045  0.8631  0.5592 -0.3835
 1867TIP3    H227161   5.003   1.777   1.942 -0.3867  1.8381 -0.5474
 1868TIP3   OH227162   5.280   0.049   7.712  0.4174  0.3726  0.2697
 1868TIP3    H127163   5.250   0.132   7.675 -2.6763 -1.4711 -1.7845
 1868TIP3    H227164   5.253   0.053   7.803 -0.5294  1.2593 -0.0282
 1869TIP3   OH227165   1.139   3.862   1.885  0.3869 -0.2453 -0.1200
 1869TIP3    H127166   1.105   3.820   1.806  0.8090 -0.6178 -0.1045
 1869TIP3    H227167   1.111   3.806   1.956  0.4139 -0.1654 -0.0460
 1870TIP3   OH227168   5.652   4.029   8.237 -0.0006 -0.2903  0.3428
 1870TIP3    H127169   5.705   4.007   8.314 -0.1036 -0.5525  0.3406
 1870TIP3    H227170   5.644   3.946   8.190  0.1847 -0.0980 -0.0254
 1871TIP3   OH227171   6.429   1.259   1.747  0.4973  0.0432  0.1854
 1871TIP3    H127172   6.480   1.266   1.828  0.2563 -1.7626  0.5250
 1871TIP3    H227173   6.494   1.256   1.678  1.0846 -3.6090  0.6892
 1872TIP3   OH227174   3.160   6.779   1.590 -0.1904 -0.1258  0.2830
 1872TIP3    H127175   3.164   6.795   1.496 -0.3943 -1.4333  0.0285
 1872TIP3    H227176   3.240   6.818   1.625  0.2069 -0.2005 -0.5224
 1873TIP3   OH227177   1.499   1.981   1.046 -0.2581  0.0088  0.4919
 1873TIP3    H127178   1.555   1.949   0.975  0.5240 -1.1365  1.5962
 1873TIP3    H227179   1.505   2.076   1.039  2.9038 -0.0138  1.3215
 1874TIP3   OH227180   1.109   3.326   2.685  0.0383 -0.3665  0.1892
 1874TIP3    H127181   1.056   3.294   2.758  2.2801 -4.3476  0.3555
 1874TIP3    H227182   1.047   3.374   2.630 -2.8663 -1.5108  2.1839
 1875TIP3   OH227183   6.312   0.148   1.395 -0.4122  0.4894 -0.3168
 1875TIP3    H127184   6.349   0.115   1.477 -2.3283 -0.9956  0.0197
 1875TIP3    H227185   6.265   0.227   1.421  1.2311  1.6001 -0.5194
 1876TIP3   OH227186   2.090   6.608   0.901  0.2030  0.3359  0.0166
 1876TIP3    H127187   2.180   6.606   0.934  0.0809 -3.1489  0.5636
 1876TIP3    H227188   2.098   6.588   0.807  0.0318 -0.2042  0.1099
 1877TIP3   OH227189   5.278   0.738   2.284  0.9375 -0.3519  0.2414
 1877TIP3    H127190   5.196   0.776   2.254  1.3751  0.5419  0.1441
 1877TIP3    H227191   5.252   0.663   2.337  0.0777 -0.3682 -0.1839
 1878TIP3   OH227192   3.095   4.681   1.428  0.4412  0.4115  0.1999
 1878TIP3    H127193   3.165   4.672   1.492  0.3971 -0.0180  0.1870
 1878TIP3    H227194   3.125   4.630   1.352  0.1798  0.3451  0.1402
 1879TIP3   OH227195   3.013   3.891   7.519  0.1835 -0.5714 -0.2625
 1879TIP3    H127196   3.085   3.848   7.473 -0.8397 -0.2064 -2.3292
 1879TIP3    H227197   2.985   3.961   7.460 -0.1633  0.9964  1.6680
 1880TIP3   OH227198   5.656   5.309   7.453  0.3972  0.4020 -0.1007
 1880TIP3    H127199   5.583   5.326   7.511 -1.0231  2.2530 -2.2940
 1880TIP3    H227200   5.724   5.370   7.481  0.4310  0.0096  0.7160
 1881TIP3   OH227201   1.693   5.865   7.221  0.6309  0.3637  0.3189
 1881TIP3    H127202   1.750   5.790   7.204 -0.2511 -0.2382 -0.1065
 1881TIP3    H227203   1.620   5.853   7.160  0.2731  1.3552  0.5340
 1882TIP3   OH227204   3.288   0.617   0.391 -0.6844 -0.1758 -0.4994
 1882TIP3    H127205   3.279   0.522   0.403 -1.8709 -0.1617 -1.1653
 1882TIP3    H227206   3.289   0.652   0.480 -2.0930 -0.6804 -0.2575
 1883TIP3   OH227207   1.686   2.511   0.848 -0.3814  0.2790  0.0777
 1883TIP3    H127208   1.655   2.429   0.809 -0.7384 -0.0197  0.9360
 1883TIP3    H227209   1.735   2.554   0.779 -1.8912  0.2957 -1.0408
 1884TIP3   OH227210   1.903   1.668   2.371 -0.2119 -0.1199  0.5862
 1884TIP3    H127211   1.970   1.658   2.439  0.3164 -0.2453  0.0649
 1884TIP3    H227212   1.831   1.713   2.414  0.8982  1.6293  0.7533
 1885TIP3   OH227213   1.023   2.862   7.675 -0.1963  0.0328  0.7532
 1885TIP3    H127214   1.074   2.883   7.597  2.6820 -3.0222  1.5413
 1885TIP3    H227215   0.980   2.779   7.653 -0.1191 -0.3668  2.0418
 1886TIP3   OH227216   0.189   3.336   2.084 -0.1938  0.3806 -1.0411
 1886TIP3    H127217   0.115   3.276   2.099  0.1761  0.3954  1.1736
 1886TIP3    H227218   0.245   3.289   2.022 -0.2340 -1.3103  0.1333
 1887TIP3   OH227219   1.444   4.361   2.774  0.3553 -0.0225  0.4374
 1887TIP3    H127220   1.377   4.372   2.706  1.2378 -1.1903 -0.6754
 1887TIP3    H227221   1.502   4.293   2.739  2.2750  1.1294  1.2615
 1888TIP3   OH227222   0.107   6.205   1.068  0.1328  0.3297 -0.3323
 1888TIP3    H127223   0.089   6.206   1.162  2.0418  0.8818  0.0644
 1888TIP3    H227224   0.133   6.294   1.046 -0.8532  0.3599 -1.5421
 1889TIP3   OH227225   0.876   1.091   7.383 -0.0040  0.0038 -0.4009
 1889TIP3    H127226   0.848   1.020   7.441  0.0900  0.5775  0.3661
 1889TIP3    H227227   0.898   1.163   7.442  0.8049  0.3621 -1.1163
 1890TIP3   OH227228   4.424   1.276   8.175  0.4970 -0.0941 -0.1590
 1890TIP3    H127229   4.338   1.248   8.143  1.2228 -1.4839 -0.9865
 1890TIP3    H227230   4.473   1.194   8.186  2.0700  0.7337 -0.7693
 1891TIP3   OH227231   4.923   2.048   8.449 -0.0395  0.4015  0.0204
 1891TIP3    H127232   4.908   2.045   8.354  0.8231 -0.3366 -0.0940
 1891TIP3    H227233   4.856   2.110   8.481 -0.7367  0.1956 -0.9825
 1892TIP3   OH227234   3.841   3.106   1.900  0.1666  0.2982  0.0731
 1892TIP3    H127235   3.877   3.039   1.957  0.1405 -0.0192 -0.2776
 1892TIP3    H227236   3.911   3.172   1.894  0.1273  0.3848  0.5489
 1893TIP3   OH227237   5.357   2.746   7.260 -0.5393  0.2193 -0.4245
 1893TIP3    H127238   5.307   2.691   7.320 -1.2839  0.0956 -1.1265
 1893TIP3    H227239   5.433   2.774   7.310 -1.2986  0.3805  0.6717
 1894TIP3   OH227240   5.109   1.382   8.390  0.2007 -0.1434 -0.2824
 1894TIP3    H127241   5.027   1.408   8.432  0.9549  1.6343  0.1556
 1894TIP3    H227242   5.109   1.427   8.306  0.2275 -1.0371 -0.7708
 1895TIP3   OH227243   0.018   4.376   0.145 -0.2208  0.8511 -0.5198
 1895TIP3    H127244   0.022   4.396   0.238 -0.8021 -2.3298  0.3139
 1895TIP3    H227245  -0.052   4.432   0.111 -1.5514  0.5205  1.4751
 1896TIP3   OH227246   2.218   3.786   8.610 -0.1924  0.2696  0.0116
 1896TIP3    H127247   2.126   3.763   8.596 -0.4015  1.0029  0.1367
 1896TIP3    H227248   2.244   3.734   8.687 -0.2546 -0.5523 -0.5032
 1897TIP3   OH227249   1.225   3.187   7.991  0.0889 -0.3386 -0.1719
 1897TIP3    H127250   1.223   3.267   8.043  0.1770 -0.2640 -0.2842
 1897TIP3    H227251   1.205   3.216   7.902 -0.6621 -0.5433 -0.0808
 1898TIP3   OH227252   6.245   6.597   8.157 -0.1088  0.1233 -0.6083
 1898TIP3    H127253   6.194   6.617   8.235  1.3930 -0.5599  0.6144
 1898TIP3    H227254   6.249   6.679   8.108 -0.7200  0.6741  0.2480
 1899TIP3   OH227255   3.318   2.132   8.454 -0.1143 -0.1457  0.0451
 1899TIP3    H127256   3.224   2.131   8.435  0.0501 -0.8980 -0.8398
 1899TIP3    H227257   3.345   2.223   8.440 -0.6332 -0.0159 -0.1340
 1900TIP3   OH227258   1.939   3.132   6.782  0.3178  0.1860  0.3488
 1900TIP3    H127259   2.021   3.152   6.737 -0.1365  1.3618 -0.0022
 1900TIP3    H227260   1.922   3.208   6.837 -2.4621  1.8730 -2.4490
 1901TIP3   OH227261   2.392   2.643   7.709 -0.3631 -0.2992 -0.2615
 1901TIP3    H127262   2.320   2.685   7.755 -1.4740 -2.1716 -0.2059
 1901TIP3    H227263   2.355   2.618   7.624  0.4897 -0.5125 -0.5787
 1902TIP3   OH227264   1.979   3.741   1.429  0.0921  0.1048 -0.6551
 1902TIP3    H127265   1.959   3.716   1.339 -0.9719  0.5518 -0.5624
 1902TIP3    H227266   1.893   3.745   1.472  0.5301  0.5719  0.1984
 1903TIP3   OH227267   1.017   4.654   0.365 -0.2123 -0.2204 -0.0687
 1903TIP3    H127268   0.998   4.686   0.276  1.3316 -0.4994 -0.5325
 1903TIP3    H227269   0.973   4.716   0.423  1.3867  1.9175 -0.9833
 1904TIP3   OH227270   3.617   3.880   0.537 -0.1334  0.1856  0.7871
 1904TIP3    H127271   3.543   3.835   0.579  0.3037  0.7810  2.2597
 1904TIP3    H227272   3.693   3.857   0.591  0.3526  1.4893  0.6923
 1905TIP3   OH227273   5.548   3.218   1.550 -0.4147 -0.1839  0.2172
 1905TIP3    H127274   5.542   3.310   1.527  3.1153  0.6115  1.7482
 1905TIP3    H227275   5.514   3.212   1.639 -1.4553 -0.5961 -0.1860
 1906TIP3   OH227276   0.891   2.052   1.644  0.0425  0.0978 -0.2606
 1906TIP3    H127277   0.853   2.112   1.580 -0.3073 -0.6875 -0.8068
 1906TIP3    H227278   0.882   2.097   1.728 -0.7847  0.5372 -0.5730
 1907TIP3   OH227279   6.783   6.678   8.133  0.0500 -0.3758 -0.2976
 1907TIP3    H127280   6.797   6.637   8.218  1.6553  0.6350 -0.0331
 1907TIP3    H227281   6.807   6.770   8.146  0.8670 -0.3064 -1.9413
 1908TIP3   OH227282   2.824   6.086   0.017  0.2452  0.1628 -0.4467
 1908TIP3    H127283   2.830   6.148  -0.055  1.7915 -0.7959 -1.2029
 1908TIP3    H227284   2.820   6.140   0.096  1.1553  1.2321 -1.1102
 1909TIP3   OH227285   3.465   3.024   0.992 -0.4265 -0.4521  0.5493
 1909TIP3    H127286   3.404   3.090   1.023 -0.1609 -0.4733  1.1275
 1909TIP3    H227287   3.453   2.949   1.050  0.5051 -0.2681  1.0083
 1910TIP3   OH227288   6.091   3.312   7.883 -0.7486  1.2871 -0.3819
 1910TIP3    H127289   6.114   3.270   7.966 -0.5963  0.8588 -0.6367
 1910TIP3    H227290   6.153   3.276   7.819 -0.6644  1.8464 -0.6227
 1911TIP3   OH227291   1.230   4.978   0.339  0.5282 -0.0036  0.3992
 1911TIP3    H127292   1.196   4.955   0.425 -0.3184  0.9018  0.3207
 1911TIP3    H227293   1.196   5.066   0.322  0.3623 -0.3139 -1.0185
 1912TIP3   OH227294   0.453   4.292   7.653 -0.2753  0.0848  0.0424
 1912TIP3    H127295   0.418   4.368   7.699  1.3877  1.4202 -0.7972
 1912TIP3    H227296   0.523   4.327   7.598 -0.6863 -1.8012 -1.7853
 1913TIP3   OH227297   4.165   3.725   1.257 -0.3382  0.3513  0.3639
 1913TIP3    H127298   4.206   3.694   1.176  0.6806  2.8862 -0.1941
 1913TIP3    H227299   4.196   3.666   1.324 -0.4518 -1.2477 -0.9290
 1914TIP3   OH227300   1.818   0.286   8.095  0.1779  0.8304 -0.5051
 1914TIP3    H127301   1.879   0.359   8.089  1.2974  0.0592  0.9309
 1914TIP3    H227302   1.873   0.209   8.108 -0.9620 -0.3210 -2.1254
 1915TIP3   OH227303   1.117   3.145   8.277  0.2021 -0.0130 -0.5874
 1915TIP3    H127304   1.137   3.139   8.184  0.9312  0.9930 -0.5105
 1915TIP3    H227305   1.021   3.145   8.281  0.1684 -0.2955 -1.3179
 1916TIP3   OH227306   4.480   4.921   0.406 -0.1756  0.0701 -0.1271
 1916TIP3    H127307   4.395   4.962   0.427 -1.1405 -1.7443 -0.2633
 1916TIP3    H227308   4.539   4.952   0.475 -0.5483  2.4250 -0.7709
 1917TIP3   OH227309   1.659   4.974   0.926  0.2392  0.1722 -0.1772
 1917TIP3    H127310   1.746   4.977   0.885  0.0449  0.9471 -0.5559
 1917TIP3    H227311   1.655   5.053   0.979 -0.0021 -0.1832  0.3365
 1918TIP3   OH227312   0.377   4.317   1.970  0.0016  0.5425 -0.3235
 1918TIP3    H127313   0.368   4.332   2.064  1.0817 -0.3487 -0.0555
 1918TIP3    H227314   0.288   4.308   1.939 -0.3470 -1.1893  0.9943
 1919TIP3   OH227315   1.434   3.424   6.716 -0.1788 -0.6928 -0.3851
 1919TIP3    H127316   1.506   3.483   6.695 -0.2202  0.1442  1.6614
 1919TIP3    H227317   1.359   3.461   6.669  0.0808  0.1339 -0.1622
 1920TIP3   OH227318   0.645   6.391   1.925  0.2313 -0.2996 -0.1157
 1920TIP3    H127319   0.711   6.460   1.933 -0.1320  0.2564 -1.5243
 1920TIP3    H227320   0.599   6.412   1.844 -0.3883 -1.7796 -0.1778
 1921TIP3   OH227321   3.904   4.744   1.255 -0.3208 -0.5584  0.0553
 1921TIP3    H127322   3.856   4.696   1.322 -1.4128  0.8814  0.3530
 1921TIP3    H227323   3.876   4.704   1.172  0.6925 -2.0412  0.3855
 1922TIP3   OH227324   6.155   1.524   6.909  0.0196  0.3381  0.2573
 1922TIP3    H127325   6.066   1.513   6.875 -0.5461  0.7860  1.5288
 1922TIP3    H227326   6.202   1.567   6.837 -0.2870 -1.4586 -1.0993
 1923TIP3   OH227327   0.830   6.513   2.734  0.7495 -0.0218  0.5981
 1923TIP3    H127328   0.892   6.558   2.677  1.1710  1.9066  2.4621
 1923TIP3    H227329   0.853   6.420   2.725  1.4552  0.2869 -1.5071
 1924TIP3   OH227330   4.211   3.686   8.307  0.2169 -0.0117 -0.2858
 1924TIP3    H127331   4.204   3.638   8.225 -1.2148 -0.0449 -0.1549
 1924TIP3    H227332   4.122   3.691   8.341  0.5779  1.1982  0.5829
 1925TIP3   OH227333   4.539   5.567   1.978  0.2107  0.0271 -0.0076
 1925TIP3    H127334   4.541   5.577   2.073 -1.5902 -1.7324  0.2708
 1925TIP3    H227335   4.557   5.474   1.963  0.8584  0.3490 -1.4319
 1926TIP3   OH227336   0.323   5.303   6.641 -0.0601 -0.2233  0.2793
 1926TIP3    H127337   0.341   5.217   6.679 -2.2751 -0.1123  1.7676
 1926TIP3    H227338   0.289   5.355   6.714  1.8680  2.2057 -0.4003
 1927TIP3   OH227339   5.209   6.507   0.376  0.4928  0.2412  0.7072
 1927TIP3    H127340   5.226   6.508   0.281  0.7998  0.3562  0.7628
 1927TIP3    H227341   5.231   6.418   0.402 -1.7121 -0.4831  0.2952
 1928TIP3   OH227342   6.555   0.681   7.807  0.1853  0.4793 -0.5876
 1928TIP3    H127343   6.538   0.668   7.900  1.9857  0.0115 -0.2898
 1928TIP3    H227344   6.511   0.763   7.785  0.6663  1.1594  0.9318
 1929TIP3   OH227345   3.016   3.869   0.265 -0.3765  0.5590 -0.4268
 1929TIP3    H127346   2.922   3.886   0.267 -0.3472  0.8842 -1.2686
 1929TIP3    H227347   3.031   3.832   0.178 -0.2383 -2.6586  0.8427
 1930TIP3   OH227348   5.975   1.952   7.858 -0.0692 -0.0619 -0.3955
 1930TIP3    H127349   5.999   2.030   7.909 -0.6890 -1.5482  2.3392
 1930TIP3    H227350   5.908   1.984   7.797 -0.6450  1.4881  0.9631
 1931TIP3   OH227351   6.447   2.489   8.605  0.6934  0.2137 -0.6512
 1931TIP3    H127352   6.518   2.518   8.662  0.3381  1.3535 -0.7646
 1931TIP3    H227353   6.395   2.430   8.660  0.8666  0.5807 -0.0861
 1932TIP3   OH227354   1.793   1.894   7.873 -0.4819  0.9936  0.4766
 1932TIP3    H127355   1.874   1.942   7.856 -1.1657  2.6793  1.6901
 1932TIP3    H227356   1.729   1.930   7.812 -0.5177  0.1975  0.0311
 1933TIP3   OH227357   3.024   6.570   1.856  0.7483  0.8919  0.1925
 1933TIP3    H127358   3.057   6.493   1.902 -0.8879 -0.1081 -0.2506
 1933TIP3    H227359   3.050   6.557   1.765 -0.3898  0.3357 -0.0695
 1934TIP3   OH227360   0.674   5.352   0.404 -0.3201 -0.6886 -0.4772
 1934TIP3    H127361   0.696   5.328   0.494 -2.3625 -0.0694  0.2270
 1934TIP3    H227362   0.693   5.446   0.398 -0.7561 -0.6005 -0.5065
 1935TIP3   OH227363   5.454   4.097   8.060 -0.1215  0.0743 -0.0213
 1935TIP3    H127364   5.455   4.039   7.985  2.2410  0.0846 -0.0494
 1935TIP3    H227365   5.525   4.066   8.116  0.1965  1.9663  0.7010
 1936TIP3   OH227366   2.691   5.695   7.611 -0.1949  0.4901 -0.1713
 1936TIP3    H127367   2.703   5.601   7.625 -0.6774  0.6532  1.6302
 1936TIP3    H227368   2.600   5.703   7.582  0.2906  0.3028 -1.8541
 1937TIP3   OH227369   0.148   5.851   7.927  0.0651  0.1106 -0.0412
 1937TIP3    H127370   0.131   5.800   8.006  0.1877  1.0062  0.5744
 1937TIP3    H227371   0.183   5.788   7.864 -1.8863 -1.0178 -0.0547
 1938TIP3   OH227372   1.776   6.572   1.385  0.7632 -0.0176 -0.1566
 1938TIP3    H127373   1.756   6.568   1.291  1.6972 -0.8013 -0.3379
 1938TIP3    H227374   1.721   6.504   1.424  2.3273 -1.5669 -0.5351
 1939TIP3   OH227375   5.353   2.449   2.117 -0.4015  0.7879 -0.0885
 1939TIP3    H127376   5.323   2.382   2.055  1.5618  1.1452 -1.4885
 1939TIP3    H227377   5.304   2.527   2.093 -0.0087  0.7968 -0.8655
 1940TIP3   OH227378   4.283   5.388   7.935 -0.1364 -0.2821 -0.3489
 1940TIP3    H127379   4.217   5.352   7.995  0.4143 -1.4039 -0.3770
 1940TIP3    H227380   4.365   5.382   7.984  0.3318 -1.2574 -1.1990
 1941TIP3   OH227381   3.247   2.067   1.777 -0.4583 -0.2127  0.5214
 1941TIP3    H127382   3.286   2.043   1.861 -1.1819  2.7907  1.8216
 1941TIP3    H227383   3.316   2.116   1.732 -0.2915 -1.2599 -0.4013
 1942TIP3   OH227384   3.729   5.808   1.958 -0.5932 -0.4403 -0.4641
 1942TIP3    H127385   3.637   5.782   1.970 -0.4139 -1.5389 -1.3394
 1942TIP3    H227386   3.761   5.751   1.888  0.2551  1.1642 -1.4407
 1943TIP3   OH227387   0.138   5.925   8.500 -0.8261  0.0838 -0.0180
 1943TIP3    H127388   0.167   5.932   8.591  1.0044 -1.2981 -0.4205
 1943TIP3    H227389   0.084   5.846   8.499 -1.2605  0.3759 -0.0602
 1944TIP3   OH227390   0.908   3.437   0.911  0.1264 -0.4715 -0.4072
 1944TIP3    H127391   0.924   3.531   0.906  1.5542 -0.5950  0.9596
 1944TIP3    H227392   0.825   3.429   0.957 -0.1550  0.1219 -0.8046
 1945TIP3   OH227393   0.980   6.769   0.007 -0.1961 -0.2518 -0.2917
 1945TIP3    H127394   0.943   6.784   0.094  0.6557 -1.5931  0.3394
 1945TIP3    H227395   1.036   6.692   0.018  1.3451  0.6180 -1.6228
 1946TIP3   OH227396   0.299   6.168   7.786  0.2297 -0.0184  0.4139
 1946TIP3    H127397   0.233   6.107   7.753  0.3983  0.3149 -0.5866
 1946TIP3    H227398   0.278   6.251   7.744  1.2708  0.0919  0.0815
 1947TIP3   OH227399   1.226   2.151   0.032 -0.5656 -0.3263  0.0936
 1947TIP3    H127400   1.144   2.185   0.069 -0.2561 -1.2973  1.7779
 1947TIP3    H227401   1.288   2.156   0.104  0.5650 -0.6685 -0.8317
 1948TIP3   OH227402   1.810   5.418   0.788 -0.7572  0.3112 -0.4561
 1948TIP3    H127403   1.732   5.368   0.812 -1.5355  1.7479  0.1164
 1948TIP3    H227404   1.809   5.419   0.692  0.0042 -1.8124 -0.5520
 1949TIP3   OH227405   5.757   0.955   7.137  0.4712 -0.0334 -0.4919
 1949TIP3    H127406   5.732   0.991   7.052  0.6494 -0.6748 -0.8166
 1949TIP3    H227407   5.673   0.940   7.182  0.3384 -0.5122 -0.8932
 1950TIP3   OH227408   6.457   0.708   8.561  0.0604 -0.0174 -0.1692
 1950TIP3    H127409   6.509   0.776   8.604  2.0715 -1.8080  0.4202
 1950TIP3    H227410   6.438   0.744   8.474  1.8739  0.9645 -0.2162
 1951TIP3   OH227411   5.591   5.422   7.808 -0.1605 -0.0988  0.1096
 1951TIP3    H127412   5.550   5.495   7.854  0.1253 -1.0339  1.9228
 1951TIP3    H227413   5.684   5.427   7.832 -0.3977 -2.0140  1.6720
 1952TIP3   OH227414   6.561   1.113   2.468 -0.1378  0.0491  0.0267
 1952TIP3    H127415   6.565   1.069   2.553  0.2288  0.1399  0.0557
 1952TIP3    H227416   6.509   1.054   2.413  0.2660 -0.3729  0.0942
 1953TIP3   OH227417   2.885   3.369   0.390  0.5023  0.4807 -0.4774
 1953TIP3    H127418   2.974   3.400   0.376  1.0980 -0.2987  1.2869
 1953TIP3    H227419   2.842   3.441   0.438  0.3087  0.6704 -0.9292
 1954TIP3   OH227420   5.430   3.950   7.830 -0.0979 -0.4786  0.3674
 1954TIP3    H127421   5.495   3.895   7.872 -1.2617 -1.3466  1.0941
 1954TIP3    H227422   5.396   3.897   7.758  0.9565  0.5049 -0.9164
 1955TIP3   OH227423   1.206   1.921   8.053 -0.0711  0.2244  0.9567
 1955TIP3    H127424   1.174   2.007   8.079  1.4147  1.3235 -0.6570
 1955TIP3    H227425   1.169   1.907   7.966  0.3449 -0.4304  0.8813
 1956TIP3   OH227426   4.194   6.615   1.774  0.4503  0.2529  0.0514
 1956TIP3    H127427   4.124   6.678   1.790  0.1480 -0.0783  0.0350
 1956TIP3    H227428   4.235   6.645   1.693 -0.7483 -0.5088 -0.8699
 1957TIP3   OH227429   6.622   3.229   8.584  0.1384 -0.1077  0.2399
 1957TIP3    H127430   6.582   3.142   8.589  1.1371 -0.5264  1.3641
 1957TIP3    H227431   6.550   3.287   8.557 -1.6774 -0.5918  3.5398
 1958TIP3   OH227432   4.611   5.132   2.255  0.8191 -0.2489 -0.0910
 1958TIP3    H127433   4.661   5.102   2.179  1.2376  0.8161 -0.2597
 1958TIP3    H227434   4.655   5.213   2.282  1.0207 -0.8765  1.6258
 1959TIP3   OH227435   6.135   5.906   0.638 -0.2104  0.1069  0.2617
 1959TIP3    H127436   6.112   5.983   0.691 -0.1116 -0.4083  1.0725
 1959TIP3    H227437   6.102   5.832   0.689  0.0233 -0.4137 -0.3370
 1960TIP3   OH227438   0.034   2.693   0.752  0.0408  0.0752 -0.9587
 1960TIP3    H127439  -0.027   2.754   0.711  0.1655  1.7853  1.1919
 1960TIP3    H227440  -0.018   2.650   0.820  0.3933 -1.0099 -1.3547
 1961TIP3   OH227441   0.592   0.264   6.374  0.0329  0.2039  0.2926
 1961TIP3    H127442   0.523   0.235   6.433  0.4093  1.6225  1.4772
 1961TIP3    H227443   0.617   0.184   6.326 -0.5420 -0.9073  1.7627
 1962TIP3   OH227444   4.547   5.834   8.318  0.3112  0.2841  0.5298
 1962TIP3    H127445   4.507   5.747   8.322 -0.0632  0.4975  1.5804
 1962TIP3    H227446   4.546   5.865   8.408  3.0694  0.2154  0.6581
 1963TIP3   OH227447   0.812   0.120   1.839 -1.0112 -0.5212 -0.1307
 1963TIP3    H127448   0.866   0.070   1.778  0.4040 -0.8601  1.3542
 1963TIP3    H227449   0.872   0.150   1.907 -1.9283  2.5317 -0.4846
 1964TIP3   OH227450   2.106   1.570   7.545  0.1203  0.2028  0.3604
 1964TIP3    H127451   2.087   1.554   7.638  1.9573  2.0787  1.1377
 1964TIP3    H227452   2.194   1.534   7.533 -0.3960 -0.7151 -0.9148
 1965TIP3   OH227453   3.894   1.318   0.124  0.1768  0.1015 -0.3535
 1965TIP3    H127454   3.847   1.389   0.169 -2.5023 -2.4236  1.1980
 1965TIP3    H227455   3.866   1.326   0.033 -0.7893  0.5477 -0.0357
 1966TIP3   OH227456   3.354   3.380   1.748  0.3715 -0.3084  0.5612
 1966TIP3    H127457   3.361   3.474   1.761 -1.3543 -0.3213  2.0284
 1966TIP3    H227458   3.442   3.346   1.765  0.7458  0.9152  1.1464
 1967TIP3   OH227459   3.471   0.380   0.120  0.2884 -0.0156  1.2355
 1967TIP3    H127460   3.502   0.393   0.030 -0.0316 -1.5623  0.8756
 1967TIP3    H227461   3.376   0.394   0.115  0.4375  1.2627  1.6333
 1968TIP3   OH227462   5.541   3.816   8.067  0.1305 -0.6537 -0.3128
 1968TIP3    H127463   5.566   3.745   8.127 -0.6280 -0.7056 -0.0514
 1968TIP3    H227464   5.447   3.826   8.080  0.0491 -0.3239 -1.1342
 1969TIP3   OH227465   0.198   5.116   7.578 -0.2824 -0.1995 -0.1183
 1969TIP3    H127466   0.181   5.120   7.483 -1.1021  1.4170  0.0646
 1969TIP3    H227467   0.123   5.160   7.617  1.4315  1.8690  1.1006
 1970TIP3   OH227468   3.086   3.048   8.196 -0.4003 -0.1893  0.5731
 1970TIP3    H127469   3.071   2.973   8.254  1.0979 -0.7216  0.3248
 1970TIP3    H227470   3.041   3.023   8.115 -0.2290 -0.6651  0.6169
 1971TIP3   OH227471   6.460   1.183   0.910 -0.4602  0.1632 -0.8821
 1971TIP3    H127472   6.520   1.112   0.887  2.0156  2.3213 -1.5435
 1971TIP3    H227473   6.403   1.191   0.833  0.7419  0.3415 -1.7827
 1972TIP3   OH227474   1.429   1.470   0.164  0.2303  0.4748  0.1485
 1972TIP3    H127475   1.522   1.467   0.187 -0.1053 -3.6000  1.8824
 1972TIP3    H227476   1.427   1.444   0.071  0.8550 -3.3036  1.0113
 1973TIP3   OH227477   2.086   2.030   1.720 -0.5757 -0.7723  0.3754
 1973TIP3    H127478   2.067   2.028   1.626  1.3101  1.3874 -0.1400
 1973TIP3    H227479   2.168   1.983   1.730 -0.6959 -0.8735  0.9276
 1974TIP3   OH227480   5.912   3.013   1.650 -0.4354 -0.0967  0.4847
 1974TIP3    H127481   5.826   2.989   1.683 -0.2334 -1.8903 -0.1889
 1974TIP3    H227482   5.973   2.984   1.718 -0.0994 -2.8476 -0.8396
 1975TIP3   OH227483   6.519   6.611   0.022  0.5466  0.1866  0.7040
 1975TIP3    H127484   6.576   6.687   0.034  1.9503 -0.8765  1.0265
 1975TIP3    H227485   6.430   6.647   0.023  1.1866  1.8462  0.5485
 1976TIP3   OH227486   1.685   2.908   7.510 -0.4182  0.0990 -0.2471
 1976TIP3    H127487   1.697   3.003   7.519 -0.8502  0.1476 -0.1811
 1976TIP3    H227488   1.705   2.890   7.418 -0.1213  0.2212 -0.2076
 1977TIP3   OH227489   1.685   4.572   0.219  0.3094  0.6062 -0.5401
 1977TIP3    H127490   1.691   4.510   0.293  1.1104 -1.0006 -1.8855
 1977TIP3    H227491   1.603   4.550   0.176  1.6195 -1.1822 -2.3368
 1978TIP3   OH227492   2.126   4.550   2.292  0.5478 -0.0760  0.1486
 1978TIP3    H127493   2.150   4.573   2.202  1.2304 -0.0260  0.3414
 1978TIP3    H227494   2.176   4.471   2.311 -0.0577 -0.4387  0.2821
 1979TIP3   OH227495   0.502   0.709   1.330 -0.7419  0.0404 -0.4767
 1979TIP3    H127496   0.593   0.692   1.353 -1.0667 -0.3577  0.5591
 1979TIP3    H227497   0.493   0.676   1.240 -0.1370 -0.8910 -0.2084
 1980TIP3   OH227498   2.417   0.207   0.324  0.2470  0.6753  0.4780
 1980TIP3    H127499   2.470   0.155   0.263 -0.3062  0.3237  0.2930
 1980TIP3    H227500   2.397   0.146   0.395 -0.0706  0.7484  0.4521
 1981TIP3   OH227501   6.622   4.836   7.019 -0.2372 -0.5273  0.3509
 1981TIP3    H127502   6.591   4.900   6.955 -0.7978 -0.8038  0.3355
 1981TIP3    H227503   6.542   4.791   7.048  0.2157 -1.7889 -0.2612
 1982TIP3   OH227504   2.908   4.452   7.798  0.1376 -0.4627  0.2588
 1982TIP3    H127505   2.986   4.478   7.848  0.6006 -2.6290  0.7631
 1982TIP3    H227506   2.933   4.465   7.706  0.7502 -0.2499  0.4533
 1983TIP3   OH227507   0.310   1.905   1.302 -0.5837  0.0088 -0.4842
 1983TIP3    H127508   0.337   1.991   1.269 -0.7426  0.2807  0.0757
 1983TIP3    H227509   0.290   1.921   1.394  1.1670 -0.9949  0.1222
 1984TIP3   OH227510   5.389   4.795   7.218 -0.1051  0.0486  0.5408
 1984TIP3    H127511   5.325   4.804   7.147 -0.1069 -0.3415  0.4921
 1984TIP3    H227512   5.455   4.862   7.200  0.7397 -1.0745 -0.7261
 1985TIP3   OH227513   0.051   1.393   1.552  0.3206  0.4274  0.5003
 1985TIP3    H127514   0.048   1.332   1.478 -1.2642 -1.1686  1.7753
 1985TIP3    H227515   0.046   1.480   1.512 -0.2908 -0.3774 -1.2774
 1986TIP3   OH227516   5.452   2.625   0.488 -0.4182 -0.0808  0.1056
 1986TIP3    H127517   5.380   2.632   0.425 -0.0499 -2.2590 -0.6539
 1986TIP3    H227518   5.409   2.613   0.573 -0.9381  0.2368 -0.1103
 1987TIP3   OH227519   0.613   5.502   7.699 -0.2931 -0.2495  0.0511
 1987TIP3    H127520   0.692   5.496   7.645 -0.8474  0.2512 -0.8264
 1987TIP3    H227521   0.550   5.444   7.657 -0.2475 -1.0671  1.0525
 1988TIP3   OH227522   5.789   1.933   1.383  0.8487  0.2431  0.5258
 1988TIP3    H127523   5.805   2.027   1.377  1.3536  0.2495  1.7550
 1988TIP3    H227524   5.783   1.904   1.292 -1.7753  1.8443  0.0935
 1989TIP3   OH227525   1.825   4.403   2.520  0.0088  0.0830 -0.4643
 1989TIP3    H127526   1.872   4.466   2.575  0.4813  0.3728 -1.1870
 1989TIP3    H227527   1.894   4.354   2.475 -0.3589 -0.8014 -0.0926
 1990TIP3   OH227528   6.334   0.387   2.901 -0.5120  0.7238 -0.5604
 1990TIP3    H127529   6.429   0.392   2.888 -0.5885  0.9642 -1.0662
 1990TIP3    H227530   6.304   0.330   2.830 -0.6878  0.2347 -0.0971
 1991TIP3   OH227531   1.075   2.114   8.470 -0.3172  0.0439 -0.4471
 1991TIP3    H127532   1.126   2.193   8.450 -0.5533  0.2290 -0.3208
 1991TIP3    H227533   1.029   2.135   8.551 -0.6250 -0.1128 -0.5820
 1992TIP3   OH227534   0.378   0.302   2.267  0.1742  0.0827 -0.0184
 1992TIP3    H127535   0.416   0.308   2.355 -0.6104  2.3497  0.2206
 1992TIP3    H227536   0.404   0.215   2.237  1.5870 -0.2596  1.9227
 1993TIP3   OH227537   3.429   1.609   7.825 -0.1640 -0.0424 -0.0992
 1993TIP3    H127538   3.436   1.692   7.779  1.6665  0.0378  0.2673
 1993TIP3    H227539   3.469   1.545   7.766  0.1232 -0.3316  0.4003
 1994TIP3   OH227540   0.377   2.260   8.615  0.4432 -0.1686  0.2369
 1994TIP3    H127541   0.425   2.337   8.646 -0.4410  0.2530  0.6020
 1994TIP3    H227542   0.315   2.296   8.551  1.5982 -0.8943 -1.3651
 1995TIP3   OH227543   6.101   6.114   7.570  0.2471  0.4083 -0.2748
 1995TIP3    H127544   6.092   6.122   7.475 -0.5991 -0.1000 -0.2464
 1995TIP3    H227545   6.179   6.165   7.591  2.3164 -1.9338 -1.6433
 1996TIP3   OH227546   3.841   6.448   7.949 -0.7181  0.1244 -0.5885
 1996TIP3    H127547   3.793   6.531   7.950 -0.6976  0.1354 -0.3738
 1996TIP3    H227548   3.773   6.381   7.936 -0.7060  0.1893 -1.0048
 1997TIP3   OH227549   4.333   5.857   0.500 -0.2609  0.1183  0.1623
 1997TIP3    H127550   4.255   5.896   0.461 -0.3048  2.0432  2.0075
 1997TIP3    H227551   4.394   5.930   0.509  0.6063 -0.7375  1.4950
 1998TIP3   OH227552   4.206   4.318   8.322 -0.1687  0.1926 -0.3035
 1998TIP3    H127553   4.279   4.320   8.260  0.7099  1.0842  0.7080
 1998TIP3    H227554   4.241   4.359   8.401 -1.3336 -0.6544  0.6986
 1999TIP3   OH227555   5.774   6.849   1.735 -0.5997 -0.0907 -0.2047
 1999TIP3    H127556   5.724   6.864   1.654  1.5735  1.5316 -1.3860
 1999TIP3    H227557   5.728   6.901   1.801 -1.7983 -0.5529 -0.6397
 2000TIP3   OH227558   6.154   2.393   8.443  0.6046  0.4269  0.1166
 2000TIP3    H127559   6.232   2.443   8.464  0.3074  0.6712  0.6630
 2000TIP3    H227560   6.174   2.351   8.360  2.6774 -2.3176  1.8182
 2001TIP3   OH227561   3.251   3.224   8.373 -0.3975  0.2870 -0.0087
 2001TIP3    H127562   3.245   3.146   8.318  0.7593 -0.3640  0.7293
 2001TIP3    H227563   3.306   3.284   8.324 -2.1416  1.1058 -1.0513
 2002TIP3   OH227564   3.192   4.247   7.455  0.1756 -0.1222  0.3769
 2002TIP3    H127565   3.218   4.264   7.546  3.0960 -0.7715 -0.2474
 2002TIP3    H227566   3.249   4.302   7.403  0.3857 -1.7052 -1.1577
 2003TIP3   OH227567   2.185   1.214   8.659  0.2770  0.3284 -0.2690
 2003TIP3    H127568   2.176   1.164   8.741  2.1524  0.8385  0.3139
 2003TIP3    H227569   2.106   1.267   8.655 -0.3932 -0.5474  0.6140
 2004TIP3   OH227570   4.140   2.414   8.235 -0.0617 -0.4452 -0.2002
 2004TIP3    H127571   4.232   2.433   8.257 -0.0655  0.2988 -0.8093
 2004TIP3    H227572   4.130   2.442   8.144 -0.0107 -3.5836 -1.3117
 2005TIP3   OH227573   1.686   0.043   0.001 -0.0052  0.3780  0.4611
 2005TIP3    H127574   1.685   0.114  -0.064 -0.6598  0.5456  0.6566
 2005TIP3    H227575   1.764  -0.008  -0.022  0.5032  1.1799  0.3446
 2006TIP3   OH227576   1.819   2.661   0.364  0.2152 -0.3114  0.2160
 2006TIP3    H127577   1.892   2.722   0.357  0.3837 -0.6779 -3.3648
 2006TIP3    H227578   1.788   2.652   0.274 -2.0365 -2.8358  1.1314
 2007TIP3   OH227579   0.047   3.310   1.467  0.2712 -0.0302 -0.3609
 2007TIP3    H127580   0.081   3.234   1.514  1.2681  0.4960 -0.2056
 2007TIP3    H227581  -0.045   3.288   1.449  0.4314 -1.0868  0.0416
 2008TIP3   OH227582   3.205   0.674   1.443  0.6235  0.6646  0.0349
 2008TIP3    H127583   3.168   0.672   1.531  0.1749  1.5153 -0.1268
 2008TIP3    H227584   3.300   0.679   1.456  0.6251 -0.2293  0.4537
 2009TIP3   OH227585   5.657   0.108   7.213  0.1052  0.5926 -0.0183
 2009TIP3    H127586   5.713   0.062   7.150  0.6603  1.4883 -0.1869
 2009TIP3    H227587   5.612   0.037   7.260  2.7637 -0.3049  1.4318
 2010TIP3   OH227588   2.099   2.509   8.438 -0.1983  0.2852  0.3632
 2010TIP3    H127589   2.139   2.436   8.485  1.4774 -1.2746 -3.0777
 2010TIP3    H227590   2.009   2.481   8.421 -0.3365  0.1908  1.2160
 2011TIP3   OH227591   1.442   3.377   7.548  0.6176 -0.0146 -0.0416
 2011TIP3    H127592   1.503   3.328   7.493 -0.5373 -0.4921 -0.9443
 2011TIP3    H227593   1.394   3.433   7.487 -1.1702 -1.0576  0.3445
 2012TIP3   OH227594   5.561   2.890   7.750  0.1171 -0.2284  0.0505
 2012TIP3    H127595   5.507   2.842   7.687  0.9584 -0.0673 -0.8202
 2012TIP3    H227596   5.576   2.975   7.710  0.0416  0.1573  0.8157
 2013TIP3   OH227597   2.272   0.031   2.326 -0.1715 -0.8568 -0.0403
 2013TIP3    H127598   2.293   0.088   2.252  0.3044  0.4226  1.0456
 2013TIP3    H227599   2.353   0.025   2.376 -0.5278 -1.5766  0.4704
 2014TIP3   OH227600   4.772   4.344   0.368  0.3991 -0.1032 -0.7968
 2014TIP3    H127601   4.828   4.298   0.306  0.6308 -0.2586 -0.4692
 2014TIP3    H227602   4.822   4.422   0.393  0.3064 -0.0415 -0.7993
 2015TIP3   OH227603   1.827   6.409   0.215  0.1040  0.1088  0.0375
 2015TIP3    H127604   1.751   6.391   0.269  1.3562 -1.2228  1.4418
 2015TIP3    H227605   1.806   6.369   0.130  0.2342 -2.6262  1.1965
 2016TIP3   OH227606   1.468   5.980   2.177 -0.2833  0.2031 -0.4021
 2016TIP3    H127607   1.533   5.930   2.128 -1.6794 -0.3725 -1.7601
 2016TIP3    H227608   1.452   5.928   2.256  2.0766  1.2007  0.8520
 2017TIP3   OH227609   6.074   1.890   2.293 -0.3083 -0.1868 -0.3807
 2017TIP3    H127610   6.140   1.843   2.345 -0.9275 -2.2852 -1.3997
 2017TIP3    H227611   6.054   1.967   2.345  0.3629 -1.3149  1.6702
 2018TIP3   OH227612   4.822   0.730   2.217  0.0794 -0.1419 -0.2898
 2018TIP3    H127613   4.844   0.799   2.280  0.3409 -0.0082 -0.5208
 2018TIP3    H227614   4.752   0.768   2.164  1.1711  0.5094 -1.3274
 2019TIP3   OH227615   1.749   1.949   1.564 -0.1736 -0.3029  0.5250
 2019TIP3    H127616   1.733   1.860   1.597 -1.3505  0.4993  2.2949
 2019TIP3    H227617   1.767   2.000   1.643  3.4382  0.5416 -0.6595
 2020TIP3   OH227618   2.577   4.114   1.948 -0.2705  0.0484 -0.0424
 2020TIP3    H127619   2.590   4.076   1.861  1.2011  0.9597 -0.2458
 2020TIP3    H227620   2.544   4.202   1.931  1.4178  0.7657  0.2457
 2021TIP3   OH227621   4.227   3.693   0.525  0.1847 -0.4371  0.4992
 2021TIP3    H127622   4.264   3.703   0.613 -1.6448  0.4305  1.2257
 2021TIP3    H227623   4.165   3.766   0.517 -1.2763 -1.7254 -0.6597
 2022TIP3   OH227624   1.942   5.670   8.163  0.3309  0.1154  0.4252
 2022TIP3    H127625   1.984   5.750   8.132 -0.0389 -0.3116 -1.2594
 2022TIP3    H227626   2.014   5.607   8.170  0.0934 -0.5675 -2.2948
 2023TIP3   OH227627   3.775   2.751   6.457 -0.4398 -0.9648 -0.0484
 2023TIP3    H127628   3.691   2.723   6.421 -0.8001 -0.8096  0.6453
 2023TIP3    H227629   3.841   2.714   6.398 -0.9937 -1.1062 -0.5837
 2024TIP3   OH227630   6.364   3.171   7.181  1.0257 -0.3623 -0.3263
 2024TIP3    H127631   6.389   3.182   7.089 -1.4409 -0.1119 -1.0324
 2024TIP3    H227632   6.411   3.240   7.227  1.5391  0.1327 -1.5527
 2025TIP3   OH227633   0.573   0.934   1.032 -0.1992 -0.0539 -0.2043
 2025TIP3    H127634   0.616   0.870   1.088  0.7335  1.4046  0.8277
 2025TIP3    H227635   0.482   0.934   1.062  0.4527  1.3211  2.0149
 2026TIP3   OH227636   6.577   5.038   6.856  0.1279 -0.0846 -0.7652
 2026TIP3    H127637   6.595   5.124   6.819  1.0978 -0.5611 -1.4512
 2026TIP3    H227638   6.498   5.008   6.810  1.6161 -0.9031 -2.9943
 2027TIP3   OH227639   3.601   6.139   8.150 -0.0236 -0.3312  0.8787
 2027TIP3    H127640   3.519   6.155   8.196  0.6004  1.3694  1.4915
 2027TIP3    H227641   3.595   6.048   8.120 -1.7741 -0.4869  1.5939
 2028TIP3   OH227642   2.465   2.691   0.663  0.7313  0.3752  0.3111
 2028TIP3    H127643   2.494   2.782   0.657  0.8225  0.4175  1.2332
 2028TIP3    H227644   2.412   2.688   0.743 -0.5044 -0.0538 -0.5096
 2029TIP3   OH227645   0.382   0.509   0.587 -0.3430  0.0021 -0.2235
 2029TIP3    H127646   0.355   0.460   0.509 -1.7958 -0.2721  0.4217
 2029TIP3    H227647   0.315   0.488   0.653  1.6838 -1.0766  1.6327
 2030TIP3   OH227648   0.335   3.976   8.286 -0.2181  0.8185 -0.2114
 2030TIP3    H127649   0.305   4.015   8.204  1.7064  2.3272 -0.2754
 2030TIP3    H227650   0.422   4.013   8.299 -0.6860  1.0679  2.8391
 2031TIP3   OH227651   1.488   6.784   6.647  0.3943  0.0549  0.3171
 2031TIP3    H127652   1.554   6.851   6.634  0.1911  0.2517  0.2949
 2031TIP3    H227653   1.419   6.826   6.698  0.6216 -0.3628  0.9829
 2032TIP3   OH227654   1.403   0.815   7.384 -0.5455 -0.3609 -0.1860
 2032TIP3    H127655   1.320   0.790   7.343 -1.1629 -0.2668  0.9692
 2032TIP3    H227656   1.391   0.907   7.408 -0.9838 -0.9520  2.0253
 2033TIP3   OH227657   2.894   1.256   7.997  0.3397 -0.0500  0.0206
 2033TIP3    H127658   2.890   1.270   7.902 -0.1139  2.6938  0.3631
 2033TIP3    H227659   2.974   1.206   8.011  0.3525 -0.6125 -1.8069
 2034TIP3   OH227660   0.680   6.404   7.133  0.2577  0.3933 -0.3938
 2034TIP3    H127661   0.610   6.459   7.098  0.4131  0.0770 -1.2250
 2034TIP3    H227662   0.761   6.452   7.113  0.2962  0.6787  0.4161
 2035TIP3   OH227663   3.438   4.321   1.679 -0.2482 -0.5880  0.4811
 2035TIP3    H127664   3.514   4.263   1.671  1.4350  1.3394  1.5109
 2035TIP3    H227665   3.373   4.268   1.725  1.5620 -1.4224  2.2816
 2036TIP3   OH227666   4.439   6.060   1.307 -0.1193  0.4350  0.3762
 2036TIP3    H127667   4.423   5.966   1.298 -0.8672  0.5366  0.5520
 2036TIP3    H227668   4.425   6.096   1.220  0.5872  0.3321  0.2140
 2037TIP3   OH227669   5.830   1.272   1.547  0.2807 -0.2014 -0.0414
 2037TIP3    H127670   5.894   1.203   1.534 -1.1569 -1.3815 -1.2849
 2037TIP3    H227671   5.746   1.230   1.531 -0.7021  1.6622 -0.0781
 2038TIP3   OH227672   3.104   3.263   0.623 -0.0384 -0.4286 -0.0257
 2038TIP3    H127673   3.190   3.303   0.629 -0.1403 -0.2562  0.3460
 2038TIP3    H227674   3.105   3.213   0.541  0.3614 -0.3102 -0.0911
 2039TIP3   OH227675   0.039   5.273   0.531 -0.0563 -0.0959  0.0124
 2039TIP3    H127676   0.076   5.333   0.466 -1.3135  0.8804  0.1431
 2039TIP3    H227677  -0.012   5.211   0.480  1.0547 -0.9284 -0.1058
 2040TIP3   OH227678   0.948   3.748   2.091  0.5650 -0.2070 -0.7538
 2040TIP3    H127679   0.869   3.734   2.143 -1.5520  0.4273 -3.5560
 2040TIP3    H227680   0.945   3.680   2.024  2.5015 -0.2375 -0.8628
 2041TIP3   OH227681   0.865   4.988   8.105 -0.5805  0.5050  0.1151
 2041TIP3    H127682   0.866   4.896   8.078 -0.6705  0.8146 -0.9789
 2041TIP3    H227683   0.773   5.009   8.115 -0.6353  0.8128 -0.8858
 2042TIP3   OH227684   1.590   5.491   2.193  0.0922  0.5449 -0.1564
 2042TIP3    H127685   1.639   5.501   2.111  0.1111 -1.8784 -0.5251
 2042TIP3    H227686   1.503   5.463   2.165  0.2313 -0.7495  0.6402
 2043TIP3   OH227687   0.386   4.047   7.120 -0.4568  0.4222  0.1070
 2043TIP3    H127688   0.429   4.131   7.106 -0.2370  0.2517 -0.2575
 2043TIP3    H227689   0.363   4.017   7.032 -0.0599 -0.1472  0.1910
 2044TIP3   OH227690   1.067   5.591   7.885  0.7048 -0.0416 -0.0468
 2044TIP3    H127691   1.013   5.621   7.958  1.4264 -0.6743  0.7891
 2044TIP3    H227692   1.017   5.611   7.807 -0.0060  0.8478  0.6154
 2045TIP3   OH227693   4.539   1.288   0.488  0.0339 -0.3489 -0.3532
 2045TIP3    H127694   4.478   1.296   0.561  0.1649  0.0528 -0.2831
 2045TIP3    H227695   4.614   1.241   0.526  0.4737  0.6061  0.0236
 2046TIP3   OH227696   6.426   0.224   8.205 -0.1382  0.1538  0.2410
 2046TIP3    H127697   6.393   0.292   8.265 -0.3488 -0.8439  1.2873
 2046TIP3    H227698   6.459   0.273   8.130 -0.8269  1.3871  0.7054
 2047TIP3   OH227699   3.014   5.721   0.742  0.3832  0.4000  0.3706
 2047TIP3    H127700   3.009   5.643   0.686 -1.1712 -0.6053  1.8140
 2047TIP3    H227701   2.996   5.794   0.683 -0.7043 -0.5755 -0.5547
 2048TIP3   OH227702   0.553   3.190   0.941 -0.3601 -0.2414  0.0119
 2048TIP3    H127703   0.492   3.224   0.876  0.8122 -1.2219 -1.6581
 2048TIP3    H227704   0.502   3.123   0.987 -1.0522  0.1310 -0.1867
 2049TIP3   OH227705   2.531   5.128   8.386 -0.4615 -0.2868  0.1890
 2049TIP3    H127706   2.591   5.141   8.459 -0.3306 -0.4002  0.1031
 2049TIP3    H227707   2.561   5.047   8.344  0.3444  0.5256 -0.8449
 2050TIP3   OH227708   6.115   1.363   0.605 -0.3944 -0.0853 -0.0522
 2050TIP3    H127709   6.123   1.402   0.519 -1.8566  0.6506  0.1137
 2050TIP3    H227710   6.041   1.303   0.598  0.3052 -1.0237  0.3493
 2051TIP3   OH227711   3.656   6.335   1.654 -0.0806  0.3446 -0.2034
 2051TIP3    H127712   3.630   6.270   1.719 -0.8509  0.5974 -0.2509
 2051TIP3    H227713   3.751   6.338   1.660 -0.1631  0.8441  1.4056
 2052TIP3   OH227714   5.475   6.341   0.056 -0.0246  0.1847 -0.2208
 2052TIP3    H127715   5.452   6.249   0.068  0.3565  0.0655 -0.3901
 2052TIP3    H227716   5.530   6.342  -0.022 -0.5653  0.6489 -0.5961
 2053TIP3   OH227717   6.473   1.227   2.187 -0.3996  0.7943 -0.4351
 2053TIP3    H127718   6.399   1.202   2.131  0.2058  2.6182 -2.1528
 2053TIP3    H227719   6.549   1.225   2.130  0.6447  0.5622  0.9011
 2054TIP3   OH227720   4.884   3.699   0.317  0.2942  0.3603 -0.5734
 2054TIP3    H127721   4.809   3.650   0.283  0.1203  0.9700 -1.0931
 2054TIP3    H227722   4.856   3.729   0.403  0.7111 -1.1405  0.1222
 2055TIP3   OH227723   6.827   4.810   8.291 -0.6829 -0.1568 -0.0803
 2055TIP3    H127724   6.872   4.748   8.349  1.8925 -1.6654 -3.3037
 2055TIP3    H227725   6.743   4.768   8.272 -0.6747 -0.6586  0.9457
 2056TIP3   OH227726   4.652   1.222   1.706  0.4702 -0.1746 -0.1540
 2056TIP3    H127727   4.586   1.291   1.712  0.4282 -0.2580  0.3856
 2056TIP3    H227728   4.703   1.244   1.628  1.1469  1.0760  0.6176
 2057TIP3   OH227729   2.445   1.647   6.748  0.4630 -0.4791  0.2263
 2057TIP3    H127730   2.541   1.642   6.757  0.6163  1.5467  0.0908
 2057TIP3    H227731   2.413   1.570   6.796  2.2107 -2.7339 -1.9104
 2058TIP3   OH227732   0.766   5.466   0.655 -0.6711 -0.1689 -0.1423
 2058TIP3    H127733   0.823   5.428   0.587 -1.4185 -0.4569 -0.6182
 2058TIP3    H227734   0.827   5.501   0.719  0.0541 -0.5368 -0.6065
 2059TIP3   OH227735   3.904   2.562   0.752  0.7705  0.3173 -0.2176
 2059TIP3    H127736   3.850   2.634   0.719  0.0546 -0.1681 -0.1264
 2059TIP3    H227737   3.934   2.516   0.673 -1.2407 -1.0628 -0.2502
 2060TIP3   OH227738   5.881   0.162   8.170 -0.2764  0.6159  0.0574
 2060TIP3    H127739   5.953   0.224   8.156  0.5921 -0.0468  1.4050
 2060TIP3    H227740   5.909   0.082   8.126 -0.8466  0.7825 -0.6301
 2061TIP3   OH227741   4.036   0.108   1.732 -0.0135  0.4662 -0.0081
 2061TIP3    H127742   4.125   0.144   1.733  0.6899 -1.1770 -0.0050
 2061TIP3    H227743   4.043   0.027   1.782 -1.9451  1.1852  1.5610
 2062TIP3   OH227744   6.406   6.187   0.416  0.2986 -0.0155  0.3330
 2062TIP3    H127745   6.448   6.267   0.447  3.9391 -0.5885 -2.4599
 2062TIP3    H227746   6.438   6.119   0.475  2.1050 -0.1880 -0.7734
 2063TIP3   OH227747   4.912   5.859   7.093 -0.0094  0.0797  0.4406
 2063TIP3    H127748   4.836   5.810   7.061  0.2950 -0.0770 -0.0550
 2063TIP3    H227749   4.898   5.949   7.062  1.1086 -0.4146 -1.6308
 2064TIP3   OH227750   1.765   3.486   8.157  0.0030  0.2370  0.5297
 2064TIP3    H127751   1.672   3.480   8.182 -0.9724  0.1727 -2.5945
 2064TIP3    H227752   1.780   3.580   8.147  0.3796  0.2628  1.2886
 2065TIP3   OH227753   5.583   1.918   2.542  0.4344 -0.3695  0.2633
 2065TIP3    H127754   5.516   1.959   2.487 -0.7779 -0.9601  1.2644
 2065TIP3    H227755   5.576   1.964   2.626  2.4125  0.6733 -0.0855
 2066TIP3   OH227756   0.202   3.095   7.903 -0.6314 -0.1985 -0.4079
 2066TIP3    H127757   0.293   3.065   7.910 -0.3651  0.3175 -1.4625
 2066TIP3    H227758   0.196   3.134   7.816 -2.0652 -0.9030 -0.6683
 2067TIP3   OH227759   2.560   4.117   7.440 -0.1031 -0.2417  0.2976
 2067TIP3    H127760   2.630   4.056   7.461  0.2138 -0.2321 -0.6933
 2067TIP3    H227761   2.603   4.202   7.431 -0.2445 -0.2221 -0.2347
 2068TIP3   OH227762   4.882   2.996   2.113 -0.1240 -0.3153  0.6768
 2068TIP3    H127763   4.903   2.937   2.186  2.6356  0.6911  0.8075
 2068TIP3    H227764   4.961   3.047   2.100 -1.8729  2.2939 -0.4963
 2069TIP3   OH227765   3.633   0.939   1.049  0.1477 -0.0445 -0.4862
 2069TIP3    H127766   3.593   1.015   1.006  1.1129  1.4724  1.1205
 2069TIP3    H227767   3.622   0.957   1.143  4.0648  0.2381  0.0516
 2070TIP3   OH227768   3.513   5.279   7.835 -0.0656 -0.1369  0.0854
 2070TIP3    H127769   3.418   5.279   7.839 -0.0853 -0.7996 -0.2164
 2070TIP3    H227770   3.537   5.187   7.824  0.5250  0.1817 -1.6615
 2071TIP3   OH227771   1.102   1.352   0.075 -0.2809  0.1888 -0.1970
 2071TIP3    H127772   1.012   1.377   0.093 -0.6292 -2.8023  3.3285
 2071TIP3    H227773   1.152   1.389   0.149  0.7635 -1.0908 -0.2381
 2072TIP3   OH227774   3.902   4.636   0.286  0.1121  0.4792 -0.5859
 2072TIP3    H127775   3.858   4.694   0.224 -0.8912  1.2490  0.8041
 2072TIP3    H227776   3.895   4.680   0.371  1.4398 -0.5439  0.1003
 2073TIP3   OH227777   4.559   3.644   7.608  0.2206 -0.0230  0.0813
 2073TIP3    H127778   4.506   3.701   7.664  0.8985 -0.9953  1.7862
 2073TIP3    H227779   4.574   3.695   7.529 -1.3732  1.1308  0.4913
 2074TIP3   OH227780   5.399   0.057   2.034 -0.1729 -0.4576 -0.6567
 2074TIP3    H127781   5.366   0.129   2.086  1.6891  0.0998 -0.1610
 2074TIP3    H227782   5.435  -0.005   2.098 -1.1381 -1.5345 -1.1117
 2075TIP3   OH227783   5.959   1.298   0.917  0.1317 -0.2037  0.2269
 2075TIP3    H127784   5.878   1.343   0.940  0.4939  1.3701 -1.3727
 2075TIP3    H227785   5.938   1.249   0.838  1.1872  2.0332 -1.5908
 2076TIP3   OH227786   0.935   3.812   0.035  0.1855  0.5795 -0.3624
 2076TIP3    H127787   0.887   3.860  -0.032 -3.4989 -4.4013 -1.8617
 2076TIP3    H227788   0.877   3.813   0.111  1.0421  0.2403  0.3067
 2077TIP3   OH227789   4.695   3.646   8.473  0.2637 -0.1180  0.2476
 2077TIP3    H127790   4.757   3.716   8.452  1.2163 -1.8229 -3.7277
 2077TIP3    H227791   4.609   3.685   8.462  0.7142  1.0720  0.8313
 2078TIP3   OH227792   1.616   5.883   1.316 -0.5208 -0.3354  0.4674
 2078TIP3    H127793   1.525   5.853   1.321 -0.5261 -0.8644 -1.7844
 2078TIP3    H227794   1.609   5.972   1.282 -0.2495  0.4727  2.3959
 2079TIP3   OH227795   3.616   5.696   1.312 -0.3788  0.0898 -0.3964
 2079TIP3    H127796   3.622   5.722   1.404 -1.7743  1.0084 -0.5320
 2079TIP3    H227797   3.647   5.605   1.311  0.3715  0.3086  0.8404
 2080TIP3   OH227798   0.599   0.749   0.243 -0.4008  0.4642  0.2500
 2080TIP3    H127799   0.669   0.814   0.240 -0.3117  0.3573  0.0048
 2080TIP3    H227800   0.568   0.743   0.152 -0.4728  0.2365  0.2896
 2081TIP3   OH227801   5.737   5.451   8.631  0.4285 -0.1829  0.4314
 2081TIP3    H127802   5.805   5.453   8.564 -0.4243  0.3446 -0.4448
 2081TIP3    H227803   5.765   5.515   8.697  0.0572  1.1695 -0.6747
 2082TIP3   OH227804   0.992   0.431   7.774  0.1343 -0.5019  0.2454
 2082TIP3    H127805   1.009   0.526   7.776 -1.0933 -0.2658  0.4829
 2082TIP3    H227806   0.899   0.424   7.751  0.2172 -1.6550  0.2090
 2083TIP3   OH227807   5.056   4.361   0.523 -0.6195 -0.2196  0.8498
 2083TIP3    H127808   5.096   4.299   0.462 -2.0040 -0.0131 -0.3498
 2083TIP3    H227809   5.033   4.309   0.600 -0.2657 -0.8383  0.5433
 2084TIP3   OH227810   4.632   1.123   8.435  0.4168 -0.5343 -0.1582
 2084TIP3    H127811   4.720   1.089   8.454  0.9653  0.6111 -0.5321
 2084TIP3    H227812   4.599   1.150   8.521  0.6719 -0.4301 -0.0906
 2085TIP3   OH227813   4.908   1.713   8.080 -0.5431 -0.4953 -0.0440
 2085TIP3    H127814   4.889   1.783   8.142  1.5125  0.3556 -0.3135
 2085TIP3    H227815   4.883   1.749   7.995 -2.3327 -1.2597  0.1176
 2086TIP3   OH227816   1.955   4.345   1.439  0.2378  0.6243  0.6052
 2086TIP3    H127817   1.965   4.432   1.400  0.1980  0.5741  0.4844
 2086TIP3    H227818   1.885   4.304   1.389  1.0955  0.0672 -0.1516
 2087TIP3   OH227819   6.724   0.087   1.208  0.0288 -0.1350  0.6459
 2087TIP3    H127820   6.751   0.056   1.121  0.7765 -0.2684  0.9238
 2087TIP3    H227821   6.672   0.166   1.190 -0.2504 -0.4490  0.0502
 2088TIP3   OH227822   2.354   1.878   1.643  0.2322  0.9046  0.0539
 2088TIP3    H127823   2.322   1.808   1.586 -0.8673  0.7964  0.7746
 2088TIP3    H227824   2.449   1.872   1.638  0.1481 -0.4316 -0.1393
 2089TIP3   OH227825   5.263   1.945   7.664 -0.5492  0.0532 -0.5897
 2089TIP3    H127826   5.296   2.034   7.653  0.6400 -0.3403 -0.3544
 2089TIP3    H227827   5.339   1.895   7.693 -1.9207 -0.3684  2.6570
 2090TIP3   OH227828   6.761   4.289   7.980  0.3062 -0.3255  0.5656
 2090TIP3    H127829   6.855   4.302   7.990  0.4119  0.2904 -0.9724
 2090TIP3    H227830   6.753   4.216   7.919 -0.2077 -0.3135  0.6136
 2091TIP3   OH227831   6.641   0.599   2.343 -0.1397 -0.6280 -0.6649
 2091TIP3    H127832   6.733   0.619   2.364  0.1975 -2.0795 -0.6070
 2091TIP3    H227833   6.642   0.579   2.249 -0.2764 -1.2153 -0.5460
 2092TIP3   OH227834   5.581   2.655   6.905  0.5652  0.0710 -0.2759
 2092TIP3    H127835   5.567   2.563   6.881 -0.1844 -0.0404  0.5511
 2092TIP3    H227836   5.596   2.699   6.821 -0.6061 -0.5432 -0.8254
 2093TIP3   OH227837   2.166   4.337   0.916 -0.2865  0.3347 -0.3023
 2093TIP3    H127838   2.098   4.286   0.962 -0.1674  0.8819  0.5035
 2093TIP3    H227839   2.137   4.428   0.924 -0.1043  0.4640 -1.0679
 2094TIP3   OH227840   1.175   4.557   8.660  0.0443  0.4319 -0.1088
 2094TIP3    H127841   1.166   4.532   8.751  0.7983 -0.1823 -0.1881
 2094TIP3    H227842   1.161   4.652   8.659 -0.7513  0.3222  0.5145
 2095TIP3   OH227843   6.636   6.790   0.558 -0.5757 -0.3538 -0.2953
 2095TIP3    H127844   6.564   6.752   0.506 -0.5485  0.0609 -0.6433
 2095TIP3    H227845   6.601   6.874   0.589 -1.3346 -1.4619  2.0684
 2096TIP3   OH227846   6.715   3.263   1.984  0.0750 -0.1150 -0.6925
 2096TIP3    H127847   6.799   3.256   1.938  2.0767  1.3029  2.4052
 2096TIP3    H227848   6.667   3.331   1.937  2.3842  1.9279 -0.3072
 2097TIP3   OH227849   2.644   0.403   0.801 -0.5361 -0.6240 -0.2173
 2097TIP3    H127850   2.630   0.405   0.706 -0.9893  1.0946 -0.1434
 2097TIP3    H227851   2.607   0.319   0.829 -1.1130 -0.8047 -1.4540
 2098TIP3   OH227852   5.778   3.438   8.552 -0.1460 -0.2156  0.8978
 2098TIP3    H127853   5.755   3.347   8.531 -2.1913  0.6151 -0.8786
 2098TIP3    H227854   5.756   3.487   8.472  1.0981  1.8221  1.7282
 2099TIP3   OH227855   3.363   4.167   1.424 -0.5060  0.2289  0.6171
 2099TIP3    H127856   3.339   4.161   1.331  1.0539 -2.3683  0.2742
 2099TIP3    H227857   3.282   4.149   1.471 -1.2295  1.1695 -0.2419
 2100TIP3   OH227858   1.307   1.752   8.234 -0.6920  0.0344  0.1573
 2100TIP3    H127859   1.275   1.802   8.159  1.9981 -0.6598 -1.6322
 2100TIP3    H227860   1.283   1.661   8.213  1.1579 -0.3268 -0.5932
 2101TIP3   OH227861   3.835   6.313   1.915 -0.0321 -0.3071  0.2991
 2101TIP3    H127862   3.876   6.247   1.858  0.6270 -0.1148  0.5462
 2101TIP3    H227863   3.757   6.269   1.949  0.0439 -0.7307 -0.0578
 2102TIP3   OH227864   2.030   3.076   7.649 -0.1429  0.5140  1.0135
 2102TIP3    H127865   1.939   3.101   7.635 -0.3273 -1.4921 -2.7940
 2102TIP3    H227866   2.078   3.159   7.649 -1.6174  1.5021 -1.4593
 2103TIP3   OH227867   1.911   6.198   0.464 -0.0635 -0.4131 -0.2629
 2103TIP3    H127868   1.911   6.103   0.463 -0.8275 -0.4783  1.5670
 2103TIP3    H227869   1.973   6.224   0.396  0.3884 -2.2123 -0.5651
 2104TIP3   OH227870   4.521   1.957   2.389 -0.1232  0.0584 -0.5032
 2104TIP3    H127871   4.504   2.019   2.317 -1.3464  1.2334  0.7367
 2104TIP3    H227872   4.434   1.935   2.421  0.3596 -1.4653 -0.1921
 2105TIP3   OH227873   5.455   3.525   8.511 -0.0318 -0.4511  0.0015
 2105TIP3    H127874   5.418   3.436   8.509 -1.2643  0.0050  1.0187
 2105TIP3    H227875   5.480   3.537   8.603 -1.0799  0.7063  0.1560
 2106TIP3   OH227876   0.913   0.424   7.305  0.0321 -0.0939  0.1170
 2106TIP3    H127877   1.008   0.411   7.303 -0.1669 -1.7623 -1.7065
 2106TIP3    H227878   0.879   0.343   7.342 -0.7651 -0.4099 -1.2616
 2107TIP3   OH227879   5.720   6.374   0.204 -0.3887 -0.1215 -0.5867
 2107TIP3    H127880   5.633   6.369   0.165 -0.6678 -1.8127  0.1714
 2107TIP3    H227881   5.778   6.335   0.139 -0.2057  0.8000 -0.9961
 2108TIP3   OH227882   5.566   4.591   7.671 -0.0916  0.2672 -0.2241
 2108TIP3    H127883   5.553   4.670   7.619 -2.5160 -0.1579 -0.3900
 2108TIP3    H227884   5.501   4.530   7.638 -1.1307 -0.3464  2.6527
 2109TIP3   OH227885   1.026   1.306   6.485  0.1116 -0.0178 -0.3218
 2109TIP3    H127886   0.971   1.379   6.454  0.0619 -0.3036 -0.9315
 2109TIP3    H227887   1.115   1.334   6.466  0.0059 -0.9958 -2.6162
 2110TIP3   OH227888   5.947   3.249   8.291  0.3684 -0.1628  0.2776
 2110TIP3    H127889   5.919   3.159   8.275 -0.1032 -0.0847  0.6326
 2110TIP3    H227890   5.883   3.302   8.244  1.2891 -0.0269 -0.8704
 2111TIP3   OH227891   0.383   3.622   1.946 -0.6807 -0.2954  0.2850
 2111TIP3    H127892   0.377   3.630   2.041 -3.8320  0.4380  0.1311
 2111TIP3    H227893   0.374   3.711   1.913 -1.2248 -0.7058 -0.7406
 2112TIP3   OH227894   3.620   3.162   6.709 -0.5338  0.5895  0.2282
 2112TIP3    H127895   3.648   3.071   6.705 -1.2525  0.3956 -1.0764
 2112TIP3    H227896   3.530   3.161   6.676 -1.1649  1.5537  1.7601
 2113TIP3   OH227897   1.106   6.579   0.818  1.2915  0.4705  0.0884
 2113TIP3    H127898   1.192   6.536   0.827  0.2991 -1.5351  0.6308
 2113TIP3    H227899   1.076   6.552   0.731  1.9347  2.7072 -0.9161
 2114TIP3   OH227900   0.900   3.703   0.850  0.1967  0.2496  0.0482
 2114TIP3    H127901   0.987   3.744   0.857  0.2002  0.3402 -0.4732
 2114TIP3    H227902   0.876   3.714   0.758  0.4170 -1.3904 -0.2378
 2115TIP3   OH227903   2.501   6.071   1.353  0.0038 -0.6908  0.2239
 2115TIP3    H127904   2.590   6.065   1.319 -0.1814 -2.9566 -0.0411
 2115TIP3    H227905   2.448   6.099   1.278  0.2850 -0.8029 -0.0169
 2116TIP3   OH227906   3.069   6.534   8.646  0.6306  0.6794 -0.0898
 2116TIP3    H127907   3.099   6.537   8.555 -0.4238  1.5361 -0.4321
 2116TIP3    H227908   3.132   6.588   8.693  0.5128  1.2131 -0.5334
 2117TIP3   OH227909   3.260   0.121   8.513  0.4899 -0.1168  0.2890
 2117TIP3    H127910   3.329   0.065   8.478  0.3434 -0.3201  0.3223
 2117TIP3    H227911   3.228   0.170   8.437 -1.0796 -1.8711 -0.2693
 2118TIP3   OH227912   0.754   6.636   2.389  0.0300 -0.3233  0.3760
 2118TIP3    H127913   0.670   6.591   2.387 -0.0404 -0.1779 -0.8060
 2118TIP3    H227914   0.731   6.729   2.390  0.1769 -0.2718  2.4480
 2119TIP3   OH227915   6.052   1.549   0.215  0.2769 -0.3046 -0.0036
 2119TIP3    H127916   6.145   1.531   0.222  0.7253  1.4424 -0.9356
 2119TIP3    H227917   6.034   1.611   0.286  0.7307  2.3652 -2.0308
 2120TIP3   OH227918   3.561   4.258   0.327  0.2741  0.0859 -0.3437
 2120TIP3    H127919   3.545   4.236   0.419  1.6916 -0.5422 -0.2317
 2120TIP3    H227920   3.628   4.326   0.330  1.1654 -0.7468 -0.9405
 2121TIP3   OH227921   5.554   2.437   0.090  0.5525 -0.1261 -0.6764
 2121TIP3    H127922   5.571   2.524   0.055 -0.3041 -0.2680 -1.4995
 2121TIP3    H227923   5.485   2.450   0.155  0.4216 -0.1946 -0.8023
 2122TIP3   OH227924   5.034   0.061   2.522 -0.0236 -0.6079 -0.1591
 2122TIP3    H127925   4.977   0.009   2.579 -1.3237  0.2974 -0.5928
 2122TIP3    H227926   4.977   0.128   2.485  1.0082 -0.5462 -1.7532
 2123TIP3   OH227927   0.911   4.721   1.680  1.0315 -0.4372 -0.6223
 2123TIP3    H127928   0.919   4.667   1.601 -0.6270 -1.3316 -0.2209
 2123TIP3    H227929   0.818   4.738   1.687  1.0749 -0.8411  1.4578
 2124TIP3   OH227930   3.983   4.679   8.636  0.2466  0.3854 -0.5282
 2124TIP3    H127931   3.934   4.717   8.563 -1.7175 -1.0170 -0.0048
 2124TIP3    H227932   3.938   4.710   8.714  1.5878  0.8793  0.0756
 2125TIP3   OH227933   6.584   1.578   7.750 -0.1713 -0.2275  0.1956
 2125TIP3    H127934   6.577   1.554   7.658 -1.3612 -0.2979  0.2841
 2125TIP3    H227935   6.641   1.511   7.788  0.1609 -0.3170 -0.4460
 2126TIP3   OH227936   2.815   1.034   2.406  0.7061  0.6825  0.3707
 2126TIP3    H127937   2.728   1.016   2.370  1.0813 -0.1919 -0.1346
 2126TIP3    H227938   2.810   1.124   2.439 -0.2749  0.7635  0.0197
 2127TIP3   OH227939   5.303   3.114   2.133 -0.4214 -0.2097  0.0661
 2127TIP3    H127940   5.215   3.148   2.118  0.4405  1.6673 -1.0399
 2127TIP3    H227941   5.292   3.050   2.204 -2.6434 -0.0161 -0.0241
 2128TIP3   OH227942   6.599   5.832   7.937 -0.3077 -0.3652 -0.2579
 2128TIP3    H127943   6.508   5.859   7.946 -0.2076  0.4875 -1.5534
 2128TIP3    H227944   6.602   5.779   7.858  0.4472  0.3076 -0.6999
 2129TIP3   OH227945   2.996   1.615   0.904  0.5543 -0.1516 -0.0775
 2129TIP3    H127946   2.962   1.584   0.988 -0.5386  3.6895  1.1072
 2129TIP3    H227947   2.981   1.542   0.844  0.9977 -2.9373  2.8681
 2130TIP3   OH227948   0.190   5.417   7.852  0.3886  0.3332 -0.2179
 2130TIP3    H127949   0.118   5.477   7.833  0.1726  0.2104  0.1913
 2130TIP3    H227950   0.154   5.357   7.917  0.9112  0.3610  0.0977
 2131TIP3   OH227951   4.348   2.399   7.552 -0.4664 -0.1202 -0.0605
 2131TIP3    H127952   4.321   2.404   7.460  0.9267 -0.7568 -0.5298
 2131TIP3    H227953   4.373   2.488   7.575 -1.1549  0.1097 -0.1822
 2132TIP3   OH227954   3.633   3.274   8.618  0.3072 -0.2938 -0.0846
 2132TIP3    H127955   3.546   3.313   8.623  0.4644  0.3247 -1.7081
 2132TIP3    H227956   3.693   3.348   8.607  0.6706 -0.8821 -2.5617
 2133TIP3   OH227957   2.860   0.933   7.633  0.2574  0.0218 -0.7762
 2133TIP3    H127958   2.936   0.907   7.684 -0.6352  1.8318  1.6634
 2133TIP3    H227959   2.791   0.873   7.660  0.8349 -2.0984 -3.5212
 2134TIP3   OH227960   5.625   1.384   1.306 -0.1738 -0.0015  0.2749
 2134TIP3    H127961   5.610   1.289   1.300  2.4227 -0.5078  0.2907
 2134TIP3    H227962   5.582   1.410   1.388 -0.2737 -1.3403  0.6764
 2135TIP3   OH227963   3.727   4.205   0.873 -0.2216 -0.0239  0.6293
 2135TIP3    H127964   3.747   4.230   0.963 -1.6656  0.1169  0.9416
 2135TIP3    H227965   3.678   4.123   0.881 -0.5400  0.0939 -0.0114
 2136TIP3   OH227966   0.214   6.853   0.716  0.2086 -0.2024  0.1607
 2136TIP3    H127967   0.165   6.928   0.747 -0.7826 -0.3902 -0.8947
 2136TIP3    H227968   0.306   6.879   0.724 -0.0911  0.6815  0.8450
 2137TIP3   OH227969   0.148   4.208   1.418  0.6297  0.3560 -0.5085
 2137TIP3    H127970   0.165   4.168   1.332  1.5883  0.3289 -0.3085
 2137TIP3    H227971   0.146   4.302   1.400 -0.6084  0.2999 -0.7974
 2138TIP3   OH227972   0.514   3.764   2.294 -0.3987  0.2789 -0.5174
 2138TIP3    H127973   0.489   3.845   2.249  0.4532  1.1755  0.5426
 2138TIP3    H227974   0.441   3.705   2.279 -0.0371  0.4219 -3.2484
 2139TIP3   OH227975   2.969   5.585   2.818 -0.2683 -0.0437  0.2481
 2139TIP3    H127976   2.962   5.494   2.846  1.6395  0.0474  1.1463
 2139TIP3    H227977   3.063   5.599   2.804 -0.5522  1.7159 -0.1308
 2140TIP3   OH227978   2.360   5.432   7.247  0.1655 -0.2736  0.0164
 2140TIP3    H127979   2.293   5.382   7.293  0.3254  0.0844  0.6552
 2140TIP3    H227980   2.345   5.522   7.275 -0.3080  0.0922 -1.3547
 2141TIP3   OH227981   4.153   1.174   0.814  0.5062  0.3244 -0.4833
 2141TIP3    H127982   4.057   1.171   0.813  0.5293 -0.4902 -1.3732
 2141TIP3    H227983   4.179   1.087   0.845  0.9517 -0.1680 -2.1072
 2142TIP3   OH227984   0.668   3.464   0.718 -0.5808  0.5644 -0.0890
 2142TIP3    H127985   0.662   3.558   0.700 -0.9519  0.5214 -0.2006
 2142TIP3    H227986   0.758   3.451   0.746 -0.1952  0.7586 -1.1936
 2143TIP3   OH227987   2.157   6.568   0.133 -0.0113  0.3721 -0.4306
 2143TIP3    H127988   2.100   6.543   0.060 -0.3106  1.7375 -0.6895
 2143TIP3    H227989   2.101   6.621   0.190  0.0862 -0.9993  1.0517
 2144TIP3   OH227990   0.908   3.233   2.855 -0.0213  0.5023  0.6848
 2144TIP3    H127991   0.889   3.146   2.819  1.9368  1.4012 -3.0110
 2144TIP3    H227992   0.831   3.255   2.907 -1.4227 -2.6191  0.1454
 2145TIP3   OH227993   0.702   2.592   8.053  0.2117  0.2938  0.0979
 2145TIP3    H127994   0.707   2.544   8.136  1.2805 -1.3794 -0.8973
 2145TIP3    H227995   0.630   2.550   8.006  0.4769  0.3650 -0.3679
 2146TIP3   OH227996   3.935   5.686   2.529 -0.4740  0.4414 -0.2560
 2146TIP3    H127997   3.992   5.760   2.545  0.9966 -0.3496 -1.6149
 2146TIP3    H227998   3.847   5.722   2.532  0.0218  1.6702  2.0122
 2147TIP3   OH227999   1.590   0.814   8.091 -0.3227 -0.7993  0.4521
 2147TIP3    H128000   1.638   0.846   8.014 -1.5356 -0.5806 -0.2500
 2147TIP3    H228001   1.613   0.875   8.161  0.2918 -0.6104  0.0972
 2148TIP3   OH228002   4.742   2.471   1.454 -0.0666  0.2468 -0.6996
 2148TIP3    H128003   4.745   2.409   1.381 -0.4878 -1.3314  0.5800
 2148TIP3    H228004   4.817   2.529   1.439  1.8993 -2.1255 -0.6259
 2149TIP3   OH228005   4.472   4.056   1.650  0.4617  0.5437 -0.4429
 2149TIP3    H128006   4.523   4.099   1.718  1.5076  0.2875 -1.0517
 2149TIP3    H228007   4.394   4.023   1.696  1.4489 -0.1916  0.7588
 2150TIP3   OH228008   0.708   5.653   0.447 -0.5775  0.2540 -0.1323
 2150TIP3    H128009   0.775   5.719   0.431 -2.6339  2.4198 -0.4445
 2150TIP3    H228010   0.718   5.631   0.540  1.6703 -0.9022 -0.5795
 2151TIP3   OH228011   0.759   6.576   7.887  0.3157 -0.3632  0.1575
 2151TIP3    H128012   0.666   6.576   7.867 -0.2593  2.1258  2.3205
 2151TIP3    H228013   0.791   6.661   7.857  1.2261 -0.0174  1.9756
 2152TIP3   OH228014   6.197   2.874   8.004 -0.0328 -0.0710 -0.1641
 2152TIP3    H128015   6.211   2.965   8.030 -1.1202 -0.3447  1.5915
 2152TIP3    H228016   6.212   2.873   7.909 -0.4854  2.0359 -0.3072
 2153TIP3   OH228017   3.938   5.372   1.661  0.0619  0.4236 -0.0262
 2153TIP3    H128018   3.986   5.339   1.585  0.0162 -1.8592  0.8497
 2153TIP3    H228019   3.989   5.342   1.736 -1.5222 -0.0908  0.8852
 2154TIP3   OH228020   4.203   3.484   1.747 -0.0007  0.1402  0.3726
 2154TIP3    H128021   4.260   3.424   1.699  0.9961  0.6813  0.8545
 2154TIP3    H228022   4.247   3.568   1.743 -1.8860  1.1361 -1.1873
 2155TIP3   OH228023   6.755   6.785   7.396 -0.6980  0.3162 -0.3093
 2155TIP3    H128024   6.669   6.809   7.431 -0.6837  0.4881 -0.3950
 2155TIP3    H228025   6.752   6.808   7.304 -2.0059 -3.3632 -1.3521
 2156TIP3   OH228026   4.045   0.198   8.311  0.3390  0.9777 -0.2877
 2156TIP3    H128027   4.140   0.194   8.318  0.2209 -0.6861  0.7923
 2156TIP3    H228028   4.022   0.128   8.250 -0.3021 -0.0002  1.0228
 2157TIP3   OH228029   4.536   0.045   2.033 -0.0949 -0.5225  0.3933
 2157TIP3    H128030   4.503   0.094   2.109  1.8192 -1.5444  1.9816
 2157TIP3    H228031   4.548  -0.044   2.066  3.3040 -0.4350 -0.2403
 2158TIP3   OH228032   4.470   6.660   2.707  0.2202  0.5659 -0.3792
 2158TIP3    H128033   4.555   6.702   2.696  1.3158 -1.6342 -0.9707
 2158TIP3    H228034   4.408   6.718   2.664  1.5764  1.7175 -0.8333
 2159TIP3   OH228035   1.498   3.699   1.148 -0.5387 -0.0438  0.0654
 2159TIP3    H128036   1.503   3.694   1.243 -1.8015  0.3989  0.1722
 2159TIP3    H228037   1.485   3.608   1.120  1.1925 -0.3691  0.1881
 2160TIP3   OH228038   0.568   2.669   7.480  0.0511 -0.3156 -0.1328
 2160TIP3    H128039   0.615   2.598   7.523  0.4109  0.2654  0.4598
 2160TIP3    H228040   0.506   2.626   7.421  1.5910 -1.1090 -1.2383
 2161TIP3   OH228041   5.416   0.950   2.113  0.5225 -0.0703 -0.0784
 2161TIP3    H128042   5.342   0.934   2.054 -0.9542  1.5599  1.2222
 2161TIP3    H228043   5.426   0.868   2.162 -0.6685 -0.1973 -0.0291
 2162TIP3   OH228044   5.839   6.498   0.505  0.2157 -0.2836  0.1900
 2162TIP3    H128045   5.799   6.525   0.423 -1.5388 -2.3909  0.2558
 2162TIP3    H228046   5.916   6.447   0.478  0.5651  0.3664 -0.0692
 2163TIP3   OH228047   2.377   4.839   8.372  0.0311 -0.6398 -0.0279
 2163TIP3    H128048   2.471   4.837   8.352  0.6117 -0.5753  2.3886
 2163TIP3    H228049   2.355   4.748   8.390 -0.9169 -0.9845 -2.5520
 2164TIP3   OH228050   6.877   6.661   1.729 -0.4185  0.4493 -0.4774
 2164TIP3    H128051   6.834   6.649   1.814  1.1235 -0.6118  0.1845
 2164TIP3    H228052   6.900   6.573   1.701  1.9324  0.9998 -0.4673
 2165TIP3   OH228053   3.599   6.740   0.792 -0.1412 -0.0132  0.0012
 2165TIP3    H128054   3.627   6.649   0.807 -0.5636  0.1522  2.0846
 2165TIP3    H228055   3.512   6.733   0.753 -0.5780 -0.5206  1.0404
 2166TIP3   OH228056   2.910   0.370   8.657 -0.0556 -0.3870  0.0389
 2166TIP3    H128057   2.897   0.275   8.658 -1.6164 -0.2528 -1.9908
 2166TIP3    H228058   2.900   0.394   8.565 -0.4079  1.8552  0.6209
 2167TIP3   OH228059   5.033   5.132   8.564 -0.6721 -0.1418 -0.4448
 2167TIP3    H128060   5.039   5.054   8.618 -1.7690 -0.7085 -1.0982
 2167TIP3    H228061   4.952   5.175   8.593  0.9102  1.8835  1.3124
 2168TIP3   OH228062   1.179   1.337   7.887  0.5677  0.2174 -0.3196
 2168TIP3    H128063   1.141   1.420   7.858  0.3012  0.5319  0.8440
 2168TIP3    H228064   1.226   1.360   7.967  1.5953 -0.5309 -0.6949
 2169TIP3   OH228065   0.072   1.792   0.538  0.1784  0.1677 -0.3017
 2169TIP3    H128066   0.147   1.851   0.524  2.0056 -2.2434 -1.3056
 2169TIP3    H228067   0.110   1.715   0.580 -1.6071 -1.4333 -1.4940
 2170TIP3   OH228068   2.389   4.936   7.507 -0.1244  0.5611  0.6159
 2170TIP3    H128069   2.337   4.892   7.574 -0.0287  1.5854  1.3947
 2170TIP3    H228070   2.378   4.883   7.428  0.2863 -1.0413  1.5952
 2171TIP3   OH228071   6.724   6.502   6.747  0.0508 -0.4698 -0.0466
 2171TIP3    H128072   6.818   6.501   6.730  0.2127  0.8425  0.6372
 2171TIP3    H228073   6.685   6.525   6.663  0.7703  4.7277  0.6437
 2172TIP3   OH228074   6.400   2.638   0.889  0.0855 -0.0858 -0.4206
 2172TIP3    H128075   6.353   2.574   0.941 -1.0137  1.2387  0.2804
 2172TIP3    H228076   6.432   2.702   0.952  1.2114  0.0301 -1.0920
 2173TIP3   OH228077   0.740   5.207   1.200  0.1611 -0.5132 -0.3661
 2173TIP3    H128078   0.775   5.226   1.287  1.3943  1.0371 -1.1638
 2173TIP3    H228079   0.780   5.123   1.175 -0.4441 -1.1232  0.6605
 2174TIP3   OH228080   2.105   4.630   8.436 -0.4883  0.3624 -0.2179
 2174TIP3    H128081   2.156   4.615   8.516  1.4781 -1.0257 -1.6620
 2174TIP3    H228082   2.098   4.726   8.430  1.8987  0.6168  0.1230
 2175TIP3   OH228083   0.290   0.388   8.087  1.6071  0.1522 -0.0772
 2175TIP3    H128084   0.358   0.452   8.066  1.9731 -0.5419 -1.0496
 2175TIP3    H228085   0.330   0.303   8.068  1.0114 -0.3634  0.8760
 2176TIP3   OH228086   0.809   1.306   7.066 -0.3722  0.4328  0.0345
 2176TIP3    H128087   0.854   1.366   7.006  0.1053 -0.6286 -0.6898
 2176TIP3    H228088   0.860   1.225   7.062  0.0202  0.4925  2.3056
 2177TIP3   OH228089   2.770   5.273   1.240 -0.2209  0.5689 -0.5780
 2177TIP3    H128090   2.726   5.354   1.264 -0.2553 -0.0482  1.7034
 2177TIP3    H228091   2.717   5.204   1.280  0.7860 -0.4564 -0.9456
 2178TIP3   OH228092   4.927   0.148   1.025  0.2489 -0.6437  0.4591
 2178TIP3    H128093   5.004   0.203   1.016  0.4940 -1.0778 -0.1396
 2178TIP3    H228094   4.870   0.195   1.087  0.9939 -0.3340  0.9164
 2179TIP3   OH228095   1.195   3.270   6.763 -0.0003 -0.0623  0.1462
 2179TIP3    H128096   1.283   3.289   6.794  0.1078 -1.2813  0.6294
 2179TIP3    H228097   1.200   3.180   6.730 -0.4223  0.7508 -2.2993
 2180TIP3   OH228098   1.499   3.993   0.527 -0.0705  0.2647  0.1380
 2180TIP3    H128099   1.466   3.927   0.589  0.7145 -0.0342  0.2513
 2180TIP3    H228100   1.594   3.994   0.542  0.2623 -0.5162 -1.7260
 2181TIP3   OH228101   4.981   2.724   1.551  0.2463 -0.1498  0.4290
 2181TIP3    H128102   4.979   2.806   1.502 -2.0396  0.4862  1.4704
 2181TIP3    H228103   5.056   2.734   1.610  0.5385  0.7978 -0.0768
 2182TIP3   OH228104   1.528   4.377   0.798  0.1197  0.5747 -0.1793
 2182TIP3    H128105   1.574   4.426   0.729 -0.1420  1.8856  0.5342
 2182TIP3    H228106   1.449   4.344   0.755  0.2361  0.8988 -0.6524
 2183TIP3   OH228107   0.372   2.268   7.490 -0.0548 -0.1500  0.4253
 2183TIP3    H128108   0.428   2.206   7.536 -0.5772 -0.5466  0.5415
 2183TIP3    H228109   0.333   2.321   7.560  1.4949  1.2995  0.2537
 2184TIP3   OH228110   4.845   4.071   0.534 -0.0750  0.1530 -0.1634
 2184TIP3    H128111   4.754   4.101   0.537 -0.6347 -1.3651 -0.9217
 2184TIP3    H228112   4.895   4.142   0.575 -1.3104  2.0858 -1.8201
 2185TIP3   OH228113   2.297   4.985   0.477  0.2971  0.1923  0.0086
 2185TIP3    H128114   2.202   4.993   0.476  0.2132 -0.6582  0.7633
 2185TIP3    H228115   2.321   4.987   0.570  1.0811  1.0406 -0.1922
 2186TIP3   OH228116   3.360   0.995   6.865  0.3196  0.3003 -0.3340
 2186TIP3    H128117   3.439   1.033   6.826 -0.8783  1.5234 -1.6854
 2186TIP3    H228118   3.374   1.005   6.960  1.0093  2.1959 -0.5812
 2187TIP3   OH228119   3.131   1.757   7.237  0.6983 -0.1232  0.0849
 2187TIP3    H128120   3.169   1.803   7.162  0.6319  0.4501  0.3981
 2187TIP3    H228121   3.201   1.756   7.302  0.3524  0.4819  0.4738
 2188TIP3   OH228122   1.280   3.305   8.430  0.0665  0.1584  0.2520
 2188TIP3    H128123   1.224   3.376   8.399 -0.6838 -0.2994  0.5227
 2188TIP3    H228124   1.243   3.226   8.390  0.6129 -0.1348  0.3134
 2189TIP3   OH228125   4.722   0.244   0.171  0.2134 -0.2043 -0.3683
 2189TIP3    H128126   4.638   0.288   0.182  1.1909  1.2678  2.1117
 2189TIP3    H228127   4.772   0.268   0.249  2.7481 -1.4698 -1.4789
 2190TIP3   OH228128   3.543   2.606   6.632 -0.0008 -0.2604 -0.1899
 2190TIP3    H128129   3.516   2.629   6.543  0.2697  0.6907 -0.0419
 2190TIP3    H228130   3.605   2.534   6.622 -1.2879 -1.3483 -0.6486
 2191TIP3   OH228131   0.092   6.331   7.280  0.3016  0.7644  0.0652
 2191TIP3    H128132   0.082   6.406   7.338 -0.2483  1.4976 -0.9595
 2191TIP3    H228133   0.020   6.338   7.219  0.1849 -0.6614 -0.0002
 2192TIP3   OH228134   4.752   1.062   1.904 -0.5096 -0.0088  0.0520
 2192TIP3    H128135   4.746   1.137   1.845 -0.5474 -1.0840 -1.3700
 2192TIP3    H228136   4.846   1.041   1.907 -0.5463 -0.1636  0.1225
 2193TIP3   OH228137   3.073   0.286   1.218 -0.2106 -0.0667  0.0067
 2193TIP3    H128138   3.087   0.336   1.298 -0.1652 -0.8076  0.4735
 2193TIP3    H228139   3.159   0.247   1.199 -0.4102 -0.5213  0.0342
 2194TIP3   OH228140   0.760   1.211   8.664 -0.8713  0.5131  0.0977
 2194TIP3    H128141   0.767   1.205   8.568 -1.2752  1.4878 -0.0025
 2194TIP3    H228142   0.746   1.304   8.681 -0.9466  0.3255  1.1030
 2195TIP3   OH228143   5.992   6.047   0.848 -0.4882 -0.0926  0.1752
 2195TIP3    H128144   6.015   6.005   0.931  0.2499  0.6663  0.3736
 2195TIP3    H228145   6.021   6.138   0.859 -2.9655  0.7638  0.1479
 2196TIP3   OH228146   3.696   2.440   0.456  0.3357 -0.0457  0.2244
 2196TIP3    H128147   3.624   2.446   0.393  1.0356  0.6714 -0.5341
 2196TIP3    H228148   3.653   2.432   0.541 -0.7122  2.8524  0.0722
 2197TIP3   OH228149   6.621   4.037   1.070  0.0854 -0.0343 -0.3956
 2197TIP3    H128150   6.532   4.071   1.061  0.1055 -0.2678 -1.6523
 2197TIP3    H228151   6.671   4.081   1.002  1.1040  0.5974  0.7380
 2198TIP3   OH228152   5.804   0.512   7.992  0.1665 -0.6652  0.4868
 2198TIP3    H128153   5.857   0.583   7.957  2.2426 -1.9222  0.9030
 2198TIP3    H228154   5.785   0.537   8.082  1.0233 -0.6927  0.6786
 2199TIP3   OH228155   1.105   3.822   8.149  0.7514  0.1382  0.0462
 2199TIP3    H128156   1.031   3.776   8.191  0.8323  0.5646  0.6704
 2199TIP3    H228157   1.182   3.790   8.195  0.9905 -0.4723 -0.7534
 2200TIP3   OH228158   6.476   2.565   7.568 -0.4048 -0.5113 -0.3670
 2200TIP3    H128159   6.486   2.585   7.661 -1.9059  0.9444 -0.4823
 2200TIP3    H228160   6.391   2.601   7.544  1.2228  2.0422 -3.0419
 2201TIP3   OH228161   5.325   0.105   6.863 -0.0650  0.3662  0.0191
 2201TIP3    H128162   5.250   0.145   6.908 -0.3289  1.1984 -1.1202
 2201TIP3    H228163   5.402   0.144   6.906 -0.3061  0.7761  0.0841
 2202TIP3   OH228164   5.222   3.381   7.016  0.1215  0.6701 -0.2570
 2202TIP3    H128165   5.315   3.401   7.001  0.0053 -0.1202 -2.4775
 2202TIP3    H228166   5.175   3.457   6.983 -0.0549  1.3345  1.4215
 2203TIP3   OH228167   3.168   6.652   8.409 -0.1571 -0.0779 -0.3930
 2203TIP3    H128168   3.251   6.700   8.413  0.4379 -0.8009 -2.6429
 2203TIP3    H228169   3.111   6.709   8.358 -0.8949  0.1556  0.6653
 2204TIP3   OH228170   6.671   3.251   1.414 -0.4780 -0.0997  0.2783
 2204TIP3    H128171   6.582   3.261   1.382 -1.7855 -1.7448  2.9936
 2204TIP3    H228172   6.661   3.236   1.508  2.7887  1.1211  0.9748
 2205TIP3   OH228173   5.427   0.662   0.454 -0.0823 -0.6374  0.3960
 2205TIP3    H128174   5.358   0.684   0.516 -0.3513 -0.4458  0.0351
 2205TIP3    H228175   5.504   0.708   0.486 -0.0341 -1.1285  0.9929
 2206TIP3   OH228176   0.162   2.682   8.371 -0.0496 -0.2252 -0.7560
 2206TIP3    H128177   0.114   2.671   8.452 -1.8500  0.9538 -1.5820
 2206TIP3    H228178   0.127   2.615   8.312 -0.6387  0.5555 -1.3242
 2207TIP3   OH228179   1.050   2.979   2.582 -0.4190  0.1937 -1.3318
 2207TIP3    H128180   1.137   3.019   2.576 -0.9111  1.2760 -1.5125
 2207TIP3    H228181   1.030   2.951   2.493 -0.4427  0.3477 -1.3742
 2208TIP3   OH228182   6.675   6.680   7.736  0.3292 -0.0575  0.8346
 2208TIP3    H128183   6.584   6.712   7.733  0.9811  1.8966  0.3063
 2208TIP3    H228184   6.687   6.635   7.653  0.2887  1.0404  0.2208
 2209TIP3   OH228185   5.862   3.472   1.473 -0.5963 -0.0350  0.0659
 2209TIP3    H128186   5.790   3.493   1.413  0.3637  0.1661 -1.0546
 2209TIP3    H228187   5.919   3.415   1.422  0.3402  0.2815  0.7360
 2210TIP3   OH228188   5.541   1.377   1.811 -0.4341  0.2127 -0.0219
 2210TIP3    H128189   5.467   1.420   1.853  0.7142  0.3911  1.9371
 2210TIP3    H228190   5.531   1.284   1.834 -0.5726  0.0955 -0.5596
 2211TIP3   OH228191   1.689   5.957   8.038 -0.5006 -0.6272 -0.5309
 2211TIP3    H128192   1.593   5.962   8.036 -0.4349  1.9432 -0.3071
 2211TIP3    H228193   1.712   5.984   8.127  0.4981  2.3853 -1.6014
 2212TIP3   OH228194   2.437   1.598   8.027 -0.0857 -0.2711  0.3163
 2212TIP3    H128195   2.453   1.619   8.119  1.2027 -2.0620  0.5494
 2212TIP3    H228196   2.342   1.606   8.017 -0.5057 -1.7731  2.3104
 2213TIP3   OH228197   2.510   1.351   7.912  0.0709  0.2816 -0.2671
 2213TIP3    H128198   2.432   1.329   7.860  0.3743  1.6129 -1.3317
 2213TIP3    H228199   2.478   1.412   7.978 -0.1834 -0.9017  0.7564
 2214TIP3   OH228200   1.379   1.042   1.582  0.0854  0.1322 -0.2017
 2214TIP3    H128201   1.448   1.108   1.571 -1.3231  1.4611 -1.4968
 2214TIP3    H228202   1.401   0.975   1.517 -0.1744  0.8635 -1.0603
 2215TIP3   OH228203   0.145   4.900   7.126  0.1157 -0.1247 -0.1584
 2215TIP3    H128204   0.207   4.844   7.079  1.7085  0.5380  1.0363
 2215TIP3    H228205   0.080   4.840   7.162  1.1065 -1.0904  0.0839
 2216TIP3   OH228206   4.014   2.059   0.592 -0.4642 -0.0287  0.0703
 2216TIP3    H128207   4.057   1.996   0.650 -0.5338 -0.7999 -0.7060
 2216TIP3    H228208   3.979   2.007   0.521 -2.4271  0.6176  0.4957
 2217TIP3   OH228209   0.660   5.503   6.569 -0.6128 -0.2140 -0.2313
 2217TIP3    H128210   0.584   5.530   6.517  0.3116  0.0078 -1.5174
 2217TIP3    H228211   0.672   5.574   6.632 -0.8258  0.2924 -0.7473
 2218TIP3   OH228212   4.963   1.329   1.287  0.3613 -0.2022  0.4503
 2218TIP3    H128213   4.920   1.368   1.364  1.3601  2.9631 -0.4365
 2218TIP3    H228214   4.913   1.361   1.213  1.2531 -0.6577 -0.3654
 2219TIP3   OH228215   0.327   3.783   0.455 -0.2281 -0.1449 -0.1237
 2219TIP3    H128216   0.232   3.775   0.466 -0.2776  0.5619  0.0020
 2219TIP3    H228217   0.344   3.749   0.367 -1.1212  3.1933 -1.7658
 2220TIP3   OH228218   4.390   3.721   1.903 -0.3430 -0.2243 -0.1303
 2220TIP3    H128219   4.475   3.678   1.891 -0.4236 -0.4276  0.0311
 2220TIP3    H228220   4.367   3.705   1.994 -0.3950  0.1229 -0.0839
 2221TIP3   OH228221   2.067   2.311   0.963 -0.1285  0.1768 -0.6672
 2221TIP3    H128222   2.034   2.288   1.050  1.6740 -0.3806 -0.0703
 2221TIP3    H228223   1.992   2.300   0.905 -0.8863 -1.4434  0.5245
 2222TIP3   OH228224   0.122   3.016   2.065 -0.5638  0.0836 -0.3052
 2222TIP3    H128225   0.174   2.974   1.996 -0.0658 -1.3598  0.9164
 2222TIP3    H228226   0.032   2.988   2.047 -0.4303 -0.3268 -0.3501
 2223TIP3   OH228227   3.902   0.971   2.366  0.2876  0.0054  0.0122
 2223TIP3    H128228   3.973   1.008   2.418  0.1222 -0.5596  0.6564
 2223TIP3    H228229   3.902   0.878   2.389  0.6822 -0.4144 -1.5468
 2224TIP3   OH228230   3.086   3.160   6.598  0.0938  0.3168  0.4768
 2224TIP3    H128231   3.018   3.144   6.533  0.6346 -0.7497  0.1546
 2224TIP3    H228232   3.071   3.093   6.665  1.4208 -0.5655 -0.0835
 2225TIP3   OH228233   0.427   0.602   7.507 -0.3148 -0.3782  0.0596
 2225TIP3    H128234   0.467   0.585   7.592 -0.6722 -2.8198 -0.1823
 2225TIP3    H228235   0.333   0.594   7.523 -0.3628 -1.3459 -0.6298
 2226TIP3   OH228236   0.163   4.725   8.062  0.1472 -0.3187  0.1002
 2226TIP3    H128237   0.086   4.710   8.007 -0.2850 -0.4943  0.7427
 2226TIP3    H228238   0.169   4.820   8.068  0.0411 -0.3024 -0.0393
 2227TIP3   OH228239   1.881   5.321   7.458  0.7499 -0.3221 -0.0566
 2227TIP3    H128240   1.816   5.286   7.519  1.3000 -0.3647  0.5256
 2227TIP3    H228241   1.831   5.347   7.381 -0.3637  2.0076  1.3304
 2228TIP3   OH228242   5.929   3.315   0.096 -0.8260  0.0419 -0.3137
 2228TIP3    H128243   5.910   3.364   0.016 -0.8572 -0.0107 -0.3388
 2228TIP3    H228244   6.024   3.318   0.104 -0.4702 -2.7352 -2.1538
 2229TIP3   OH228245   3.855   5.677   7.473  0.0817 -0.2883  0.4143
 2229TIP3    H128246   3.841   5.772   7.482 -2.0682 -0.5599  0.4536
 2229TIP3    H228247   3.782   5.647   7.420 -0.1760 -2.1649  1.7411
 2230TIP3   OH228248   1.496   1.113   1.177 -0.4065 -0.2029  0.6291
 2230TIP3    H128249   1.437   1.188   1.163 -0.5741 -0.2182  1.2287
 2230TIP3    H228250   1.440   1.036   1.166 -0.3670 -0.2292  0.6129
 2231TIP3   OH228251   2.742   1.212   6.577  0.8865  0.3973 -0.3660
 2231TIP3    H128252   2.654   1.184   6.553  1.3939 -1.2245 -0.4230
 2231TIP3    H228253   2.733   1.305   6.597 -0.7012  0.4091 -1.0211
 2232TIP3   OH228254   3.476   4.584   7.615  0.0558 -0.2758 -0.3665
 2232TIP3    H128255   3.473   4.631   7.532 -0.8983  1.3659  0.5536
 2232TIP3    H228256   3.565   4.549   7.620  0.6662  1.0708 -1.2871
 2233TIP3   OH228257   4.945   3.711   7.680 -0.2647  0.0799  0.2977
 2233TIP3    H128258   4.924   3.802   7.702 -1.0931  0.2382 -1.0211
 2233TIP3    H228259   4.941   3.708   7.584  1.1249 -1.0333  0.2449
 2234TIP3   OH228260   4.956   0.858   8.285  0.2695  0.1988  0.1043
 2234TIP3    H128261   4.926   0.827   8.200 -1.3304  0.0089  0.7028
 2234TIP3    H228262   5.027   0.799   8.309  0.2910 -0.1490 -0.8100
 2235TIP3   OH228263   1.246   3.586   1.978 -0.3599 -0.0546  0.8354
 2235TIP3    H128264   1.335   3.575   1.942 -0.2164  1.3704  0.7268
 2235TIP3    H228265   1.194   3.522   1.930  0.3172  0.1292 -0.1935
 2236TIP3   OH228266   2.638   0.306   7.261 -0.0088 -0.2101  0.1247
 2236TIP3    H128267   2.606   0.300   7.170 -0.7039 -0.9490  0.3985
 2236TIP3    H228268   2.714   0.363   7.256 -1.2445  1.4375 -0.6040
 2237TIP3   OH228269   1.168   1.878   0.927  0.1343  0.0570  0.0070
 2237TIP3    H128270   1.096   1.905   0.869  0.9229  2.1125 -0.0908
 2237TIP3    H228271   1.234   1.843   0.868 -0.3048 -0.7476 -0.0168
 2238TIP3   OH228272   2.374   5.583   0.519  0.0144 -0.0973  0.3201
 2238TIP3    H128273   2.381   5.528   0.597 -0.0406 -0.4295  0.0922
 2238TIP3    H228274   2.308   5.539   0.465 -0.9784  0.8648  0.6981
 2239TIP3   OH228275   6.295   2.975   6.939 -0.2128 -0.5827 -0.2387
 2239TIP3    H128276   6.305   2.894   6.989  1.7790  0.5379  1.3240
 2239TIP3    H228277   6.202   2.998   6.950 -1.1998 -3.2476 -1.8645
 2240TIP3   OH228278   3.070   2.475   7.890 -0.3043 -0.1995 -0.1112
 2240TIP3    H128279   3.024   2.516   7.963  1.1620  0.9712  0.2070
 2240TIP3    H228280   3.055   2.535   7.816  0.0393 -0.2203 -0.1995
 2241TIP3   OH228281   6.463   2.111   8.112  0.0466 -0.6732 -0.7150
 2241TIP3    H128282   6.440   2.099   8.020  1.2450 -1.4600 -0.9322
 2241TIP3    H228283   6.449   2.025   8.152  0.4300 -0.5832 -0.3793
 2242TIP3   OH228284   3.779   3.862   7.884  0.0972  0.0692  0.5376
 2242TIP3    H128285   3.723   3.788   7.904  1.9974 -1.5739  0.0980
 2242TIP3    H228286   3.752   3.930   7.946 -3.5795  0.1076 -0.8611
 2243TIP3   OH228287   6.010   2.270   1.164  0.7620 -0.0175  0.3539
 2243TIP3    H128288   5.946   2.308   1.104  1.1035  1.9873  1.1809
 2243TIP3    H228289   6.013   2.177   1.140 -0.3003  0.3970 -1.6194
 2244TIP3   OH228290   0.322   0.250   1.115  0.0320 -0.3157  0.1802
 2244TIP3    H128291   0.364   0.270   1.198 -0.7521 -0.4398  0.6186
 2244TIP3    H228292   0.283   0.163   1.128 -2.4593  0.7772  0.6758
 2245TIP3   OH228293   0.658   3.524   7.635 -0.3308 -0.4611  0.0986
 2245TIP3    H128294   0.728   3.495   7.577 -0.0984 -0.5241  0.4031
 2245TIP3    H228295   0.704   3.556   7.713 -0.5045  1.8030 -0.6604
 2246TIP3   OH228296   3.454   5.046   1.745  0.1170 -0.4156  0.2447
 2246TIP3    H128297   3.504   4.965   1.737 -0.0758 -0.4187 -1.2147
 2246TIP3    H228298   3.491   5.104   1.678 -0.6468  0.2111  0.3485
 2247TIP3   OH228299   6.866   0.985   8.514 -0.1004  0.0390  0.0111
 2247TIP3    H128300   6.781   0.998   8.557  0.1314  0.5967  0.3160
 2247TIP3    H228301   6.860   0.898   8.475 -0.6965 -0.0569  0.3009
 2248TIP3   OH228302   5.042   4.883   0.010  0.2297 -0.6990 -0.3117
 2248TIP3    H128303   5.009   4.849   0.093 -2.0165  0.2460 -0.7575
 2248TIP3    H228304   5.013   4.820  -0.056  0.3611 -0.4564 -0.6059
 2249TIP3   OH228305   3.240   6.303   0.530  0.6117  0.7313  0.2491
 2249TIP3    H128306   3.155   6.260   0.531  1.8406 -2.1782 -2.4519
 2249TIP3    H228307   3.230   6.377   0.471  0.1780 -0.2635 -0.9606
 2250TIP3   OH228308   0.138   3.574   7.005 -0.3552 -0.3580 -0.2145
 2250TIP3    H128309   0.054   3.607   7.038  0.5979  1.2269  0.7432
 2250TIP3    H228310   0.202   3.637   7.036  0.9385 -0.1019 -3.1240
 2251TIP3   OH228311   6.709   4.206   1.770  0.2829  0.1776 -0.7132
 2251TIP3    H128312   6.724   4.241   1.858  0.7756 -1.5692 -0.0581
 2251TIP3    H228313   6.660   4.125   1.785  0.8581 -0.4258 -2.0020
 2252TIP3   OH228314   2.469   4.137   0.053 -0.2766 -0.0612 -0.8189
 2252TIP3    H128315   2.535   4.176  -0.004 -0.5435  0.4036 -0.8152
 2252TIP3    H228316   2.462   4.046   0.024 -1.1619  0.4234 -2.2370
 2253TIP3   OH228317   0.425   0.323   2.537 -0.0565  0.2886 -0.3202
 2253TIP3    H128318   0.508   0.277   2.551  0.1479  0.6723 -0.2610
 2253TIP3    H228319   0.427   0.396   2.600  0.2110  1.1603 -1.3117
 2254TIP3   OH228320   4.258   2.247   7.774 -0.3969  0.1727  0.0018
 2254TIP3    H128321   4.305   2.327   7.751 -1.3116  1.2463  1.6231
 2254TIP3    H228322   4.174   2.255   7.730 -0.0988 -0.4348 -0.6975
 2255TIP3   OH228323   0.412   5.540   6.462 -0.0387 -0.1907 -0.2741
 2255TIP3    H128324   0.337   5.598   6.451 -0.0437 -0.3489 -1.1346
 2255TIP3    H228325   0.383   5.475   6.525  0.3914  1.4369  1.7238
 2256TIP3   OH228326   1.572   4.927   0.004 -0.0766 -0.2416  0.8448
 2256TIP3    H128327   1.561   5.014  -0.034 -0.4588 -0.5921  0.1151
 2256TIP3    H228328   1.666   4.911   0.002 -0.1660 -0.9826 -1.7552
 2257TIP3   OH228329   3.724   6.660   8.459  0.8059 -0.9439 -0.2762
 2257TIP3    H128330   3.780   6.597   8.504  0.4580 -1.6078 -0.7462
 2257TIP3    H228331   3.781   6.735   8.441  0.8522 -0.4814  1.6044
 2258TIP3   OH228332   2.342   2.765   7.104  0.4297 -0.2060 -0.5128
 2258TIP3    H128333   2.344   2.860   7.109 -0.5030 -0.1816 -0.4074
 2258TIP3    H228334   2.418   2.736   7.155 -0.9864  0.4158  2.1153
 2259TIP3   OH228335   4.452   3.775   8.422 -1.0435 -0.2312  0.0382
 2259TIP3    H128336   4.373   3.733   8.388 -1.5100 -1.6648  2.6154
 2259TIP3    H228337   4.420   3.835   8.490  0.0145 -0.1797  0.5143
 2260TIP3   OH228338   4.123   5.607   7.104 -0.2905 -0.5362 -0.1089
 2260TIP3    H128339   4.212   5.592   7.072  0.4564 -0.2283  1.7109
 2260TIP3    H228340   4.122   5.569   7.192 -1.6428  0.3932  0.3071
 2261TIP3   OH228341   0.537   6.123   6.848 -0.0113 -0.0904  0.8573
 2261TIP3    H128342   0.512   6.070   6.923  0.3027 -0.8487  0.4335
 2261TIP3    H228343   0.628   6.148   6.865 -0.3393  0.8249  1.3401
 2262TIP3   OH228344   3.039   4.241   1.461 -0.1315 -0.2339 -0.1987
 2262TIP3    H128345   3.021   4.153   1.494  0.1134  0.2870  1.4217
 2262TIP3    H228346   3.066   4.291   1.538 -1.0463  1.4891 -0.9277
 2263TIP3   OH228347   6.727   1.270   8.576  0.1566  0.1912  0.3159
 2263TIP3    H128348   6.694   1.186   8.606 -0.1161  1.0121  2.4575
 2263TIP3    H228349   6.724   1.327   8.653  2.9923  1.3877 -0.3229
 2264TIP3   OH228350   4.660   0.886   7.738 -0.6738 -0.2120  0.4474
 2264TIP3    H128351   4.631   0.971   7.772  0.9889  0.8848 -0.7228
 2264TIP3    H228352   4.666   0.899   7.643  0.2122 -1.4436  0.3195
 2265TIP3   OH228353   2.545   6.669   8.356  0.0363  0.2273 -0.4538
 2265TIP3    H128354   2.451   6.649   8.356 -0.3583  1.8929  0.0014
 2265TIP3    H228355   2.581   6.613   8.425 -0.5730 -0.6051 -0.7919
 2266TIP3   OH228356   0.967   2.478   7.913 -0.3146  0.7054  0.0490
 2266TIP3    H128357   1.006   2.472   8.000 -1.4966  0.8094  0.6048
 2266TIP3    H228358   0.877   2.509   7.929 -1.4446 -1.8106 -0.9496
 2267TIP3   OH228359   5.914   4.911   8.186  0.3562 -0.3053  0.1187
 2267TIP3    H128360   5.835   4.943   8.144  0.0201 -2.3364 -0.9480
 2267TIP3    H228361   5.891   4.902   8.278 -0.6333 -0.7549 -0.1632
 2268TIP3   OH228362   0.616   3.726   0.961  0.3555  0.3718  0.1732
 2268TIP3    H128363   0.710   3.716   0.978  0.4451 -1.1691 -0.9947
 2268TIP3    H228364   0.610   3.751   0.869 -0.3476  1.7999  0.5903
 2269TIP3   OH228365   5.298   5.485   7.509  1.1728 -0.2087  0.7361
 2269TIP3    H128366   5.365   5.534   7.556  0.3388 -0.0110  1.7535
 2269TIP3    H228367   5.296   5.524   7.422  0.1772  1.9733  1.6632
 2270TIP3   OH228368   4.325   0.289   0.952 -0.0220  0.3166  0.0396
 2270TIP3    H128369   4.395   0.229   0.977 -1.0726 -1.8506 -1.8150
 2270TIP3    H228370   4.354   0.326   0.869 -0.9009 -0.3859 -0.6006
 2271TIP3   OH228371   4.797   5.290   8.266  0.2034 -0.2505  0.0424
 2271TIP3    H128372   4.845   5.357   8.316  0.8962  0.0850 -1.0355
 2271TIP3    H228373   4.834   5.207   8.298  0.8512 -0.0305 -0.1122
 2272TIP3   OH228374   1.248   3.160   0.553  0.2767 -0.6950 -0.5030
 2272TIP3    H128375   1.201   3.103   0.614 -0.4463 -0.3199 -0.7020
 2272TIP3    H228376   1.316   3.202   0.607  0.6772 -1.5741 -0.3126
 2273TIP3   OH228377   2.590   3.538   7.659  0.1485 -0.4975  0.3704
 2273TIP3    H128378   2.608   3.571   7.570  0.7022  0.0944  0.6914
 2273TIP3    H228379   2.502   3.502   7.654 -0.2028  0.4036 -0.1789
 2274TIP3   OH228380   1.369   4.994   1.730  0.3803  0.2128  0.5318
 2274TIP3    H128381   1.290   4.941   1.718 -0.3181  1.6736 -1.9464
 2274TIP3    H228382   1.351   5.046   1.809 -0.0016 -1.3064  1.4806
 2275TIP3   OH228383   1.171   4.944   2.351  0.2463 -0.3357 -0.5078
 2275TIP3    H128384   1.207   4.858   2.329  0.1939 -0.8641  1.3435
 2275TIP3    H228385   1.234   4.980   2.413 -0.8454  0.0386  0.3973
 2276TIP3   OH228386   0.937   3.883   1.122  0.1205 -0.1409  0.0098
 2276TIP3    H128387   0.995   3.816   1.086  1.4458  0.6090  0.6578
 2276TIP3    H228388   0.865   3.834   1.161 -0.2529 -1.0605 -1.7232
 2277TIP3   OH228389   4.057   5.926   6.819 -0.5857  0.0528 -0.9766
 2277TIP3    H128390   4.143   5.916   6.778  0.1238 -0.8358  0.6259
 2277TIP3    H228391   4.044   6.020   6.824  0.9347  0.2517 -0.0466
 2278TIP3   OH228392   1.730   4.922   2.226  0.3100  0.4655  0.6398
 2278TIP3    H128393   1.675   4.991   2.190  0.5881  1.1007  1.4066
 2278TIP3    H228394   1.815   4.935   2.184 -0.3649 -1.1799 -1.3663
 2279TIP3   OH228395   6.257   2.743   7.090  0.4060  0.3507 -0.0653
 2279TIP3    H128396   6.172   2.700   7.097  0.1359  0.7127 -0.9840
 2279TIP3    H228397   6.317   2.674   7.060  0.1933  0.3743 -0.5379
 2280TIP3   OH228398   5.247   1.163   1.921 -0.3563  0.1185 -0.0643
 2280TIP3    H128399   5.341   1.153   1.937 -0.7261 -1.0797  1.6689
 2280TIP3    H228400   5.218   1.227   1.987 -0.8835 -0.0945 -0.0833
 2281TIP3   OH228401   4.236   5.723   1.094  0.0611 -0.4975  0.2611
 2281TIP3    H128402   4.290   5.749   1.169 -0.2064  1.6686 -0.2373
 2281TIP3    H228403   4.262   5.633   1.075 -0.5760 -1.5194  3.5727
 2282TIP3   OH228404   1.620   5.432   8.261  0.3326  0.6012  0.5720
 2282TIP3    H128405   1.566   5.439   8.340 -0.4071 -0.0815  0.1497
 2282TIP3    H228406   1.606   5.515   8.215  0.6594  0.9455  1.0933
 2283TIP3   OH228407   5.583   1.498   2.244  0.8307  0.3815 -0.6201
 2283TIP3    H128408   5.640   1.425   2.268 -0.2576  0.4731  2.7778
 2283TIP3    H228409   5.595   1.563   2.313  0.0655  2.4883 -2.3269
 2284TIP3   OH228410   1.825   3.698   0.772  0.1261  0.1537  0.3407
 2284TIP3    H128411   1.874   3.752   0.710 -1.4266  0.0411 -1.0639
 2284TIP3    H228412   1.746   3.673   0.725 -2.1805  1.7460  2.9876
 2285TIP3   OH228413   0.266   4.537   0.238 -0.5630 -0.4077 -0.0003
 2285TIP3    H128414   0.317   4.599   0.290 -1.2079 -0.6883  0.9982
 2285TIP3    H228415   0.193   4.512   0.295 -2.0060  0.2235 -1.4973
 2286TIP3   OH228416   5.829   4.238   8.097  0.3586 -0.2478  0.2207
 2286TIP3    H128417   5.767   4.179   8.054 -0.1828  0.4657  0.0025
 2286TIP3    H228418   5.862   4.187   8.172 -0.7462 -0.5215  0.5454
 2287TIP3   OH228419   3.915   0.543   6.989 -0.1883 -0.6251  0.3319
 2287TIP3    H128420   3.917   0.575   6.898  1.4110 -1.1761  0.1466
 2287TIP3    H228421   3.922   0.623   7.042 -0.0196 -0.3846 -0.0456
 2288TIP3   OH228422   0.487   3.417   0.383  0.3672 -0.1264  0.0212
 2288TIP3    H128423   0.509   3.361   0.458 -0.9686  0.6804  1.0772
 2288TIP3    H228424   0.419   3.476   0.417 -1.7368 -1.0052 -2.3419
 2289TIP3   OH228425   5.819   2.715   1.989 -0.2373 -0.1283 -0.2730
 2289TIP3    H128426   5.848   2.760   2.069 -0.3595  1.1634 -0.9333
 2289TIP3    H228427   5.896   2.711   1.934 -0.5741  0.5961 -0.8091
 2290TIP3   OH228428   5.529   0.568   1.479  0.3404  0.8270 -0.0180
 2290TIP3    H128429   5.489   0.568   1.566 -1.0128  1.8637 -0.6148
 2290TIP3    H228430   5.527   0.476   1.452  1.2833  0.4006  1.2412
 2291TIP3   OH228431   5.783   0.251   0.825  0.5810  0.3698 -0.5174
 2291TIP3    H128432   5.744   0.287   0.746 -1.0651  0.3609  0.2518
 2291TIP3    H228433   5.756   0.312   0.894  1.7617  0.2342  0.0822
 2292TIP3   OH228434   2.562   6.419   8.552  0.0921 -0.0878  0.2474
 2292TIP3    H128435   2.644   6.370   8.552 -0.1670 -0.5288  0.3573
 2292TIP3    H228436   2.554   6.453   8.641 -0.4794 -1.1351  0.6099
 2293TIP3   OH228437   6.708   5.325   2.046 -0.0383  0.3221  0.1788
 2293TIP3    H128438   6.754   5.297   2.125 -2.0862 -1.0321  0.9525
 2293TIP3    H228439   6.697   5.245   1.994 -0.8000  0.7641 -0.3643
 2294TIP3   OH228440   5.631   1.328   7.092  0.0244 -1.1410 -0.2572
 2294TIP3    H128441   5.560   1.391   7.077  0.9131 -0.5223 -2.2381
 2294TIP3    H228442   5.619   1.262   7.024  0.6893 -1.6158  0.0805
 2295TIP3   OH228443   5.758   5.861   7.444  0.2338  0.3044  0.4283
 2295TIP3    H128444   5.685   5.920   7.425 -0.1419 -0.4389 -0.5243
 2295TIP3    H228445   5.829   5.890   7.387  0.0885 -0.0726  0.0477
 2296TIP3   OH228446   5.886   6.338   1.051 -0.1391  0.7059  0.0763
 2296TIP3    H128447   5.855   6.285   0.977 -0.3536  0.5180  0.2988
 2296TIP3    H228448   5.898   6.426   1.015 -0.3314  0.6359 -0.1586
 2297TIP3   OH228449   0.734   4.750   1.403 -0.2414  0.4635  0.0945
 2297TIP3    H128450   0.693   4.737   1.317 -1.3068  1.9935  0.3409
 2297TIP3    H228451   0.818   4.793   1.384 -0.0694  0.0001 -0.2199
 2298TIP3   OH228452   0.896   1.208   0.284 -0.3446 -0.4069  0.0415
 2298TIP3    H128453   0.871   1.171   0.199  0.2698  1.5331 -1.0552
 2298TIP3    H228454   0.813   1.227   0.327 -0.6704 -2.1617  0.2828
 2299TIP3   OH228455   3.022   3.075   1.556  0.2218  0.6610 -0.0317
 2299TIP3    H128456   2.989   3.067   1.645 -0.2672 -0.4284 -0.2943
 2299TIP3    H228457   3.044   2.986   1.530 -0.1605  0.8857 -1.1884
 2300TIP3   OH228458   5.145   0.787   7.517  0.4603  0.0674  0.3731
 2300TIP3    H128459   5.170   0.866   7.469  3.3395 -1.1162 -0.2387
 2300TIP3    H228460   5.228   0.745   7.541 -0.9500 -2.2223  1.6682
 2301TIP3   OH228461   1.148   1.579   1.531  0.0214 -0.0430  0.5260
 2301TIP3    H128462   1.218   1.614   1.586  0.3467  1.2100 -0.6471
 2301TIP3    H228463   1.105   1.657   1.495 -0.7446 -0.8321 -0.2988
 2302TIP3   OH228464   1.395   2.462   7.791 -0.0609  0.0989 -0.5586
 2302TIP3    H128465   1.449   2.503   7.723 -2.1987  2.6467 -0.8561
 2302TIP3    H228466   1.357   2.535   7.839  0.4586 -1.6140  2.7455
 2303TIP3   OH228467   6.307   0.446   7.853  0.3689 -0.1978 -0.1231
 2303TIP3    H128468   6.242   0.429   7.922 -0.5632 -0.0183 -0.9372
 2303TIP3    H228469   6.391   0.440   7.898 -0.1382 -1.6570  0.7205
 2304TIP3   OH228470   0.987   3.727   7.205 -0.4048  0.3247  0.2097
 2304TIP3    H128471   1.082   3.724   7.194 -0.2790  0.8244  1.0800
 2304TIP3    H228472   0.952   3.738   7.117  0.4770  2.8591  0.1089
 2305TIP3   OH228473   6.657   1.469   7.389  0.3650 -0.2985 -0.2355
 2305TIP3    H128474   6.692   1.380   7.398 -2.1248 -1.2307  1.2626
 2305TIP3    H228475   6.606   1.466   7.308 -1.4870 -0.9891  0.8807
 2306TIP3   OH228476   4.441   3.873   0.179  0.0553 -0.4263 -0.0593
 2306TIP3    H128477   4.431   3.888   0.273 -1.3056  0.3453 -0.3003
 2306TIP3    H228478   4.535   3.882   0.163  0.3177 -0.6718  1.2347
 2307TIP3   OH228479   5.763   0.548   7.498 -0.1103  0.3566  0.1842
 2307TIP3    H128480   5.851   0.575   7.472 -1.5700  3.4311 -2.1099
 2307TIP3    H228481   5.778   0.490   7.573  3.9095 -0.9653 -1.3531
 2308TIP3   OH228482   3.720   6.005   7.836  0.2921 -0.2286 -0.0903
 2308TIP3    H128483   3.814   6.023   7.825  0.1473  0.8149  0.3404
 2308TIP3    H228484   3.702   5.938   7.770  1.3251 -0.3962 -0.2301
 2309TIP3   OH228485   2.742   3.207   0.015  0.4445  0.7375  0.0705
 2309TIP3    H128486   2.827   3.230  -0.023  0.1513  1.9552  0.1128
 2309TIP3    H228487   2.679   3.246  -0.045 -0.1976 -2.1261 -1.2795
 2310TIP3   OH228488   3.415   3.664   1.022 -0.2146 -0.4636  0.1488
 2310TIP3    H128489   3.371   3.641   0.941 -0.1959  0.4891 -0.1514
 2310TIP3    H228490   3.375   3.609   1.088 -2.5611  1.0123  0.0736
 2311TIP3   OH228491   5.785   4.037   8.501  0.0720  1.0790  0.1185
 2311TIP3    H128492   5.755   4.125   8.522  0.4068  1.4744 -0.9831
 2311TIP3    H228493   5.869   4.029   8.547  0.2384  1.4932 -0.1045
 2312TIP3   OH228494   6.350   3.888   0.563  0.1129 -0.4298  0.5692
 2312TIP3    H128495   6.320   3.867   0.475 -0.1570 -0.9747  0.7864
 2312TIP3    H228496   6.417   3.954   0.550  1.0271 -1.4567 -0.1402
 2313TIP3   OH228497   2.536   3.631   7.125  0.0829 -0.6363  0.2023
 2313TIP3    H128498   2.533   3.723   7.098 -2.3916 -0.8553 -0.5114
 2313TIP3    H228499   2.538   3.582   7.043  1.8269 -1.2649  0.5785
 2314TIP3   OH228500   5.438   4.411   7.528 -0.1956  0.7042  0.2594
 2314TIP3    H128501   5.445   4.342   7.594  0.7710  0.1049 -0.4337
 2314TIP3    H228502   5.344   4.424   7.516 -0.3800  0.4060  1.3205
 2315TIP3   OH228503   3.747   4.549   1.771  0.3394  0.1275  0.1336
 2315TIP3    H128504   3.659   4.587   1.779  0.2661  0.2809 -1.0941
 2315TIP3    H228505   3.800   4.620   1.736  0.6527 -0.3198 -0.3201
 2316TIP3   OH228506   3.954   1.177   6.371  0.4284  0.4448 -0.1545
 2316TIP3    H128507   3.974   1.094   6.413  2.4926  0.6798 -0.5484
 2316TIP3    H228508   3.876   1.160   6.319  0.3789 -1.0258  0.3550
 2317TIP3   OH228509   2.563   5.971   2.452 -0.5896  0.1668 -0.4034
 2317TIP3    H128510   2.479   5.998   2.491 -1.7722 -0.3247 -2.4832
 2317TIP3    H228511   2.587   6.043   2.395  0.4748  0.3285  0.2240
 2318TIP3   OH228512   3.640   6.284   1.383  0.0568 -0.6567  0.0921
 2318TIP3    H128513   3.615   6.284   1.476  1.2353 -1.9436  0.4355
 2318TIP3    H228514   3.734   6.298   1.383 -0.1035  0.5905 -1.0036
 2319TIP3   OH228515   3.244   3.724   2.324  0.0184  0.2406 -0.4746
 2319TIP3    H128516   3.194   3.799   2.291  0.4438  0.9113  0.3727
 2319TIP3    H228517   3.179   3.653   2.330 -1.1183  1.3727  1.5799
 2320TIP3   OH228518   3.033   3.286   7.675  0.5192 -0.0049  0.1147
 2320TIP3    H128519   3.050   3.328   7.760 -1.8543  0.1957  0.5482
 2320TIP3    H228520   2.999   3.357   7.621  0.9848 -0.3829 -0.6827
 2321TIP3   OH228521   2.003   4.595   1.332  0.1443 -0.0286  0.1415
 2321TIP3    H128522   2.010   4.632   1.244 -1.3858 -1.2906 -0.5695
 2321TIP3    H228523   1.944   4.654   1.378 -0.8670 -0.5730 -0.4241
 2322TIP3   OH228524   5.568   4.237   1.548 -0.0645  0.2069 -0.2848
 2322TIP3    H128525   5.561   4.329   1.571  1.2275  0.5585 -1.2188
 2322TIP3    H228526   5.579   4.192   1.632  2.4011  1.2438  0.0197
 2323TIP3   OH228527   2.052   1.658   0.622 -0.0619  0.4465 -0.2924
 2323TIP3    H128528   2.112   1.595   0.664  1.3307  1.6011 -0.4755
 2323TIP3    H228529   2.039   1.726   0.688 -0.2461  0.7820 -0.6757
 2324TIP3   OH228530   5.073   3.623   7.907  0.4413  0.0233 -0.6744
 2324TIP3    H128531   5.030   3.649   7.826  3.4663  2.3259 -1.7336
 2324TIP3    H228532   5.008   3.638   7.975 -1.4410  0.1871 -2.4308
 2325TIP3   OH228533   0.786   0.040   0.967  0.1417 -0.2697  0.0097
 2325TIP3    H128534   0.771   0.134   0.981 -3.1913 -1.0325  2.9685
 2325TIP3    H228535   0.766  -0.000   1.052  2.2421 -3.6727 -0.9116
 2326TIP3   OH228536   6.835   6.443   0.890 -0.3744 -0.6347  0.3710
 2326TIP3    H128537   6.890   6.472   0.964  1.1741 -2.9181  0.2563
 2326TIP3    H228538   6.890   6.458   0.813  0.2158 -2.9429  0.2525
 2327TIP3   OH228539   1.662   0.992   8.286 -0.1639  0.6067  0.0387
 2327TIP3    H128540   1.624   1.005   8.373  0.4289  0.1460  0.3651
 2327TIP3    H228541   1.747   1.035   8.291 -0.1498  0.6226 -0.3361
 2328TIP3   OH228542   0.057   2.525   0.133  0.1150 -0.0991  0.0395
 2328TIP3    H128543   0.143   2.524   0.175  0.6581  0.6440 -0.9939
 2328TIP3    H228544   0.014   2.602   0.168  1.0935  1.3087 -1.6901
 2329TIP3   OH228545   2.603   2.683   8.262 -0.9321  0.7853  0.0662
 2329TIP3    H128546   2.595   2.733   8.343 -1.0681  0.2193  0.4084
 2329TIP3    H228547   2.565   2.598   8.282  1.4724 -0.3352  0.2564
 2330TIP3   OH228548   3.772   0.779   1.960  0.0295 -0.6119  0.0666
 2330TIP3    H128549   3.746   0.827   1.882 -0.1670  0.1670  0.6074
 2330TIP3    H228550   3.846   0.726   1.931 -0.2013 -0.5257 -0.7100
 2331TIP3   OH228551   0.027   3.922   1.848  0.0950  0.2317  0.4021
 2331TIP3    H128552   0.070   3.988   1.794  1.9643  0.0567  1.5790
 2331TIP3    H228553  -0.002   3.970   1.925  0.4002 -0.1015  0.7261
 2332TIP3   OH228554   4.854   3.728   1.147  0.3187  0.2582 -0.5381
 2332TIP3    H128555   4.812   3.782   1.213  2.1819  0.7156  0.3255
 2332TIP3    H228556   4.930   3.690   1.191  0.8203 -0.5492 -2.0201
 2333TIP3   OH228557   4.468   3.825   0.674 -0.1069  0.3332 -0.2283
 2333TIP3    H128558   4.462   3.751   0.735  0.9343  1.0126  0.7515
 2333TIP3    H228559   4.431   3.898   0.723 -2.0823  0.2890 -1.5656
 2334TIP3   OH228560   5.777   5.059   0.658 -0.4319 -0.1780  0.0050
 2334TIP3    H128561   5.746   4.978   0.618  0.5241 -0.0029 -1.1410
 2334TIP3    H228562   5.716   5.126   0.627 -0.9680 -0.3778  0.6064
 2335TIP3   OH228563   6.509   4.951   8.499 -0.2251  0.6520 -0.1592
 2335TIP3    H128564   6.588   5.001   8.517  0.3134 -0.4220  0.5937
 2335TIP3    H228565   6.506   4.946   8.403  0.6822  0.6290 -0.2029
 2336TIP3   OH228566   5.555   5.307   1.733 -0.0854 -0.0986 -0.3293
 2336TIP3    H128567   5.644   5.332   1.706 -0.6785  0.2896 -2.0222
 2336TIP3    H228568   5.569   5.237   1.797  1.4730  1.0505  0.6845
 2337TIP3   OH228569   4.810   6.447   1.850 -0.6687 -0.3002 -0.0103
 2337TIP3    H128570   4.791   6.377   1.787 -1.7709  1.0615 -1.2399
 2337TIP3    H228571   4.856   6.513   1.799 -3.4319  1.7808 -0.0317
 2338TIP3   OH228572   0.485   1.911   7.333 -0.8106  0.0095  0.0461
 2338TIP3    H128573   0.436   1.936   7.412 -1.2981  0.9518 -0.5378
 2338TIP3    H228574   0.501   1.817   7.344 -2.4036 -0.2532  0.4525
 2339TIP3   OH228575   3.405   2.194   0.054 -0.1160  0.5331 -0.0130
 2339TIP3    H128576   3.456   2.125   0.097 -1.5282  1.3282  3.1624
 2339TIP3    H228577   3.388   2.159  -0.034  4.1104 -0.6017 -0.6204
 2340TIP3   OH228578   0.125   0.273   7.039 -0.0201 -0.1118 -0.0331
 2340TIP3    H128579   0.124   0.215   6.963  1.9994  2.9705 -2.6924
 2340TIP3    H228580   0.041   0.319   7.035 -0.4573 -0.8506  0.4261
 2341TIP3   OH228581   3.592   6.445   6.952  0.0515 -0.4045  0.2428
 2341TIP3    H128582   3.665   6.498   6.982  0.8962 -0.5756 -1.4192
 2341TIP3    H228583   3.538   6.504   6.899  0.7851 -1.0404 -1.2849
 2342TIP3   OH228584   1.287   1.004   0.794 -0.2281 -0.2971  0.6020
 2342TIP3    H128585   1.307   1.092   0.763  0.7829 -0.5835  0.3865
 2342TIP3    H228586   1.211   0.977   0.743 -1.2718  0.8683  1.4901
 2343TIP3   OH228587   0.995   2.297   0.173  0.3633 -0.6459  0.4302
 2343TIP3    H128588   0.975   2.238   0.245  0.9052 -0.9658  0.3262
 2343TIP3    H228589   0.911   2.313   0.130  0.0314 -0.4281  1.1449
 2344TIP3   OH228590   5.670   1.668   2.475 -0.6264  0.1322  0.9782
 2344TIP3    H128591   5.651   1.761   2.482 -0.0457  0.3208  0.1632
 2344TIP3    H228592   5.765   1.662   2.489 -0.7385 -0.4054  1.5891
 2345TIP3   OH228593   3.992   6.656   0.791  0.1516 -0.3379 -0.4103
 2345TIP3    H128594   4.007   6.677   0.699  1.3450 -0.5986 -0.2889
 2345TIP3    H228595   3.999   6.561   0.796 -0.0542 -0.3381 -0.0700
 2346TIP3   OH228596   2.688   2.146   6.752  0.7821  0.4132  0.3430
 2346TIP3    H128597   2.743   2.072   6.726  1.6603  0.8963  0.8039
 2346TIP3    H228598   2.653   2.121   6.838 -0.1154 -0.0910 -0.1457
 2347TIP3   OH228599   1.543   6.212   2.061  0.2154 -0.2315 -0.5980
 2347TIP3    H128600   1.616   6.251   2.110 -1.6133  0.5468  1.7266
 2347TIP3    H228601   1.517   6.135   2.112 -1.0436 -0.0629 -0.9326
 2348TIP3   OH228602   2.084   3.705   2.240 -0.8802 -0.3800 -0.3944
 2348TIP3    H128603   2.167   3.730   2.281 -1.4720  2.5792 -0.7897
 2348TIP3    H228604   2.097   3.725   2.147 -1.0817 -2.7609 -0.9953
 2349TIP3   OH228605   0.161   4.037   7.699  0.0731  0.6793  0.0619
 2349TIP3    H128606   0.085   3.978   7.698 -0.1293  0.7588  2.6236
 2349TIP3    H228607   0.234   3.980   7.725  0.0174  1.3339  1.8133
 2350TIP3   OH228608   6.620   5.284   7.384 -0.6458  0.4152  0.0395
 2350TIP3    H128609   6.631   5.190   7.374 -1.2297  0.3350  0.0752
 2350TIP3    H228610   6.550   5.307   7.322 -0.7121  0.7735  0.2399
 2351TIP3   OH228611   3.978   4.797   1.886  0.5882 -0.2574 -0.2887
 2351TIP3    H128612   4.065   4.834   1.874  0.4953  0.5573  1.2436
 2351TIP3    H228613   3.977   4.766   1.977 -1.3927  1.7670  0.4795
 2352TIP3   OH228614   5.604   5.802   0.999  0.0663 -0.4688 -0.2864
 2352TIP3    H128615   5.689   5.763   1.020 -0.2763 -0.0672  2.2419
 2352TIP3    H228616   5.615   5.895   1.018 -1.2073 -0.5793  1.2097
 2353TIP3   OH228617   5.959   0.618   6.968  0.4307  0.3748 -0.4335
 2353TIP3    H128618   5.915   0.580   7.045 -0.5726 -1.8760 -2.0052
 2353TIP3    H228619   6.049   0.587   6.974  0.6017  0.9946  0.3071
 2354TIP3   OH228620   2.686   1.821   1.301 -0.5829 -0.2190 -0.3260
 2354TIP3    H128621   2.665   1.728   1.291  3.0682 -1.0197 -2.8113
 2354TIP3    H228622   2.704   1.832   1.395 -0.7663 -2.1358 -0.0295
 2355TIP3   OH228623   3.188   4.919   8.424 -0.0163 -0.2396  0.3606
 2355TIP3    H128624   3.245   4.968   8.484 -0.8199  0.2484  0.7525
 2355TIP3    H228625   3.228   4.931   8.338  0.9552 -0.6458  0.7419
 2356TIP3   OH228626   6.037   2.695   7.879  0.5028  0.7237  0.1664
 2356TIP3    H128627   6.111   2.635   7.874 -0.0404 -0.0875  1.4221
 2356TIP3    H228628   6.069   2.769   7.930  0.6910  0.7546  0.0042
 2357TIP3   OH228629   1.561   3.625   0.646  0.6318  0.0847  0.6594
 2357TIP3    H128630   1.537   3.647   0.556  0.1560  0.1289  0.7983
 2357TIP3    H228631   1.569   3.530   0.645 -0.4899 -0.0253  0.8376
 2358TIP3   OH228632   1.142   0.774   7.310  0.7314 -0.1888 -0.2738
 2358TIP3    H128633   1.069   0.721   7.278 -0.6695  1.7039 -0.3909
 2358TIP3    H228634   1.122   0.792   7.401  1.0917  0.2771 -0.2784
 2359TIP3   OH228635   3.467   6.194   0.275  0.2839 -0.0741 -0.6100
 2359TIP3    H128636   3.560   6.184   0.252  0.7590 -0.6680  1.3600
 2359TIP3    H228637   3.456   6.289   0.285  1.0349 -0.0678  0.3629
 2360TIP3   OH228638   2.903   4.536   1.064  0.0983 -0.2498  0.0083
 2360TIP3    H128639   2.952   4.542   0.983  0.5278  0.3783  0.3054
 2360TIP3    H228640   2.882   4.627   1.086 -0.2794 -0.4370  0.4330
 2361TIP3   OH228641   2.673   0.103   7.024 -0.4991 -0.3003 -0.2669
 2361TIP3    H128642   2.721   0.094   6.941  1.3706 -2.0937  0.9185
 2361TIP3    H228643   2.631   0.189   7.018 -0.1630 -0.2307 -2.9168
 2362TIP3   OH228644   2.992   3.013   7.899  0.2217  0.5565 -0.4603
 2362TIP3    H128645   2.931   3.029   7.827  0.8390 -1.8951 -1.6423
 2362TIP3    H228646   3.078   3.008   7.857  0.3201 -3.6572 -0.1687
 2363TIP3   OH228647   2.699   0.058   1.373 -0.3413  0.4190  0.1778
 2363TIP3    H128648   2.783   0.024   1.404 -1.0212 -1.6362 -0.0741
 2363TIP3    H228649   2.680   0.007   1.294 -2.8647 -0.8119  1.4617
 2364TIP3   OH228650   5.014   3.389   2.001  0.4193  0.3113  0.3266
 2364TIP3    H128651   5.017   3.311   2.056 -3.1527 -0.8972 -0.9327
 2364TIP3    H228652   5.070   3.367   1.926 -0.0265 -0.8131  0.3021
 2365TIP3   OH228653   5.398   0.402   1.135  0.0462  0.1097  0.5219
 2365TIP3    H128654   5.475   0.346   1.146  0.0796  0.0611  0.0265
 2365TIP3    H228655   5.428   0.474   1.079 -1.1241 -1.6981 -2.6662
 2366TIP3   OH228656   5.774   4.885   2.185  0.0687  0.3540 -0.5017
 2366TIP3    H128657   5.791   4.859   2.094  1.0379  1.4040 -0.6524
 2366TIP3    H228658   5.792   4.979   2.186  0.4164  0.2884  0.8578
 2367TIP3   OH228659   0.659   1.735   7.801 -0.1676 -0.1647 -0.6385
 2367TIP3    H128660   0.705   1.679   7.864  0.8837  1.2281 -0.1096
 2367TIP3    H228661   0.580   1.687   7.779  0.3516 -1.5266  0.3368
 2368TIP3   OH228662   4.001   2.286   1.163  0.1078 -0.1325  0.3010
 2368TIP3    H128663   3.974   2.368   1.121  0.4108 -0.7923 -1.2876
 2368TIP3    H228664   3.932   2.224   1.140 -0.4403 -0.1967  2.0181
 2369TIP3   OH228665   1.626   5.452   1.106 -0.6535  0.5035  0.5065
 2369TIP3    H128666   1.588   5.499   1.032 -1.1231 -0.1701  0.3066
 2369TIP3    H228667   1.667   5.520   1.159  0.2284  0.9201 -0.6776
 2370TIP3   OH228668   5.079   0.878   2.489 -0.4308 -0.3040  0.2961
 2370TIP3    H128669   4.987   0.907   2.490 -0.7705 -1.3113 -0.0604
 2370TIP3    H228670   5.104   0.874   2.582 -0.4168  0.9402  0.3594
 2371TIP3   OH228671   6.679   6.104   1.208 -0.0656  0.1011 -0.3434
 2371TIP3    H128672   6.757   6.116   1.262  0.8055  2.1608 -1.9248
 2371TIP3    H228673   6.667   6.188   1.163 -1.6352 -1.0000 -2.1745
 2372TIP3   OH228674   1.632   1.157   0.955  0.3465  0.1647 -0.0078
 2372TIP3    H128675   1.626   1.252   0.946  1.1200  0.2250  0.1050
 2372TIP3    H228676   1.591   1.139   1.040  0.6168  0.4418  0.1812
 2373TIP3   OH228677   0.746   0.332   7.598  0.3321 -0.2668 -0.3645
 2373TIP3    H128678   0.709   0.281   7.670  0.6988 -1.8177 -1.2278
 2373TIP3    H228679   0.772   0.267   7.533  1.8746  0.9561 -1.0408
 2374TIP3   OH228680   6.773   6.443   8.624  0.3313 -0.0603  0.8422
 2374TIP3    H128681   6.688   6.487   8.628 -0.4848 -1.5779  1.0693
 2374TIP3    H228682   6.752   6.349   8.623  1.9969 -0.4738  0.6192
 2375TIP3   OH228683   3.832   2.085   7.412  0.0222  0.7857 -0.6371
 2375TIP3    H128684   3.842   2.045   7.325 -0.3682 -0.2760 -0.2021
 2375TIP3    H228685   3.915   2.067   7.456 -0.6873 -0.8715  0.0797
 2376TIP3   OH228686   2.899   1.104   6.395 -0.4481  0.8438 -0.0689
 2376TIP3    H128687   2.882   1.157   6.473 -0.6123  1.2733 -0.3943
 2376TIP3    H228688   2.814   1.098   6.352 -0.6297 -0.4158  0.4110
 2377TIP3   OH228689   4.439   5.903   0.864  0.7934  0.2577 -0.2361
 2377TIP3    H128690   4.502   5.876   0.932 -1.3673 -0.3688  1.6669
 2377TIP3    H228691   4.368   5.945   0.913 -0.4771  0.5514 -2.2253
 2378TIP3   OH228692   4.833   0.115   7.767 -1.0418  0.1766  0.0412
 2378TIP3    H128693   4.818   0.193   7.820 -0.2093 -0.6815  1.6216
 2378TIP3    H228694   4.910   0.136   7.714 -1.6409  0.8976 -0.5711
 2379TIP3   OH228695   2.133   6.366   0.596  0.0044  0.2144  0.3222
 2379TIP3    H128696   2.096   6.278   0.591 -0.0884  0.0142  3.1644
 2379TIP3    H228697   2.213   6.355   0.649  0.5440  1.6891 -0.1406
 2380TIP3   OH228698   4.287   3.453   1.346  0.8517  0.5577 -0.3131
 2380TIP3    H128699   4.241   3.376   1.380  0.5057  1.3381  1.0531
 2380TIP3    H228700   4.346   3.418   1.279 -0.0840 -0.7498 -0.4852
 2381TIP3   OH228701   3.019   1.768   7.884  0.3565  0.1713  0.2536
 2381TIP3    H128702   3.093   1.800   7.833  1.7131 -0.7985  1.5042
 2381TIP3    H228703   2.963   1.723   7.821  0.5259  1.4133 -0.8126
 2382TIP3   OH228704   1.713   5.753   0.019  0.6212  0.1942  0.2465
 2382TIP3    H128705   1.740   5.680   0.074 -0.1704 -1.4434 -1.4007
 2382TIP3    H228706   1.728   5.722  -0.070  3.1553  3.2461 -0.5683
 2383TIP3   OH228707   3.137   6.051   2.166  0.1164 -0.1238 -0.0489
 2383TIP3    H128708   3.148   5.972   2.219 -0.4543 -1.5118 -1.9111
 2383TIP3    H228709   3.219   6.099   2.177  0.4701 -0.9491  1.1371
 2384TIP3   OH228710   1.823   0.850   1.978 -0.0052  0.0346  0.3879
 2384TIP3    H128711   1.814   0.824   2.070  1.8501 -2.1288  0.0526
 2384TIP3    H228712   1.818   0.767   1.930 -2.7729  1.2504 -1.7206
 2385TIP3   OH228713   4.683   3.016   0.020 -0.5324 -0.1890 -0.2376
 2385TIP3    H128714   4.743   3.020   0.096 -0.7314 -0.0650 -0.0868
 2385TIP3    H228715   4.738   2.983  -0.051 -0.7767 -2.0128  0.3858
 2386TIP3   OH228716   4.923   4.703   8.507  0.1420  0.3049 -0.3419
 2386TIP3    H128717   4.906   4.616   8.471  0.2354  0.0478  0.2221
 2386TIP3    H228718   4.836   4.744   8.511 -0.2692 -0.6266  1.5565
 2387TIP3   OH228719   6.098   1.263   2.234  0.1782 -0.0362 -0.4991
 2387TIP3    H128720   6.158   1.255   2.160  0.3300  1.1107 -0.5274
 2387TIP3    H228721   6.104   1.355   2.259 -1.1930 -0.0228 -0.1656
 2388TIP3   OH228722   0.799   6.023   2.290  0.4873 -0.9175 -1.1098
 2388TIP3    H128723   0.824   6.101   2.340  0.9165 -0.9844 -1.2177
 2388TIP3    H228724   0.739   6.056   2.223  0.2760 -0.7563 -0.8440
 2389TIP3   OH228725   1.791   1.780   1.785  0.5813  0.3020  0.1897
 2389TIP3    H128726   1.869   1.735   1.817  0.9479  0.5242 -0.3700
 2389TIP3    H228727   1.787   1.861   1.836  1.1192  0.6209 -0.2647
 2390TIP3   OH228728   6.056   4.198   1.873  0.0588 -0.1930 -0.2930
 2390TIP3    H128729   5.964   4.218   1.887 -0.1934 -0.8293 -0.9325
 2390TIP3    H228730   6.095   4.200   1.960 -0.8207 -1.1013  0.1475
 2391TIP3   OH228731   6.443   3.442   7.042  0.5757 -0.7786  0.1690
 2391TIP3    H128732   6.530   3.412   7.014  0.9601 -0.6569  1.2084
 2391TIP3    H228733   6.434   3.528   7.000  1.4523 -0.2736  0.9827
 2392TIP3   OH228734   4.914   0.700   0.358 -0.1659 -0.2647 -0.1989
 2392TIP3    H128735   4.905   0.759   0.283  1.5377  0.9579  0.5021
 2392TIP3    H228736   4.833   0.649   0.357 -1.3154  1.4366 -1.3925
 2393TIP3   OH228737   4.934   5.579   7.365  0.2730 -0.1151  0.1849
 2393TIP3    H128738   4.854   5.628   7.384  0.9029  0.7250  0.7611
 2393TIP3    H228739   4.930   5.503   7.424  0.6150  0.7345  1.3522
 2394TIP3   OH228740   2.178   2.839   6.516  0.0884 -0.3851 -0.0874
 2394TIP3    H128741   2.252   2.869   6.569 -0.2089 -1.5047  0.9834
 2394TIP3    H228742   2.218   2.798   6.440  0.6199 -1.9158  0.9904
 2395TIP3   OH228743   1.326   2.130   1.830 -0.4469  0.2243 -0.3998
 2395TIP3    H128744   1.293   2.065   1.768 -0.7188  0.3681 -0.4065
 2395TIP3    H228745   1.255   2.141   1.893  0.9335 -2.3027  1.8388
 2396TIP3   OH228746   0.119   4.672   8.472 -0.0059 -0.0181 -0.1897
 2396TIP3    H128747   0.192   4.667   8.409 -0.0082  2.4458 -0.4810
 2396TIP3    H228748   0.144   4.612   8.542  2.0909  0.3823 -0.5234
 2397TIP3   OH228749   6.649   0.975   0.916  0.2860  0.4396 -0.1160
 2397TIP3    H128750   6.648   0.930   1.001  0.4938 -0.2869 -0.4987
 2397TIP3    H228751   6.722   0.936   0.868 -1.6077 -1.2976 -1.7645
 2398TIP3   OH228752   0.635   3.697   1.709  0.0099  0.0528 -0.3694
 2398TIP3    H128753   0.647   3.792   1.712  3.6505 -0.2986  0.1006
 2398TIP3    H228754   0.623   3.672   1.801 -0.1677 -0.0404 -0.4171
 2399TIP3   OH228755   2.405   3.268   7.533  0.0040 -0.0745 -0.3479
 2399TIP3    H128756   2.382   3.332   7.467 -2.2503 -1.2815 -0.8087
 2399TIP3    H228757   2.330   3.266   7.593  0.0144 -2.2216 -0.3294
 2400TIP3   OH228758   2.676   5.262   6.801  0.2733 -0.0904 -0.5918
 2400TIP3    H128759   2.761   5.271   6.843  0.0851  0.8296 -0.3990
 2400TIP3    H228760   2.632   5.193   6.850  0.7691 -0.3270 -0.4753
 2401TIP3   OH228761   6.291   4.401   7.928  0.2845  0.3029  0.2135
 2401TIP3    H128762   6.246   4.483   7.911 -1.2406 -0.1823  1.6210
 2401TIP3    H228763   6.338   4.415   8.010  1.3028  0.2347 -0.3352
 2402TIP3   OH228764   1.738   6.324   2.207 -0.3788 -0.4857  0.1535
 2402TIP3    H128765   1.804   6.271   2.252  0.0239 -0.8801 -0.8583
 2402TIP3    H228766   1.782   6.406   2.187 -0.7301 -0.0983  0.9584
 2403TIP3   OH228767   5.956   1.691   7.777 -0.4507  0.3421 -0.2463
 2403TIP3    H128768   5.999   1.765   7.820  0.3711 -0.1553 -0.1917
 2403TIP3    H228769   5.940   1.722   7.687 -0.4352  0.7071 -0.1264
 2404TIP3   OH228770   6.183   6.572   0.935 -0.0914  0.3732 -0.1678
 2404TIP3    H128771   6.212   6.484   0.910 -1.7403 -0.3017  0.1191
 2404TIP3    H228772   6.161   6.564   1.028  0.4986  1.3158  0.0660
 2405TIP3   OH228773   4.393   5.159   6.977 -0.2375  0.6003 -0.2565
 2405TIP3    H128774   4.428   5.099   6.911 -0.3747  1.6755 -1.3451
 2405TIP3    H228775   4.299   5.164   6.957 -0.3283  0.7460  0.1898
 2406TIP3   OH228776   0.094   2.868   7.636  0.4720 -0.2242  0.1811
 2406TIP3    H128777   0.188   2.855   7.622  0.0015 -1.8198 -2.1713
 2406TIP3    H228778   0.086   2.891   7.728  3.1212 -0.5189  0.5641
 2407TIP3   OH228779   5.508   3.428   7.641 -0.1706 -0.4990  0.2165
 2407TIP3    H128780   5.531   3.458   7.552  0.0837  0.7516  0.6820
 2407TIP3    H228781   5.418   3.458   7.653 -0.8715 -2.2844 -0.2776
 2408TIP3   OH228782   1.909   2.877   0.688  1.0867 -0.2629  0.8038
 2408TIP3    H128783   1.919   2.914   0.601 -0.3589 -2.0312 -0.1743
 2408TIP3    H228784   1.882   2.951   0.743  0.2363  0.5383 -0.6470
 2409TIP3   OH228785   2.600   2.530   0.308  0.1826 -0.6708 -0.1636
 2409TIP3    H128786   2.665   2.517   0.377  0.9960 -1.0777 -0.9848
 2409TIP3    H228787   2.516   2.510   0.350  0.6387 -0.7257  0.7518
 2410TIP3   OH228788   6.769   6.555   2.319 -0.4940 -0.1400 -0.0247
 2410TIP3    H128789   6.848   6.535   2.369 -0.0303 -0.0574 -0.7230
 2410TIP3    H228790   6.789   6.637   2.274 -0.6298 -0.6113 -0.9546
 2411TIP3   OH228791   6.533   2.666   1.837 -0.1731  0.0844 -0.8526
 2411TIP3    H128792   6.465   2.634   1.897  0.2003 -1.1531 -1.0626
 2411TIP3    H228793   6.488   2.730   1.782 -0.1528  2.6606  1.8449
 2412TIP3   OH228794   1.712   6.341   0.869  0.1561 -0.3163  0.7172
 2412TIP3    H128795   1.724   6.390   0.787  0.4792 -0.3036  0.7686
 2412TIP3    H228796   1.760   6.259   0.854  0.4804 -0.1832  1.0063
 2413TIP3   OH228797   3.726   2.092   1.412 -0.3232 -0.1862  0.2331
 2413TIP3    H128798   3.811   2.048   1.425 -1.6740 -3.1067  0.0273
 2413TIP3    H228799   3.714   2.145   1.490  1.0890 -0.8218  0.9271
 2414TIP3   OH228800   3.658   4.979   0.724  0.0845 -0.0483  0.3886
 2414TIP3    H128801   3.565   4.999   0.719  0.2998  1.2389  1.2813
 2414TIP3    H228802   3.682   4.956   0.634 -1.0526 -0.2821  0.1269
 2415TIP3   OH228803   4.690   6.781   2.594 -0.0051  0.4976 -0.3097
 2415TIP3    H128804   4.677   6.843   2.522  1.6329 -1.3219 -2.3116
 2415TIP3    H228805   4.753   6.824   2.652  1.5219  0.5411 -1.9421
 2416TIP3   OH228806   4.008   1.345   2.738 -0.0724  0.1853 -0.7026
 2416TIP3    H128807   3.977   1.397   2.664 -1.0765 -0.0486 -0.4711
 2416TIP3    H228808   4.100   1.368   2.747 -0.2544  1.1840 -1.2151
 2417TIP3   OH228809   0.219   3.024   0.298  0.3846  0.6013  0.0265
 2417TIP3    H128810   0.146   3.016   0.237  1.2435 -0.0950 -0.9469
 2417TIP3    H228811   0.192   2.972   0.374 -0.0335  0.1373 -0.4297
 2418TIP3   OH228812   3.799   0.069   7.078 -0.1321 -0.0139 -0.1084
 2418TIP3    H128813   3.783   0.023   6.996  1.8547 -0.6567 -0.2067
 2418TIP3    H228814   3.780   0.161   7.060  0.0941 -0.1806 -1.2313
 2419TIP3   OH228815   5.115   4.661   1.916 -0.5259  0.0907  0.1647
 2419TIP3    H128816   5.161   4.718   1.977  0.4738  0.3108 -0.7693
 2419TIP3    H228817   5.173   4.585   1.905 -0.4675  0.2625 -0.8432
 2420TIP3   OH228818   0.520   2.883   8.465  0.1036 -0.5586 -0.2377
 2420TIP3    H128819   0.614   2.893   8.482  0.4338  1.6548 -2.6923
 2420TIP3    H228820   0.483   2.969   8.484 -0.8279 -0.4661 -2.2212
 2421TIP3   OH228821   2.968   5.110   8.492  0.0596 -0.5900  0.1292
 2421TIP3    H128822   2.979   5.126   8.586 -0.3874 -0.4884  0.1654
 2421TIP3    H228823   3.020   5.032   8.475  1.4094  0.2690  0.1602
 2422TIP3   OH228824   4.279   0.817   1.599 -0.1535 -0.8791 -0.3859
 2422TIP3    H128825   4.292   0.862   1.516 -0.6626  0.7360  0.3789
 2422TIP3    H228826   4.188   0.836   1.623  0.7321  0.9505  1.8257
 2423TIP3   OH228827   6.373   5.029   7.211  0.3396  0.6598  0.4261
 2423TIP3    H128828   6.382   4.990   7.297  3.3738 -0.0222 -0.0895
 2423TIP3    H228829   6.375   4.955   7.150  2.1630  1.2764 -0.3553
 2424TIP3   OH228830   4.274   6.599   0.052 -0.0822 -0.5112 -0.0715
 2424TIP3    H128831   4.225   6.618   0.132  0.0324  0.1629 -0.1567
 2424TIP3    H228832   4.229   6.523   0.014  0.6421 -1.6755  1.2931
 2425TIP3   OH228833   4.222   5.439   7.450 -0.5111  0.3524  0.0476
 2425TIP3    H128834   4.209   5.364   7.392 -0.5312 -1.1488  1.8856
 2425TIP3    H228835   4.264   5.402   7.528 -2.4342  1.8500  1.9064
 2426TIP3   OH228836   6.153   2.807   1.546  0.8044 -0.1863 -0.3670
 2426TIP3    H128837   6.108   2.770   1.470  0.6772  0.1835 -0.4788
 2426TIP3    H228838   6.131   2.900   1.542 -0.1514 -0.3424  0.7617
 2427TIP3   OH228839   6.817   1.457   8.411 -0.2568  0.0424  0.3182
 2427TIP3    H128840   6.742   1.439   8.354 -1.3566 -0.0035  1.7268
 2427TIP3    H228841   6.813   1.388   8.478  0.5982  0.4958  0.8485
 2428TIP3   OH228842   5.370   6.308   8.080  0.0482 -0.0145  0.1680
 2428TIP3    H128843   5.377   6.318   8.175  1.3476  0.6300  0.0242
 2428TIP3    H228844   5.309   6.377   8.053  0.8361  0.7833  0.3839
 2429TIP3   OH228845   3.801   2.764   8.563  0.0871  0.1812  0.1283
 2429TIP3    H128846   3.858   2.833   8.527  1.0869  0.0357  1.3787
 2429TIP3    H228847   3.859   2.689   8.576 -1.1156 -1.1823 -1.8296
 2430TIP3   OH228848   2.002   0.239   1.471 -0.1255  0.3841 -0.1076
 2430TIP3    H128849   1.958   0.265   1.552  0.0296 -2.1388  0.8784
 2430TIP3    H228850   1.930   0.224   1.409 -0.3581  0.7686  0.0666
 2431TIP3   OH228851   2.582   1.061   8.099  0.1786 -0.0155  0.2499
 2431TIP3    H128852   2.573   1.156   8.095 -0.2812 -0.0925 -0.7030
 2431TIP3    H228853   2.539   1.037   8.181 -0.2486  0.5391  0.1983
 2432TIP3   OH228854   2.726   4.034   7.848 -0.7487 -0.2930  0.0440
 2432TIP3    H128855   2.718   3.960   7.788 -0.3562  0.9833 -1.6656
 2432TIP3    H228856   2.672   4.103   7.808  1.4993  1.4082 -0.2254
 2433TIP3   OH228857   3.122   3.966   6.958  0.5275  0.0199 -0.0374
 2433TIP3    H128858   3.189   4.031   6.937  0.9118  0.5041  2.2976
 2433TIP3    H228859   3.135   3.895   6.896  1.0576  1.5232 -1.7192
 2434TIP3   OH228860   5.106   0.681   1.015 -0.6496  0.9292  0.1419
 2434TIP3    H128861   5.200   0.686   1.033 -0.7336 -0.6143  1.1915
 2434TIP3    H228862   5.101   0.654   0.924 -0.0154 -0.5872  0.5276
 2435TIP3   OH228863   2.059   1.489   7.809  0.2582  1.0183 -0.0767
 2435TIP3    H128864   2.043   1.404   7.850  0.3590  0.6134 -0.8598
 2435TIP3    H228865   2.100   1.541   7.877 -1.4005  1.0234  0.9761
 2436TIP3   OH228866   0.751   1.879   0.359 -0.3727 -0.0464  0.4742
 2436TIP3    H128867   0.785   1.968   0.352 -0.8552  0.3167  2.2534
 2436TIP3    H228868   0.713   1.874   0.447 -0.2859 -2.0368  0.4589
 2437TIP3   OH228869   1.565   4.844   1.887  0.7547 -0.1853  0.6091
 2437TIP3    H128870   1.649   4.845   1.841  0.8179  0.5582  0.7189
 2437TIP3    H228871   1.520   4.923   1.856  0.6345  0.1116  1.5096
 2438TIP3   OH228872   0.873   6.836   0.248  0.5788  0.3440  0.5202
 2438TIP3    H128873   0.780   6.812   0.247  0.3003  1.2872 -1.4294
 2438TIP3    H228874   0.874   6.926   0.281  1.0352 -0.3079  2.3852
 2439TIP3   OH228875   2.834   5.333   0.655  0.2694  0.3302  0.0839
 2439TIP3    H128876   2.849   5.325   0.561  1.1317 -0.6056  0.2913
 2439TIP3    H228877   2.908   5.384   0.687  0.1286  0.3980  0.3062
 2440TIP3   OH228878   2.828   4.145   2.320  0.1223 -0.2186 -0.3682
 2440TIP3    H128879   2.834   4.082   2.392  0.3841  0.2161 -0.0028
 2440TIP3    H228880   2.918   4.154   2.289 -0.0430 -0.6804 -0.9974
 2441TIP3   OH228881   4.733   0.171   7.301 -0.0615  0.3325 -0.0064
 2441TIP3    H128882   4.796   0.131   7.242  1.5927  1.4397  0.9226
 2441TIP3    H228883   4.717   0.258   7.264 -0.1061  0.4999  0.3969
 2442TIP3   OH228884   4.028   1.194   1.857 -0.3529 -0.2209 -0.1131
 2442TIP3    H128885   4.015   1.139   1.935  2.4590 -0.3108  0.4029
 2442TIP3    H228886   3.939   1.215   1.827 -1.5291 -0.9744  2.5428
 2443TIP3   OH228887   3.201   2.638   8.254  0.2006  0.3617 -0.5325
 2443TIP3    H128888   3.288   2.612   8.223 -0.5485 -3.1645 -0.1086
 2443TIP3    H228889   3.157   2.672   8.176  1.3036  0.2077 -1.2395
 2444TIP3   OH228890   5.544   0.295   0.262  0.4633  0.2776 -0.3067
 2444TIP3    H128891   5.461   0.309   0.307  0.7288  0.9962 -0.0156
 2444TIP3    H228892   5.552   0.369   0.202  0.3207 -0.4406 -1.2418
 2445TIP3   OH228893   6.462   1.092   1.231  0.1033 -0.3450  0.6309
 2445TIP3    H128894   6.431   1.176   1.266 -1.1492  0.7998 -2.7598
 2445TIP3    H228895   6.381   1.045   1.210  0.8042 -1.9145  1.3302
 2446TIP3   OH228896   6.372   1.248   8.574 -0.3327  0.5304  0.3221
 2446TIP3    H128897   6.419   1.174   8.612 -2.2547  0.4269  2.7833
 2446TIP3    H228898   6.332   1.292   8.649 -2.7780  1.5351 -1.4221
 2447TIP3   OH228899   4.032   1.750   7.336  0.1419 -0.2410  0.2296
 2447TIP3    H128900   4.080   1.734   7.417  0.3833  0.2335  0.1874
 2447TIP3    H228901   4.079   1.823   7.295 -0.3451 -0.0705 -0.0353
 2448TIP3   OH228902   2.372   4.927   0.725 -0.4059 -0.1919 -0.6000
 2448TIP3    H128903   2.342   4.918   0.815  0.1648 -1.8136 -0.5273
 2448TIP3    H228904   2.449   4.870   0.720 -0.8360 -0.6859 -2.2891
 2449TIP3   OH228905   3.331   3.864   1.760  0.4227  0.1034  0.5678
 2449TIP3    H128906   3.358   3.783   1.802 -0.4330  0.4562  1.8451
 2449TIP3    H228907   3.392   3.874   1.686  1.2487 -1.1007  1.0535
 2450TIP3   OH228908   0.354   1.742   7.859 -0.2605  0.0724  0.1346
 2450TIP3    H128909   0.393   1.757   7.945 -0.5651 -1.7348  0.6227
 2450TIP3    H228910   0.263   1.720   7.877 -0.6483  0.8685 -0.7552
 2451TIP3   OH228911   3.154   2.773   8.656  0.0023 -0.2330 -0.0088
 2451TIP3    H128912   3.138   2.866   8.642  1.0642  0.0321  0.4714
 2451TIP3    H228913   3.238   2.756   8.613 -2.0440 -1.9274 -3.8709
 2452TIP3   OH228914   1.496   5.150   6.872 -0.2011  0.1675  0.1200
 2452TIP3    H128915   1.573   5.203   6.852  0.5912 -1.1432 -0.4290
 2452TIP3    H228916   1.435   5.212   6.913  0.8471  1.3934 -0.0815
 2453TIP3   OH228917   2.925   4.861   1.804 -0.3445  0.0699  1.0186
 2453TIP3    H128918   2.873   4.807   1.744  0.7388 -0.5641  0.6279
 2453TIP3    H228919   2.875   4.943   1.811 -0.2156  0.4181 -1.2676
 2454TIP3   OH228920   0.225   2.414   1.316  0.2063 -0.5326  0.4978
 2454TIP3    H128921   0.291   2.482   1.304  0.3840 -1.0002 -1.5197
 2454TIP3    H228922   0.230   2.392   1.409  1.2566  1.0615  0.8644
 2455TIP3   OH228923   4.345   0.336   2.010 -0.1824 -0.1791  0.3663
 2455TIP3    H128924   4.385   0.282   1.941 -1.9853 -1.2042  0.0635
 2455TIP3    H228925   4.350   0.281   2.088 -2.4135 -1.0484 -0.0348
 2456TIP3   OH228926   2.347   4.016   8.226  0.0665 -0.0595 -0.0118
 2456TIP3    H128927   2.410   4.072   8.272 -0.0923  1.0841 -1.1255
 2456TIP3    H228928   2.394   3.985   8.149 -0.3351 -0.2013 -0.2048
 2457TIP3   OH228929   4.301   6.183   1.890  0.5912  0.1560  0.0524
 2457TIP3    H128930   4.235   6.132   1.937  0.3920 -0.3268 -0.7348
 2457TIP3    H228931   4.384   6.154   1.927  0.4288 -0.1154  0.2086
 2458TIP3   OH228932   5.885   1.401   7.535 -0.1976 -0.0119 -0.5022
 2458TIP3    H128933   5.826   1.385   7.461 -2.1894 -0.0192  1.0219
 2458TIP3    H228934   5.828   1.429   7.606  1.7634  0.9003  0.8040
 2459TIP3   OH228935   4.818   2.804   1.111 -0.3296 -0.3626 -0.0323
 2459TIP3    H128936   4.777   2.826   1.195  0.9885 -0.6122  0.7048
 2459TIP3    H228937   4.747   2.766   1.059 -1.5267  1.1644  0.4083
 2460TIP3   OH228938   6.353   0.704   1.029 -0.7264  0.5721  0.0962
 2460TIP3    H128939   6.322   0.614   1.035 -1.3554  0.6241 -1.6179
 2460TIP3    H228940   6.301   0.753   1.093 -0.2935 -0.2787  1.1193
 2461TIP3   OH228941   1.128   5.674   8.503  0.0239 -0.2285 -0.1527
 2461TIP3    H128942   1.032   5.669   8.496  0.0894  0.2361 -1.7886
 2461TIP3    H228943   1.160   5.637   8.421  1.2732 -0.7065  0.5235
 2462TIP3   OH228944   5.371   2.392   0.290  0.0014 -0.5308 -0.1190
 2462TIP3    H128945   5.280   2.367   0.272 -0.3329 -0.1028  0.8597
 2462TIP3    H228946   5.375   2.398   0.386  1.3125 -1.4558 -0.0880
 2463TIP3   OH228947   4.609   2.859   2.026  0.8033  0.5923 -0.8038
 2463TIP3    H128948   4.537   2.869   2.087  0.7790 -0.4033 -0.6546
 2463TIP3    H228949   4.684   2.901   2.070  0.7120  0.1584 -0.2308
 2464TIP3   OH228950   5.160   0.768   1.611  0.1924  0.2544 -0.2452
 2464TIP3    H128951   5.199   0.830   1.549  1.1493  0.9589  1.0063
 2464TIP3    H228952   5.084   0.815   1.646  0.1803  0.2160 -0.2210
 2465TIP3   OH228953   6.167   1.408   1.047  0.9574 -0.0747 -0.0672
 2465TIP3    H128954   6.158   1.363   1.131 -1.3399  1.3157  0.5347
 2465TIP3    H228955   6.107   1.362   0.988 -0.5166  1.3651  0.2325
 2466TIP3   OH228956   2.787   2.359   2.158  0.2573 -0.6308  0.0594
 2466TIP3    H128957   2.765   2.426   2.222  0.6358  0.1492 -0.6027
 2466TIP3    H228958   2.710   2.303   2.153 -0.8571  0.9097 -0.8190
 2467TIP3   OH228959   3.607   3.845   1.264  0.6886  0.0483  0.1177
 2467TIP3    H128960   3.682   3.830   1.323  0.0748 -0.1772  0.8513
 2467TIP3    H228961   3.554   3.766   1.272 -0.2451  0.6998  0.5218
 2468TIP3   OH228962   2.569   5.163   6.331  0.3700  0.0890 -0.2081
 2468TIP3    H128963   2.573   5.209   6.415 -0.4277 -0.9312  0.4162
 2468TIP3    H228964   2.658   5.132   6.316  0.3605 -0.4086  0.6818
 2469TIP3   OH228965   3.134   3.556   0.392 -0.8251  0.5224  0.5137
 2469TIP3    H128966   3.118   3.574   0.484 -0.1604 -0.7824  0.9052
 2469TIP3    H228967   3.119   3.640   0.348 -0.2405  1.3936  1.9161
 2470TIP3   OH228968   0.846   4.709   8.053 -0.3390 -0.1506  0.1410
 2470TIP3    H128969   0.823   4.703   8.146  0.0047 -0.4300  0.2078
 2470TIP3    H228970   0.929   4.663   8.045 -1.6579 -2.5720 -0.7740
 2471TIP3   OH228971   1.819   2.089   6.707  0.1980 -0.2487 -0.3773
 2471TIP3    H128972   1.857   2.003   6.726 -0.7078 -0.4386  0.6400
 2471TIP3    H228973   1.895   2.146   6.693  0.8128 -1.2545 -1.3668
 2472TIP3   OH228974   2.764   2.968   0.152  0.5248  0.0215 -0.0130
 2472TIP3    H128975   2.843   3.010   0.186  0.3444  0.3466  0.0062
 2472TIP3    H228976   2.738   3.023   0.078  1.0227 -0.7762 -0.8168
 2473TIP3   OH228977   0.705   0.142   1.373 -0.2650 -0.2038 -0.4693
 2473TIP3    H128978   0.779   0.144   1.434 -0.1930 -0.8806 -0.5341
 2473TIP3    H228979   0.740   0.179   1.292 -0.1473 -0.0309 -0.3418
 2474TIP3   OH228980   4.751   5.966   8.664 -0.1967 -0.1729 -0.9252
 2474TIP3    H128981   4.767   6.051   8.624 -0.7514 -0.0169 -0.8305
 2474TIP3    H228982   4.833   5.942   8.706  0.3186 -0.2223 -1.9314
 2475TIP3   OH228983   3.981   0.733   1.411  0.0434 -0.4518 -0.0048
 2475TIP3    H128984   3.997   0.763   1.501  1.8458 -0.6961 -0.2229
 2475TIP3    H228985   4.017   0.645   1.408  2.6021  0.5420 -1.6916
 2476TIP3   OH228986   5.181   1.026   0.113 -0.1049 -0.2558  0.2843
 2476TIP3    H128987   5.093   0.988   0.114 -0.5058  0.5157  2.6941
 2476TIP3    H228988   5.228   0.978   0.180  1.8202 -1.5599 -1.8711
 2477TIP3   OH228989   0.599   6.663   8.127  0.2505  0.1269 -0.1049
 2477TIP3    H128990   0.675   6.650   8.070 -0.5037 -0.2808 -1.0545
 2477TIP3    H228991   0.571   6.753   8.109  0.3797  0.2078  0.0925
 2478TIP3   OH228992   0.575   4.186   2.128 -0.5401 -0.1112 -0.0619
 2478TIP3    H128993   0.501   4.246   2.145 -0.7466 -0.3332 -0.1770
 2478TIP3    H228994   0.536   4.112   2.083 -0.2224 -0.1758 -0.2342
 2479TIP3   OH228995   5.170   3.852   1.199  0.0478  0.4424 -0.3912
 2479TIP3    H128996   5.207   3.808   1.123 -1.0495  1.8329 -1.8172
 2479TIP3    H228997   5.129   3.931   1.163  2.8125  3.2714  2.0771
 2480TIP3   OH228998   0.413   6.123   6.556 -0.0594  0.4819 -0.4667
 2480TIP3    H128999   0.497   6.146   6.515  0.3529  0.2348  0.2117
 2480TIP3    H229000   0.433   6.119   6.650 -0.8919  0.6575 -0.2763
 2481TIP3   OH229001   6.164   4.523   0.459  0.3805  0.2936  0.5296
 2481TIP3    H129002   6.258   4.529   0.437  0.0015  0.8379 -1.1294
 2481TIP3    H229003   6.126   4.478   0.383 -0.8635  1.0967  0.6653
 2482TIP3   OH229004   4.761   4.515   7.208 -1.0696 -0.5390  0.4791
 2482TIP3    H129005   4.672   4.490   7.182 -1.0864 -1.6296  1.5078
 2482TIP3    H229006   4.751   4.600   7.250 -1.3684  0.1462 -0.9180
 2483TIP3   OH229007   0.859   2.986   0.226  0.5072  0.1068 -0.0138
 2483TIP3    H129008   0.876   2.925   0.154 -0.8951  0.6701 -0.8716
 2483TIP3    H229009   0.867   3.073   0.186 -0.5434  0.4237  0.4414
 2484TIP3   OH229010   2.321   2.524   7.418 -0.9631  0.4385 -0.3908
 2484TIP3    H129011   2.293   2.495   7.331 -2.1457 -0.2599  0.1992
 2484TIP3    H229012   2.302   2.618   7.419 -3.7606 -0.0534  0.1043
 2485TIP3   OH229013   1.171   2.652   8.414  0.7763 -0.4315  0.0291
 2485TIP3    H129014   1.161   2.745   8.432 -0.8646 -0.8758  1.7792
 2485TIP3    H229015   1.198   2.614   8.498  0.8248 -1.6177 -0.5031
 2486TIP3   OH229016   5.766   2.608   7.767  0.4003  0.1234  0.2687
 2486TIP3    H129017   5.857   2.612   7.797 -0.5208 -0.5516  3.5612
 2486TIP3    H229018   5.729   2.693   7.792  0.6699  1.6511 -3.7203
 2487TIP3   OH229019   5.683   0.080   8.549  0.4296 -0.1923 -0.3436
 2487TIP3    H129020   5.682   0.060   8.456  1.0664  1.3764 -0.7048
 2487TIP3    H229021   5.750   0.022   8.586  1.4140  0.4061 -1.1587
 2488TIP3   OH229022   6.801   0.197   7.330 -0.0465 -0.4961 -0.3546
 2488TIP3    H129023   6.837   0.123   7.380  1.7002 -0.0740 -0.9061
 2488TIP3    H229024   6.757   0.156   7.255  0.5514 -1.0008 -0.4406
 2489TIP3   OH229025   2.840   1.835   1.034  0.2892 -0.0788  0.1308
 2489TIP3    H129026   2.776   1.882   1.088  0.8968  1.7411 -0.6364
 2489TIP3    H229027   2.872   1.765   1.090 -2.8551 -1.5398  0.3248
 2490TIP3   OH229028   0.637   2.218   0.463 -0.5810 -0.4227  0.5306
 2490TIP3    H129029   0.566   2.264   0.507  0.0416 -0.1692  1.2876
 2490TIP3    H229030   0.599   2.191   0.379 -0.5200  2.8648 -0.6930
 2491TIP3   OH229031   4.613   5.333   0.304  0.1071  0.3559 -0.5798
 2491TIP3    H129032   4.699   5.319   0.266  1.1267  0.4206  1.5635
 2491TIP3    H229033   4.562   5.373   0.233  1.7515  0.1466 -1.9547
 2492TIP3   OH229034   5.457   2.574   1.159  0.3938 -0.1311 -0.3908
 2492TIP3    H129035   5.444   2.507   1.225  1.4901  0.6594  0.6902
 2492TIP3    H229036   5.375   2.578   1.111 -0.3415 -0.9097  0.7622
 2493TIP3   OH229037   4.197   3.691   7.686  0.3073  0.6525 -0.0967
 2493TIP3    H129038   4.248   3.755   7.737  0.0255  1.7011 -1.0845
 2493TIP3    H229039   4.210   3.717   7.595  0.4698 -0.9463 -0.5563
 2494TIP3   OH229040   0.871   5.704   8.480  0.3382  0.1366 -0.1132
 2494TIP3    H129041   0.803   5.725   8.544  0.7635  2.1523 -0.2316
 2494TIP3    H229042   0.845   5.753   8.402  0.6067 -1.1196 -1.0197
 2495TIP3   OH229043   5.415   4.696   2.617  0.3777  0.1557  0.1811
 2495TIP3    H129044   5.330   4.687   2.573  0.8819  2.1637 -1.4005
 2495TIP3    H229045   5.440   4.787   2.599  2.5361 -0.1893  1.2378
 2496TIP3   OH229046   6.519   4.474   8.483  0.1899  0.1598  0.0437
 2496TIP3    H129047   6.454   4.411   8.452 -0.4168  1.5938 -1.8049
 2496TIP3    H229048   6.587   4.474   8.415  1.2218  0.0365  1.0366
 2497TIP3   OH229049   2.083   5.881   8.091  0.7073  0.5672 -0.6607
 2497TIP3    H129050   2.099   5.964   8.045  1.3657  1.9258  1.8208
 2497TIP3    H229051   2.156   5.874   8.154 -0.9619 -0.2953  1.3047
 2498TIP3   OH229052   6.518   0.874   3.040 -1.0200 -0.3447 -0.2939
 2498TIP3    H129053   6.555   0.959   3.019  0.4033 -0.8422  0.1180
 2498TIP3    H229054   6.546   0.817   2.968 -0.6742 -0.8066  0.1973
 2499TIP3   OH229055   2.240   5.999   6.656  0.2729  0.3283 -0.2676
 2499TIP3    H129056   2.190   6.061   6.603  1.3897  0.3304 -1.3703
 2499TIP3    H229057   2.280   5.939   6.592 -1.4631 -2.1188  0.7712
 2500TIP3   OH229058   1.000   5.238   7.402  0.7297  0.3075 -0.1784
 2500TIP3    H129059   1.052   5.263   7.326  0.8351 -1.2064 -0.6488
 2500TIP3    H229060   1.034   5.152   7.427  0.2473  0.4849  1.1742
 2501TIP3   OH229061   0.968   4.119   0.829  0.1236  0.8281  0.1540
 2501TIP3    H129062   0.914   4.111   0.907  4.0994  0.6096  3.1985
 2501TIP3    H229063   1.010   4.033   0.820  3.4999  2.2149  1.0247
 2502TIP3   OH229064   6.371   5.186   6.468  0.4351 -0.1020  0.4670
 2502TIP3    H129065   6.434   5.228   6.527  0.8712  0.4109 -0.3467
 2502TIP3    H229066   6.349   5.254   6.405 -0.4223 -0.4907  0.3432
 2503TIP3   OH229067   6.697   2.377   8.555  0.4628 -0.4047  0.0239
 2503TIP3    H129068   6.602   2.377   8.561  0.4099 -1.9082 -0.3579
 2503TIP3    H229069   6.723   2.286   8.574  1.7839 -0.1212 -0.2705
 2504TIP3   OH229070   2.112   3.314   7.555  0.0399 -0.5585 -0.6714
 2504TIP3    H129071   2.076   3.386   7.608  1.4632 -1.1739  1.2711
 2504TIP3    H229072   2.084   3.334   7.466 -0.4819  1.8546 -0.0578
 2505TIP3   OH229073   5.848   3.489   7.304 -0.2344  0.0654 -0.3161
 2505TIP3    H129074   5.894   3.551   7.361 -0.8901 -0.0719  0.3839
 2505TIP3    H229075   5.912   3.464   7.238  1.2757 -1.4255  1.5936
 2506TIP3   OH229076   0.381   1.933   7.643 -0.1988 -0.4531  0.2691
 2506TIP3    H129077   0.411   1.889   7.723 -1.8001 -0.0449  1.1135
 2506TIP3    H229078   0.444   2.004   7.630  0.9289 -1.4003  0.3080
 2507TIP3   OH229079   2.577   4.636   8.402 -0.5542 -0.1820 -0.1124
 2507TIP3    H129080   2.549   4.546   8.418  3.1049 -1.8240 -1.7216
 2507TIP3    H229081   2.595   4.639   8.308  1.9899  1.3196  0.3271
 2508TIP3   OH229082   0.004   5.481   7.328 -0.3150 -0.0336 -0.4475
 2508TIP3    H129083   0.047   5.398   7.346  0.6471  0.8049  1.4731
 2508TIP3    H229084  -0.082   5.474   7.368  0.8281  0.8480  2.3960
 2509TIP3   OH229085   0.200   0.522   1.178 -0.1178  0.1957  0.2600
 2509TIP3    H129086   0.113   0.528   1.140  0.8351  0.7330 -1.9540
 2509TIP3    H229087   0.224   0.429   1.169 -0.1464  0.2011  0.1311
 2510TIP3   OH229088   0.750   1.146   6.458 -0.5115  0.7972 -0.0772
 2510TIP3    H129089   0.713   1.065   6.493  2.2929 -1.3378 -1.5670
 2510TIP3    H229090   0.836   1.154   6.500  0.3385  1.5077 -1.8082
 2511TIP3   OH229091   4.207   2.686   8.653  0.3856 -0.3552 -0.2767
 2511TIP3    H129092   4.151   2.646   8.586 -1.4316 -1.2243  1.6429
 2511TIP3    H229093   4.150   2.748   8.699  1.8283  0.8767 -0.0598
 2512TIP3   OH229094   1.249   1.993   6.831 -0.6512 -0.4102 -0.0404
 2512TIP3    H129095   1.270   2.034   6.747 -1.8294 -0.5109 -0.3918
 2512TIP3    H229096   1.324   1.936   6.848  1.2555  2.1159  0.6649
 2513TIP3   OH229097   4.187   5.900   2.386  0.6044 -0.7548 -0.0531
 2513TIP3    H129098   4.161   5.889   2.477 -2.9873 -0.2541 -0.8731
 2513TIP3    H229099   4.232   5.985   2.384 -0.1953 -0.2883  1.0775
 2514TIP3   OH229100   0.867   6.347   7.733  0.0741  0.6587  0.5969
 2514TIP3    H129101   0.850   6.437   7.761  0.0053  0.0861  2.5495
 2514TIP3    H229102   0.828   6.341   7.646 -0.9593  2.1892  0.9177
 2515TIP3   OH229103   5.088   5.214   8.073  0.4456 -0.0148 -0.0169
 2515TIP3    H129104   5.120   5.173   7.992 -1.2178  0.2317 -0.8518
 2515TIP3    H229105   5.053   5.141   8.124  0.9160 -0.0919  0.1989
 2516TIP3   OH229106   4.880   2.163   2.791  0.0738 -0.6216 -0.7721
 2516TIP3    H129107   4.859   2.121   2.874  0.9824 -0.2255 -0.3263
 2516TIP3    H229108   4.810   2.136   2.732  0.0038 -1.8182 -0.1824
 2517TIP3   OH229109   6.871   1.316   0.988  0.1488 -0.4769  0.4718
 2517TIP3    H129110   6.823   1.249   1.037  0.8074 -0.1870  1.5631
 2517TIP3    H229111   6.937   1.267   0.939 -0.5740 -0.7805 -0.2302
 2518TIP3   OH229112   5.487   5.030   1.192 -0.5030 -0.6957  0.5103
 2518TIP3    H129113   5.422   5.054   1.126 -1.1308 -1.7881  0.6943
 2518TIP3    H229114   5.465   5.084   1.268 -1.2485 -1.0940  0.5889
 2519TIP3   OH229115   2.901   5.720   8.033 -0.3166  0.4813  1.2171
 2519TIP3    H129116   2.913   5.673   8.115  1.5592 -0.3506  0.5160
 2519TIP3    H229117   2.956   5.798   8.041  1.8888 -0.8495 -0.1370
 2520TIP3   OH229118   6.118   0.034   0.196  0.2595 -0.2356 -0.5722
 2520TIP3    H129119   6.110   0.030   0.291  0.4292 -0.0582 -0.5481
 2520TIP3    H229120   6.166   0.116   0.180  1.1267 -0.7616 -0.7479
 2521TIP3   OH229121   1.817   1.376   0.638 -0.9506 -0.0849  0.0830
 2521TIP3    H129122   1.892   1.423   0.601  1.1391 -2.1312  1.4208
 2521TIP3    H229123   1.834   1.284   0.617 -1.9590 -0.8210  2.1881
 2522TIP3   OH229124   5.519   0.151   7.447  0.3663 -0.3136  0.1976
 2522TIP3    H129125   5.572   0.180   7.373  1.0980 -1.6783  0.1554
 2522TIP3    H229126   5.560   0.069   7.475 -0.1193 -0.0125  1.8838
 2523TIP3   OH229127   1.716   1.501   7.464 -0.1266 -0.5208  0.1900
 2523TIP3    H129128   1.732   1.435   7.397  0.0729 -0.6502  0.3612
 2523TIP3    H229129   1.756   1.465   7.543 -0.7980 -0.6047  0.5036
 2524TIP3   OH229130   2.271   1.828   1.889 -0.3531  0.1269 -0.1268
 2524TIP3    H129131   2.349   1.856   1.937  0.1563 -0.4378 -0.6152
 2524TIP3    H229132   2.291   1.846   1.797 -0.9378  0.2906 -0.2332
 2525TIP3   OH229133   4.820   6.556   2.465 -0.2423  0.4495 -0.2252
 2525TIP3    H129134   4.856   6.576   2.551  0.8149 -0.2226 -0.4967
 2525TIP3    H229135   4.725   6.555   2.478 -0.0566 -0.9646  1.2362
 2526TIP3   OH229136   3.258   4.322   8.660 -0.2406  0.1484  0.0327
 2526TIP3    H129137   3.254   4.394   8.598 -0.1601  0.8106  0.7760
 2526TIP3    H229138   3.179   4.332   8.714  0.5524  0.6320  1.1446
 2527TIP3   OH229139   0.684   4.149   8.000 -0.8448 -0.6505 -0.2118
 2527TIP3    H129140   0.633   4.112   7.928 -1.3281 -2.1255  0.8580
 2527TIP3    H229141   0.768   4.104   7.996 -0.2910  0.3834 -0.7724
 2528TIP3   OH229142   4.365   3.573   0.267  0.0020  0.4898  0.0896
 2528TIP3    H129143   4.344   3.605   0.180 -0.1739  1.4214  0.4620
 2528TIP3    H229144   4.291   3.600   0.321  0.1104 -0.0711  0.5312
 2529TIP3   OH229145   5.383   1.671   6.748  0.5333  0.1852 -0.0561
 2529TIP3    H129146   5.365   1.701   6.659  1.8281  1.0853 -0.0453
 2529TIP3    H229147   5.300   1.681   6.794 -0.3825 -1.0572 -1.3336
 2530TIP3   OH229148   1.116   4.593   1.261  0.2917  0.2681 -0.2010
 2530TIP3    H129149   1.193   4.574   1.207  0.5371 -1.2062  0.6009
 2530TIP3    H229150   1.122   4.530   1.333 -1.9259 -0.2303 -0.3824
 2531TIP3   OH229151   6.196   0.093   0.459 -0.6527 -0.4488  0.2562
 2531TIP3    H129152   6.262   0.079   0.527 -0.3216 -1.4153 -0.2447
 2531TIP3    H229153   6.119   0.124   0.506 -0.0472  0.0798  0.9250
 2532TIP3   OH229154   1.022   5.891   1.794  0.0018  0.0695  0.3751
 2532TIP3    H129155   1.055   5.829   1.729 -1.2304  0.2870 -0.4899
 2532TIP3    H229156   1.083   5.964   1.791  0.8388 -0.6118  0.6034
 2533TIP3   OH229157   4.915   1.057   7.530 -0.5971  0.0446 -0.3335
 2533TIP3    H129158   4.965   1.068   7.611 -0.0802  1.5439 -0.8141
 2533TIP3    H229159   4.902   0.962   7.522  3.6846 -0.6856 -1.0527
 2534TIP3   OH229160   5.954   0.811   1.673  0.1779 -0.3375 -0.2458
 2534TIP3    H129161   5.895   0.740   1.647  0.5415 -1.2080  1.1736
 2534TIP3    H229162   5.951   0.811   1.768  1.3660  0.5502 -0.1848
 2535TIP3   OH229163   0.076   4.755   7.632 -0.6098 -0.2183 -0.2961
 2535TIP3    H129164   0.061   4.709   7.550  0.8748 -0.3931 -0.4978
 2535TIP3    H229165  -0.006   4.801   7.649 -1.3434 -1.1133 -1.2581
 2536TIP3   OH229166   5.661   5.872   7.729  0.4030 -0.2903  0.1994
 2536TIP3    H129167   5.662   5.872   7.633 -0.0727 -0.2022  0.1942
 2536TIP3    H229168   5.628   5.958   7.753  0.5076 -0.3178  0.4446
 2537TIP3   OH229169   1.230   3.624   7.811 -0.3992  0.3180  0.3486
 2537TIP3    H129170   1.240   3.590   7.901 -0.9349  1.6481  0.9324
 2537TIP3    H229171   1.318   3.652   7.786  0.3524 -2.5280 -0.6386
 2538TIP3   OH229172   1.264   4.467   1.454  0.5339 -0.2190  0.4436
 2538TIP3    H129173   1.325   4.405   1.415  1.5262  0.2593  1.2006
 2538TIP3    H229174   1.190   4.413   1.482 -0.1623 -0.5953 -1.9058
 2539TIP3   OH229175   3.787   1.538   0.453  0.2361  0.4394  0.2337
 2539TIP3    H129176   3.785   1.525   0.548 -0.2269  1.2697  0.3405
 2539TIP3    H229177   3.724   1.475   0.419 -1.9302  2.2167  0.7456
 2540TIP3   OH229178   5.171   2.122   7.016 -0.2434  0.2916  0.2862
 2540TIP3    H129179   5.168   2.035   6.976  1.8631 -0.0453  0.7359
 2540TIP3    H229180   5.244   2.165   6.973  0.4993  0.8243  2.0065
 2541TIP3   OH229181   6.869   0.310   7.681 -0.3691 -0.0371 -0.0213
 2541TIP3    H129182   6.856   0.385   7.739 -1.9576 -0.1357 -0.1888
 2541TIP3    H229183   6.905   0.347   7.601  1.5046  0.1479  0.8674
 2542TIP3   OH229184   3.158   3.621   8.417 -0.4162  0.6042 -0.0646
 2542TIP3    H129185   3.212   3.555   8.373  0.8656  0.8916  1.0269
 2542TIP3    H229186   3.218   3.667   8.475 -1.7561  1.2138  0.8989
 2543TIP3   OH229187   0.930   6.781   1.772 -0.0919 -0.4828 -0.5434
 2543TIP3    H129188   0.991   6.769   1.699  1.1328  0.7977  0.2139
 2543TIP3    H229189   0.851   6.732   1.746  0.6275 -0.7838 -2.3086
 2544TIP3   OH229190   2.664   1.183   7.732  0.3139  0.0652  0.1440
 2544TIP3    H129191   2.621   1.230   7.803  0.7508  1.1342 -0.2723
 2544TIP3    H229192   2.719   1.249   7.689  1.7647 -1.0831  0.1743
 2545TIP3   OH229193   4.510   5.222   8.658 -0.2971 -0.6393 -0.0610
 2545TIP3    H129194   4.431   5.258   8.617 -0.4990  0.6534  1.3940
 2545TIP3    H229195   4.483   5.136   8.692 -0.8169 -0.5977 -0.3656
 2546TIP3   OH229196   1.189   0.447   1.427  0.2072  0.6890 -0.6562
 2546TIP3    H129197   1.202   0.352   1.432 -0.5128  0.6554  1.1281
 2546TIP3    H229198   1.260   0.477   1.371  1.8631 -0.6573  0.6068
 2547TIP3   OH229199   2.935   6.220   0.496 -0.2780  0.6034 -0.4456
 2547TIP3    H129200   2.881   6.296   0.517  0.1510  0.8353 -0.1552
 2547TIP3    H229201   2.936   6.169   0.577  0.2897  0.8231 -0.3046
 2548TIP3   OH229202   6.289   5.865   8.043 -0.1000 -0.4832  0.5060
 2548TIP3    H129203   6.218   5.804   8.064 -0.2459 -0.7275 -0.6023
 2548TIP3    H229204   6.362   5.837   8.098  0.5593 -3.1040 -1.4921
 2549TIP3   OH229205   6.663   2.873   0.926  0.4980  0.0220 -0.2937
 2549TIP3    H129206   6.620   2.810   0.985  2.2500  0.2671  1.3349
 2549TIP3    H229207   6.613   2.954   0.937 -0.3738 -0.4574 -0.6509
 2550TIP3   OH229208   0.928   3.625   0.577 -0.3942  0.2141 -0.6083
 2550TIP3    H129209   0.997   3.689   0.563 -1.2362  1.3565  0.2786
 2550TIP3    H229210   0.975   3.543   0.592  0.6734  0.4103 -2.5924
 2551TIP3   OH229211   3.574   3.278   6.984 -0.9016 -0.1557  0.0183
 2551TIP3    H129212   3.547   3.299   6.895 -0.8465 -1.2680 -0.2724
 2551TIP3    H229213   3.668   3.260   6.978 -0.6140  1.0413  0.5505
 2552TIP3   OH229214   1.814   0.260   1.675  0.0255 -0.5334  0.0648
 2552TIP3    H129215   1.740   0.294   1.726  0.1136  0.5496 -0.5011
 2552TIP3    H229216   1.817   0.167   1.697 -0.8064 -0.3690  0.9554
 2553TIP3   OH229217   0.457   1.527   7.750 -0.6759 -0.7291 -0.0357
 2553TIP3    H129218   0.415   1.454   7.796  0.2855  0.0094  2.1526
 2553TIP3    H229219   0.411   1.605   7.782  2.0276  0.0929  2.2912
 2554TIP3   OH229220   0.581   3.785   8.326  1.0479  0.6887  0.1536
 2554TIP3    H129221   0.492   3.754   8.344  1.0009  1.0509  0.5729
 2554TIP3    H229222   0.618   3.802   8.413  0.9589  2.1166 -0.0697
 2555TIP3   OH229223   4.052   6.228   0.714  0.1295  0.0021  0.1107
 2555TIP3    H129224   4.111   6.274   0.774 -1.2070  0.9832  0.7152
 2555TIP3    H229225   3.985   6.190   0.771 -0.8769  0.5152 -0.7161
 2556TIP3   OH229226   3.065   4.919   1.284 -0.2738 -0.5639  0.1990
 2556TIP3    H129227   3.026   4.851   1.339 -0.8263 -1.0171 -0.7351
 2556TIP3    H229228   3.086   4.989   1.345 -0.6248 -1.1626  1.0317
 2557TIP3   OH229229   5.197   2.458   7.642  0.0838 -0.2682 -0.5274
 2557TIP3    H129230   5.127   2.518   7.616 -0.1381  0.7730  2.1638
 2557TIP3    H229231   5.163   2.371   7.621 -0.5897  0.3564 -2.2738
 2558TIP3   OH229232   2.938   1.085   8.345 -0.2349 -0.0072 -0.6661
 2558TIP3    H129233   2.998   1.064   8.417 -2.4497 -1.5101  0.8613
 2558TIP3    H229234   2.949   1.013   8.283 -0.4154 -0.2718 -0.3960
 2559TIP3   OH229235   5.715   3.557   0.433 -0.2001  0.0521  0.1400
 2559TIP3    H129236   5.686   3.639   0.473 -1.7057 -0.1422 -0.4712
 2559TIP3    H229237   5.723   3.578   0.340  0.6592 -0.1834  0.1534
 2560TIP3   OH229238   5.457   4.000   7.489 -0.3565 -0.0053 -0.0382
 2560TIP3    H129239   5.484   3.914   7.521 -0.1190  0.7820  2.0421
 2560TIP3    H229240   5.437   3.987   7.396  0.5510 -2.0890  0.0219
 2561TIP3   OH229241   3.350   5.761   8.526 -0.5878 -0.0404 -0.1656
 2561TIP3    H129242   3.408   5.706   8.473  0.9308  0.2750  1.0831
 2561TIP3    H229243   3.274   5.706   8.544  0.1310 -1.1296 -0.3631
 2562TIP3   OH229244   5.337   6.557   0.142  0.6274 -0.6339  0.3692
 2562TIP3    H129245   5.243   6.546   0.132 -0.0015  0.3523  3.8749
 2562TIP3    H229246   5.374   6.475   0.109 -1.5597 -1.6087  0.1594
 2563TIP3   OH229247   5.041   2.259   8.601  0.1496  0.0682  0.1577
 2563TIP3    H129248   4.964   2.249   8.656  1.5392 -0.5515  2.1077
 2563TIP3    H229249   5.029   2.194   8.531 -0.4482 -1.0143  1.2365
 2564TIP3   OH229250   3.304   5.792   8.054  0.2433  0.3153 -0.4060
 2564TIP3    H129251   3.226   5.784   8.107  1.3919  0.7542  1.4430
 2564TIP3    H229252   3.371   5.827   8.114  1.9442 -0.3517 -1.8074
 2565TIP3   OH229253   2.620   2.820   7.613 -0.2106 -0.7392  0.2718
 2565TIP3    H129254   2.554   2.760   7.646 -0.0389 -0.7391  0.6130
 2565TIP3    H229255   2.688   2.764   7.577  0.2410 -0.7687  1.1447
 2566TIP3   OH229256   4.921   0.878   1.702  0.7187  0.3967 -0.3023
 2566TIP3    H129257   4.962   0.890   1.787  2.1187 -2.1295 -0.5385
 2566TIP3    H229258   4.880   0.792   1.707 -2.6601  1.7836 -0.9239
 2567TIP3   OH229259   0.597   6.055   0.523 -0.4418  0.6698 -0.0526
 2567TIP3    H129260   0.550   6.000   0.460  0.2508 -0.4743  0.3880
 2567TIP3    H229261   0.644   5.992   0.578  0.7343  1.7392  0.2020
 2568TIP3   OH229262   5.491   0.561   6.859  0.4332  0.1754 -0.3543
 2568TIP3    H129263   5.412   0.586   6.811 -0.3940 -0.7768  0.4716
 2568TIP3    H229264   5.460   0.545   6.948  1.3205 -1.4507 -0.3013
 2569TIP3   OH229265   1.029   4.444   1.622 -0.5934 -0.0610  0.1958
 2569TIP3    H129266   0.980   4.369   1.654 -0.3873 -0.8954 -1.3497
 2569TIP3    H229267   1.074   4.479   1.699 -0.7289 -1.4926  0.9481
 2570TIP3   OH229268   6.773   6.792   0.287  0.5685  0.3438  0.0471
 2570TIP3    H129269   6.855   6.757   0.322  0.6255 -2.3005 -2.3371
 2570TIP3    H229270   6.710   6.782   0.358  1.9123  0.9266  1.3824
 2571TIP3   OH229271   1.093   1.823   8.591 -0.1836 -0.4612 -0.0412
 2571TIP3    H129272   1.184   1.802   8.571 -0.4454 -1.4568 -0.2461
 2571TIP3    H229273   1.070   1.894   8.531 -0.0090 -1.2737 -1.0868
 2572TIP3   OH229274   6.230   0.206   2.697  0.1282 -0.2773  0.6698
 2572TIP3    H129275   6.286   0.178   2.624  0.1966  0.9953  0.2127
 2572TIP3    H229276   6.145   0.167   2.679  0.5994 -1.4805  0.8923
 2573TIP3   OH229277   2.007   5.808   2.119 -1.1145  0.3981 -0.2068
 2573TIP3    H129278   2.032   5.889   2.164 -0.6576 -0.6447  1.4789
 2573TIP3    H229279   2.051   5.739   2.168 -0.3348 -0.7942 -2.4869
 2574TIP3   OH229280   5.547   0.651   8.435  0.2480 -0.7801 -0.2704
 2574TIP3    H129281   5.641   0.641   8.450  0.5371  1.3918 -0.3264
 2574TIP3    H229282   5.515   0.697   8.513 -0.6758 -0.9550 -0.5283
 2575TIP3   OH229283   1.441   2.845   6.935 -0.1326 -0.5838 -0.2931
 2575TIP3    H129284   1.485   2.791   7.001 -1.2567 -1.1175  0.0381
 2575TIP3    H229285   1.503   2.915   6.916 -0.2646  0.2944  2.2427
 2576TIP3   OH229286   4.526   3.452   8.284  0.1218 -0.5093  0.1180
 2576TIP3    H129287   4.558   3.376   8.333 -0.2569 -0.2561  0.7686
 2576TIP3    H229288   4.503   3.516   8.351 -2.8563 -1.0925 -0.1986
 2577TIP3   OH229289   5.450   6.744   7.876  0.4782 -0.0050  0.2025
 2577TIP3    H129290   5.476   6.749   7.784  0.7079 -1.7916  0.1217
 2577TIP3    H229291   5.376   6.804   7.884  2.3871  2.5857 -0.3744
 2578TIP3   OH229292   3.367   1.332   7.388  0.1580 -0.0515  0.1847
 2578TIP3    H129293   3.372   1.260   7.450  0.3136 -0.2729 -0.0813
 2578TIP3    H229294   3.458   1.350   7.364  0.0618 -0.4089 -0.4777
 2579TIP3   OH229295   5.757   0.520   0.997  0.2525 -0.0756  0.0637
 2579TIP3    H129296   5.766   0.523   1.092 -0.9206 -2.6903  0.3404
 2579TIP3    H229297   5.838   0.558   0.964  2.0077 -1.7285  2.1655
 2580TIP3   OH229298   6.772   1.363   0.666  0.2146 -0.2374  0.2363
 2580TIP3    H129299   6.748   1.396   0.752 -1.2738 -1.0168  0.1600
 2580TIP3    H229300   6.845   1.303   0.682 -2.1861 -3.1068  1.5509
 2581TIP3   OH229301   5.523   5.397   2.166  0.3586  0.7706  0.3337
 2581TIP3    H129302   5.499   5.318   2.214  0.9009 -0.4901 -1.3739
 2581TIP3    H229303   5.618   5.398   2.167  0.3921  0.5032 -1.0140
 2582TIP3   OH229304   4.377   2.149   0.857 -0.6062  0.7852 -0.1516
 2582TIP3    H129305   4.341   2.145   0.768  0.1288  2.2143 -0.5336
 2582TIP3    H229306   4.304   2.179   0.911 -1.0938 -0.2222 -0.2248
 2583TIP3   OH229307   0.417   4.885   1.661 -0.4886  0.3467  0.4033
 2583TIP3    H129308   0.390   4.963   1.612  1.0037  0.5380 -0.1560
 2583TIP3    H229309   0.369   4.892   1.744 -2.1963  0.5995 -0.5417
 2584TIP3   OH229310   6.367   0.143   1.702 -0.0808  0.5427  0.6011
 2584TIP3    H129311   6.388   0.050   1.686  0.1889  0.5675  0.8091
 2584TIP3    H229312   6.294   0.140   1.764  0.5330  0.4741  1.3407
 2585TIP3   OH229313   0.327   3.116   1.878  0.4578  0.1609  0.6758
 2585TIP3    H129314   0.356   3.057   1.808  1.4912  0.1826  1.0693
 2585TIP3    H229315   0.387   3.190   1.873 -0.9219  1.2812  0.0876
 2586TIP3   OH229316   5.862   3.115   1.136  0.0360 -0.3567  0.1537
 2586TIP3    H129317   5.881   3.134   1.228  0.6420  3.1808 -0.5520
 2586TIP3    H229318   5.772   3.083   1.137 -0.1240  0.0345  1.9371
 2587TIP3   OH229319   1.831   6.734   1.015 -0.2443  0.6153  0.2302
 2587TIP3    H129320   1.829   6.826   0.989 -3.1128  0.2029 -1.3374
 2587TIP3    H229321   1.908   6.699   0.970 -1.2794  1.4507 -2.3804
 2588TIP3   OH229322   0.245   1.661   2.463  0.6565  0.4401 -0.2236
 2588TIP3    H129323   0.234   1.667   2.368 -0.5350 -0.6157 -0.1906
 2588TIP3    H229324   0.332   1.624   2.475  0.7674  0.4647 -0.9071
 2589TIP3   OH229325   3.329   3.754   8.566  0.2214  0.7906 -0.5808
 2589TIP3    H129326   3.394   3.748   8.636  0.5063  0.5115 -0.8747
 2589TIP3    H229327   3.344   3.840   8.527 -1.0712  1.7177  0.8201
 2590TIP3   OH229328   4.870   3.943   7.811  0.1346 -0.0052  0.2050
 2590TIP3    H129329   4.813   3.938   7.888 -0.2719 -3.8701 -0.1734
 2590TIP3    H229330   4.810   3.949   7.737  0.4347  0.9519  0.0283
 2591TIP3   OH229331   2.977   2.886   1.232  0.1061  0.8922  0.4346
 2591TIP3    H129332   2.991   2.807   1.180 -0.2111  1.0662  0.0857
 2591TIP3    H229333   2.951   2.854   1.319  0.5225  0.6059  0.4543
 2592TIP3   OH229334   0.909   6.407   0.643 -0.2447 -0.0286 -0.3096
 2592TIP3    H129335   0.886   6.351   0.570 -0.5982  0.1447 -0.3318
 2592TIP3    H229336   0.862   6.489   0.627 -0.4975 -0.0630  0.2195
 2593TIP3   OH229337   3.151   5.635   2.510 -0.7204 -0.5414 -0.0420
 2593TIP3    H129338   3.184   5.619   2.599 -1.1394 -1.9601 -0.1338
 2593TIP3    H229339   3.187   5.563   2.458  1.6237  1.5802 -1.6240
 2594TIP3   OH229340   0.376   1.870   0.739  0.0953  0.0654 -0.2589
 2594TIP3    H129341   0.309   1.879   0.808  0.2667  0.5811 -0.1594
 2594TIP3    H229342   0.432   1.800   0.771 -2.0633 -2.5364 -1.7168
 2595TIP3   OH229343   5.998   1.609   0.535  0.2096  0.1559 -0.1167
 2595TIP3    H129344   6.005   1.697   0.498  1.1290 -0.1440 -0.7050
 2595TIP3    H229345   6.077   1.598   0.587 -0.2467 -0.0671  0.5407
 2596TIP3   OH229346   3.730   3.503   0.301  0.4734  0.3164  0.3698
 2596TIP3    H129347   3.737   3.432   0.364  0.3682  1.3916  1.6409
 2596TIP3    H229348   3.643   3.541   0.317  1.3667  2.1041  1.2575
 2597TIP3   OH229349   0.940   4.615   7.345  0.2525 -0.3179  0.3779
 2597TIP3    H129350   0.957   4.531   7.387 -0.4163  0.3078  2.0030
 2597TIP3    H229351   0.895   4.666   7.413 -0.4381  0.9259 -0.9713
 2598TIP3   OH229352   0.038   6.530   7.473 -0.2021 -0.1923 -0.1708
 2598TIP3    H129353  -0.056   6.532   7.493 -0.5631  1.9380 -1.7413
 2598TIP3    H229354   0.062   6.622   7.461  2.1607 -0.6760  0.3742
 2599TIP3   OH229355   2.580   5.284   6.567  0.0708 -0.3826 -0.3560
 2599TIP3    H129356   2.625   5.281   6.651  0.2013  2.1129 -0.2556
 2599TIP3    H229357   2.488   5.296   6.589  0.2269  1.3363 -0.5149
 2600TIP3   OH229358   6.275   6.843   8.031  0.7662  0.3094 -0.0810
 2600TIP3    H129359   6.347   6.885   7.984 -0.1595  0.9356 -0.9890
 2600TIP3    H229360   6.214   6.915   8.051  0.4560 -0.1836  0.8040
 2601TIP3   OH229361   1.863   2.234   1.160  0.6125 -0.0026  0.1993
 2601TIP3    H129362   1.787   2.183   1.188  1.0871 -1.3250 -0.8489
 2601TIP3    H229363   1.900   2.268   1.242 -0.0924 -0.7748  0.8600
 2602TIP3   OH229364   1.829   0.665   1.619 -0.2156 -0.2573  0.4495
 2602TIP3    H129365   1.823   0.596   1.685 -1.0244 -1.8126 -1.1581
 2602TIP3    H229366   1.739   0.695   1.607 -0.0166  0.3049  0.3462
 2603TIP3   OH229367   2.377   1.753   7.413  0.1056 -0.5498 -1.0932
 2603TIP3    H129368   2.391   1.842   7.381 -0.7895 -0.2771 -0.7449
 2603TIP3    H229369   2.465   1.720   7.430  0.4008  0.6831 -0.1200
 2604TIP3   OH229370   6.565   3.364   2.208 -0.0824 -0.2040 -0.2600
 2604TIP3    H129371   6.635   3.351   2.144  0.6039 -0.2259  0.4891
 2604TIP3    H229372   6.585   3.303   2.279  0.4299  1.3913  1.0239
 2605TIP3   OH229373   1.410   3.132   6.657 -0.3654  0.0195 -0.1007
 2605TIP3    H129374   1.444   3.221   6.649 -0.1427  0.0500  1.0785
 2605TIP3    H229375   1.477   3.084   6.704 -1.6798 -0.0447  1.8115
 2606TIP3   OH229376   0.441   6.172   2.333  0.7925  0.5081  0.4968
 2606TIP3    H129377   0.503   6.113   2.291  0.5058 -0.1329  0.9628
 2606TIP3    H229378   0.358   6.154   2.290  1.0827  2.0878 -0.8494
 2607TIP3   OH229379   1.324   5.568   1.046  0.1039  0.1637 -0.2884
 2607TIP3    H129380   1.305   5.607   1.132 -1.0997 -0.1544 -0.3836
 2607TIP3    H229381   1.406   5.609   1.018  0.4405  0.3787  0.9477
 2608TIP3   OH229382   0.077   0.204   0.787 -0.0658  0.6418  0.5347
 2608TIP3    H129383   0.043   0.231   0.701  0.1318  0.0919  0.2795
 2608TIP3    H229384   0.037   0.265   0.848 -0.0619  1.1623  0.0282
 2609TIP3   OH229385   0.781   2.675   1.109  0.5611 -0.7300 -0.1085
 2609TIP3    H129386   0.706   2.617   1.097  1.3038 -1.7319 -0.0999
 2609TIP3    H229387   0.813   2.691   1.021  0.4799 -0.5044 -0.0963
 2610TIP3   OH229388   6.663   3.512   0.228 -0.2703 -0.3118  0.1712
 2610TIP3    H129389   6.696   3.503   0.317 -1.3247  0.8270  0.7026
 2610TIP3    H229390   6.700   3.437   0.181  3.6278  1.1551  0.5012
 2611TIP3   OH229391   4.888   6.488   8.557  0.1045  0.0323 -0.4400
 2611TIP3    H129392   4.919   6.548   8.490  0.1631 -0.5516 -0.9458
 2611TIP3    H229393   4.951   6.496   8.629 -0.5080  1.4018 -0.0206
 2612TIP3   OH229394   2.805   2.283   7.424 -0.0275 -0.3549  0.8447
 2612TIP3    H129395   2.892   2.271   7.385 -0.7116 -0.4799 -0.7061
 2612TIP3    H229396   2.805   2.374   7.453 -0.2332  0.4289 -1.4564
 2613TIP3   OH229397   0.243   5.701   0.592 -0.1867 -0.3815 -0.8210
 2613TIP3    H129398   0.297   5.778   0.608  0.4223 -0.7719 -0.9868
 2613TIP3    H229399   0.153   5.732   0.607  0.1576 -0.0685  0.7033
 2614TIP3   OH229400   0.028   3.843   0.571 -0.7549  0.3061  0.1245
 2614TIP3    H129401  -0.052   3.824   0.522 -0.4197 -2.1102  0.3844
 2614TIP3    H229402  -0.002   3.865   0.659 -1.2078 -4.1231  1.3130
 2615TIP3   OH229403   1.482   2.446   7.357 -0.1040  0.2803  0.3468
 2615TIP3    H129404   1.543   2.372   7.356 -0.2883  0.1265  0.3483
 2615TIP3    H229405   1.395   2.406   7.345 -0.3054  0.4030  1.3408
 2616TIP3   OH229406   0.332   2.572   6.401 -0.1100  0.6445 -0.3644
 2616TIP3    H129407   0.403   2.509   6.403  0.9639  1.7079 -2.1400
 2616TIP3    H229408   0.260   2.526   6.358 -0.1626 -0.1098  0.5115
 2617TIP3   OH229409   5.369   0.756   1.905  0.1072  0.2483 -0.2436
 2617TIP3    H129410   5.368   0.677   1.958  2.2965  0.1539 -0.2591
 2617TIP3    H229411   5.297   0.745   1.843 -0.2528 -1.2531  0.4161
 2618TIP3   OH229412   0.629   4.384   0.852 -0.6482 -0.0924 -0.1791
 2618TIP3    H129413   0.683   4.411   0.926  0.1631 -0.4339 -0.6386
 2618TIP3    H229414   0.564   4.326   0.890 -0.9313  0.6151  0.4388
 2619TIP3   OH229415   4.297   0.544   1.754 -0.5454  0.2520  0.3014
 2619TIP3    H129416   4.309   0.628   1.710 -0.2188  0.1557  0.1986
 2619TIP3    H229417   4.352   0.483   1.704  2.7426  0.8031  2.8585
 2620TIP3   OH229418   2.998   2.967   7.068  0.2790 -0.2153 -0.0023
 2620TIP3    H129419   2.990   2.874   7.092 -1.3093 -0.2904 -0.6944
 2620TIP3    H229420   3.011   2.966   6.973  1.0078  0.2715  0.0794
 2621TIP3   OH229421   2.405   0.629   0.276 -0.0917 -0.4790  0.2974
 2621TIP3    H129422   2.333   0.567   0.261 -0.2150 -0.8262  2.1586
 2621TIP3    H229423   2.362   0.709   0.305  0.0750  0.5366 -2.0656
 2622TIP3   OH229424   3.237   3.480   0.113 -0.0275  0.6088 -0.1088
 2622TIP3    H129425   3.309   3.494   0.175 -0.3049  0.6521  0.2030
 2622TIP3    H229426   3.279   3.440   0.037  0.4552  1.2980 -0.2185
 2623TIP3   OH229427   1.707   2.477   1.562 -0.5247 -0.3028  0.1735
 2623TIP3    H129428   1.791   2.437   1.586 -0.1951  0.3669  0.1475
 2623TIP3    H229429   1.674   2.515   1.643 -0.3350  0.2776 -0.0154
 2624TIP3   OH229430   1.569   3.245   0.314  0.1414 -0.5120 -0.6546
 2624TIP3    H129431   1.561   3.277   0.404  0.8196  0.5649 -0.9574
 2624TIP3    H229432   1.660   3.216   0.307  0.4674  0.6413 -1.3641
 2625TIP3   OH229433   5.384   5.595   8.192 -0.0156 -0.2753 -0.2865
 2625TIP3    H129434   5.404   5.664   8.129  1.4336  0.4176  0.8639
 2625TIP3    H229435   5.391   5.514   8.142 -0.3991  0.3261 -1.3469
 2626TIP3   OH229436   1.749   1.757   0.862 -0.0913  0.8547 -0.2071
 2626TIP3    H129437   1.824   1.814   0.844  0.6098 -0.9018 -3.5983
 2626TIP3    H229438   1.674   1.803   0.823 -0.3046  1.2258  0.5967
 2627TIP3   OH229439   0.875   5.890   0.429 -0.2986  0.1288 -0.5683
 2627TIP3    H129440   0.847   5.974   0.467 -0.0815 -0.0462 -0.0060
 2627TIP3    H229441   0.917   5.914   0.346 -1.3717  0.4594 -1.0285
 2628TIP3   OH229442   2.187   5.286   0.115  0.3476  0.0035 -0.1270
 2628TIP3    H129443   2.236   5.232   0.177 -0.0926 -0.8242 -0.4843
 2628TIP3    H229444   2.249   5.306   0.045  0.8873  1.0630  0.6375
 2629TIP3   OH229445   3.634   6.743   0.424 -0.3526 -0.1005  0.4897
 2629TIP3    H129446   3.652   6.835   0.403 -1.1715 -0.4284 -1.9851
 2629TIP3    H229447   3.568   6.746   0.492  2.5569  1.0733  3.5301
 2630TIP3   OH229448   0.317   0.690   1.765 -0.3458  0.1672  0.4225
 2630TIP3    H129449   0.406   0.654   1.762 -0.4391 -0.1796  1.3472
 2630TIP3    H229450   0.286   0.683   1.675 -0.1326 -1.5519  0.4361
 2631TIP3   OH229451   6.134   5.464   7.277  0.1387 -0.1869  0.5068
 2631TIP3    H129452   6.065   5.525   7.251 -0.4090 -0.6567  0.8417
 2631TIP3    H229453   6.088   5.387   7.310  0.8211 -0.7377  0.2112
 2632TIP3   OH229454   0.316   4.517   2.531  0.8825  0.2097 -0.5228
 2632TIP3    H129455   0.250   4.576   2.494 -0.0567  0.2731  1.1823
 2632TIP3    H229456   0.387   4.575   2.558  0.5640  0.4190 -0.1237
 2633TIP3   OH229457   1.974   4.248   7.544  0.0066  0.4649  0.3488
 2633TIP3    H129458   1.911   4.178   7.561  0.3648  0.3244  1.0967
 2633TIP3    H229459   2.016   4.265   7.628  0.9735  0.5557 -0.1388
 2634TIP3   OH229460   0.934   4.562   7.659 -0.7520  0.5146 -0.2691
 2634TIP3    H129461   0.960   4.491   7.601 -1.4573  1.2590 -1.5423
 2634TIP3    H229462   0.900   4.518   7.737  2.7843 -0.4938  0.8831
 2635TIP3   OH229463   3.791   5.259   8.050  0.3166  0.4839 -0.1796
 2635TIP3    H129464   3.766   5.350   8.032 -3.5848 -0.3062  0.1941
 2635TIP3    H229465   3.817   5.259   8.142  0.5401  1.2627 -0.2366
 2636TIP3   OH229466   0.496   3.957   7.350  0.0711  0.1668 -0.0106
 2636TIP3    H129467   0.522   3.867   7.332  0.4804  0.6896 -2.2751
 2636TIP3    H229468   0.445   3.983   7.274  0.0846  1.9107  0.5395
 2637TIP3   OH229469   1.411   4.661   1.582  0.2095 -0.1080  0.4454
 2637TIP3    H129470   1.355   4.711   1.641  0.7954  1.8287 -0.5538
 2637TIP3    H229471   1.353   4.594   1.545 -1.2316  1.2695  0.1073
 2638TIP3   OH229472   6.542   1.807   1.699 -0.1300  0.4561  0.3171
 2638TIP3    H129473   6.573   1.895   1.680  0.0423 -0.0355 -1.9126
 2638TIP3    H229474   6.446   1.815   1.704 -0.1415  0.7210 -0.2694
 2639TIP3   OH229475   1.913   2.459   0.117 -0.1802 -0.1674 -0.3608
 2639TIP3    H129476   1.995   2.443   0.163 -0.9845 -0.2023  1.1219
 2639TIP3    H229477   1.919   2.550   0.089  0.5080 -0.2742 -0.5771
 2640TIP3   OH229478   0.113   1.092   6.739 -0.6901 -0.2674  0.3335
 2640TIP3    H129479   0.023   1.121   6.722 -0.7286 -0.7409 -0.3002
 2640TIP3    H229480   0.168   1.158   6.697 -0.7796 -1.8482 -2.6114
 2641TIP3   OH229481   3.947   4.714   0.567  0.7525  0.4862 -0.2379
 2641TIP3    H129482   4.024   4.663   0.541  0.0395  0.1880 -1.8495
 2641TIP3    H229483   3.958   4.726   0.662  2.8153  0.5353 -0.4254
 2642TIP3   OH229484   0.526   1.947   7.037 -0.2226 -0.1166  0.1498
 2642TIP3    H129485   0.508   1.982   7.124 -1.9415  1.2307 -0.6977
 2642TIP3    H229486   0.538   2.025   6.982 -0.1109 -0.9267 -1.0055
 2643TIP3   OH229487   4.515   6.822   7.617  0.2279  0.0122  0.1337
 2643TIP3    H129488   4.530   6.912   7.589 -0.7735  0.8549  2.1277
 2643TIP3    H229489   4.433   6.825   7.666 -1.9677 -2.7361 -2.9349
 2644TIP3   OH229490   3.522   4.597   0.838 -0.0394 -0.3316 -0.4609
 2644TIP3    H129491   3.587   4.531   0.813 -0.0136 -0.3441 -0.3625
 2644TIP3    H229492   3.573   4.676   0.855 -0.2243  0.2262 -2.2983
 2645TIP3   OH229493   0.493   6.371   1.705  0.1449 -0.3369 -0.2478
 2645TIP3    H129494   0.485   6.455   1.660  0.3697 -0.1140  0.1194
 2645TIP3    H229495   0.419   6.370   1.766  1.3944  0.6222  1.3740
 2646TIP3   OH229496   4.172   2.932   7.003  0.0540  0.3617  0.3836
 2646TIP3    H129497   4.098   2.905   6.949  0.6745 -0.4450 -0.0790
 2646TIP3    H229498   4.249   2.904   6.955  0.6671  0.9978  0.9665
 2647TIP3   OH229499   4.679   5.253   1.326 -0.7689  0.3790 -0.4841
 2647TIP3    H129500   4.712   5.235   1.238 -2.7858  0.5314 -1.3338
 2647TIP3    H229501   4.649   5.344   1.323  0.2236  0.7792  0.7545
 2648TIP3   OH229502   2.173   2.802   1.240 -0.2364  0.1165  0.1498
 2648TIP3    H129503   2.192   2.708   1.244 -2.5588 -0.3843  0.6028
 2648TIP3    H229504   2.257   2.844   1.259  0.8498 -1.8508 -0.0347
 2649TIP3   OH229505   4.616   0.549   1.208  0.7013  0.2554 -0.5483
 2649TIP3    H129506   4.669   0.528   1.131 -0.0201 -0.3641 -0.8861
 2649TIP3    H229507   4.612   0.467   1.257 -1.4794 -0.2758 -1.4743
 2650TIP3   OH229508   5.796   4.879   1.896  0.1056 -0.3156 -0.5670
 2650TIP3    H129509   5.882   4.854   1.929  0.2889  0.6601 -0.2688
 2650TIP3    H229510   5.809   4.965   1.857 -1.1201  0.8035  1.3141
 2651TIP3   OH229511   2.235   3.340   8.569  0.6526 -0.0865 -0.6943
 2651TIP3    H129512   2.240   3.257   8.617  0.5153  0.0445 -0.4534
 2651TIP3    H229513   2.255   3.316   8.478  0.4922 -0.4030 -0.6482
 2652TIP3   OH229514   0.285   3.396   2.931 -0.3132 -0.2460 -0.8139
 2652TIP3    H129515   0.213   3.457   2.947  0.2725  0.5620 -1.2338
 2652TIP3    H229516   0.302   3.402   2.837  1.4819  0.9201 -0.4398
 2653TIP3   OH229517   4.602   3.203   1.265 -0.7012 -0.2772 -0.0339
 2653TIP3    H129518   4.610   3.125   1.210  1.1589  0.9266 -1.5890
 2653TIP3    H229519   4.558   3.267   1.209  1.5799  1.1037 -0.3591
 2654TIP3   OH229520   1.443   3.921   7.819  0.4146  0.0331  0.0083
 2654TIP3    H129521   1.442   3.888   7.909 -0.6353 -0.1575 -0.0543
 2654TIP3    H229522   1.474   3.848   7.766 -1.6917 -0.8727 -0.1029
 2655TIP3   OH229523   4.009   4.093   0.677  0.2837 -0.1601  0.2198
 2655TIP3    H129524   4.087   4.047   0.708 -0.8076 -2.1641  0.1933
 2655TIP3    H229525   3.955   4.104   0.755 -0.1108 -0.2849 -0.0321
 2656TIP3   OH229526   1.163   0.615   0.226  0.0127 -0.6210 -0.1945
 2656TIP3    H129527   1.206   0.537   0.193 -0.4905 -0.6426 -0.8161
 2656TIP3    H229528   1.179   0.614   0.320  0.8428 -0.9477 -0.3343
 2657TIP3   OH229529   2.672   4.587   0.472 -0.0116 -0.0366  0.6922
 2657TIP3    H129530   2.592   4.577   0.421  0.2736  2.6881 -0.4666
 2657TIP3    H229531   2.647   4.562   0.561 -2.7660  2.5693  0.7886
 2658TIP3   OH229532   1.608   3.607   7.348  0.0276  0.1547  0.1981
 2658TIP3    H129533   1.567   3.522   7.332  0.3993 -0.0029  0.0880
 2658TIP3    H229534   1.575   3.662   7.277  1.3690 -0.4429 -0.9449
 2659TIP3   OH229535   3.270   2.682   1.824  0.4051  0.2178 -0.1042
 2659TIP3    H129536   3.259   2.773   1.794  0.6372 -0.0800 -1.1401
 2659TIP3    H229537   3.264   2.630   1.744  1.7364 -0.5623  0.2759
 2660TIP3   OH229538   2.757   3.506   1.818 -0.0512  0.6388 -0.7467
 2660TIP3    H129539   2.708   3.437   1.862 -3.1071  2.5600 -0.8237
 2660TIP3    H229540   2.816   3.541   1.885  1.0891 -1.5161 -0.5430
 2661TIP3   OH229541   4.715   4.978   2.066  0.2345 -0.1264 -0.6688
 2661TIP3    H129542   4.790   5.016   2.021  0.1807  0.0406 -0.6193
 2661TIP3    H229543   4.709   4.889   2.032  1.3562 -0.6425  0.4107
 2662TIP3   OH229544   5.926   4.633   1.273 -0.4029 -0.1514  0.0343
 2662TIP3    H129545   5.864   4.705   1.290 -0.5277 -0.1882 -0.2640
 2662TIP3    H229546   5.871   4.555   1.269 -0.5034 -0.0368 -1.4227
 2663TIP3   OH229547   0.678   2.335   1.758  0.3462 -0.1819  0.0276
 2663TIP3    H129548   0.695   2.316   1.665 -0.8645 -2.6259  0.2485
 2663TIP3    H229549   0.586   2.359   1.761  0.4221  0.0500  0.5932
 2664TIP3   OH229550   3.481   6.444   7.678 -0.4084  0.1212 -0.3084
 2664TIP3    H129551   3.533   6.386   7.733  0.6790 -0.1513 -1.5697
 2664TIP3    H229552   3.492   6.531   7.717  0.4190 -0.0488 -0.1371
 2665TIP3   OH229553   5.856   3.582   8.099  0.0276 -0.0976 -0.3657
 2665TIP3    H129554   5.834   3.601   8.008  0.6785 -2.6459 -1.1359
 2665TIP3    H229555   5.774   3.551   8.138 -0.0343  0.0600 -0.3729
 2666TIP3   OH229556   3.987   5.830   1.048  0.0118  0.0525  0.3229
 2666TIP3    H129557   3.955   5.787   0.969 -1.6058 -1.4951  1.7318
 2666TIP3    H229558   4.078   5.802   1.055  0.5872  1.2497 -1.6082
 2667TIP3   OH229559   0.202   4.624   0.653  0.0952 -0.5213  0.2175
 2667TIP3    H129560   0.153   4.664   0.582  0.0875 -0.6745  0.1359
 2667TIP3    H229561   0.290   4.613   0.618  0.3097  0.1715  0.5191
 2668TIP3   OH229562   1.964   5.703   1.059 -0.2132  0.3231  0.2780
 2668TIP3    H129563   1.990   5.611   1.060  0.7874  0.5965  0.1594
 2668TIP3    H229564   1.894   5.708   0.994  0.2965 -0.2075 -0.3220
 2669TIP3   OH229565   1.687   6.077   1.709  0.3688 -0.3107  0.0068
 2669TIP3    H129566   1.689   5.982   1.716  1.8281 -0.4729 -1.8053
 2669TIP3    H229567   1.736   6.096   1.629 -0.3839  1.9414  0.0158
 2670TIP3   OH229568   5.147   3.630   6.937 -0.1512 -0.2262 -0.6599
 2670TIP3    H129569   5.225   3.679   6.910 -0.1657 -0.7881 -1.7654
 2670TIP3    H229570   5.075   3.668   6.886 -0.7685  0.8090  0.9147
 2671TIP3   OH229571   6.337   4.193   0.283  0.3650  0.0450  0.5348
 2671TIP3    H129572   6.283   4.271   0.292 -0.6446 -0.6279  0.5365
 2671TIP3    H229573   6.360   4.169   0.373 -1.3465 -0.9949  0.7494
 2672TIP3   OH229574   1.281   5.172   1.914  0.2056  0.1843  0.0762
 2672TIP3    H129575   1.340   5.230   1.963  0.2120  0.5367 -0.3390
 2672TIP3    H229576   1.194   5.209   1.928  0.2272  0.3870 -0.3144
 2673TIP3   OH229577   0.215   2.608   2.121 -0.4112  0.9143  0.4016
 2673TIP3    H129578   0.191   2.665   2.194  0.7402  1.3190  0.4823
 2673TIP3    H229579   0.277   2.545   2.160  0.3288  1.2259 -0.2367
 2674TIP3   OH229580   1.259   0.699   7.718 -0.2498 -0.3407  0.6662
 2674TIP3    H129581   1.275   0.770   7.779  0.9798  0.5798 -0.6726
 2674TIP3    H229582   1.340   0.647   7.719 -0.7217 -1.0981  0.8058
 2675TIP3   OH229583   3.928   0.636   8.393  0.3206  0.1253  0.1426
 2675TIP3    H129584   3.877   0.702   8.347 -0.1040 -1.7831 -2.2992
 2675TIP3    H229585   3.871   0.606   8.464 -1.0865 -0.3067 -1.1131
 2676TIP3   OH229586   0.234   1.286   1.951  0.0485  0.2409  0.4604
 2676TIP3    H129587   0.252   1.367   1.998 -0.7056 -1.0138  3.1010
 2676TIP3    H229588   0.300   1.225   1.984  1.5367  0.0513 -2.5449
 2677TIP3   OH229589   4.085   1.998   7.508  0.3398 -0.1436  0.3862
 2677TIP3    H129590   4.180   1.998   7.496  0.3232  1.1757  0.0930
 2677TIP3    H229591   4.071   1.974   7.599  0.9275 -0.7170  0.3312
 2678TIP3   OH229592   6.454   1.650   0.317  0.0820 -0.2178  0.1115
 2678TIP3    H129593   6.402   1.671   0.239 -0.1766  0.0207  0.3467
 2678TIP3    H229594   6.415   1.570   0.351  1.1160 -1.1708 -0.8290
 2679TIP3   OH229595   1.986   5.424   1.715  0.7457  0.2469 -0.2894
 2679TIP3    H129596   2.022   5.490   1.775  0.4403 -0.8632  1.1806
 2679TIP3    H229597   1.908   5.465   1.678 -0.9461 -0.1104  2.5711
 2680TIP3   OH229598   3.376   0.936   0.337 -0.0547 -0.2781 -0.1879
 2680TIP3    H129599   3.430   0.874   0.386 -0.4094 -0.6513 -0.2651
 2680TIP3    H229600   3.372   0.900   0.248 -0.9854 -0.6215 -0.0225
 2681TIP3   OH229601   6.421   4.091   7.099 -0.4141  0.4586 -0.1400
 2681TIP3    H129602   6.426   4.185   7.114  1.3503  0.4568 -0.4441
 2681TIP3    H229603   6.422   4.081   7.004 -1.0930  0.1375 -0.1196
 2682TIP3   OH229604   0.433   4.285   8.427 -0.0318 -0.2269  1.2133
 2682TIP3    H129605   0.497   4.225   8.390 -1.6118 -1.7141  0.7500
 2682TIP3    H229606   0.374   4.305   8.354 -1.0733 -0.2844  2.0040
 2683TIP3   OH229607   6.194   0.833   0.813  0.1402 -0.0230  0.0536
 2683TIP3    H129608   6.204   0.838   0.718  0.2000  0.7901  0.0991
 2683TIP3    H229609   6.284   0.823   0.846  0.0596 -1.1572 -0.0068
 2684TIP3   OH229610   0.333   0.259   0.087 -0.0221 -0.1566  0.3206
 2684TIP3    H129611   0.370   0.257  -0.001 -0.5038 -3.0915  0.1077
 2684TIP3    H229612   0.410   0.255   0.145  0.2186 -0.0774  0.0115
 2685TIP3   OH229613   4.594   5.297   1.968  0.1356  0.2676 -0.1298
 2685TIP3    H129614   4.597   5.208   1.931  0.8996  1.1274 -2.2932
 2685TIP3    H229615   4.684   5.313   1.998  0.1581  0.5532 -0.3512
 2686TIP3   OH229616   2.014   3.397   8.232 -0.4061  0.1284 -0.1272
 2686TIP3    H129617   1.919   3.402   8.224 -0.4538 -0.9898 -0.5047
 2686TIP3    H229618   2.032   3.303   8.236  0.6998  0.3188 -0.3725
 2687TIP3   OH229619   5.889   5.943   8.247 -0.2675 -0.3984  0.0478
 2687TIP3    H129620   5.966   5.957   8.190 -1.6241  2.0860 -1.3622
 2687TIP3    H229621   5.840   5.873   8.204 -0.8648  0.9041 -1.5008
 2688TIP3   OH229622   0.409   6.524   0.001  0.0493 -0.1145 -0.0997
 2688TIP3    H129623   0.346   6.451  -0.006 -0.4756  0.3781 -0.6204
 2688TIP3    H229624   0.447   6.531  -0.087  2.4267 -1.7750  0.6953
 2689TIP3   OH229625   5.114   4.621   0.497 -0.4560  0.9360 -0.1207
 2689TIP3    H129626   5.103   4.527   0.512 -0.6667  1.1883  1.4594
 2689TIP3    H229627   5.080   4.635   0.409 -0.6510 -0.4193 -0.2914
 2690TIP3   OH229628   3.297   3.980   8.065  0.2385  0.1263  0.3175
 2690TIP3    H129629   3.342   3.971   8.150  0.5493  3.0844  0.5964
 2690TIP3    H229630   3.309   3.896   8.022  2.8014 -0.4603  1.9494
 2691TIP3   OH229631   4.404   2.989   1.571  0.1026  0.1400  0.2628
 2691TIP3    H129632   4.487   3.035   1.557  0.3968 -0.2050  0.8200
 2691TIP3    H229633   4.408   2.915   1.509 -1.3604  2.0350 -2.2882
 2692TIP3   OH229634   5.074   0.530   7.582  0.0334  0.2014 -0.4697
 2692TIP3    H129635   4.979   0.536   7.572 -0.1050 -0.3560  0.3820
 2692TIP3    H229636   5.107   0.613   7.548 -0.7485  0.3703 -0.8441
 2693TIP3   OH229637   2.096   3.903   8.312 -0.2960 -0.4529  0.6461
 2693TIP3    H129638   2.107   3.808   8.304  1.5037 -0.2037 -0.6753
 2693TIP3    H229639   2.177   3.939   8.276 -1.3984  1.6135  0.0500
 2694TIP3   OH229640   6.326   4.794   1.215 -0.2354  0.5222 -0.3153
 2694TIP3    H129641   6.293   4.849   1.287 -0.3128  0.4294 -0.2791
 2694TIP3    H229642   6.300   4.705   1.240 -1.0124  0.5792 -0.8720
 2695TIP3   OH229643   5.901   0.599   6.638  0.0350  0.3118  0.2531
 2695TIP3    H129644   5.889   0.648   6.557  2.0716 -0.2128 -0.4347
 2695TIP3    H229645   5.946   0.659   6.697 -1.6792  0.7821  1.1422
 2696TIP3   OH229646   1.824   5.753   1.670  0.0389 -0.0382  0.0648
 2696TIP3    H129647   1.834   5.744   1.765  0.5911 -1.1351 -0.0825
 2696TIP3    H229648   1.731   5.737   1.654  0.2258 -1.5022  0.2706
 2697TIP3   OH229649   3.350   0.950   0.695  0.1559 -0.2725 -0.6058
 2697TIP3    H129650   3.350   0.859   0.725 -0.1740 -0.2047 -0.3961
 2697TIP3    H229651   3.267   0.961   0.649 -1.1578  0.6770  1.7680
 2698TIP3   OH229652   5.164   0.141   7.063 -0.3752  0.0295 -0.0016
 2698TIP3    H129653   5.185   0.140   7.156 -0.9394  2.1253  0.1781
 2698TIP3    H229654   5.076   0.104   7.057  0.2846 -1.6653  0.0627
 2699TIP3   OH229655   6.220   6.827   0.843 -0.1918 -0.0708  0.2647
 2699TIP3    H129656   6.211   6.887   0.917 -0.3606 -0.4233  0.5319
 2699TIP3    H229657   6.212   6.740   0.882  0.0496 -0.2668 -0.1205
 2700TIP3   OH229658   0.064   2.247   1.999  0.4537  0.3959  0.1477
 2700TIP3    H129659   0.065   2.154   1.978  1.8236  0.1880  1.0000
 2700TIP3    H229660   0.143   2.261   2.051 -0.4092  1.7811  1.1668
 2701TIP3   OH229661   2.673   5.191   8.053  0.7774  0.0435 -0.3106
 2701TIP3    H129662   2.717   5.182   8.138 -0.4320  0.1485  0.3527
 2701TIP3    H229663   2.634   5.105   8.037 -1.3881  0.7509  0.6615
 2702TIP3   OH229664   4.961   2.998   0.998  0.1036 -0.3741  0.2362
 2702TIP3    H129665   5.003   3.056   1.062  0.2645  1.3327 -1.3613
 2702TIP3    H229666   4.903   2.942   1.051  0.6790  0.5719  1.9267
 2703TIP3   OH229667   1.799   6.366   6.536  0.4211 -0.5528  0.1043
 2703TIP3    H129668   1.763   6.451   6.560  0.0793 -0.1472 -1.7301
 2703TIP3    H229669   1.893   6.374   6.552  0.4867  0.4220 -0.7167
 2704TIP3   OH229670   3.556   5.749   1.594  0.0856 -0.3890 -0.2308
 2704TIP3    H129671   3.646   5.717   1.607  0.2250 -0.3622 -1.0885
 2704TIP3    H229672   3.503   5.695   1.653  0.5457 -1.0584 -0.4162
 2705TIP3   OH229673   0.786   1.034   0.487 -0.3044 -0.2265  0.2510
 2705TIP3    H129674   0.835   1.029   0.405 -0.9759  1.1109 -0.2746
 2705TIP3    H229675   0.800   1.124   0.517 -1.9099  0.0152  0.3804
 2706TIP3   OH229676   4.386   1.998   6.884 -0.2680 -0.2250  0.1660
 2706TIP3    H129677   4.394   1.903   6.893 -0.1926 -0.1733  0.6447
 2706TIP3    H229678   4.291   2.013   6.889 -0.2155 -0.1784  1.0695
 2707TIP3   OH229679   3.016   6.060   7.931 -0.3526  0.6200 -0.5726
 2707TIP3    H129680   2.929   6.044   7.967 -0.4756 -0.2245 -1.2052
 2707TIP3    H229681   3.028   5.990   7.867  0.2978  1.4410 -1.3747
 2708TIP3   OH229682   5.401   4.279   0.416  0.3141 -0.1842  0.1223
 2708TIP3    H129683   5.368   4.260   0.328  2.5389 -0.7494 -0.6842
 2708TIP3    H229684   5.347   4.226   0.474 -2.0099  1.1406 -0.7344
 2709TIP3   OH229685   5.989   2.179   1.425  0.4402 -0.2261  0.3790
 2709TIP3    H129686   6.025   2.219   1.346  0.8676  1.0504  1.1955
 2709TIP3    H229687   5.902   2.217   1.434  0.7459  0.3463  1.0142
 2710TIP3   OH229688   0.768   6.609   1.641 -0.3438 -0.1933 -0.2456
 2710TIP3    H129689   0.797   6.541   1.581  0.4929  0.0041 -0.0776
 2710TIP3    H229690   0.677   6.587   1.661 -0.6902 -0.1512 -1.7239
 2711TIP3   OH229691   5.567   1.977   0.318 -0.0819  0.0403  0.9279
 2711TIP3    H129692   5.577   1.970   0.413  0.3036  0.0737  0.8906
 2711TIP3    H229693   5.628   2.046   0.293 -0.6603  0.4889  0.7373
 2712TIP3   OH229694   4.025   5.919   2.641  0.1255 -0.3869 -0.2871
 2712TIP3    H129695   4.018   6.014   2.646  0.3373 -0.3091 -1.1655
 2712TIP3    H229696   3.967   5.886   2.709 -1.0110  0.3491 -0.8818
 2713TIP3   OH229697   6.716   3.182   1.683 -0.1542  0.1980  0.1183
 2713TIP3    H129698   6.716   3.087   1.679 -1.3634  0.1290  1.0288
 2713TIP3    H229699   6.801   3.205   1.721  0.3776 -0.4694 -0.6474
 2714TIP3   OH229700   6.416   1.959   0.940  0.2780  0.0510  0.3014
 2714TIP3    H129701   6.384   1.989   0.856 -2.2263  0.9966  1.4811
 2714TIP3    H229702   6.399   1.864   0.940 -1.0484  0.2615  0.2139
 2715TIP3   OH229703   4.096   4.720   7.466 -0.0059 -0.2817  0.1705
 2715TIP3    H129704   4.083   4.791   7.403  1.3596 -0.8709 -0.8072
 2715TIP3    H229705   4.182   4.738   7.504  0.1216 -1.1407  0.2940
 2716TIP3   OH229706   5.168   2.858   7.904  0.3565 -0.1118  0.5450
 2716TIP3    H129707   5.189   2.872   7.812 -0.7343 -0.3494  0.2432
 2716TIP3    H229708   5.170   2.763   7.916 -1.9231 -0.2623  0.1241
 2717TIP3   OH229709   2.210   2.304   7.224  0.0457 -0.0209  0.0341
 2717TIP3    H129710   2.118   2.315   7.199 -0.1299 -0.7441  0.3331
 2717TIP3    H229711   2.246   2.245   7.159  0.4384  0.6688 -0.3787
 2718TIP3   OH229712   3.003   5.666   1.001 -0.3014 -0.1000 -0.0793
 2718TIP3    H129713   2.975   5.691   0.913 -0.4921  0.0807  0.0325
 2718TIP3    H229714   3.039   5.577   0.991 -1.3743 -0.5377 -0.1383
 2719TIP3   OH229715   4.658   2.734   7.666  0.3738 -0.2225 -0.1215
 2719TIP3    H129716   4.641   2.827   7.658  2.9733  0.2324 -1.4330
 2719TIP3    H229717   4.680   2.721   7.758 -2.1509 -0.0244  0.5712
 2720TIP3   OH229718   6.643   3.366   6.855  0.3172  0.5717  0.0187
 2720TIP3    H129719   6.597   3.284   6.868 -0.5429  1.1307  0.5899
 2720TIP3    H229720   6.598   3.407   6.780  1.0137  0.3416 -0.5369
 2721TIP3   OH229721   4.195   2.742   2.107  0.2276  0.2550  0.5114
 2721TIP3    H129722   4.230   2.821   2.149  0.8845 -0.1158  0.6751
 2721TIP3    H229723   4.263   2.676   2.119 -0.5845 -0.5246  0.9263
 2722TIP3   OH229724   6.101   4.756   0.149  0.0620 -0.1325 -0.5601
 2722TIP3    H129725   6.145   4.813   0.212 -3.1173  2.6369 -0.5557
 2722TIP3    H229726   6.113   4.800   0.065  0.4732 -1.3789 -1.1706
 2723TIP3   OH229727   3.967   3.181   7.684 -0.0691 -0.0093  0.1409
 2723TIP3    H129728   4.060   3.160   7.697 -0.3790 -2.5751 -1.1733
 2723TIP3    H229729   3.950   3.253   7.745  2.3556 -0.6313  1.6998
 2724TIP3   OH229730   6.812   0.896   0.178 -0.0169  0.9676  0.2848
 2724TIP3    H129731   6.887   0.837   0.176  0.4865  1.6097 -0.1754
 2724TIP3    H229732   6.796   0.917   0.086  0.5607  2.4813  0.5128
 2725TIP3   OH229733   4.348   1.029   8.647 -0.3551  0.0005  0.1156
 2725TIP3    H129734   4.388   0.954   8.604  2.0261  1.3988 -0.2831
 2725TIP3    H229735   4.389   1.032   8.734 -0.6663  0.6733  0.2491
 2726TIP3   OH229736   4.128   6.033   2.053 -0.0754  0.4338  0.2764
 2726TIP3    H129737   4.182   5.958   2.079 -0.5912  0.0303  0.1932
 2726TIP3    H229738   4.039   6.007   2.077 -0.2784  0.9507  0.0826
 2727TIP3   OH229739   2.068   5.699   0.344 -0.4530  0.1539 -0.3901
 2727TIP3    H129740   2.139   5.734   0.290 -0.1408 -2.5722 -1.9272
 2727TIP3    H229741   1.993   5.691   0.284 -1.5716  1.3311  0.7724
 2728TIP3   OH229742   2.512   6.824   2.412 -0.2603 -0.3933 -0.0459
 2728TIP3    H129743   2.575   6.772   2.462  0.4450  1.0221  0.5914
 2728TIP3    H229744   2.562   6.854   2.335  0.0601  1.2041  0.7464
 2729TIP3   OH229745   1.263   0.581   2.294  0.2086  0.2025 -0.0612
 2729TIP3    H129746   1.177   0.608   2.260  0.2186  0.6357  0.2543
 2729TIP3    H229747   1.245   0.552   2.384  0.5822  1.4953  0.4559
 2730TIP3   OH229748   3.141   0.989   0.498 -0.3405  0.1319  0.3587
 2730TIP3    H129749   3.129   0.898   0.527  2.9022 -0.5923 -0.0903
 2730TIP3    H229750   3.207   0.982   0.429 -1.3712  2.7055 -1.0041
 2731TIP3   OH229751   5.766   4.038   0.876 -0.0169  0.5663  0.1942
 2731TIP3    H129752   5.675   4.008   0.873 -0.0344  0.6332  0.0336
 2731TIP3    H229753   5.768   4.116   0.820 -0.5567  2.4787  2.6410
 2732TIP3   OH229754   5.602   4.697   7.918  0.3801 -0.0880  0.6725
 2732TIP3    H129755   5.582   4.622   7.973  3.1653 -0.5447  1.1983
 2732TIP3    H229756   5.598   4.663   7.828  0.2226 -0.4863  0.8303
 2733TIP3   OH229757   2.370   3.526   8.361 -0.0308 -0.3459  0.3842
 2733TIP3    H129758   2.401   3.578   8.287 -3.4333 -0.6204 -1.4100
 2733TIP3    H229759   2.375   3.435   8.330 -2.1774 -0.4173  0.0765
 2734TIP3   OH229760   1.189   4.535   1.944 -0.7886  0.2032 -0.0831
 2734TIP3    H129761   1.159   4.570   2.027 -0.3267 -0.0476  0.1953
 2734TIP3    H229762   1.132   4.459   1.928 -0.4242 -0.1740  0.3616
 2735TIP3   OH229763   6.466   1.837   6.508 -0.1987 -0.0908 -0.0422
 2735TIP3    H129764   6.506   1.874   6.430 -3.6387 -0.7541 -2.3384
 2735TIP3    H229765   6.436   1.750   6.481  0.6486 -1.4299  2.8413
 2736TIP3   OH229766   6.305   5.541   0.637 -0.8790 -0.3616  0.2045
 2736TIP3    H129767   6.239   5.511   0.699 -0.5420 -3.5240 -0.7567
 2736TIP3    H229768   6.341   5.460   0.600  1.2643  1.3133 -1.6633
 2737TIP3   OH229769   2.702   6.358   1.883 -0.2617 -0.1014 -0.1701
 2737TIP3    H129770   2.672   6.421   1.817 -0.9514 -0.7593 -0.4974
 2737TIP3    H229771   2.682   6.401   1.967  1.9805  1.3910 -0.3196
 2738TIP3   OH229772   6.148   5.706   8.283  0.4173 -0.2981 -0.5163
 2738TIP3    H129773   6.231   5.725   8.325  0.8068 -1.8039 -0.5291
 2738TIP3    H229774   6.153   5.613   8.260  0.6527  0.5367 -4.7725
 2739TIP3   OH229775   0.032   4.707   0.844  0.7436 -0.0377  0.4314
 2739TIP3    H129776   0.077   4.744   0.919 -0.0264  1.4945  0.1825
 2739TIP3    H229777   0.096   4.710   0.773 -0.0523  3.5813 -0.3388
 2740TIP3   OH229778   2.009   3.808   0.573  0.5739 -0.4939  0.2305
 2740TIP3    H129779   2.079   3.759   0.617  0.6866 -0.6461 -0.1138
 2740TIP3    H229780   1.999   3.765   0.488  0.8368  0.2298 -0.1738
 2741TIP3   OH229781   3.821   1.204   0.546  0.2175  0.0064  0.1557
 2741TIP3    H129782   3.737   1.163   0.523  0.8944  0.1156 -2.9819
 2741TIP3    H229783   3.879   1.130   0.566 -0.5965 -0.0618  2.5049
 2742TIP3   OH229784   2.664   1.898   6.363 -0.2486  0.1058  0.2457
 2742TIP3    H129785   2.629   1.844   6.292 -1.5597  1.8172 -0.5052
 2742TIP3    H229786   2.733   1.846   6.402  0.0467 -1.1771 -1.8566
 2743TIP3   OH229787   5.157   3.163   0.399 -0.5021 -0.2815 -0.5917
 2743TIP3    H129788   5.217   3.202   0.335  0.3273 -1.3218 -0.4682
 2743TIP3    H229789   5.144   3.074   0.368  0.7355 -1.1494  1.2113
 2744TIP3   OH229790   0.081   5.643   8.544 -0.1702  0.8703  0.1676
 2744TIP3    H129791   0.026   5.595   8.483 -0.1505 -1.3110  1.7678
 2744TIP3    H229792   0.146   5.580   8.573  1.7693  2.7266  0.1183
 2745TIP3   OH229793   4.370   2.917   8.553  0.3498  0.4890  0.1969
 2745TIP3    H129794   4.398   2.859   8.481 -1.7763  0.8606 -1.0061
 2745TIP3    H229795   4.317   2.861   8.610 -3.9095  1.5236 -2.2980
 2746TIP3   OH229796   3.677   2.145   8.485 -0.0627  0.0610  0.4696
 2746TIP3    H129797   3.750   2.205   8.501 -1.4924  1.8486  0.6580
 2746TIP3    H229798   3.647   2.168   8.397 -0.8012 -0.1896  0.6535
 2747TIP3   OH229799   2.625   4.880   7.935  0.1828 -0.0991 -0.2978
 2747TIP3    H129800   2.627   4.784   7.944  0.0661  0.0629  1.9002
 2747TIP3    H229801   2.714   4.904   7.911  0.3280 -0.7212 -0.3999
 2748TIP3   OH229802   2.084   2.595   7.105  0.0631  0.3369  0.0280
 2748TIP3    H129803   2.080   2.522   7.044  0.4153  0.1335  0.2411
 2748TIP3    H229804   2.173   2.630   7.095 -0.0496  0.6292  0.0448
 2749TIP3   OH229805   4.228   0.427   8.226  0.1256 -0.1285  0.7062
 2749TIP3    H129806   4.141   0.387   8.224 -0.6404  1.4573 -0.5405
 2749TIP3    H229807   4.220   0.498   8.290  0.7974 -0.5647  1.2780
 2750TIP3   OH229808   0.680   1.521   6.776 -0.0153  0.1507 -0.9540
 2750TIP3    H129809   0.726   1.551   6.854  0.9101 -1.9118 -0.6306
 2750TIP3    H229810   0.670   1.427   6.789 -0.9386 -0.0591 -2.7823
 2751TIP3   OH229811   1.946   2.870   6.866  0.3734  0.9063  0.2490
 2751TIP3    H129812   1.947   2.966   6.866 -0.6972  0.9333  1.4548
 2751TIP3    H229813   1.891   2.847   6.791  0.6559  1.2253 -0.0625
 2752TIP3   OH229814   2.084   6.465   7.085  0.1893 -0.0611 -0.8113
 2752TIP3    H129815   2.060   6.490   6.995 -0.8545 -1.7973 -1.0721
 2752TIP3    H229816   2.047   6.535   7.139  0.0187  0.5376 -1.6683
 2753TIP3   OH229817   1.347   0.925   7.880 -0.6939  0.0539 -0.1216
 2753TIP3    H129818   1.292   0.933   7.958 -1.1104  0.2537 -0.4346
 2753TIP3    H229819   1.429   0.969   7.904 -0.4005 -0.8232  0.5824
 2754TIP3   OH229820   6.524   6.761   2.285 -0.3962  0.6893 -0.1906
 2754TIP3    H129821   6.529   6.666   2.272 -1.2162  0.6489 -0.2286
 2754TIP3    H229822   6.614   6.791   2.270  0.0093 -0.1476  0.4231
 2755TIP3   OH229823   2.524   5.388   7.025  0.1509 -0.2581 -0.1641
 2755TIP3    H129824   2.449   5.394   7.084 -1.1523  1.7866 -1.9144
 2755TIP3    H229825   2.507   5.309   6.973  0.4080 -1.0558  0.9141
 2756TIP3   OH229826   4.211   0.016   6.481 -0.4732 -0.0551  0.2024
 2756TIP3    H129827   4.259  -0.014   6.404 -1.5942 -0.9193 -0.1957
 2756TIP3    H229828   4.197   0.109   6.466  0.5060  0.0733  0.0331
 2757TIP3   OH229829   1.087   3.501   8.390 -0.7358  0.2755  0.1482
 2757TIP3    H129830   1.004   3.545   8.372  0.3505  2.8647  0.9946
 2757TIP3    H229831   1.153   3.559   8.352  0.7187 -1.7763 -0.5973
 2758TIP3   OH229832   2.367   2.221   1.872 -0.0542 -0.0910  0.3500
 2758TIP3    H129833   2.414   2.188   1.948 -0.5606 -0.2588  0.5891
 2758TIP3    H229834   2.432   2.276   1.826  0.7044 -1.1680  0.0966
 2759TIP3   OH229835   3.256   0.487   0.754 -0.0806  0.0345  0.2200
 2759TIP3    H129836   3.325   0.545   0.786  1.1033 -0.8762 -0.6050
 2759TIP3    H229837   3.196   0.479   0.828 -0.8800  3.0909  0.0694
 2760TIP3   OH229838   6.788   4.314   1.537  0.4091  0.5068 -0.6258
 2760TIP3    H129839   6.861   4.255   1.519 -0.7710 -1.1846 -0.1468
 2760TIP3    H229840   6.745   4.275   1.614 -2.0333  0.3907 -1.9539
 2761TIP3   OH229841   3.656   4.021   7.635 -0.6259 -0.3355 -0.4667
 2761TIP3    H129842   3.646   4.062   7.721 -2.5153  0.0818 -0.8482
 2761TIP3    H229843   3.624   3.932   7.647  1.7788 -1.2326 -0.0918
 2762TIP3   OH229844   3.513   0.787   7.120  0.2310  0.0144  0.5908
 2762TIP3    H129845   3.467   0.870   7.109  0.9581  0.1473 -1.9124
 2762TIP3    H229846   3.588   0.792   7.061  1.7208 -1.4742  2.1986
 2763TIP3   OH229847   3.213   6.491   6.634 -0.2510  0.3825  0.6356
 2763TIP3    H129848   3.229   6.438   6.712 -0.3598  0.3271  0.6210
 2763TIP3    H229849   3.300   6.513   6.601 -0.1933  1.2692  1.3606
 2764TIP3   OH229850   0.869   0.740   8.075 -0.6862 -0.2695  0.5019
 2764TIP3    H129851   0.951   0.751   8.026 -0.2803  1.4886  1.4780
 2764TIP3    H229852   0.895   0.697   8.156 -0.5760  0.9747  1.1438
 2765TIP3   OH229853   5.965   2.736   1.014 -0.2873  0.7147  0.2605
 2765TIP3    H129854   6.041   2.716   1.069  0.2176 -1.2316 -1.0215
 2765TIP3    H229855   5.890   2.717   1.069  0.1774  0.4237  0.8082
 2766TIP3   OH229856   2.337   4.128   1.023  0.2108  0.1146  0.1436
 2766TIP3    H129857   2.292   4.206   0.991  1.3173  1.1410  1.0157
 2766TIP3    H229858   2.373   4.087   0.944 -1.5573 -0.3096 -0.4759
 2767TIP3   OH229859   3.223   6.032   1.249  0.4643 -0.0350  0.1546
 2767TIP3    H129860   3.153   6.087   1.283  0.3316  0.3840 -0.7715
 2767TIP3    H229861   3.212   6.034   1.154  0.1581 -2.0738  0.1060
 2768TIP3   OH229862   5.182   4.166   8.098 -0.1798  0.3557 -0.1129
 2768TIP3    H129863   5.184   4.197   8.008 -1.9184 -0.1936 -0.3741
 2768TIP3    H229864   5.270   4.130   8.112 -0.2086 -0.5740 -1.9704
 2769TIP3   OH229865   3.049   0.362   6.961 -0.0150 -0.1082  0.2406
 2769TIP3    H129866   2.972   0.328   7.006  0.6684 -1.4094  0.4683
 2769TIP3    H229867   3.034   0.342   6.869  0.0782 -0.4074  0.2912
 2770TIP3   OH229868   1.660   3.380   0.634 -0.3077  0.3822 -0.2014
 2770TIP3    H129869   1.700   3.306   0.588 -2.1982  1.1724 -3.4809
 2770TIP3    H229870   1.586   3.343   0.681  0.6459 -0.2021  0.8931
 2771TIP3   OH229871   0.314   1.341   6.698 -0.4810 -0.2717  0.2393
 2771TIP3    H129872   0.313   1.302   6.610  0.8712 -1.0334  0.5283
 2771TIP3    H229873   0.374   1.415   6.690  1.3627 -1.5981  0.9671
 2772TIP3   OH229874   4.855   3.223   1.360  0.5045 -0.1609  0.4741
 2772TIP3    H129875   4.887   3.305   1.323  0.6533 -0.1522  0.6183
 2772TIP3    H229876   4.772   3.207   1.315  0.1410  0.4175  0.9225
 2773TIP3   OH229877   4.139   0.369   7.018 -0.2112 -0.3191 -0.0954
 2773TIP3    H129878   4.200   0.436   6.989  1.1802 -1.0242  1.0539
 2773TIP3    H229879   4.053   0.406   7.003  0.5121  1.6346  0.2920
 2774TIP3   OH229880   3.800   5.851   0.786  0.5933  0.3254  0.4748
 2774TIP3    H129881   3.854   5.803   0.724  1.2773 -0.5458  1.6879
 2774TIP3    H229882   3.846   5.935   0.798  0.0416  0.8205 -0.7432
 2775TIP3   OH229883   2.426   0.982   0.837 -0.4274  0.1824 -0.1286
 2775TIP3    H129884   2.366   1.047   0.800 -0.7590 -0.2624 -0.3803
 2775TIP3    H229885   2.497   0.976   0.773 -0.3141  0.4134 -0.0259
 2776TIP3   OH229886   3.333   2.847   0.183 -0.2574 -0.3600 -0.0785
 2776TIP3    H129887   3.360   2.761   0.216 -1.2945 -0.4918  0.4728
 2776TIP3    H229888   3.238   2.845   0.185 -0.3020  0.6399 -0.5074
 2777TIP3   OH229889   1.037   3.015   0.680  0.4256 -0.6832 -0.3852
 2777TIP3    H129890   0.950   2.976   0.676 -0.9699  2.0935 -0.1751
 2777TIP3    H229891   1.070   2.991   0.766 -1.2524  0.1820  0.5681
 2778TIP3   OH229892   6.353   2.530   0.445  0.0692  0.1140 -0.6847
 2778TIP3    H129893   6.305   2.515   0.526 -2.8816  0.3085 -2.2347
 2778TIP3    H229894   6.437   2.486   0.457 -0.2215  0.2163  2.4456
 2779TIP3   OH229895   3.539   2.911   7.556 -0.3031  1.3194 -0.0423
 2779TIP3    H129896   3.491   2.895   7.636 -0.7458 -0.3277 -0.6032
 2779TIP3    H229897   3.473   2.912   7.487  0.4212 -3.5003 -1.1982
 2780TIP3   OH229898   6.751   3.134   1.190 -0.3172 -0.1381  0.3458
 2780TIP3    H129899   6.773   3.042   1.203 -2.2959 -0.5778  0.7897
 2780TIP3    H229900   6.745   3.170   1.278  0.5077  0.4514  0.1737
 2781TIP3   OH229901   2.885   6.097   1.034  0.3498  0.1926 -0.6292
 2781TIP3    H129902   2.949   6.028   1.017 -0.6355 -0.9193  0.0516
 2781TIP3    H229903   2.846   6.073   1.118 -0.0883  1.5315 -0.4356
 2782TIP3   OH229904   4.491   0.376   1.644  0.6074  0.6082 -0.4073
 2782TIP3    H129905   4.495   0.398   1.551  1.1342 -1.1947 -0.8438
 2782TIP3    H229906   4.582   0.365   1.671  0.4554  0.9861  0.3017
 2783TIP3   OH229907   3.118   5.390   0.862 -0.1003  0.1836  0.1561
 2783TIP3    H129908   3.054   5.329   0.898  0.7914 -0.1349  1.2497
 2783TIP3    H229909   3.195   5.379   0.917  0.6559  1.0801 -0.6895
 2784TIP3   OH229910   2.473   1.047   0.452 -0.2708 -0.1469  0.0513
 2784TIP3    H129911   2.474   0.951   0.447  0.6631 -0.0946 -2.1359
 2784TIP3    H229912   2.445   1.075   0.365  1.0250  1.5576  0.1292
 2785TIP3   OH229913   5.410   0.319   8.498 -0.1979  0.3833 -0.2514
 2785TIP3    H129914   5.476   0.308   8.429  0.1850 -4.2189  0.4869
 2785TIP3    H229915   5.460   0.326   8.579 -0.4805 -1.7442  0.1725
 2786TIP3   OH229916   6.374   4.775   6.839 -0.0209 -0.3680  0.3198
 2786TIP3    H129917   6.361   4.827   6.760  0.0707  0.2395  0.6995
 2786TIP3    H229918   6.291   4.779   6.885  0.3926  0.5745  1.0096
 2787TIP3   OH229919   4.814   2.912   6.624  0.0591 -0.3562  0.0824
 2787TIP3    H129920   4.791   2.819   6.629  1.4382 -0.6886  0.8190
 2787TIP3    H229921   4.905   2.916   6.654  0.7007  0.9831 -1.8326
 2788TIP3   OH229922   5.113   6.230   6.773  0.0799 -0.2435  0.3724
 2788TIP3    H129923   5.163   6.311   6.762 -1.6786  0.9082  0.4538
 2788TIP3    H229924   5.177   6.160   6.760  1.7326  1.1486  0.6941
 2789TIP3   OH229925   4.249   4.079   0.155  0.3773 -0.1400 -0.3486
 2789TIP3    H129926   4.336   4.114   0.171  0.7654 -1.8116  1.4801
 2789TIP3    H229927   4.256   3.985   0.172 -1.7264 -0.3574 -0.3599
 2790TIP3   OH229928   2.611   3.053   1.776 -0.2301 -0.1572  0.6531
 2790TIP3    H129929   2.528   3.029   1.817 -0.0746 -1.9181  0.0161
 2790TIP3    H229930   2.590   3.061   1.683 -0.0219  1.1282  0.6975
 2791TIP3   OH229931   3.214   1.493   7.552  0.8739  0.2077  0.3060
 2791TIP3    H129932   3.308   1.501   7.539  1.2724 -0.6020  2.2426
 2791TIP3    H229933   3.194   1.403   7.526 -0.1017  1.3412 -3.4727
 2792TIP3   OH229934   1.306   6.370   0.859 -0.2648 -0.1462 -0.2360
 2792TIP3    H129935   1.339   6.387   0.947  0.1577  0.4359 -0.5029
 2792TIP3    H229936   1.373   6.314   0.819  0.2596  0.7748 -0.6708
 2793TIP3   OH229937   1.042   1.536   2.282  0.4120 -0.0950 -0.6314
 2793TIP3    H129938   1.064   1.628   2.299  1.9332 -0.3889 -0.8650
 2793TIP3    H229939   1.110   1.486   2.328 -2.9002 -1.3732  3.5290
 2794TIP3   OH229940   2.599   2.577   6.278  0.0604 -0.3805  0.2513
 2794TIP3    H129941   2.687   2.551   6.306  0.4840  1.2079  0.4806
 2794TIP3    H229942   2.601   2.571   6.183 -0.0590 -1.7152  0.3069
 2795TIP3   OH229943   4.526   3.786   2.157  0.2414  0.0506 -0.9010
 2795TIP3    H129944   4.507   3.878   2.138 -1.8396 -0.3415 -1.0388
 2795TIP3    H229945   4.565   3.786   2.244 -1.2904  0.9685 -0.1825
 2796TIP3   OH229946   3.455   0.683   0.782 -0.0543 -0.5527 -0.0528
 2796TIP3    H129947   3.522   0.707   0.846 -0.3065 -0.9281  0.3582
 2796TIP3    H229948   3.503   0.637   0.713  0.2923  0.2876 -0.3886
 2797TIP3   OH229949   3.239   1.304   8.335  0.0139 -0.2235 -0.3908
 2797TIP3    H129950   3.186   1.383   8.344  0.0655 -0.1453 -0.7689
 2797TIP3    H229951   3.187   1.235   8.378 -0.7602 -0.3164 -1.4320
 2798TIP3   OH229952   2.494   4.635   1.475 -0.3567  0.0011  0.3078
 2798TIP3    H129953   2.404   4.613   1.453 -0.5121  1.1053 -0.2090
 2798TIP3    H229954   2.487   4.714   1.528  0.3453  0.6051 -0.4737
 2799TIP3   OH229955   4.728   0.639   7.133  0.1809  0.7166  0.1362
 2799TIP3    H129956   4.814   0.645   7.174  0.0032  0.7567  0.5103
 2799TIP3    H229957   4.667   0.629   7.206 -0.0882  0.1787 -0.1524
 2800TIP3   OH229958   0.708   0.390   0.643 -0.2356 -0.2214 -0.2102
 2800TIP3    H129959   0.798   0.398   0.676  0.5033 -0.3505 -2.0574
 2800TIP3    H229960   0.706   0.448   0.567 -1.7700 -0.1264 -0.1189
 2801TIP3   OH229961   1.002   6.357   7.135 -0.4116 -0.8673 -0.0132
 2801TIP3    H129962   1.032   6.292   7.198 -1.6846 -0.0570  1.5133
 2801TIP3    H229963   1.056   6.434   7.151  1.2787 -1.5634 -2.0032
 2802TIP3   OH229964   4.022   0.976   0.484  0.2063  0.4282  0.0440
 2802TIP3    H129965   3.987   0.924   0.412  0.0704 -0.0058  0.4162
 2802TIP3    H229966   4.073   1.045   0.442 -2.1764  1.9147 -0.5761
 2803TIP3   OH229967   0.385   2.843   7.589 -0.1567 -0.0913  0.4348
 2803TIP3    H129968   0.449   2.794   7.536  0.7458 -1.3352  2.5198
 2803TIP3    H229969   0.365   2.921   7.537  1.0446 -0.9677 -1.4673
 2804TIP3   OH229970   0.196   1.523   0.471  0.0655  0.4586 -0.0704
 2804TIP3    H129971   0.277   1.572   0.457 -0.2278  1.1493  0.5931
 2804TIP3    H229972   0.219   1.432   0.453  0.4109  0.9214 -2.1749
 2805TIP3   OH229973   4.585   4.406   1.794 -0.1946  0.5945  0.0651
 2805TIP3    H129974   4.678   4.415   1.810  0.3084 -0.8937 -1.7002
 2805TIP3    H229975   4.560   4.326   1.840 -0.4463  0.6166 -0.0306
 2806TIP3   OH229976   1.995   5.893   7.075  0.1464 -0.3616 -0.6160
 2806TIP3    H129977   1.951   5.808   7.069  0.0328 -0.3672  0.2401
 2806TIP3    H229978   2.069   5.885   7.015  1.3663 -1.8449  0.9608
 2807TIP3   OH229979   5.049   6.010   1.276  0.6663 -0.2481 -0.5772
 2807TIP3    H129980   5.131   6.029   1.229  1.5552 -0.3256  0.8714
 2807TIP3    H229981   5.023   6.093   1.314  0.7990 -0.4832  0.0456
 2808TIP3   OH229982   0.193   5.713   0.917 -0.0499  0.3064  0.0661
 2808TIP3    H129983   0.279   5.674   0.907 -1.4036 -3.3568  0.9959
 2808TIP3    H229984   0.159   5.721   0.828  0.4271 -0.4476 -0.1947
 2809TIP3   OH229985   0.017   0.048   8.204 -0.6860  0.3572  0.2329
 2809TIP3    H129986  -0.040   0.125   8.213 -0.1693  0.5974  1.8247
 2809TIP3    H229987   0.099   0.076   8.244 -0.4781 -1.0105  0.7930
 2810TIP3   OH229988   2.506   0.049   7.902 -0.1240  0.2601 -0.2538
 2810TIP3    H129989   2.491  -0.046   7.904 -0.1724  0.2717  0.2335
 2810TIP3    H229990   2.544   0.069   7.988  0.4999  0.5864 -0.6049
 2811TIP3   OH229991   2.148   1.648   8.013  0.1871 -1.0271  0.4166
 2811TIP3    H129992   2.101   1.724   7.978 -0.1333 -0.9111  1.0940
 2811TIP3    H229993   2.113   1.637   8.101  2.5719  0.0646  1.5692
 2812TIP3   OH229994   0.356   3.428   1.568  0.4563 -0.3268  0.0072
 2812TIP3    H129995   0.375   3.336   1.585 -0.0900 -0.2232  1.2796
 2812TIP3    H229996   0.298   3.455   1.640 -0.4668  0.6632 -1.0509
 2813TIP3   OH229997   0.233   1.314   2.829  0.2708 -0.3703  0.5355
 2813TIP3    H129998   0.306   1.362   2.870  0.1247  0.4397 -0.1283
 2813TIP3    H229999   0.166   1.309   2.897 -0.1825  1.4376  0.2725
 2814TIP3   OH230000   3.538   0.743   7.765 -0.5960  0.2583  0.0705
 2814TIP3    H130001   3.580   0.662   7.794 -0.2581  0.1590 -0.6612
 2814TIP3    H230002   3.543   0.802   7.840  1.2799  0.4096 -0.1474
 2815TIP3   OH230003   3.468   0.535   2.945  0.1286  0.9182  0.7202
 2815TIP3    H130004   3.552   0.574   2.922 -0.2017  0.8505 -0.6920
 2815TIP3    H230005   3.405   0.606   2.933 -0.0457  0.9314  1.6398
 2816TIP3   OH230006   0.707   5.450   0.117 -0.4568 -0.0296 -0.1530
 2816TIP3    H130007   0.619   5.443   0.079 -0.3681 -0.1392 -0.3349
 2816TIP3    H230008   0.710   5.380   0.183 -0.2230 -0.5422 -0.6989
 2817TIP3   OH230009   3.880   5.072   0.200  0.4241  0.0839  0.0551
 2817TIP3    H130010   3.964   5.116   0.209  0.5242 -0.0002 -0.4548
 2817TIP3    H230011   3.876   5.012   0.274  0.6557  0.3458  0.2799
 2818TIP3   OH230012   3.443   3.639   7.149 -0.1856  0.2979  0.2604
 2818TIP3    H130013   3.391   3.564   7.178  0.3591 -0.1575  0.0925
 2818TIP3    H230014   3.517   3.640   7.209 -1.2642  2.0287  1.6348
 2819TIP3   OH230015   6.196   3.871   2.075  0.1241 -0.7442 -0.2860
 2819TIP3    H130016   6.187   3.896   2.167 -0.4368 -0.8731 -0.3065
 2819TIP3    H230017   6.119   3.819   2.056  0.1328 -0.5465 -0.8877
 2820TIP3   OH230018   0.827   4.127   1.076  0.3554 -0.5540 -0.5479
 2820TIP3    H130019   0.736   4.098   1.078  0.5872 -1.6197  3.6661
 2820TIP3    H230020   0.878   4.046   1.074  1.1651 -0.0782  0.1969
 2821TIP3   OH230021   3.642   6.283   7.893  0.2935  0.0610  0.0058
 2821TIP3    H130022   3.646   6.195   7.857  2.9648 -0.2663  0.8421
 2821TIP3    H230023   3.612   6.272   7.983  0.6254 -0.0250  0.1093
 2822TIP3   OH230024   4.897   0.440   8.583 -0.0248 -0.3891 -0.1274
 2822TIP3    H130025   4.912   0.437   8.678 -1.0496  1.4441  0.1455
 2822TIP3    H230026   4.984   0.438   8.544  0.4707  0.0607  0.9167
 2823TIP3   OH230027   0.549   3.005   1.330 -0.5362 -0.9781 -0.2733
 2823TIP3    H130028   0.620   3.065   1.350 -0.4500 -1.6180  1.5069
 2823TIP3    H230029   0.471   3.060   1.321 -0.4763 -0.5891  1.4089
 2824TIP3   OH230030   6.575   1.715   0.905  0.1950 -0.1075  0.0900
 2824TIP3    H130031   6.604   1.624   0.899  0.7059  0.0657 -0.1382
 2824TIP3    H230032   6.651   1.766   0.877 -0.3856  0.3487 -0.7098
 2825TIP3   OH230033   3.658   6.842   7.750 -0.5395 -0.2319  0.5516
 2825TIP3    H130034   3.654   6.789   7.670 -1.3601  0.3045  0.2142
 2825TIP3    H230035   3.662   6.779   7.821 -0.1413 -0.7245  0.1002
 2826TIP3   OH230036   0.032   5.045   0.904  0.9253  0.3069  0.4475
 2826TIP3    H130037   0.044   4.956   0.937 -1.4060 -1.2947 -2.5075
 2826TIP3    H230038   0.117   5.070   0.869  2.0995  0.0941  2.9391
 2827TIP3   OH230039   6.421   6.880   0.348  0.1947  0.2296 -0.0477
 2827TIP3    H130040   6.479   6.899   0.275  1.1449 -0.0191  0.6310
 2827TIP3    H230041   6.354   6.950   0.345  0.3640  0.3555 -0.9916
 2828TIP3   OH230042   3.659   5.220   2.944  0.1998  0.5001 -0.4310
 2828TIP3    H130043   3.749   5.219   2.911 -0.2666  1.0004 -1.7946
 2828TIP3    H230044   3.615   5.150   2.897  0.1389 -0.5315  1.1058
 2829TIP3   OH230045   1.727   3.896   1.858 -0.3359 -0.3219 -0.4899
 2829TIP3    H130046   1.657   3.916   1.797 -0.2583 -0.2367 -0.5518
 2829TIP3    H230047   1.688   3.907   1.945 -0.1786  0.5201 -0.5187
 2830TIP3   OH230048   4.123   5.663   7.595 -0.1829 -0.2621  0.0707
 2830TIP3    H130049   4.174   5.604   7.539  0.7481  0.1384  0.4661
 2830TIP3    H230050   4.040   5.675   7.549  0.9034  0.7912 -1.6947
 2831TIP3   OH230051   1.465   4.806   2.753 -0.0464  0.2802 -0.2615
 2831TIP3    H130052   1.536   4.859   2.790  1.1988 -0.0455 -2.0749
 2831TIP3    H230053   1.425   4.764   2.829  1.8230  0.3230  0.8080
 2832TIP3   OH230054   3.417   5.978   1.780  0.5253 -0.2479 -0.1213
 2832TIP3    H130055   3.398   5.910   1.714  1.2833 -0.6958  0.1082
 2832TIP3    H230056   3.350   6.044   1.766 -1.2057 -1.7438  0.6465
 2833TIP3   OH230057   5.971   0.946   0.284 -0.2642 -0.2407 -0.2592
 2833TIP3    H130058   5.882   0.966   0.312 -0.2028  0.7570 -0.7230
 2833TIP3    H230059   5.962   0.921   0.192  0.1971  2.5965 -1.1739
 2834TIP3   OH230060   1.377   1.245   7.282 -0.2368 -0.1678 -0.2766
 2834TIP3    H130061   1.297   1.195   7.264  0.5234 -2.0318  1.1911
 2834TIP3    H230062   1.377   1.313   7.215 -1.9066 -1.4673 -1.7354
 2835TIP3   OH230063   4.136   2.702   7.168 -0.4940  0.5760 -0.0402
 2835TIP3    H130064   4.088   2.726   7.247 -1.3510  0.0194 -0.3709
 2835TIP3    H230065   4.122   2.775   7.108 -0.1406  0.8385  0.1999
 2836TIP3   OH230066   3.774   0.838   8.313 -0.0558 -0.0277 -0.5814
 2836TIP3    H130067   3.685   0.805   8.305 -0.4886  0.1342  2.2793
 2836TIP3    H230068   3.764   0.927   8.348  1.1827 -0.2442  0.4430
 2837TIP3   OH230069   3.558   0.510   6.426 -0.5254 -0.0570  0.1368
 2837TIP3    H130070   3.618   0.574   6.465 -0.8318  0.7932 -0.7526
 2837TIP3    H230071   3.488   0.501   6.490 -0.3561  0.3148  0.3818
 2838TIP3   OH230072   1.119   5.769   7.093  1.1427  0.1126  0.3738
 2838TIP3    H130073   1.048   5.829   7.067  1.0761 -0.1125  0.0311
 2838TIP3    H230074   1.082   5.682   7.083  0.8263  0.0249  2.0871
 2839TIP3   OH230075   1.249   3.804   2.177 -0.4281 -0.0605  0.3808
 2839TIP3    H130076   1.224   3.726   2.128  0.0562 -0.2580  0.4425
 2839TIP3    H230077   1.167   3.837   2.213 -1.1893  1.3658 -2.3758
 2840TIP3   OH230078   3.633   2.509   7.647  0.5607  0.4398 -0.5086
 2840TIP3    H130079   3.672   2.423   7.661  0.7288  0.2555 -1.9957
 2840TIP3    H230080   3.569   2.518   7.717  0.3577 -1.0017 -0.4766
 2841TIP3   OH230081   4.288   4.992   1.536  0.1866 -0.7961  0.2193
 2841TIP3    H130082   4.349   5.042   1.482 -0.4582 -1.9279 -1.6570
 2841TIP3    H230083   4.222   4.960   1.475 -1.2237 -1.2349  1.8728
 2842TIP3   OH230084   4.713   2.442   8.273 -0.3459 -0.0386 -0.7666
 2842TIP3    H130085   4.799   2.410   8.245 -0.4297  0.6186 -1.8439
 2842TIP3    H230086   4.653   2.370   8.256  0.2188 -1.1911  1.6838
 2843TIP3   OH230087   0.012   5.527   2.525  0.2987 -0.2889 -0.3270
 2843TIP3    H130088   0.019   5.614   2.562  0.1881 -0.4734  0.1360
 2843TIP3    H230089  -0.082   5.514   2.509 -0.3051 -1.8685  3.4815
 2844TIP3   OH230090   4.960   4.516   0.288  0.0873  0.0641 -0.3508
 2844TIP3    H130091   5.025   4.447   0.300 -1.5156 -1.1031  2.7058
 2844TIP3    H230092   4.913   4.492   0.208 -0.7005 -2.7210  0.8323
 2845TIP3   OH230093   5.648   5.036   7.374 -0.0523  0.4455  0.0825
 2845TIP3    H130094   5.722   5.043   7.314  0.1292 -0.7419  0.1448
 2845TIP3    H230095   5.637   5.124   7.410  1.8120  0.4803  0.6599
 2846TIP3   OH230096   4.082   1.026   0.035 -0.5132  0.0068  0.2144
 2846TIP3    H130097   4.101   1.028   0.129  1.4754  2.5391 -0.1367
 2846TIP3    H230098   4.167   1.026  -0.007 -1.3589 -1.8028 -1.6707
 2847TIP3   OH230099   1.581   1.800   6.971  0.4872  0.0130 -0.6439
 2847TIP3    H130100   1.542   1.782   6.886  0.1045 -0.3469 -0.4006
 2847TIP3    H230101   1.508   1.795   7.033  0.8075 -0.0410 -0.2596
 2848TIP3   OH230102   0.043   1.941   8.569  0.0560  0.7300  0.3404
 2848TIP3    H130103   0.065   1.865   8.516  0.3696  1.8899 -1.2575
 2848TIP3    H230104   0.112   1.945   8.635 -0.8539 -1.2725  1.5205
 2849TIP3   OH230105   3.183   0.261   8.294  0.0513 -0.3979  0.3717
 2849TIP3    H130106   3.194   0.351   8.326 -0.2095 -0.1223 -0.2942
 2849TIP3    H230107   3.132   0.270   8.214  0.8016 -1.0662 -0.1936
 2850TIP3   OH230108   4.639   4.474   7.578 -0.1673 -0.4743 -0.4263
 2850TIP3    H130109   4.642   4.379   7.571 -0.4976 -0.6454  1.2269
 2850TIP3    H230110   4.573   4.491   7.646 -1.8085  1.0487 -2.2956
 2851TIP3   OH230111   5.575   2.143   0.644 -0.4219 -0.0553 -0.0686
 2851TIP3    H130112   5.502   2.199   0.673 -0.7236 -0.4931  0.0281
 2851TIP3    H230113   5.622   2.196   0.581  0.0201  0.7812  0.9399
 2852TIP3   OH230114   3.908   2.890   2.359  0.4717 -0.3521  0.5721
 2852TIP3    H130115   3.869   2.804   2.348  0.0776 -0.0069 -0.8972
 2852TIP3    H230116   4.000   2.872   2.381  0.3633 -1.1513  0.3991
 2853TIP3   OH230117   3.147   6.712   7.387  0.1837 -0.4812  0.0303
 2853TIP3    H130118   3.064   6.683   7.426 -0.4619  0.7425 -0.3628
 2853TIP3    H230119   3.131   6.804   7.364  0.3989 -1.1271 -3.2834
 2854TIP3   OH230120   5.259   2.066   7.272 -0.1464  0.0383  0.2429
 2854TIP3    H130121   5.238   1.973   7.273  1.9330 -0.4924  1.8534
 2854TIP3    H230122   5.220   2.099   7.191  0.7242 -2.6358 -1.3725
 2855TIP3   OH230123   6.194   5.639   0.038 -0.1395 -0.2343  0.8773
 2855TIP3    H130124   6.098   5.638   0.041 -0.1540 -1.8011  0.8865
 2855TIP3    H230125   6.219   5.720   0.081 -1.4638  0.2499  0.7752
 2856TIP3   OH230126   4.711   3.426   7.426 -0.2364  0.7283  0.2411
 2856TIP3    H130127   4.636   3.376   7.393 -0.1600  0.3706  0.6136
 2856TIP3    H230128   4.700   3.428   7.521 -0.7918  2.3014  0.1784
 2857TIP3   OH230129   5.885   6.088   0.552  0.2179 -0.0116 -0.3066
 2857TIP3    H130130   5.793   6.109   0.568 -0.1258 -0.2209 -1.9010
 2857TIP3    H230131   5.918   6.061   0.638 -1.2105  0.0079  0.2786
 2858TIP3   OH230132   2.117   4.705   7.415  0.0597 -0.0154  0.3117
 2858TIP3    H130133   2.062   4.667   7.346 -1.2437 -1.1508  1.9103
 2858TIP3    H230134   2.203   4.666   7.401 -0.4620 -1.0765 -0.0280
 2859TIP3   OH230135   1.285   3.549   0.223  0.1376 -0.6492  0.0010
 2859TIP3    H130136   1.334   3.539   0.141  0.4503  0.8016 -0.0052
 2859TIP3    H230137   1.215   3.484   0.216 -1.3589  1.0380 -2.5370
 2860TIP3   OH230138   5.123   3.644   1.946  0.2859 -0.1425 -0.5296
 2860TIP3    H130139   5.123   3.710   2.015  0.0145 -0.5612 -0.1191
 2860TIP3    H230140   5.080   3.568   1.986 -1.2274  0.1004 -1.6280
 2861TIP3   OH230141   1.619   6.219   0.270  0.8396 -0.1788  0.6405
 2861TIP3    H130142   1.556   6.281   0.307  1.5469  0.6954  0.4090
 2861TIP3    H230143   1.649   6.168   0.345  0.9409  0.3874  0.9891
 2862TIP3   OH230144   5.645   6.654   0.147 -0.1100  0.1554 -0.1371
 2862TIP3    H130145   5.729   6.682   0.182  0.7543 -0.0162 -1.9719
 2862TIP3    H230146   5.663   6.571   0.103 -1.2930 -0.0229 -0.3257
 2863TIP3   OH230147   1.868   2.411   1.994 -0.2537 -0.1785 -0.0223
 2863TIP3    H130148   1.883   2.414   2.089  0.7669  1.6295 -0.1970
 2863TIP3    H230149   1.940   2.358   1.960 -0.0684 -0.0327  0.1371
 2864TIP3   OH230150   3.602   4.468   7.234 -0.3207  0.4133 -0.9753
 2864TIP3    H130151   3.689   4.438   7.262 -1.6379 -2.0366  0.9257
 2864TIP3    H230152   3.600   4.561   7.256  1.0411  0.0046  1.1138
 2865TIP3   OH230153   1.354   6.168   7.266 -0.2501  0.0814  0.7551
 2865TIP3    H130154   1.318   6.182   7.179  1.6066 -0.0257 -0.0844
 2865TIP3    H230155   1.446   6.192   7.258  0.5711 -2.2844  2.0441
 2866TIP3   OH230156   0.763   5.815   2.470 -0.3817 -0.1247 -0.1647
 2866TIP3    H130157   0.814   5.747   2.426 -0.2453 -0.3583  0.3499
 2866TIP3    H230158   0.774   5.893   2.415  2.3368  0.4547  1.0572
 2867TIP3   OH230159   2.397   6.864   2.027 -0.3175 -0.4488  0.1519
 2867TIP3    H130160   2.366   6.954   2.039 -0.4285 -0.4424 -0.1506
 2867TIP3    H230161   2.353   6.835   1.946  0.8440 -0.2756 -0.5589
 2868TIP3   OH230162   3.453   2.794   2.397 -0.2509 -0.1058 -0.6011
 2868TIP3    H130163   3.495   2.722   2.444  0.9466  0.8821 -0.1053
 2868TIP3    H230164   3.389   2.829   2.459  0.3511  0.3151 -0.2088
 2869TIP3   OH230165   3.708   2.810   0.158 -0.6551 -0.2652  0.0029
 2869TIP3    H130166   3.722   2.764   0.075 -1.5656  0.4294 -0.5524
 2869TIP3    H230167   3.719   2.903   0.136 -0.3490 -0.1100  0.7834
 2870TIP3   OH230168   6.810   3.639   7.481 -0.2490  0.7823  0.3475
 2870TIP3    H130169   6.793   3.547   7.460 -0.1673  0.3754  1.9256
 2870TIP3    H230170   6.722   3.677   7.493 -0.2656  0.2777  2.1002
 2871TIP3   OH230171   2.187   6.100   8.562 -0.4667 -0.3554  0.3685
 2871TIP3    H130172   2.269   6.097   8.512  0.1073  0.3702  1.2348
 2871TIP3    H230173   2.181   6.014   8.604 -1.4689 -1.3598 -1.6875
 2872TIP3   OH230174   2.423   1.756   6.463  0.2539  0.5313 -0.0178
 2872TIP3    H130175   2.490   1.822   6.475  1.5319 -0.2546 -2.3004
 2872TIP3    H230176   2.369   1.789   6.391 -1.0933  0.5620  0.9638
 2873TIP3   OH230177   2.812   3.818   1.089  0.4334  0.3231 -0.4556
 2873TIP3    H130178   2.868   3.846   1.017  1.0433 -1.0642 -0.5510
 2873TIP3    H230179   2.723   3.820   1.052  0.2996  2.9596 -0.1710
 2874TIP3   OH230180   4.678   5.300   7.382  0.1733  0.7074 -0.2766
 2874TIP3    H130181   4.685   5.294   7.477  0.5571  1.5973 -0.2401
 2874TIP3    H230182   4.597   5.349   7.367  1.3936  2.8242 -0.3149
 2875TIP3   OH230183   6.015   2.067   6.935 -0.2696  0.1087 -0.1782
 2875TIP3    H130184   6.013   2.163   6.940 -1.2776  0.0480  1.2594
 2875TIP3    H230185   5.979   2.047   6.849  1.1907  1.0325 -1.0451
 2876TIP3   OH230186   4.040   5.228   2.390  0.0277 -0.3109 -0.2224
 2876TIP3    H130187   3.998   5.239   2.476 -0.2048 -1.8822 -0.0987
 2876TIP3    H230188   4.127   5.267   2.400 -0.1790 -0.0336  0.5688
 2877TIP3   OH230189   4.177   5.104   2.178 -0.9912 -0.3843 -0.3889
 2877TIP3    H130190   4.238   5.165   2.137  0.4176  0.4026  2.6244
 2877TIP3    H230191   4.127   5.157   2.240 -1.7093 -1.7898  0.2909
 2878TIP3   OH230192   3.399   4.988   7.597 -0.7196  0.4423  0.0888
 2878TIP3    H130193   3.400   4.998   7.501 -3.6436 -2.4743 -0.4306
 2878TIP3    H230194   3.477   4.938   7.618 -0.0165  1.1641 -0.7377
 2879TIP3   OH230195   5.994   2.336   0.452  0.7531  0.2362  0.2949
 2879TIP3    H130196   5.999   2.321   0.357 -0.7361  0.0984  0.2251
 2879TIP3    H230197   6.015   2.429   0.462 -0.0749  0.4992 -0.2902
 2880TIP3   OH230198   3.056   6.320   7.895  0.4181  0.0249  0.0261
 2880TIP3    H130199   3.062   6.227   7.917  1.2060  0.1811  0.5420
 2880TIP3    H230200   3.081   6.324   7.802  1.2903 -0.1888  0.2386
 2881TIP3   OH230201   0.653   6.881   7.346  0.3871  0.4717  0.5462
 2881TIP3    H130202   0.634   6.821   7.418  3.3269  0.0951  1.1234
 2881TIP3    H230203   0.647   6.827   7.267 -2.3042  0.7672  0.4367
 2882TIP3   OH230204   3.644   4.315   7.945  0.0953 -0.4569 -0.1099
 2882TIP3    H130205   3.669   4.343   7.857  2.6465 -1.3765  0.2380
 2882TIP3    H230206   3.644   4.396   7.997 -1.0767  0.0346 -0.8338
 2883TIP3   OH230207   4.977   5.120   0.954 -0.9837 -0.0981 -0.3275
 2883TIP3    H130208   5.022   5.193   0.914  0.5352 -1.0918 -0.5139
 2883TIP3    H230209   4.974   5.053   0.885  4.0501 -2.8825  1.6138
 2884TIP3   OH230210   2.095   2.294   0.273 -0.3958 -0.7095  0.1575
 2884TIP3    H130211   2.170   2.246   0.240  0.1182 -0.2916  0.6783
 2884TIP3    H230212   2.102   2.287   0.368 -0.0632  0.7107  0.2724
 2885TIP3   OH230213   4.492   4.962   0.141  0.1305  0.2515  0.2736
 2885TIP3    H130214   4.399   4.953   0.161 -0.1495  1.2319 -0.5437
 2885TIP3    H230215   4.535   4.960   0.227 -0.5663 -0.8140  0.6196
 2886TIP3   OH230216   6.609   6.107   0.152  0.6690  0.2916 -0.1056
 2886TIP3    H130217   6.630   6.162   0.227 -0.5391 -1.8577  1.9455
 2886TIP3    H230218   6.607   6.018   0.187  2.5397 -1.1765 -3.2264
 2887TIP3   OH230219   2.127   5.922   1.795 -0.7413  0.3954 -0.2786
 2887TIP3    H130220   2.058   5.856   1.785  0.4610 -0.7721 -1.1780
 2887TIP3    H230221   2.193   5.898   1.731  1.1099  0.7116  1.4024
 2888TIP3   OH230222   4.964   1.684   7.393  0.0211  0.3837 -0.5072
 2888TIP3    H130223   4.957   1.725   7.479 -1.9328 -1.5182  0.3373
 2888TIP3    H230224   5.044   1.720   7.355  1.6219  0.3776  2.5825
 2889TIP3   OH230225   0.854   1.999   2.402  0.3743 -0.1844 -0.2526
 2889TIP3    H130226   0.948   1.989   2.392  0.7032 -1.5243  2.9953
 2889TIP3    H230227   0.841   2.090   2.427  0.8407 -0.1299 -0.2148
 2890TIP3   OH230228   0.410   3.217   0.196 -0.1847 -0.0637  0.3121
 2890TIP3    H130229   0.341   3.164   0.236 -3.3162  2.8083 -0.8160
 2890TIP3    H230230   0.423   3.289   0.257  0.4895  0.4020 -0.3683
 2891TIP3   OH230231   6.074   1.010   1.877  0.0424 -0.0686 -0.4703
 2891TIP3    H130232   6.072   0.997   1.972 -1.7293  0.1829 -0.4448
 2891TIP3    H230233   6.045   1.100   1.864 -3.6944 -1.1930 -1.3391
 2892TIP3   OH230234   2.086   6.235   1.733 -0.1548 -0.1697 -0.5568
 2892TIP3    H130235   2.022   6.256   1.665 -0.3768  0.8401 -0.0615
 2892TIP3    H230236   2.109   6.144   1.717 -1.3479 -0.4041 -1.0507
 2893TIP3   OH230237   4.309   0.075   0.522  0.2898 -0.2320 -0.1150
 2893TIP3    H130238   4.319  -0.006   0.571  1.9940  0.5751  0.9556
 2893TIP3    H230239   4.277   0.139   0.586  2.8270  0.9130  0.1310
 2894TIP3   OH230240   5.176   0.598   6.981  0.5005 -0.5276 -0.9109
 2894TIP3    H130241   5.235   0.552   7.041  0.6314 -0.5217 -1.0341
 2894TIP3    H230242   5.164   0.684   7.022  0.3264 -0.6406 -0.7259
 2895TIP3   OH230243   1.885   3.551   7.403  0.2145  0.6028  0.1841
 2895TIP3    H130244   1.901   3.462   7.371 -0.0905  0.3528  0.6971
 2895TIP3    H230245   1.790   3.561   7.399  0.3008  1.1561 -0.5061
 2896TIP3   OH230246   1.382   3.965   1.772 -0.4249 -0.3959  0.3249
 2896TIP3    H130247   1.385   4.052   1.732 -0.0071 -0.8805 -0.7283
 2896TIP3    H230248   1.289   3.948   1.788 -0.7640 -0.7539 -1.7524
 2897TIP3   OH230249   5.625   1.691   1.254 -0.1455  0.2012 -0.0002
 2897TIP3    H130250   5.660   1.604   1.274 -1.1759 -0.4653 -0.9682
 2897TIP3    H230251   5.534   1.676   1.230  0.2759  1.2107 -2.5546
 2898TIP3   OH230252   0.173   3.656   0.746  0.1216  0.3581 -0.4655
 2898TIP3    H130253   0.183   3.729   0.807 -0.2856  0.6902 -0.7915
 2898TIP3    H230254   0.133   3.695   0.668 -1.4075 -0.4684 -0.1276
 2899TIP3   OH230255   2.397   3.339   0.844 -0.3179 -0.0288 -0.0359
 2899TIP3    H130256   2.426   3.256   0.881 -0.4246 -0.0208  0.0668
 2899TIP3    H230257   2.301   3.335   0.849 -0.2999  0.5533  0.9690
 2900TIP3   OH230258   3.101   0.467   7.522 -0.0501 -0.6045 -0.2826
 2900TIP3    H130259   3.054   0.514   7.591 -0.1983 -0.5861 -0.3938
 2900TIP3    H230260   3.045   0.476   7.445 -0.7987 -2.1885  0.0385
 2901TIP3   OH230261   1.954   1.054   7.199 -0.2628  0.0796 -0.5629
 2901TIP3    H130262   1.966   1.038   7.105 -0.4174 -1.6299 -0.3276
 2901TIP3    H230263   1.869   1.097   7.205 -1.7032 -2.4802 -1.0467
 2902TIP3   OH230264   6.487   3.776   0.231 -0.2831 -0.5198  0.7442
 2902TIP3    H130265   6.539   3.856   0.222  0.5130 -1.2264 -1.9456
 2902TIP3    H230266   6.547   3.706   0.207 -1.8421 -1.5881 -0.2299
 2903TIP3   OH230267   1.353   6.621   0.219 -0.6942  0.0305  0.5691
 2903TIP3    H130268   1.281   6.684   0.221 -2.5749 -1.9211 -0.3406
 2903TIP3    H230269   1.322   6.548   0.273  1.2728 -0.2803  1.3566
 2904TIP3   OH230270   2.909   6.769   1.333 -0.1117  0.0065 -0.0870
 2904TIP3    H130271   2.954   6.811   1.260  0.9573  0.3657  0.7553
 2904TIP3    H230272   2.953   6.802   1.411 -0.5250 -1.1925  0.6826
 2905TIP3   OH230273   2.656   2.061   7.026 -0.3688  0.2019  0.1372
 2905TIP3    H130274   2.743   2.047   7.065 -1.5241 -1.5277  2.3273
 2905TIP3    H230275   2.636   2.152   7.046  0.9332  0.6552 -0.4686
 2906TIP3   OH230276   3.605   2.448   0.972  0.0988  0.0202 -0.4529
 2906TIP3    H130277   3.672   2.516   0.968  0.0690  0.0699 -0.0901
 2906TIP3    H230278   3.544   2.477   1.039  0.8684 -1.0780  0.7738
 2907TIP3   OH230279   0.151   0.897   1.368  0.0658  0.0678  0.4305
 2907TIP3    H130280   0.061   0.880   1.395 -0.3684 -0.8148 -1.4240
 2907TIP3    H230281   0.169   0.986   1.397 -0.8732 -0.2589  2.1254
 2908TIP3   OH230282   1.324   1.046   0.480 -0.0353 -0.0316  0.3085
 2908TIP3    H130283   1.266   1.110   0.439  0.9318  0.6422 -0.0323
 2908TIP3    H230284   1.410   1.086   0.477  0.8787 -1.9537 -1.2870
 2909TIP3   OH230285   6.744   4.714   1.909 -0.4756  0.5760  0.4467
 2909TIP3    H130286   6.747   4.731   2.003 -0.5639 -1.2961  0.8281
 2909TIP3    H230287   6.815   4.652   1.894 -0.6475  0.6366 -0.6782
 2910TIP3   OH230288   3.240   4.576   8.306  0.3206  0.4126 -1.0478
 2910TIP3    H130289   3.332   4.603   8.303  0.8154 -0.8111  1.1271
 2910TIP3    H230290   3.206   4.615   8.387 -0.1582 -1.7174 -0.1542
 2911TIP3   OH230291   2.101   1.669   2.559  0.0915  0.0174  0.0846
 2911TIP3    H130292   2.147   1.729   2.618  0.7368 -0.2236 -0.1595
 2911TIP3    H230293   2.164   1.597   2.545 -1.0688 -1.3102  1.2879
 2912TIP3   OH230294   2.050   1.541   8.524 -0.3559 -0.5607  0.4387
 2912TIP3    H130295   2.049   1.600   8.448  2.8880 -1.8712 -0.7993
 2912TIP3    H230296   2.130   1.562   8.570  0.3502 -3.1930  0.5599
 2913TIP3   OH230297   0.974   6.600   1.287  0.4190 -0.0476  0.3984
 2913TIP3    H130298   0.900   6.659   1.274  0.1545 -0.4744 -0.0961
 2913TIP3    H230299   1.007   6.583   1.199  0.0745 -1.1489  0.4657
 2914TIP3   OH230300   3.084   4.686   8.512  0.4600 -0.1487  0.2501
 2914TIP3    H130301   3.126   4.772   8.509  1.6629 -0.6611  1.3806
 2914TIP3    H230302   2.990   4.705   8.500  0.7030  1.3003  0.3893
 2915TIP3   OH230303   2.923   1.978   0.137 -0.8494 -0.4498 -0.0276
 2915TIP3    H130304   2.983   1.952   0.208  0.9927 -0.4861 -1.5292
 2915TIP3    H230305   2.847   1.922   0.149  0.0192 -1.4464  1.1002
 2916TIP3   OH230306   4.919   6.232   7.935  0.1620 -0.3163 -0.4172
 2916TIP3    H130307   4.932   6.309   7.990  0.4845  0.2780 -1.3064
 2916TIP3    H230308   4.907   6.160   7.997 -0.6705  0.5268  0.4319
 2917TIP3   OH230309   3.661   0.720   2.866 -0.0179 -0.1533 -0.2164
 2917TIP3    H130310   3.742   0.707   2.816  0.1770  0.6435 -0.1124
 2917TIP3    H230311   3.641   0.812   2.855 -1.1098 -0.4163 -0.5237
 2918TIP3   OH230312   0.373   5.538   8.037 -0.0687  0.1228 -0.1357
 2918TIP3    H130313   0.426   5.459   8.049 -0.3202  0.2064  1.7600
 2918TIP3    H230314   0.303   5.511   7.976 -1.6033 -1.8958  2.3195
 2919TIP3   OH230315   5.880   6.608   0.959  0.5766 -0.6612  0.2582
 2919TIP3    H130316   5.867   6.675   1.026 -1.7046 -0.3273 -0.4407
 2919TIP3    H230317   5.945   6.646   0.899  0.4111  0.2898  0.6702
 2920TIP3   OH230318   2.287   6.867   0.844  0.0633  0.0584  0.0426
 2920TIP3    H130319   2.348   6.940   0.857  1.0714 -0.6646 -0.6003
 2920TIP3    H230320   2.331   6.791   0.882 -0.2521 -0.5586 -0.8085
 2921TIP3   OH230321   6.220   4.031   7.746  0.3985 -0.5719  0.0181
 2921TIP3    H130322   6.213   4.119   7.709  0.2124 -0.7845 -0.4641
 2921TIP3    H230323   6.281   3.985   7.688  2.2807 -0.1201  1.5324
 2922TIP3   OH230324   0.875   0.735   1.612 -0.5957  0.2611  0.1003
 2922TIP3    H130325   0.923   0.694   1.684 -0.8185  1.0615  0.7218
 2922TIP3    H230326   0.943   0.766   1.552 -0.4329 -2.5929 -1.3466
 2923TIP3   OH230327   3.142   4.411   7.085  0.4548  0.2627 -0.8065
 2923TIP3    H130328   3.229   4.384   7.115  0.9396 -0.2758 -2.5827
 2923TIP3    H230329   3.131   4.499   7.122  1.0991 -0.2405  0.6800
 2924TIP3   OH230330   2.855   1.471   6.956  0.5819  0.6224  0.0766
 2924TIP3    H130331   2.821   1.403   7.015  0.7269 -0.7827 -1.3927
 2924TIP3    H230332   2.890   1.538   7.015 -0.7322  0.0485  1.5965
 2925TIP3   OH230333   5.925   1.552   2.461  0.1739 -0.1529  0.3480
 2925TIP3    H130334   5.975   1.495   2.520 -0.8693 -0.8908  0.5565
 2925TIP3    H230335   5.865   1.492   2.416 -0.8632  0.7586  0.4858
 2926TIP3   OH230336   2.300   2.474   2.479  0.6563  0.4203 -0.0490
 2926TIP3    H130337   2.214   2.443   2.509  0.2717  1.6479  0.1662
 2926TIP3    H230338   2.353   2.394   2.474 -0.0190 -0.1675  1.4001
 2927TIP3   OH230339   0.263   1.484   8.211  0.0511 -0.3870  0.2003
 2927TIP3    H130340   0.199   1.458   8.145 -0.1116  1.5395 -0.4679
 2927TIP3    H230341   0.318   1.407   8.224 -0.4677 -1.0825 -1.5320
 2928TIP3   OH230342   1.495   0.974   2.187 -0.5566 -0.1297 -0.3977
 2928TIP3    H130343   1.559   0.958   2.118 -1.7387  0.2711 -1.6438
 2928TIP3    H230344   1.546   0.987   2.266  0.8020 -2.4106 -0.8016
 2929TIP3   OH230345   5.251   5.053   1.048 -0.3070  0.0974  0.6309
 2929TIP3    H130346   5.218   4.978   0.999 -0.7818 -0.2034  1.4007
 2929TIP3    H230347   5.231   5.129   0.993 -0.4254 -0.2732  0.1594
 2930TIP3   OH230348   4.609   1.664   8.207 -0.0654 -0.4096 -0.3961
 2930TIP3    H130349   4.594   1.581   8.252 -1.3832  0.1734  0.3065
 2930TIP3    H230350   4.528   1.679   8.157  0.9015 -0.4637 -2.0404
 2931TIP3   OH230351   2.998   0.214   2.339 -0.0233 -0.2023 -0.0347
 2931TIP3    H130352   3.010   0.119   2.343  0.4752 -0.0942  2.9793
 2931TIP3    H230353   2.912   0.225   2.299  0.6559 -1.7813 -2.1710
 2932TIP3   OH230354   0.247   0.428   6.523  0.1411  0.1789 -0.6468
 2932TIP3    H130355   0.264   0.402   6.432  0.0663 -0.2447 -0.5441
 2932TIP3    H230356   0.284   0.356   6.575 -1.0396 -0.2571 -0.3853
 2933TIP3   OH230357   6.065   1.003   2.143  0.1694  0.0427 -0.0885
 2933TIP3    H130358   6.065   0.944   2.218 -1.3426  0.2396  0.1130
 2933TIP3    H230359   6.053   1.090   2.181  0.1132  0.2216 -0.5130
 2934TIP3   OH230360   1.591   4.047   8.480  0.1919  0.0482  0.1125
 2934TIP3    H130361   1.635   4.089   8.553  0.7862  1.8371 -1.1950
 2934TIP3    H230362   1.646   3.972   8.458  1.0430  0.6036  0.3013
 2935TIP3   OH230363   1.840   0.557   1.887 -0.2024  0.0974 -0.0941
 2935TIP3    H130364   1.920   0.504   1.887 -0.1444  0.1804  0.1595
 2935TIP3    H230365   1.773   0.499   1.923  0.2917  0.7997  2.1180
 2936TIP3   OH230366   4.423   2.595   2.139  0.1050  0.2284 -0.6127
 2936TIP3    H130367   4.517   2.579   2.132  0.0347 -0.5293  0.0141
 2936TIP3    H230368   4.404   2.586   2.233 -0.5887  0.4145 -0.7246
 2937TIP3   OH230369   3.530   4.627   8.386  0.8389  0.0122 -0.1634
 2937TIP3    H130370   3.564   4.557   8.442  0.6075  1.3545  1.7917
 2937TIP3    H230371   3.523   4.703   8.445 -1.6639  0.9077 -1.4707
 2938TIP3   OH230372   5.363   5.790   1.969  0.0769 -0.6072  0.2553
 2938TIP3    H130373   5.441   5.744   1.937 -0.7718 -1.2041 -1.0530
 2938TIP3    H230374   5.376   5.881   1.943 -0.1776 -0.9183 -1.0568
 2939TIP3   OH230375   4.365   1.999   7.593  0.0705  0.7556  0.3268
 2939TIP3    H130376   4.366   2.049   7.511 -0.9020  0.0815 -0.1135
 2939TIP3    H230377   4.330   2.061   7.658 -0.1430  0.9770  0.0060
 2940TIP3   OH230378   1.990   2.704   8.597 -0.6259 -0.2400 -0.5270
 2940TIP3    H130379   2.047   2.776   8.624 -1.0020 -0.5089  1.1041
 2940TIP3    H230380   2.041   2.657   8.531  0.4297  0.3762 -0.1829
 2941TIP3   OH230381   4.855   2.371   1.217 -0.4144  0.2309  0.6873
 2941TIP3    H130382   4.802   2.355   1.139  0.2215 -0.1974  0.3304
 2941TIP3    H230383   4.891   2.459   1.204  0.3733 -0.1656  0.0748
 2942TIP3   OH230384   6.116   0.726   2.235  0.7387  0.4329  0.1051
 2942TIP3    H130385   6.112   0.721   2.140 -1.5720 -2.1007  0.2049
 2942TIP3    H230386   6.199   0.684   2.259  0.4172 -0.7382 -0.7634
 2943TIP3   OH230387   2.050   4.765   0.163 -0.1505  0.3865  0.2034
 2943TIP3    H130388   2.074   4.856   0.180 -1.2976  1.0736 -1.6008
 2943TIP3    H230389   2.132   4.724   0.134  0.4878  0.6835  1.5125
 2944TIP3   OH230390   5.655   4.297   0.785  0.1839  0.2137 -0.2680
 2944TIP3    H130391   5.627   4.359   0.852  0.7746 -0.1097  0.2939
 2944TIP3    H230392   5.681   4.351   0.711  0.9571  0.6644  0.3175
 2945TIP3   OH230393   1.021   5.356   0.813 -0.1812  0.0262  0.3740
 2945TIP3    H130394   1.056   5.440   0.845  2.8220 -1.4201  1.2219
 2945TIP3    H230395   1.098   5.304   0.794 -1.9626 -2.2332 -1.1600
 2946TIP3   OH230396   0.913   5.715   0.170  0.2912 -0.1705  0.3149
 2946TIP3    H130397   0.909   5.806   0.199  0.6900 -0.1714  0.3926
 2946TIP3    H230398   0.824   5.683   0.177 -0.1998  0.7228 -1.4009
 2947TIP3   OH230399   0.768   0.971   0.128 -0.4595 -0.3461  0.5636
 2947TIP3    H130400   0.809   0.915   0.062  1.1819  0.0605  1.1833
 2947TIP3    H230401   0.732   1.044   0.079 -0.4071 -0.7017 -0.0086
 2948TIP3   OH230402   2.974   3.602   0.658  0.3830 -0.1062  0.1270
 2948TIP3    H130403   2.921   3.643   0.590  1.6582 -0.7702 -1.3470
 2948TIP3    H230404   2.914   3.543   0.703 -0.5076  0.3612 -0.4265
 2949TIP3   OH230405   1.535   5.116   2.264 -0.2237  0.0968  0.2587
 2949TIP3    H130406   1.605   5.172   2.231 -1.3764  1.5886  0.2144
 2949TIP3    H230407   1.575   5.066   2.335  1.6295 -1.2672 -1.6088
 2950TIP3   OH230408   1.482   0.747   2.016  0.1666 -0.0582  0.1394
 2950TIP3    H130409   1.556   0.749   2.077  0.5606  0.2793 -0.3406
 2950TIP3    H230410   1.452   0.838   2.012  0.2157 -0.0565 -0.2520
 2951TIP3   OH230411   0.541   2.851   0.803  0.0363 -0.2204 -0.3184
 2951TIP3    H130412   0.566   2.846   0.895  0.9286 -1.5648 -0.5922
 2951TIP3    H230413   0.446   2.848   0.803 -0.0801  1.7913  0.6259
 2952TIP3   OH230414   6.388   5.502   1.106  0.2065 -0.6404  0.2345
 2952TIP3    H130415   6.411   5.594   1.120 -0.4521 -0.4314 -0.0539
 2952TIP3    H230416   6.337   5.478   1.184  0.9575 -0.9618  0.6362
 2953TIP3   OH230417   2.647   4.998   0.422  0.4908 -0.6008  0.1946
 2953TIP3    H130418   2.580   4.934   0.446  2.5367 -2.7029  0.6276
 2953TIP3    H230419   2.694   4.957   0.350  0.4957  1.4454 -1.0411
 2954TIP3   OH230420   1.371   4.518   1.138 -0.7043 -0.1729 -0.3210
 2954TIP3    H130421   1.363   4.542   1.045  0.1821  0.9736 -0.1271
 2954TIP3    H230422   1.409   4.596   1.179 -2.0781 -0.2622  1.2052
 2955TIP3   OH230423   2.814   4.204   1.091 -0.2518 -0.3173  0.3817
 2955TIP3    H130424   2.772   4.157   1.019  0.5345  1.8147 -1.5937
 2955TIP3    H230425   2.741   4.230   1.148 -0.9311 -1.7169  0.1963
 2956TIP3   OH230426   3.507   5.142   8.622 -0.4878  0.7294  0.0814
 2956TIP3    H130427   3.579   5.205   8.627 -0.1993  0.3848  0.3738
 2956TIP3    H230428   3.475   5.136   8.712 -1.1377  1.1673 -0.1134
 2957TIP3   OH230429   5.051   2.276   1.597  0.0085 -0.2110 -0.4634
 2957TIP3    H130430   5.027   2.233   1.515 -1.1289  1.7577 -1.2517
 2957TIP3    H230431   5.081   2.363   1.570 -0.5403  0.5389  1.2250
 2958TIP3   OH230432   6.638   5.189   1.335  0.2222 -0.2775  0.1914
 2958TIP3    H130433   6.559   5.138   1.319  0.7023 -1.4363  1.2958
 2958TIP3    H230434   6.639   5.202   1.430  0.5047  1.1640  0.0037
 2959TIP3   OH230435   2.484   3.947   7.998 -0.4758 -0.2303 -0.2046
 2959TIP3    H130436   2.577   3.966   8.004 -0.8568  1.7188  0.1659
 2959TIP3    H230437   2.457   3.981   7.913 -0.8829 -0.7008 -0.2721
 2960TIP3   OH230438   3.543   0.922   8.646  0.0057  0.4337 -0.2182
 2960TIP3    H130439   3.519   0.849   8.703 -0.4656 -0.0568 -1.0327
 2960TIP3    H230440   3.639   0.927   8.653  0.2111 -1.2436 -1.3121
 2961TIP3   OH230441   4.384   3.017   0.183  0.0807 -0.6869  0.2652
 2961TIP3    H130442   4.298   3.049   0.155 -0.1287  0.3598  1.9850
 2961TIP3    H230443   4.434   3.010   0.101 -0.8908  0.9509 -0.5251
 2962TIP3   OH230444   6.041   0.359   8.038  0.5017  0.2437  0.1392
 2962TIP3    H130445   6.079   0.415   8.106 -0.5999 -1.0500  1.8978
 2962TIP3    H230446   5.977   0.415   7.994 -0.4697  0.4796  1.7571
 2963TIP3   OH230447   5.590   3.325   7.862 -0.1912 -0.1597  0.2965
 2963TIP3    H130448   5.573   3.362   7.776  0.0713 -1.4516 -0.3306
 2963TIP3    H230449   5.521   3.260   7.875  0.1672 -0.4585  0.7569
 2964TIP3   OH230450   0.561   1.417   7.100 -0.4028  0.3600  0.3086
 2964TIP3    H130451   0.580   1.506   7.069  0.0598 -0.3412 -1.5942
 2964TIP3    H230452   0.639   1.367   7.076 -0.5306 -0.5161  1.6239
 2965TIP3   OH230453   5.985   1.048   1.515 -0.1112 -0.1474  0.4543
 2965TIP3    H130454   5.980   0.975   1.578  0.7382 -0.2368  0.4277
 2965TIP3    H230455   6.075   1.078   1.521  0.3192 -0.8903 -1.5559
 2966TIP3   OH230456   3.917   0.808   7.848 -0.0432 -0.5509  0.5222
 2966TIP3    H130457   3.894   0.781   7.937 -1.2174  3.5918  1.6622
 2966TIP3    H230458   3.882   0.738   7.793 -3.2603 -1.2317  3.0868
 2967TIP3   OH230459   0.728   3.373   2.089 -0.2403  0.0876 -0.4775
 2967TIP3    H130460   0.756   3.286   2.061 -0.5819 -0.0001 -0.5550
 2967TIP3    H230461   0.696   3.360   2.179  1.7218  0.5392  0.3377
 2968TIP3   OH230462   5.340   2.401   8.576  0.4330 -0.4835 -0.5707
 2968TIP3    H130463   5.279   2.331   8.554  0.3693 -0.2728 -1.0760
 2968TIP3    H230464   5.405   2.360   8.633 -1.8616 -0.0808  2.6588
 2969TIP3   OH230465   4.898   4.366   8.188  0.2259 -0.1673 -0.0626
 2969TIP3    H130466   4.913   4.293   8.127 -0.9360 -0.3874 -0.1138
 2969TIP3    H230467   4.880   4.441   8.131  1.5011  0.2067 -0.0122
 2970TIP3   OH230468   4.409   2.849   0.411  0.4654 -0.1343  0.3453
 2970TIP3    H130469   4.419   2.878   0.321  0.9382 -3.0728 -0.6241
 2970TIP3    H230470   4.326   2.803   0.413  1.0982 -1.2978  1.0404
 2971TIP3   OH230471   3.543   3.591   1.355  0.3616  0.1806  0.0933
 2971TIP3    H130472   3.462   3.542   1.341  0.5422  0.1055 -0.7457
 2971TIP3    H230473   3.565   3.575   1.447  1.0641 -2.2827 -0.4387
 2972TIP3   OH230474   2.468   2.792   2.315  0.0536 -0.8471  0.1456
 2972TIP3    H130475   2.396   2.847   2.346  0.4390 -0.3545  0.1812
 2972TIP3    H230476   2.493   2.740   2.392  1.2338  0.6200  0.8029
 2973TIP3   OH230477   6.054   0.586   0.922 -0.6263 -0.2263 -1.0087
 2973TIP3    H130478   6.063   0.680   0.904  0.2519 -0.5819 -2.6273
 2973TIP3    H230479   6.120   0.545   0.866 -0.1356 -1.7362  0.6010
 2974TIP3   OH230480   6.841   3.870   7.647 -0.4185  0.5613  0.5744
 2974TIP3    H130481   6.871   3.807   7.582  1.6275  1.4027  0.6427
 2974TIP3    H230482   6.794   3.816   7.712  0.7401 -0.8285  0.3227
 2975TIP3   OH230483   5.041   6.754   0.393  0.4659  0.8670  0.6742
 2975TIP3    H130484   5.058   6.661   0.382  2.6606  1.1612  1.0884
 2975TIP3    H230485   4.983   6.759   0.469 -0.6923 -0.2039 -0.1164
 2976TIP3   OH230486   6.107   2.193   7.563 -0.2919 -0.5333  0.5965
 2976TIP3    H130487   6.071   2.125   7.507  0.0060  0.6204 -1.0561
 2976TIP3    H230488   6.040   2.261   7.565  0.6441  0.4690 -0.3394
 2977TIP3   OH230489   2.879   6.733   2.024  0.8235 -0.2384 -0.6825
 2977TIP3    H130490   2.801   6.759   1.975  1.3967  2.2897 -0.4353
 2977TIP3    H230491   2.929   6.679   1.962 -0.3463 -0.5150 -1.4106
 2978TIP3   OH230492   3.749   0.865   6.976 -0.0958 -0.3532 -0.4943
 2978TIP3    H130493   3.839   0.845   7.001 -0.0429 -0.0168 -0.4093
 2978TIP3    H230494   3.758   0.926   6.903 -0.2434  1.4535  0.9393
 2979TIP3   OH230495   6.507   1.898   0.474 -0.1129  0.3617  0.0623
 2979TIP3    H130496   6.503   1.808   0.443 -1.2211  0.5508 -0.4119
 2979TIP3    H230497   6.474   1.894   0.564 -0.3296  0.3043 -0.0175
 2980TIP3   OH230498   1.104   1.874   7.473  0.3199 -0.8344  0.2518
 2980TIP3    H130499   1.036   1.824   7.428 -1.5329  2.0761 -0.4988
 2980TIP3    H230500   1.125   1.945   7.413  0.6890  0.9182  2.3259
 2981TIP3   OH230501   6.848   1.316   2.682  0.1443  0.1691 -0.4261
 2981TIP3    H130502   6.912   1.364   2.631  1.0815  0.9430  1.3699
 2981TIP3    H230503   6.866   1.342   2.773 -1.2354 -1.3542  0.3302
 2982TIP3   OH230504   6.671   6.107   7.563 -0.4756 -0.0852  0.4878
 2982TIP3    H130505   6.579   6.134   7.555 -0.2279  0.3872 -1.3484
 2982TIP3    H230506   6.693   6.072   7.476  1.1425  0.0217  0.8204
 2983TIP3   OH230507   4.588   6.479   7.663 -0.2903  0.5004  0.6875
 2983TIP3    H130508   4.494   6.496   7.664 -0.2620  0.6534  0.8029
 2983TIP3    H230509   4.625   6.549   7.610 -0.4028 -0.4194 -0.6516
 2984TIP3   OH230510   5.491   2.419   7.934  0.5966  0.7376 -0.4839
 2984TIP3    H130511   5.563   2.360   7.959  0.8387  0.6734 -1.2802
 2984TIP3    H230512   5.505   2.433   7.840 -1.3386 -0.5670 -1.0274
 2985TIP3   OH230513   0.079   1.649   7.637 -0.0810  0.0459  0.2486
 2985TIP3    H130514   0.166   1.661   7.600 -0.7617  1.2336 -1.0427
 2985TIP3    H230515   0.019   1.662   7.563 -1.3519 -1.3666  0.9572
 2986TIP3   OH230516   6.816   4.720   7.151 -0.2768 -0.1627 -0.2493
 2986TIP3    H130517   6.851   4.644   7.105 -0.0574 -0.7801  0.8835
 2986TIP3    H230518   6.754   4.759   7.090  0.1533 -0.8226 -1.1321
 2987TIP3   OH230519   5.134   0.957   2.217  0.1012 -0.0457  0.2085
 2987TIP3    H130520   5.191   1.033   2.218  1.2069 -0.8551  1.4765
 2987TIP3    H230521   5.100   0.950   2.306 -1.6483  0.1408 -0.3962
 2988TIP3   OH230522   1.264   2.749   1.232  0.1915  0.2898 -0.1327
 2988TIP3    H130523   1.170   2.744   1.249  0.1392  0.1380 -0.4566
 2988TIP3    H230524   1.296   2.816   1.292 -0.2515  0.9091 -0.5785
 2989TIP3   OH230525   2.065   5.394   6.836 -0.0433 -0.5786  0.0965
 2989TIP3    H130526   2.008   5.410   6.911 -0.6300 -0.1155 -0.4376
 2989TIP3    H230527   2.116   5.474   6.827  0.7600 -1.0179  0.6158
 2990TIP3   OH230528   6.802   5.125   0.336 -0.7418 -0.0337 -0.2538
 2990TIP3    H130529   6.716   5.102   0.301 -0.0741 -0.4674 -1.6375
 2990TIP3    H230530   6.858   5.051   0.313 -0.5711 -1.1095  3.0781
 2991TIP3   OH230531   0.603   3.061   7.536 -0.5399 -0.0942  0.3324
 2991TIP3    H130532   0.544   3.137   7.534  0.5602  0.7948  0.3570
 2991TIP3    H230533   0.689   3.099   7.552  0.2350 -1.2428 -0.9225
 2992TIP3   OH230534   0.790   5.888   8.246  0.3408  0.3822 -0.2388
 2992TIP3    H130535   0.707   5.933   8.261 -0.3219 -0.6469 -0.7166
 2992TIP3    H230536   0.854   5.959   8.239 -0.2610  1.1568  1.3800
 2993TIP3   OH230537   6.650   5.658   1.077  0.3640  0.0863 -0.2308
 2993TIP3    H130538   6.740   5.660   1.109  0.7707 -0.3393 -1.3141
 2993TIP3    H230539   6.611   5.738   1.113  1.4414  0.7619 -0.4869
 2994TIP3   OH230540   5.262   4.827   2.073  0.2309  0.0532 -0.0684
 2994TIP3    H130541   5.284   4.854   2.162  0.6125  1.2248 -0.4976
 2994TIP3    H230542   5.346   4.822   2.028 -0.1055  3.4620 -1.4172
 2995TIP3   OH230543   6.050   5.241   1.192 -0.0559  0.8457 -0.4350
 2995TIP3    H130544   6.063   5.160   1.142 -0.8721  0.2212  0.3360
 2995TIP3    H230545   5.962   5.232   1.229  0.1382  1.7521  0.2728
 2996TIP3   OH230546   1.155   1.361   7.534  0.2594  0.0926 -0.1381
 2996TIP3    H130547   1.233   1.408   7.505  1.4042 -1.6064  0.0641
 2996TIP3    H230548   1.188   1.292   7.591 -1.5112  0.1181  1.0222
 2997TIP3   OH230549   1.157   2.913   0.227 -0.1051 -1.4068 -0.1538
 2997TIP3    H130550   1.099   2.989   0.234 -0.2870 -1.6121  0.7085
 2997TIP3    H230551   1.244   2.947   0.251 -0.2215 -1.5015  0.4271
 2998TIP3   OH230552   5.154   5.928   0.328  0.3848  0.5988  0.1209
 2998TIP3    H130553   5.243   5.952   0.300 -0.1983  1.8188 -0.7885
 2998TIP3    H230554   5.166   5.892   0.416  2.0117 -1.1826 -0.7633
 2999TIP3   OH230555   1.449   1.633   1.414  1.0569 -0.0012  0.3642
 2999TIP3    H130556   1.496   1.558   1.379  0.8664 -0.1374  0.3985
 2999TIP3    H230557   1.450   1.620   1.509  0.0038 -0.5749  0.3074
 3000TIP3   OH230558   6.372   4.745   7.142 -0.4654  0.3322 -0.6895
 3000TIP3    H130559   6.291   4.751   7.092 -1.0541  0.8854  0.3039
 3000TIP3    H230560   6.379   4.652   7.165 -1.1610  0.3911 -0.2310
 3001TIP3   OH230561   2.022   2.817   7.605 -0.4494 -0.3238 -0.5285
 3001TIP3    H130562   2.016   2.912   7.616 -1.4289 -0.3277 -0.9571
 3001TIP3    H230563   1.943   2.783   7.646 -1.7766 -0.6930 -3.2108
 3002TIP3   OH230564   4.234   5.660   7.829 -0.4807 -0.0622  0.2803
 3002TIP3    H130565   4.226   5.572   7.866  1.1825 -0.7851 -1.0016
 3002TIP3    H230566   4.196   5.653   7.742  2.1236 -0.2675 -0.9005
 3003TIP3   OH230567   1.711   3.791   8.391  0.6359  0.7702  0.0864
 3003TIP3    H130568   1.652   3.715   8.389 -1.0276  2.0137 -0.1911
 3003TIP3    H230569   1.731   3.808   8.299  0.3746  1.1454  0.1000
 3004TIP3   OH230570   1.076   5.889   0.947 -1.3275 -0.0258 -0.3280
 3004TIP3    H130571   1.067   5.931   1.033 -1.3358 -0.5759 -0.0524
 3004TIP3    H230572   1.048   5.798   0.962  0.9682 -0.7876 -0.3235
 3005TIP3   OH230573   2.260   0.845   0.370 -0.2958 -0.1019  0.9335
 3005TIP3    H130574   2.170   0.815   0.355  0.0363 -1.1420  0.9209
 3005TIP3    H230575   2.278   0.903   0.296  0.0719 -2.3238 -0.8522
 3006TIP3   OH230576   1.571   3.450   1.028 -0.2721 -0.2178 -0.1884
 3006TIP3    H130577   1.662   3.432   1.053 -0.2576  0.6300  0.3818
 3006TIP3    H230578   1.575   3.468   0.934  0.2630  0.5281 -0.0314
 3007TIP3   OH230579   3.510   6.609   8.662  0.1082 -0.1908 -0.1702
 3007TIP3    H130580   3.599   6.633   8.636  0.3484 -1.1620 -0.2854
 3007TIP3    H230581   3.501   6.518   8.634 -0.9131 -0.1117 -0.1253
 3008TIP3   OH230582   3.601   5.203   2.653  0.1120 -0.3986  0.0839
 3008TIP3    H130583   3.543   5.264   2.609  1.4156 -1.2699 -3.1074
 3008TIP3    H230584   3.542   5.137   2.691 -1.0968  0.6190  0.0331
 3009TIP3   OH230585   2.862   0.784   0.684 -0.2618  0.0129 -0.0568
 3009TIP3    H130586   2.840   0.709   0.740  0.1281 -0.6090 -0.7185
 3009TIP3    H230587   2.809   0.855   0.718  0.6927 -0.0781  1.7427
 3010TIP3   OH230588   1.314   3.709   1.447  0.0100  0.4537 -0.5899
 3010TIP3    H130589   1.346   3.630   1.404 -0.4056 -1.4072  2.2974
 3010TIP3    H230590   1.372   3.722   1.521 -1.7086  1.0457  0.7281
 3011TIP3   OH230591   1.073   3.701   1.593 -0.0629  0.6078  0.0974
 3011TIP3    H130592   1.007   3.636   1.568  1.3545 -0.8659 -0.0348
 3011TIP3    H230593   1.151   3.676   1.542  0.6552  2.1924  0.3490
 3012TIP3   OH230594   3.512   4.873   2.285 -0.0428 -0.2350  0.1411
 3012TIP3    H130595   3.478   4.898   2.199 -0.3657 -0.2812  0.2546
 3012TIP3    H230596   3.472   4.788   2.302 -0.3045 -0.0351  0.5232
 3013TIP3   OH230597   6.612   0.631   2.887 -0.0218  0.1914 -0.0034
 3013TIP3    H130598   6.703   0.656   2.901 -0.0545  1.1386 -1.2380
 3013TIP3    H230599   6.607   0.610   2.794 -0.4725 -2.5826  0.5769
 3014TIP3   OH230600   0.144   4.185   6.901  0.2907 -0.8678 -0.4340
 3014TIP3    H130601   0.171   4.109   6.850  2.2263 -0.5875  0.1001
 3014TIP3    H230602   0.145   4.257   6.839 -0.7777 -1.1210 -0.7625
 3015TIP3   OH230603   3.436   4.664   2.038  0.5513  0.0480 -0.2900
 3015TIP3    H130604   3.414   4.669   2.131  1.0076 -0.6240 -0.1413
 3015TIP3    H230605   3.476   4.578   2.027  0.0187 -0.0923 -1.2160
 3016TIP3   OH230606   0.946   2.315   1.824 -0.2560  0.3637  0.7278
 3016TIP3    H130607   0.859   2.351   1.841 -1.2759 -0.9448 -1.3034
 3016TIP3    H230608   0.988   2.380   1.768  0.1703  1.0642  1.8271
 3017TIP3   OH230609   2.857   4.797   1.116  0.3885 -0.1022  0.2104
 3017TIP3    H130610   2.765   4.819   1.102  0.5145 -0.2462 -0.9099
 3017TIP3    H230611   2.905   4.854   1.056  0.8677 -1.8359 -1.1325
 3018TIP3   OH230612   1.700   0.096   1.967  0.2650 -0.3253  0.3707
 3018TIP3    H130613   1.771   0.081   1.905 -0.4702  0.3464 -0.6692
 3018TIP3    H230614   1.679   0.189   1.959 -0.7809 -0.5244  0.5905
 3019TIP3   OH230615   2.801   5.789   2.754 -0.3642  0.5014 -0.2025
 3019TIP3    H130616   2.746   5.731   2.702  0.2435  0.3911 -0.7415
 3019TIP3    H230617   2.857   5.731   2.805  0.5677  0.5783 -1.0882
 3020TIP3   OH230618   1.961   4.630   8.056 -0.1893 -0.2223 -0.1402
 3020TIP3    H130619   1.977   4.537   8.039 -2.0455 -0.5488 -0.2761
 3020TIP3    H230620   1.890   4.631   8.120  0.3838  1.1073  0.4950
 3021TIP3   OH230621   3.601   4.685   7.899 -0.3409  0.1190 -0.5648
 3021TIP3    H130622   3.619   4.745   7.827  0.4240  1.0997  0.4126
 3021TIP3    H230623   3.683   4.639   7.914 -1.0866 -1.7006 -1.7234
 3022TIP3   OH230624   4.166   2.191   6.980  0.6610 -0.4592  0.3315
 3022TIP3    H130625   4.093   2.157   6.929  0.9796 -0.0384 -0.4256
 3022TIP3    H230626   4.149   2.285   6.987  3.4857  0.6737 -4.0982
 3023TIP3   OH230627   6.640   5.673   7.339 -0.1794  0.2622  0.7106
 3023TIP3    H130628   6.654   5.746   7.279  1.9407  1.5025  2.5749
 3023TIP3    H230629   6.644   5.595   7.283 -0.7141  1.4390 -1.0601
 3024TIP3   OH230630   2.122   4.237   1.958 -0.1409  0.1158 -0.3109
 3024TIP3    H130631   2.031   4.256   1.981 -0.7002 -0.1067 -2.2031
 3024TIP3    H230632   2.141   4.294   1.883  0.2756 -1.9575 -1.8667
 3025TIP3   OH230633   1.850   6.351   8.516  0.2623 -0.2667  0.3605
 3025TIP3    H130634   1.871   6.299   8.594 -1.8744 -1.1045  0.4366
 3025TIP3    H230635   1.935   6.385   8.487  1.0489  0.7797  3.4858
 3026TIP3   OH230636   3.975   2.534   1.017 -0.4374 -0.3547  0.1772
 3026TIP3    H130637   4.032   2.584   0.958  0.7083 -0.7011  0.9761
 3026TIP3    H230638   3.890   2.532   0.972 -0.1807  1.2672 -0.4332
 3027TIP3   OH230639   4.622   0.251   1.856  0.2771  0.2934  0.2616
 3027TIP3    H130640   4.609   0.173   1.910 -0.1162 -1.0099 -1.6315
 3027TIP3    H230641   4.534   0.282   1.836  0.4098  0.4930 -0.0266
 3028TIP3   OH230642   1.767   0.223   8.452 -0.2470  0.1486 -0.0941
 3028TIP3    H130643   1.733   0.234   8.363  2.6473 -3.2211 -1.8826
 3028TIP3    H230644   1.845   0.279   8.455 -0.7579  0.8458  0.6677
 3029TIP3   OH230645   2.573   6.443   0.874  0.3064 -0.1009 -0.4943
 3029TIP3    H130646   2.625   6.403   0.944  0.0838  1.9171  0.9181
 3029TIP3    H230647   2.577   6.380   0.802  2.1570 -1.3907  0.6483
 3030TIP3   OH230648   6.748   5.136   6.570  0.2709  0.0033 -0.7009
 3030TIP3    H130649   6.659   5.171   6.578 -1.0858 -2.8455 -1.8986
 3030TIP3    H230650   6.780   5.171   6.488 -0.1506  0.2210 -0.7801
 3031TIP3   OH230651   3.321   1.312   1.723  0.1233  0.1022 -0.1088
 3031TIP3    H130652   3.355   1.401   1.730 -1.3725  0.8573 -1.6173
 3031TIP3    H230653   3.227   1.320   1.742  0.0299 -1.2172  0.1289
 3032TIP3   OH230654   2.280   2.779   7.480 -0.1213 -0.4684  0.8056
 3032TIP3    H130655   2.196   2.809   7.514 -0.9067  0.1347 -1.5024
 3032TIP3    H230656   2.314   2.853   7.431  0.6726 -1.4366 -0.1538
 3033TIP3   OH230657   4.078   5.160   1.317 -0.2199  0.0396 -0.6792
 3033TIP3    H130658   4.070   5.158   1.222 -0.5620  1.1955 -0.6831
 3033TIP3    H230659   4.124   5.241   1.336 -1.3628  0.5015  0.2102
 3034TIP3   OH230660   5.815   0.675   8.230  0.0323 -0.1743 -0.2866
 3034TIP3    H130661   5.902   0.636   8.239  0.0588 -0.4036 -1.3803
 3034TIP3    H230662   5.809   0.738   8.302  2.5590  2.5272 -2.1734
 3035TIP3   OH230663   4.845   4.590   8.035 -0.6566 -0.0030  0.0296
 3035TIP3    H130664   4.753   4.607   8.055 -0.4512  0.7724  0.3719
 3035TIP3    H230665   4.850   4.597   7.939 -1.1724 -1.2291 -0.0969
 3036TIP3   OH230666   5.977   1.689   1.402  0.0895 -0.5343 -0.2398
 3036TIP3    H130667   6.062   1.673   1.443  0.2104 -1.0602 -0.6951
 3036TIP3    H230668   5.977   1.635   1.323  0.1795  1.0280 -1.3700
 3037TIP3   OH230669   6.322   3.818   8.186  0.7429 -0.2578 -0.1623
 3037TIP3    H130670   6.356   3.734   8.216  0.3807  0.3024  2.0686
 3037TIP3    H230671   6.398   3.875   8.182  0.7191 -0.1737  0.4093
 3038TIP3   OH230672   1.366   6.787   0.974  0.0318  0.4937 -0.0208
 3038TIP3    H130673   1.363   6.840   1.054  1.1551  2.6332 -1.2945
 3038TIP3    H230674   1.289   6.815   0.924 -0.5490 -0.6819  0.1712
 3039TIP3   OH230675   3.622   6.161   6.798  0.0552 -0.5440  0.0205
 3039TIP3    H130676   3.679   6.188   6.726  0.4660  0.4847  0.7130
 3039TIP3    H230677   3.577   6.241   6.824 -0.2068 -0.9431  0.8110
 3040TIP3   OH230678   3.789   0.887   0.626  0.2836  0.3764  0.0443
 3040TIP3    H130679   3.805   0.818   0.690  0.2783 -0.5614 -0.9281
 3040TIP3    H230680   3.842   0.862   0.550 -0.8826  0.6070 -0.8845
 3041TIP3   OH230681   0.894   1.634   7.567 -0.0163 -0.5626 -0.4898
 3041TIP3    H130682   0.807   1.666   7.591  0.8857  0.8790  1.0454
 3041TIP3    H230683   0.881   1.594   7.481 -2.3689 -1.2396  0.0901
 3042TIP3   OH230684   4.949   0.474   0.178 -0.6275 -0.5380 -0.4819
 3042TIP3    H130685   4.997   0.549   0.211 -0.9720 -0.5867  0.1406
 3042TIP3    H230686   4.947   0.412   0.251 -2.0287 -0.3485 -0.3389
 3043TIP3   OH230687   2.273   4.341   0.206  0.0164  0.6266 -0.0329
 3043TIP3    H130688   2.340   4.303   0.149 -0.7758 -0.3025 -0.3702
 3043TIP3    H230689   2.196   4.350   0.150 -1.3147 -1.8480  1.2262
 3044TIP3   OH230690   1.756   4.267   2.007  0.3648 -0.4311  0.2383
 3044TIP3    H130691   1.808   4.321   2.065 -0.5162  0.3270  0.3475
 3044TIP3    H230692   1.706   4.210   2.066 -1.4231  1.1447  0.3508
 3045TIP3   OH230693   1.492   3.867   2.008  0.8879  0.2366  0.1647
 3045TIP3    H130694   1.409   3.844   2.050  0.9590 -2.0970 -0.8706
 3045TIP3    H230695   1.466   3.910   1.926  0.6565 -0.7550 -0.3003
 3046TIP3   OH230696   2.332   3.271   8.257  0.6902  0.1344 -0.8162
 3046TIP3    H130697   2.388   3.251   8.182 -0.1446 -2.6428 -0.8321
 3046TIP3    H230698   2.243   3.257   8.226  0.3719 -2.8611  0.9918
 3047TIP3   OH230699   5.728   3.306   8.101 -0.0574 -0.8236  0.6945
 3047TIP3    H130700   5.734   3.211   8.105 -0.2595 -0.7831  2.3992
 3047TIP3    H230701   5.676   3.323   8.022 -0.1628 -2.1166  0.4572
 3048TIP3   OH230702   4.601   0.130   8.276  1.0182 -0.4678 -0.6108
 3048TIP3    H130703   4.556   0.184   8.211  0.9640  0.8263  0.4626
 3048TIP3    H230704   4.625   0.191   8.346  1.4832 -1.7347  0.3762
 3049TIP3   OH230705   1.555   0.177   1.170  0.1118  0.3496  0.4548
 3049TIP3    H130706   1.614   0.132   1.109  1.0853  0.6436  1.1580
 3049TIP3    H230707   1.469   0.139   1.152  0.2518  0.8570 -1.5090
 3050TIP3   OH230708   6.628   6.518   7.500  0.5119 -0.2421  0.3330
 3050TIP3    H130709   6.584   6.434   7.485  1.3536 -0.3767 -1.6918
 3050TIP3    H230710   6.595   6.574   7.430  1.3944  0.5342  0.5379
 3051TIP3   OH230711   1.536   0.462   1.579 -0.1059 -0.4382  0.2304
 3051TIP3    H130712   1.445   0.438   1.565 -0.4197  0.3457  0.8787
 3051TIP3    H230713   1.564   0.407   1.653 -0.6386  0.6989  1.3043
 3052TIP3   OH230714   5.249   0.471   0.035 -0.1280  0.1107  0.1526
 3052TIP3    H130715   5.299   0.442   0.111 -2.4883 -0.9833  1.3923
 3052TIP3    H230716   5.224   0.561   0.056  1.4205  0.7564 -0.5886
 3053TIP3   OH230717   4.720   2.048   2.579 -0.4751 -0.9142  0.6748
 3053TIP3    H130718   4.798   2.003   2.547 -1.5614 -3.1719  0.9862
 3053TIP3    H230719   4.650   2.019   2.520 -1.1170  1.2494  0.2439
 3054TIP3   OH230720   4.980   1.129   0.740  0.3606 -0.7982  0.2061
 3054TIP3    H130721   5.017   1.040   0.742 -0.3287 -1.1395 -0.9533
 3054TIP3    H230722   4.986   1.154   0.648  0.0292  0.1446  0.4382
 3055TIP3   OH230723   4.879   0.262   2.079 -0.7339  0.1081  0.2220
 3055TIP3    H130724   4.948   0.325   2.062 -2.1602  1.9011  0.7068
 3055TIP3    H230725   4.823   0.266   2.001 -1.2733  0.0600  0.5991
 3056TIP3   OH230726   6.352   1.081   0.429 -0.8220  0.5595 -0.0948
 3056TIP3    H130727   6.441   1.100   0.460 -0.8597  0.0946  0.3090
 3056TIP3    H230728   6.363   1.005   0.371 -0.8361  1.0514 -0.7502
 3057TIP3   OH230729   4.125   3.332   2.238 -0.3452  0.0514  0.6072
 3057TIP3    H130730   4.103   3.311   2.147  1.2540 -0.0014  0.1956
 3057TIP3    H230731   4.197   3.273   2.259 -0.5588  0.2192  1.8436
 3058TIP3   OH230732   4.784   5.233   0.007  0.3353  0.0527 -0.0599
 3058TIP3    H130733   4.693   5.220  -0.018  0.1590  0.5283  0.3190
 3058TIP3    H230734   4.804   5.159   0.065  0.0407  0.2056  0.2413
 3059TIP3   OH230735   4.704   5.851   0.351 -0.2740 -0.0900  0.0287
 3059TIP3    H130736   4.758   5.814   0.281 -1.7378 -1.1181 -0.6015
 3059TIP3    H230737   4.620   5.871   0.309 -0.1825  2.2259  0.7936
 3060TIP3   OH230738   5.676   1.714   6.682 -0.5414 -0.1161 -0.3293
 3060TIP3    H130739   5.702   1.623   6.667  0.9656  0.1440  0.5320
 3060TIP3    H230740   5.580   1.710   6.687 -0.4555 -2.3075  3.2935
 3061TIP3   OH230741   6.648   5.040   7.268  0.1094  0.2650  0.5059
 3061TIP3    H130742   6.683   4.954   7.246  1.2336  0.7053  0.4938
 3061TIP3    H230743   6.571   5.049   7.212 -0.2746 -0.9007  0.8210
 3062TIP3   OH230744   1.627   5.796   2.044  0.2989  0.3253  0.5664
 3062TIP3    H130745   1.696   5.834   1.991 -0.3438  0.5491 -0.1279
 3062TIP3    H230746   1.660   5.710   2.070  1.2878  0.8761  1.1859
 3063TIP3   OH230747   2.837   1.728   1.773  0.0530 -0.3949  0.3218
 3063TIP3    H130748   2.837   1.641   1.814  0.5926 -1.2087 -1.2970
 3063TIP3    H230749   2.924   1.764   1.793 -0.9268  0.7986  2.8998
 3064TIP3   OH230750   4.979   4.125   6.795  0.0093 -0.4311 -0.2882
 3064TIP3    H130751   4.945   4.060   6.857 -0.7500 -1.0859 -1.3452
 3064TIP3    H230752   5.073   4.128   6.812 -0.2715 -0.0396  1.3781
 3065TIP3   OH230753   3.072   2.091   8.186 -0.1240  0.2014  0.0407
 3065TIP3    H130754   3.158   2.061   8.158 -0.1788  0.4663 -0.4127
 3065TIP3    H230755   3.049   2.159   8.124 -0.5036  0.3849  0.3803
 3066TIP3   OH230756   3.355   1.757   1.904 -0.5057  0.3700 -0.1315
 3066TIP3    H130757   3.436   1.791   1.942  0.0624 -0.1649 -0.8340
 3066TIP3    H230758   3.328   1.687   1.963 -1.1026  1.3011  0.7369
 3067TIP3   OH230759   1.725   1.402   2.295  0.5065 -0.2231  0.7306
 3067TIP3    H130760   1.801   1.347   2.315 -0.4868 -1.5259  1.0382
 3067TIP3    H230761   1.759   1.492   2.299  2.1266 -0.7829  0.4058
 3068TIP3   OH230762   1.403   5.499   1.520  0.2623  0.3553  0.1227
 3068TIP3    H130763   1.488   5.465   1.492 -0.0706 -0.0694 -0.3901
 3068TIP3    H230764   1.383   5.449   1.600  0.5555  0.5610  0.3299
 3069TIP3   OH230765   2.299   2.464   2.114 -0.4722 -0.0760 -0.1502
 3069TIP3    H130766   2.221   2.428   2.156  1.3268 -1.7599  1.9865
 3069TIP3    H230767   2.284   2.558   2.112 -2.2254 -0.2853  0.8872
 3070TIP3   OH230768   5.137   2.509   0.044  0.0139 -0.2849 -0.5043
 3070TIP3    H130769   5.221   2.497  -0.001  0.1293 -1.1335 -0.0839
 3070TIP3    H230770   5.089   2.428   0.026 -0.2501 -0.2996  0.2206
 3071TIP3   OH230771   5.484   0.579   0.195 -0.6229  0.1862 -0.0437
 3071TIP3    H130772   5.483   0.615   0.284  0.6994  0.5300 -0.1460
 3071TIP3    H230773   5.576   0.579   0.171 -1.0342  0.8437 -1.7286
 3072TIP3   OH230774   5.737   0.433   6.798 -0.6124 -0.6331 -0.1769
 3072TIP3    H130775   5.667   0.487   6.763  0.1229 -0.4700 -1.4693
 3072TIP3    H230776   5.818   0.476   6.769 -0.0002 -2.5075 -1.4162
 3073TIP3   OH230777   2.196   4.630   0.931 -0.2018 -0.0693 -0.6252
 3073TIP3    H130778   2.144   4.663   1.005 -2.0962 -0.4709 -1.7007
 3073TIP3    H230779   2.287   4.648   0.955 -0.8624  1.2328  1.0890
 3074TIP3   OH230780   6.879   2.328   0.980  0.1830  0.4044 -0.2885
 3074TIP3    H130781   6.821   2.291   1.047 -2.5163  1.3109 -1.9380
 3074TIP3    H230782   6.844   2.415   0.964  1.2053  0.4937 -2.3101
 3075TIP3   OH230783   0.032   6.865   1.536 -0.0863  1.2103  0.1279
 3075TIP3    H130784  -0.037   6.927   1.559  0.2267  1.1272  1.3812
 3075TIP3    H230785   0.050   6.818   1.618  0.6989  0.4865 -0.4435
 3076TIP3   OH230786   6.174   3.340   7.040 -0.2611  0.1308 -0.1002
 3076TIP3    H130787   6.185   3.339   7.136 -1.2514  3.2014  0.1634
 3076TIP3    H230788   6.248   3.392   7.008 -0.6371  0.2126 -0.8567
 3077TIP3   OH230789   4.316   6.736   0.692  0.2094 -0.5065 -0.2429
 3077TIP3    H130790   4.342   6.717   0.782 -1.7099  0.3619  0.5618
 3077TIP3    H230791   4.278   6.654   0.660 -0.6961 -0.3503  0.3857
 3078TIP3   OH230792   2.830   6.106   2.131 -0.1264 -0.3652  0.0370
 3078TIP3    H130793   2.921   6.132   2.145 -0.2775  0.5682 -0.5575
 3078TIP3    H230794   2.817   6.116   2.036 -0.8596 -0.4056  0.1256
 3079TIP3   OH230795   4.150   0.898   7.761 -0.1594  0.6471  0.4697
 3079TIP3    H130796   4.183   0.837   7.695  0.7318  0.8430  0.7277
 3079TIP3    H230797   4.070   0.857   7.793  0.3593 -0.3326  0.5447
 3080TIP3   OH230798   4.689   3.152   2.205 -0.2676 -0.2454  0.2400
 3080TIP3    H130799   4.775   3.120   2.181  1.7278  3.0082  2.3031
 3080TIP3    H230800   4.677   3.124   2.295 -1.2414 -0.4076  0.0713
 3081TIP3   OH230801   0.889   4.712   8.323  1.0290  0.2310 -0.0338
 3081TIP3    H130802   0.981   4.739   8.319  1.5067 -1.4029 -2.4557
 3081TIP3    H230803   0.851   4.764   8.394  3.6268  1.5037  0.5245
 3082TIP3   OH230804   4.220   3.826   6.928  1.1178  0.1126 -0.0472
 3082TIP3    H130805   4.303   3.809   6.972  1.2280 -1.8173 -0.8857
 3082TIP3    H230806   4.244   3.842   6.837  0.6799  1.4527  0.0381
 3083TIP3   OH230807   3.415   4.071   7.809 -0.6109 -0.5276  0.6961
 3083TIP3    H130808   3.378   4.032   7.888 -2.3916 -0.8007 -0.2340
 3083TIP3    H230809   3.350   4.056   7.741  1.0352 -0.6672 -0.9528
 3084TIP3   OH230810   1.012   2.300   7.401 -0.3620 -0.6243 -0.1968
 3084TIP3    H130811   0.993   2.213   7.436 -0.0625 -0.1234  1.2620
 3084TIP3    H230812   0.940   2.354   7.431 -1.5705 -0.7137 -2.6940
 3085TIP3   OH230813   0.710   0.620   8.394  0.3293 -0.3904  0.5575
 3085TIP3    H130814   0.756   0.537   8.403 -0.7494 -0.9143  1.5317
 3085TIP3    H230815   0.640   0.616   8.459 -0.1900  0.9881  0.1307
 3086TIP3   OH230816   1.778   6.555   7.878 -0.3233 -0.0514  0.5550
 3086TIP3    H130817   1.816   6.482   7.829 -1.1373  1.1368 -2.0144
 3086TIP3    H230818   1.688   6.528   7.895 -0.3349 -0.0398  0.5114
 3087TIP3   OH230819   3.802   0.031   0.601 -0.1828  0.1765 -0.1729
 3087TIP3    H130820   3.877  -0.014   0.564 -0.1407 -0.5339  0.7345
 3087TIP3    H230821   3.729  -0.030   0.588 -0.4734  0.5881 -0.4816
 3088TIP3   OH230822   4.985   2.562   8.477  0.1245  0.3969 -0.3989
 3088TIP3    H130823   5.017   2.483   8.432 -1.6459 -0.6986  0.1597
 3088TIP3    H230824   5.020   2.554   8.566 -2.6122 -1.5415  0.6402
 3089TIP3   OH230825   6.118   2.210   0.227 -0.3609 -0.3944  0.2927
 3089TIP3    H130826   6.147   2.126   0.193 -1.5024 -0.7720  0.2125
 3089TIP3    H230827   6.103   2.264   0.149 -2.9382 -1.2471  0.0963
 3090TIP3   OH230828   4.190   4.242   1.767 -1.1786 -0.1405 -0.3381
 3090TIP3    H130829   4.106   4.218   1.729 -1.7360 -2.9307  2.2187
 3090TIP3    H230830   4.236   4.158   1.779  0.6319  0.9676  1.1819
 3091TIP3   OH230831   1.917   2.742   7.346 -1.5369  0.1505  0.2580
 3091TIP3    H130832   1.978   2.792   7.399 -1.1237  0.4375 -0.4777
 3091TIP3    H230833   1.882   2.675   7.405 -0.4601 -0.0584  0.6663
 3092TIP3   OH230834   2.169   6.739   7.883 -0.4084 -0.0905  0.6111
 3092TIP3    H130835   2.085   6.734   7.930 -0.0289 -2.8131  1.2080
 3092TIP3    H230836   2.144   6.755   7.792 -1.5599 -0.4140  0.8447
 3093TIP3   OH230837   6.169   5.425   8.239 -0.7197  0.0644  0.0223
 3093TIP3    H130838   6.149   5.435   8.146 -0.3665 -1.8763 -0.3125
 3093TIP3    H230839   6.207   5.337   8.246 -0.5136  0.2598  1.9685
 3094TIP3   OH230840   1.428   1.466   1.636  0.2912  0.5448  0.3654
 3094TIP3    H130841   1.514   1.507   1.639  0.6120 -0.1731  1.8119
 3094TIP3    H230842   1.437   1.386   1.688 -0.4554 -1.1096 -1.8760
 3095TIP3   OH230843   6.390   4.297   6.819  0.3010 -0.1138 -0.3643
 3095TIP3    H130844   6.380   4.324   6.727  2.5852 -0.3793 -0.7373
 3095TIP3    H230845   6.301   4.274   6.846 -0.5101  0.3994 -2.3684
 3096TIP3   OH230846   4.755   5.746   0.599  0.5263 -0.0849 -0.2661
 3096TIP3    H130847   4.746   5.763   0.505 -2.0759  0.4445  0.0144
 3096TIP3    H230848   4.758   5.833   0.639 -1.0378 -0.2684  0.3063
 3097TIP3   OH230849   5.516   4.824   1.429  0.7299 -0.2341  0.5416
 3097TIP3    H130850   5.430   4.836   1.471  0.8018  0.2716  0.5510
 3097TIP3    H230851   5.538   4.911   1.396  1.7395 -0.1083  1.5045
 3098TIP3   OH230852   1.072   6.188   2.941  0.1275  0.1855 -0.4606
 3098TIP3    H130853   1.082   6.110   2.997  1.5113  0.1900 -0.6720
 3098TIP3    H230854   0.992   6.170   2.891 -0.7308 -0.1578  0.9505
 3099TIP3   OH230855   2.432   2.146   0.772  0.0411 -0.3368  0.2393
 3099TIP3    H130856   2.415   2.212   0.839  0.5031  1.1309 -1.0349
 3099TIP3    H230857   2.373   2.073   0.795 -0.6239  0.5685  1.5689
 3100TIP3   OH230858   0.531   6.656   1.826 -0.2510  0.1291 -0.0801
 3100TIP3    H130859   0.436   6.661   1.833 -0.1278  1.5460  1.2198
 3100TIP3    H230860   0.563   6.674   1.915  1.2187 -2.1896 -0.0387
 3101TIP3   OH230861   3.370   2.740   0.974 -0.7483  0.4490  0.0462
 3101TIP3    H130862   3.340   2.655   0.941  0.5326 -0.2955  0.7470
 3101TIP3    H230863   3.404   2.721   1.062  0.6913  1.4668 -0.2657
 3102TIP3   OH230864   5.472   6.350   0.815 -0.2334 -0.0909  0.0243
 3102TIP3    H130865   5.448   6.391   0.732  1.2051 -0.7896 -0.7855
 3102TIP3    H230866   5.403   6.285   0.830 -0.7541  0.3542 -0.3812
 3103TIP3   OH230867   0.443   1.641   8.367  0.0219  0.0607  0.1185
 3103TIP3    H130868   0.468   1.730   8.343 -0.7730  0.8532  1.9884
 3103TIP3    H230869   0.356   1.629   8.328 -0.0555  0.2770  0.2219
 3104TIP3   OH230870   4.106   3.927   0.474  0.2321  0.8876 -0.8067
 3104TIP3    H130871   4.045   3.983   0.522  1.3046  0.4265  1.2172
 3104TIP3    H230872   4.051   3.871   0.420 -1.1636  0.4498  0.9956
 3105TIP3   OH230873   4.021   2.279   7.658 -0.2951 -0.1494  0.0378
 3105TIP3    H130874   3.926   2.281   7.662 -0.3474  1.6802 -1.0630
 3105TIP3    H230875   4.042   2.200   7.609 -1.3203  0.1330 -0.8888
 3106TIP3   OH230876   2.853   4.974   0.877 -0.2400  0.2752 -0.2554
 3106TIP3    H130877   2.790   4.903   0.892  0.7265 -0.7216 -0.7597
 3106TIP3    H230878   2.854   4.985   0.782 -0.4830  1.0878 -0.1758
 3107TIP3   OH230879   2.212   1.494   0.757 -0.1559 -0.0374  0.4089
 3107TIP3    H130880   2.304   1.470   0.765  0.0999  0.9002  0.4449
 3107TIP3    H230881   2.177   1.488   0.846 -0.2107 -0.6996  0.3435
 3108TIP3   OH230882   5.088   4.006   7.642  0.1213  0.5798 -0.2003
 3108TIP3    H130883   5.161   3.951   7.610 -1.2041 -2.5462  1.6240
 3108TIP3    H230884   5.070   3.972   7.730 -1.6647  3.2505  0.5798
 3109TIP3   OH230885   0.561   6.526   1.014 -0.8742  0.4574 -0.3637
 3109TIP3    H130886   0.542   6.570   1.096 -0.8032 -1.9114  1.0080
 3109TIP3    H230887   0.542   6.433   1.031 -1.8008 -0.0000 -3.3188
 3110TIP3   OH230888   6.533   6.253   8.139  0.0670  0.0895  0.2005
 3110TIP3    H130889   6.575   6.287   8.218  1.7477 -0.8455 -0.2571
 3110TIP3    H230890   6.595   6.190   8.103 -0.9012  0.0850 -1.5894
 3111TIP3   OH230891   1.914   6.366   7.731 -0.0595  0.0990  0.5590
 3111TIP3    H130892   1.901   6.371   7.637  2.5818 -0.9815  0.0390
 3111TIP3    H230893   1.988   6.425   7.748 -0.3589  0.1264  1.9391
 3112TIP3   OH230894   4.081   5.803   8.271  0.3472 -0.3597 -0.0106
 3112TIP3    H130895   4.122   5.882   8.305 -2.3878  1.3639 -0.4484
 3112TIP3    H230896   4.087   5.811   8.176 -1.4681  0.3009 -0.1190
 3113TIP3   OH230897   5.341   6.770   0.377 -0.0654 -0.1720  0.2539
 3113TIP3    H130898   5.327   6.705   0.446  0.7774 -0.8762 -0.2172
 3113TIP3    H230899   5.253   6.793   0.348 -0.4944  0.8713  2.1920
 3114TIP3   OH230900   2.264   2.092   1.480  0.3630  0.6721 -0.5524
 3114TIP3    H130901   2.311   2.013   1.506  1.2072  1.4949  0.4972
 3114TIP3    H230902   2.174   2.062   1.465  0.5025 -0.3741  0.5163
 3115TIP3   OH230903   0.074   3.673   8.159 -0.9116  0.4140 -0.2043
 3115TIP3    H130904   0.039   3.623   8.232 -0.2208 -1.0501 -0.8431
 3115TIP3    H230905   0.159   3.633   8.141 -0.2799  1.8814 -0.6865
 3116TIP3   OH230906   4.719   2.803   6.957 -0.1769  0.5232 -0.2789
 3116TIP3    H130907   4.655   2.843   6.899  1.6016  1.0068 -2.0198
 3116TIP3    H230908   4.707   2.708   6.945 -0.8486  0.5994 -0.2304
 3117TIP3   OH230909   1.217   4.522   0.849  0.1940  0.8132 -0.0250
 3117TIP3    H130910   1.123   4.532   0.834  0.3464  1.7832 -0.4341
 3117TIP3    H230911   1.226   4.435   0.887 -1.0831  1.3965  1.7915
 3118TIP3   OH230912   5.723   6.707   7.953  0.8709 -0.3041 -0.2527
 3118TIP3    H130913   5.666   6.784   7.958  0.4740 -0.5353 -1.0401
 3118TIP3    H230914   5.683   6.643   8.011  1.5746  0.3007  0.9434
 3119TIP3   OH230915   2.752   1.649   8.260 -0.2052 -0.4525 -0.1470
 3119TIP3    H130916   2.827   1.709   8.253 -0.5138 -0.0120  0.2553
 3119TIP3    H230917   2.741   1.615   8.171 -0.3352  0.4776 -0.5072
 3120TIP3   OH230918   0.177   6.665   2.339  0.0824 -0.2619 -0.0691
 3120TIP3    H130919   0.170   6.689   2.246 -0.3225 -1.1620 -0.2789
 3120TIP3    H230920   0.206   6.574   2.339 -2.5970 -1.2231  0.5859
 3121TIP3   OH230921   3.852   6.120   0.867  0.5027  0.0235 -0.4509
 3121TIP3    H130922   3.782   6.183   0.850  1.9159  1.9077  0.2815
 3121TIP3    H230923   3.808   6.047   0.911 -0.8763  1.6284  1.0267
 3122TIP3   OH230924   2.604   1.674   6.203 -0.5609 -0.3707 -0.3748
 3122TIP3    H130925   2.548   1.633   6.138 -0.2915 -0.0271 -0.8268
 3122TIP3    H230926   2.684   1.621   6.204 -0.0429  0.3738 -1.2613
 3123TIP3   OH230927   0.028   5.311   8.641  0.0822  0.0252 -0.5577
 3123TIP3    H130928   0.116   5.346   8.626  0.2607 -0.2591 -0.1658
 3123TIP3    H230929  -0.001   5.352   8.723  0.0083 -0.1975 -0.4732
 3124TIP3   OH230930   3.503   2.107   1.714  0.3057  0.2197  0.3758
 3124TIP3    H130931   3.589   2.149   1.710  0.2688  0.2195 -1.2946
 3124TIP3    H230932   3.512   2.029   1.659 -0.3419 -0.6055  1.4180
 3125TIP3   OH230933   4.255   4.785   6.759  0.0862 -0.1957 -0.4190
 3125TIP3    H130934   4.217   4.734   6.687 -2.4941  0.9679 -0.0151
 3125TIP3    H230935   4.243   4.729   6.836  3.4281 -1.7190 -0.8277
 3126TIP3   OH230936   5.618   5.944   2.533  0.2583 -0.0392  0.1396
 3126TIP3    H130937   5.580   6.031   2.538  3.0319  1.2161  1.2607
 3126TIP3    H230938   5.587   5.899   2.611 -1.5874 -0.3169 -0.6938
 3127TIP3   OH230939   2.381   2.632   6.400  0.3511  0.2581 -0.0226
 3127TIP3    H130940   2.409   2.695   6.466  0.2397  1.6893 -1.2909
 3127TIP3    H230941   2.459   2.616   6.347  0.1730 -0.0608 -0.1930
 3128TIP3   OH230942   1.622   5.154   1.844  0.3999 -0.4199  0.1611
 3128TIP3    H130943   1.642   5.165   1.937  0.5635 -0.3599  0.1187
 3128TIP3    H230944   1.604   5.243   1.813  3.0463 -0.0190 -0.4956
 3129TIP3   OH230945   4.373   2.797   6.860  0.5273  0.2321 -0.1734
 3129TIP3    H130946   4.445   2.853   6.830  1.3275 -0.2029  0.8532
 3129TIP3    H230947   4.416   2.715   6.885 -0.4890 -0.4560 -0.6305
 3130TIP3   OH230948   5.507   1.962   2.819  0.2605 -0.2621  0.4374
 3130TIP3    H130949   5.452   1.893   2.856  0.3231 -1.2660 -1.2419
 3130TIP3    H230950   5.447   2.034   2.800 -0.2228 -0.7704  0.0175
 3131TIP3   OH230951   0.435   0.924   7.596  0.0403 -0.9081 -0.2511
 3131TIP3    H130952   0.406   0.858   7.532 -1.1961  1.0462 -1.8437
 3131TIP3    H230953   0.354   0.956   7.636  0.4848  0.3710 -0.3172
 3132TIP3   OH230954   1.800   2.826   6.642  0.0362 -0.7982  0.2448
 3132TIP3    H130955   1.712   2.790   6.632  0.4933 -1.7887 -0.4322
 3132TIP3    H230956   1.829   2.844   6.552  0.2377  0.2591  0.5084
 3133TIP3   OH230957   6.246   1.773   2.507 -0.5872 -0.0101 -0.5077
 3133TIP3    H130958   6.322   1.830   2.518 -0.2344 -0.5368 -0.1347
 3133TIP3    H230959   6.208   1.766   2.595  0.3325 -1.6412 -0.1844
 3134TIP3   OH230960   4.431   6.495   1.556 -0.1865  0.1314  0.7668
 3134TIP3    H130961   4.402   6.414   1.597 -1.4105  0.1588  0.0081
 3134TIP3    H230962   4.526   6.486   1.549 -0.3984 -1.7689 -0.3912
 3135TIP3   OH230963   1.272   5.868   0.719 -0.6733 -0.5650 -0.1185
 3135TIP3    H130964   1.177   5.873   0.733 -0.8569  1.9733 -1.5665
 3135TIP3    H230965   1.282   5.867   0.623  0.7549 -0.7114  0.0107
 3136TIP3   OH230966   2.973   0.791   1.033 -0.2925  0.1677 -0.1295
 3136TIP3    H130967   3.000   0.735   1.106 -1.8420 -1.3319 -0.6304
 3136TIP3    H230968   2.952   0.729   0.963 -0.4690  1.4920 -1.2929
 3137TIP3   OH230969   1.612   4.594   2.674 -0.3244  0.0297  0.4825
 3137TIP3    H130970   1.580   4.505   2.689  2.6351 -0.8099  2.8600
 3137TIP3    H230971   1.559   4.648   2.732 -1.3279 -0.3562 -0.0556
 3138TIP3   OH230972   4.994   0.057   8.462  0.2422 -0.6303 -0.6217
 3138TIP3    H130973   4.997   0.148   8.492 -0.6843 -0.6119 -0.5432
 3138TIP3    H230974   4.974   0.064   8.368  1.7249 -0.7220 -0.9593
 3139TIP3   OH230975   1.544   4.915   8.317  0.0909  0.6356 -0.2518
 3139TIP3    H130976   1.534   4.830   8.275  1.1110  1.2082 -1.7431
 3139TIP3    H230977   1.505   4.977   8.255  1.8215  1.5196 -0.5370
 3140TIP3   OH230978   1.912   0.421   0.703  0.2477 -0.8043 -0.2310
 3140TIP3    H130979   1.852   0.362   0.658 -0.5752  1.5159 -2.4031
 3140TIP3    H230980   1.952   0.472   0.633 -0.8206  2.7886  1.5312
 3141TIP3   OH230981   5.245   0.242   2.176  0.0613  0.2914 -0.2412
 3141TIP3    H130982   5.185   0.300   2.130 -2.3716 -1.0925  0.9803
 3141TIP3    H230983   5.270   0.291   2.255  0.8431  1.0054 -0.9203
 3142TIP3   OH230984   3.123   5.836   7.774  0.2705  0.2272  0.6397
 3142TIP3    H130985   3.172   5.802   7.848  0.6557 -1.2555 -0.2525
 3142TIP3    H230986   3.186   5.840   7.702 -0.6729 -0.9999 -0.3228
 3143TIP3   OH230987   2.568   6.230   7.972 -0.0386  0.1353 -0.5452
 3143TIP3    H130988   2.545   6.262   7.884 -1.9951 -1.3060 -0.6279
 3143TIP3    H230989   2.543   6.302   8.030  0.6642  0.8499 -1.0979
 3144TIP3   OH230990   0.837   6.176   0.463  0.5729 -0.1754  0.2912
 3144TIP3    H130991   0.845   6.221   0.378 -0.3048 -0.7806 -0.1248
 3144TIP3    H230992   0.748   6.143   0.464  1.3046 -2.2771  0.4015
 3145TIP3   OH230993   4.026   3.950   0.937 -0.1231  0.1352  0.0699
 3145TIP3    H130994   3.964   3.903   0.993  1.3737 -1.0296  0.8365
 3145TIP3    H230995   4.028   4.039   0.973 -0.6067 -0.0853  0.6587
 3146TIP3   OH230996   1.067   1.178   7.218  0.2593  0.4302  0.8731
 3146TIP3    H130997   1.003   1.154   7.285  0.2779  0.2069  0.8106
 3146TIP3    H230998   1.098   1.265   7.244 -0.9432  1.0645  0.2745
 3147TIP3   OH230999   0.607   1.338   1.302  0.5516  0.0644  0.5725
 3147TIP3    H131000   0.532   1.352   1.245  0.4539 -0.2546  0.6190
 3147TIP3    H231001   0.575   1.278   1.369  0.9110 -0.2551  0.4600
 3148TIP3   OH231002   1.996   2.022   1.435 -0.2006  0.0843 -0.2260
 3148TIP3    H131003   1.943   2.098   1.410 -1.9373 -0.2176  2.1966
 3148TIP3    H231004   1.933   1.958   1.467  1.4987 -0.1184  3.2671
 3149TIP3   OH231005   0.383   4.198   0.379 -0.1292 -0.5213  0.1000
 3149TIP3    H131006   0.338   4.267   0.332  0.1083 -0.2230  0.3016
 3149TIP3    H231007   0.468   4.236   0.402  0.1359 -0.9918 -0.0754
 3150TIP3   OH231008   5.838   4.690   2.701 -0.2474 -0.6376  0.3127
 3150TIP3    H131009   5.924   4.699   2.658  0.3734 -0.5378  1.5371
 3150TIP3    H231010   5.784   4.759   2.661  0.1769 -0.8257 -0.6083
 3151TIP3   OH231011   0.509   2.517   8.667  0.1192 -0.0116 -0.0546
 3151TIP3    H131012   0.464   2.560   8.595 -0.8192 -0.7432  0.0756
 3151TIP3    H231013   0.602   2.527   8.647 -0.1213 -0.3382 -1.4502
 3152TIP3   OH231014   1.408   4.388   7.796  0.1013 -0.2300 -0.2347
 3152TIP3    H131015   1.452   4.471   7.815 -0.8404  0.2482 -0.1346
 3152TIP3    H231016   1.321   4.397   7.833 -0.4127 -0.8101 -1.2588
 3153TIP3   OH231017   3.972   0.438   0.461 -0.2362  0.2267  0.0833
 3153TIP3    H131018   4.023   0.386   0.399  1.0056 -1.0881  2.0848
 3153TIP3    H231019   3.883   0.404   0.452 -0.4449  1.1915 -2.0635
 3154TIP3   OH231020   6.255   5.200   7.496 -0.3463 -0.0903  0.3893
 3154TIP3    H131021   6.314   5.126   7.481 -0.2844  0.1578 -0.6401
 3154TIP3    H231022   6.167   5.162   7.487 -0.3369 -0.2650  0.9913
 3155TIP3   OH231023   3.915   0.591   1.843 -0.2648  0.0164  0.2206
 3155TIP3    H131024   3.847   0.524   1.845 -0.0971 -0.1805 -0.6922
 3155TIP3    H231025   3.954   0.584   1.756  1.6808 -0.6275  1.0949
 3156TIP3   OH231026   4.370   3.460   6.975  0.5756 -0.0018  0.1875
 3156TIP3    H131027   4.395   3.371   6.951 -0.0459  0.0636 -0.7773
 3156TIP3    H231028   4.444   3.493   7.026  0.9229 -0.9767  0.3315
 3157TIP3   OH231029   2.243   6.021   1.053 -0.0502  0.3749 -0.0806
 3157TIP3    H131030   2.175   6.044   1.117  1.0347  0.4451  1.0773
 3157TIP3    H231031   2.235   5.926   1.042 -2.0970  0.6726 -2.0611
 3158TIP3   OH231032   5.109   1.595   7.772 -0.1997  0.3563  0.3147
 3158TIP3    H131033   5.083   1.687   7.781  0.0860  0.3259  1.6547
 3158TIP3    H231034   5.205   1.597   7.779 -0.1025  0.0695 -0.8055
 3159TIP3   OH231035   4.657   0.643   1.447  0.0636 -0.4002 -0.2075
 3159TIP3    H131036   4.596   0.636   1.374 -0.1524  1.2105 -0.2248
 3159TIP3    H231037   4.635   0.726   1.489  0.7537 -0.8793  1.1760
 3160TIP3   OH231038   6.088   0.779   7.249 -0.1081  0.0391  0.3369
 3160TIP3    H131039   6.125   0.835   7.180  1.1601  0.2574  1.1724
 3160TIP3    H231040   5.993   0.791   7.240 -0.1876 -1.9165 -3.0216
 3161TIP3   OH231041   4.743   4.043   0.933 -0.0951 -0.0280  0.1193
 3161TIP3    H131042   4.654   4.021   0.960 -0.2079  0.4093  0.1213
 3161TIP3    H231043   4.785   3.959   0.916 -0.7274 -0.2117 -0.5824
 3162TIP3   OH231044   1.190   5.659   7.341  0.5604 -0.2024  0.2639
 3162TIP3    H131045   1.255   5.595   7.312  0.3152 -0.9308  1.2840
 3162TIP3    H231046   1.211   5.739   7.292  2.2086 -0.4299  0.5704
 3163TIP3   OH231047   4.272   2.277   1.243 -0.1431  0.4800  0.3244
 3163TIP3    H131048   4.183   2.246   1.258 -0.5473  1.1499 -0.6171
 3163TIP3    H231049   4.271   2.315   1.156  0.9328  0.9948  0.5095
 3164TIP3   OH231050   3.086   0.725   1.947  0.1263  0.1191 -0.3208
 3164TIP3    H131051   3.168   0.691   1.984 -0.4131 -1.1034 -0.2138
 3164TIP3    H231052   3.107   0.743   1.855  1.0325  1.6810  0.1441
 3165TIP3   OH231053   1.308   2.764   7.823  0.3675 -0.3152 -0.3638
 3165TIP3    H131054   1.354   2.835   7.778  0.6504 -0.0744  0.2936
 3165TIP3    H231055   1.220   2.766   7.785  0.5005  0.0951 -0.6686
 3166TIP3   OH231056   0.102   6.616   7.053  0.3028  0.8004  0.2860
 3166TIP3    H131057   0.017   6.638   7.091  0.7740  0.1948  1.7923
 3166TIP3    H231058   0.082   6.550   6.987 -0.4086  0.7093  0.5818
 3167TIP3   OH231059   2.209   2.537   1.627  0.5783 -0.2426  0.0211
 3167TIP3    H131060   2.289   2.485   1.633  0.6935 -0.4559 -2.3552
 3167TIP3    H231061   2.185   2.555   1.718  1.6931 -2.6637  0.8742
 3168TIP3   OH231062   0.644   0.782   7.716 -0.1554 -0.3186  0.3519
 3168TIP3    H131063   0.571   0.830   7.676  1.6144  2.3926  0.0803
 3168TIP3    H231064   0.607   0.698   7.742 -2.8407  0.1457 -1.6035
 3169TIP3   OH231065   3.829   3.434   7.794  0.2535 -0.3293 -0.3620
 3169TIP3    H131066   3.920   3.458   7.778  1.0140 -1.3728  1.9946
 3169TIP3    H231067   3.824   3.418   7.888 -1.6308 -3.1172 -0.8049
 3170TIP3   OH231068   2.686   4.973   6.608  0.5240 -0.1171 -0.0992
 3170TIP3    H131069   2.776   4.958   6.636  1.0322  2.2684 -0.1958
 3170TIP3    H231070   2.691   5.050   6.552 -1.6283  0.3119  0.2041
 3171TIP3   OH231071   0.568   0.044   1.711 -0.2386 -0.4006  0.0889
 3171TIP3    H131072   0.654   0.050   1.751 -0.0664 -0.9119 -0.1952
 3171TIP3    H231073   0.532  -0.039   1.744 -1.2946  0.5761  1.5013
 3172TIP3   OH231074   4.780   4.524   6.929  0.4269 -0.5053  0.5198
 3172TIP3    H131075   4.687   4.542   6.917  0.4679 -0.6618 -0.0775
 3172TIP3    H231076   4.794   4.529   7.023  0.0032  0.4619  0.5462
 3173TIP3   OH231077   2.014   4.380   1.734  0.3265  0.4827  0.1646
 3173TIP3    H131078   1.956   4.307   1.712  0.2516  0.3618  0.7443
 3173TIP3    H231079   2.076   4.384   1.661  1.0335 -0.9038  0.6550
 3174TIP3   OH231080   1.381   1.729   1.112 -0.0042 -0.1756  0.2309
 3174TIP3    H131081   1.415   1.733   1.202 -1.8187 -0.2389  0.9454
 3174TIP3    H231082   1.381   1.821   1.083 -2.7218  0.3584  1.6307
 3175TIP3   OH231083   3.444   0.602   1.875  0.1897  0.2902  0.2160
 3175TIP3    H131084   3.385   0.572   1.944  0.7945  0.7877  0.9567
 3175TIP3    H231085   3.390   0.600   1.795 -0.1673 -1.4923  0.4514
 3176TIP3   OH231086   6.793   1.134   2.323  0.1266  0.2077 -0.0697
 3176TIP3    H131087   6.704   1.115   2.352 -0.0472  1.9330  0.6249
 3176TIP3    H231088   6.845   1.062   2.359 -1.2208 -2.0934 -2.3645
 3177TIP3   OH231089   4.624   1.577   0.467 -0.2354 -0.9313  0.8549
 3177TIP3    H131090   4.599   1.488   0.444  0.1507 -0.7757 -0.2280
 3177TIP3    H231091   4.543   1.619   0.494 -0.6793 -1.1964 -0.0433
 3178TIP3   OH231092   1.322   6.224   0.179 -0.3390 -0.6472 -0.2073
 3178TIP3    H131093   1.366   6.199   0.260 -0.5926 -1.2957 -0.2663
 3178TIP3    H231094   1.243   6.269   0.208 -1.6086 -2.8531 -0.0307
 3179TIP3   OH231095   6.509   4.532   1.799  0.2936  0.0226  0.1867
 3179TIP3    H131096   6.502   4.523   1.894  0.5795 -1.5026  0.0934
 3179TIP3    H231097   6.582   4.593   1.786 -1.0138  1.8191  0.9384
 3180TIP3   OH231098   5.009   2.969   1.417 -0.1601 -0.8463  0.1051
 3180TIP3    H131099   5.073   2.947   1.350  0.0740  0.1680 -0.0207
 3180TIP3    H231100   4.968   3.049   1.385  0.2780 -0.0809  1.3917
 3181TIP3   OH231101   6.060   0.540   8.276  0.1492 -0.3239 -0.1786
 3181TIP3    H131102   6.003   0.470   8.307 -1.0205  0.6646 -0.0293
 3181TIP3    H231103   6.119   0.558   8.349  0.2357 -0.9192 -0.1003
 3182TIP3   OH231104   6.593   0.871   0.637 -0.1648  0.1374 -0.3203
 3182TIP3    H131105   6.594   0.966   0.625  1.8400  0.5955  2.4528
 3182TIP3    H231106   6.684   0.844   0.628 -0.4691 -1.2681  0.3993
 3183TIP3   OH231107   5.282   5.038   1.410  0.2444 -0.1653 -0.1953
 3183TIP3    H131108   5.337   5.095   1.464  3.3489 -0.9611 -2.2927
 3183TIP3    H231109   5.218   5.097   1.371  1.7830  1.4661 -0.3580
 3184TIP3   OH231110   0.054   1.406   7.758 -0.1612 -0.6138  0.0494
 3184TIP3    H131111  -0.019   1.356   7.722  0.5038 -0.4348 -1.6265
 3184TIP3    H231112   0.040   1.495   7.727  1.7573 -0.9312 -2.0402
 3185TIP3   OH231113   4.929   5.345   2.397 -0.1489 -0.0404 -0.2655
 3185TIP3    H131114   5.006   5.402   2.396 -0.4189  0.3440 -1.5802
 3185TIP3    H231115   4.856   5.404   2.378 -0.5536 -0.6639 -0.6926
 3186TIP3   OH231116   0.832   6.437   1.434 -0.2143  0.1171 -0.7087
 3186TIP3    H131117   0.890   6.482   1.372 -0.4841 -0.1244 -1.1391
 3186TIP3    H231118   0.776   6.381   1.379 -0.3368 -0.2333 -0.2351
 3187TIP3   OH231119   0.271   3.963   1.262 -0.0539 -0.3134  0.5864
 3187TIP3    H131120   0.219   3.914   1.198  1.0633 -0.5429 -0.1656
 3187TIP3    H231121   0.298   3.898   1.326  0.9587 -0.5970 -0.1080
 3188TIP3   OH231122   4.904   5.040   8.337 -0.3358  1.1076  0.0642
 3188TIP3    H131123   4.954   4.962   8.311 -1.3280  0.3901  0.2793
 3188TIP3    H231124   4.955   5.077   8.409  1.5948  2.2155 -1.7400
 3189TIP3   OH231125   1.105   2.172   1.982 -0.4968 -0.2779 -0.2918
 3189TIP3    H131126   1.047   2.225   1.928 -1.0572 -1.0160 -0.4204
 3189TIP3    H231127   1.050   2.139   2.053 -0.0370 -0.2804  0.0751
 3190TIP3   OH231128   5.506   4.477   8.644 -0.2300  0.7112 -0.0161
 3190TIP3    H131129   5.480   4.527   8.721  0.2366  0.9127  0.0156
 3190TIP3    H231130   5.524   4.544   8.577 -0.1119  0.5612 -0.1334
 3191TIP3   OH231131   5.269   6.533   7.943  0.1590 -0.3077 -0.1376
 3191TIP3    H131132   5.232   6.555   7.858 -0.4455  2.4110  0.7279
 3191TIP3    H231133   5.357   6.571   7.942  0.5431 -1.1531  0.1216
 3192TIP3   OH231134   0.910   1.793   8.387  0.2041 -0.0266 -0.2708
 3192TIP3    H131135   0.951   1.712   8.356 -0.1773 -0.6732  0.8779
 3192TIP3    H231136   0.954   1.812   8.470  0.0109  0.7307 -0.3396
 3193TIP3   OH231137   2.001   0.758   0.319  0.1856 -0.3075  0.1342
 3193TIP3    H131138   2.000   0.763   0.224 -1.0024  0.1490  0.1595
 3193TIP3    H231139   1.916   0.793   0.346  1.2554  1.4740  1.4383
 3194TIP3   OH231140   4.554   5.207   8.351 -0.1622  0.1940  0.8544
 3194TIP3    H131141   4.625   5.267   8.331 -0.2941  0.3697  0.9116
 3194TIP3    H231142   4.520   5.236   8.435 -0.6532  0.4463  0.5739
 3195TIP3   OH231143   3.619   1.727   6.454 -0.2560 -0.2311  0.4678
 3195TIP3    H131144   3.680   1.782   6.405 -0.3750 -0.7960 -0.3383
 3195TIP3    H231145   3.664   1.709   6.537 -0.7156  2.0575  1.2940
 3196TIP3   OH231146   1.364   0.701   1.790  0.2799  0.0149  0.5386
 3196TIP3    H131147   1.428   0.737   1.729 -0.6710 -1.2015 -1.2763
 3196TIP3    H231148   1.409   0.698   1.874  1.2283  2.9513  0.2508
 3197TIP3   OH231149   2.387   5.985   0.274  0.4488 -0.0971 -0.7689
 3197TIP3    H131150   2.463   5.992   0.332 -0.1968  1.3469 -0.0521
 3197TIP3    H231151   2.423   5.952   0.192  2.0748  1.6680 -0.8239
 3198TIP3   OH231152   4.997   2.943   7.188  0.1267 -0.4865 -0.0237
 3198TIP3    H131153   5.009   2.966   7.097  0.9060 -0.6683  0.0317
 3198TIP3    H231154   4.994   2.847   7.189  0.0758 -0.4852  0.1365
 3199TIP3   OH231155   1.632   0.297   7.733  0.2350  0.7134 -0.5615
 3199TIP3    H131156   1.715   0.275   7.692  0.6002  1.6675 -0.3681
 3199TIP3    H231157   1.636   0.258   7.820  0.7453  1.2720 -0.3291
 3200TIP3   OH231158   2.934   1.839   8.161 -0.2409  0.4431 -0.1902
 3200TIP3    H131159   2.946   1.783   8.085  0.3679 -0.5475  0.6128
 3200TIP3    H231160   3.009   1.899   8.159  0.2065 -0.0982  0.0518
 3201TIP3   OH231161   4.138   4.890   1.237  0.1359 -0.3130  0.3798
 3201TIP3    H131162   4.055   4.850   1.262 -0.7477  0.9356 -0.4573
 3201TIP3    H231163   4.125   4.984   1.250  0.8233  0.0629 -1.3625
 3202TIP3   OH231164   3.913   4.239   7.926  1.0179 -0.2805 -0.4808
 3202TIP3    H131165   3.980   4.249   7.994 -0.8838 -0.9720  1.6266
 3202TIP3    H231166   3.830   4.256   7.972 -0.4355 -1.7595 -2.4038
 3203TIP3   OH231167   0.439   1.226   1.487 -0.0478  0.7844 -0.2660
 3203TIP3    H131168   0.367   1.267   1.536 -0.3225  0.6980 -0.5948
 3203TIP3    H231169   0.477   1.164   1.549 -0.1266  0.9776 -0.0215
 3204TIP3   OH231170   0.935   1.054   6.896  0.1672  0.4388  0.2863
 3204TIP3    H131171   0.901   1.110   6.826  1.8581  2.0550  0.6693
 3204TIP3    H231172   0.914   0.965   6.867 -1.6896  1.1814 -0.8559
 3205TIP3   OH231173   4.523   3.193   0.337  0.9216 -0.4499 -0.0969
 3205TIP3    H131174   4.569   3.226   0.260 -0.3278  1.1179 -0.2072
 3205TIP3    H231175   4.466   3.124   0.303 -1.4575  1.8665 -1.0880
 3206TIP3   OH231176   0.465   1.169   0.017 -0.4313  0.6900 -0.2264
 3206TIP3    H131177   0.499   1.138   0.101 -1.2059 -0.8829 -0.4506
 3206TIP3    H231178   0.521   1.243  -0.006  0.6450  0.3064  1.0271
 3207TIP3   OH231179   5.258   3.415   8.159 -0.0116 -0.2185 -0.4963
 3207TIP3    H131180   5.336   3.410   8.214 -1.6750  2.7396  2.4876
 3207TIP3    H231181   5.286   3.461   8.080  1.4610 -0.3089 -0.0453
 3208TIP3   OH231182   5.164   0.841   7.099 -0.5275  0.1954 -0.2564
 3208TIP3    H131183   5.113   0.841   7.180  1.0576 -1.8813  0.8473
 3208TIP3    H231184   5.129   0.914   7.048 -1.0191  2.1389  2.6443
 3209TIP3   OH231185   5.905   0.623   2.395  0.1162  0.2120  0.3789
 3209TIP3    H131186   5.961   0.588   2.464  0.2994  0.3662  0.3098
 3209TIP3    H231187   5.961   0.686   2.349 -0.6673  1.7512  1.4612
 3210TIP3   OH231188   4.756   5.970   1.230  0.1523 -0.1583  0.5057
 3210TIP3    H131189   4.773   5.966   1.324  0.3619 -1.6741  0.4136
 3210TIP3    H231190   4.796   6.052   1.202  0.7109 -0.0412  1.6070
 3211TIP3   OH231191   2.937   5.970   0.631  0.4630  0.1742 -0.0292
 3211TIP3    H131192   3.020   6.007   0.660 -0.4953  0.6881  2.2599
 3211TIP3    H231193   2.871   6.014   0.685 -1.2757 -0.5262 -1.4835
 3212TIP3   OH231194   0.335   6.599   0.529 -0.5614  0.0781 -0.0001
 3212TIP3    H131195   0.410   6.547   0.555 -1.6371 -0.7231  1.6536
 3212TIP3    H231196   0.352   6.621   0.437  1.9144  0.4064  0.4635
 3213TIP3   OH231197   1.574   2.215   0.125  0.7580  0.5897 -0.2943
 3213TIP3    H131198   1.607   2.127   0.147  0.5479 -0.0260 -2.2266
 3213TIP3    H231199   1.640   2.274   0.160  2.0805 -0.4701 -0.8696
 3214TIP3   OH231200   1.316   2.892   8.176  0.5079  0.1266 -0.3749
 3214TIP3    H131201   1.387   2.938   8.220 -0.2388  1.9477 -0.9630
 3214TIP3    H231202   1.300   2.943   8.096 -2.4636  0.7510  0.4696
 3215TIP3   OH231203   0.104   1.731   7.969 -0.3377 -0.4617 -0.2800
 3215TIP3    H131204   0.023   1.775   7.944  0.0319  0.3147 -0.1272
 3215TIP3    H231205   0.082   1.638   7.965 -1.1502 -0.2708 -0.5301
 3216TIP3   OH231206   1.631   0.390   8.262  0.1084  0.2308  0.3133
 3216TIP3    H131207   1.617   0.478   8.228 -1.4666 -0.3750 -0.6992
 3216TIP3    H231208   1.678   0.344   8.192  1.8100  0.4970  1.2263
 3217TIP3   OH231209   3.554   2.148   0.997  0.1329 -0.1085 -0.0018
 3217TIP3    H131210   3.459   2.141   1.008 -0.3169 -0.1972 -2.9151
 3217TIP3    H231211   3.574   2.239   1.016 -0.4254 -0.2020  1.1296
 3218TIP3   OH231212   6.435   3.034   7.602  0.0855 -0.5820 -0.1067
 3218TIP3    H131213   6.509   2.976   7.620 -0.1069 -1.1799 -1.1710
 3218TIP3    H231214   6.462   3.086   7.527 -0.1227  0.0306  0.2399
 3219TIP3   OH231215   2.798   0.265   0.348 -0.5356  0.0232  0.2963
 3219TIP3    H131216   2.762   0.324   0.283  0.3940  0.9003  0.5546
 3219TIP3    H231217   2.891   0.258   0.325 -0.5255 -0.9263  0.5794
 3220TIP3   OH231218   3.293   6.803   2.242 -0.0967 -0.3127  0.1043
 3220TIP3    H131219   3.227   6.782   2.308  1.3493 -0.0872  1.6602
 3220TIP3    H231220   3.300   6.723   2.189 -1.5856 -0.3395 -0.0993
 3221TIP3   OH231221   1.496   4.911   7.510 -0.5948  0.7619  0.1280
 3221TIP3    H131222   1.441   4.833   7.506  0.5108 -0.1017  1.1155
 3221TIP3    H231223   1.435   4.983   7.526 -1.6329  0.1106 -0.7819
 3222TIP3   OH231224   2.777   1.203   1.377  0.1880  0.6086  0.0250
 3222TIP3    H131225   2.715   1.253   1.325  2.4501  3.1517 -0.4232
 3222TIP3    H231226   2.829   1.154   1.313  1.0898  1.4868  0.0627
 3223TIP3   OH231227   5.965   3.190   0.778 -0.7947 -0.6281  0.5304
 3223TIP3    H131228   5.981   3.107   0.822 -0.1154 -0.1156  1.2755
 3223TIP3    H231229   5.946   3.166   0.687  0.5596 -1.5236  0.4534
 3224TIP3   OH231230   0.238   2.022   1.554  0.0177  0.2779 -0.4067
 3224TIP3    H131231   0.147   2.049   1.548 -0.1032 -0.0463 -0.1050
 3224TIP3    H231232   0.286   2.102   1.576 -0.3732  0.1983  0.8035
 3225TIP3   OH231233   0.716   6.819   8.353  0.1696  0.3487 -0.4527
 3225TIP3    H131234   0.764   6.891   8.313  2.2907 -1.7497 -1.9752
 3225TIP3    H231235   0.681   6.769   8.279  1.1466 -1.6861  0.3796
 3226TIP3   OH231236   2.817   4.250   7.565 -0.1630 -0.1852  0.0011
 3226TIP3    H131237   2.879   4.318   7.543  0.5610 -0.5107  0.9691
 3226TIP3    H231238   2.774   4.281   7.645  0.4783 -1.0393  0.6962
 3227TIP3   OH231239   5.024   4.280   7.522  0.5017 -0.2201 -0.5359
 3227TIP3    H131240   5.088   4.210   7.509  1.3215  0.4454 -0.1535
 3227TIP3    H231241   5.072   4.361   7.506 -0.9844  0.2708 -3.4075
 3228TIP3   OH231242   0.494   0.800   8.566 -0.6562 -0.1565 -0.2837
 3228TIP3    H131243   0.567   0.846   8.526 -1.6444  0.9860 -0.8140
 3228TIP3    H231244   0.445   0.867   8.613 -1.1616 -0.9714  0.3980
 3229TIP3   OH231245   1.521   1.368   2.128  0.3173  0.0897  0.4111
 3229TIP3    H131246   1.595   1.372   2.189  0.7654  1.1196 -0.1655
 3229TIP3    H231247   1.563   1.366   2.042 -0.3190 -0.4069  0.1141
 3230TIP3   OH231248   0.044   4.988   8.117 -1.1090  0.0242  0.3617
 3230TIP3    H131249   0.026   5.072   8.160 -0.2936 -0.6255  2.0829
 3230TIP3    H231250   0.010   4.923   8.179 -1.3141 -0.9384 -0.7352
 3231TIP3   OH231251   0.655   1.027   8.483  0.1449  0.0999 -0.8150
 3231TIP3    H131252   0.582   1.050   8.541 -1.3606 -2.1025 -1.6878
 3231TIP3    H231253   0.669   1.106   8.431  0.9277  1.8326  1.7999
 3232TIP3   OH231254   6.747   0.984   7.005  0.2491 -0.5088  0.6612
 3232TIP3    H131255   6.798   1.063   6.984 -0.1821 -0.1842  0.8153
 3232TIP3    H231256   6.808   0.912   6.992  0.6638 -0.1440  0.5580
 3233TIP3   OH231257   2.769   1.118   8.584 -0.0745  0.0201  0.5261
 3233TIP3    H131258   2.818   1.188   8.627 -1.1864  0.2420  1.4828
 3233TIP3    H231259   2.733   1.160   8.506 -0.3733  0.4046  0.8637
 3234TIP3   OH231260   5.129   2.785   0.829  0.4054 -0.1437 -0.5714
 3234TIP3    H131261   5.175   2.858   0.787  1.5062 -0.3952  0.1469
 3234TIP3    H231262   5.060   2.826   0.881 -0.0887  0.2568 -1.5227
 3235TIP3   OH231263   5.766   5.029   1.634  0.1475 -0.0747 -0.3449
 3235TIP3    H131264   5.810   5.065   1.711  0.3913  0.0993 -0.5648
 3235TIP3    H231265   5.808   4.944   1.620  2.5364  1.3304 -2.3285
 3236TIP3   OH231266   5.497   1.853   8.432 -0.5113 -0.2237 -0.7206
 3236TIP3    H131267   5.548   1.852   8.513 -1.5352  0.0865 -0.0563
 3236TIP3    H231268   5.534   1.925   8.381  0.3514 -0.6253 -0.6877
 3237TIP3   OH231269   2.672   5.980   1.694  0.2338  0.0381 -0.1355
 3237TIP3    H131270   2.656   5.894   1.734  1.9778 -0.4356 -0.4027
 3237TIP3    H231271   2.726   5.961   1.617  0.9202  1.4082 -0.0110
 3238TIP3   OH231272   1.428   3.475   1.343 -0.1221  0.3539  0.1171
 3238TIP3    H131273   1.520   3.494   1.362  0.2558 -0.8390 -0.4480
 3238TIP3    H231274   1.425   3.381   1.327 -1.4075  0.4103 -0.1332
 3239TIP3   OH231275   0.966   1.425   0.665 -0.0785  0.3188  0.4190
 3239TIP3    H131276   0.891   1.377   0.701 -1.1086  1.1646 -0.5598
 3239TIP3    H231277   1.041   1.368   0.683 -0.8785 -0.3517  1.7871
 3240TIP3   OH231278   1.025   0.429   8.327  0.4586 -0.0226  0.1280
 3240TIP3    H131279   1.021   0.385   8.412  0.5572  0.4839  0.4004
 3240TIP3    H231280   1.110   0.405   8.292  0.4205 -0.2293  0.1757
 3241TIP3   OH231281   3.304   0.080   7.865  0.9514 -0.0815  0.6159
 3241TIP3    H131282   3.219   0.090   7.907  0.3709  0.4635 -0.6133
 3241TIP3    H231283   3.284   0.077   7.771  2.2671 -0.2338  0.3145
 3242TIP3   OH231284   1.645   2.476   8.602 -0.1668  0.2915 -0.2487
 3242TIP3    H131285   1.678   2.528   8.676  0.6190 -2.3309  1.3766
 3242TIP3    H231286   1.560   2.443   8.631 -0.7955  0.8362 -1.3770
 3243TIP3   OH231287   6.086   6.522   8.584 -0.1050  0.3469 -0.1351
 3243TIP3    H131288   6.133   6.598   8.619 -0.6033  0.4566  0.3154
 3243TIP3    H231289   6.108   6.451   8.644  0.5455  0.0735 -0.6894
 3244TIP3   OH231290   4.757   0.994   1.124  0.5699  0.1712 -0.6295
 3244TIP3    H131291   4.815   0.950   1.187 -0.4739 -0.4767 -0.0896
 3244TIP3    H231292   4.703   0.924   1.088 -0.6230  0.8834 -0.2973
 3245TIP3   OH231293   5.660   0.087   7.763  1.1998 -0.3530 -0.1879
 3245TIP3    H131294   5.589   0.045   7.715  1.4237 -1.1138  0.1351
 3245TIP3    H231295   5.628   0.090   7.854  1.5823 -0.7176 -0.0372
 3246TIP3   OH231296   1.614   6.780   6.937 -0.2467 -0.0767 -0.3237
 3246TIP3    H131297   1.618   6.875   6.952  2.6448 -0.2815  0.7421
 3246TIP3    H231298   1.699   6.757   6.900  0.0453 -2.5535  1.6114
 3247TIP3   OH231299   3.237   2.509   0.919 -0.3294 -0.3609  0.1768
 3247TIP3    H131300   3.264   2.431   0.967 -1.8416 -0.8455  0.3028
 3247TIP3    H231301   3.211   2.476   0.833 -0.4644  0.0806  0.0453
 3248TIP3   OH231302   0.640   5.820   1.677  0.3422  0.6418 -0.3054
 3248TIP3    H131303   0.604   5.907   1.659  0.7672  0.9394  0.2613
 3248TIP3    H231304   0.671   5.825   1.768  1.3846  0.2517 -0.6232
 3249TIP3   OH231305   6.738   5.727   2.438  0.2322  0.1309 -0.4712
 3249TIP3    H131306   6.718   5.666   2.367  0.2415 -0.4879  0.0479
 3249TIP3    H231307   6.803   5.786   2.401  1.5531 -1.2465 -0.4629
 3250TIP3   OH231308   5.257   0.903   0.351 -0.3606  0.4796 -0.0238
 3250TIP3    H131309   5.191   0.941   0.409  0.1904  0.2329  0.7810
 3250TIP3    H231310   5.340   0.927   0.391  0.0502  0.7546 -1.0117
 3251TIP3   OH231311   0.758   4.537   1.914  0.1299  0.0955 -0.2088
 3251TIP3    H131312   0.734   4.560   1.824  0.6128 -0.0658 -0.3818
 3251TIP3    H231313   0.736   4.615   1.965  1.1128  0.7115 -0.6797
 3252TIP3   OH231314   6.224   4.658   7.735  0.1807 -0.3330 -0.7002
 3252TIP3    H131315   6.130   4.677   7.735  0.3210  0.4193 -0.2269
 3252TIP3    H231316   6.265   4.741   7.759  0.8692 -1.0692  0.8685
 3253TIP3   OH231317   3.597   1.314   7.189  0.1720  0.1301 -0.1004
 3253TIP3    H131318   3.605   1.368   7.110  0.7449  1.3315  0.7342
 3253TIP3    H231319   3.655   1.240   7.174 -1.0224 -0.5787 -1.4963
 3254TIP3   OH231320   2.754   6.656   6.662 -0.0310 -0.3394 -0.2304
 3254TIP3    H131321   2.788   6.670   6.574  0.0875 -0.1854 -0.1588
 3254TIP3    H231322   2.760   6.561   6.675  0.2727 -0.3226 -0.2550
 3255TIP3   OH231323   2.827   0.443   8.407 -0.2702 -0.3924 -0.0678
 3255TIP3    H131324   2.779   0.522   8.433  0.6733  0.1312  0.1342
 3255TIP3    H231325   2.760   0.387   8.367 -0.7381  1.0719 -1.4822
 3256TIP3   OH231326   2.352   6.575   0.443  0.1391  0.5232 -0.3588
 3256TIP3    H131327   2.329   6.506   0.381 -1.5457 -0.3855  1.2166
 3256TIP3    H231328   2.287   6.643   0.429  0.1055  0.5706  0.0147
 3257TIP3   OH231329   0.153   3.922   2.402 -0.3576 -0.5050 -0.1310
 3257TIP3    H131330   0.150   3.986   2.331  1.0751 -0.0924  0.1553
 3257TIP3    H231331   0.169   3.974   2.481 -2.9618 -0.8298  0.7182
 3258TIP3   OH231332   2.692   2.002   8.147  0.1148 -0.4892  0.0583
 3258TIP3    H131333   2.752   1.928   8.138  1.1630  0.5023 -1.8066
 3258TIP3    H231334   2.745   2.071   8.187 -0.2353 -0.0789 -0.1832
 3259TIP3   OH231335   5.725   5.569   2.338 -0.2328 -0.0063 -0.3149
 3259TIP3    H131336   5.744   5.488   2.290  0.4819  0.3017 -0.5742
 3259TIP3    H231337   5.770   5.558   2.422  0.1603  0.2612 -0.4874
 3260TIP3   OH231338   3.997   4.219   0.186 -1.2519  0.2260  0.2754
 3260TIP3    H131339   4.084   4.184   0.169 -0.7300  1.7748 -0.4045
 3260TIP3    H231340   4.003   4.258   0.274 -0.3108  3.0016 -0.9358
 3261TIP3   OH231341   3.903   5.419   0.676 -0.0183 -0.1422  0.2203
 3261TIP3    H131342   3.815   5.383   0.666 -1.1545  2.0798  1.5258
 3261TIP3    H231343   3.922   5.459   0.591  0.1704 -1.4192 -0.3687
 3262TIP3   OH231344   3.350   2.863   7.756 -0.1598  0.3160 -0.0042
 3262TIP3    H131345   3.314   2.940   7.800  0.7598  0.6278  0.2274
 3262TIP3    H231346   3.274   2.820   7.717 -0.5989  1.9041 -1.0393
 3263TIP3   OH231347   5.557   2.423   7.415  0.1966  0.5432  0.6858
 3263TIP3    H131348   5.641   2.457   7.385  0.1974 -0.0367 -0.0007
 3263TIP3    H231349   5.495   2.445   7.346 -0.1743  0.7606  1.0794
 3264TIP3   OH231350   2.538   6.286   7.442  0.4271  0.1795 -0.1590
 3264TIP3    H131351   2.473   6.355   7.428 -1.3157 -1.2623  0.3589
 3264TIP3    H231352   2.486   6.210   7.467  2.5085 -0.2711  3.5230
 3265TIP3   OH231353   1.166   1.747   7.727 -0.0027  0.2050 -0.1782
 3265TIP3    H131354   1.151   1.782   7.640 -1.2401 -1.9429 -0.9063
 3265TIP3    H231355   1.087   1.696   7.746  0.1383  0.7845  2.3025
 3266TIP3   OH231356   3.791   0.585   1.235  0.2544  0.1977 -0.2172
 3266TIP3    H131357   3.803   0.575   1.330 -1.8071 -4.1996 -0.2053
 3266TIP3    H231358   3.855   0.526   1.196  0.3597  1.1684 -1.6040
 3267TIP3   OH231359   5.374   4.252   0.110  0.0923 -0.3635  0.3197
 3267TIP3    H131360   5.359   4.302   0.029  0.4237 -0.6824  0.0555
 3267TIP3    H231361   5.470   4.251   0.119  0.1203 -1.4823 -0.0231
 3268TIP3   OH231362   4.222   5.441   1.652 -0.8508 -0.7576  0.2958
 3268TIP3    H131363   4.306   5.474   1.620 -0.3272 -1.3415  1.0549
 3268TIP3    H231364   4.194   5.506   1.716 -1.3155 -0.2113 -0.4509
 3269TIP3   OH231365   4.191   3.973   8.150  0.3319  0.1926  0.0025
 3269TIP3    H131366   4.141   3.919   8.090 -2.3441  0.1960  2.0395
 3269TIP3    H231367   4.247   3.912   8.197 -0.5055 -0.4047  0.2433
 3270TIP3   OH231368   5.761   1.053   1.857 -0.0678  0.0096  0.4371
 3270TIP3    H131369   5.835   1.045   1.797 -0.0318 -1.3456  0.6231
 3270TIP3    H231370   5.739   0.962   1.880 -1.4019  0.4160  0.8522
 3271TIP3   OH231371   1.619   4.439   0.534  0.7378 -0.7363 -0.2956
 3271TIP3    H131372   1.705   4.405   0.509  1.3035  0.8897 -0.7026
 3271TIP3    H231373   1.561   4.411   0.463  1.0236 -1.4586 -0.2476
 3272TIP3   OH231374   4.445   4.869   2.088 -0.0143 -0.3179  0.1667
 3272TIP3    H131375   4.504   4.798   2.065  0.3232 -0.7419  2.1365
 3272TIP3    H231376   4.501   4.947   2.090 -0.3151 -0.0087 -1.6403
 3273TIP3   OH231377   4.964   1.387   7.880  0.3456  0.3415  0.6092
 3273TIP3    H131378   4.890   1.424   7.928  0.0580 -0.3223  0.6878
 3273TIP3    H231379   5.008   1.463   7.842 -0.7682  0.7035 -0.0058
 3274TIP3   OH231380   4.399   1.089   1.633 -0.4586  0.4098  0.4935
 3274TIP3    H131381   4.469   1.140   1.672 -0.3018  0.4031  0.2265
 3274TIP3    H231382   4.334   1.153   1.604 -0.0336  0.5013 -0.2910
 3275TIP3   OH231383   3.386   4.997   0.640 -0.3044  0.0663  0.2769
 3275TIP3    H131384   3.294   5.017   0.656 -0.0204  0.5544  1.4534
 3275TIP3    H231385   3.387   4.904   0.617 -0.9168 -0.5091  2.3155
 3276TIP3   OH231386   2.821   4.030   0.439  0.0647 -0.2379  0.1187
 3276TIP3    H131387   2.726   4.037   0.437  0.0663 -0.3845 -1.5285
 3276TIP3    H231388   2.841   4.012   0.531 -1.2735  2.4967  1.0486
 3277TIP3   OH231389   2.030   3.358   1.400 -0.2509 -0.5366  0.0155
 3277TIP3    H131390   2.075   3.372   1.316  3.0621 -0.8406  1.5567
 3277TIP3    H231391   2.067   3.276   1.433 -0.0603  0.4875  2.5575
 3278TIP3   OH231392   1.328   4.825   3.199  0.3866 -0.8534 -0.3634
 3278TIP3    H131393   1.287   4.770   3.132 -0.0293  1.3415 -2.0362
 3278TIP3    H231394   1.420   4.831   3.174  0.5587 -1.2810  0.1623
 3279TIP3   OH231395   0.239   5.977   0.970 -0.5682  0.0038 -0.1717
 3279TIP3    H131396   0.169   6.034   1.003 -0.6756  0.5798 -1.3405
 3279TIP3    H231397   0.207   5.888   0.984 -0.0663  0.1631  2.4205
 3280TIP3   OH231398   5.282   0.914   8.463 -0.5826 -0.5016 -0.0349
 3280TIP3    H131399   5.230   0.983   8.422 -0.0065 -0.5914 -0.9508
 3280TIP3    H231400   5.228   0.835   8.456 -0.1463 -0.7066 -1.4489
 3281TIP3   OH231401   6.670   1.198   1.592 -0.2896 -0.5429 -0.4141
 3281TIP3    H131402   6.757   1.183   1.629 -1.0693 -0.4906  1.5649
 3281TIP3    H231403   6.620   1.120   1.617 -1.1121 -0.0607 -0.5139
 3282TIP3   OH231404   4.179   0.234   2.356 -0.6354  0.7477 -0.2404
 3282TIP3    H131405   4.105   0.240   2.296 -0.1856  1.7175 -0.7293
 3282TIP3    H231406   4.141   0.205   2.439 -1.3941  0.2293 -0.7600
 3283TIP3   OH231407   2.659   2.043   8.587  0.6868 -0.1346 -0.6553
 3283TIP3    H131408   2.644   2.047   8.681  2.0998  0.6661 -0.4368
 3283TIP3    H231409   2.605   1.970   8.557 -1.4149  0.8861  0.4272
 3284TIP3   OH231410   2.849   0.009   7.854 -0.0163  0.0173  0.7197
 3284TIP3    H131411   2.928  -0.045   7.860  0.3417  0.3352 -0.7932
 3284TIP3    H231412   2.867   0.071   7.784 -1.3908  0.4909  0.7458
 3285TIP3   OH231413   2.581   0.973   2.269 -0.1804  0.4184  0.4974
 3285TIP3    H131414   2.515   0.905   2.278 -0.6579  0.4476 -2.0787
 3285TIP3    H231415   2.531   1.054   2.260  0.2993  0.7511  0.7634
 3286TIP3   OH231416   3.907   3.587   1.187 -0.0483 -0.8391 -0.5943
 3286TIP3    H131417   3.863   3.603   1.270  0.0852 -0.1061 -0.6553
 3286TIP3    H231418   3.977   3.652   1.183  2.0742 -2.9137  0.1848
 3287TIP3   OH231419   5.362   1.568   8.045  0.1877 -0.6712  0.1456
 3287TIP3    H131420   5.370   1.477   8.074 -3.1590 -1.1008  0.1101
 3287TIP3    H231421   5.361   1.619   8.126  1.6576 -0.6797  0.1846
 3288TIP3   OH231422   0.451   6.220   2.018 -0.6663 -0.5033 -0.5430
 3288TIP3    H131423   0.382   6.250   1.959 -0.0269 -0.0783 -1.0929
 3288TIP3    H231424   0.519   6.288   2.013  0.0614 -1.2045 -0.5007
 3289TIP3   OH231425   6.686   2.150   1.438 -0.1461  0.2913 -0.5565
 3289TIP3    H131426   6.649   2.114   1.357  1.0969  1.1511 -1.5519
 3289TIP3    H231427   6.723   2.074   1.483 -0.1462 -0.0967 -1.1935
 3290TIP3   OH231428   5.219   0.580   7.945  0.0674 -0.0951  0.1294
 3290TIP3    H131429   5.133   0.558   7.981 -0.5237 -0.5697 -1.4502
 3290TIP3    H231430   5.217   0.674   7.932  0.4225  0.1354  1.5903
 3291TIP3   OH231431   4.463   1.409   7.235  0.4110 -0.3677  0.1409
 3291TIP3    H131432   4.547   1.429   7.277  0.0987  3.8879 -0.8002
 3291TIP3    H231433   4.477   1.431   7.142 -1.6319  0.3152 -0.0599
 3292TIP3   OH231434   0.731   1.037   1.523  0.0739  0.5581 -1.4790
 3292TIP3    H131435   0.795   0.993   1.467 -0.3952  2.0204 -3.2722
 3292TIP3    H231436   0.776   1.116   1.553  0.4962 -0.4370  0.7258
 3293TIP3   OH231437   4.148   3.091   7.246  0.5261  0.0949 -0.2362
 3293TIP3    H131438   4.242   3.104   7.260  0.2749  0.8158  0.9152
 3293TIP3    H231439   4.142   3.057   7.156  1.8872 -0.1213 -0.2732
 3294TIP3   OH231440   0.405   0.471   6.905 -0.1936 -0.4405  0.3341
 3294TIP3    H131441   0.377   0.487   6.995 -1.2265  0.4554 -0.1247
 3294TIP3    H231442   0.355   0.395   6.877 -1.6627  0.6796 -0.2221
 3295TIP3   OH231443   3.823   3.462   0.056 -0.0286 -0.1013 -0.1262
 3295TIP3    H131444   3.802   3.492   0.144 -0.3045 -0.3476 -0.1062
 3295TIP3    H231445   3.919   3.464   0.052 -0.0415  2.5871 -0.7699
 3296TIP3   OH231446   5.806   1.341   2.354  0.2617  0.3456  0.0080
 3296TIP3    H131447   5.793   1.283   2.429  0.2406  0.9833  0.5135
 3296TIP3    H231448   5.842   1.285   2.286  0.6641 -0.1615  0.6248
 3297TIP3   OH231449   2.813   5.122   1.805  0.1727  0.4346 -0.5440
 3297TIP3    H131450   2.730   5.125   1.851  0.9458 -0.4771  0.9994
 3297TIP3    H231451   2.810   5.195   1.744 -0.9061  1.7273  0.9896
 3298TIP3   OH231452   4.519   4.145   1.903  0.3125  0.1659 -0.0730
 3298TIP3    H131453   4.425   4.161   1.910  0.7480  2.9561  0.8480
 3298TIP3    H231454   4.547   4.125   1.993  0.7382  0.5036 -0.1217
 3299TIP3   OH231455   1.402   0.256   7.179  0.2973  0.0234  0.0408
 3299TIP3    H131456   1.414   0.171   7.220 -3.3053 -1.1728 -1.0388
 3299TIP3    H231457   1.418   0.241   7.086  1.9641  1.1589  0.1000
 3300TIP3   OH231458   1.006   5.444   0.483  0.7873  0.1363 -1.0677
 3300TIP3    H131459   1.058   5.459   0.404  0.9112  1.8518 -0.6983
 3300TIP3    H231460   1.023   5.521   0.538  0.4953 -0.8797  0.5292
 3301TIP3   OH231461   5.671   5.391   1.449  0.8699  0.2480 -0.3828
 3301TIP3    H131462   5.705   5.389   1.538  0.1398  0.3376 -0.0938
 3301TIP3    H231463   5.736   5.342   1.397  0.2726 -1.6338  0.5623
 3302TIP3   OH231464   4.141   1.002   7.186 -0.2419 -0.2713  0.4214
 3302TIP3    H131465   4.073   1.006   7.252  1.1091  1.7998  1.8199
 3302TIP3    H231466   4.096   1.020   7.104 -1.3985  1.1034  1.3105
 3303TIP3   OH231467   4.872   1.025   8.495  0.0431 -0.0555  0.4108
 3303TIP3    H131468   4.888   0.956   8.431  0.7319  0.5917 -0.1300
 3303TIP3    H231469   4.937   1.093   8.474 -2.4894  2.1114 -1.0353
 3304TIP3   OH231470   6.637   1.397   8.166 -0.4601  0.4179  0.6224
 3304TIP3    H131471   6.562   1.432   8.213  0.3509 -0.4262  2.6717
 3304TIP3    H231472   6.647   1.308   8.199  0.2030 -0.2076 -1.1544
 3305TIP3   OH231473   1.979   1.225   2.329  0.4338  0.2826  0.7964
 3305TIP3    H131474   2.011   1.172   2.403 -0.9402 -0.1644  1.0966
 3305TIP3    H231475   2.056   1.236   2.273  0.8547 -1.7222  0.9113
 3306TIP3   OH231476   6.555   0.952   1.718 -0.0605 -0.0754 -0.6427
 3306TIP3    H131477   6.513   0.879   1.763  0.5136  0.4959  0.9026
 3306TIP3    H231478   6.534   1.028   1.772  2.7633  0.2669  0.1185
 3307TIP3   OH231479   3.292   5.748   0.839  0.0011  0.1009  0.1601
 3307TIP3    H131480   3.327   5.780   0.756  1.6973  0.7777  1.1016
 3307TIP3    H231481   3.206   5.712   0.816 -0.0883  1.3498 -1.6780
 3308TIP3   OH231482   6.445   2.893   2.583 -0.3558 -0.5614  0.5735
 3308TIP3    H131483   6.469   2.810   2.543 -0.9448 -0.6077  0.2988
 3308TIP3    H231484   6.500   2.958   2.539 -1.9318 -0.4210 -1.3464
 3309TIP3   OH231485   6.301   5.789   0.856 -0.4584  0.1711  0.8071
 3309TIP3    H131486   6.385   5.813   0.817  0.0702 -0.9238  1.2105
 3309TIP3    H231487   6.289   5.697   0.832 -1.7060  0.3964  0.4871
 3310TIP3   OH231488   3.621   0.522   8.313  0.3979  1.0256 -0.5925
 3310TIP3    H131489   3.695   0.464   8.295 -1.4101 -1.2158 -1.2646
 3310TIP3    H231490   3.569   0.476   8.379  0.5108  3.4513  1.3752
 3311TIP3   OH231491   2.353   4.451   6.885 -0.4953  0.1321 -0.2384
 3311TIP3    H131492   2.416   4.395   6.840  0.0819  0.7986 -0.2725
 3311TIP3    H231493   2.305   4.495   6.815 -0.6567  0.0012 -0.2100
 3312TIP3   OH231494   6.756   3.676   7.102 -0.3531 -0.3894  0.2582
 3312TIP3    H131495   6.735   3.646   7.191 -0.6790  1.6537  0.9184
 3312TIP3    H231496   6.671   3.681   7.058 -0.1080 -2.3675 -0.5587
 3313TIP3   OH231497   4.530   5.467   1.189  0.2384 -0.7225  0.7457
 3313TIP3    H131498   4.459   5.488   1.129 -0.0350 -1.8947  0.6401
 3313TIP3    H231499   4.604   5.447   1.133 -0.0187 -1.8224  0.7763
 3314TIP3   OH231500   5.189   5.614   8.384 -0.2356 -0.2035 -1.0308
 3314TIP3    H131501   5.239   5.624   8.465  0.7928  4.2250 -1.9805
 3314TIP3    H231502   5.253   5.588   8.319 -0.1731  0.4710 -1.2445
 3315TIP3   OH231503   6.135   4.354   8.595 -0.2726  0.5004  0.3732
 3315TIP3    H131504   6.212   4.395   8.557  1.0678  1.1983  3.5025
 3315TIP3    H231505   6.061   4.389   8.545  1.2940  0.8618 -1.8351
 3316TIP3   OH231506   4.993   1.769   8.650 -0.6788 -0.2215  0.3831
 3316TIP3    H131507   4.938   1.798   8.578 -0.6461 -0.8838  0.0839
 3316TIP3    H231508   5.080   1.800   8.628 -1.0184  1.3776  1.1640
 3317TIP3   OH231509   4.727   1.249   7.442 -0.5236 -0.0776  0.4531
 3317TIP3    H131510   4.792   1.309   7.405 -1.6357  0.2257 -1.0621
 3317TIP3    H231511   4.779   1.188   7.495  0.7960  1.2235  0.7306
 3318TIP3   OH231512   1.160   4.740   7.253  0.1025 -0.7182  0.0422
 3318TIP3    H131513   1.078   4.692   7.266  0.0187 -0.5409  0.1755
 3318TIP3    H231514   1.200   4.699   7.177 -0.7552  0.0627 -0.8506
 3319TIP3   OH231515   0.822   1.887   7.317 -0.3895 -0.5730  0.3729
 3319TIP3    H131516   0.874   1.886   7.237 -0.3139 -1.6703  0.4129
 3319TIP3    H231517   0.757   1.817   7.304 -2.0440  0.9067  0.2148
 3320TIP3   OH231518   4.784   3.461   7.699  0.2251  0.0133 -0.2136
 3320TIP3    H131519   4.878   3.475   7.687  0.3323  0.2510  0.7839
 3320TIP3    H231520   4.746   3.548   7.694 -0.0072 -0.1369 -1.1079
 3321TIP3   OH231521   4.534   0.395   7.286 -0.2276  0.4457  0.6588
 3321TIP3    H131522   4.532   0.490   7.301  0.6885  0.6510 -0.3660
 3321TIP3    H231523   4.532   0.386   7.191  0.5088 -0.5449  0.7271
 3322TIP3   OH231524   6.285   0.155   7.608 -0.2279 -0.1657 -0.3972
 3322TIP3    H131525   6.318   0.245   7.599  1.3634 -0.5566  0.9117
 3322TIP3    H231526   6.274   0.124   7.518  2.4260  0.2460 -0.9388
 3323TIP3   OH231527   3.950   0.188   6.790 -0.0487  0.3363  0.1323
 3323TIP3    H131528   3.881   0.195   6.856  0.8651  0.4183  1.1017
 3323TIP3    H231529   3.903   0.171   6.708 -1.2969  1.5065  0.5615
 3324TIP3   OH231530   1.332   4.999   8.503 -0.4405  0.1552  0.2856
 3324TIP3    H131531   1.417   4.983   8.463  0.1261 -0.9347  1.8576
 3324TIP3    H231532   1.348   5.071   8.564 -0.4637 -0.4894  1.0689
 3325TIP3   OH231533   4.229   2.499   1.504  0.0548  0.0995  0.4036
 3325TIP3    H131534   4.214   2.427   1.443 -0.3433 -1.6623  2.4314
 3325TIP3    H231535   4.141   2.531   1.526  0.1863  0.6424  0.1648
 3326TIP3   OH231536   1.214   1.617   1.865  0.0203  0.1117 -0.0447
 3326TIP3    H131537   1.170   1.561   1.929 -0.3486 -2.1064 -2.1172
 3326TIP3    H231538   1.162   1.697   1.864 -2.7504 -1.5837 -0.8452
 3327TIP3   OH231539   4.887   1.441   0.333 -0.3024 -0.1634 -0.0818
 3327TIP3    H131540   4.814   1.503   0.329  0.2918  0.6609  1.3486
 3327TIP3    H231541   4.882   1.394   0.250 -3.8729 -1.7838  0.8771
 3328TIP3   OH231542   6.828   3.047   8.017  0.0395 -0.1789  0.2487
 3328TIP3    H131543   6.791   3.128   7.981  0.2661 -0.8357 -1.5070
 3328TIP3    H231544   6.919   3.048   7.990 -0.0646 -1.2439 -0.1899
 3329TIP3   OH231545   1.488   6.700   7.240 -0.1497  0.6851 -0.3190
 3329TIP3    H131546   1.422   6.764   7.216 -0.3886  0.1184 -1.2325
 3329TIP3    H231547   1.452   6.654   7.316 -1.0179  0.0843 -1.0749
 3330TIP3   OH231548   0.467   5.664   1.129 -0.5066  0.6806 -0.4806
 3330TIP3    H131549   0.465   5.629   1.040 -0.7120  0.3186 -0.3363
 3330TIP3    H231550   0.551   5.709   1.135 -0.1649  0.0768 -0.6171
 3331TIP3   OH231551   4.845   0.788   7.495 -0.6281  0.0705  0.0447
 3331TIP3    H131552   4.786   0.713   7.498  0.4833 -0.7834  1.4971
 3331TIP3    H231553   4.894   0.777   7.414 -2.0442  0.5132 -0.9190
 3332TIP3   OH231554   1.873   6.627   7.556 -0.1370  0.3190 -0.0771
 3332TIP3    H131555   1.929   6.699   7.587  0.1559 -0.1041  0.3835
 3332TIP3    H231556   1.784   6.658   7.573 -0.0466  0.8838 -0.5667
 3333TIP3   OH231557   5.571   0.917   1.580  0.1163 -0.0518 -0.0306
 3333TIP3    H131558   5.582   0.870   1.498 -0.8300  1.4191 -1.0413
 3333TIP3    H231559   5.559   1.008   1.555 -3.4198  0.0551  1.4417
 3334TIP3   OH231560   2.562   1.530   0.057 -1.0243  0.1739  0.2680
 3334TIP3    H131561   2.535   1.522  -0.034 -0.5432  0.4627  0.0937
 3334TIP3    H231562   2.569   1.624   0.072 -0.3990  0.1167  0.3845
 3335TIP3   OH231563   1.752   4.926   7.399 -0.3335  0.0315 -0.0816
 3335TIP3    H131564   1.657   4.930   7.404 -0.3376  0.1659 -0.2405
 3335TIP3    H231565   1.778   4.872   7.473 -0.5317  0.0129 -0.0252
 3336TIP3   OH231566   6.142   4.567   8.291  0.4555  0.3348  0.0657
 3336TIP3    H131567   6.172   4.598   8.376  0.4017  2.2931 -0.5739
 3336TIP3    H231568   6.052   4.538   8.307  0.9647 -0.8656  0.9637
 3337TIP3   OH231569   5.441   4.554   0.410 -0.5709 -0.1812  0.5949
 3337TIP3    H131570   5.425   4.462   0.429 -0.5254 -0.0400  1.3346
 3337TIP3    H231571   5.385   4.573   0.334 -0.1086 -0.9722  0.0451
 3338TIP3   OH231572   5.052   5.599   1.550  0.0742  0.1478 -0.1803
 3338TIP3    H131573   4.988   5.648   1.601  3.1195  0.9373  3.3367
 3338TIP3    H231574   5.092   5.664   1.492 -0.6411  0.1739 -0.6578
 3339TIP3   OH231575   5.072   1.272   0.013 -0.7759 -0.5911 -0.9319
 3339TIP3    H131576   5.117   1.204   0.064 -0.5875  0.4852  0.3957
 3339TIP3    H231577   5.141   1.334  -0.009 -1.3877  0.5243  0.2001
 3340TIP3   OH231578   2.940   1.200   0.545 -0.0797  0.4493  0.1395
 3340TIP3    H131579   2.985   1.260   0.605  0.7910 -0.4159  0.3607
 3340TIP3    H231580   2.995   1.122   0.543  0.5809  0.8982 -2.7588
 3341TIP3   OH231581   4.039   0.459   6.740 -0.1779  0.1491  0.3101
 3341TIP3    H131582   4.004   0.375   6.770  0.4086 -0.4279 -0.5636
 3341TIP3    H231583   4.132   0.456   6.762  0.5175 -0.7414 -2.3355
 3342TIP3   OH231584   5.841   1.539   7.208  0.5461  0.9697  0.3484
 3342TIP3    H131585   5.813   1.453   7.175  0.6564  0.6123  1.1653
 3342TIP3    H231586   5.867   1.587   7.129  1.0452  0.0503 -0.0737
 3343TIP3   OH231587   0.687   3.388   1.066  0.3355  0.7344 -0.0194
 3343TIP3    H131588   0.623   3.447   1.106  0.2001  0.4966  0.1199
 3343TIP3    H231589   0.635   3.323   1.020  0.4153 -0.3948  1.4227
 3344TIP3   OH231590   1.731   3.134   0.535 -0.0052 -0.1659 -0.0630
 3344TIP3    H131591   1.805   3.079   0.508 -0.0634 -0.4396  0.3364
 3344TIP3    H231592   1.709   3.104   0.623 -2.1105 -1.7142 -1.0406
 3345TIP3   OH231593   3.749   0.599   6.634 -0.3033  0.3832  0.3137
 3345TIP3    H131594   3.829   0.649   6.655  0.3598  0.3170 -1.8043
 3345TIP3    H231595   3.756   0.583   6.540 -1.1698 -2.5657  0.6797
 3346TIP3   OH231596   0.497   1.584   0.637 -0.3111 -0.4417 -0.7199
 3346TIP3    H131597   0.521   1.599   0.545  0.7275  0.5074 -0.3165
 3346TIP3    H231598   0.415   1.534   0.633  0.3075 -1.3988 -2.1649
 3347TIP3   OH231599   1.513   6.617   8.120 -0.2255 -0.4845 -0.1643
 3347TIP3    H131600   1.480   6.532   8.091  0.5405 -2.0171  3.0372
 3347TIP3    H231601   1.603   6.601   8.145 -0.1218  1.2403  0.7417
 3348TIP3   OH231602   2.869   0.232   1.743 -0.1314  0.3406  0.4592
 3348TIP3    H131603   2.900   0.243   1.833  2.3270  0.3611 -0.3032
 3348TIP3    H231604   2.876   0.138   1.727 -1.2533  0.2414  0.4958
 3349TIP3   OH231605   0.570   5.949   7.646  0.0767  0.5497  0.5059
 3349TIP3    H131606   0.552   5.936   7.739  1.8678  0.1438  0.8494
 3349TIP3    H231607   0.484   5.950   7.604 -0.6897 -1.1585  1.9171
 3350TIP3   OH231608   6.797   3.080   7.691 -0.3004  0.4001 -0.1996
 3350TIP3    H131609   6.848   3.015   7.642  0.7643 -0.9671  2.5152
 3350TIP3    H231610   6.859   3.151   7.709  0.1872 -0.3976  1.4774
 3351TIP3   OH231611   1.057   5.863   2.696  0.6478 -0.3019  0.0567
 3351TIP3    H131612   1.007   5.789   2.662 -2.2356  0.9482  1.2952
 3351TIP3    H231613   1.089   5.908   2.618 -0.0400 -1.2220 -0.7762
 3352TIP3   OH231614   6.719   2.525   0.895 -0.5116 -0.1914  0.0901
 3352TIP3    H131615   6.641   2.487   0.854  0.3242 -1.7544 -0.1381
 3352TIP3    H231616   6.690   2.554   0.981 -1.6135  0.3781 -0.4575
 3353TIP3   OH231617   2.110   2.632   1.868  0.0944 -0.1310 -0.6070
 3353TIP3    H131618   2.140   2.665   1.953  0.2066  1.2892 -1.1636
 3353TIP3    H231619   2.023   2.596   1.885  0.7087 -1.2098  0.3823
 3354TIP3   OH231620   6.298   1.933   0.684 -0.3192  0.7341 -0.3090
 3354TIP3    H131621   6.258   2.002   0.632  1.1614 -0.2972 -2.9783
 3354TIP3    H231622   6.223   1.884   0.719 -1.3776  3.0897  0.9814
 3355TIP3   OH231623   1.182   4.946   2.971  0.3701  0.0738 -0.5780
 3355TIP3    H131624   1.137   4.934   3.055  0.8540 -0.7410 -0.4180
 3355TIP3    H231625   1.145   4.877   2.915  3.2808 -2.5308  0.3730
 3356TIP3   OH231626   1.592   6.419   8.555  0.1261  0.5819  0.0659
 3356TIP3    H131627   1.553   6.334   8.578 -3.4309  1.5436 -1.6690
 3356TIP3    H231628   1.682   6.398   8.531 -0.7038 -2.8039 -0.6727
 3357TIP3   OH231629   2.531   6.549   0.158  0.6120 -0.0859  0.0633
 3357TIP3    H131630   2.589   6.608   0.206 -0.2204  0.7753  0.0366
 3357TIP3    H231631   2.507   6.481   0.221  1.6544 -0.4576  0.0674
 3358TIP3   OH231632   2.007   1.412   6.961  0.1341  0.4069 -0.1283
 3358TIP3    H131633   2.042   1.324   6.947 -0.2252  0.2769 -0.2157
 3358TIP3    H231634   1.931   1.417   6.904  0.1903  0.8000 -0.1710
 3359TIP3   OH231635   6.573   6.571   1.074 -0.0505 -0.2595 -0.1446
 3359TIP3    H131636   6.621   6.643   1.115 -2.2185  0.8669  0.6160
 3359TIP3    H231637   6.563   6.598   0.983  0.0853 -0.1118 -0.1157
 3360TIP3   OH231638   0.114   2.069   0.815  0.0166  0.0023  0.0068
 3360TIP3    H131639   0.140   2.089   0.905 -2.3691  3.7868  0.0778
 3360TIP3    H231640   0.166   2.128   0.761  1.2840 -2.0959 -1.1918
 3361TIP3   OH231641   3.893   6.302   1.301 -0.4273 -0.0748  0.2126
 3361TIP3    H131642   3.989   6.307   1.304 -0.4098  1.4188 -1.2526
 3361TIP3    H231643   3.875   6.217   1.260  0.3761  0.5638 -1.5916
 3362TIP3   OH231644   0.131   3.092   3.080 -0.7939  0.8994 -0.2442
 3362TIP3    H131645   0.097   3.010   3.045  0.0659 -0.4508  1.8899
 3362TIP3    H231646   0.226   3.088   3.065 -0.5692  0.8443  1.0460
 3363TIP3   OH231647   4.674   4.641   8.352 -0.7127 -0.0668  0.3001
 3363TIP3    H131648   4.677   4.710   8.419  1.2142  0.4566 -0.2714
 3363TIP3    H231649   4.734   4.574   8.385 -1.6809 -0.9666  0.2769
 3364TIP3   OH231650   2.775   0.817   1.552  0.8488 -0.0357  0.4703
 3364TIP3    H131651   2.738   0.864   1.477  1.7649  2.5809  1.5324
 3364TIP3    H231652   2.792   0.729   1.519 -0.9994  0.3172 -1.6570
 3365TIP3   OH231653   4.398   5.817   7.435  0.0715 -0.2593 -0.0883
 3365TIP3    H131654   4.409   5.912   7.440  0.4069 -0.3496  1.8041
 3365TIP3    H231655   4.347   5.795   7.513  1.1277 -1.7584  0.2302
 3366TIP3   OH231656   0.910   2.175   0.869 -0.4307 -0.9019 -0.2894
 3366TIP3    H131657   0.874   2.231   0.801  2.5040  1.0837 -0.3865
 3366TIP3    H231658   0.929   2.093   0.825 -0.2075 -0.2616 -1.4269
 3367TIP3   OH231659   2.246   0.467   6.769  0.3428  0.5803 -0.2040
 3367TIP3    H131660   2.192   0.394   6.799  2.8975 -1.5725 -0.5364
 3367TIP3    H231661   2.307   0.428   6.706  3.5542  2.3833  1.5262
 3368TIP3   OH231662   5.794   2.288   1.012 -0.3114 -0.2104 -0.3382
 3368TIP3    H131663   5.766   2.303   1.103 -0.4399 -1.5449 -0.1286
 3368TIP3    H231664   5.718   2.312   0.959 -0.4650 -0.0465 -0.0444
 3369TIP3   OH231665   5.694   1.036   7.923  0.1827 -0.3959  0.0119
 3369TIP3    H131666   5.665   1.026   7.833 -0.6878  2.1085 -0.0562
 3369TIP3    H231667   5.700   0.946   7.956  0.5864 -1.3840 -2.5021
 3370TIP3   OH231668   2.823   6.112   1.862 -0.1714  0.0534 -0.0342
 3370TIP3    H131669   2.776   6.064   1.794 -1.1879  1.7714 -0.6117
 3370TIP3    H231670   2.801   6.204   1.846  1.7664  0.7463  0.9571
 3371TIP3   OH231671   0.638   2.167   7.303 -0.1978 -0.2715 -0.9401
 3371TIP3    H131672   0.648   2.175   7.209  0.0537 -2.3179 -1.1307
 3371TIP3    H231673   0.647   2.073   7.321  0.6855  0.1609  1.2239
 3372TIP3   OH231674   5.824   5.818   2.122 -0.1070 -0.5856 -0.1440
 3372TIP3    H131675   5.908   5.818   2.168  0.1982  0.6328 -0.6578
 3372TIP3    H231676   5.815   5.729   2.088  0.7596 -0.8501  0.2937
 3373TIP3   OH231677   6.281   0.657   2.757 -0.4085  0.7060  0.0302
 3373TIP3    H131678   6.221   0.596   2.716  0.0664  0.2321  0.0330
 3373TIP3    H231679   6.367   0.615   2.751 -0.3927  0.3759  1.9486
 3374TIP3   OH231680   4.044   5.232   1.868 -0.0284 -0.3238  0.1816
 3374TIP3    H131681   4.045   5.287   1.947  1.8395  0.2798 -0.2093
 3374TIP3    H231682   4.137   5.218   1.847 -0.4674 -0.4985 -1.8753
 3375TIP3   OH231683   5.787   1.755   2.838 -0.0509  0.6099  0.3052
 3375TIP3    H131684   5.816   1.794   2.920  0.7844  0.3349  0.1523
 3375TIP3    H231685   5.698   1.788   2.826  0.2536  1.6277  0.7048
 3376TIP3   OH231686   0.613   0.223   8.268  0.0221 -0.3434  0.0593
 3376TIP3    H131687   0.558   0.152   8.236  0.1405 -0.9643  1.1600
 3376TIP3    H231688   0.680   0.235   8.201  0.7771 -2.1800  0.4393
 3377TIP3   OH231689   4.453   4.924   7.970  0.5570  0.6138 -0.1509
 3377TIP3    H131690   4.390   4.862   8.007  0.9811 -0.4504 -1.1496
 3377TIP3    H231691   4.515   4.941   8.041  1.0823 -1.0129 -0.1893
 3378TIP3   OH231692   1.907   3.753   8.131 -0.6488  0.0868 -0.1501
 3378TIP3    H131693   1.977   3.694   8.158 -2.9015 -2.6595  0.2301
 3378TIP3    H231694   1.916   3.829   8.187  0.8802 -1.0273  1.1920
 3379TIP3   OH231695   6.521   2.729   1.101 -0.2606  0.0538  0.1955
 3379TIP3    H131696   6.546   2.640   1.124 -2.4183 -1.2152 -1.9607
 3379TIP3    H231697   6.467   2.759   1.174  0.1289 -0.5462  0.7438
 3380TIP3   OH231698   4.056   2.599   2.458  0.2616  0.2400 -0.3678
 3380TIP3    H131699   3.982   2.606   2.398 -0.0788  0.1587  0.0373
 3380TIP3    H231700   4.082   2.507   2.453 -0.0655  0.1258 -0.0452
 3381TIP3   OH231701   1.316   6.048   0.956 -0.0140 -0.3579 -0.6315
 3381TIP3    H131702   1.269   5.989   0.897 -0.2373 -0.8309  0.0005
 3381TIP3    H231703   1.249   6.109   0.987 -0.0226 -0.4681 -0.4294
 3382TIP3   OH231704   1.488   0.002   8.140  0.3692  0.3354  0.1262
 3382TIP3    H131705   1.500  -0.092   8.131 -0.2037  0.2031  0.6521
 3382TIP3    H231706   1.520   0.022   8.228 -1.5778  0.2427  0.9078
 3383TIP3   OH231707   1.078   1.727   0.200  0.4464 -0.1904 -0.1843
 3383TIP3    H131708   1.120   1.771   0.126  0.9448 -0.5930 -0.1458
 3383TIP3    H231709   0.985   1.721   0.175 -0.0618  2.5887  0.6222
 3384TIP3   OH231710   1.493   5.937   0.026 -0.2032  0.7797  0.3571
 3384TIP3    H131711   1.426   5.939   0.095 -1.3214 -0.4782 -0.6084
 3384TIP3    H231712   1.526   5.847   0.028 -0.9727  0.4020 -1.3209
 3385TIP3   OH231713   4.904   6.470   8.087 -0.1994  0.3064 -0.4606
 3385TIP3    H131714   4.964   6.511   8.149 -0.8387 -0.7301  0.9134
 3385TIP3    H231715   4.842   6.539   8.064  0.3786  0.8539 -0.3868
 3386TIP3   OH231716   6.614   6.846   2.597  0.3507 -0.1208  0.0673
 3386TIP3    H131717   6.543   6.853   2.660 -0.4279  0.1444 -0.8208
 3386TIP3    H231718   6.582   6.892   2.519  2.0721  1.3316  0.1480
 3387TIP3   OH231719   5.197   3.299   1.463 -0.3984 -0.0967  0.2247
 3387TIP3    H131720   5.151   3.315   1.380  1.9327  1.4903 -0.8932
 3387TIP3    H231721   5.214   3.386   1.498  2.5874 -0.4896 -0.0008
 3388TIP3   OH231722   2.752   2.811   1.463 -0.6785 -0.5349 -0.0744
 3388TIP3    H131723   2.662   2.842   1.472 -1.1542 -1.7212 -0.5496
 3388TIP3    H231724   2.785   2.805   1.552 -1.5907 -1.5556  0.2029
 3389TIP3   OH231725   0.404   0.197   6.842  0.7664  0.7672 -0.1910
 3389TIP3    H131726   0.321   0.151   6.837 -0.5356  3.0445 -2.1665
 3389TIP3    H231727   0.468   0.136   6.806  0.0371 -1.0632  1.4601
 3390TIP3   OH231728   5.362   2.394   1.319 -0.1417  0.0901  0.6057
 3390TIP3    H131729   5.309   2.357   1.249  0.0779  0.2418  0.3571
 3390TIP3    H231730   5.299   2.431   1.381 -0.3586 -0.5471  0.7752
 3391TIP3   OH231731   4.547   1.110   7.895  0.0475  0.1301  0.1241
 3391TIP3    H131732   4.570   1.203   7.893  0.2995  0.0920  1.0833
 3391TIP3    H231733   4.545   1.087   7.988 -2.3904 -0.2404  0.0516
 3392TIP3   OH231734   6.575   5.931   0.839  0.5175 -0.3571 -0.3664
 3392TIP3    H131735   6.564   5.998   0.772 -2.6743 -1.4281 -1.1183
 3392TIP3    H231736   6.585   5.849   0.790 -1.6045 -1.1267  0.3625
 3393TIP3   OH231737   0.360   2.111   1.851 -0.1103  0.1799 -0.0700
 3393TIP3    H131738   0.289   2.049   1.835 -0.8936  0.9407  0.3334
 3393TIP3    H231739   0.439   2.058   1.851 -0.6957 -0.7221 -0.3346
 3394TIP3   OH231740   6.293   2.106   1.146  0.0151 -0.6693 -0.5879
 3394TIP3    H131741   6.344   2.038   1.101 -0.9414 -0.7682 -1.5533
 3394TIP3    H231742   6.205   2.069   1.153 -0.3261  0.1609 -0.4230
 3395TIP3   OH231743   4.070   3.967   1.361 -0.6258  0.3887 -0.0641
 3395TIP3    H131744   4.101   3.887   1.318  0.3566  0.9950 -0.4972
 3395TIP3    H231745   4.149   4.004   1.401 -0.7820  1.9203 -1.1148
 3396TIP3   OH231746   2.945   2.800   0.377 -0.3981 -0.0557 -0.1717
 3396TIP3    H131747   2.910   2.744   0.307  0.0074  0.6357 -0.9453
 3396TIP3    H231748   2.916   2.888   0.352 -1.0823  0.0880  1.0629
 3397TIP3   OH231749   4.109   0.285   0.636  0.1402  0.0780 -0.1955
 3397TIP3    H131750   4.040   0.332   0.590 -0.2544 -1.2540 -1.0197
 3397TIP3    H231751   4.066   0.249   0.714  0.7520  2.1343  1.1576
 3398TIP3   OH231752   1.689   6.607   6.645 -0.4774  0.6199  0.1301
 3398TIP3    H131753   1.613   6.665   6.644 -0.2735  0.8897  0.1995
 3398TIP3    H231754   1.762   6.663   6.671 -0.0458  0.6265 -1.0348
 3399TIP3   OH231755   6.789   2.135   7.883 -0.0268 -0.5922 -0.4633
 3399TIP3    H131756   6.803   2.058   7.828 -0.1338 -0.7534 -0.2679
 3399TIP3    H231757   6.694   2.142   7.890 -0.0089 -0.8752  0.1147
 3400TIP3   OH231758   3.233   6.570   7.659  0.2885  0.4374  0.2328
 3400TIP3    H131759   3.236   6.502   7.591  2.1257  1.4107 -0.7210
 3400TIP3    H231760   3.307   6.549   7.716 -0.3352  0.5211  1.0994
 3401TIP3   OH231761   4.349   3.149   2.243 -0.0299  0.1056  0.2040
 3401TIP3    H131762   4.421   3.150   2.307  1.5833 -0.4287 -1.5096
 3401TIP3    H231763   4.362   3.067   2.195 -2.2480 -0.3476  0.2859
 3402TIP3   OH231764   0.953   3.039   7.848 -0.1170 -0.3831  0.2992
 3402TIP3    H131765   0.904   2.991   7.915  2.3822 -2.2823  0.9605
 3402TIP3    H231766   0.975   2.972   7.783 -0.8731  1.0364 -1.4811
 3403TIP3   OH231767   5.939   1.911   2.061  0.3000  0.3155 -0.0222
 3403TIP3    H131768   5.988   1.895   2.142 -0.4824  0.3650  0.4740
 3403TIP3    H231769   5.979   1.988   2.023  0.3881  0.5609  0.5618
 3404TIP3   OH231770   1.168   6.735   1.885 -0.0938  0.4532 -0.1530
 3404TIP3    H131771   1.174   6.812   1.941  0.5248 -0.5095  1.1561
 3404TIP3    H231772   1.078   6.736   1.853 -0.0002  1.8851 -0.4321
 3405TIP3   OH231773   4.929   4.500   2.596 -0.6028  0.7058  1.0024
 3405TIP3    H131774   4.956   4.423   2.545  1.8551  1.4861  0.9733
 3405TIP3    H231775   4.979   4.572   2.558 -1.4135  1.9621  2.2452
 3406TIP3   OH231776   3.999   0.272   8.572 -0.4077  0.2387  0.4714
 3406TIP3    H131777   4.018   0.243   8.483  0.0080  0.3097  0.5347
 3406TIP3    H231778   3.960   0.195   8.615 -0.7328  0.2446  0.1936
 3407TIP3   OH231779   2.347   4.856   7.226 -0.1772 -0.7758 -0.1164
 3407TIP3    H131780   2.334   4.939   7.181 -0.1184 -0.9805 -0.5170
 3407TIP3    H231781   2.329   4.789   7.159  0.7394 -1.0759 -0.0720
 3408TIP3   OH231782   0.169   3.253   7.684  1.2637  0.3064  0.2135
 3408TIP3    H131783   0.148   3.298   7.602  0.9077 -1.2293 -0.5682
 3408TIP3    H231784   0.248   3.298   7.716  0.5565  1.8968 -0.1687
 3409TIP3   OH231785   3.455   5.986   1.473  0.1560 -0.1908 -0.0385
 3409TIP3    H131786   3.512   5.921   1.515  0.4810  1.7744  2.8603
 3409TIP3    H231787   3.367   5.963   1.503  0.2488  0.5253  0.8261
 3410TIP3   OH231788   2.426   4.546   0.337 -0.0115  0.3360 -0.1201
 3410TIP3    H131789   2.373   4.504   0.269  1.2566 -0.0690 -0.9057
 3410TIP3    H231790   2.368   4.611   0.377 -2.1147 -2.2388  1.2641
 3411TIP3   OH231791   0.236   5.970   0.681  0.0979 -0.0963  0.2057
 3411TIP3    H131792   0.220   5.955   0.774 -1.0342  0.2867  0.0930
 3411TIP3    H231793   0.187   6.049   0.660 -0.6033 -0.7920 -0.9470
 3412TIP3   OH231794   4.441   2.601   0.109  0.1425  0.6972 -0.4329
 3412TIP3    H131795   4.369   2.622   0.049  0.4608  0.7962 -0.7920
 3412TIP3    H231796   4.519   2.631   0.062  0.2920  1.9168  0.5704
 3413TIP3   OH231797   5.732   3.577   1.248 -0.2304 -0.4667 -0.2508
 3413TIP3    H131798   5.664   3.526   1.204 -0.8779  0.7508 -0.7045
 3413TIP3    H231799   5.783   3.615   1.176  1.2616 -1.7573  0.0818
 3414TIP3   OH231800   3.446   4.987   7.287 -0.6086 -0.1085 -0.4943
 3414TIP3    H131801   3.433   4.939   7.206 -0.2102 -0.2457 -0.4794
 3414TIP3    H231802   3.396   5.068   7.276 -1.1330 -0.4410 -0.5896
 3415TIP3   OH231803   4.581   0.951   0.160  0.1604 -0.5595 -0.2570
 3415TIP3    H131804   4.575   0.887   0.089 -1.2425 -1.4977  0.6417
 3415TIP3    H231805   4.542   0.906   0.235 -0.9017  1.3695  0.4041
 3416TIP3   OH231806   3.987   6.716   7.772 -0.0625 -0.0432  0.7860
 3416TIP3    H131807   3.923   6.661   7.817  0.4495 -0.3738  1.1241
 3416TIP3    H231808   3.962   6.712   7.680  0.2768 -1.2766  0.7329
 3417TIP3   OH231809   0.351   0.726   0.324 -0.2138 -0.2860 -0.8941
 3417TIP3    H131810   0.444   0.750   0.319 -0.1051 -0.0859  1.1376
 3417TIP3    H231811   0.352   0.630   0.326  0.2600 -0.3260  1.9545
 3418TIP3   OH231812   2.457   2.694   1.562 -0.0938 -0.3056 -0.0660
 3418TIP3    H131813   2.493   2.614   1.600  0.2704 -0.1968 -0.1739
 3418TIP3    H231814   2.394   2.726   1.626 -0.4761 -0.8500 -0.1655
 3419TIP3   OH231815   6.367   5.484   7.485  0.1779  0.1100 -0.3200
 3419TIP3    H131816   6.309   5.413   7.459 -2.9997  1.7544  1.6168
 3419TIP3    H231817   6.373   5.540   7.408 -1.5312  0.3027 -0.3516
 3420TIP3   OH231818   5.471   0.379   7.653  0.0066 -0.2162  0.0266
 3420TIP3    H131819   5.516   0.311   7.602  0.2920 -0.5621  0.7311
 3420TIP3    H231820   5.520   0.384   7.735 -0.7359  0.0004  0.4618
 3421TIP3   OH231821   2.038   4.493   2.654 -0.5307  0.4953  0.3275
 3421TIP3    H131822   2.106   4.441   2.611 -1.3619 -1.0787  0.8457
 3421TIP3    H231823   2.013   4.442   2.730 -1.8956  1.3251  0.4649
 3422TIP3   OH231824   1.950   4.204   1.103 -0.3143 -0.1638 -0.0290
 3422TIP3    H131825   1.901   4.166   1.176 -0.4867 -0.0500 -0.0856
 3422TIP3    H231826   1.900   4.182   1.025 -0.1990 -0.1715 -0.1013
 3423TIP3   OH231827   1.689   2.421   0.287 -0.0016  0.2296  0.4673
 3423TIP3    H131828   1.728   2.485   0.348 -0.5380  1.3574 -0.3344
 3423TIP3    H231829   1.744   2.427   0.209 -2.1474  2.4530 -1.0043
 3424TIP3   OH231830   6.783   0.477   7.050 -0.1473 -0.8748 -1.1679
 3424TIP3    H131831   6.814   0.531   6.977  0.1259  2.1975  1.0346
 3424TIP3    H231832   6.703   0.519   7.079  1.6230  0.3800  2.5240
 3425TIP3   OH231833   6.323   4.495   7.546 -0.2273  0.0490  0.2179
 3425TIP3    H131834   6.281   4.557   7.606  0.3648  0.3483  0.3321
 3425TIP3    H231835   6.415   4.522   7.545 -0.6076  1.6965 -2.7705
 3426TIP3   OH231836   6.348   1.791   8.383  0.0257 -0.0892  0.2577
 3426TIP3    H131837   6.379   1.863   8.438 -1.0819  2.3322 -2.0776
 3426TIP3    H231838   6.389   1.807   8.297 -1.3955 -1.3884 -0.7222
 3427TIP3   OH231839   0.665   4.208   1.859  0.1919  0.1162  0.2426
 3427TIP3    H131840   0.622   4.275   1.806  1.0175  0.9153  0.5660
 3427TIP3    H231841   0.640   4.229   1.949  0.5863  0.0823  0.3607
 3428TIP3   OH231842   2.684   0.918   7.152 -0.5883  0.1760 -0.1058
 3428TIP3    H131843   2.754   0.968   7.193 -0.0651 -0.2754 -0.4209
 3428TIP3    H231844   2.658   0.854   7.218 -0.5571  0.2138 -0.0571
 3429TIP3   OH231845   6.043   6.691   0.661 -0.2106 -0.9061  0.1409
 3429TIP3    H131846   6.072   6.666   0.574 -0.2323  1.4089 -0.6048
 3429TIP3    H231847   6.123   6.712   0.708 -0.2604 -1.1620  0.3400
 3430TIP3   OH231848   2.456   1.238   8.658 -0.3879 -0.3699 -0.6641
 3430TIP3    H131849   2.480   1.253   8.567  0.6560  0.4750 -0.2733
 3430TIP3    H231850   2.361   1.228   8.657 -0.4401  0.1531 -1.7780
 3431TIP3   OH231851   2.586   5.255   0.453 -0.1309  0.2396  0.6310
 3431TIP3    H131852   2.627   5.168   0.447 -0.2496  0.2117  0.1990
 3431TIP3    H231853   2.598   5.280   0.544  1.1237  0.3631  0.4460
 3432TIP3   OH231854   4.888   2.961   1.676 -0.1939 -0.3294  0.2274
 3432TIP3    H131855   4.829   3.031   1.704  0.6743  0.1382  0.9475
 3432TIP3    H231856   4.952   3.006   1.620 -0.3424 -0.7693 -0.2923
 3433TIP3   OH231857   3.135   5.543   8.141  0.0045  0.3538 -0.6211
 3433TIP3    H131858   3.203   5.490   8.181  0.2464 -0.9412 -2.6169
 3433TIP3    H231859   3.117   5.500   8.058 -0.8372  2.5929 -1.6698
 3434TIP3   OH231860   3.493   1.953   1.196 -0.9387  0.2051  0.0596
 3434TIP3    H131861   3.419   1.898   1.172  1.4550 -2.1640 -2.6998
 3434TIP3    H231862   3.471   2.040   1.161 -2.6589 -0.2698 -0.0971
 3435TIP3   OH231863   1.711   2.900   2.297 -0.4960 -1.0051 -0.3207
 3435TIP3    H131864   1.734   2.856   2.379  0.8274  1.3884  0.6804
 3435TIP3    H231865   1.719   2.832   2.230  2.3329 -2.1282  1.0066
 3436TIP3   OH231866   4.375   5.558   7.006  0.5061  0.5574  0.4707
 3436TIP3    H131867   4.391   5.641   7.050 -0.4777  1.4547 -0.7840
 3436TIP3    H231868   4.404   5.492   7.069  0.3507  1.8064  1.9330
 3437TIP3   OH231869   4.509   0.594   0.707 -0.3436  0.0546  0.0427
 3437TIP3    H131870   4.566   0.536   0.758  0.6241 -1.6452 -2.7391
 3437TIP3    H231871   4.433   0.541   0.686 -0.4702  0.5419 -0.7571
 3438TIP3   OH231872   1.410   6.816   0.499  0.4903 -0.3564 -0.1826
 3438TIP3    H131873   1.396   6.753   0.570 -0.0641  0.8018  0.7695
 3438TIP3    H231874   1.469   6.771   0.438  1.5008 -1.1531  1.3188
 3439TIP3   OH231875   0.863   3.217   1.238 -0.1869 -0.2463 -0.5084
 3439TIP3    H131876   0.785   3.249   1.283 -0.4809 -3.3852  1.5253
 3439TIP3    H231877   0.831   3.191   1.151 -1.5520 -1.7420  0.3865
 3440TIP3   OH231878   2.114   2.387   6.922  0.0067 -0.0159  0.2506
 3440TIP3    H131879   2.105   2.321   6.852  1.4702 -0.7055  0.6771
 3440TIP3    H231880   2.068   2.348   6.996 -0.3138  0.0656  0.0956
 3441TIP3   OH231881   3.976   2.901   0.725  0.8221  0.1014  0.2937
 3441TIP3    H131882   3.914   2.948   0.781  0.4617  0.1118 -0.1047
 3441TIP3    H231883   3.920   2.848   0.667  1.1165  1.0505 -0.9073
 3442TIP3   OH231884   6.477   1.992   1.972 -0.2662  0.5314 -0.2425
 3442TIP3    H131885   6.492   2.020   2.063 -0.5495  0.4023 -0.1547
 3442TIP3    H231886   6.412   1.922   1.979 -0.1598  0.4020 -0.5321
 3443TIP3   OH231887   6.866   3.611   1.823  0.0561  0.3081 -0.2573
 3443TIP3    H131888   6.897   3.701   1.812  2.3709  0.1253  3.2056
 3443TIP3    H231889   6.774   3.621   1.848  0.5028  1.8238  0.9721
 3444TIP3   OH231890   5.259   5.472   0.715 -0.0307  0.2125  0.1693
 3444TIP3    H131891   5.184   5.531   0.731  0.2110  0.4046  0.6112
 3444TIP3    H231892   5.273   5.477   0.620 -0.9213 -0.2464 -0.0044
 3445TIP3   OH231893   5.078   6.425   0.965  0.4085  0.2923 -0.7563
 3445TIP3    H131894   5.105   6.482   1.037 -2.1896  0.2831  0.3265
 3445TIP3    H231895   5.045   6.485   0.898 -0.6520  0.1597 -0.3633
 3446TIP3   OH231896   5.339   4.390   7.010 -0.5568  0.5652 -0.5707
 3446TIP3    H131897   5.389   4.424   7.084  0.6319 -0.6195 -0.7868
 3446TIP3    H231898   5.302   4.468   6.968  0.6430  1.4473 -0.0534
 3447TIP3   OH231899   0.799   4.080   0.300  0.8210 -0.0385 -0.2572
 3447TIP3    H131900   0.768   4.097   0.211  0.3505 -1.8397 -0.4671
 3447TIP3    H231901   0.893   4.092   0.295  0.8270 -0.3415 -1.0689
 3448TIP3   OH231902   2.568   3.124   0.909 -0.7264  0.1790  0.0151
 3448TIP3    H131903   2.648   3.176   0.908 -1.6845  1.7424 -0.0475
 3448TIP3    H231904   2.570   3.077   0.992  0.3540  0.0168 -0.0959
 3449TIP3   OH231905   5.849   0.569   1.930  0.3027 -0.8789  0.3395
 3449TIP3    H131906   5.813   0.657   1.915  1.5540  0.2792  3.3272
 3449TIP3    H231907   5.797   0.512   1.872 -2.1931  1.4567  0.0363
 3450TIP3   OH231908   2.249   5.337   7.970 -0.1346  0.1234  0.2327
 3450TIP3    H131909   2.280   5.247   7.964  2.0506  0.8660 -0.3822
 3450TIP3    H231910   2.328   5.390   7.978 -1.3469  2.0323  0.3493
 3451TIP3   OH231911   2.127   4.735   2.492  0.0600  0.3339 -0.1578
 3451TIP3    H131912   2.109   4.677   2.565  0.4510 -1.1439 -1.2028
 3451TIP3    H231913   2.131   4.678   2.415  1.0835  1.6336 -1.1323
 3452TIP3   OH231914   0.457   6.541   2.169 -0.0080  0.2106  0.5126
 3452TIP3    H131915   0.385   6.478   2.165  0.0971  0.1441 -1.2150
 3452TIP3    H231916   0.464   6.564   2.261 -0.2472 -2.0807  1.1534
 3453TIP3   OH231917   5.137   4.039   8.397 -0.0143  0.0287  0.0141
 3453TIP3    H131918   5.133   3.997   8.311  0.3928  1.6856 -0.8436
 3453TIP3    H231919   5.146   3.966   8.458 -2.2537 -1.3122 -1.1485
 3454TIP3   OH231920   3.181   2.005   7.013 -0.6102  0.5816 -0.1428
 3454TIP3    H131921   3.095   1.990   6.972 -0.8242 -0.1689  0.5549
 3454TIP3    H231922   3.172   2.090   7.057 -1.0004  0.5094 -0.0759
 3455TIP3   OH231923   6.089   0.502   2.632 -0.9301  0.4663 -0.1306
 3455TIP3    H131924   6.008   0.480   2.676  0.1541  1.6726  2.7314
 3455TIP3    H231925   6.147   0.428   2.650 -0.2853  1.2416  1.1265
 3456TIP3   OH231926   3.713   2.067   8.096 -0.0617 -0.3353  0.2204
 3456TIP3    H131927   3.649   2.039   8.161 -0.5571  0.6080  0.1631
 3456TIP3    H231928   3.716   2.163   8.105 -0.3084 -0.1560 -1.2872
 3457TIP3   OH231929   0.263   1.665   7.399  0.5739 -0.2837 -0.2078
 3457TIP3    H131930   0.358   1.660   7.407  0.4615  0.3814  2.3387
 3457TIP3    H231931   0.236   1.577   7.374  1.8577 -0.3771 -1.3839
 3458TIP3   OH231932   1.577   3.365   7.795 -0.3776 -0.0898 -0.2679
 3458TIP3    H131933   1.561   3.454   7.827  0.4080  0.3491 -1.0381
 3458TIP3    H231934   1.531   3.360   7.712 -0.3088 -0.3559 -0.2916
 3459TIP3   OH231935   1.134   2.926   8.467 -0.1722 -0.6198  0.3211
 3459TIP3    H131936   1.063   2.967   8.517 -0.0502  0.3824 -0.3083
 3459TIP3    H231937   1.157   2.990   8.400  0.1519 -1.6562 -0.5872
 3460TIP3   OH231938   0.269   5.402   8.554  0.4210 -0.4204 -0.5295
 3460TIP3    H131939   0.343   5.425   8.497 -0.3512  1.3773 -0.8591
 3460TIP3    H231940   0.299   5.425   8.642 -0.0967  1.3797 -0.7821
 3461TIP3   OH231941   0.424   2.574   0.725 -0.1335 -0.1631  0.1894
 3461TIP3    H131942   0.504   2.522   0.719 -0.5294 -0.6324 -1.2046
 3461TIP3    H231943   0.437   2.646   0.663 -0.9803 -0.5225 -0.4294
 3462TIP3   OH231944   4.371   2.806   0.905 -0.1296 -0.3339  0.1338
 3462TIP3    H131945   4.281   2.774   0.901  0.3254 -1.5835 -0.7372
 3462TIP3    H231946   4.403   2.799   0.815  0.1036  2.3838 -0.0675
 3463TIP3   OH231947   6.818   5.353   7.586  1.0051  0.1054 -0.2950
 3463TIP3    H131948   6.765   5.316   7.516  0.1329  0.8957 -0.0664
 3463TIP3    H231949   6.790   5.444   7.594  1.9318  0.3661  0.2804
 3464TIP3   OH231950   5.830   5.668   0.148  0.3461 -0.3835  0.0841
 3464TIP3    H131951   5.832   5.664   0.244 -0.6012 -1.1350  0.0788
 3464TIP3    H231952   5.772   5.741   0.128 -0.8157 -1.2608  0.1032
 3465TIP3   OH231953   0.858   2.503   0.364  0.5243 -0.0081  0.1981
 3465TIP3    H131954   0.810   2.558   0.302 -1.8870 -2.0929  0.0769
 3465TIP3    H231955   0.895   2.433   0.311  0.1664 -0.7061  0.8647
 3466TIP3   OH231956   2.048   1.957   7.936  0.4968 -0.0848  0.5936
 3466TIP3    H131957   2.044   2.049   7.963 -0.2617  0.2805 -0.6701
 3466TIP3    H231958   2.131   1.950   7.888  0.1218  0.1832 -0.1065
 3467TIP3   OH231959   5.304   3.453   7.307 -0.7521  0.7743  0.3510
 3467TIP3    H131960   5.248   3.420   7.236  0.2252 -0.7060  0.2429
 3467TIP3    H231961   5.355   3.523   7.267  0.9545 -1.0999 -0.9096
 3468TIP3   OH231962   4.764   3.976   8.442 -0.1896 -0.2677  0.3184
 3468TIP3    H131963   4.834   3.920   8.411 -0.1672  0.6377 -1.3713
 3468TIP3    H231964   4.703   3.982   8.369  0.0350  2.2423  0.2357
 3469TIP3   OH231965   2.297   5.277   1.401 -0.5012 -0.0222  0.1707
 3469TIP3    H131966   2.265   5.221   1.471  1.4315 -0.3601  0.8274
 3469TIP3    H231967   2.379   5.237   1.373 -0.6913  0.6989 -1.5839
 3470TIP3   OH231968   4.269   6.795   2.277 -0.7511  0.4481 -0.6500
 3470TIP3    H131969   4.270   6.865   2.212 -1.6472  0.7836 -0.3149
 3470TIP3    H231970   4.361   6.771   2.288 -0.5736  0.4637 -1.9451
 3471TIP3   OH231971   2.641   4.493   1.037  0.6122 -0.1730 -0.0565
 3471TIP3    H131972   2.602   4.422   1.087 -0.5492 -0.5099 -1.3597
 3471TIP3    H231973   2.735   4.478   1.042  0.5503 -0.1183  2.0672
 3472TIP3   OH231974   6.490   3.791   0.927  1.4979  0.1809  0.1483
 3472TIP3    H131975   6.497   3.727   0.998  2.0169  0.5418  0.4261
 3472TIP3    H231976   6.515   3.874   0.966 -0.3783  0.8092  0.1016
 3473TIP3   OH231977   4.813   0.502   0.700 -0.2527  0.1599  0.2707
 3473TIP3    H131978   4.834   0.593   0.677  0.1675 -0.2216 -0.8934
 3473TIP3    H231979   4.860   0.449   0.636 -0.3303 -0.8984  1.0620
 3474TIP3   OH231980   5.894   5.103   7.234 -0.1521 -0.3835  0.2432
 3474TIP3    H131981   5.917   5.033   7.173 -0.2416  1.0234 -1.4667
 3474TIP3    H231982   5.912   5.184   7.187  0.8156  0.8059  2.4779
 3475TIP3   OH231983   5.723   3.616   0.110 -0.4814  0.2871  0.4798
 3475TIP3    H131984   5.643   3.647   0.067  0.0421  1.1010  0.0718
 3475TIP3    H231985   5.737   3.529   0.073 -1.0435  0.2394  0.3665
 3476TIP3   OH231986   3.546   3.237   7.760 -0.4397  0.2880  0.2457
 3476TIP3    H131987   3.582   3.262   7.846  0.2145 -1.2836  0.4641
 3476TIP3    H231988   3.525   3.144   7.769 -1.5115  0.3825 -0.9391
 3477TIP3   OH231989   1.034   4.359   7.490  0.0921  0.0246  0.2745
 3477TIP3    H131990   1.104   4.386   7.550  0.3863 -1.7848  0.8340
 3477TIP3    H231991   1.051   4.266   7.475 -1.5190 -0.1709 -0.5410
 3478TIP3   OH231992   1.607   0.892   7.195 -0.6278 -0.1607  0.0888
 3478TIP3    H131993   1.695   0.862   7.218  0.0317 -0.4559 -2.4888
 3478TIP3    H231994   1.558   0.888   7.277  1.7958  0.2370  1.6776
 3479TIP3   OH231995   5.714   3.762   8.485 -0.3657 -0.3018 -0.3778
 3479TIP3    H131996   5.793   3.729   8.529 -0.7981 -0.2637  0.4505
 3479TIP3    H231997   5.729   3.856   8.475 -0.0118 -0.4030 -0.8752
 3480TIP3   OH231998   5.467   5.383   1.241 -0.3990  0.5222  0.2852
 3480TIP3    H131999   5.390   5.355   1.290 -0.9308 -0.2026 -0.9271
 3480TIP3    H232000   5.533   5.401   1.308 -1.5882  1.0897  1.3428
 3481TIP3   OH232001   3.282   3.970   2.722  0.4066 -0.0296 -0.0393
 3481TIP3    H132002   3.369   4.006   2.702  0.5889 -1.4895 -2.2553
 3481TIP3    H232003   3.277   3.889   2.671 -2.3926  0.1881 -0.2840
 3482TIP3   OH232004   2.359   1.200   1.089 -0.5975 -0.0858 -0.2774
 3482TIP3    H132005   2.425   1.131   1.080  0.3180  0.2946  2.4497
 3482TIP3    H232006   2.275   1.155   1.081 -0.0113 -1.3089  0.2423
 3483TIP3   OH232007   3.468   5.233   0.475  0.3813  0.1885 -0.3408
 3483TIP3    H132008   3.374   5.250   0.472  0.3062 -0.3489 -1.3520
 3483TIP3    H232009   3.478   5.163   0.540  0.2657  1.2713  0.8868
 3484TIP3   OH232010   1.350   5.942   1.859  0.2397  0.4891  0.3634
 3484TIP3    H132011   1.332   6.012   1.796  1.6340  1.1316  0.6304
 3484TIP3    H232012   1.347   5.985   1.944 -0.7077 -0.1814  0.6846
 3485TIP3   OH232013   0.114   5.515   2.125  0.3489 -0.1992  0.3476
 3485TIP3    H132014   0.086   5.464   2.050  1.0717 -0.7397  0.4385
 3485TIP3    H232015   0.061   5.484   2.198  0.0996 -0.1242  0.1973
 3486TIP3   OH232016   0.460   0.304   1.683 -0.3582  0.0985 -0.0573
 3486TIP3    H132017   0.477   0.213   1.709 -0.4099  0.1123  0.0268
 3486TIP3    H232018   0.540   0.351   1.705 -0.1201 -0.0350 -0.6295
 3487TIP3   OH232019   6.306   6.437   1.581  0.1321  0.1259  0.5451
 3487TIP3    H132020   6.298   6.481   1.496  0.1551 -1.8472 -0.5501
 3487TIP3    H232021   6.399   6.438   1.600  0.0918  0.8661  0.7140
 3488TIP3   OH232022   6.097   4.966   2.253 -0.3992  0.2951  0.2786
 3488TIP3    H132023   6.188   4.938   2.266 -1.0853 -2.6801 -0.5935
 3488TIP3    H232024   6.093   4.993   2.162 -0.5533 -0.3279  0.0985
 3489TIP3   OH232025   3.704   3.741   7.314  0.0696 -0.4864 -0.0215
 3489TIP3    H132026   3.678   3.663   7.363 -1.1012 -0.8414 -1.1291
 3489TIP3    H232027   3.719   3.708   7.225 -1.4759  0.6798 -0.7659
 3490TIP3   OH232028   0.047   5.692   7.145  0.6767 -0.3039 -0.0251
 3490TIP3    H132029   0.114   5.637   7.106 -0.7204 -1.7423 -0.5192
 3490TIP3    H232030   0.032   5.654   7.232  1.8086  1.1785  0.8622
 3491TIP3   OH232031   0.048   1.184   7.004 -0.0236 -0.2564 -0.1374
 3491TIP3    H132032   0.138   1.191   7.036  0.1381 -0.0571 -0.6278
 3491TIP3    H232033   0.044   1.246   6.931 -0.6790  0.0576  0.1506
 3492TIP3   OH232034   2.704   3.560   8.416 -0.2471 -0.4494  0.4557
 3492TIP3    H132035   2.726   3.645   8.454 -0.8871  0.4582 -1.0693
 3492TIP3    H232036   2.640   3.522   8.476 -0.1425  0.2714  1.0331
 3493TIP3   OH232037   2.758   3.900   1.701  0.1379  0.0705 -0.3431
 3493TIP3    H132038   2.818   3.952   1.754 -0.7426 -0.3497  1.1541
 3493TIP3    H232039   2.811   3.827   1.668  0.1046 -1.5105  2.7238
 3494TIP3   OH232040   4.917   6.822   0.083  0.1791  0.0508  0.0932
 3494TIP3    H132041   4.899   6.867   0.001 -0.3839  1.3834  0.9173
 3494TIP3    H232042   4.832   6.809   0.124  0.5744  0.9937  1.2658
 3495TIP3   OH232043   3.482   4.613   2.325 -0.1628 -0.1471 -0.3475
 3495TIP3    H132044   3.444   4.526   2.314  0.2510 -0.2592 -0.8597
 3495TIP3    H232045   3.492   4.622   2.420  2.2699 -1.7207 -0.3814
 3496TIP3   OH232046   4.237   2.105   0.050 -0.8567  0.2025 -0.3710
 3496TIP3    H132047   4.271   2.126   0.137 -0.0048 -0.3593 -0.5514
 3496TIP3    H232048   4.150   2.069   0.066 -0.5133 -0.3559  0.2922
 3497TIP3   OH232049   3.086   4.376   8.191 -0.0603 -0.4153  0.3312
 3497TIP3    H132050   3.150   4.380   8.262  0.1056  0.0908  0.1620
 3497TIP3    H232051   3.133   4.335   8.119 -0.2712 -1.0572  0.5502
 3498TIP3   OH232052   3.612   4.565   6.571 -0.3461  0.2235  0.1949
 3498TIP3    H132053   3.682   4.623   6.542 -2.0373  1.4799 -1.6349
 3498TIP3    H232054   3.642   4.477   6.548  0.3099  0.8136 -1.3528
 3499TIP3   OH232055   2.362   5.909   7.732 -0.0015 -0.2069 -0.5578
 3499TIP3    H132056   2.387   5.826   7.689 -1.1133 -1.9248  1.8873
 3499TIP3    H232057   2.269   5.918   7.712 -0.0699  0.0162 -0.1341
 3500TIP3   OH232058   0.815   6.215   0.967  0.4006  0.3439  0.0463
 3500TIP3    H132059   0.744   6.223   0.904 -1.0570 -0.9403  1.4354
 3500TIP3    H232060   0.894   6.217   0.914 -0.7942 -2.4954 -2.0902
 3501TIP3   OH232061   0.283   0.428   0.319 -0.7422 -0.3947  0.2496
 3501TIP3    H132062   0.191   0.429   0.347 -1.3281  1.7604 -1.4524
 3501TIP3    H232063   0.279   0.415   0.224  0.6255  0.6424  0.0104
 3502TIP3   OH232064   4.367   6.406   0.692 -0.4446  0.3008  0.2552
 3502TIP3    H132065   4.449   6.360   0.671 -0.3867  0.8693 -0.8202
 3502TIP3    H232066   4.343   6.373   0.778  0.4531 -0.5382  0.2053
 3503TIP3   OH232067   5.651   5.297   2.846  0.3599  0.1183 -0.1182
 3503TIP3    H132068   5.621   5.212   2.815  1.7973 -0.2276 -0.6032
 3503TIP3    H232069   5.606   5.360   2.790 -0.2800 -0.3321 -0.1219
 3504TIP3   OH232070   2.719   1.625   6.773 -0.5024 -0.1324  0.1639
 3504TIP3    H132071   2.741   1.616   6.680 -0.0571  1.0318  0.1382
 3504TIP3    H232072   2.768   1.556   6.817  2.9913  2.0594  0.0673
 3505TIP3   OH232073   2.864   3.412   7.010 -0.3040  0.0497 -0.2805
 3505TIP3    H132074   2.852   3.319   6.991 -0.3871  0.6874 -3.9087
 3505TIP3    H232075   2.936   3.440   6.955  1.4010  1.7421  2.5398
 3506TIP3   OH232076   4.503   5.060   1.866 -0.3979 -0.0701  0.4005
 3506TIP3    H132077   4.465   4.979   1.901  1.4813 -1.7625 -1.2070
 3506TIP3    H232078   4.428   5.112   1.838 -1.6396 -1.9921 -0.0395
 3507TIP3   OH232079   3.874   5.386   0.366  0.7387  0.6557 -0.1050
 3507TIP3    H132080   3.939   5.422   0.306  0.8252  0.0012 -0.4200
 3507TIP3    H232081   3.791   5.396   0.320  0.6187  1.4380  0.2721
 3508TIP3   OH232082   3.470   6.702   8.102  0.6127  0.4262 -0.0230
 3508TIP3    H132083   3.474   6.627   8.161 -0.7560 -1.5811 -2.3148
 3508TIP3    H232084   3.425   6.770   8.153  0.1588 -0.9393  1.4798
 3509TIP3   OH232085   3.275   6.588   0.857 -0.1532 -0.1989 -0.0586
 3509TIP3    H132086   3.253   6.629   0.941  1.2194 -0.5171  0.4727
 3509TIP3    H232087   3.204   6.615   0.799 -0.6761  0.7368  0.9675
 3510TIP3   OH232088   6.010   5.855   7.276  0.3027 -0.0720  0.6861
 3510TIP3    H132089   6.055   5.939   7.290 -0.0186 -0.0534  1.6798
 3510TIP3    H232090   6.039   5.800   7.348 -1.0288 -0.1537  1.1952
 3511TIP3   OH232091   5.391   2.325   0.734 -0.2627  0.2990 -0.5961
 3511TIP3    H132092   5.308   2.335   0.686 -1.7376 -2.6246  1.0659
 3511TIP3    H232093   5.422   2.414   0.746 -1.7507  1.3787 -3.5912
 3512TIP3   OH232094   4.487   6.412   7.044 -0.5439  0.1331  0.3273
 3512TIP3    H132095   4.525   6.388   6.960 -1.0699 -1.5457  0.5350
 3512TIP3    H232096   4.556   6.461   7.089  0.2710 -0.2424 -0.4881
 3513TIP3   OH232097   5.072   4.979   7.764  0.6179  0.1589 -0.2365
 3513TIP3    H132098   5.003   5.003   7.825  2.4565  1.6881  1.4023
 3513TIP3    H232099   5.074   4.883   7.766 -1.2765  0.0804 -0.2087
 3514TIP3   OH232100   4.749   3.854   1.335 -0.0971  0.1226 -0.3771
 3514TIP3    H132101   4.773   3.904   1.413  1.0065  2.6715 -2.1888
 3514TIP3    H232102   4.653   3.847   1.340  0.0906 -2.0334  2.3553
 3515TIP3   OH232103   1.206   0.889   2.204  0.3776  0.5091  0.0325
 3515TIP3    H132104   1.288   0.937   2.212  1.0457 -0.5658 -0.1066
 3515TIP3    H232105   1.230   0.797   2.219 -0.5717  0.0088 -1.3101
 3516TIP3   OH232106   3.931   6.621   1.579  0.4144 -0.3501  0.1860
 3516TIP3    H132107   3.990   6.545   1.584  0.0784 -0.5535  1.7089
 3516TIP3    H232108   3.883   6.619   1.662 -0.2553  1.0124 -0.1401
 3517TIP3   OH232109   0.513   1.767   8.090 -0.6921 -0.5528  0.3616
 3517TIP3    H132110   0.560   1.816   8.159  0.2983 -0.8905 -0.0567
 3517TIP3    H232111   0.534   1.676   8.107 -2.9432 -0.9414  1.4419
 3518TIP3   OH232112   1.664   4.035   2.435  0.5125 -0.2196  0.1812
 3518TIP3    H132113   1.754   4.002   2.424  1.6410  1.3180  3.3958
 3518TIP3    H232114   1.612   3.957   2.454  0.9422 -1.2153 -2.3523
 3519TIP3   OH232115   5.619   1.710   8.138 -0.5040 -0.5313 -0.3005
 3519TIP3    H132116   5.647   1.655   8.065  0.3041 -0.5103 -0.0256
 3519TIP3    H232117   5.628   1.653   8.215 -0.1302 -0.1696 -0.0719
 3520TIP3   OH232118   1.992   6.416   7.395  0.0489 -0.1686  0.0022
 3520TIP3    H132119   1.924   6.467   7.439  0.8018  0.5448  0.3438
 3520TIP3    H232120   1.963   6.414   7.303 -2.4182 -3.0740  0.6542
 3521TIP3   OH232121   6.429   3.799   7.165 -0.4060 -0.5114 -0.8064
 3521TIP3    H132122   6.438   3.750   7.083  0.4852 -2.4497  0.3711
 3521TIP3    H232123   6.466   3.885   7.146  1.3793 -1.4793 -2.0070
 3522TIP3   OH232124   1.539   6.438   0.413  0.8888  0.4405  0.4858
 3522TIP3    H132125   1.576   6.516   0.370  1.0111  0.3117  0.3569
 3522TIP3    H232126   1.494   6.473   0.489 -2.7116  1.1827 -1.7278
 3523TIP3   OH232127   0.182   0.364   1.479 -0.3511  0.4268  0.1257
 3523TIP3    H132128   0.247   0.293   1.475 -0.2907  0.5000 -0.2093
 3523TIP3    H232129   0.234   0.442   1.499 -0.5726  0.1700  1.8442
 3524TIP3   OH232130   4.584   4.402   8.548 -0.1640 -0.2166  0.2579
 3524TIP3    H132131   4.670   4.363   8.530  0.1855  0.8022 -0.3487
 3524TIP3    H232132   4.602   4.471   8.612 -0.5268  0.0326  0.0925
 3525TIP3   OH232133   3.558   3.529   7.894 -0.1078 -0.0118  0.5354
 3525TIP3    H132134   3.644   3.526   7.853  0.5339 -0.9504  1.8903
 3525TIP3    H232135   3.500   3.483   7.833  0.3946  0.3870 -0.2535
 3526TIP3   OH232136   1.610   4.942   2.504 -0.5645 -0.1274  0.4263
 3526TIP3    H132137   1.638   4.914   2.591 -0.3798 -1.4564 -0.0465
 3526TIP3    H232138   1.689   4.978   2.464 -0.5178 -0.0397  0.5955
 3527TIP3   OH232139   5.201   1.817   7.374  0.2280  0.4131 -0.6510
 3527TIP3    H132140   5.274   1.758   7.394 -1.1706 -0.6151  1.7948
 3527TIP3    H232141   5.182   1.861   7.456 -0.7606  2.0381 -1.6935
 3528TIP3   OH232142   2.503   2.475   7.913 -0.0404 -0.7330  0.3834
 3528TIP3    H132143   2.544   2.416   7.850 -0.0441 -0.3902  0.0565
 3528TIP3    H232144   2.438   2.523   7.861  1.0819  0.7243  0.2762
 3529TIP3   OH232145   6.647   6.645   1.558 -0.0839 -0.7660 -0.4215
 3529TIP3    H132146   6.615   6.572   1.611 -0.3289  0.3751  1.0901
 3529TIP3    H232147   6.739   6.654   1.582 -0.5126  0.5824  0.8846
 3530TIP3   OH232148   2.746   2.151   1.731  0.3030  0.2201 -0.6517
 3530TIP3    H132149   2.835   2.189   1.729  0.7134 -0.6447  0.2675
 3530TIP3    H232150   2.690   2.225   1.756  0.8866  0.5792 -0.3664
 3531TIP3   OH232151   0.426   0.942   7.937 -0.5602  0.4408  0.0038
 3531TIP3    H132152   0.487   0.984   7.997  2.0216 -2.2781 -0.4788
 3531TIP3    H232153   0.452   0.973   7.850  0.0645 -0.5761 -0.1879
 3532TIP3   OH232154   3.481   5.850   0.190  0.0848  0.7497 -0.1336
 3532TIP3    H132155   3.416   5.872   0.257  1.4523 -0.3004  1.6019
 3532TIP3    H232156   3.507   5.935   0.154 -0.2391  1.3934  1.0942
 3533TIP3   OH232157   3.731   4.865   1.719 -0.3392  0.1521 -0.0825
 3533TIP3    H132158   3.785   4.868   1.798 -0.1077  0.8815 -0.2609
 3533TIP3    H232159   3.721   4.957   1.693 -3.9856  0.3555  1.5025
 3534TIP3   OH232160   1.679   0.989   2.414 -0.5124 -0.3052 -0.1620
 3534TIP3    H132161   1.746   1.051   2.443 -0.4130  0.1450 -1.2798
 3534TIP3    H232162   1.721   0.903   2.421 -0.5833 -0.2431  1.2134
 3535TIP3   OH232163   2.846   1.213   1.923 -0.4069  0.3043  0.1122
 3535TIP3    H132164   2.850   1.203   1.828 -2.3164  1.0281 -0.0895
 3535TIP3    H232165   2.817   1.128   1.955 -1.7866  0.6441 -0.1741
 3536TIP3   OH232166   2.128   1.671   6.731 -0.0374 -0.4733  0.1809
 3536TIP3    H132167   2.100   1.581   6.750 -2.6370  0.1577 -0.3555
 3536TIP3    H232168   2.062   1.704   6.670 -0.5964  2.6446  2.2830
 3537TIP3   OH232169   6.021   1.871   0.811  0.3975 -0.3963  0.3221
 3537TIP3    H132170   5.959   1.944   0.813 -0.7126 -1.3145  0.3094
 3537TIP3    H232171   5.979   1.802   0.863  2.1705 -0.4721  1.7534
 3538TIP3   OH232172   5.437   1.320   8.189  0.2270 -0.3025  0.1806
 3538TIP3    H132173   5.415   1.343   8.279 -1.9370  0.0370 -0.3645
 3538TIP3    H232174   5.455   1.226   8.191 -0.2259 -0.3780  0.9083
 3539TIP3   OH232175   6.203   4.725   0.794 -0.3383 -0.0541  0.1366
 3539TIP3    H132176   6.180   4.782   0.866 -2.9850 -0.7621 -0.0540
 3539TIP3    H232177   6.124   4.675   0.776  0.7604 -1.1515 -2.1180
 3540TIP3   OH232178   0.145   1.295   2.453  0.2635 -0.4324 -0.2257
 3540TIP3    H132179   0.080   1.248   2.401  0.4071 -1.8452  0.8118
 3540TIP3    H232180   0.148   1.383   2.415  1.3062 -1.7194 -3.3959
 3541TIP3   OH232181   5.182   3.057   8.118 -0.1658 -0.2239  0.0752
 3541TIP3    H132182   5.152   3.139   8.078  0.8519  0.3520  0.4678
 3541TIP3    H232183   5.191   2.996   8.044 -2.1348 -0.4055 -0.0836
 3542TIP3   OH232184   6.105   5.667   7.494  0.2115  0.4206 -0.4820
 3542TIP3    H132185   6.184   5.700   7.452 -0.0694  2.1756  0.2893
 3542TIP3    H232186   6.076   5.596   7.438 -0.9637  3.5262 -4.2364
 3543TIP3   OH232187   1.635   1.838   0.548 -0.5755 -0.2064 -0.6222
 3543TIP3    H132188   1.692   1.769   0.514 -0.9336 -0.0931 -1.4848
 3543TIP3    H232189   1.555   1.830   0.497 -0.6818  0.7387 -0.6189
 3544TIP3   OH232190   0.790   2.885   8.418 -0.3576  0.3523  0.0213
 3544TIP3    H132191   0.799   2.944   8.344 -2.0468  1.9880  1.0338
 3544TIP3    H232192   0.858   2.912   8.479 -0.8768  1.0317  0.3149
 3545TIP3   OH232193   3.248   6.069   7.619  0.2385  0.3616  0.0534
 3545TIP3    H132194   3.306   6.080   7.694  1.7132 -2.3978 -0.5567
 3545TIP3    H232195   3.305   6.080   7.542 -0.7875  0.9911 -0.6489
 3546TIP3   OH232196   3.021   6.024   8.401 -0.1518  0.4143  0.1763
 3546TIP3    H132197   3.000   6.100   8.347 -1.9200 -0.2031 -0.0772
 3546TIP3    H232198   3.047   6.061   8.485  2.0963  1.3756 -0.8485
 3547TIP3   OH232199   2.343   6.476   1.978  0.3459  0.1853  0.0684
 3547TIP3    H132200   2.356   6.460   1.885  1.8420  0.0289  0.2884
 3547TIP3    H232201   2.253   6.447   1.994 -0.0634  0.5507 -1.3806
 3548TIP3   OH232202   3.362   1.823   0.201 -0.0272  0.2889 -0.2783
 3548TIP3    H132203   3.299   1.859   0.139  0.2002 -0.2499 -0.8324
 3548TIP3    H232204   3.435   1.884   0.200 -0.3614  0.7039  0.0661
 3549TIP3   OH232205   6.570   5.027   1.036 -0.0540 -0.2387  0.5502
 3549TIP3    H132206   6.501   5.076   1.081 -0.4095 -0.6803  0.4965
 3549TIP3    H232207   6.562   4.938   1.071 -0.6096 -0.6890 -0.6921
 3550TIP3   OH232208   3.780   4.007   7.365 -0.2541 -0.4838 -0.3011
 3550TIP3    H132209   3.865   4.051   7.371 -0.8105  0.6358 -0.3893
 3550TIP3    H232210   3.736   4.028   7.447 -0.6134 -0.6811 -0.4425
 3551TIP3   OH232211   2.136   6.106   0.280  0.1252 -0.6862  0.4183
 3551TIP3    H132212   2.225   6.081   0.253 -0.2107 -1.3972 -0.0500
 3551TIP3    H232213   2.079   6.050   0.229 -0.6029 -0.2550  0.7478
 3552TIP3   OH232214   6.790   3.214   0.708  0.2365 -0.3046  0.2639
 3552TIP3    H132215   6.875   3.258   0.703  1.2269 -2.0140  1.0408
 3552TIP3    H232216   6.749   3.232   0.623  1.4018  0.4863 -0.1603
 3553TIP3   OH232217   1.653   4.458   8.285 -0.2639 -0.2882 -0.3076
 3553TIP3    H132218   1.578   4.458   8.344 -0.1074  0.2142 -0.1078
 3553TIP3    H232219   1.690   4.546   8.293 -0.1467 -0.2703 -1.0307
 3554TIP3   OH232220   4.238   3.785   7.436 -0.0269  0.4591 -0.3840
 3554TIP3    H132221   4.262   3.715   7.375  1.1949  0.9015 -0.4345
 3554TIP3    H232222   4.307   3.851   7.426 -0.2543  0.9187  0.8766
 3555TIP3   OH232223   1.488   3.418   2.348  0.0334  0.6417 -0.1589
 3555TIP3    H132224   1.420   3.385   2.408 -0.1989 -1.4919 -1.4814
 3555TIP3    H232225   1.467   3.510   2.337 -1.9795  0.3037  0.3668
 3556TIP3   OH232226   1.149   0.536   6.920 -0.6215 -0.2305  0.2607
 3556TIP3    H132227   1.156   0.523   6.826 -1.3086 -1.1534  0.3177
 3556TIP3    H232228   1.074   0.595   6.931 -0.8746 -0.5397  0.2381
 3557TIP3   OH232229   1.515   6.227   2.393 -0.9972  0.7696  0.0889
 3557TIP3    H132230   1.589   6.172   2.368 -1.3466 -0.0698  0.8492
 3557TIP3    H232231   1.550   6.316   2.391 -0.0283  0.4057  0.2113
 3558TIP3   OH232232   0.765   2.849   2.053  0.1777 -0.0537 -0.1847
 3558TIP3    H132233   0.691   2.798   2.085  1.0359 -0.2751  1.5513
 3558TIP3    H232234   0.842   2.796   2.074  0.8482 -0.5501 -3.2874
 3559TIP3   OH232235   6.386   0.727   7.355  0.6939  0.1142  0.0189
 3559TIP3    H132236   6.293   0.720   7.337  0.7206 -1.0006  0.2556
 3559TIP3    H232237   6.416   0.799   7.298 -0.2566  0.3517 -0.1999
 3560TIP3   OH232238   6.273   2.771   7.497  0.3760 -0.2142  0.3120
 3560TIP3    H132239   6.330   2.809   7.430 -0.4612 -1.8239 -1.4021
 3560TIP3    H232240   6.191   2.753   7.451  0.1639 -2.4697  1.4430
 3561TIP3   OH232241   1.098   2.613   0.700  0.1462 -0.1250 -0.0920
 3561TIP3    H132242   1.096   2.648   0.611  1.8917  0.9803  0.2434
 3561TIP3    H232243   1.064   2.524   0.692  0.4141 -0.1026 -1.8801
 3562TIP3   OH232244   5.453   1.756   0.559 -0.0070 -0.5318  0.1336
 3562TIP3    H132245   5.381   1.805   0.521 -0.8668 -0.6189  1.5528
 3562TIP3    H232246   5.478   1.807   0.637  0.8518 -0.9817  0.1692
 3563TIP3   OH232247   0.095   4.934   0.617 -0.2349  0.4639  0.8517
 3563TIP3    H132248   0.152   4.992   0.667 -1.7966  3.3732 -0.4528
 3563TIP3    H232249   0.016   4.927   0.671  0.3931 -1.6196  1.5843
 3564TIP3   OH232250   3.952   6.528   8.573  0.0624 -0.5089  0.4016
 3564TIP3    H132251   3.944   6.438   8.541  1.9255 -0.3765 -0.6074
 3564TIP3    H232252   3.915   6.526   8.661  1.3471 -2.6404  0.9756
 3565TIP3   OH232253   5.441   1.746   7.170  0.2331 -0.5969  0.5735
 3565TIP3    H132254   5.495   1.791   7.235  0.3092 -1.6331  1.2544
 3565TIP3    H232255   5.366   1.712   7.219 -1.0769  0.8154 -0.3608
 3566TIP3   OH232256   3.391   3.722   8.048 -0.3501 -0.4820  0.5785
 3566TIP3    H132257   3.460   3.668   8.009 -2.0724  0.1075 -3.8703
 3566TIP3    H232258   3.336   3.659   8.095  2.2466 -1.1445  3.0116
 3567TIP3   OH232259   0.389   6.324   6.957  0.0227  0.1880 -0.2431
 3567TIP3    H132260   0.445   6.255   6.920  0.7664  1.6143 -1.9165
 3567TIP3    H232261   0.414   6.403   6.909 -0.4920  1.7416  1.9220
 3568TIP3   OH232262   3.547   0.406   1.329  0.2683  0.2951 -0.2910
 3568TIP3    H132263   3.507   0.489   1.356 -0.5495 -0.4021  0.7404
 3568TIP3    H232264   3.628   0.400   1.379  0.8018  0.8969 -1.0689
 3569TIP3   OH232265   6.718   6.414   7.127  0.4703 -0.6816  0.0929
 3569TIP3    H132266   6.735   6.381   7.039 -1.3925  0.6458 -0.8550
 3569TIP3    H232267   6.744   6.507   7.123 -1.6054 -0.0415  0.2234
 3570TIP3   OH232268   4.358   5.984   7.019 -0.1698 -0.1369 -0.0300
 3570TIP3    H132269   4.273   6.005   7.059  0.2443 -0.5210  1.1010
 3570TIP3    H232270   4.340   5.982   6.925 -1.6225 -1.1297  0.2310
 3571TIP3   OH232271   5.124   5.676   2.360 -0.2481  0.3681  0.3076
 3571TIP3    H132272   5.145   5.640   2.446  0.7680  1.0727  0.3777
 3571TIP3    H232273   5.122   5.771   2.374  0.1969  0.5030 -0.4922
 3572TIP3   OH232274   1.551   0.733   1.558  0.3576  0.5869  0.8624
 3572TIP3    H132275   1.540   0.639   1.570  1.0641  0.5865  1.6333
 3572TIP3    H232276   1.513   0.752   1.472 -1.0689 -0.1667  1.2962
 3573TIP3   OH232277   0.919   2.645   6.868 -0.4411 -0.2475  0.4880
 3573TIP3    H132278   0.860   2.585   6.914 -1.8283 -1.0064 -2.0599
 3573TIP3    H232279   0.868   2.726   6.860 -1.6324 -1.1700 -2.4569
 3574TIP3   OH232280   1.368   4.241   0.622  0.2058  0.1706 -0.2712
 3574TIP3    H132281   1.402   4.159   0.586 -0.3849  0.2749 -1.0644
 3574TIP3    H232282   1.360   4.300   0.547 -2.6992 -0.1604 -0.3396
 3575TIP3   OH232283   6.223   6.869   7.015  0.1497 -0.4328 -0.6567
 3575TIP3    H132284   6.255   6.906   7.097 -0.3746 -0.2788 -0.5191
 3575TIP3    H232285   6.288   6.802   6.992  0.7866  0.1469 -0.5966
 3576TIP3   OH232286   1.511   3.674   0.386 -0.2330  0.2851 -0.6444
 3576TIP3    H132287   1.547   3.745   0.332  1.8586 -1.1886 -1.2910
 3576TIP3    H232288   1.424   3.658   0.350  1.2416 -0.9593 -4.0410
 3577TIP3   OH232289   4.415   4.644   7.635  0.0644 -0.3299 -0.2427
 3577TIP3    H132290   4.387   4.563   7.592 -0.8245 -0.3732  0.3931
 3577TIP3    H232291   4.461   4.693   7.567 -0.7248 -0.6987 -1.0512
 3578TIP3   OH232292   1.511   0.341   2.735  0.1841  0.1116  0.2928
 3578TIP3    H132293   1.551   0.386   2.811  2.8862 -1.0864 -0.3212
 3578TIP3    H232294   1.585   0.318   2.679 -1.6668  0.1714 -2.3375
 3579TIP3   OH232295   3.137   5.758   7.325 -0.1964  0.1474  0.3762
 3579TIP3    H132296   3.078   5.731   7.255  0.4413 -3.2915  0.9980
 3579TIP3    H232297   3.191   5.826   7.285 -0.7765 -0.6927 -2.0172
 3580TIP3   OH232298   6.029   5.593   2.064 -0.2122  0.4771 -0.2312
 3580TIP3    H132299   6.116   5.558   2.081 -1.3121 -2.0100  0.7479
 3580TIP3    H232300   6.020   5.666   2.125  0.9730  0.4270  0.0305
 3581TIP3   OH232301   1.388   2.226   7.671  0.4139 -0.1758  0.4058
 3581TIP3    H132302   1.337   2.159   7.717  0.6943  0.4418  1.6897
 3581TIP3    H232303   1.371   2.306   7.721  1.6729  0.2814  0.1224
 3582TIP3   OH232304   5.559   0.999   7.683  0.0252 -0.5836 -0.7015
 3582TIP3    H132305   5.539   1.037   7.598  0.5960  0.5082 -0.3570
 3582TIP3    H232306   5.569   0.905   7.665 -1.5630 -0.6299 -1.5254
 3583TIP3   OH232307   4.126   2.604   7.794  0.4041  0.4384 -0.5753
 3583TIP3    H132308   4.166   2.613   7.707  1.8220  0.6643  0.0748
 3583TIP3    H232309   4.040   2.644   7.784  0.0902 -0.5416 -2.1671
 3584TIP3   OH232310   5.700   4.228   7.414 -0.0258  0.0685  0.2872
 3584TIP3    H132311   5.679   4.313   7.454  0.3169  0.2672  0.0452
 3584TIP3    H232312   5.678   4.240   7.321  0.9876  0.2234  0.0599
 3585TIP3   OH232313   2.973   6.518   7.095  0.1937  0.2328  0.2515
 3585TIP3    H132314   2.928   6.473   7.023  0.7660 -1.5209  0.9184
 3585TIP3    H232315   2.903   6.545   7.154 -0.1147 -1.0234  0.4887
 3586TIP3   OH232316   0.131   0.774   0.525  0.9725  0.1973  0.1403
 3586TIP3    H132317   0.212   0.755   0.478 -0.5344 -2.7460 -1.5220
 3586TIP3    H232318   0.075   0.698   0.509 -1.9174  1.8154  1.7267
 3587TIP3   OH232319   3.911   2.944   1.006  0.1957  0.4877 -0.2019
 3587TIP3    H132320   3.947   2.926   1.093  1.6203 -0.2231 -0.9172
 3587TIP3    H232321   3.941   3.032   0.985  1.1687  0.0721 -0.6030
 3588TIP3   OH232322   2.660   2.255   0.971 -0.1410  0.5658  0.4291
 3588TIP3    H132323   2.618   2.324   0.920 -1.6675 -0.2266  0.5615
 3588TIP3    H232324   2.733   2.225   0.917 -0.9558  0.6174 -0.7165
 3589TIP3   OH232325   1.219   3.278   1.512 -0.6509 -0.2128  0.2904
 3589TIP3    H132326   1.161   3.204   1.530  0.0542 -0.9106 -0.2824
 3589TIP3    H232327   1.159   3.351   1.495 -1.3747 -0.1888  2.5345
 3590TIP3   OH232328   6.135   4.029   0.847  0.1410  0.3115 -0.3344
 3590TIP3    H132329   6.156   3.936   0.843 -0.3150  0.2370 -1.3945
 3590TIP3    H232330   6.074   4.043   0.775 -1.4986  1.0141  1.1375
 3591TIP3   OH232331   4.799   0.967   2.461 -0.1253 -0.4199 -0.0025
 3591TIP3    H132332   4.799   1.014   2.378 -1.6334  3.0293  1.7504
 3591TIP3    H232333   4.725   0.905   2.453 -0.9922  0.6813 -0.8517
 3592TIP3   OH232334   3.222   4.119   1.721 -0.0892 -0.3812  0.5363
 3592TIP3    H132335   3.272   4.042   1.748  1.4396  0.5406  0.4511
 3592TIP3    H232336   3.130   4.094   1.733  0.3806 -2.1032  0.7700
 3593TIP3   OH232337   1.890   3.109   7.377  0.0691 -0.5850 -0.3703
 3593TIP3    H132338   1.948   3.132   7.304  1.0943  0.6241  0.7851
 3593TIP3    H232339   1.947   3.106   7.454 -1.3564  0.6250  0.8092
 3594TIP3   OH232340   1.285   5.859   0.454 -0.5727  0.0328  0.4333
 3594TIP3    H132341   1.261   5.860   0.362 -2.1150 -0.4354  0.8001
 3594TIP3    H232342   1.313   5.770   0.472  0.2172  0.2500  0.3116
 3595TIP3   OH232343   4.228   0.702   0.029  0.8086  0.2784 -0.1673
 3595TIP3    H132344   4.144   0.745   0.046  1.3233  0.5707  1.9373
 3595TIP3    H232345   4.210   0.609   0.046  0.7701  0.2517 -0.3484
 3596TIP3   OH232346   4.662   5.327   0.565 -0.0063 -0.0677 -0.3775
 3596TIP3    H132347   4.629   5.416   0.574  0.3662 -0.0026  0.3912
 3596TIP3    H232348   4.628   5.298   0.480 -1.8357  0.0874  0.2464
 3597TIP3   OH232349   4.821   2.205   0.557 -0.0466  0.1438 -0.6573
 3597TIP3    H132350   4.828   2.110   0.550  1.2136  0.1304  0.3807
 3597TIP3    H232351   4.820   2.222   0.651 -3.0971  1.0187 -0.7548
 3598TIP3   OH232352   5.723   4.320   8.568  0.9512 -0.1823 -0.3281
 3598TIP3    H132353   5.783   4.336   8.641  0.0055 -1.4612  0.7669
 3598TIP3    H232354   5.645   4.371   8.590 -0.4526 -2.7290  1.0842
 3599TIP3   OH232355   6.559   0.740   0.169 -0.3725 -0.3027 -0.0107
 3599TIP3    H132356   6.494   0.808   0.149  0.6892  0.4202 -1.1034
 3599TIP3    H232357   6.643   0.782   0.155  0.3879 -2.5199 -3.5352
 3600TIP3   OH232358   0.595   0.569   2.073 -0.0730 -0.4883  0.2007
 3600TIP3    H132359   0.646   0.640   2.113 -1.4123  0.5427  0.1253
 3600TIP3    H232360   0.598   0.499   2.139 -0.5795  0.4615  1.2804
 3601TIP3   OH232361   4.300   0.119   1.432  0.0359 -0.3937 -0.2390
 3601TIP3    H132362   4.283   0.060   1.359  1.3365 -1.5768  0.3729
 3601TIP3    H232363   4.267   0.072   1.509  0.8928 -0.2320  0.2360
 3602TIP3   OH232364   6.492   1.332   7.200  0.3279 -0.2617  0.8809
 3602TIP3    H132365   6.559   1.264   7.198  1.9312  1.2201  1.5008
 3602TIP3    H232366   6.410   1.285   7.211  1.1587 -2.1974 -0.5791
 3603TIP3   OH232367   3.221   3.999   7.660 -0.1222 -0.1172 -0.7659
 3603TIP3    H132368   3.162   3.931   7.692 -2.5869  1.6365 -1.2099
 3603TIP3    H232369   3.170   4.044   7.592  1.1321  2.5292 -0.0855
 3604TIP3   OH232370   4.542   3.828   7.397  0.6729 -0.1323  0.0502
 3604TIP3    H132371   4.581   3.804   7.312 -1.7368 -1.9313 -0.6558
 3604TIP3    H232372   4.502   3.913   7.381  0.3249 -0.4094 -0.6222
 3605TIP3   OH232373   1.906   4.945   8.180 -1.1687 -1.0330 -0.0283
 3605TIP3    H132374   1.875   5.027   8.219 -0.0243 -1.2074  1.3526
 3605TIP3    H232375   2.000   4.944   8.200 -0.7457 -1.6896 -1.8616
 3606TIP3   OH232376   3.383   4.956   7.900 -0.2298  0.2410  0.3608
 3606TIP3    H132377   3.345   4.884   7.850 -0.9272 -0.0395  1.2665
 3606TIP3    H232378   3.477   4.935   7.905 -0.4395 -0.6477  0.6766
 3607TIP3   OH232379   0.829   2.211   8.016 -0.4024 -0.2410 -0.2509
 3607TIP3    H132380   0.923   2.204   8.035  0.0578  0.1558 -2.0955
 3607TIP3    H232381   0.808   2.131   7.968 -1.1953 -0.6604  0.7687
 3608TIP3   OH232382   4.534   1.690   1.628  0.5767  0.2365 -0.0103
 3608TIP3    H132383   4.512   1.620   1.689  2.2175  0.8481  1.3591
 3608TIP3    H232384   4.612   1.731   1.665 -0.1573  2.6229 -0.9289
 3609TIP3   OH232385   1.905   3.767   6.806 -0.0309 -0.1291 -0.1303
 3609TIP3    H132386   1.812   3.772   6.782 -0.5427 -1.0045  1.4810
 3609TIP3    H232387   1.939   3.692   6.758  0.1730  0.8772 -1.6247
 3610TIP3   OH232388   6.240   3.701   1.192  0.1096 -0.3426 -0.2625
 3610TIP3    H132389   6.307   3.658   1.139 -1.6072 -1.1549 -1.8688
 3610TIP3    H232390   6.227   3.642   1.266  0.2457 -0.8145 -0.6127
 3611TIP3   OH232391   6.021   0.714   8.650  0.0462 -0.3265 -0.2241
 3611TIP3    H132392   6.069   0.659   8.588  2.9514 -0.3367  1.8082
 3611TIP3    H232393   6.085   0.779   8.679 -0.7519 -0.9246  3.3955
 3612TIP3   OH232394   6.026   4.384   2.881 -0.1730 -0.5489  0.7143
 3612TIP3    H132395   6.097   4.441   2.909 -1.0854  0.6428  0.6666
 3612TIP3    H232396   6.039   4.303   2.931  0.6249  0.0273  1.4623
 3613TIP3   OH232397   4.782   6.232   7.672  0.1871 -0.0282  0.4745
 3613TIP3    H132398   4.708   6.292   7.661 -0.7268 -1.1455  0.3081
 3613TIP3    H232399   4.819   6.255   7.757 -1.9272 -1.0642  1.7559
 3614TIP3   OH232400   1.421   6.623   8.488  0.1006  0.2324  0.4055
 3614TIP3    H132401   1.330   6.609   8.514 -0.1906  0.3966 -0.4704
 3614TIP3    H232402   1.466   6.542   8.510 -0.8991 -1.0064 -1.8336
 3615TIP3   OH232403   0.127   3.313   7.405  0.3000 -0.3320  0.2504
 3615TIP3    H132404   0.139   3.287   7.314  0.6831  2.8705 -0.7444
 3615TIP3    H232405   0.165   3.401   7.410  0.5128 -0.5008  3.5861
 3616TIP3   OH232406   2.711   4.450   0.212  0.6482  0.2225 -0.5174
 3616TIP3    H132407   2.790   4.478   0.259 -0.3977 -0.8288  2.0711
 3616TIP3    H232408   2.638   4.479   0.268 -0.8617  1.2376 -2.8616
 3617TIP3   OH232409   0.933   0.470   0.234  0.0900  0.7275 -0.5969
 3617TIP3    H132410   0.993   0.534   0.195  0.7156  0.3751 -0.2290
 3617TIP3    H232411   0.976   0.444   0.315 -0.2809  0.0233 -0.6218
 3618TIP3   OH232412   2.982   5.023   0.315  0.2040  0.0302  0.0100
 3618TIP3    H132413   2.947   4.945   0.274  1.1342 -1.1606  1.3518
 3618TIP3    H232414   2.923   5.041   0.388  1.9190 -1.6882  1.9696
 3619TIP3   OH232415   1.927   2.456   6.681 -0.1608  0.3282 -0.5625
 3619TIP3    H132416   1.961   2.367   6.668 -1.8123 -0.4685  0.2037
 3619TIP3    H232417   2.005   2.510   6.691  0.8949 -1.2712  0.3618
 3620TIP3   OH232418   3.569   0.959   1.361 -0.3651  0.1150  0.6795
 3620TIP3    H132419   3.644   1.001   1.402  0.8478  2.9697 -3.8386
 3620TIP3    H232420   3.494   1.016   1.382 -0.5908 -0.6046  1.9618
 3621TIP3   OH232421   1.522   1.422   8.581 -0.1091  0.6240  1.2674
 3621TIP3    H132422   1.611   1.393   8.559  0.0829  0.2812  2.4078
 3621TIP3    H232423   1.523   1.517   8.566  0.6230  0.7070  1.8071
 3622TIP3   OH232424   3.406   0.157   0.563  0.2898 -0.1859 -0.0791
 3622TIP3    H132425   3.378   0.097   0.494  1.1573  0.4626 -1.0253
 3622TIP3    H232426   3.488   0.194   0.530  0.9163 -0.1391  1.4764
 3623TIP3   OH232427   5.952   5.780   8.464 -0.3882  0.3543 -0.1872
 3623TIP3    H132428   5.953   5.837   8.388  0.7225  0.5680 -0.0327
 3623TIP3    H232429   6.002   5.703   8.436 -2.0316 -0.6586 -0.4605
 3624TIP3   OH232430   1.713   4.359   1.236  0.1017  0.5900 -0.0629
 3624TIP3    H132431   1.660   4.420   1.287  0.9936  2.0754 -0.8765
 3624TIP3    H232432   1.651   4.317   1.176 -0.3147  1.6513 -0.3898
 3625TIP3   OH232433   6.581   2.213   1.789 -0.3973  0.1408  0.0425
 3625TIP3    H132434   6.586   2.131   1.839 -1.1805  0.2163  0.2506
 3625TIP3    H232435   6.487   2.231   1.782 -0.2257  1.9805  1.5812
 3626TIP3   OH232436   1.172   0.044   0.461  0.3674 -0.2323  0.0324
 3626TIP3    H132437   1.252   0.010   0.501 -0.8873 -1.1596  1.8963
 3626TIP3    H232438   1.181   0.023   0.368  1.8333 -1.2367  0.3641
 3627TIP3   OH232439   4.413   0.184   2.229 -0.1702 -0.2686 -0.2486
 3627TIP3    H132440   4.471   0.250   2.267 -0.8003  1.2269 -1.7820
 3627TIP3    H232441   4.342   0.176   2.293  1.0375 -1.2210  1.0538
 3628TIP3   OH232442   3.461   5.170   8.215  0.1081  0.1335  0.4370
 3628TIP3    H132443   3.393   5.116   8.175  1.5311  0.0147 -1.9830
 3628TIP3    H232444   3.450   5.257   8.177  0.0755  0.6450  1.5667
 3629TIP3   OH232445   2.908   4.512   0.381  0.0780  0.7668  0.1117
 3629TIP3    H132446   2.984   4.499   0.437  1.1821  0.8714 -1.3078
 3629TIP3    H232447   2.839   4.540   0.441  1.2727  1.1201  1.3756
 3630TIP3   OH232448   1.580   5.185   1.086 -0.0304  0.4839 -0.3751
 3630TIP3    H132449   1.517   5.171   1.156  1.2637  0.0400  0.7421
 3630TIP3    H232450   1.616   5.272   1.102  2.9502 -0.9842  1.8346
 3631TIP3   OH232451   5.637   3.042   0.408  0.5654 -0.1607 -0.1864
 3631TIP3    H132452   5.619   3.132   0.434 -0.5752 -0.5668  0.5225
 3631TIP3    H232453   5.594   3.032   0.324 -0.3546 -0.3677  0.2904
 3632TIP3   OH232454   1.915   5.611   8.493  0.1434  0.3313 -0.1544
 3632TIP3    H132455   1.927   5.640   8.403  0.8282  1.0500  0.1555
 3632TIP3    H232456   1.913   5.516   8.488  1.3243  0.3207 -0.7996
 3633TIP3   OH232457   0.474   2.229   0.195 -0.2670 -0.9236  0.6977
 3633TIP3    H132458   0.431   2.192   0.117 -1.3231 -0.1975  0.9176
 3633TIP3    H232459   0.418   2.301   0.221  1.7501  0.8804  0.2849
 3634TIP3   OH232460   4.295   0.493   0.397 -0.4048 -0.4680 -0.4409
 3634TIP3    H132461   4.205   0.475   0.422 -0.8614 -0.0079 -1.6644
 3634TIP3    H232462   4.309   0.586   0.419 -0.5500 -0.2799 -1.1175
 3635TIP3   OH232463   3.165   1.351   0.978 -0.1016 -0.1983 -0.0797
 3635TIP3    H132464   3.165   1.301   0.897  1.1804  0.1728 -0.3247
 3635TIP3    H232465   3.235   1.416   0.967 -1.0030  0.9444  0.6655
 3636TIP3   OH232466   5.067   5.627   7.135 -0.5891 -0.3440  0.0586
 3636TIP3    H132467   5.016   5.699   7.100  1.4669  1.2274  0.1089
 3636TIP3    H232468   5.032   5.612   7.223  0.8054  2.6903  1.2666
 3637TIP3   OH232469   0.747   5.447   8.314 -0.0345 -0.0699 -0.3152
 3637TIP3    H132470   0.810   5.491   8.256  0.1715 -0.7182 -0.5924
 3637TIP3    H232471   0.790   5.443   8.399 -0.1599  0.4950 -0.2239
 3638TIP3   OH232472   0.983   4.137   7.717  0.2698 -0.3901  0.0530
 3638TIP3    H132473   0.953   4.058   7.761  0.4204 -1.1219 -1.1091
 3638TIP3    H232474   0.906   4.171   7.673  0.0838  0.4261  0.9819
 3639TIP3   OH232475   6.836   2.874   1.139 -0.1662  0.2907 -0.0622
 3639TIP3    H132476   6.874   2.786   1.136  1.5018  1.0097 -1.6520
 3639TIP3    H232477   6.781   2.879   1.061 -0.8139  0.4569  0.3932
 3640TIP3   OH232478   1.499   4.615   8.120  0.2025  0.3634  0.0635
 3640TIP3    H132479   1.408   4.589   8.138  0.3868  0.7508  1.6319
 3640TIP3    H232480   1.550   4.535   8.136  0.3444  0.6545  1.0928
 3641TIP3   OH232481   1.264   4.125   7.317 -0.1839 -0.2439  0.4067
 3641TIP3    H132482   1.277   4.065   7.244 -0.4808 -0.4856  0.5495
 3641TIP3    H232483   1.264   4.212   7.277  1.6270 -0.2248  0.3678
 3642TIP3   OH232484   6.152   1.390   7.474 -0.1874  0.1780 -0.3239
 3642TIP3    H132485   6.181   1.469   7.519  0.0070  0.5847 -1.1356
 3642TIP3    H232486   6.058   1.385   7.493 -0.3125  0.9187 -0.7142
 3643TIP3   OH232487   6.139   5.768   2.471 -0.1090 -0.2217  0.0327
 3643TIP3    H132488   6.186   5.844   2.507 -0.8930  0.6273 -0.6656
 3643TIP3    H232489   6.179   5.693   2.515  0.8859  0.5631  0.5498
 3644TIP3   OH232490   4.543   1.147   6.607 -0.5561 -0.3662  0.1008
 3644TIP3    H132491   4.511   1.068   6.564 -0.4994  0.7101 -2.0921
 3644TIP3    H232492   4.514   1.219   6.549 -0.8606  1.2562  2.1481
 3645TIP3   OH232493   6.850   2.304   7.593  0.0650 -0.2986  0.0824
 3645TIP3    H132494   6.937   2.274   7.619  0.8357  0.6689 -1.2935
 3645TIP3    H232495   6.859   2.399   7.585 -0.6305 -0.3603 -1.8192
 3646TIP3   OH232496   2.057   5.627   1.908 -0.1465 -0.0074 -0.0680
 3646TIP3    H132497   2.012   5.661   1.985  2.0180 -2.3746  2.4828
 3646TIP3    H232498   2.148   5.655   1.918  0.0359  0.4819 -2.3916
 3647TIP3   OH232499   6.166   3.046   8.622 -0.1711 -0.0227  0.3864
 3647TIP3    H132500   6.145   3.083   8.537 -1.3854 -1.4264  0.0276
 3647TIP3    H232501   6.184   3.122   8.678  0.9650  0.9024 -1.1690
 3648TIP3   OH232502   2.553   4.725   0.801 -0.3922  0.3393  0.8506
 3648TIP3    H132503   2.594   4.640   0.783 -1.0974 -0.1347  1.4187
 3648TIP3    H232504   2.518   4.716   0.890 -0.0919  1.3849  1.0863
 3649TIP3   OH232505   5.036   5.977   2.115  0.1422  0.5357  0.1096
 3649TIP3    H132506   5.003   6.001   2.201  1.7182  2.1328  0.3316
 3649TIP3    H232507   5.021   6.055   2.061 -1.2192 -0.5847 -1.2319
 3650TIP3   OH232508   0.252   3.246   7.171 -0.3524  0.3344  0.4689
 3650TIP3    H132509   0.328   3.216   7.121 -0.4584 -0.0813  0.5539
 3650TIP3    H232510   0.187   3.176   7.161 -1.2523  1.2924 -0.7487
 3651TIP3   OH232511   3.840   1.947   0.794  0.2172 -0.1729  0.4210
 3651TIP3    H132512   3.935   1.948   0.805  0.4647  1.4086 -1.4006
 3651TIP3    H232513   3.818   2.036   0.766 -1.8164 -0.4911  0.8538
 3652TIP3   OH232514   6.153   6.810   2.437 -0.3091 -0.2212  0.2495
 3652TIP3    H132515   6.090   6.877   2.461 -1.0052 -0.8671  0.2871
 3652TIP3    H232516   6.101   6.744   2.390  0.7172  0.2679 -1.7147
 3653TIP3   OH232517   1.281   5.089   7.600 -0.4402  0.6748  0.0204
 3653TIP3    H132518   1.266   5.094   7.505  1.0352  1.2784 -0.1990
 3653TIP3    H232519   1.197   5.058   7.635 -1.3924  1.5216 -1.3646
 3654TIP3   OH232520   3.382   1.798   0.620 -0.1620 -0.6947 -0.4573
 3654TIP3    H132521   3.372   1.880   0.571 -1.0467  0.9111  2.2477
 3654TIP3    H232522   3.468   1.806   0.661  0.0455 -1.4746 -0.7287
 3655TIP3   OH232523   0.524   1.789   2.171 -0.8347 -0.1135  0.2461
 3655TIP3    H132524   0.469   1.754   2.101 -3.0260 -0.0036  1.8161
 3655TIP3    H232525   0.487   1.875   2.190  0.3201  0.2550  0.9080
 3656TIP3   OH232526   6.584   0.382   0.943  0.2608 -0.6468  0.0593
 3656TIP3    H132527   6.550   0.354   1.028  3.2740  0.4749  1.7932
 3656TIP3    H232528   6.619   0.470   0.959 -0.3212  0.2009 -2.7379
 3657TIP3   OH232529   5.515   6.768   7.276  0.1351 -0.5833  0.8224
 3657TIP3    H132530   5.430   6.785   7.235  0.8520 -0.8581 -0.8562
 3657TIP3    H232531   5.531   6.675   7.261 -0.0757 -0.9630  2.7640
 3658TIP3   OH232532   6.824   0.244   1.431  0.1207 -0.0557 -0.2540
 3658TIP3    H132533   6.828   0.179   1.360  2.2818 -1.2316  0.8428
 3658TIP3    H232534   6.912   0.280   1.435 -0.4062  1.1794  0.7872
 3659TIP3   OH232535   5.511   4.061   0.732  0.4077 -0.2921 -0.1795
 3659TIP3    H132536   5.532   4.139   0.784  1.4393 -1.1046  0.6637
 3659TIP3    H232537   5.457   4.094   0.660  0.9265  1.2123  0.0904
 3660TIP3   OH232538   3.548   3.531   7.402 -0.4025 -0.2908  0.0250
 3660TIP3    H132539   3.602   3.478   7.461 -0.6921 -0.6535 -0.0403
 3660TIP3    H232540   3.469   3.480   7.389 -0.7412  0.2159  0.0710
 3661TIP3   OH232541   0.490   3.323   7.696  0.0503  0.1174  0.0903
 3661TIP3    H132542   0.507   3.313   7.789 -0.3793  0.9579  0.2667
 3661TIP3    H232543   0.535   3.403   7.671 -1.3790  0.9389  0.0040
 3662TIP3   OH232544   6.528   3.245   7.417  0.8991 -0.0195  0.2722
 3662TIP3    H132545   6.498   3.324   7.373  0.2661  0.3108  1.2481
 3662TIP3    H232546   6.608   3.221   7.372  0.9320  1.0047 -0.2434
 3663TIP3   OH232547   2.927   5.630   2.295 -0.1169 -0.4264  0.1608
 3663TIP3    H132548   2.847   5.671   2.328  0.1087  0.6675 -0.5654
 3663TIP3    H232549   2.931   5.657   2.203  1.2229 -0.2249  0.2568
 3664TIP3   OH232550   6.458   2.958   0.426 -0.0081 -0.3353 -0.1790
 3664TIP3    H132551   6.437   3.046   0.456  0.7814 -0.0750 -0.3653
 3664TIP3    H232552   6.468   2.907   0.506  3.7003  0.7149  0.2232
 3665TIP3   OH232553   0.683   1.445   2.220 -0.2669  0.6190 -0.1094
 3665TIP3    H132554   0.653   1.464   2.132 -0.0775  1.6096  0.0330
 3665TIP3    H232555   0.774   1.477   2.222 -0.4601  1.1464  0.6114
 3666TIP3   OH232556   3.316   5.513   2.175  0.0221 -0.0997 -0.3302
 3666TIP3    H132557   3.263   5.510   2.254 -0.4252  1.0371 -0.5563
 3666TIP3    H232558   3.256   5.546   2.107  1.4703  3.5704 -0.0920
 3667TIP3   OH232559   1.051   2.764   8.186  0.4471  0.2649 -0.3510
 3667TIP3    H132560   1.137   2.802   8.205  1.9250 -2.7673 -0.2461
 3667TIP3    H232561   1.028   2.716   8.266  0.2666 -1.5666 -1.4376
 3668TIP3   OH232562   0.974   3.031   7.434  0.1379  0.6625  0.3837
 3668TIP3    H132563   0.916   2.965   7.472  0.6276  1.3994  2.5570
 3668TIP3    H232564   0.985   3.003   7.343 -1.1465 -1.1885  0.7254
 3669TIP3   OH232565   2.930   6.417   6.640 -0.1580 -0.6022 -0.2266
 3669TIP3    H132566   2.899   6.395   6.552  0.5991 -0.0778 -0.6476
 3669TIP3    H232567   3.017   6.456   6.625  0.0463 -0.6485  0.7680
 3670TIP3   OH232568   5.419   6.330   8.351 -0.4224 -0.0364 -0.0425
 3670TIP3    H132569   5.505   6.349   8.388 -0.7283  3.0177 -0.6192
 3670TIP3    H232570   5.357   6.359   8.419 -1.0264 -1.5567  0.0881
 3671TIP3   OH232571   3.663   6.204   8.444 -0.2106  0.4684 -0.2205
 3671TIP3    H132572   3.751   6.235   8.466  1.2613 -2.3843 -1.5047
 3671TIP3    H232573   3.669   6.180   8.352 -1.0848 -3.2541  0.5149
 3672TIP3   OH232574   0.659   5.689   6.776  0.2697  0.1068  0.4794
 3672TIP3    H132575   0.582   5.657   6.823  1.0463 -0.9735  1.0597
 3672TIP3    H232576   0.650   5.785   6.778  0.2706  0.1121  2.8644
 3673TIP3   OH232577   3.451   3.967   8.304 -0.4460 -0.2678  0.6318
 3673TIP3    H132578   3.385   4.032   8.327  0.2992  0.6895  0.1384
 3673TIP3    H232579   3.529   3.991   8.355  0.2999  0.1389 -0.6476
 3674TIP3   OH232580   6.764   5.121   2.734  0.1955 -0.2439  0.1364
 3674TIP3    H132581   6.839   5.089   2.785 -1.4028 -0.6789  2.3382
 3674TIP3    H232582   6.695   5.134   2.799 -1.2862  1.3408 -1.6531
 3675TIP3   OH232583   3.967   0.011   2.141 -0.2262 -0.0908 -0.2101
 3675TIP3    H132584   3.980  -0.024   2.229 -0.0488  1.4623  0.4126
 3675TIP3    H232585   3.873   0.030   2.137  0.1640  2.4486  0.7291
 3676TIP3   OH232586   3.119   6.484   1.623  0.1054 -0.4936  0.8398
 3676TIP3    H132587   3.077   6.469   1.538  2.2357 -1.6984 -0.0558
 3676TIP3    H232588   3.192   6.542   1.604  1.2668 -1.6378  1.6316
 3677TIP3   OH232589   2.854   2.599   0.903 -0.5517  0.6445  0.7387
 3677TIP3    H132590   2.862   2.636   0.815  0.9160  0.0721  0.6104
 3677TIP3    H232591   2.762   2.574   0.909 -0.1587 -1.9189 -1.7409
 3678TIP3   OH232592   2.740   1.001   0.181 -0.3922 -0.4698  0.3142
 3678TIP3    H132593   2.763   1.081   0.230  0.0421  1.0144 -2.1232
 3678TIP3    H232594   2.734   1.030   0.090 -0.2845 -3.2428 -0.6711
 3679TIP3   OH232595   4.282   3.965   0.814 -0.1199 -0.0294 -0.0833
 3679TIP3    H132596   4.335   4.013   0.878  0.8768 -1.1875 -0.0032
 3679TIP3    H232597   4.208   3.932   0.865  1.7822 -2.8334  1.0953
 3680TIP3   OH232598   3.630   1.076   8.421  0.1475  0.2696 -0.4599
 3680TIP3    H132599   3.540   1.055   8.397 -0.4520  0.7377  1.2488
 3680TIP3    H232600   3.644   1.033   8.505  1.5904  0.0762 -0.7718
 3681TIP3   OH232601   5.719   6.542   7.435 -0.1244 -0.3817  0.3061
 3681TIP3    H132602   5.650   6.475   7.433  0.9809 -1.5518 -2.0184
 3681TIP3    H232603   5.792   6.500   7.480  0.6237 -0.8344 -1.2875
 3682TIP3   OH232604   4.302   6.600   7.769 -0.5608  0.3046 -0.2363
 3682TIP3    H132605   4.303   6.601   7.864  0.3201  0.6855 -0.2356
 3682TIP3    H232606   4.210   6.610   7.745 -1.3045 -3.0377  0.5939
 3683TIP3   OH232607   1.535   5.731   1.556 -1.0272 -0.3705 -0.1367
 3683TIP3    H132608   1.571   5.746   1.469 -3.6353  0.5535 -1.1631
 3683TIP3    H232609   1.477   5.655   1.545 -1.9614  0.2216  0.6071
 3684TIP3   OH232610   3.629   4.985   8.321  0.0765  0.1332 -0.2006
 3684TIP3    H132611   3.599   4.921   8.256  1.4313 -0.8774  0.1176
 3684TIP3    H232612   3.580   5.065   8.300 -0.8777 -0.6951 -1.2865
 3685TIP3   OH232613   1.863   3.020   1.633  0.5186 -0.2126 -0.4901
 3685TIP3    H132614   1.840   3.106   1.599 -0.5359 -0.3340 -0.1359
 3685TIP3    H232615   1.936   2.991   1.579  0.9550  0.9409 -0.5518
 3686TIP3   OH232616   5.501   2.273   1.685 -0.0833 -0.2849  0.5169
 3686TIP3    H132617   5.409   2.294   1.700 -0.0274 -0.4092  1.0862
 3686TIP3    H232618   5.504   2.237   1.597 -0.1323  2.3575 -0.6616
 3687TIP3   OH232619   1.386   5.107   8.186 -0.6009  0.0985  0.5177
 3687TIP3    H132620   1.326   5.067   8.123 -1.1903  2.1062 -0.2527
 3687TIP3    H232621   1.329   5.155   8.246  0.0366 -0.8215  1.9040
 3688TIP3   OH232622   3.330   4.439   1.448  0.1249  0.2248  0.3673
 3688TIP3    H132623   3.306   4.433   1.356  0.0123 -1.7598  0.4816
 3688TIP3    H232624   3.359   4.351   1.471  1.0586  0.9087  1.9967
 3689TIP3   OH232625   1.124   2.295   0.649 -0.5434  0.4995 -0.2062
 3689TIP3    H132626   1.205   2.326   0.689 -0.6149  0.9156 -0.3805
 3689TIP3    H232627   1.129   2.200   0.656 -0.7053  0.5703  1.0927
 3690TIP3   OH232628   3.481   1.096   2.238  1.2110  0.3038  0.8868
 3690TIP3    H132629   3.451   1.187   2.239  0.5749  0.1449 -0.6178
 3690TIP3    H232630   3.561   1.097   2.186  0.0953 -0.2681 -0.9177
 3691TIP3   OH232631   3.489   1.804   8.489 -0.4417 -0.5364  0.1730
 3691TIP3    H132632   3.431   1.847   8.552  0.0376 -1.4388  1.2665
 3691TIP3    H232633   3.430   1.758   8.430 -0.8683 -1.8442  1.5626
 3692TIP3   OH232634   3.309   3.407   7.190 -0.1745 -0.2136  0.0270
 3692TIP3    H132635   3.265   3.353   7.124  0.4831  0.5253 -1.0439
 3692TIP3    H232636   3.301   3.356   7.271 -1.2885 -0.9886 -0.5329
 3693TIP3   OH232637   6.599   5.665   1.499  0.2399  0.1305 -0.1156
 3693TIP3    H132638   6.545   5.724   1.445 -0.1598 -0.0073  0.1323
 3693TIP3    H232639   6.587   5.697   1.588  1.7512  1.0371 -0.1928
 3694TIP3   OH232640   1.859   5.871   1.906  0.4119  0.3988 -0.1590
 3694TIP3    H132641   1.930   5.845   1.964 -0.0653 -1.2212 -0.2566
 3694TIP3    H232642   1.882   5.960   1.879  2.7886 -0.3027 -0.7519
 3695TIP3   OH232643   3.178   0.971   2.500  0.2819  0.5687 -0.2179
 3695TIP3    H132644   3.216   0.886   2.521 -0.4582  0.1055 -0.6730
 3695TIP3    H232645   3.191   0.980   2.405  0.2827  0.9152 -0.1837
 3696TIP3   OH232646   5.552   3.753   1.373 -0.0006  0.3600  0.3052
 3696TIP3    H132647   5.624   3.696   1.348 -1.7135 -1.4695 -0.7304
 3696TIP3    H232648   5.550   3.821   1.305  0.6171  0.3456  0.2665
 3697TIP3   OH232649   0.300   1.327   7.851 -0.4634 -0.3559 -0.1911
 3697TIP3    H132650   0.331   1.299   7.765  1.3516 -0.6044  0.4877
 3697TIP3    H232651   0.214   1.365   7.835  0.4385  0.9382 -2.3370
 3698TIP3   OH232652   5.743   2.800   8.448  0.4740  0.9691  0.2749
 3698TIP3    H132653   5.772   2.791   8.357  0.6040  1.8431  0.2191
 3698TIP3    H232654   5.684   2.726   8.462  0.2470  0.9756 -0.6014
 3699TIP3   OH232655   6.367   6.162   7.953  0.7376 -0.6253 -0.1165
 3699TIP3    H132656   6.432   6.202   8.011  1.4496 -2.1868  0.2242
 3699TIP3    H232657   6.295   6.139   8.012  0.6033 -0.3972 -0.1950
 3700TIP3   OH232658   0.298   4.611   1.693 -0.2045  0.5333  0.0244
 3700TIP3    H132659   0.303   4.694   1.645  0.0883  0.8308  0.5547
 3700TIP3    H232660   0.379   4.608   1.744  0.4213 -0.7307 -1.0055
 3701TIP3   OH232661   6.017   2.934   0.209  0.4052 -0.4173 -0.5791
 3701TIP3    H132662   5.970   2.865   0.255 -1.6677  1.2646 -0.0323
 3701TIP3    H232663   6.000   3.013   0.259 -0.6138  1.2156 -3.2955
 3702TIP3   OH232664   2.254   2.990   0.777  0.0904 -0.0046 -0.1929
 3702TIP3    H132665   2.232   3.076   0.742 -1.4351  0.2935  1.3884
 3702TIP3    H232666   2.333   2.964   0.729  1.1420  2.6588 -0.0564
 3703TIP3   OH232667   0.898   3.244   7.996 -0.7541  0.5195 -0.3245
 3703TIP3    H132668   0.918   3.174   7.933 -0.3434 -0.1410  0.5237
 3703TIP3    H232669   0.923   3.325   7.950  1.9957 -0.1037 -0.1266
 3704TIP3   OH232670   1.359   1.583   0.555 -0.3804  0.1755  0.1045
 3704TIP3    H132671   1.415   1.517   0.596 -1.2445  0.1995  1.3889
 3704TIP3    H232672   1.325   1.541   0.476  0.1264 -0.4177  0.1969
 3705TIP3   OH232673   3.483   2.582   7.092 -0.5422  0.3584 -0.9926
 3705TIP3    H132674   3.551   2.566   7.157 -1.3330 -1.9291 -0.6497
 3705TIP3    H232675   3.531   2.597   7.011  0.3986  1.4474 -0.2726
 3706TIP3   OH232676   6.036   4.658   1.050  0.0159 -0.0786  0.3828
 3706TIP3    H132677   5.955   4.708   1.039 -0.1167 -0.4672 -0.5151
 3706TIP3    H232678   6.041   4.641   1.144  0.9049  2.9955  1.0065
 3707TIP3   OH232679   0.534   0.861   1.874  0.2390  0.5482 -0.2716
 3707TIP3    H132680   0.578   0.823   1.799  1.1761  1.1597 -0.0484
 3707TIP3    H232681   0.551   0.955   1.867 -0.6713  0.7512  0.0566
 3708TIP3   OH232682   5.728   1.068   0.816 -0.0225 -0.6135 -0.0656
 3708TIP3    H132683   5.639   1.080   0.850 -0.4953  1.1982 -1.7683
 3708TIP3    H232684   5.773   1.019   0.885 -1.5197  0.9033  2.1274
 3709TIP3   OH232685   4.423   3.378   0.512 -0.1400 -0.4751  0.1599
 3709TIP3    H132686   4.470   3.301   0.480 -0.4236 -0.3267 -0.6324
 3709TIP3    H232687   4.411   3.433   0.434  1.1821  0.9734  0.9145
 3710TIP3   OH232688   2.465   1.876   2.098 -0.4553  0.4439 -0.0978
 3710TIP3    H132689   2.501   1.803   2.149 -1.9199  0.0089  0.3586
 3710TIP3    H232690   2.445   1.943   2.163  0.5309  1.1213 -0.4754
 3711TIP3   OH232691   2.021   0.463   8.014 -0.6418 -0.3618  0.1016
 3711TIP3    H132692   2.013   0.513   8.096  0.2171  0.1441 -0.1160
 3711TIP3    H232693   2.103   0.493   7.976 -1.2778 -0.2274 -1.1968
 3712TIP3   OH232694   5.228   2.824   1.288 -0.7026  0.1197  0.5888
 3712TIP3    H132695   5.276   2.820   1.370  0.2042  1.4012  0.1469
 3712TIP3    H232696   5.282   2.878   1.231 -1.6368 -0.2005 -0.6423
 3713TIP3   OH232697   1.041   3.014   1.211  0.4633 -0.0428 -0.5679
 3713TIP3    H132698   1.107   3.076   1.243  0.9732 -0.8937  0.0771
 3713TIP3    H232699   0.970   3.070   1.179 -0.2282  0.9134  2.3121
 3714TIP3   OH232700   6.332   5.228   0.609  0.2456 -0.2481  0.2050
 3714TIP3    H132701   6.378   5.149   0.638  1.2122  0.7094  1.4228
 3714TIP3    H232702   6.300   5.267   0.690 -1.8662 -0.3332 -0.5348
 3715TIP3   OH232703   4.763   6.341   1.453 -0.0149  0.5166  0.0545
 3715TIP3    H132704   4.831   6.297   1.504  0.2023 -0.4387 -1.0257
 3715TIP3    H232705   4.685   6.287   1.464 -0.2374  0.8576  0.1783
 3716TIP3   OH232706   5.737   3.570   7.848  0.4088  0.8726  0.3387
 3716TIP3    H132707   5.787   3.515   7.788  0.5490 -0.5076  1.6640
 3716TIP3    H232708   5.651   3.528   7.852  0.1393  1.4367  0.4754
 3717TIP3   OH232709   0.729   3.116   1.960  0.1337 -0.1073  0.0389
 3717TIP3    H132710   0.668   3.072   1.901 -1.2903  0.4836  1.0139
 3717TIP3    H232711   0.765   3.046   2.015 -0.4020 -0.3567  0.0778
 3718TIP3   OH232712   6.694   3.204   0.415 -0.4689  1.0444  0.0789
 3718TIP3    H132713   6.656   3.120   0.388  1.2148  0.0322  0.6871
 3718TIP3    H232714   6.742   3.235   0.339  1.2235  0.0197  0.6733
 3719TIP3   OH232715   0.564   0.796   8.190  0.4315  0.5312 -0.1880
 3719TIP3    H132716   0.628   0.742   8.236  0.0754 -0.3591 -0.7191
 3719TIP3    H232717   0.608   0.880   8.176  0.7844  0.5855  1.1613
 3720TIP3   OH232718   5.225   6.478   1.251 -0.3891 -0.1804 -0.2667
 3720TIP3    H132719   5.253   6.490   1.342 -0.4515 -2.3754  0.1107
 3720TIP3    H232720   5.303   6.500   1.199 -0.1620  0.5094  0.3474
 3721TIP3   OH232721   5.365   3.602   1.799  0.2823  0.2615 -0.0328
 3721TIP3    H132722   5.437   3.646   1.845  0.7248  0.3186 -0.7610
 3721TIP3    H232723   5.292   3.604   1.861  1.5179 -1.7853  1.6070
 3722TIP3   OH232724   3.486   4.608   1.751  0.6739 -0.2008 -0.4308
 3722TIP3    H132725   3.438   4.527   1.732  1.0759 -0.1420 -1.8270
 3722TIP3    H232726   3.419   4.673   1.767  0.3349 -0.6732  0.0799
 3723TIP3   OH232727   6.228   0.528   7.081 -0.1473  0.2807 -0.0785
 3723TIP3    H132728   6.287   0.603   7.090  0.1275 -0.1372  2.2477
 3723TIP3    H232729   6.235   0.483   7.165  0.1815 -2.7363 -1.6214
 3724TIP3   OH232730   6.248   3.560   0.263 -0.2992  0.2686 -0.1342
 3724TIP3    H132731   6.260   3.646   0.303 -3.0986  0.6665  0.0527
 3724TIP3    H232732   6.204   3.508   0.331  0.4338 -1.0184 -0.5986
 3725TIP3   OH232733   0.500   1.927   1.031 -0.0134  0.5766 -0.5754
 3725TIP3    H132734   0.473   2.002   0.978 -0.3656  1.8234  1.2772
 3725TIP3    H232735   0.531   1.862   0.967 -1.3171  1.6146 -2.3396
 3726TIP3   OH232736   4.595   1.762   1.375 -0.8132  0.0897 -0.5852
 3726TIP3    H132737   4.564   1.779   1.464 -1.6585 -2.3402 -0.3172
 3726TIP3    H232738   4.527   1.705   1.338 -0.5007  1.0971 -2.8185
 3727TIP3   OH232739   6.612   6.379   1.700  0.5365 -0.0758 -0.2620
 3727TIP3    H132740   6.628   6.309   1.636 -2.2251 -1.4523  0.3869
 3727TIP3    H232741   6.629   6.339   1.785 -3.1715 -0.8859  0.2853
 3728TIP3   OH232742   1.158   3.804   0.347  0.5160  0.5438 -0.0771
 3728TIP3    H132743   1.161   3.719   0.303  0.1238 -0.1413  1.1599
 3728TIP3    H232744   1.162   3.868   0.276 -0.3019 -0.5071 -1.1142
 3729TIP3   OH232745   5.360   3.071   8.310  0.3298 -0.3050 -0.1173
 3729TIP3    H132746   5.397   3.158   8.296  0.4869 -0.6487 -2.1208
 3729TIP3    H232747   5.301   3.058   8.236 -0.6549 -1.4198  0.8329
 3730TIP3   OH232748   3.417   6.726   0.598  0.3986  0.3114 -0.2202
 3730TIP3    H132749   3.353   6.659   0.622  0.0758 -0.0433 -1.9849
 3730TIP3    H232750   3.373   6.780   0.533  1.4600  0.8178 -0.5462
 3731TIP3   OH232751   2.232   0.260   2.772  0.3119 -0.7250 -0.1681
 3731TIP3    H132752   2.186   0.216   2.701  1.2884 -0.1294 -1.1902
 3731TIP3    H232753   2.292   0.194   2.806  1.9118 -0.2048 -1.8240
 3732TIP3   OH232754   0.073   0.459   2.318  0.3683  0.2395 -0.1439
 3732TIP3    H132755   0.036   0.530   2.370 -1.8525 -0.9736  0.0774
 3732TIP3    H232756   0.124   0.408   2.381  1.9109  1.5388 -0.2883
 3733TIP3   OH232757   6.004   2.756   7.623  0.5377  0.2766 -0.3397
 3733TIP3    H132758   6.027   2.740   7.715  0.9507 -3.1761 -0.8846
 3733TIP3    H232759   6.051   2.836   7.600 -0.1610  1.6553  2.5921
 3734TIP3   OH232760   4.545   1.762   7.353 -0.2792  0.4026 -0.3953
 3734TIP3    H132761   4.478   1.796   7.294  0.3487  1.1257 -0.7153
 3734TIP3    H232762   4.601   1.708   7.298 -0.2152  0.3420 -0.2715
 3735TIP3   OH232763   1.287   0.878   0.017 -0.2521 -0.4820  0.2509
 3735TIP3    H132764   1.242   0.961   0.006 -1.4910 -1.0864  0.6225
 3735TIP3    H232765   1.228   0.825   0.071  0.8124 -1.3674  0.5896
 3736TIP3   OH232766   6.379   0.927   2.337  0.0297  0.4231 -0.1046
 3736TIP3    H132767   6.406   0.933   2.246 -1.6597  0.7060 -0.6156
 3736TIP3    H232768   6.358   0.834   2.350  0.8840  0.2605  0.2058
 3737TIP3   OH232769   6.805   3.323   7.932 -0.0998 -0.2896  0.2805
 3737TIP3    H132770   6.840   3.407   7.902  2.4906 -1.2720  0.3707
 3737TIP3    H232771   6.713   3.326   7.906 -0.0307  2.4280  0.0023
 3738TIP3   OH232772   5.575   5.121   1.458 -0.1724  0.1474 -0.1371
 3738TIP3    H132773   5.550   5.195   1.513 -0.4678  0.2565 -0.4103
 3738TIP3    H232774   5.656   5.088   1.496  1.9872  2.7981 -2.0483
 3739TIP3   OH232775   5.900   3.330   0.391  0.1901 -0.0029 -0.0077
 3739TIP3    H132776   5.836   3.379   0.442  0.4626 -0.9654  1.2994
 3739TIP3    H232777   5.869   3.336   0.301 -0.2504  1.8070  0.2390
 3740TIP3   OH232778   4.915   4.212   8.539 -1.0318  0.1621 -0.3306
 3740TIP3    H132779   4.845   4.150   8.555 -0.2999 -0.2291  1.6450
 3740TIP3    H232780   4.990   4.158   8.515 -0.7564  0.3776  0.0326
 3741TIP3   OH232781   5.095   3.353   8.397 -0.1828 -0.0338 -0.4164
 3741TIP3    H132782   5.162   3.311   8.452 -0.6526 -0.5347 -0.2238
 3741TIP3    H232783   5.144   3.387   8.322  0.6387  1.5762  0.7874
 3742TIP3   OH232784   2.511   1.286   1.304  0.6017 -0.1402  0.5495
 3742TIP3    H132785   2.483   1.219   1.366  2.9169 -0.5426  1.2651
 3742TIP3    H232786   2.463   1.266   1.223 -1.2069 -0.6220  1.6861
 3743TIP3   OH232787   3.055   2.135   7.347  0.3126  0.1521 -0.7627
 3743TIP3    H132788   3.147   2.153   7.331  1.0997 -3.2972 -0.7864
 3743TIP3    H232789   3.048   2.129   7.442 -0.5049  2.7306 -0.5725
 3744TIP3   OH232790   1.302   6.146   7.885  0.4870  0.8122 -0.1283
 3744TIP3    H132791   1.246   6.151   7.808 -0.3051 -0.7758  0.2936
 3744TIP3    H232792   1.387   6.117   7.852 -0.4771 -2.2573 -0.2430
 3745TIP3   OH232793   4.800   5.641   2.108  0.3193 -0.3287  0.2863
 3745TIP3    H132794   4.816   5.650   2.014  1.7423 -0.2884  0.5099
 3745TIP3    H232795   4.781   5.548   2.121  0.6199 -0.4284  0.0207
 3746TIP3   OH232796   0.412   5.472   7.428  0.1568 -0.1732  0.3483
 3746TIP3    H132797   0.422   5.568   7.424 -0.0830 -0.1633 -0.1729
 3746TIP3    H232798   0.378   5.455   7.515  0.4905  0.1894  0.5539
 3747TIP3   OH232799   6.492   3.469   1.377  0.1899  0.1501 -0.0436
 3747TIP3    H132800   6.516   3.494   1.288  1.1850  1.0248  0.4474
 3747TIP3    H232801   6.569   3.491   1.429 -0.0883 -1.0734  0.9177
 3748TIP3   OH232802   5.479   1.543   6.981 -0.1485  0.1843  0.4180
 3748TIP3    H132803   5.439   1.597   7.050 -1.0781  0.4263 -0.2935
 3748TIP3    H232804   5.503   1.606   6.913 -1.2549 -0.2878 -0.4310
 3749TIP3   OH232805   4.406   0.788   8.310  0.0230  0.6626  0.4364
 3749TIP3    H132806   4.319   0.748   8.309 -0.0631  0.8554 -0.1211
 3749TIP3    H232807   4.428   0.794   8.403  0.7051 -2.0913  0.5337
 3750TIP3   OH232808   2.594   0.064   7.600 -0.1002 -0.2006  0.7177
 3750TIP3    H132809   2.628  -0.022   7.626 -2.3893 -1.2535  0.4378
 3750TIP3    H232810   2.543   0.093   7.675 -1.6392 -0.4112 -0.2085
 3751TIP3   OH232811   5.558   0.878   0.577 -0.1554  0.0676 -0.1927
 3751TIP3    H132812   5.630   0.839   0.626  2.1248  2.2396 -1.5840
 3751TIP3    H232813   5.509   0.928   0.643 -0.0164 -0.9067  0.6719
 3752TIP3   OH232814   2.788   5.017   7.738 -0.0017  0.2263 -0.5010
 3752TIP3    H132815   2.881   4.998   7.749 -0.2662 -1.1270 -0.3620
 3752TIP3    H232816   2.777   5.037   7.645  0.6190  1.6793 -0.2847
 3753TIP3   OH232817   5.915   1.888   7.176  0.4623  0.2334  0.0782
 3753TIP3    H132818   5.916   1.807   7.125 -0.3648 -0.5207  1.2256
 3753TIP3    H232819   6.001   1.927   7.161  0.3065 -0.0539 -1.7271
 3754TIP3   OH232820   2.492   1.254   0.260  0.1052  0.6752 -0.1999
 3754TIP3    H132821   2.492   1.262   0.165  1.5651 -0.0290 -0.2937
 3754TIP3    H232822   2.575   1.293   0.287  0.2591 -0.2027  0.6596
 3755TIP3   OH232823   3.757   1.785   7.505 -0.0237 -0.2453 -0.6372
 3755TIP3    H132824   3.698   1.780   7.429  0.7091 -0.8156 -1.1839
 3755TIP3    H232825   3.841   1.809   7.468  0.5674 -1.4431 -0.1314
 3756TIP3   OH232826   0.517   5.979   8.241  0.0878 -0.1285 -0.5587
 3756TIP3    H132827   0.455   6.040   8.200 -0.2280 -0.3529 -0.4204
 3756TIP3    H232828   0.461   5.915   8.284  0.3861 -1.5293 -2.1647
 3757TIP3   OH232829   0.513   5.186   8.586 -0.2979 -0.4389  0.6368
 3757TIP3    H132830   0.568   5.149   8.517 -0.1467 -2.5534  1.7888
 3757TIP3    H232831   0.492   5.274   8.555  0.7070 -0.8782 -1.5361
 3758TIP3   OH232832   5.414   4.334   2.098  0.4871 -0.4206  0.0842
 3758TIP3    H132833   5.480   4.374   2.154 -2.2312  2.6981  1.3393
 3758TIP3    H232834   5.439   4.241   2.094  3.0629 -0.0045  3.0937
 3759TIP3   OH232835   0.702   1.318   0.560 -0.0662  0.1013  0.2886
 3759TIP3    H132836   0.642   1.332   0.634 -1.8867 -2.0565 -0.6492
 3759TIP3    H232837   0.665   1.371   0.490  0.7802  0.9397  0.4532
 3760TIP3   OH232838   4.582   5.459   8.470  0.4489 -0.2752  0.1531
 3760TIP3    H132839   4.585   5.423   8.559 -0.2950  0.6259  0.5614
 3760TIP3    H232840   4.628   5.542   8.476 -1.7584  1.0208  0.3422
 3761TIP3   OH232841   5.845   4.882   0.988 -0.0664 -0.1283  0.0721
 3761TIP3    H132842   5.810   4.840   0.909 -0.8709 -0.7209  0.7292
 3761TIP3    H232843   5.774   4.878   1.051  1.1564 -1.3720  1.4490
 3762TIP3   OH232844   4.513   6.361   7.948 -0.1987 -0.2634 -0.6435
 3762TIP3    H132845   4.472   6.428   8.002 -0.4118  0.0020 -1.1254
 3762TIP3    H232846   4.561   6.410   7.881 -0.6975 -0.5886 -1.2529
 3763TIP3   OH232847   5.500   0.553   7.360  0.4126 -0.7923 -0.0857
 3763TIP3    H132848   5.440   0.604   7.414  0.8308  0.0195 -0.3798
 3763TIP3    H232849   5.587   0.573   7.394  0.6180 -0.9273 -0.5158
 3764TIP3   OH232850   3.468   4.711   0.574 -0.2023 -0.3508 -0.1047
 3764TIP3    H132851   3.437   4.652   0.505  0.1563 -0.4145 -0.2123
 3764TIP3    H232852   3.482   4.654   0.649  1.4063 -0.6362 -0.5873
 3765TIP3   OH232853   1.027   6.477   1.833  0.4593  0.3310 -0.6250
 3765TIP3    H132854   1.001   6.431   1.753  1.9116  0.7467 -1.3657
 3765TIP3    H232855   1.123   6.479   1.830  0.5022  1.4545  0.4997
 3766TIP3   OH232856   5.540   4.038   0.037  0.0935  0.1605  0.2967
 3766TIP3    H132857   5.631   4.009   0.050 -0.5929 -2.5213 -0.2344
 3766TIP3    H232858   5.532   4.050  -0.057 -0.0114  0.8596  0.3877
 3767TIP3   OH232859   2.539   0.045   1.631 -0.2369 -0.0772  0.3468
 3767TIP3    H132860   2.584  -0.002   1.702 -0.3151 -2.2622 -0.9488
 3767TIP3    H232861   2.602   0.044   1.559 -0.4843  1.3456  0.0844
 3768TIP3   OH232862   5.536   4.383   1.013  0.8152  0.6971 -0.0694
 3768TIP3    H132863   5.477   4.390   1.088  1.5606 -2.3399  0.9230
 3768TIP3    H232864   5.615   4.429   1.039  0.7708  0.3587  0.6604
 3769TIP3   OH232865   1.214   6.458   7.339  0.0416  0.2609 -0.0787
 3769TIP3    H132866   1.277   6.483   7.406  0.9420  1.1520 -1.2101
 3769TIP3    H232867   1.177   6.375   7.370 -0.1329  1.0096  1.8562
 3770TIP3   OH232868   3.944   5.338   8.278 -0.1347  0.3221  0.6492
 3770TIP3    H132869   4.022   5.310   8.231 -1.7515  0.5369 -2.4319
 3770TIP3    H232870   3.963   5.428   8.306  0.6162  0.5163 -0.4215
 3771TIP3   OH232871   6.700   0.790   2.632  0.1645 -0.1826 -0.2159
 3771TIP3    H132872   6.769   0.757   2.575  1.2170 -0.8716  1.3823
 3771TIP3    H232873   6.729   0.877   2.659  0.2040 -0.2908  0.1017
 3772TIP3   OH232874   3.090   6.045   1.881  0.1414 -0.1412  0.4480
 3772TIP3    H132875   3.005   6.087   1.875  0.5638  0.8526  1.2642
 3772TIP3    H232876   3.119   6.062   1.971  1.9689  1.0548 -0.3244
 3773TIP3   OH232877   4.342   4.254   2.358 -0.1697  0.5862  0.7033
 3773TIP3    H132878   4.345   4.322   2.425 -2.1709  0.0656  1.3929
 3773TIP3    H232879   4.308   4.177   2.403 -1.0060  0.0583 -0.7513
 3774TIP3   OH232880   5.602   0.314   2.116 -0.2507  0.2410 -0.3587
 3774TIP3    H132881   5.661   0.388   2.132 -1.0066  0.8525 -0.2994
 3774TIP3    H232882   5.590   0.273   2.202  0.1150  0.0948 -0.3784
 3775TIP3   OH232883   1.577   4.129   2.191 -0.5067  0.4952  0.0101
 3775TIP3    H132884   1.549   4.043   2.159  3.7137 -0.4828 -1.7260
 3775TIP3    H232885   1.591   4.116   2.284 -1.0174 -0.3589 -0.0151
 3776TIP3   OH232886   4.342   5.093   1.101  0.0628 -0.1259 -0.2533
 3776TIP3    H132887   4.368   5.041   1.024  1.6095 -0.1831  0.2780
 3776TIP3    H232888   4.345   5.184   1.071 -1.9365 -0.2584 -0.9794
 3777TIP3   OH232889   3.189   0.121   0.103  0.7829  0.2891 -0.7144
 3777TIP3    H132890   3.249   0.071   0.159  0.1296 -0.6880 -0.8498
 3777TIP3    H232891   3.214   0.098   0.014  1.2326  1.1319 -0.8114
 3778TIP3   OH232892   6.507   0.362   7.370  0.0768 -0.1665  0.0893
 3778TIP3    H132893   6.440   0.293   7.372 -0.5160  0.3891 -0.2527
 3778TIP3    H232894   6.590   0.314   7.366 -0.2970 -0.8641  0.5035
 3779TIP3   OH232895   3.940   5.021   7.620 -0.3106 -0.2449 -0.4352
 3779TIP3    H132896   3.903   5.029   7.707  0.7219 -0.9071  0.0919
 3779TIP3    H232897   3.866   5.000   7.563 -0.6999 -2.0569  0.6669
 3780TIP3   OH232898   4.544   6.790   2.313 -0.2339 -0.6935 -0.6390
 3780TIP3    H132899   4.551   6.874   2.359  1.6986 -0.3110 -1.5185
 3780TIP3    H232900   4.634   6.756   2.312 -1.2429 -3.8172  1.4608
 3781TIP3   OH232901   1.864   5.755   0.537  0.3695  0.0059  0.5980
 3781TIP3    H132902   1.857   5.824   0.471 -0.4615 -1.4669 -0.9331
 3781TIP3    H232903   1.943   5.707   0.513 -0.8859 -1.6401 -0.5365
 3782TIP3   OH232904   2.657   0.977   0.668  0.0387 -0.4448  0.0763
 3782TIP3    H132905   2.608   0.918   0.610  0.6802 -0.0471 -0.9030
 3782TIP3    H232906   2.662   1.059   0.619 -0.2416  0.2134  1.1262
 3783TIP3   OH232907   1.793   4.804   0.146 -0.5056  0.0790 -0.7256
 3783TIP3    H132908   1.758   4.721   0.176 -0.3758  1.2098  3.1397
 3783TIP3    H232909   1.886   4.787   0.131 -0.4849 -0.5341  0.0073
 3784TIP3   OH232910   6.823   6.146   8.252  0.3142  0.2560 -0.1719
 3784TIP3    H132911   6.854   6.128   8.163 -2.3236  0.1045 -1.1526
 3784TIP3    H232912   6.738   6.103   8.256 -0.1579  1.2849  2.0580
 3785TIP3   OH232913   1.515   0.533   7.977  0.2790  0.3096  0.3474
 3785TIP3    H132914   1.509   0.528   7.882  3.2890 -0.3712  0.1018
 3785TIP3    H232915   1.553   0.619   7.995 -0.5384  0.5524  0.9829
 3786TIP3   OH232916   6.230   3.926   8.646  0.1163 -0.0238 -0.1120
 3786TIP3    H132917   6.176   4.004   8.657 -1.0336 -0.7392 -0.4970
 3786TIP3    H232918   6.319   3.960   8.634  0.5404  1.1175  4.3749
 3787TIP3   OH232919   2.681   5.736   1.503  0.1239 -0.3034  0.3083
 3787TIP3    H132920   2.756   5.687   1.536  0.0435 -0.5770  0.0907
 3787TIP3    H232921   2.613   5.669   1.490  0.3598 -0.2954 -1.0295
 3788TIP3   OH232922   4.169   5.307   7.206 -0.1892 -0.3649  0.3213
 3788TIP3    H132923   4.089   5.350   7.237 -0.6893 -1.0057 -0.0612
 3788TIP3    H232924   4.141   5.258   7.129  1.1609  1.7835 -1.6515
 3789TIP3   OH232925   1.085   6.171   7.306  0.1522 -0.2811  0.1131
 3789TIP3    H132926   1.173   6.152   7.273  0.7070 -0.7318  1.7731
 3789TIP3    H232927   1.062   6.095   7.360 -0.6025  0.5248  0.9629
 3790TIP3   OH232928   5.059   0.352   6.894  0.4327  0.1367 -0.1204
 3790TIP3    H132929   5.091   0.438   6.922 -0.6148  1.0908 -1.7300
 3790TIP3    H232930   5.132   0.293   6.915  1.5059  1.5263  0.2894
 3791TIP3   OH232931   5.863   5.371   7.807 -0.5101 -0.4158  0.0413
 3791TIP3    H132932   5.910   5.291   7.828 -1.7604 -1.4845 -1.0268
 3791TIP3    H232933   5.931   5.437   7.795  0.6211 -1.5697 -0.1064
 3792TIP3   OH232934   3.641   1.297   1.360 -0.2560  0.2917 -0.1371
 3792TIP3    H132935   3.563   1.351   1.357 -1.2182 -0.9916  0.7095
 3792TIP3    H232936   3.652   1.266   1.270 -1.6486 -0.7298  0.0046
 3793TIP3   OH232937   3.497   1.571   7.553  0.0920  0.6722  0.1769
 3793TIP3    H132938   3.571   1.524   7.515 -0.1604  0.6936 -0.3556
 3793TIP3    H232939   3.495   1.655   7.506 -0.0948  0.7863  0.3859
 3794TIP3   OH232940   3.582   3.198   1.610 -0.9032  0.5336 -0.1773
 3794TIP3    H132941   3.584   3.197   1.706 -1.6822 -0.1373 -0.1561
 3794TIP3    H232942   3.619   3.113   1.584  1.0681  1.4559 -0.5405
 3795TIP3   OH232943   4.512   5.568   0.670 -0.2425 -0.8769  0.1488
 3795TIP3    H132944   4.458   5.599   0.742  0.1307 -3.6999  1.7968
 3795TIP3    H232945   4.580   5.634   0.660  0.3121 -0.8460  3.1604
 3796TIP3   OH232946   5.626   0.158   2.344  0.2116  0.3192  0.4488
 3796TIP3    H132947   5.682   0.111   2.281 -0.2722  2.1879 -1.4879
 3796TIP3    H232948   5.564   0.092   2.374  1.6275 -1.0863  0.4279
 3797TIP3   OH232949   5.858   0.421   2.723  0.0984  0.5553  0.6276
 3797TIP3    H132950   5.824   0.416   2.812  1.1796 -1.4497  0.9749
 3797TIP3    H232951   5.828   0.341   2.681  1.4255  0.4164 -0.1198
 3798TIP3   OH232952   1.476   3.734   2.311 -0.0454  0.0874  0.2313
 3798TIP3    H132953   1.505   3.774   2.392  1.5375  1.4006 -0.9169
 3798TIP3    H232954   1.406   3.791   2.279 -0.0982  0.0457  0.2744
 3799TIP3   OH232955   3.209   4.842   2.459 -0.1919 -0.0577 -0.3135
 3799TIP3    H132956   3.245   4.930   2.470  0.3635 -0.3069 -0.1089
 3799TIP3    H232957   3.197   4.833   2.364 -1.6941  0.7956 -0.2305
 3800TIP3   OH232958   2.684   5.453   8.269 -0.4309 -0.8153  0.1635
 3800TIP3    H132959   2.641   5.461   8.184 -0.7566 -0.9240  0.3181
 3800TIP3    H232960   2.726   5.367   8.267  1.0243 -0.1230 -0.5548
 3801TIP3   OH232961   1.108   5.255   1.339  0.0810  0.2485 -0.2779
 3801TIP3    H132962   1.115   5.218   1.427  0.5450 -0.8783 -0.7625
 3801TIP3    H232963   1.066   5.340   1.351  3.3143  1.7888  1.4764
 3802TIP3   OH232964   6.684   0.584   8.248 -0.2886  0.3217 -0.4832
 3802TIP3    H132965   6.649   0.495   8.256 -2.5095  1.2476  1.7297
 3802TIP3    H232966   6.642   0.619   8.170  0.8765 -0.6288 -1.5789
 3803TIP3   OH232967   0.134   4.524   2.206 -0.3141  0.4492 -0.2697
 3803TIP3    H132968   0.055   4.510   2.154 -0.4290 -0.8935  0.2373
 3803TIP3    H232969   0.101   4.553   2.291 -0.1437  2.2073 -0.7709
 3804TIP3   OH232970   3.025   3.853   8.272 -0.1594 -0.1027 -0.1466
 3804TIP3    H132971   3.050   3.945   8.266 -0.6824 -0.0088 -0.9449
 3804TIP3    H232972   3.028   3.834   8.366 -0.9487  0.9863  0.1208
 3805TIP3   OH232973   6.078   1.566   2.150 -0.2214 -0.0217  0.4344
 3805TIP3    H132974   6.046   1.542   2.063  1.5143 -0.9206  0.0049
 3805TIP3    H232975   6.001   1.601   2.195 -1.2652 -0.0063 -1.2836
 3806TIP3   OH232976   5.876   5.960   1.176 -0.6198  0.2956  0.6315
 3806TIP3    H132977   5.821   6.006   1.112 -1.5842 -0.7392  0.6771
 3806TIP3    H232978   5.962   5.958   1.135 -0.9190  0.7873 -0.0562
 3807TIP3   OH232979   5.011   1.865   7.802  0.1646  0.2190  0.4576
 3807TIP3    H132980   4.921   1.897   7.805  0.0903  0.1394 -0.5150
 3807TIP3    H232981   5.065   1.944   7.801  0.0361  0.3058 -0.5179
 3808TIP3   OH232982   4.576   2.983   7.591  0.5051  0.1501  0.5151
 3808TIP3    H132983   4.527   3.049   7.543  0.0043 -0.1752  0.5685
 3808TIP3    H232984   4.549   2.994   7.682 -0.5071 -0.8907  0.3745
 3809TIP3   OH232985   5.667   5.231   0.094  0.2325 -0.3215  0.4833
 3809TIP3    H132986   5.687   5.323   0.073 -0.2391 -0.6241 -1.4927
 3809TIP3    H232987   5.728   5.181   0.041 -0.9723 -1.1610 -0.1464
 3810TIP3   OH232988   3.398   3.402   0.569 -0.0901  0.0739 -0.1442
 3810TIP3    H132989   3.449   3.437   0.496  1.6778  1.3569  1.5805
 3810TIP3    H232990   3.441   3.319   0.591  1.5149  1.2509  1.4374
 3811TIP3   OH232991   4.406   6.230   0.300  0.0367 -0.4432 -0.4352
 3811TIP3    H132992   4.313   6.248   0.288 -0.3651 -0.5484  1.8849
 3811TIP3    H232993   4.416   6.224   0.395  2.4356 -0.3622 -0.6257
 3812TIP3   OH232994   1.512   4.578   7.061  0.1910  0.4709 -0.4165
 3812TIP3    H132995   1.592   4.630   7.067  3.4364 -3.9030 -1.1935
 3812TIP3    H232996   1.505   4.534   7.146 -0.6748 -0.1032 -0.7695
 3813TIP3   OH232997   3.820   3.201   8.234  0.2645 -0.0287 -0.3365
 3813TIP3    H132998   3.765   3.244   8.300  1.0652  2.6490 -1.2803
 3813TIP3    H232999   3.909   3.225   8.258  0.6416  0.0464 -1.7248
 3814TIP3   OH233000   3.295   6.030   0.387  0.2973 -0.2857 -0.3159
 3814TIP3    H133001   3.347   6.106   0.361 -0.3037  0.1496 -0.2674
 3814TIP3    H233002   3.238   6.014   0.312  1.0623 -1.2754 -0.7053
 3815TIP3   OH233003   6.432   4.337   1.623 -0.0581 -0.0652  0.0769
 3815TIP3    H133004   6.437   4.393   1.700  0.6721  0.1098 -0.0938
 3815TIP3    H233005   6.509   4.281   1.628  0.7376  0.8549 -1.2132
 3816TIP3   OH233006   6.032   2.954   1.321  0.7019  0.8057  0.0945
 3816TIP3    H133007   5.946   2.914   1.332  0.5380  0.3777 -2.2366
 3816TIP3    H233008   6.026   3.037   1.368 -0.4262  0.0763  1.3018
 3817TIP3   OH233009   1.849   1.135   8.555 -0.5912  0.9124  0.6712
 3817TIP3    H133010   1.938   1.104   8.570 -0.6126  0.7892  0.5412
 3817TIP3    H233011   1.797   1.092   8.622 -0.7047  0.2807  0.1918
 3818TIP3   OH233012   3.167   0.138   0.933  0.1569 -0.1728 -0.3023
 3818TIP3    H133013   3.252   0.136   0.889  1.3936 -1.7164  1.9151
 3818TIP3    H233014   3.105   0.166   0.866  2.4622  1.5124 -1.8760
 3819TIP3   OH233015   2.365   2.950   8.186  0.0008  0.4195  0.1253
 3819TIP3    H133016   2.437   3.012   8.172 -0.9476  1.3076 -0.9034
 3819TIP3    H233017   2.323   2.942   8.101 -0.6315 -0.7354  0.5279
 3820TIP3   OH233018   4.010   3.693   6.667  0.2976  0.5338  0.0665
 3820TIP3    H133019   3.961   3.755   6.613 -2.4251  0.2309  1.9365
 3820TIP3    H233020   4.000   3.726   6.756  2.9294 -0.0406  0.6548
 3821TIP3   OH233021   2.400   1.089   1.480  0.3788  0.0975 -0.0276
 3821TIP3    H133022   2.325   1.147   1.466 -0.5989 -0.9666  0.6545
 3821TIP3    H233023   2.366   1.001   1.468  1.3722 -0.4434  0.8813
 3822TIP3   OH233024   0.430   6.354   2.552  0.2295 -0.1116 -0.1136
 3822TIP3    H133025   0.447   6.302   2.473 -0.2419 -1.8119  0.8450
 3822TIP3    H233026   0.361   6.306   2.598  0.5463  0.7820  1.3745
 3823TIP3   OH233027   3.946   6.789   6.542  0.1521  0.3001 -0.0365
 3823TIP3    H133028   4.041   6.791   6.553  0.0688  0.4803  0.7066
 3823TIP3    H233029   3.922   6.880   6.527  0.2254  0.0993 -1.4966
 3824TIP3   OH233030   3.098   2.953   0.761 -0.8401 -0.3599  0.1559
 3824TIP3    H133031   3.096   3.039   0.720 -0.8121 -0.2169  0.4497
 3824TIP3    H233032   3.113   2.971   0.854  2.0499 -0.8141 -0.1373
 3825TIP3   OH233033   3.271   0.580   2.099 -0.2408  0.0457 -0.4115
 3825TIP3    H133034   3.235   0.494   2.122  1.5557 -0.6631 -0.0034
 3825TIP3    H233035   3.283   0.624   2.183 -0.0010  0.1856 -0.5174
 3826TIP3   OH233036   1.656   1.495   1.165 -0.5390 -0.4421  0.0285
 3826TIP3    H133037   1.727   1.559   1.177  1.7920 -2.7206 -0.7614
 3826TIP3    H233038   1.638   1.497   1.071 -2.8549  1.3067  0.4071
 3827TIP3   OH233039   6.693   1.949   8.193 -0.0650 -0.2609 -0.3482
 3827TIP3    H133040   6.678   1.881   8.128 -0.1538 -1.2380  0.6532
 3827TIP3    H233041   6.604   1.973   8.222 -0.0108 -0.1631 -0.2652
 3828TIP3   OH233042   2.420   0.563   1.080  0.5234  0.7754  0.5814
 3828TIP3    H133043   2.374   0.640   1.049  2.5331  1.4635 -0.9296
 3828TIP3    H233044   2.475   0.595   1.151 -0.4651  0.1909  1.6336
 3829TIP3   OH233045   3.355   6.118   2.394  0.7112 -0.2140 -0.2000
 3829TIP3    H133046   3.383   6.028   2.413 -3.3394 -1.6054  0.1695
 3829TIP3    H233047   3.333   6.155   2.480 -2.3735 -0.7764 -0.6417
 3830TIP3   OH233048   1.541   2.199   8.298 -0.1100 -0.0742 -0.1497
 3830TIP3    H133049   1.485   2.195   8.376  1.0503 -1.5726  0.6778
 3830TIP3    H233050   1.518   2.120   8.248 -1.2179  1.1358 -1.6582
 3831TIP3   OH233051   1.381   2.340   1.679 -0.3290  0.2439 -0.1923
 3831TIP3    H133052   1.304   2.349   1.623 -0.6848  0.1993  0.2885
 3831TIP3    H233053   1.366   2.260   1.729  0.4407 -0.2524 -0.7303
 3832TIP3   OH233054   0.326   1.593   8.599 -0.1681  0.2304 -0.5102
 3832TIP3    H133055   0.243   1.636   8.580 -1.3729 -2.1128 -1.0514
 3832TIP3    H233056   0.370   1.588   8.514  1.5486  3.2335  0.0848
 3833TIP3   OH233057   0.235   1.616   1.367  0.4177 -0.3394  0.2521
 3833TIP3    H133058   0.275   1.702   1.379 -1.3776  0.9989 -2.2312
 3833TIP3    H233059   0.170   1.630   1.297 -0.5792 -3.5250  0.3880
 3834TIP3   OH233060   0.819   2.802   7.463  0.3131 -0.2695  0.2425
 3834TIP3    H133061   0.846   2.710   7.461 -0.5222 -0.5097 -1.2628
 3834TIP3    H233062   0.724   2.798   7.475  0.2231  0.3821 -0.2192
 3835TIP3   OH233063   3.534   1.525   1.130  0.0988 -1.1993  0.4279
 3835TIP3    H133064   3.550   1.539   1.037  0.6396 -0.0782  0.6642
 3835TIP3    H233065   3.477   1.598   1.156  0.6539 -0.9949  1.1314
 3836TIP3   OH233066   1.154   4.862   2.689 -0.2577 -0.4668 -0.5914
 3836TIP3    H133067   1.060   4.876   2.688  0.0250  2.4231  1.1584
 3836TIP3    H233068   1.165   4.767   2.681 -3.3764 -1.0928  1.1546
 3837TIP3   OH233069   2.018   0.351   8.449 -0.2612  0.0395  0.1260
 3837TIP3    H133070   2.031   0.257   8.448 -0.2451  0.0365 -1.0657
 3837TIP3    H233071   2.106   0.388   8.448 -0.1881  0.1219  2.6373
 3838TIP3   OH233072   4.383   6.289   7.294 -0.0237 -0.6533  0.3340
 3838TIP3    H133073   4.322   6.236   7.242  0.6721 -1.7488  0.6090
 3838TIP3    H233074   4.410   6.360   7.235  0.6944 -1.8328 -0.7885
 3839TIP3   OH233075   5.984   6.657   8.298  0.3988 -0.5914 -0.8811
 3839TIP3    H133076   6.002   6.684   8.208  0.7636 -0.1076 -0.6693
 3839TIP3    H233077   5.894   6.624   8.296 -0.0104  0.5086 -1.1785
 3840TIP3   OH233078   3.829   3.830   0.753 -0.0289 -0.2744 -0.3405
 3840TIP3    H133079   3.910   3.867   0.789  0.3575 -1.6433  0.2438
 3840TIP3    H233080   3.774   3.815   0.830 -0.9499  0.8590 -0.7534
 3841TIP3   OH233081   0.607   0.448   7.370 -0.2186 -0.2568 -0.0774
 3841TIP3    H133082   0.544   0.498   7.422  0.1629 -0.7831  0.9288
 3841TIP3    H233083   0.687   0.448   7.423 -0.1582 -1.7730 -0.1128
 3842TIP3   OH233084   2.195   5.930   6.911 -0.6936  0.0470 -0.1155
 3842TIP3    H133085   2.231   5.939   6.823 -1.1317  0.2183 -0.2814
 3842TIP3    H233086   2.269   5.950   6.969 -0.6811  1.0801 -0.4574
 3843TIP3   OH233087   0.052   1.454   8.029 -0.3680 -0.9393 -0.2723
 3843TIP3    H133088   0.025   1.418   7.944 -0.8789 -1.5847  0.1600
 3843TIP3    H233089  -0.030   1.473   8.074 -0.2075  2.3068 -1.0752
 3844TIP3   OH233090   1.201   1.327   0.779 -0.6545  0.2108 -0.2155
 3844TIP3    H133091   1.269   1.378   0.823  0.0524  1.0590 -2.1985
 3844TIP3    H233092   1.144   1.297   0.850  1.6191 -0.3113  1.4918
 3845TIP3   OH233093   3.427   1.592   6.965 -0.5047  0.4561 -0.4355
 3845TIP3    H133094   3.509   1.542   6.974 -0.4319  0.7593  0.6737
 3845TIP3    H233095   3.444   1.674   7.011 -1.7729  0.1134  0.6979
 3846TIP3   OH233096   6.336   3.137   8.359  0.1749  0.1680  0.3747
 3846TIP3    H133097   6.324   3.230   8.376 -0.2995  0.2940 -0.5959
 3846TIP3    H233098   6.390   3.106   8.431  0.1683  1.1519  0.8123
 3847TIP3   OH233099   3.342   2.602   1.576  0.4418  0.3850  0.0718
 3847TIP3    H133100   3.317   2.516   1.609 -0.2822  1.4026  2.3214
 3847TIP3    H233101   3.435   2.610   1.599  0.2673  0.5698  0.7323
 3848TIP3   OH233102   0.984   6.705   0.498  0.1234 -0.1391 -0.1499
 3848TIP3    H133103   0.962   6.759   0.574  1.2557  0.8982 -0.5286
 3848TIP3    H233104   1.000   6.768   0.427 -0.9413 -1.0853 -1.2756
 3849TIP3   OH233105   1.592   1.223   1.560 -0.2774  0.3439 -0.2477
 3849TIP3    H133106   1.649   1.186   1.627  0.8668  2.1547 -0.1422
 3849TIP3    H233107   1.650   1.244   1.487 -0.8418  1.8373 -0.3035
 3850TIP3   OH233108   1.591   4.101   0.783 -0.0233  0.0731 -0.3446
 3850TIP3    H133109   1.685   4.113   0.772  0.2971 -0.4916  1.4521
 3850TIP3    H233110   1.555   4.190   0.788  0.7341  0.3311  1.0977
 3851TIP3   OH233111   4.864   0.250   2.353  1.0532 -0.0747  0.3948
 3851TIP3    H133112   4.894   0.340   2.370 -0.5062  0.4502  0.4936
 3851TIP3    H233113   4.858   0.245   2.258  3.2765 -0.8386  0.2272
 3852TIP3   OH233114   0.527   0.553   7.766 -0.4361 -0.0398 -0.4125
 3852TIP3    H133115   0.471   0.567   7.842  0.0483  0.1524 -0.0828
 3852TIP3    H233116   0.579   0.476   7.788  1.3338  1.3111  0.4661
 3853TIP3   OH233117   5.670   4.493   8.243 -0.6042  0.1746  0.1896
 3853TIP3    H133118   5.593   4.442   8.266  0.6277 -1.1449  1.6384
 3853TIP3    H233119   5.706   4.450   8.165 -2.0851  1.6966 -1.4197
 3854TIP3   OH233120   5.392   1.671   6.453 -0.1583  0.1968  0.0095
 3854TIP3    H133121   5.448   1.642   6.380  0.0154  0.4462  0.0425
 3854TIP3    H233122   5.409   1.765   6.460  1.2108 -0.1259  1.5531
 3855TIP3   OH233123   0.908   2.160   0.411  0.3427  0.1301  0.1061
 3855TIP3    H133124   0.855   2.169   0.490  0.8479  1.3478  0.3311
 3855TIP3    H233125   0.994   2.133   0.442  0.1459 -0.8610 -0.1724
 3856TIP3   OH233126   5.299   5.044   0.184 -0.3789  0.0735 -0.0288
 3856TIP3    H133127   5.376   5.025   0.130 -0.3727  1.9408 -0.7783
 3856TIP3    H233128   5.274   4.960   0.221 -0.2543 -1.3086 -2.8110
 3857TIP3   OH233129   6.245   4.054   8.314 -0.0987  0.1576 -0.1069
 3857TIP3    H133130   6.309   4.040   8.383  0.0802  0.9943 -0.0919
 3857TIP3    H233131   6.258   3.981   8.253 -0.2391 -0.5725  0.7158
 3858TIP3   OH233132   1.007   4.092   7.361  0.0968  0.3973  0.2971
 3858TIP3    H133133   1.102   4.094   7.352  0.0747 -0.9335 -0.6118
 3858TIP3    H233134   0.975   4.151   7.292  0.2396 -0.8018 -0.8379
 3859TIP3   OH233135   3.838   0.184   0.158 -0.7326 -0.0667 -0.2772
 3859TIP3    H133136   3.833   0.095   0.193  0.9679 -0.4753 -0.9811
 3859TIP3    H233137   3.785   0.181   0.078 -1.8769 -0.0296  0.4616
 3860TIP3   OH233138   0.907   5.421   1.635  0.2986 -0.4720  0.3729
 3860TIP3    H133139   0.845   5.401   1.564  1.9377 -1.2141 -0.9125
 3860TIP3    H233140   0.926   5.336   1.674  1.9378 -0.5636 -0.5205
 3861TIP3   OH233141   5.142   3.350   0.154  0.2592 -0.5093 -0.4233
 3861TIP3    H133142   5.101   3.376   0.237 -0.5730 -3.6933  0.2890
 3861TIP3    H233143   5.232   3.382   0.162 -0.5334  1.7385  0.4139
 3862TIP3   OH233144   2.563   5.477   1.433  0.2436  0.0570 -0.0780
 3862TIP3    H133145   2.482   5.427   1.433  0.2480  0.0496 -0.0630
 3862TIP3    H233146   2.558   5.531   1.354  0.5956 -0.5397 -0.5144
 3863TIP3   OH233147   6.200   1.550   2.806  0.4758  0.1137  0.8813
 3863TIP3    H133148   6.107   1.531   2.813  0.4962 -0.7057 -0.7493
 3863TIP3    H233149   6.204   1.642   2.779  0.1313  0.0599  0.6487
 3864TIP3   OH233150   0.156   1.386   8.664  0.0881  0.3375 -0.1652
 3864TIP3    H133151   0.235   1.438   8.651  0.9852 -1.1631 -1.0046
 3864TIP3    H233152   0.148   1.334   8.584 -2.5266  1.4026 -0.6857
 3865TIP3   OH233153   3.384   3.456   8.540 -0.5458  0.1335 -0.6921
 3865TIP3    H133154   3.368   3.456   8.446  0.8827 -0.8006 -0.9683
 3865TIP3    H233155   3.381   3.548   8.565  0.9780  0.5871 -2.0219
 3866TIP3   OH233156   4.748   0.814   0.726  0.3678  0.4227  0.4277
 3866TIP3    H133157   4.786   0.786   0.810  0.1074  0.9855  0.7386
 3866TIP3    H233158   4.654   0.803   0.737  0.3961 -0.4959 -0.1691
 3867TIP3   OH233159   6.232   1.678   7.196  0.9747 -0.4880 -0.6752
 3867TIP3    H133160   6.204   1.752   7.142 -0.3599 -0.6836 -0.2924
 3867TIP3    H233161   6.162   1.667   7.261  2.5060 -0.2604  1.1215
 3868TIP3   OH233162   5.572   5.396   7.181 -0.3554 -0.2978  0.3387
 3868TIP3    H133163   5.514   5.467   7.208 -0.8016 -1.4735  2.8206
 3868TIP3    H233164   5.608   5.362   7.264  1.7446 -1.3830 -0.9264
 3869TIP3   OH233165   6.289   4.279   2.435 -0.5460  0.5058 -0.2643
 3869TIP3    H133166   6.240   4.289   2.516  0.0716  2.2634 -0.0707
 3869TIP3    H233167   6.233   4.225   2.379 -1.3451 -0.0312  1.0161
 3870TIP3   OH233168   2.144   6.498   7.731 -0.0370  0.0049  0.2087
 3870TIP3    H133169   2.180   6.586   7.744  1.6944 -0.6347 -0.0251
 3870TIP3    H233170   2.193   6.462   7.658  0.8933 -1.9621  1.7016
 3871TIP3   OH233171   1.888   5.959   0.338  0.1079 -0.1389  0.0514
 3871TIP3    H133172   1.922   5.942   0.250  0.1056  0.3681 -0.0485
 3871TIP3    H233173   1.795   5.978   0.324 -0.4969 -2.4569  0.4114
 3872TIP3   OH233174   6.340   4.321   8.303 -0.1448 -0.3266  0.8671
 3872TIP3    H133175   6.290   4.394   8.267  1.1303 -1.2771 -3.3974
 3872TIP3    H233176   6.284   4.244   8.290  1.0469 -0.9529 -1.1363
 3873TIP3   OH233177   1.605   5.243   8.644 -0.1008  0.2430  0.5609
 3873TIP3    H133178   1.526   5.272   8.599 -1.0231  1.5376  2.8158
 3873TIP3    H233179   1.677   5.282   8.594 -1.1088  2.2960  0.6130
 3874TIP3   OH233180   2.736   3.923   7.443 -0.0428 -0.7830  0.5174
 3874TIP3    H133181   2.827   3.923   7.472  0.0408  1.5843  0.3960
 3874TIP3    H233182   2.740   3.930   7.348 -0.3108  1.2114  0.6181
 3875TIP3   OH233183   1.595   0.167   7.958  0.2698  0.1079  0.0023
 3875TIP3    H133184   1.651   0.217   8.017  0.2696  0.3118 -0.1677
 3875TIP3    H233185   1.542   0.112   8.016  1.8062 -1.3479  0.1195
 3876TIP3   OH233186   4.195   6.875   8.556  0.3784  0.1605 -0.1314
 3876TIP3    H133187   4.247   6.859   8.635  0.5376  1.4879  0.0509
 3876TIP3    H233188   4.114   6.826   8.571  0.4340  0.3314  0.8233
 3877TIP3   OH233189   2.889   6.516   7.856  0.0989 -0.0112  0.0351
 3877TIP3    H133190   2.853   6.486   7.773 -1.0976  0.2182  0.4397
 3877TIP3    H233191   2.944   6.444   7.886 -1.6621 -1.3091  0.3443
 3878TIP3   OH233192   4.459   3.877   1.350 -0.2489 -0.0484 -0.1459
 3878TIP3    H133193   4.429   3.963   1.379 -0.9238 -0.1086 -0.6284
 3878TIP3    H233194   4.447   3.820   1.425  1.2945  0.5008  0.5595
 3879TIP3   OH233195   4.172   6.830   8.162  0.3505  0.1246 -0.4618
 3879TIP3    H133196   4.259   6.803   8.133 -0.6615 -1.0531 -2.5871
 3879TIP3    H233197   4.138   6.754   8.210  1.0078  1.1371  1.7789
 3880TIP3   OH233198   5.058   4.661   1.611 -0.4186  0.5092  0.1964
 3880TIP3    H133199   5.120   4.733   1.606  0.0299  0.1392  0.3673
 3880TIP3    H233200   5.036   4.654   1.704 -1.3091  1.1275  0.0493
 3881TIP3   OH233201   6.151   3.418   7.340 -0.5503 -0.0636  0.2415
 3881TIP3    H133202   6.171   3.493   7.283 -2.3387  0.6252  0.4760
 3881TIP3    H233203   6.162   3.452   7.429 -1.2157 -0.1212  0.3467
 3882TIP3   OH233204   3.794   5.800   8.310  0.0928 -0.0381 -0.0477
 3882TIP3    H133205   3.888   5.819   8.320 -0.0462  0.3021  0.7149
 3882TIP3    H233206   3.770   5.841   8.226  0.5614  0.1458 -0.0954
 3883TIP3   OH233207   4.006   1.117   6.966 -0.0116 -1.3010 -0.6325
 3883TIP3    H133208   3.920   1.091   6.934 -0.2218  0.0797 -1.2351
 3883TIP3    H233209   4.061   1.122   6.888  0.3350 -1.1139 -0.3804
 3884TIP3   OH233210   5.300   0.059   8.429 -0.0323 -0.5779  0.0349
 3884TIP3    H133211   5.206   0.059   8.445 -0.2292 -1.6347 -0.9817
 3884TIP3    H233212   5.330   0.144   8.460 -1.1744 -0.5640  1.1842
 3885TIP3   OH233213   5.272   1.211   7.053 -0.0524  0.6690  0.0958
 3885TIP3    H133214   5.196   1.160   7.023  0.0993  0.5419 -0.0786
 3885TIP3    H233215   5.347   1.156   7.031  0.0851  0.7443  0.3687
 3886TIP3   OH233216   1.803   4.020   8.216 -0.6806 -0.1320 -0.1628
 3886TIP3    H133217   1.747   4.095   8.195 -1.4616 -0.7255 -0.2555
 3886TIP3    H233218   1.844   4.043   8.299 -0.8270  0.4480 -0.2473
 3887TIP3   OH233219   2.713   3.574   0.507 -0.1036  0.5388  0.4204
 3887TIP3    H133220   2.680   3.600   0.421 -0.3034  1.8709  0.8835
 3887TIP3    H233221   2.659   3.498   0.531  0.7579 -0.6285 -1.1207
 3888TIP3   OH233222   3.184   0.393   0.058  0.1768  0.5111  0.1816
 3888TIP3    H133223   3.101   0.420   0.018  1.7909  3.4055 -1.4765
 3888TIP3    H233224   3.173   0.299   0.072 -3.1512  0.6621 -0.4644
 3889TIP3   OH233225   0.362   0.129   2.792  0.5310 -0.1447 -0.1317
 3889TIP3    H133226   0.410   0.208   2.765  1.3205 -0.2593  0.8585
 3889TIP3    H233227   0.321   0.154   2.875  1.7069 -1.0934  0.7705
 3890TIP3   OH233228   6.051   5.273   1.542 -0.0404 -0.4728  0.0176
 3890TIP3    H133229   6.057   5.235   1.455  0.9126  0.2088 -0.2325
 3890TIP3    H233230   6.100   5.212   1.598 -0.8317 -1.0196  0.1220
 3891TIP3   OH233231   5.318   3.686   1.012  0.2286 -0.4254 -0.7239
 3891TIP3    H133232   5.412   3.707   1.007  0.4266 -1.1009  0.0512
 3891TIP3    H233233   5.315   3.591   1.023 -0.6357 -0.7232 -2.9810
 3892TIP3   OH233234   2.214   1.445   1.001 -0.0452  0.1744 -0.3817
 3892TIP3    H133235   2.140   1.435   1.061 -0.0102  2.1602  0.0872
 3892TIP3    H233236   2.267   1.366   1.013 -0.3434  0.2590  1.8032
 3893TIP3   OH233237   6.005   5.078   7.511 -0.4605  0.1581  0.5040
 3893TIP3    H133238   5.960   5.019   7.572  0.4357 -0.3177  0.7228
 3893TIP3    H233239   5.992   5.039   7.425  1.3508 -1.2020  0.7926
 3894TIP3   OH233240   6.444   1.459   6.870  0.4265 -0.0959  0.2093
 3894TIP3    H133241   6.469   1.372   6.839 -0.9585 -0.8582  1.1566
 3894TIP3    H233242   6.511   1.517   6.833  0.7023 -1.3783 -1.4533
 3895TIP3   OH233243   0.668   2.493   7.677  0.0799  0.0823 -0.9429
 3895TIP3    H133244   0.673   2.412   7.728  0.4425 -0.5307 -1.9265
 3895TIP3    H233245   0.620   2.554   7.734  1.2001 -0.3056  0.4605
 3896TIP3   OH233246   2.425   1.597   8.328 -0.0424  0.1157  0.4833
 3896TIP3    H133247   2.499   1.590   8.387  0.4033  0.8439  0.0259
 3896TIP3    H233248   2.365   1.657   8.371  0.2468  0.5836  0.2478
 3897TIP3   OH233249   3.816   1.303   2.334  0.7034  0.2351 -0.1819
 3897TIP3    H133250   3.813   1.210   2.355 -2.1712  0.0582 -0.9091
 3897TIP3    H233251   3.749   1.315   2.267 -1.0820  3.2587  1.8677
 3898TIP3   OH233252   3.579   5.467   0.372 -0.0185  0.2991  0.6122
 3898TIP3    H133253   3.596   5.517   0.451 -1.7166  2.6507 -0.4038
 3898TIP3    H233254   3.552   5.380   0.403  0.2803  0.8681  2.5347
 3899TIP3   OH233255   6.391   6.613   1.946 -0.4970  0.2297 -0.0600
 3899TIP3    H133256   6.363   6.528   1.979  1.7619 -0.4828  0.2096
 3899TIP3    H233257   6.347   6.676   2.002 -1.1069 -0.8003  0.6559
 3900TIP3   OH233258   0.593   4.548   8.137  0.1802 -0.4985  0.0963
 3900TIP3    H133259   0.659   4.592   8.083 -0.2849 -0.9418 -0.8713
 3900TIP3    H233260   0.642   4.486   8.190  0.7429  0.5509  0.8272
 3901TIP3   OH233261   6.855   6.084   7.760  0.7693 -0.1912 -0.1639
 3901TIP3    H133262   6.883   5.993   7.751  0.7288 -0.0386 -2.7112
 3901TIP3    H233263   6.789   6.095   7.691  1.4009  1.9755 -0.4905
 3902TIP3   OH233264   3.341   4.184   0.698 -0.2182  0.5169 -0.2258
 3902TIP3    H133265   3.334   4.102   0.747  0.2538  2.9098  4.3783
 3902TIP3    H233266   3.264   4.184   0.641 -2.4140 -1.5050  2.4422
 3903TIP3   OH233267   3.566   5.165   7.068  0.4845 -0.4581 -0.0732
 3903TIP3    H133268   3.477   5.200   7.076  0.9241  1.0141 -1.2598
 3903TIP3    H233269   3.554   5.081   7.022 -0.2984 -0.3617 -0.0678
 3904TIP3   OH233270   1.952   2.990   0.459 -0.0664 -0.8960  0.0576
 3904TIP3    H133271   1.982   2.901   0.439  1.9152 -0.4033  0.6257
 3904TIP3    H233272   2.028   3.046   0.440 -0.0455  0.2687  3.0965
 3905TIP3   OH233273   3.300   5.195   8.475  0.1641  0.0437  0.2352
 3905TIP3    H133274   3.364   5.158   8.536  0.0923  0.7611  0.7550
 3905TIP3    H233275   3.344   5.270   8.436 -1.0043  1.7414  2.0455
 3906TIP3   OH233276   2.677   4.468   0.732 -1.1751  0.1701 -0.1283
 3906TIP3    H133277   2.702   4.447   0.821 -0.1638 -0.3683 -0.5239
 3906TIP3    H233278   2.663   4.384   0.690 -2.0619  0.4291 -0.3722
 3907TIP3   OH233279   1.289   0.372   8.256 -0.3599  0.0740  0.0285
 3907TIP3    H133280   1.277   0.343   8.166 -0.8104 -0.5204  0.2701
 3907TIP3    H233281   1.321   0.294   8.302  2.7496  1.0900 -0.1871
 3908TIP3   OH233282   3.368   6.167   8.307  0.4857 -0.4190 -0.1198
 3908TIP3    H133283   3.407   6.198   8.389 -1.8437  0.0560  0.8713
 3908TIP3    H233284   3.303   6.233   8.285 -1.1296 -2.1123 -0.6466
 3909TIP3   OH233285   2.898   4.675   0.678 -0.3019 -0.1326 -0.3828
 3909TIP3    H133286   2.823   4.615   0.669 -0.4767 -0.3370  1.8498
 3909TIP3    H233287   2.960   4.627   0.732 -0.1154  1.3935  0.8252
 3910TIP3   OH233288   1.070   0.688   1.101 -0.2850 -0.2164  0.0222
 3910TIP3    H133289   0.994   0.737   1.069 -0.8002 -0.8154  0.2869
 3910TIP3    H233290   1.084   0.721   1.190  0.8505  1.1097 -0.6105
 3911TIP3   OH233291   3.253   5.359   7.891 -0.6087 -0.6122  0.3626
 3911TIP3    H133292   3.216   5.275   7.865  1.2078 -0.4738 -3.4908
 3911TIP3    H233293   3.224   5.420   7.823  0.6675  1.1373  1.2853
 3912TIP3   OH233294   2.679   0.475   6.680 -0.0146 -0.5629 -0.2650
 3912TIP3    H133295   2.656   0.559   6.640  1.3650  0.7384  1.4800
 3912TIP3    H233296   2.673   0.411   6.608  0.5208  1.3068 -2.0769
 3913TIP3   OH233297   2.252   4.268   2.221  0.1475  0.1648 -0.9656
 3913TIP3    H133298   2.227   4.234   2.135  2.0074 -2.7554 -0.4647
 3913TIP3    H233299   2.294   4.195   2.265 -0.1686  1.7506  2.2561
 3914TIP3   OH233300   4.627   5.390   1.647 -0.0403  0.1014  0.2486
 3914TIP3    H133301   4.567   5.452   1.607 -0.8424  0.1101  1.3987
 3914TIP3    H233302   4.669   5.439   1.718  1.1401  0.0185 -0.3754
 3915TIP3   OH233303   6.395   6.227   8.475 -0.3590  0.0125 -0.0613
 3915TIP3    H133304   6.360   6.180   8.400  0.2592 -1.7538  0.6982
 3915TIP3    H233305   6.490   6.216   8.468 -0.3234 -0.6340  1.2473
 3916TIP3   OH233306   3.023   1.880   8.460 -0.2479 -0.2467 -0.4525
 3916TIP3    H133307   2.958   1.888   8.391  0.7883  0.4859 -1.3674
 3916TIP3    H233308   2.994   1.804   8.511 -1.0346 -0.8070 -1.6853
 3917TIP3   OH233309   1.411   4.223   8.622 -0.1416 -0.2793 -0.6263
 3917TIP3    H133310   1.504   4.205   8.616  0.2685  1.7308 -1.2130
 3917TIP3    H233311   1.402   4.313   8.590 -2.1355 -0.0226  0.4787
 3918TIP3   OH233312   1.434   6.575   0.653 -0.2595 -0.0062  0.0593
 3918TIP3    H133313   1.392   6.518   0.718  1.7868 -2.1957 -0.3729
 3918TIP3    H233314   1.512   6.609   0.699  0.1971 -0.0720 -0.6525
 3919TIP3   OH233315   0.144   0.002   7.171 -0.2971 -0.1491 -0.3107
 3919TIP3    H133316   0.053   0.018   7.148 -0.1421  1.0234 -0.1606
 3919TIP3    H233317   0.172  -0.067   7.111 -1.8553 -2.0424  1.0214
 3920TIP3   OH233318   4.566   2.223   7.624  0.2206  0.1435  0.2330
 3920TIP3    H133319   4.499   2.286   7.595 -0.3860 -0.4369  0.3504
 3920TIP3    H233320   4.649   2.265   7.601 -0.1725  0.9803  0.2890
 3921TIP3   OH233321   1.766   2.627   7.060  0.4603 -0.2293 -0.0973
 3921TIP3    H133322   1.676   2.657   7.077  0.3311 -0.1173 -0.8983
 3921TIP3    H233323   1.756   2.536   7.032  0.3068  0.4926 -2.6136
 3922TIP3   OH233324   2.500   4.362   8.386 -0.0302  0.4147 -0.2825
 3922TIP3    H133325   2.512   4.267   8.387 -0.1708  0.3861  0.7795
 3922TIP3    H233326   2.500   4.386   8.294 -0.2532 -0.6562 -0.5745
 3923TIP3   OH233327   5.864   4.106   1.236 -0.0780 -0.1865  0.2000
 3923TIP3    H133328   5.911   4.090   1.317 -1.8321 -0.9771  1.1040
 3923TIP3    H233329   5.830   4.195   1.245 -0.0752 -0.1863  0.2100
 3924TIP3   OH233330   2.466   1.059   1.838  0.3553 -0.0050  0.5675
 3924TIP3    H133331   2.509   0.978   1.866 -0.9817 -1.4009 -1.2127
 3924TIP3    H233332   2.422   1.091   1.917 -1.2482 -2.4378  0.7710
 3925TIP3   OH233333   6.272   3.149   1.058  0.0562  0.1256  0.2285
 3925TIP3    H133334   6.227   3.158   1.143  2.0220  1.3998  1.2016
 3925TIP3    H233335   6.213   3.094   1.006 -2.4955  1.4650  1.4857
 3926TIP3   OH233336   2.345   6.723   0.026 -0.4275  0.3266 -0.0600
 3926TIP3    H133337   2.431   6.688   0.050 -0.9730 -0.4478  0.7883
 3926TIP3    H233338   2.282   6.668   0.072 -1.4437  0.1908 -1.5396
 3927TIP3   OH233339   3.880   5.778   0.530  0.1518  0.4483  0.5501
 3927TIP3    H133340   3.928   5.861   0.536  0.8609  0.1057 -0.1140
 3927TIP3    H233341   3.948   5.711   0.521 -0.4545 -0.0306 -0.7047
 3928TIP3   OH233342   6.560   1.665   7.069  0.2241  0.3192 -0.0207
 3928TIP3    H133343   6.620   1.636   6.999 -0.6165  1.7322 -1.3919
 3928TIP3    H233344   6.582   1.757   7.081 -0.5501  0.4151  0.6600
 3929TIP3   OH233345   2.339   6.393   8.388 -0.6831  0.4658 -0.0531
 3929TIP3    H133346   2.414   6.396   8.448  0.2876  0.9055 -1.2434
 3929TIP3    H233347   2.264   6.420   8.441 -0.0621 -0.2747  1.2442
 3930TIP3   OH233348   3.887   0.878   1.109 -0.1369  0.4919 -0.2274
 3930TIP3    H133349   3.792   0.882   1.096 -0.4553  0.5753  1.8263
 3930TIP3    H233350   3.899   0.812   1.177  1.3793 -0.1941 -1.1058
 3931TIP3   OH233351   6.072   3.179   7.311 -0.0068  0.0165 -0.0934
 3931TIP3    H133352   6.166   3.167   7.319  0.1480  0.6129 -0.9009
 3931TIP3    H233353   6.059   3.274   7.319 -0.3634  0.1174 -1.5377
 3932TIP3   OH233354   6.369   6.781   1.292  0.3607 -0.0186  0.0120
 3932TIP3    H133355   6.350   6.867   1.329  1.4639 -0.1130  0.8413
 3932TIP3    H233356   6.433   6.798   1.223 -1.5286  0.1322 -1.7982
 3933TIP3   OH233357   0.790   1.539   6.132  0.0738 -0.9523  0.2162
 3933TIP3    H133358   0.839   1.558   6.052  0.6662 -0.7811  0.6168
 3933TIP3    H233359   0.853   1.549   6.203 -0.7891  0.3285  0.8414
 3934TIP3   OH233360   6.470   3.039   8.118 -0.0376 -0.6771  0.4636
 3934TIP3    H133361   6.542   2.976   8.125  0.4193 -0.1467  0.5318
 3934TIP3    H233362   6.444   3.055   8.209  0.1330 -0.4367  0.4701
 3935TIP3   OH233363   4.619   6.386   0.993 -0.3721 -0.0922 -0.6312
 3935TIP3    H133364   4.625   6.481   0.999  1.4157 -0.1541 -0.7182
 3935TIP3    H233365   4.635   6.366   0.901  1.9100 -0.5510 -0.2066
 3936TIP3   OH233366   0.467   1.242   0.770  0.0096  0.2105  0.5125
 3936TIP3    H133367   0.460   1.198   0.685 -0.1514 -0.3431  0.8072
 3936TIP3    H233368   0.529   1.188   0.819  0.2456  0.6346  0.6821
 3937TIP3   OH233369   3.689   2.953   1.718  0.3860  0.1157  0.2529
 3937TIP3    H133370   3.710   3.011   1.791 -0.2797 -0.7461  1.1693
 3937TIP3    H233371   3.644   2.879   1.759  1.8191 -1.3902 -0.7665
 3938TIP3   OH233372   6.040   3.837   1.061 -0.2496  0.0626  0.2373
 3938TIP3    H133373   6.014   3.746   1.043 -1.0529  0.3487 -0.0941
 3938TIP3    H233374   6.106   3.830   1.130 -0.9644 -0.7143  0.8659
 3939TIP3   OH233375   3.060   1.535   8.344  0.5196  0.0430  0.2880
 3939TIP3    H133376   3.017   1.548   8.259  1.9084  0.3608 -0.3919
 3939TIP3    H233377   2.999   1.573   8.408 -0.8875 -0.8581 -0.4698
 3940TIP3   OH233378   0.301   1.971   0.488  0.3115 -0.4371  0.2955
 3940TIP3    H133379   0.282   2.064   0.503  0.1421 -0.8088  3.0007
 3940TIP3    H233380   0.351   1.944   0.565  0.5025 -2.5580 -0.4937
 3941TIP3   OH233381   5.973   4.146   8.329 -0.1663 -0.0122  0.1757
 3941TIP3    H133382   6.062   4.111   8.331 -0.4197 -0.7765 -1.0572
 3941TIP3    H233383   5.925   4.092   8.392 -0.6238 -2.2303 -1.8959
 3942TIP3   OH233384   0.039   5.638   8.100  0.3377  0.1634 -0.1599
 3942TIP3    H133385   0.008   5.630   8.010 -0.5248  1.4165 -0.0000
 3942TIP3    H233386  -0.040   5.653   8.151  0.9742  1.1266  0.5724
 3943TIP3   OH233387   6.291   6.142   1.486  0.0100  0.4189  0.9267
 3943TIP3    H133388   6.247   6.216   1.529  0.8843  1.6445 -0.2079
 3943TIP3    H233389   6.365   6.182   1.440  1.8725 -1.4807  2.1347
 3944TIP3   OH233390   6.656   4.370   0.310  0.5432  0.0976 -0.3671
 3944TIP3    H133391   6.674   4.388   0.218 -1.4286  0.0456 -0.7936
 3944TIP3    H233392   6.588   4.433   0.334  0.4199 -0.4602  0.8112
 3945TIP3   OH233393   1.219   1.988   1.535  0.0700 -0.1481 -0.0518
 3945TIP3    H133394   1.152   1.944   1.587  0.5421  0.7620  1.3887
 3945TIP3    H233395   1.170   2.041   1.472 -0.5420 -0.2811  0.3120
 3946TIP3   OH233396   6.453   4.794   2.882  0.7334 -0.3753 -0.0941
 3946TIP3    H133397   6.524   4.855   2.865  0.5076 -0.0786  0.0137
 3946TIP3    H233398   6.378   4.832   2.836 -0.0392  0.7429  1.9673
 3947TIP3   OH233399   4.276   0.154   7.442  0.2332  0.3021  0.1460
 3947TIP3    H133400   4.202   0.112   7.486 -0.7302  1.9980  0.2532
 3947TIP3    H233401   4.235   0.205   7.371  1.6904 -2.1067 -2.6366
 3948TIP3   OH233402   6.861   0.001   0.009 -0.0275  0.7459  0.0218
 3948TIP3    H133403   6.862  -0.069   0.074 -0.6365  0.9828  0.2959
 3948TIP3    H233404   6.794  -0.027  -0.054 -0.3255  1.1135  0.1736
 3949TIP3   OH233405   2.365   5.386   7.699 -0.1762 -0.4368  0.0799
 3949TIP3    H133406   2.391   5.297   7.676 -2.6664 -0.5464 -2.9026
 3949TIP3    H233407   2.294   5.375   7.762  0.2137 -0.4824  0.5205
 3950TIP3   OH233408   0.631   5.768   8.643  0.1327  0.2688 -0.3761
 3950TIP3    H133409   0.625   5.789   8.736  1.4389  2.6600 -0.7417
 3950TIP3    H233410   0.540   5.755   8.615 -0.3482  0.4404  1.0234
 3951TIP3   OH233411   5.978   0.271   8.642  0.0819  0.0434  0.0887
 3951TIP3    H133412   6.067   0.278   8.675  0.6229  0.6778 -1.4166
 3951TIP3    H233413   5.972   0.182   8.608  0.5804  0.4002 -0.9651
 3952TIP3   OH233414   5.942   3.418   7.683  0.5009  0.0597 -0.0542
 3952TIP3    H133415   5.958   3.391   7.773 -0.5154  0.1634  0.1687
 3952TIP3    H233416   5.984   3.350   7.630  2.1169  0.6171  0.4807
 3953TIP3   OH233417   4.034   2.714   0.332  0.1845 -0.1798 -0.3213
 3953TIP3    H133418   4.000   2.761   0.256  0.6348  0.6351 -0.0362
 3953TIP3    H233419   4.078   2.781   0.384 -0.1996 -0.7078  0.7155
 3954TIP3   OH233420   2.344   3.842   0.276 -0.6957 -0.2148 -0.1102
 3954TIP3    H133421   2.322   3.779   0.344  0.1139 -0.7375 -0.3128
 3954TIP3    H233422   2.419   3.890   0.310 -0.2056 -0.5631 -0.6665
 3955TIP3   OH233423   0.226   3.532   7.573  0.1598 -0.1524 -0.1965
 3955TIP3    H133424   0.139   3.558   7.542  0.3292  1.3849  0.5221
 3955TIP3    H233425   0.284   3.550   7.499  0.0640  0.1339 -0.2021
 3956TIP3   OH233426   5.814   4.611   3.021  0.1556  0.2010 -0.0685
 3956TIP3    H133427   5.876   4.572   3.083 -0.4109  0.0236  0.4014
 3956TIP3    H233428   5.768   4.678   3.072 -0.1765  0.1892 -0.3493
 3957TIP3   OH233429   6.396   6.655   7.721  0.2538 -0.6937 -0.4169
 3957TIP3    H133430   6.348   6.736   7.737  1.1204 -0.4080  0.9440
 3957TIP3    H233431   6.334   6.598   7.676 -0.6849  0.3772 -0.5146
 3958TIP3   OH233432   2.793   6.432   0.604  0.2233  0.2146 -0.0407
 3958TIP3    H133433   2.789   6.494   0.532  0.3078 -0.6675 -0.8228
 3958TIP3    H233434   2.722   6.458   0.662  1.3089  2.0789  0.5274
 3959TIP3   OH233435   6.769   0.865   1.478  0.2425  0.4299  0.7042
 3959TIP3    H133436   6.795   0.891   1.566 -2.4647 -1.1943  2.1500
 3959TIP3    H233437   6.674   0.857   1.483  0.1685 -1.6160 -1.8239
 3960TIP3   OH233438   1.103   3.913   7.568 -0.4600  0.1061 -0.0101
 3960TIP3    H133439   1.050   3.960   7.632  1.1698  1.6850  0.2831
 3960TIP3    H233440   1.075   3.948   7.483  0.3650  1.2921  0.1746
 3961TIP3   OH233441   0.751   3.404   2.695  0.0167  0.0137  0.0742
 3961TIP3    H133442   0.695   3.444   2.761  0.3367 -0.5609  0.7174
 3961TIP3    H233443   0.823   3.365   2.746  0.7128  0.2827 -0.6878
 3962TIP3   OH233444   5.327   4.583   0.155 -0.7441  0.3458 -0.0732
 3962TIP3    H133445   5.259   4.559   0.092 -0.5199  0.2259 -0.2708
 3962TIP3    H233446   5.297   4.666   0.192 -1.0458  0.2447 -0.0883
 3963TIP3   OH233447   5.933   4.589   7.935 -0.2056  0.4312 -0.5391
 3963TIP3    H133448   5.882   4.516   7.971  0.3352  0.2236 -0.1941
 3963TIP3    H233449   5.929   4.576   7.840 -0.2703  0.0665 -0.4876
 3964TIP3   OH233450   3.661   2.158   0.737 -0.2855  0.0861  0.6039
 3964TIP3    H133451   3.603   2.118   0.802 -3.7995  0.7636 -1.7975
 3964TIP3    H233452   3.640   2.251   0.740  1.6484  0.5523  0.4560
 3965TIP3   OH233453   5.472   4.165   1.289  0.2170  0.0758 -0.4737
 3965TIP3    H133454   5.419   4.230   1.242  2.3524  1.9908 -0.4209
 3965TIP3    H233455   5.492   4.206   1.373  1.2236 -0.8436 -0.2373
 3966TIP3   OH233456   2.117   0.182   6.239 -0.4061 -0.0372  0.1109
 3966TIP3    H133457   2.100   0.099   6.284 -1.8877 -0.8120 -1.7450
 3966TIP3    H233458   2.163   0.236   6.304 -0.1655 -1.9875  1.6439
 3967TIP3   OH233459   3.810   0.336   1.444  0.2788 -0.2968  0.4201
 3967TIP3    H133460   3.778   0.350   1.533 -2.2045 -3.1316  0.1312
 3967TIP3    H233461   3.827   0.242   1.439  0.7115 -0.1486 -1.9990
 3968TIP3   OH233462   6.093   1.337   1.315  0.3353 -0.0149  0.0613
 3968TIP3    H133463   6.037   1.405   1.279  1.7848  1.7992  1.0339
 3968TIP3    H233464   6.098   1.357   1.409  0.7403 -1.5255  0.3893
 3969TIP3   OH233465   0.542   5.031   2.070 -0.1252  0.2684  0.1352
 3969TIP3    H133466   0.480   5.099   2.046 -0.3787  0.0081  0.0434
 3969TIP3    H233467   0.555   5.042   2.165 -0.5619  0.1240  0.2173
 3970TIP3   OH233468   4.193   3.069   7.776  0.3401  0.0360 -0.0814
 3970TIP3    H133469   4.249   3.135   7.817  1.5908 -1.7529  1.2651
 3970TIP3    H233470   4.186   3.000   7.842  2.4680 -3.0735 -2.7692
 3971TIP3   OH233471   0.602   3.255   0.581 -0.3076  0.2769  0.1956
 3971TIP3    H133472   0.637   3.334   0.622 -1.1202  0.4936  0.4915
 3971TIP3    H233473   0.528   3.230   0.636 -0.7683 -0.0316 -0.5383
 3972TIP3   OH233474   1.935   4.456   1.099 -0.5776  0.4497 -0.1858
 3972TIP3    H133475   1.939   4.361   1.114 -0.5024  0.7336  1.7875
 3972TIP3    H233476   1.854   4.484   1.142 -0.6758  1.2851 -0.8784
 3973TIP3   OH233477   4.398   6.182   8.648 -0.0550 -0.1030 -0.1249
 3973TIP3    H133478   4.452   6.126   8.593 -2.3917 -1.8857 -0.8105
 3973TIP3    H233479   4.428   6.165   8.737 -0.4094 -2.2012 -0.3577
 3974TIP3   OH233480   5.922   6.879   8.636 -0.2435 -0.0789 -0.5074
 3974TIP3    H133481   5.902   6.786   8.627 -1.1298 -0.0395  0.7672
 3974TIP3    H233482   5.964   6.886   8.722 -0.6034  0.7538 -0.3894
 3975TIP3   OH233483   5.622   5.146   1.961 -0.5073  0.3183  0.2536
 3975TIP3    H133484   5.598   5.144   2.054 -0.9189  1.3807  0.1913
 3975TIP3    H233485   5.715   5.167   1.960 -0.0056 -1.7252  0.4539
 3976TIP3   OH233486   0.466   3.893   7.604  0.1420 -0.0692 -0.1451
 3976TIP3    H133487   0.472   3.924   7.513  1.2159 -0.0900 -0.0984
 3976TIP3    H233488   0.470   3.798   7.598  0.8463 -0.0550 -0.0539
 3977TIP3   OH233489   2.343   0.742   7.744 -0.3150 -0.4425 -0.0843
 3977TIP3    H133490   2.398   0.812   7.710 -1.9851  0.5132 -0.9644
 3977TIP3    H233491   2.269   0.787   7.785 -0.3304 -1.6726  1.3218
 3978TIP3   OH233492   1.310   6.218   7.585 -0.3018 -0.4775  1.0366
 3978TIP3    H133493   1.253   6.294   7.598 -1.8486 -1.1057 -1.5169
 3978TIP3    H233494   1.251   6.148   7.558  1.6324 -1.1761 -1.7342
 3979TIP3   OH233495   3.224   4.257   8.001  0.3143  0.3842 -0.5401
 3979TIP3    H133496   3.236   4.242   7.908  0.3220  0.1779 -0.5058
 3979TIP3    H233497   3.227   4.170   8.041 -0.4514  0.3982 -0.4337
 3980TIP3   OH233498   0.593   1.439   0.988 -0.0095 -0.2897 -0.2826
 3980TIP3    H133499   0.562   1.483   1.067  1.8216 -0.1530  0.4226
 3980TIP3    H233500   0.514   1.425   0.936 -1.0346  1.1941  0.7695
 3981TIP3   OH233501   6.244   2.022   7.763 -0.2691 -0.1290 -0.5918
 3981TIP3    H133502   6.253   2.109   7.725 -0.1595 -0.0692 -0.4288
 3981TIP3    H233503   6.155   1.995   7.739 -0.7670  0.5422  0.4076
 3982TIP3   OH233504   2.356   5.974   7.417 -0.3815 -0.3607 -0.1195
 3982TIP3    H133505   2.374   5.881   7.406 -0.4319 -0.5966  1.5024
 3982TIP3    H233506   2.307   5.980   7.499  0.9518  1.2191  0.6401
 3983TIP3   OH233507   3.658   4.151   1.679 -0.7709  0.5771  0.3053
 3983TIP3    H133508   3.594   4.082   1.658 -1.4490  0.9689  1.0473
 3983TIP3    H233509   3.715   4.154   1.602 -2.2867  0.9616 -0.8580
 3984TIP3   OH233510   6.111   6.149   1.095 -0.5875  0.0145 -0.2836
 3984TIP3    H133511   6.053   6.217   1.061 -1.3248  0.4696  1.7820
 3984TIP3    H233512   6.199   6.182   1.075 -0.9091  1.7960  0.9777
 3985TIP3   OH233513   2.236   5.677   1.541 -0.5209 -0.5145 -0.0957
 3985TIP3    H133514   2.170   5.616   1.508 -1.6580  1.3755 -1.4741
 3985TIP3    H233515   2.303   5.678   1.473 -0.5433 -0.1662 -0.1109
 3986TIP3   OH233516   5.608   3.705   6.847 -0.3231 -1.0349 -0.2695
 3986TIP3    H133517   5.520   3.739   6.836 -0.0590 -0.9687 -2.8355
 3986TIP3    H233518   5.659   3.780   6.879 -0.8659 -0.6244 -0.3611
 3987TIP3   OH233519   6.867   3.710   1.040 -0.3007  0.3816 -1.0632
 3987TIP3    H133520   6.895   3.794   1.005  0.5589  0.3404 -0.4961
 3987TIP3    H233521   6.827   3.666   0.965 -0.7602  1.2856 -1.3645
 3988TIP3   OH233522   1.040   3.429   1.135  0.3729 -0.5880 -0.1050
 3988TIP3    H133523   1.013   3.343   1.165  2.6412 -0.8748  1.3745
 3988TIP3    H233524   1.004   3.436   1.047 -0.7162 -2.6210  0.1214
 3989TIP3   OH233525   3.639   4.051   8.069 -0.0135  0.4402 -0.0752
 3989TIP3    H133526   3.571   4.032   8.133  0.3724  1.1754  0.5702
 3989TIP3    H233527   3.615   4.137   8.034  1.6260  1.6684  1.6128
 3990TIP3   OH233528   5.228   1.168   0.888 -0.0645  0.5223  0.2983
 3990TIP3    H133529   5.207   1.245   0.837  0.7776  1.7370  1.6953
 3990TIP3    H233530   5.207   1.192   0.978 -0.6929 -1.2309  0.6654
 3991TIP3   OH233531   4.977   5.509   1.212 -0.2334 -0.2484 -0.4278
 3991TIP3    H133532   4.969   5.598   1.245  0.6458  0.5886 -2.3148
 3991TIP3    H233533   4.970   5.518   1.117 -1.3893 -2.3601 -0.6167
 3992TIP3   OH233534   5.599   0.335   7.907 -0.6550  0.0812  0.3477
 3992TIP3    H133535   5.639   0.253   7.936 -0.3534 -0.0103 -0.3136
 3992TIP3    H233536   5.646   0.403   7.956  0.1320 -0.0460 -0.2076
 3993TIP3   OH233537   2.745   1.709   0.529  0.2598  0.3731 -0.1202
 3993TIP3    H133538   2.762   1.763   0.452 -2.5009  2.2371  0.4323
 3993TIP3    H233539   2.653   1.684   0.521  0.1396 -0.1253  2.1347
 3994TIP3   OH233540   6.163   5.978   1.301 -0.4115  0.1640  0.0527
 3994TIP3    H133541   6.204   6.034   1.367 -1.4610 -0.1555  1.0053
 3994TIP3    H233542   6.135   6.039   1.233  1.1672  0.4373 -0.3977
 3995TIP3   OH233543   3.617   6.878   2.943 -0.3508 -0.1690 -0.6141
 3995TIP3    H133544   3.607   6.789   2.976 -0.3281 -0.1786 -0.6334
 3995TIP3    H233545   3.711   6.895   2.944 -0.4579  0.4383  0.9197
 3996TIP3   OH233546   5.975   5.394   7.527  0.3253  0.1141 -0.4034
 3996TIP3    H133547   5.975   5.301   7.508  3.1887 -0.0235 -0.0656
 3996TIP3    H233548   5.934   5.402   7.613 -1.9235 -0.5280 -1.3541
 3997TIP3   OH233549   2.456   1.002   7.401 -0.1893  0.0631  0.1429
 3997TIP3    H133550   2.467   1.092   7.371 -0.7986 -0.4607 -1.8155
 3997TIP3    H233551   2.362   0.985   7.392 -0.0028 -0.9263 -0.0625
 3998TIP3   OH233552   2.797   0.583   1.374  0.6381  0.5435 -0.1636
 3998TIP3    H133553   2.873   0.596   1.317  0.2929 -0.0456 -0.7737
 3998TIP3    H233554   2.826   0.518   1.438  0.6862  0.4034 -0.3272
 3999TIP3   OH233555   2.841   5.435   7.291  0.0992 -0.2205  0.5788
 3999TIP3    H133556   2.913   5.446   7.353  0.0076  0.2497  0.6025
 3999TIP3    H233557   2.869   5.364   7.234  0.4093 -0.3060  0.8331
 4000TIP3   OH233558   3.236   6.207   1.688  0.4000 -0.4644  0.4122
 4000TIP3    H133559   3.170   6.152   1.729  0.0447  0.1075  0.6328
 4000TIP3    H233560   3.202   6.296   1.698  0.4446 -0.2809 -0.8705
 4001TIP3   OH233561   3.777   4.401   0.143 -0.0733  0.0797  1.2508
 4001TIP3    H133562   3.826   4.483   0.146  1.4219 -0.7223  0.0719
 4001TIP3    H233563   3.844   4.333   0.140 -1.2748 -1.1469  1.2470
 4002TIP3   OH233564   4.527   3.570   0.808  0.8955  0.6682  0.1743
 4002TIP3    H133565   4.577   3.585   0.888  2.5022 -0.7927 -0.4764
 4002TIP3    H233566   4.553   3.482   0.780 -0.1603  0.8633 -1.5640
 4003TIP3   OH233567   4.714   1.829   0.316 -0.0726  0.3207  0.6066
 4003TIP3    H133568   4.743   1.747   0.277 -2.4787  0.3902 -1.6267
 4003TIP3    H233569   4.619   1.830   0.302 -0.2855  2.9748  1.5951
 4004TIP3   OH233570   5.568   6.168   1.304 -0.6744 -0.1713 -0.0047
 4004TIP3    H133571   5.611   6.133   1.382 -0.1469 -1.3601 -0.7991
 4004TIP3    H233572   5.599   6.258   1.297  0.7483 -0.6316  0.1317
 4005TIP3   OH233573   0.540   1.922   1.824  0.0098  0.2716  0.2231
 4005TIP3    H133574   0.475   1.867   1.868  2.1464 -1.5939  1.2667
 4005TIP3    H233575   0.571   1.868   1.751  1.6850  0.3099  0.8644
 4006TIP3   OH233576   6.262   1.308   2.027 -0.0470  0.2360  0.0764
 4006TIP3    H133577   6.193   1.326   1.963  1.6136 -0.9801 -2.2178
 4006TIP3    H233578   6.319   1.384   2.023  0.4804 -0.1850 -0.4946
 4007TIP3   OH233579   6.535   5.451   1.824 -0.5910  0.7457  0.4695
 4007TIP3    H133580   6.521   5.422   1.915 -2.2475  2.3490  0.7720
 4007TIP3    H233581   6.548   5.545   1.830 -0.1924  0.8012 -0.9349
 4008TIP3   OH233582   2.551   3.412   1.120 -0.1831  0.5967  0.3086
 4008TIP3    H133583   2.496   3.491   1.121  0.4955  1.1208 -1.2206
 4008TIP3    H233584   2.525   3.366   1.040  1.5596  0.8589 -0.4601
 4009TIP3   OH233585   3.505   2.618   7.410 -0.5821  0.1175  0.3490
 4009TIP3    H133586   3.532   2.585   7.496  0.5007 -2.0090 -0.7463
 4009TIP3    H233587   3.427   2.671   7.429  0.3661  0.7879  2.7741
 4010TIP3   OH233588   2.881   2.253   0.087  0.2592  0.1385 -0.0220
 4010TIP3    H133589   2.794   2.286   0.112  1.0092  2.3790 -0.1475
 4010TIP3    H233590   2.880   2.161   0.114 -1.9176  0.2617  0.5493
 4011TIP3   OH233591   6.235   0.945   0.041 -0.1255  0.0701 -0.0282
 4011TIP3    H133592   6.309   0.989  -0.001 -1.2408  1.1527 -0.9313
 4011TIP3    H233593   6.165   1.011   0.042 -0.8211 -0.6340  1.5964
 4012TIP3   OH233594   6.076   5.819   2.205 -1.1554  0.1085 -0.5625
 4012TIP3    H133595   6.148   5.872   2.169 -2.4434  2.2566 -0.1541
 4012TIP3    H233596   6.105   5.797   2.293 -0.3357 -0.4458 -0.9538
 4013TIP3   OH233597   1.309   4.884   7.955  0.2146 -0.5248 -0.2375
 4013TIP3    H133598   1.395   4.880   7.913  0.5245  0.2022  0.3049
 4013TIP3    H233599   1.253   4.831   7.899  0.5369  0.6402 -1.7423
 4014TIP3   OH233600   1.716   2.811   1.751 -0.4197  0.1086 -0.5092
 4014TIP3    H133601   1.769   2.876   1.705 -2.8296  0.4367 -3.1028
 4014TIP3    H233602   1.761   2.728   1.736 -0.2386  0.4598 -2.0272
 4015TIP3   OH233603   1.005   2.892   6.670  0.7398  0.1161  0.0714
 4015TIP3    H133604   1.063   2.952   6.623 -0.0706 -0.2192 -1.4318
 4015TIP3    H233605   0.924   2.941   6.681  0.1829 -0.5644 -0.8694
 4016TIP3   OH233606   5.465   3.718   0.104 -0.5362 -0.0192  0.4384
 4016TIP3    H133607   5.483   3.795   0.158  1.1907  0.4621 -0.7440
 4016TIP3    H233608   5.395   3.747   0.045 -0.5650  0.3222  0.6340
 4017TIP3   OH233609   0.067   0.380   6.738 -0.1975 -0.5579 -0.2447
 4017TIP3    H133610   0.124   0.308   6.766  0.7245  0.5148  0.7125
 4017TIP3    H233611   0.105   0.411   6.657 -0.1689 -0.6677 -0.2735
 4018TIP3   OH233612   3.681   0.469   1.960 -0.8059 -0.0700 -0.3836
 4018TIP3    H133613   3.639   0.383   1.960 -2.8323  0.8194  1.4637
 4018TIP3    H233614   3.632   0.520   1.896 -0.2985  0.0095 -0.7092
 4019TIP3   OH233615   5.054   4.914   8.109 -0.0144 -0.2844  0.4064
 4019TIP3    H133616   5.015   4.847   8.053  1.0128 -1.2403  0.7974
 4019TIP3    H233617   5.120   4.867   8.160  2.0056  1.3325 -0.5788
 4020TIP3   OH233618   3.183   3.581   0.833  0.2476 -0.8103  0.2178
 4020TIP3    H133619   3.110   3.598   0.774  0.5921  1.5148  0.3459
 4020TIP3    H233620   3.215   3.494   0.808 -1.1280 -0.9007 -1.3733
 4021TIP3   OH233621   0.173   3.455   1.777 -0.0613  0.9161  0.2070
 4021TIP3    H133622   0.094   3.509   1.773 -0.4202  0.4848  1.0591
 4021TIP3    H233623   0.217   3.483   1.858  1.0377  1.6344 -0.5968
 4022TIP3   OH233624   0.160   5.395   1.166 -0.0255  0.2615  0.0589
 4022TIP3    H133625   0.128   5.306   1.181 -0.0820  0.3876  0.7163
 4022TIP3    H233626   0.242   5.400   1.215  0.0753  0.5151 -0.1294
 4023TIP3   OH233627   0.118   6.445   0.294  0.4244  0.0331  0.1223
 4023TIP3    H133628   0.180   6.492   0.350 -2.7375  2.1962  2.1420
 4023TIP3    H233629   0.110   6.501   0.216  1.0048 -0.2683 -0.1577
 4024TIP3   OH233630   5.189   4.817   0.955 -0.2642 -0.3460  0.0495
 4024TIP3    H133631   5.199   4.764   0.876 -1.2763 -0.1145 -0.2502
 4024TIP3    H233632   5.255   4.783   1.015 -0.7935 -1.8733 -0.1782
 4025TIP3   OH233633   2.870   1.379   0.000 -0.6708 -0.0844  0.2299
 4025TIP3    H133634   2.775   1.391   0.006 -0.4672  1.9724 -0.1506
 4025TIP3    H233635   2.900   1.387   0.091 -1.0108 -2.9268  0.6954
 4026TIP3   OH233636   1.930   1.186   2.031 -0.0010 -0.4112  0.4585
 4026TIP3    H133637   1.918   1.100   1.989  0.8330 -1.3152  2.0044
 4026TIP3    H233638   1.938   1.166   2.124  0.4335  1.3415  0.8192
 4027TIP3   OH233639   5.402   0.488   7.102 -0.1858 -0.2925 -0.6686
 4027TIP3    H133640   5.442   0.519   7.183 -0.1660 -0.6087 -0.5545
 4027TIP3    H233641   5.434   0.398   7.093 -0.4338 -0.3610 -0.8660
 4028TIP3   OH233642   5.086   2.613   0.308 -0.6041 -0.0315  0.2003
 4028TIP3    H133643   5.033   2.540   0.340 -1.1807  0.4268  0.3166
 4028TIP3    H233644   5.117   2.586   0.222 -0.4258 -0.5979  0.4419
 4029TIP3   OH233645   4.749   1.502   7.996  0.5219  0.3633  0.1476
 4029TIP3    H133646   4.779   1.540   8.079 -1.7505  1.4132  0.5567
 4029TIP3    H233647   4.739   1.576   7.937 -2.8620  0.4580  0.6040
 4030TIP3   OH233648   4.148   5.235   8.135 -0.0374  0.7444 -0.3226
 4030TIP3    H133649   4.200   5.191   8.202 -1.5563 -0.4102  0.1837
 4030TIP3    H233650   4.101   5.163   8.091 -0.5935  1.6576 -1.2543
 4031TIP3   OH233651   4.023   2.599   8.465 -0.5419 -0.3244 -0.8928
 4031TIP3    H133652   4.064   2.579   8.381 -1.4475 -0.2554 -1.3660
 4031TIP3    H233653   3.959   2.529   8.477  1.7311 -2.2393  1.3215
 4032TIP3   OH233654   2.737   0.031   7.357  0.2342  0.1818  0.0321
 4032TIP3    H133655   2.703   0.113   7.320  0.3181 -0.0348 -0.5341
 4032TIP3    H233656   2.721   0.039   7.451  1.5764  1.4982  0.1827
 4033TIP3   OH233657   6.738   3.550   1.462 -0.3493 -1.1199 -0.3105
 4033TIP3    H133658   6.811   3.567   1.523  0.6793 -1.8019 -1.3149
 4033TIP3    H233659   6.719   3.635   1.424 -1.5398 -0.5124  1.4882
 4034TIP3   OH233660   1.460   4.709   8.520 -0.6535 -0.1934  0.2282
 4034TIP3    H133661   1.491   4.799   8.511  0.7659 -0.6333  0.4203
 4034TIP3    H233662   1.443   4.699   8.614  0.4681 -0.4858  0.4247
 4035TIP3   OH233663   3.028   2.121   7.857  0.0093  0.0461  0.0927
 4035TIP3    H133664   3.038   2.156   7.769 -1.2190  0.8428  0.2367
 4035TIP3    H233665   2.959   2.055   7.848 -0.1817  0.1904  0.4568
 4036TIP3   OH233666   3.732   4.690   1.470  0.0029  0.5275 -0.2672
 4036TIP3    H133667   3.732   4.594   1.469  0.1060  0.5230  0.0122
 4036TIP3    H233668   3.726   4.713   1.563 -0.1358  0.7925 -0.3406
 4037TIP3   OH233669   4.734   2.910   7.202 -0.4897  0.3858 -0.1117
 4037TIP3    H133670   4.825   2.922   7.231 -0.2049 -0.4593 -0.6075
 4037TIP3    H233671   4.742   2.871   7.115 -1.3104 -1.4908  0.6019
 4038TIP3   OH233672   0.085   6.625   0.080 -0.3103  0.0835 -0.3662
 4038TIP3    H133673  -0.001   6.603   0.045 -0.1009  0.8690 -1.4482
 4038TIP3    H233674   0.134   6.656   0.004  0.9279 -0.3304  0.2299
 4039TIP3   OH233675   4.826   6.479   7.472  0.3524  0.3283 -0.3016
 4039TIP3    H133676   4.865   6.499   7.558  0.7154  0.1499 -0.4244
 4039TIP3    H233677   4.848   6.388   7.456  1.6432  0.7803 -1.2882
 4040TIP3   OH233678   2.868   6.429   0.137  0.5312  0.4640 -0.5467
 4040TIP3    H133679   2.924   6.469   0.071  1.4329 -0.6355 -0.4901
 4040TIP3    H233680   2.893   6.472   0.219 -1.0298  2.2761 -0.9533
 4041TIP3   OH233681   2.893   0.722   7.456 -0.1723 -0.0890  0.2317
 4041TIP3    H133682   2.823   0.672   7.499 -1.0772  1.0591  0.1293
 4041TIP3    H233683   2.894   0.806   7.502 -0.7632  0.9577 -1.5654
 4042TIP3   OH233684   6.211   1.690   8.090 -0.2204 -0.2115  0.2955
 4042TIP3    H133685   6.118   1.684   8.107 -0.4462 -1.7094 -1.2236
 4042TIP3    H233686   6.227   1.629   8.018  1.4579  1.9356 -1.3383
 4043TIP3   OH233687   2.975   2.212   1.085 -0.3113  0.2330 -0.3345
 4043TIP3    H133688   2.912   2.245   1.149 -1.4346 -1.6569 -0.3814
 4043TIP3    H233689   2.936   2.234   1.000 -1.1524 -1.2430 -0.3686
 4044TIP3   OH233690   0.962   1.591   6.338 -0.3051 -0.0150 -0.1973
 4044TIP3    H133691   0.893   1.614   6.400 -0.8026 -0.7757 -0.4438
 4044TIP3    H233692   1.033   1.653   6.355 -0.0092 -0.8253  1.8377
 4045TIP3   OH233693   0.399   2.402   1.854 -0.6238 -0.3548  0.4065
 4045TIP3    H133694   0.414   2.309   1.871 -0.5648 -0.3892  0.1686
 4045TIP3    H233695   0.304   2.408   1.841 -0.5265 -0.5219 -0.4148
 4046TIP3   OH233696   5.042   2.255   7.533  0.2030  0.6059  0.5042
 4046TIP3    H133697   4.968   2.291   7.484  1.2219 -0.9043 -2.3099
 4046TIP3    H233698   5.020   2.162   7.545  1.4898  0.2033 -0.1240
 4047TIP3   OH233699   3.100   6.245   7.076 -0.2751  0.5401 -0.1873
 4047TIP3    H133700   3.185   6.282   7.098  0.3183  0.1444 -1.6762
 4047TIP3    H233701   3.050   6.319   7.040 -0.4534  0.7053  0.3954
 4048TIP3   OH233702   2.064   2.957   7.174 -0.0951  0.5465 -0.3454
 4048TIP3    H133703   2.107   2.943   7.258  0.4605 -2.7734 -1.0353
 4048TIP3    H233704   2.131   2.997   7.119  0.5798 -0.2009 -0.0776
 4049TIP3   OH233705   2.054   6.131   7.866 -0.2266 -0.1172 -0.3564
 4049TIP3    H133706   1.976   6.076   7.880 -0.7108  1.0664  2.1976
 4049TIP3    H233707   2.023   6.201   7.808 -1.8057  1.5013  2.2226
 4050TIP3   OH233708   1.038   3.061   1.502  0.0586 -0.1418  0.5508
 4050TIP3    H133709   1.033   3.041   1.408  0.4783  1.0455  0.2520
 4050TIP3    H233710   0.946   3.065   1.530 -0.1268  0.7348 -0.1157
 4051TIP3   OH233711   2.876   4.095   8.057  0.3333 -0.0871 -0.1842
 4051TIP3    H133712   2.830   4.040   8.121  1.7619 -0.2428  0.7404
 4051TIP3    H233713   2.824   4.086   7.977 -0.5146 -1.2855  0.4601
 4052TIP3   OH233714   2.118   0.147   0.305 -0.0353 -0.4414 -0.2932
 4052TIP3    H133715   2.125   0.167   0.399  0.8746 -4.1403  0.5963
 4052TIP3    H233716   2.024   0.146   0.288 -0.2082  0.4528  0.5117
 4053TIP3   OH233717   1.544   4.116   1.412 -0.5849  0.8197  0.1431
 4053TIP3    H133718   1.502   4.035   1.383  0.0196 -0.2677  2.1302
 4053TIP3    H233719   1.502   4.184   1.360 -1.1701 -0.7404 -1.5399
 4054TIP3   OH233720   1.941   3.085   0.863  0.4655  0.3338 -0.2546
 4054TIP3    H133721   1.993   3.155   0.902 -0.1005  0.1327  0.8825
 4054TIP3    H233722   1.986   3.004   0.889 -1.0529  0.0843  1.8079
 4055TIP3   OH233723   0.001   0.485   7.353 -0.0061 -0.7597  0.1611
 4055TIP3    H133724  -0.015   0.391   7.343  1.8779 -0.9940 -1.3638
 4055TIP3    H233725  -0.036   0.524   7.274 -1.4931 -0.0614  1.1533
 4056TIP3   OH233726   6.327   1.737   7.745 -0.2437 -0.0884 -0.0180
 4056TIP3    H133727   6.303   1.826   7.770 -0.7141 -0.0363 -0.6173
 4056TIP3    H233728   6.422   1.740   7.733 -0.0071 -0.1141  1.6598
 4057TIP3   OH233729   1.512   2.702   7.189  0.1508  0.2980  0.2738
 4057TIP3    H133730   1.541   2.665   7.273 -1.4048  1.9614  1.6434
 4057TIP3    H233731   1.461   2.633   7.148  0.9367 -0.5509  0.6933
 4058TIP3   OH233732   3.492   6.469   0.980  0.9454 -0.0674  0.2593
 4058TIP3    H133733   3.433   6.511   0.918 -0.1270 -0.0163  1.2832
 4058TIP3    H233734   3.460   6.495   1.066  1.2146 -1.6840  0.8910
 4059TIP3   OH233735   5.795   2.955   7.446  0.5632  0.6700  0.3300
 4059TIP3    H133736   5.870   2.975   7.502  0.1761  0.2606  0.9983
 4059TIP3    H233737   5.726   3.014   7.475  0.4132  0.5758  0.1652
 4060TIP3   OH233738   6.503   5.050   0.787 -0.5665  0.2384 -0.3115
 4060TIP3    H133739   6.541   5.043   0.874  0.4216  0.1765 -0.7345
 4060TIP3    H233740   6.562   5.109   0.739 -1.0369  0.1954 -0.9673
 4061TIP3   OH233741   5.719   2.682   1.144 -0.1983  0.0959  0.0560
 4061TIP3    H133742   5.730   2.680   1.049  1.3497  0.0454  0.2158
 4061TIP3    H233743   5.632   2.645   1.158  0.5165 -2.3147 -1.1952
 4062TIP3   OH233744   6.346   0.629   2.344  0.0496  0.4677  0.4966
 4062TIP3    H133745   6.332   0.543   2.383 -0.4346 -0.3722 -1.4244
 4062TIP3    H233746   6.441   0.637   2.339  0.1521 -1.0164 -1.3670
 4063TIP3   OH233747   6.146   4.137   1.170  0.0615  0.5868 -0.2611
 4063TIP3    H133748   6.136   4.162   1.262  0.8624 -0.9176  0.2676
 4063TIP3    H233749   6.229   4.175   1.144  0.2122  0.3478 -0.1286
 4064TIP3   OH233750   0.058   6.362   2.035  0.6358 -0.2851 -0.3359
 4064TIP3    H133751   0.080   6.348   2.127  0.3049 -1.3389 -0.3969
 4064TIP3    H233752   0.018   6.448   2.033  0.2708 -0.4183  0.5801
 4065TIP3   OH233753   6.380   0.068   0.658 -0.5871  0.0308  0.3147
 4065TIP3    H133754   6.460   0.090   0.707  0.8341 -0.2307 -1.7445
 4065TIP3    H233755   6.322   0.030   0.723  0.8439  0.5270  1.9661
 4066TIP3   OH233756   6.742   6.428   2.896 -0.0060 -0.0712  0.3230
 4066TIP3    H133757   6.710   6.342   2.925 -0.5572 -0.2938 -0.9218
 4066TIP3    H233758   6.815   6.408   2.838 -0.5268  0.2667 -0.4623
 4067TIP3   OH233759   2.669   5.081   8.633 -0.1672  0.1396  0.3090
 4067TIP3    H133760   2.758   5.047   8.626 -0.4344 -0.7565  1.1314
 4067TIP3    H233761   2.680   5.170   8.667  0.5274  0.9116 -1.7929
 4068TIP3   OH233762   2.197   6.086   0.601 -0.9013 -0.0582  0.2926
 4068TIP3    H133763   2.188   6.011   0.543  1.6221 -0.4632  0.3129
 4068TIP3    H233764   2.229   6.157   0.545  2.1224 -0.6090  1.1110
 4069TIP3   OH233765   2.789   5.882   8.364  0.4110  0.1912  0.0963
 4069TIP3    H133766   2.864   5.937   8.389  0.7133 -1.0573  2.1573
 4069TIP3    H233767   2.827   5.796   8.345 -0.5889 -1.0870  3.2957
 4070TIP3   OH233768   2.154   0.995   7.377 -0.3597  0.1021 -0.1744
 4070TIP3    H133769   2.113   0.955   7.453  0.9989  0.4300  0.7615
 4070TIP3    H233770   2.083   1.005   7.313 -1.0368 -2.3523  0.1280
 4071TIP3   OH233771   3.994   0.295   2.138  0.1717 -0.2263  0.6360
 4071TIP3    H133772   4.022   0.206   2.119  0.3308 -0.4589  1.8780
 4071TIP3    H233773   3.928   0.286   2.206 -0.6147  0.5434  0.0049
 4072TIP3   OH233774   6.043   4.505   1.961  0.8181  0.9076 -0.5948
 4072TIP3    H133775   6.091   4.549   1.891  2.1631 -0.9314 -0.9107
 4072TIP3    H233776   5.977   4.453   1.916  2.1657 -0.8614 -0.6266
 4073TIP3   OH233777   6.372   2.831   0.147 -0.0652 -0.0961 -0.1656
 4073TIP3    H133778   6.411   2.901   0.199 -1.4571  0.6630 -0.1094
 4073TIP3    H233779   6.417   2.752   0.176  0.7594  0.6206  0.5557
 4074TIP3   OH233780   6.861   5.616   1.681 -0.5462 -0.1922 -0.0613
 4074TIP3    H133781   6.855   5.705   1.716 -0.7155 -0.1164 -0.2809
 4074TIP3    H233782   6.931   5.575   1.731 -2.1135 -0.7565  1.7703
 4075TIP3   OH233783   6.882   0.336   1.724 -0.1165 -0.6737  0.7511
 4075TIP3    H133784   6.944   0.340   1.652  0.7403  0.5029  1.5250
 4075TIP3    H233785   6.829   0.258   1.706  1.5134 -1.6536  0.0150
 4076TIP3   OH233786   4.819   6.707   6.814 -0.8799  0.5679 -0.1672
 4076TIP3    H133787   4.899   6.665   6.783 -1.7693 -0.1784 -1.5498
 4076TIP3    H233788   4.841   6.800   6.819  0.2715  0.2941  0.2068
 4077TIP3   OH233789   1.952   0.569   1.396  0.0932 -0.0211 -0.2162
 4077TIP3    H133790   1.914   0.488   1.360  0.5276 -0.2216 -0.2305
 4077TIP3    H233791   1.912   0.577   1.483  1.0435 -0.9818  0.3359
 4078TIP3   OH233792   6.124   6.571   2.274 -0.0539 -0.2105  0.7482
 4078TIP3    H133793   6.031   6.591   2.269  0.1819  1.5581  2.1208
 4078TIP3    H233794   6.129   6.476   2.269 -2.2308 -0.6078  3.5952
 4079TIP3   OH233795   5.808   0.016   0.238  0.6929 -0.2592  0.1984
 4079TIP3    H133796   5.746   0.050   0.173 -0.2411 -1.9855  0.1378
 4079TIP3    H233797   5.845   0.094   0.279  0.8611  0.8708 -1.9617
 4080TIP3   OH233798   1.901   6.246   1.527  0.1131  0.3053  0.3912
 4080TIP3    H133799   1.913   6.151   1.520 -0.7181  0.3010 -1.3254
 4080TIP3    H233800   1.830   6.266   1.466 -0.7403  1.8441  1.8138
 4081TIP3   OH233801   3.442   1.317   0.701 -0.1531 -0.6615 -0.0071
 4081TIP3    H133802   3.351   1.306   0.731  0.1547  0.1524  1.3288
 4081TIP3    H233803   3.481   1.231   0.710 -0.7691 -0.9913 -0.4755
 4082TIP3   OH233804   6.562   6.053   0.610  0.0447 -0.3599 -0.2122
 4082TIP3    H133805   6.600   6.133   0.647 -0.6448  0.5202 -1.3584
 4082TIP3    H233806   6.625   6.024   0.544  0.2477 -0.7245  0.1344
 4083TIP3   OH233807   0.292   0.950   1.674  0.5247  0.0616  0.9023
 4083TIP3    H133808   0.362   1.013   1.692  0.6675 -0.1611  1.1363
 4083TIP3    H233809   0.337   0.866   1.661  0.3675  0.0882  0.1600
 4084TIP3   OH233810   1.456   4.317   0.334  0.3193 -0.2485  0.0697
 4084TIP3    H133811   1.459   4.228   0.299  1.6660  0.2233 -1.1508
 4084TIP3    H233812   1.363   4.338   0.339 -0.0471 -1.9397  1.0142
 4085TIP3   OH233813   0.856   0.807   8.582  0.2634  0.0979  0.4404
 4085TIP3    H133814   0.871   0.854   8.501  2.1299 -0.1621  0.5761
 4085TIP3    H233815   0.829   0.719   8.555  1.9976 -0.3505  0.0120
 4086TIP3   OH233816   3.674   2.364   5.944  0.1369  0.1561  0.6105
 4086TIP3    H133817   3.620   2.431   5.985 -2.0112  1.6229 -3.9853
 4086TIP3    H233818   3.717   2.409   5.871 -1.0816 -3.2015 -2.4716
 4087TIP3   OH233819   4.726   2.634   8.468 -1.6892 -0.1392 -0.3221
 4087TIP3    H133820   4.811   2.590   8.475 -1.4033  0.5150  0.4218
 4087TIP3    H233821   4.681   2.588   8.397 -1.1029 -1.1410 -0.0662
 4088TIP3   OH233822   1.396   3.004   1.010 -0.4402  0.1884  0.3306
 4088TIP3    H133823   1.457   3.076   0.993 -1.5998  2.1751  3.6896
 4088TIP3    H233824   1.432   2.961   1.088 -1.9662 -0.2473  0.8127
 4089TIP3   OH233825   6.282   4.584   8.555  0.3766  0.0388 -0.1026
 4089TIP3    H133826   6.261   4.676   8.573  0.9129  0.2707 -0.6151
 4089TIP3    H233827   6.377   4.582   8.551  0.4008 -0.6981  0.6780
 4090TIP3   OH233828   6.881   5.314   0.964 -0.2357 -0.5900 -0.7866
 4090TIP3    H133829   6.893   5.219   0.954 -0.7340 -0.6241 -1.0849
 4090TIP3    H233830   6.940   5.338   1.036 -1.3282 -1.4137  0.4257
 4091TIP3   OH233831   6.579   0.019   0.106  0.4581  0.2615  0.3196
 4091TIP3    H133832   6.515   0.087   0.087  0.0365  0.0085  0.8150
 4091TIP3    H233833   6.664   0.064   0.104  0.5021  0.2212 -2.3783
 4092TIP3   OH233834   3.637   4.865   7.694  0.3280 -0.0060 -0.6184
 4092TIP3    H133835   3.709   4.853   7.632  2.3179 -0.1630  1.5612
 4092TIP3    H233836   3.661   4.943   7.743 -0.2425 -0.8322  1.0625
 4093TIP3   OH233837   3.464   6.579   6.548 -0.4810 -0.0833  0.2004
 4093TIP3    H133838   3.481   6.585   6.642 -0.3236 -0.0832  0.1723
 4093TIP3    H233839   3.537   6.625   6.508  0.3300 -1.5047  0.0009
 4094TIP3   OH233840   1.028   3.449   7.862  0.2476  0.6612 -1.0448
 4094TIP3    H133841   1.101   3.434   7.803  0.5060 -0.9819 -0.3565
 4094TIP3    H233842   1.068   3.477   7.944  0.0366  0.6319 -0.9303
 4095TIP3   OH233843   6.833   0.185   2.368 -0.7388 -0.0441  0.2815
 4095TIP3    H133844   6.766   0.233   2.417 -0.4661  0.0271  0.5839
 4095TIP3    H233845   6.840   0.233   2.285  0.9584  1.6647  1.3547
 4096TIP3   OH233846   1.068   3.403   6.948 -0.0434  0.1591 -0.2317
 4096TIP3    H133847   1.089   3.359   6.865  1.0550  0.1143  0.0444
 4096TIP3    H233848   0.988   3.452   6.930  0.2037  0.1877 -1.3355
 4097TIP3   OH233849   0.931   4.068   8.362 -0.0107  0.1900 -0.0617
 4097TIP3    H133850   1.006   4.124   8.383  0.1863  0.3793 -1.2083
 4097TIP3    H233851   0.957   3.981   8.393  0.4469  0.3661  0.0699
 4098TIP3   OH233852   4.239   3.776   2.537 -0.1279  0.1773  0.6050
 4098TIP3    H133853   4.147   3.793   2.560 -0.4145  0.5205 -0.7028
 4098TIP3    H233854   4.239   3.684   2.512  0.1641 -0.1687  1.8023
 4099TIP3   OH233855   2.575   5.668   2.653 -0.3165  0.0754 -0.1069
 4099TIP3    H133856   2.532   5.753   2.662 -0.6484 -0.0887 -0.1458
 4099TIP3    H233857   2.518   5.617   2.596  0.5902  0.3065 -1.2687
 4100TIP3   OH233858   5.180   4.482   7.465 -0.9339  0.4842  0.2220
 4100TIP3    H133859   5.156   4.560   7.514 -0.6799  0.9412 -0.3675
 4100TIP3    H233860   5.151   4.500   7.375  2.7963  1.7136 -0.9420
 4101TIP3   OH233861   0.379   3.716   7.081 -0.3724 -1.0760 -0.1466
 4101TIP3    H133862   0.473   3.699   7.074 -0.4632 -1.0934 -1.7991
 4101TIP3    H233863   0.369   3.808   7.057 -0.7579 -1.0197  0.2218
 4102TIP3   OH233864   2.956   2.461   7.221  0.5237 -0.0754  0.1579
 4102TIP3    H133865   3.050   2.446   7.232  0.3265 -1.1570  0.5538
 4102TIP3    H233866   2.934   2.523   7.290  0.7617 -0.6630  0.7794
 4103TIP3   OH233867   3.189   1.879   1.264 -0.3377  0.3970 -0.3223
 4103TIP3    H133868   3.104   1.914   1.291 -0.1961  1.2311 -0.9099
 4103TIP3    H233869   3.231   1.852   1.346 -2.0660 -2.2527 -0.1801
 4104TIP3   OH233870   2.222   0.339   1.889  0.2809  0.5178  0.1411
 4104TIP3    H133871   2.316   0.327   1.878  0.5054  2.9008 -1.2073
 4104TIP3    H233872   2.194   0.386   1.810 -1.7804  1.0816  1.1241
 4105TIP3   OH233873   3.217   5.795   1.989 -0.7714  0.4345 -0.2238
 4105TIP3    H133874   3.183   5.862   1.929  0.4011  2.2629  1.0387
 4105TIP3    H233875   3.311   5.793   1.972 -0.6411 -0.1239  0.5062
 4106TIP3   OH233876   3.858   0.616   7.656 -0.2033 -0.6479 -0.3161
 4106TIP3    H133877   3.912   0.544   7.624  0.5178 -1.1446  1.8316
 4106TIP3    H233878   3.768   0.583   7.653  0.0037 -1.2004 -0.4109
 4107TIP3   OH233879   5.370   0.644   7.619 -0.0528 -0.8737  0.2621
 4107TIP3    H133880   5.427   0.567   7.628  0.9049 -0.1097  1.0267
 4107TIP3    H233881   5.370   0.683   7.707 -1.3473 -0.5577  0.1352
 4108TIP3   OH233882   6.615   3.801   1.693  0.5900  0.6263  0.4542
 4108TIP3    H133883   6.579   3.714   1.714  0.7176  0.6885  0.9391
 4108TIP3    H233884   6.618   3.847   1.777  1.5531  0.7194  0.3829
 4109TIP3   OH233885   5.155   6.332   1.642 -0.5870  0.3974  0.1174
 4109TIP3    H133886   5.155   6.403   1.578  0.1839  0.7734  0.5219
 4109TIP3    H233887   5.237   6.342   1.690 -1.2873  0.3290  1.3926
 4110TIP3   OH233888   2.413   2.039   6.662  0.0792 -0.4177  0.5884
 4110TIP3    H133889   2.497   2.086   6.659  0.0267 -0.3734 -0.7910
 4110TIP3    H233890   2.360   2.081   6.594 -1.6485  0.5696  2.4340
 4111TIP3   OH233891   6.177   6.443   7.565 -0.7930 -0.0415 -0.0142
 4111TIP3    H133892   6.199   6.394   7.486 -1.0983 -1.5268  0.7794
 4111TIP3    H233893   6.212   6.531   7.550  2.0012 -1.1359 -0.4971
 4112TIP3   OH233894   2.376   5.332   8.587  0.3371 -0.0032  0.4304
 4112TIP3    H133895   2.411   5.298   8.505  1.5156  1.5849  0.2324
 4112TIP3    H233896   2.414   5.419   8.596 -1.0910  0.5403  1.8350
 4113TIP3   OH233897   4.460   5.786   1.779  0.0779 -0.3942  0.2572
 4113TIP3    H133898   4.496   5.721   1.840 -0.0043  0.7798  1.5998
 4113TIP3    H233899   4.385   5.823   1.825 -0.3108  0.1619 -0.7875
 4114TIP3   OH233900   4.558   6.517   8.523  0.7652 -0.5051 -0.3250
 4114TIP3    H133901   4.626   6.575   8.490  0.4459 -0.7513 -1.4490
 4114TIP3    H233902   4.599   6.471   8.597  1.4384  0.1746 -0.2633
 4115TIP3   OH233903   1.580   4.491   7.515 -0.0227 -0.1948 -0.1220
 4115TIP3    H133904   1.605   4.497   7.607  0.2438  0.7826 -0.2526
 4115TIP3    H233905   1.501   4.544   7.507 -0.0767 -0.3179 -0.4522
 4116TIP3   OH233906   3.498   1.554   1.745  0.2124 -0.1819  0.1230
 4116TIP3    H133907   3.588   1.561   1.777 -0.1256 -1.2310  1.3988
 4116TIP3    H233908   3.465   1.643   1.747  0.9681  0.1025  0.4160
 4117TIP3   OH233909   1.864   1.981   1.035  0.2452  0.2128  0.4818
 4117TIP3    H133910   1.917   2.057   1.059  0.9306 -0.2669  0.5198
 4117TIP3    H233911   1.787   1.986   1.092  0.6005  0.5183  0.9404
 4118TIP3   OH233912   0.442   3.235   6.977  0.6690  0.1118 -0.5883
 4118TIP3    H133913   0.482   3.183   6.907  1.5817  2.3481 -1.8313
 4118TIP3    H233914   0.387   3.298   6.931  0.3104  0.8332  0.7938
 4119TIP3   OH233915   5.148   3.900   1.526  0.4452  0.5544  0.5513
 4119TIP3    H133916   5.200   3.980   1.535  1.3642  0.0427  0.0298
 4119TIP3    H233917   5.158   3.876   1.434 -2.1954  1.3929 -0.0227
 4120TIP3   OH233918   4.587   2.297   1.725 -0.0160 -0.4252 -0.4442
 4120TIP3    H133919   4.537   2.262   1.799 -2.2650  0.9554 -1.2253
 4120TIP3    H233920   4.651   2.229   1.706  0.6018 -0.8826  2.6692
 4121TIP3   OH233921   3.582   6.843   1.267  0.0800  0.1915  0.3531
 4121TIP3    H133922   3.638   6.909   1.227  1.6701 -1.4149 -0.1886
 4121TIP3    H233923   3.632   6.810   1.342 -0.2784 -0.9966  0.0992
 4122TIP3   OH233924   6.703   6.384   1.189 -0.2749  0.0394  0.7043
 4122TIP3    H133925   6.783   6.424   1.223  0.0209 -0.0941  0.1763
 4122TIP3    H233926   6.663   6.453   1.135  1.0599 -0.8260 -1.5380
 4123TIP3   OH233927   3.059   3.597   7.048  0.6168  0.1117 -0.4337
 4123TIP3    H133928   3.050   3.690   7.066  0.0638  0.1920 -1.0746
 4123TIP3    H233929   2.989   3.556   7.099  0.1788  0.1627 -0.9799
 4124TIP3   OH233930   0.458   6.014   7.092  0.1474 -0.3205 -0.2835
 4124TIP3    H133931   0.377   5.979   7.129 -0.6570  1.1093 -0.5995
 4124TIP3    H233932   0.500   6.060   7.165  0.2983 -0.4220 -0.3053
 4125TIP3   OH233933   3.705   0.597   1.595 -0.1101  0.0216  0.3553
 4125TIP3    H133934   3.724   0.687   1.620 -2.8422  0.3010  1.7661
 4125TIP3    H233935   3.787   0.550   1.611  0.3499  1.5524  3.2323
 4126TIP3   OH233936   0.026   5.186   8.305  0.1041  0.1127 -0.5781
 4126TIP3    H133937   0.052   5.157   8.392 -0.9716  1.1778  0.1280
 4126TIP3    H233938   0.095   5.246   8.277 -0.0803  0.6003  0.0038
 4127TIP3   OH233939   4.450   2.964   7.232 -0.8501  0.0212 -0.0976
 4127TIP3    H133940   4.544   2.950   7.238 -0.9065 -0.2587  0.1330
 4127TIP3    H233941   4.411   2.882   7.260 -1.1572 -0.1263 -0.9128
 4128TIP3   OH233942   2.745   4.912   1.411  0.1352 -0.3724 -0.2467
 4128TIP3    H133943   2.654   4.936   1.390 -0.2086  0.3082  1.7259
 4128TIP3    H233944   2.770   4.848   1.345 -1.7216 -0.4116 -0.9602
 4129TIP3   OH233945   5.456   1.420   6.583 -0.1079 -0.2155  0.4405
 4129TIP3    H133946   5.432   1.507   6.550  0.2055 -0.4268 -0.3550
 4129TIP3    H233947   5.550   1.425   6.600 -0.2678 -0.0971  1.3766
 4130TIP3   OH233948   1.570   4.801   7.902 -0.1671 -0.3229 -0.9853
 4130TIP3    H133949   1.566   4.740   7.975 -2.0022  0.0157 -0.7426
 4130TIP3    H233950   1.572   4.745   7.824 -2.5713 -0.7848 -0.8000
 4131TIP3   OH233951   2.094   2.918   1.008 -0.1548 -0.0815 -0.1070
 4131TIP3    H133952   2.113   2.833   1.049 -2.0658 -0.4380  0.1600
 4131TIP3    H233953   2.150   2.921   0.931  0.7030 -1.1232  0.4567
 4132TIP3   OH233954   3.901   5.786   7.751  0.1077  0.1084  0.0034
 4132TIP3    H133955   3.965   5.818   7.687  0.3284  1.7782  1.0003
 4132TIP3    H233956   3.903   5.691   7.741  1.9113  0.1814 -0.7884
 4133TIP3   OH233957   1.291   2.244   7.410 -0.5437  0.1995  0.4470
 4133TIP3    H133958   1.354   2.237   7.481  0.3249 -2.7562 -0.4738
 4133TIP3    H233959   1.205   2.242   7.453 -0.0395  0.6822  1.4981
 4134TIP3   OH233960   5.387   1.395   8.449 -0.3940 -0.1624 -0.1647
 4134TIP3    H133961   5.395   1.345   8.530 -0.6722 -1.2840 -0.8024
 4134TIP3    H233962   5.296   1.382   8.422 -0.9135  1.9504  0.4189
 4135TIP3   OH233963   5.405   2.681   2.328  0.2989  0.5119  0.9397
 4135TIP3    H133964   5.440   2.631   2.402  1.0734  0.2789  0.4179
 4135TIP3    H233965   5.453   2.650   2.252 -4.0748 -3.3025 -0.7786
 4136TIP3   OH233966   1.321   0.132   8.378  0.2454  0.1806 -0.2084
 4136TIP3    H133967   1.402   0.082   8.376  0.9926  1.3413 -2.4762
 4136TIP3    H233968   1.259   0.081   8.326 -0.1549 -0.1311  0.5481
 4137TIP3   OH233969   6.402   2.039   2.704  0.1337  0.3748 -0.1622
 4137TIP3    H133970   6.485   2.067   2.743  0.1110 -1.5824  1.4347
 4137TIP3    H233971   6.427   2.004   2.619  0.9227  0.0315  0.1978
 4138TIP3   OH233972   2.885   3.544   7.602  0.3644 -0.0225  0.5369
 4138TIP3    H133973   2.842   3.592   7.532  1.0442 -0.4234 -0.1723
 4138TIP3    H233974   2.814   3.513   7.658 -0.1924  0.1640 -0.0602
 4139TIP3   OH233975   4.357   1.805   7.185 -0.5840  0.4077 -0.1653
 4139TIP3    H133976   4.285   1.863   7.159  2.3583  3.7832 -1.6257
 4139TIP3    H233977   4.393   1.773   7.103 -0.5391 -1.4555  0.5426
 4140TIP3   OH233978   1.842   5.003   7.906 -0.4671 -0.2731  0.2362
 4140TIP3    H133979   1.847   4.989   8.000 -1.1664 -2.0558  0.0462
 4140TIP3    H233980   1.766   4.951   7.878  0.2652 -0.5122 -1.4287
 4141TIP3   OH233981   4.953   1.163   1.012  0.3117 -0.3593  0.9531
 4141TIP3    H133982   4.969   1.121   0.928  2.3981 -0.9507  1.5885
 4141TIP3    H233983   4.895   1.102   1.058 -0.0183 -0.5225  0.3314
 4142TIP3   OH233984   3.675   0.465   2.570  0.3505 -0.4340  0.2786
 4142TIP3    H133985   3.767   0.474   2.545  0.9287 -0.4121  2.2661
 4142TIP3    H233986   3.631   0.537   2.525  1.5420  0.3868  0.3603
 4143TIP3   OH233987   3.656   6.226   7.089 -0.1831  0.1468  0.7264
 4143TIP3    H133988   3.751   6.219   7.101 -0.0069 -1.9628 -1.2787
 4143TIP3    H233989   3.644   6.303   7.034  0.7297 -1.2142 -1.5213
 4144TIP3   OH233990   2.849   5.893   7.726  0.1239 -0.2696  0.3444
 4144TIP3    H133991   2.944   5.885   7.720  0.1236  0.4727 -1.0072
 4144TIP3    H233992   2.816   5.804   7.710  0.5791 -0.5802  1.0773
 4145TIP3   OH233993   6.403   1.411   2.609 -0.5462  0.2867 -0.0455
 4145TIP3    H133994   6.430   1.387   2.698 -1.6983  0.3132  0.3263
 4145TIP3    H233995   6.374   1.502   2.615  2.2280  1.3341 -1.1133
 4146TIP3   OH233996   6.013   5.838   1.486  0.2796 -0.0308  0.3126
 4146TIP3    H133997   6.081   5.880   1.432  0.0764 -0.1639 -0.0540
 4146TIP3    H233998   6.003   5.751   1.447 -0.3165  0.0964  0.1782
 4147TIP3   OH233999   6.337   5.050   2.087  0.4002 -1.0509 -0.0274
 4147TIP3    H134000   6.310   5.136   2.054  1.7514 -0.4021  0.4660
 4147TIP3    H234001   6.336   4.993   2.010 -0.4528 -0.5931 -0.3700
 4148TIP3   OH234002   2.247   1.827   8.449  0.2756 -0.5498  0.0200
 4148TIP3    H134003   2.263   1.866   8.363  0.2459  1.0960  0.7271
 4148TIP3    H234004   2.152   1.828   8.460  0.3087 -0.2846  0.2857
 4149TIP3   OH234005   6.575   4.481   8.122  0.1659  0.1020 -0.2030
 4149TIP3    H134006   6.614   4.411   8.070 -1.7290 -0.7902 -0.5058
 4149TIP3    H234007   6.611   4.469   8.209  0.2926 -0.9077 -0.3849
 4150TIP3   OH234008   2.853   4.151   0.201 -0.0927 -0.0082  0.7753
 4150TIP3    H134009   2.821   4.080   0.146 -0.4005  0.7580 -0.0583
 4150TIP3    H234010   2.848   4.116   0.290  1.9742 -1.8525  0.2419
 4151TIP3   OH234011   4.971   3.486   7.394  0.0721 -0.0040 -0.2340
 4151TIP3    H134012   4.981   3.580   7.407 -0.0252 -0.0525  0.2141
 4151TIP3    H234013   4.876   3.472   7.389  0.0108 -0.2571  1.1865
 4152TIP3   OH234014   0.701   5.818   1.130  0.1660  0.4258 -0.1763
 4152TIP3    H134015   0.706   5.885   1.199  1.7719  0.7042 -0.5052
 4152TIP3    H234016   0.685   5.867   1.050  0.9428  0.3994 -0.3593
 4153TIP3   OH234017   6.576   3.671   8.464 -0.7116  0.3733  0.2837
 4153TIP3    H134018   6.520   3.747   8.478 -0.1562  0.9652 -0.5864
 4153TIP3    H234019   6.662   3.699   8.496 -0.8568 -0.4623  1.4495
 4154TIP3   OH234020   1.839   2.441   8.340 -0.1293 -0.2047  0.2504
 4154TIP3    H134021   1.782   2.400   8.405 -1.2821  1.6556  0.5088
 4154TIP3    H234022   1.797   2.424   8.256  0.1179 -0.6683  0.2193
 4155TIP3   OH234023   1.768   3.730   7.850  0.3564 -0.0261  0.0673
 4155TIP3    H134024   1.788   3.717   7.943 -2.8374  1.9518  1.2119
 4155TIP3    H234025   1.825   3.802   7.823 -0.1282  0.7747  1.1229
 4156TIP3   OH234026   2.441   1.932   6.908 -0.1486 -0.0176  0.2452
 4156TIP3    H134027   2.409   1.872   6.975  0.4026 -0.8465 -0.2226
 4156TIP3    H234028   2.523   1.966   6.943 -0.1583  0.0072  0.2446
 4157TIP3   OH234029   5.983   1.323   0.045 -0.1137  0.1286  0.2492
 4157TIP3    H134030   5.924   1.271   0.100 -0.7842 -0.5830 -1.0902
 4157TIP3    H234031   5.980   1.411   0.084 -2.2916  0.1895  0.0919
 4158TIP3   OH234032   1.945   6.601   0.540  0.3078  0.2015 -0.1875
 4158TIP3    H134033   2.022   6.545   0.543  0.0505 -0.2847 -1.8233
 4158TIP3    H234034   1.874   6.546   0.574  0.2773 -0.1068 -0.7295
 4159TIP3   OH234035   6.248   0.300   8.445  0.9177  0.9652  0.0234
 4159TIP3    H134036   6.187   0.234   8.413  1.1600  0.4937  0.4993
 4159TIP3    H234037   6.307   0.252   8.504  0.7972  1.6897  0.7679
 4160TIP3   OH234038   5.866   1.580   3.116  0.1230 -0.2944  0.7899
 4160TIP3    H134039   5.777   1.576   3.080  0.4239  0.2290 -0.0448
 4160TIP3    H234040   5.923   1.578   3.039  0.8251 -0.1757  1.2960
 4161TIP3   OH234041   2.148   1.010   1.121  0.3443 -0.5932  0.5799
 4161TIP3    H134042   2.115   0.933   1.167 -2.3141 -0.6440 -1.1530
 4161TIP3    H234043   2.088   1.081   1.146  3.1411  1.2019  2.6819
 4162TIP3   OH234044   1.342   4.660   0.366 -0.0415 -0.2491  0.0034
 4162TIP3    H134045   1.269   4.689   0.421  1.1550  0.1493  1.4355
 4162TIP3    H234046   1.339   4.718   0.289 -0.4142  0.6617  0.6911
 4163TIP3   OH234047   1.779   5.017   8.511  0.1835  0.2073  0.1708
 4163TIP3    H134048   1.708   5.005   8.447 -0.9613 -0.8653  1.5616
 4163TIP3    H234049   1.807   5.107   8.499  0.2191 -0.0418 -2.0257
 4164TIP3   OH234050   5.562   2.728   8.663  0.0738 -0.9079  0.2749
 4164TIP3    H134051   5.482   2.756   8.619 -0.8275 -1.3169  1.5998
 4164TIP3    H234052   5.584   2.800   8.722 -0.2184 -1.4453  1.0561
 4165TIP3   OH234053   1.590   5.539   7.869  0.2885 -0.1570 -0.3455
 4165TIP3    H134054   1.609   5.590   7.948 -1.2520 -0.9396  0.5982
 4165TIP3    H234055   1.549   5.459   7.902  2.3623 -1.9342 -1.7801
 4166TIP3   OH234056   0.910   0.510   1.763  0.1749 -0.0894 -0.2500
 4166TIP3    H134057   0.999   0.483   1.737  0.0174  0.2723 -1.2037
 4166TIP3    H234058   0.901   0.477   1.853  1.3856  0.1399 -0.0174
 4167TIP3   OH234059   2.787   3.080   6.776 -0.0754 -0.2678  0.7573
 4167TIP3    H134060   2.739   3.022   6.716 -0.2252  1.1937 -0.6088
 4167TIP3    H234061   2.864   3.030   6.802 -1.2647 -1.8808  1.3483
 4168TIP3   OH234062   3.816   6.656   2.202  0.5456  0.0045  0.2087
 4168TIP3    H134063   3.868   6.675   2.280  0.7092 -0.3568  0.1925
 4168TIP3    H234064   3.737   6.614   2.235  1.4459 -1.8846  0.0825
 4169TIP3   OH234065   5.273   1.640   1.599  0.0029 -0.5156 -0.1798
 4169TIP3    H134066   5.207   1.652   1.667 -0.5120  1.7187 -0.9726
 4169TIP3    H234067   5.225   1.648   1.516  1.2572  1.7180 -0.7820
 4170TIP3   OH234068   3.837   4.279   1.187  0.6939  0.1718 -0.3787
 4170TIP3    H134069   3.772   4.209   1.195 -0.0754  0.6279 -2.1468
 4170TIP3    H234070   3.790   4.359   1.212  1.1872  0.2476  0.3374
 4171TIP3   OH234071   1.226   3.594   7.092 -0.0894  0.1921  0.4632
 4171TIP3    H134072   1.186   3.528   7.036 -1.1873  1.2088  0.0111
 4171TIP3    H234073   1.216   3.676   7.043  1.0118  0.7496  1.1233
 4172TIP3   OH234074   4.305   6.751   6.716 -0.2600 -0.0887 -0.3255
 4172TIP3    H134075   4.400   6.739   6.724  0.2352  2.6910 -0.9750
 4172TIP3    H234076   4.295   6.816   6.646 -2.1976  4.3938  3.5883
 4173TIP3   OH234077   3.433   5.429   8.117  0.1795 -0.7626  0.0334
 4173TIP3    H134078   3.394   5.410   8.031  0.9609  2.0000 -1.0521
 4173TIP3    H234079   3.506   5.488   8.097 -0.0115  0.4918  2.6414
 4174TIP3   OH234080   0.142   2.473   8.193 -0.0949 -0.5605 -0.0444
 4174TIP3    H134081   0.103   2.402   8.141 -0.8827  0.2865 -0.6292
 4174TIP3    H234082   0.234   2.446   8.202 -0.2081 -1.3101 -0.8753
 4175TIP3   OH234083   4.396   6.783   7.002 -0.2073 -1.0767  0.1173
 4175TIP3    H134084   4.458   6.754   6.935  1.1860 -1.3952  1.4806
 4175TIP3    H234085   4.414   6.727   7.078 -2.1683 -1.1544  0.5890
 4176TIP3   OH234086   6.510   2.988   1.275 -0.8534 -0.0265 -0.0713
 4176TIP3    H134087   6.553   2.990   1.189  0.4683 -0.1378  0.5635
 4176TIP3    H234088   6.435   2.930   1.263 -1.3650  0.8627 -1.4430
 4177TIP3   OH234089   0.566   5.982   2.083 -0.1372 -0.4758 -0.3700
 4177TIP3    H134090   0.623   5.951   2.013  0.3498  0.9167 -0.6214
 4177TIP3    H234091   0.543   6.072   2.057  2.1874  1.1184  2.4453
 4178TIP3   OH234092   2.046   4.832   7.894  0.1905  0.3004  0.9330
 4178TIP3    H134093   1.974   4.894   7.903 -0.4861 -0.3780  0.3355
 4178TIP3    H234094   2.031   4.768   7.964  0.5620  0.4910  1.1902
 4179TIP3   OH234095   3.134   4.739   2.908 -0.9261  0.0772 -0.5614
 4179TIP3    H134096   3.193   4.748   2.833  0.5365  3.2013  0.7882
 4179TIP3    H234097   3.172   4.667   2.959  0.6457  0.7524 -0.7050
 4180TIP3   OH234098   2.285   6.304   0.815  0.1013  0.1075 -0.1051
 4180TIP3    H134099   2.344   6.329   0.744 -1.4978  0.6047 -1.3380
 4180TIP3    H234100   2.305   6.366   0.885  0.4456  0.8490 -0.8350
 4181TIP3   OH234101   4.832   6.027   8.121  0.5101  0.1896  0.0542
 4181TIP3    H134102   4.799   5.938   8.109  0.1409  0.2104  0.8513
 4181TIP3    H234103   4.754   6.080   8.136  0.8073  0.4699  0.6304
 4182TIP3   OH234104   3.780   2.454   0.159 -0.2702 -1.1480 -0.2273
 4182TIP3    H134105   3.866   2.412   0.161  0.1262 -0.3507  1.4699
 4182TIP3    H234106   3.756   2.464   0.251 -1.8680 -0.7105 -0.6549
 4183TIP3   OH234107   4.166   2.173   8.006  0.1607 -0.0369  0.0655
 4183TIP3    H134108   4.209   2.181   7.921  0.2088 -0.0239  0.0916
 4183TIP3    H234109   4.112   2.251   8.013  1.1319  0.5932  0.6120
 4184TIP3   OH234110   4.267   0.751   0.470  0.0847  0.9296  0.1439
 4184TIP3    H134111   4.302   0.840   0.459  0.5144  0.5501 -1.8889
 4184TIP3    H234112   4.174   0.764   0.487 -0.5856  1.7700 -3.4109
 4185TIP3   OH234113   2.564   5.870   1.106  0.7670  0.0580  0.1513
 4185TIP3    H134114   2.529   5.957   1.086 -1.2376 -0.9888 -1.3293
 4185TIP3    H234115   2.572   5.828   1.020 -0.6161 -2.0055  0.9477
 4186TIP3   OH234116   1.164   5.259   8.261 -0.5285  0.4112 -0.1300
 4186TIP3    H134117   1.196   5.348   8.275  3.7493 -0.6582 -1.6993
 4186TIP3    H234118   1.125   5.261   8.173  2.0013  0.3229 -1.3462
 4187TIP3   OH234119   2.829   2.162   8.306 -0.1173 -0.2838 -0.3317
 4187TIP3    H134120   2.791   2.155   8.394 -0.6185 -0.3515 -0.5499
 4187TIP3    H234121   2.922   2.145   8.319 -0.3040 -1.0450  0.0832
 4188TIP3   OH234122   5.244   2.564   7.902 -0.2697 -0.5222  0.5214
 4188TIP3    H134123   5.335   2.544   7.925 -0.5015 -0.5996  1.4067
 4188TIP3    H234124   5.233   2.527   7.814  1.3809  1.9486 -0.8572
 4189TIP3   OH234125   6.158   4.248   0.644  0.2154  1.1577 -0.5694
 4189TIP3    H134126   6.104   4.313   0.599 -0.4265  1.0517  0.0274
 4189TIP3    H234127   6.106   4.168   0.642 -0.2600  1.3848  1.1612
 4190TIP3   OH234128   4.800   6.248   1.176  0.7682  0.2011 -0.6032
 4190TIP3    H134129   4.761   6.292   1.252 -0.3476 -2.6458  0.6575
 4190TIP3    H234130   4.740   6.267   1.104 -0.4231 -0.3026  0.2227
 4191TIP3   OH234131   4.695   4.920   1.046 -0.0721  0.2180 -0.7861
 4191TIP3    H134132   4.753   4.957   1.112 -0.1049 -0.2112 -0.5086
 4191TIP3    H234133   4.736   4.837   1.022 -0.8810 -0.3958 -0.1229
 4192TIP3   OH234134   4.526   3.775   2.421  0.3258 -0.5022 -0.1529
 4192TIP3    H134135   4.570   3.768   2.506 -0.1798  2.2256  0.4208
 4192TIP3    H234136   4.433   3.761   2.441 -0.2110  3.0137  0.3937
 4193TIP3   OH234137   1.502   0.941   8.524  0.0028  0.0729  0.2517
 4193TIP3    H134138   1.423   0.927   8.576  0.2106  2.7018  1.3980
 4193TIP3    H234139   1.573   0.943   8.588  0.9700 -1.5684 -0.6947
 4194TIP3   OH234140   4.295   2.729   8.296  0.0497  0.4705 -0.3097
 4194TIP3    H134141   4.212   2.775   8.285  0.5869  1.6276  0.2682
 4194TIP3    H234142   4.341   2.740   8.213 -1.5332 -2.7703 -1.8001
 4195TIP3   OH234143   1.761   6.875   0.647  0.1726  0.3122 -0.5955
 4195TIP3    H134144   1.709   6.829   0.581 -0.6198  1.8375 -1.0786
 4195TIP3    H234145   1.797   6.805   0.702 -2.3841 -0.8330 -0.2363
 4196TIP3   OH234146   3.566   2.428   0.697  0.2668 -0.1263 -0.3119
 4196TIP3    H134147   3.620   2.440   0.775  0.3987 -0.5518 -0.3378
 4196TIP3    H234148   3.498   2.496   0.705  1.7637  1.5374 -1.1337
 4197TIP3   OH234149   4.113   5.537   2.372 -0.1086 -0.3568 -0.2307
 4197TIP3    H134150   4.057   5.597   2.421  0.3050 -0.4993  0.4322
 4197TIP3    H234151   4.152   5.481   2.439  1.8429  0.5813 -0.5165
 4198TIP3   OH234152   2.174   4.855   2.152 -0.1576  0.0123  0.8442
 4198TIP3    H134153   2.146   4.793   2.084 -1.7801 -1.2439  2.5386
 4198TIP3    H234154   2.267   4.839   2.162  0.2477  0.6082 -1.4062
 4199TIP3   OH234155   2.698   0.708   7.714 -0.2262 -0.3031 -0.1654
 4199TIP3    H134156   2.608   0.740   7.723 -0.0262  0.9098 -1.9294
 4199TIP3    H234157   2.689   0.627   7.664 -0.3352  0.0437 -0.7247
 4200TIP3   OH234158   1.731   1.357   7.986  0.0415  0.0320  0.6344
 4200TIP3    H134159   1.671   1.355   8.061 -2.0192 -0.4997 -0.9575
 4200TIP3    H234160   1.704   1.434   7.936 -0.6203 -1.2335 -1.0665
 4201TIP3   OH234161   0.005   2.699   8.039 -0.0255 -0.0002  0.3158
 4201TIP3    H134162   0.052   2.778   8.062 -0.9061  0.7562 -0.4067
 4201TIP3    H234163   0.056   2.628   8.078  0.9401  0.8921  0.7085
 4202TIP3   OH234164   2.490   0.938   8.537  0.1765 -0.5386 -0.9492
 4202TIP3    H134165   2.480   1.019   8.489  0.5625  0.3038  0.3381
 4202TIP3    H234166   2.546   0.883   8.482 -0.8124 -0.2860 -2.2275
 4203TIP3   OH234167   5.781   0.556   7.189 -0.1742 -0.2384  0.2744
 4203TIP3    H134168   5.791   0.609   7.268  1.2789  1.8213 -1.1999
 4203TIP3    H234169   5.687   0.559   7.171 -0.2267  1.3031  0.6342
 4204TIP3   OH234170   1.564   5.722   1.000 -0.0196 -0.0933  0.3061
 4204TIP3    H134171   1.526   5.792   1.052  0.6443 -0.0035  0.6911
 4204TIP3    H234172   1.596   5.765   0.921 -1.1603 -0.2535 -0.2502
 4205TIP3   OH234173   4.191   4.212   7.996  0.1096  0.4110  0.5888
 4205TIP3    H134174   4.161   4.143   8.056  1.7831 -1.6252 -0.7715
 4205TIP3    H234175   4.268   4.250   8.039  1.9000 -1.7065 -0.5576
 4206TIP3   OH234176   2.143   1.323   7.249 -0.2187 -0.6091 -0.0209
 4206TIP3    H134177   2.172   1.241   7.208 -0.3916 -0.4873 -0.3936
 4206TIP3    H234178   2.070   1.296   7.305 -1.7744 -0.4382 -1.8234
 4207TIP3   OH234179   2.532   6.194   0.391 -0.3169  0.1691 -0.3281
 4207TIP3    H134180   2.454   6.193   0.335 -0.2892  1.3226 -0.4125
 4207TIP3    H234181   2.605   6.196   0.329 -0.2285 -0.2990 -0.2446
 4208TIP3   OH234182   6.793   0.409   2.632  0.7235 -0.2121 -0.9388
 4208TIP3    H134183   6.738   0.353   2.578  0.9651 -1.3757 -0.0033
 4208TIP3    H234184   6.882   0.382   2.611  0.8300 -0.3967 -0.2677
 4209TIP3   OH234185   2.628   4.235   0.610  0.3078 -0.2030  0.2164
 4209TIP3    H134186   2.593   4.226   0.521  1.1584  0.3651 -0.1887
 4209TIP3    H234187   2.610   4.151   0.651 -1.1088 -0.0966 -0.1148
 4210TIP3   OH234188   5.385   6.321   1.800 -0.2048  0.4080 -0.1273
 4210TIP3    H134189   5.362   6.244   1.852  0.3386 -1.4075 -2.4154
 4210TIP3    H234190   5.441   6.373   1.858 -1.2607 -0.4422  1.7724
 4211TIP3   OH234191   5.703   3.045   8.017  0.2378 -0.1243  0.2674
 4211TIP3    H134192   5.763   3.016   7.949  0.9549  0.1207  0.7846
 4211TIP3    H234193   5.632   3.088   7.970  1.3106  1.1196 -0.2912
 4212TIP3   OH234194   6.634   2.322   8.270 -0.2105 -0.3609 -0.3078
 4212TIP3    H134195   6.707   2.308   8.330  0.2643  1.8431 -0.2845
 4212TIP3    H234196   6.603   2.234   8.248  1.1030 -1.2772  1.3125
 4213TIP3   OH234197   3.942   3.000   8.489  0.3564 -0.7148  0.1080
 4213TIP3    H134198   3.987   3.079   8.460 -2.8873  0.8846 -1.1447
 4213TIP3    H234199   3.887   3.029   8.562 -1.0644 -1.6844 -0.5174
 4214TIP3   OH234200   3.087   2.745   8.012  0.9634 -0.0355  0.0807
 4214TIP3    H134201   3.065   2.828   7.969  0.6400 -0.6163 -0.9016
 4214TIP3    H234202   3.122   2.690   7.943  0.3518 -1.0300  0.5296
 4215TIP3   OH234203   4.913   2.101   8.124  0.0127  0.0682  0.7952
 4215TIP3    H134204   4.874   2.180   8.086 -0.6830 -0.6975 -0.1200
 4215TIP3    H234205   5.007   2.109   8.104 -0.1289  0.4127  0.2331
 4216TIP3   OH234206   3.371   2.590   2.198  0.6219  0.0590 -0.3424
 4216TIP3    H134207   3.460   2.553   2.197  0.0043 -1.5359  0.6128
 4216TIP3    H234208   3.367   2.641   2.279  0.2829 -0.8875  0.2435
 4217TIP3   OH234209   2.310   2.143   7.027 -0.0161  0.1232 -0.1175
 4217TIP3    H134210   2.361   2.101   7.097  0.8213  0.4898 -0.4977
 4217TIP3    H234211   2.329   2.091   6.949  1.8778  1.7980 -0.8268
 4218TIP3   OH234212   2.148   6.593   1.279 -0.2740  0.3006 -0.6181
 4218TIP3    H134213   2.182   6.665   1.226  1.1197  0.1022 -0.0445
 4218TIP3    H234214   2.123   6.526   1.215  0.0043  0.6389 -1.0905
 4219TIP3   OH234215   4.458   4.855   1.214  0.1281 -0.0100 -0.2436
 4219TIP3    H134216   4.516   4.894   1.149 -1.1901  0.0398 -1.4246
 4219TIP3    H234217   4.371   4.889   1.193 -0.3853 -0.2767  1.3290
 4220TIP3   OH234218   0.397   3.144   1.582 -0.6926  0.6772 -0.0270
 4220TIP3    H134219   0.323   3.150   1.521 -1.7000  0.2494  1.1175
 4220TIP3    H234220   0.396   3.053   1.612  0.6854  0.4934 -0.4303
 4221TIP3   OH234221   1.567   2.287   1.342 -0.1204  0.5904  0.5634
 4221TIP3    H134222   1.606   2.340   1.413  2.1377 -0.2358  0.0223
 4221TIP3    H234223   1.477   2.272   1.371  0.1896  1.8098  2.3799
 4222TIP3   OH234224   6.511   0.656   0.801 -0.4301 -0.1211  0.0274
 4222TIP3    H134225   6.490   0.693   0.886  0.4001  0.9085 -0.1992
 4222TIP3    H234226   6.511   0.730   0.741  2.5418 -0.1632 -0.1997
 4223TIP3   OH234227   0.087   4.114   7.171 -0.0899 -0.4835 -0.2927
 4223TIP3    H134228   0.117   4.142   7.084  0.3928  0.4707  0.1738
 4223TIP3    H234229   0.161   4.064   7.207 -0.5234 -1.4243 -0.6643
 4224TIP3   OH234230   0.762   0.524   0.013  0.7090 -0.6355  0.5459
 4224TIP3    H134231   0.777   0.458  -0.055  0.8784 -0.3865  0.3382
 4224TIP3    H234232   0.828   0.505   0.079  2.9277  1.2751 -0.9699
 4225TIP3   OH234233   3.342   5.688   6.849 -0.5854 -0.0034 -0.8544
 4225TIP3    H134234   3.255   5.727   6.859 -0.3422  0.4297 -0.4097
 4225TIP3    H234235   3.389   5.747   6.790 -0.7752 -0.5424 -1.5572
 4226TIP3   OH234236   4.866   6.527   0.267  0.1444  0.1543  0.3865
 4226TIP3    H134237   4.819   6.606   0.240  0.0981  0.1510  0.4555
 4226TIP3    H234238   4.803   6.456   0.252  0.5955 -0.0161 -0.8037
 4227TIP3   OH234239   6.780   2.614   7.795 -0.4753  0.6250  0.2614
 4227TIP3    H134240   6.816   2.621   7.884 -1.0951 -0.2315  0.5875
 4227TIP3    H234241   6.721   2.689   7.787  0.5036  1.4008  0.1261
 4228TIP3   OH234242   4.659   2.692   0.925 -0.7517  0.1882 -0.2561
 4228TIP3    H134243   4.690   2.759   0.865 -0.4539  0.2766 -0.0066
 4228TIP3    H234244   4.564   2.693   0.915 -0.7420  0.5864 -0.3142
 4229TIP3   OH234245   0.947   0.322   0.824  0.1414 -0.2600  1.0613
 4229TIP3    H134246   1.012   0.270   0.776  0.2241 -1.2672  2.2147
 4229TIP3    H234247   0.985   0.332   0.911 -1.7527 -1.9707  2.1837
 4230TIP3   OH234248   2.895   1.185   1.621  0.1787 -0.1515  0.1516
 4230TIP3    H134249   2.805   1.203   1.648 -0.4259 -2.0218 -0.4760
 4230TIP3    H234250   2.890   1.165   1.528  1.6332  2.0401 -0.4854
 4231TIP3   OH234251   4.867   2.449   1.753 -0.4203  0.5077  0.2870
 4231TIP3    H134252   4.877   2.403   1.837 -0.9880  0.1005  0.1378
 4231TIP3    H234253   4.933   2.410   1.696 -0.5844  0.2066  0.3021
 4232TIP3   OH234254   1.436   1.476   0.950  0.2553  0.1020 -0.2109
 4232TIP3    H134255   1.446   1.553   1.005  1.2457  0.1741 -0.4679
 4232TIP3    H234256   1.394   1.411   1.006  1.2407  0.1778  0.6480
 4233TIP3   OH234257   0.607   1.886   8.331 -1.0682  0.1450 -0.0466
 4233TIP3    H134258   0.557   1.932   8.398  1.1480  2.9221 -0.0547
 4233TIP3    H234259   0.697   1.889   8.363 -0.3266 -0.9179 -1.8859
 4234TIP3   OH234260   3.728   1.519   1.933 -0.6672  0.0077  0.4507
 4234TIP3    H134261   3.701   1.469   2.010 -0.7810 -0.0347  0.3831
 4234TIP3    H234262   3.752   1.605   1.968 -0.3999 -0.1174  0.5756
 4235TIP3   OH234263   3.673   6.615   1.423 -0.4691  0.3336 -0.0547
 4235TIP3    H134264   3.703   6.532   1.386 -0.4997  0.6263 -0.7501
 4235TIP3    H234265   3.720   6.623   1.506  0.2593  0.0810 -0.4389
 4236TIP3   OH234266   4.867   1.549   1.604  0.1238 -0.1547 -0.1130
 4236TIP3    H134267   4.911   1.633   1.594 -2.8148  1.6044  0.5400
 4236TIP3    H234268   4.846   1.523   1.514 -0.4217  0.6886 -0.2407
 4237TIP3   OH234269   6.004   0.689   7.883  0.8153 -0.7843  0.1915
 4237TIP3    H134270   5.949   0.759   7.849  2.2873  0.6921  0.7547
 4237TIP3    H234271   5.989   0.616   7.822  0.1819  0.3889 -1.1262
 4238TIP3   OH234272   6.589   2.733   8.105  0.4701 -0.0721 -0.2822
 4238TIP3    H134273   6.677   2.697   8.093  0.1723 -0.9927  0.2126
 4238TIP3    H234274   6.550   2.732   8.018  0.8161  0.0046 -0.4405
 4239TIP3   OH234275   4.529   1.151   7.295 -0.5130  0.1486  0.2113
 4239TIP3    H134276   4.589   1.184   7.362 -1.5239 -0.3137  1.3985
 4239TIP3    H234277   4.534   1.214   7.224  0.4037  0.7989  0.8324
 4240TIP3   OH234278   2.173   1.647   0.355 -0.2534 -0.1729 -0.2061
 4240TIP3    H134279   2.124   1.674   0.432  0.3311  0.4347 -0.0388
 4240TIP3    H234280   2.212   1.563   0.379  1.1109  0.6721  0.7215
 4241TIP3   OH234281   1.468   1.912   7.772  0.0053  0.4320  0.2293
 4241TIP3    H134282   1.408   1.960   7.829 -0.2325  1.0346 -0.5215
 4241TIP3    H234283   1.536   1.975   7.750 -0.4358  0.5174 -0.9545
 4242TIP3   OH234284   1.024   0.875   0.740 -0.0694  0.2866 -0.0091
 4242TIP3    H134285   0.939   0.880   0.695 -0.2237  2.1092  0.4332
 4242TIP3    H234286   1.004   0.899   0.830  0.3072 -2.9099  1.0673
 4243TIP3   OH234287   3.567   1.155   1.850 -0.4854  0.4673  0.2434
 4243TIP3    H134288   3.486   1.196   1.819 -0.8977  0.2061  0.9613
 4243TIP3    H234289   3.554   1.062   1.834  0.0138  0.5004 -0.3945
 4244TIP3   OH234290   6.095   4.878   7.281 -0.5470 -0.0205 -0.2189
 4244TIP3    H134291   6.061   4.911   7.197  2.3931  0.0353 -1.5239
 4244TIP3    H234292   6.058   4.790   7.289 -0.3230 -0.3169 -2.0011
 4245TIP3   OH234293   4.427   4.779   0.731  0.0056 -0.2361 -0.2730
 4245TIP3    H134294   4.383   4.855   0.770  0.5675 -0.6195  1.1882
 4245TIP3    H234295   4.365   4.745   0.667 -0.8611  0.5893  0.1052
 4246TIP3   OH234296   4.346   5.374   0.948 -0.2249  0.1205  0.1607
 4246TIP3    H134297   4.431   5.364   0.903  0.0920 -0.1490  0.8054
 4246TIP3    H234298   4.284   5.328   0.892 -0.4338  2.3488 -1.6177
 4247TIP3   OH234299   1.768   2.747   2.526  0.3134  0.1235 -0.5811
 4247TIP3    H134300   1.790   2.677   2.465  1.6189 -0.7853  0.8547
 4247TIP3    H234301   1.852   2.781   2.556 -0.2672  0.3314  0.9270
 4248TIP3   OH234302   6.103   5.853   1.020  0.2081 -0.6109 -0.5679
 4248TIP3    H134303   6.182   5.848   0.965  0.6565 -0.6743  0.0740
 4248TIP3    H234304   6.135   5.837   1.109 -0.6909 -1.6669 -0.4299
 4249TIP3   OH234305   1.077   2.220   1.414 -0.2315  0.1654 -0.3855
 4249TIP3    H134306   1.060   2.295   1.470  1.1578 -1.8208  3.0343
 4249TIP3    H234307   1.145   2.250   1.354  1.5611  1.3082  2.0182
 4250TIP3   OH234308   1.829   1.804   0.230 -0.1858 -0.2833 -0.1592
 4250TIP3    H134309   1.843   1.734   0.166 -0.4111  1.4608 -2.2556
 4250TIP3    H234310   1.903   1.864   0.216 -1.4209  1.2555 -0.4169
 4251TIP3   OH234311   5.033   1.614   1.099 -0.0652  0.1868 -0.1899
 4251TIP3    H134312   4.942   1.625   1.126 -0.3049 -0.3632 -0.7753
 4251TIP3    H234313   5.029   1.558   1.021  0.7321  0.5519 -0.5044
 4252TIP3   OH234314   6.659   4.768   0.771  0.8407 -0.0614  0.3479
 4252TIP3    H134315   6.746   4.739   0.796  0.9578 -0.2662 -0.2667
 4252TIP3    H234316   6.630   4.822   0.844  1.1885 -0.5738  0.8764
 4253TIP3   OH234317   4.854   5.662   0.213  0.7544  0.1140 -0.0485
 4253TIP3    H134318   4.845   5.620   0.298 -0.2978 -0.8354 -0.6129
 4253TIP3    H234319   4.877   5.591   0.153  0.7676  0.6475 -0.6855
 4254TIP3   OH234320   3.833   1.548   7.281 -0.2272  0.2181 -0.2280
 4254TIP3    H134321   3.889   1.617   7.317 -1.0403  0.1993  1.1503
 4254TIP3    H234322   3.767   1.595   7.230  1.0742  0.2312 -1.9970
 4255TIP3   OH234323   3.653   0.545   0.605  0.0860  0.0713  0.6639
 4255TIP3    H134324   3.726   0.588   0.649  2.6503 -0.8772 -2.3301
 4255TIP3    H234325   3.689   0.461   0.575 -2.4802 -0.7833 -0.3207
 4256TIP3   OH234326   1.938   2.348   7.144 -0.8790  0.1525  0.1365
 4256TIP3    H134327   1.871   2.330   7.079  1.6830  0.6499 -2.8636
 4256TIP3    H234328   1.928   2.441   7.164 -0.8421  0.3174 -0.6035
 4257TIP3   OH234329   4.297   0.529   7.506  0.0454  0.4984 -0.3465
 4257TIP3    H134330   4.305   0.456   7.445  0.1726 -1.8295  2.2432
 4257TIP3    H234331   4.382   0.534   7.549 -0.5597  0.8279  0.8713
 4258TIP3   OH234332   0.327   5.064   7.283 -0.0895  0.0588  0.3564
 4258TIP3    H134333   0.265   4.991   7.276  0.5170 -0.4417  0.2290
 4258TIP3    H234334   0.277   5.140   7.252 -0.0650 -0.6628 -1.5319
 4259TIP3   OH234335   6.318   3.497   2.287  0.6386 -0.3527 -0.4955
 4259TIP3    H134336   6.396   3.445   2.268  0.4156 -0.9817  0.2799
 4259TIP3    H234337   6.245   3.438   2.267  0.3839 -0.2871  0.2265
 4260TIP3   OH234338   4.407   2.881   2.267  0.1946  0.3307  0.0764
 4260TIP3    H134339   4.329   2.868   2.321 -0.7371  0.1117 -1.2531
 4260TIP3    H234340   4.478   2.841   2.316 -0.9143 -1.3781  0.3994
 4261TIP3   OH234341   1.437   5.331   7.983 -0.0255  0.6066 -0.1393
 4261TIP3    H134342   1.344   5.324   7.964 -0.5471  1.9567  1.5946
 4261TIP3    H234343   1.446   5.297   8.072  1.8100 -2.9036 -1.4391
 4262TIP3   OH234344   6.318   1.795   0.062  0.4559 -0.0751 -0.6073
 4262TIP3    H134345   6.360   1.857   0.002 -1.2514 -0.1847 -1.9799
 4262TIP3    H234346   6.280   1.728   0.005  1.2645 -1.7951  0.7838
 4263TIP3   OH234347   1.332   3.987   8.340  0.5288 -0.2990  0.4252
 4263TIP3    H134348   1.399   3.988   8.409 -0.3124 -1.4823  1.3080
 4263TIP3    H234349   1.305   3.896   8.335  0.6351 -0.2611 -1.5849
 4264TIP3   OH234350   6.157   1.960   8.109  0.0230 -0.8026 -0.1054
 4264TIP3    H134351   6.067   1.984   8.087 -0.4180 -1.5084  0.8719
 4264TIP3    H234352   6.182   1.897   8.042 -0.2958 -0.7793 -0.2495
 4265TIP3   OH234353   3.538   1.885   1.549  0.3003  0.4575  0.1147
 4265TIP3    H134354   3.572   1.811   1.599 -1.1552 -0.9111 -0.8111
 4265TIP3    H234355   3.557   1.862   1.458 -1.2288  0.6238 -0.2689
 4266TIP3   OH234356   2.237   4.704   0.430 -0.2536  0.5761 -0.2271
 4266TIP3    H134357   2.225   4.799   0.435 -0.2560  0.6571 -1.3414
 4266TIP3    H234358   2.149   4.670   0.412 -0.0176  0.5183 -1.3570
 4267TIP3   OH234359   6.521   6.858   8.244 -0.3288 -0.2826  0.2548
 4267TIP3    H134360   6.479   6.942   8.223  3.0249  1.4778 -0.1129
 4267TIP3    H234361   6.504   6.803   8.167 -0.1058  1.1416 -0.8691
 4268TIP3   OH234362   5.083   2.841   7.593  0.5264 -0.0884 -0.1245
 4268TIP3    H134363   5.047   2.753   7.603  0.9846 -0.2309  0.2913
 4268TIP3    H234364   5.015   2.890   7.547  0.3214 -0.6927 -0.4673
 4269TIP3   OH234365   2.407   1.958   0.388  0.1933 -0.3207 -0.4194
 4269TIP3    H134366   2.375   2.027   0.446 -0.8130 -0.4594 -0.7958
 4269TIP3    H234367   2.402   1.878   0.440 -0.4336 -0.3993 -0.5940
 4270TIP3   OH234368   4.385   2.667   7.580 -0.0801  0.4255  0.5798
 4270TIP3    H134369   4.472   2.677   7.619 -0.1460 -0.2402  0.9005
 4270TIP3    H234370   4.374   2.746   7.527  0.9682  0.2264  0.0440
 4271TIP3   OH234371   0.795   5.191   0.043 -0.1391 -0.2040  0.0145
 4271TIP3    H134372   0.834   5.267  -0.001  1.2739 -0.5724  0.5869
 4271TIP3    H234373   0.755   5.140  -0.028 -1.2251  1.1145 -0.3629
 4272TIP3   OH234374   3.462   2.813   1.227  0.2646 -0.7690  0.1293
 4272TIP3    H134375   3.550   2.837   1.254  0.3793  1.4174 -1.8795
 4272TIP3    H234376   3.405   2.880   1.267 -0.3282 -1.3793  0.3304
 4273TIP3   OH234377   0.855   5.439   8.568 -0.4752 -0.1684 -0.1192
 4273TIP3    H134378   0.887   5.527   8.550 -0.3766  0.0348  0.9682
 4273TIP3    H234379   0.795   5.450   8.642 -0.0732 -1.0780  0.3579
 4274TIP3   OH234380   1.698   2.680   0.117  0.3710 -0.1386 -0.1656
 4274TIP3    H134381   1.618   2.716   0.155 -0.1387 -0.7033 -0.6937
 4274TIP3    H234382   1.754   2.757   0.102 -0.1364  0.2756  0.0461
 4275TIP3   OH234383   1.481   5.788   7.076  0.0997  0.2551 -0.0911
 4275TIP3    H134384   1.476   5.847   7.001  0.4640  0.7664  0.2806
 4275TIP3    H234385   1.417   5.822   7.138 -1.2576 -1.0232 -0.7420
 4276TIP3   OH234386   0.011   1.509   1.184 -0.2552 -0.4991  0.5906
 4276TIP3    H134387  -0.069   1.481   1.229  0.1684 -1.8195  0.5638
 4276TIP3    H234388   0.020   1.448   1.111  0.3855  0.1025  0.1529
 4277TIP3   OH234389   2.967   2.016   1.286  0.2401  0.0780  0.8139
 4277TIP3    H134390   2.994   2.077   1.217 -1.1094  0.0367  0.2185
 4277TIP3    H234391   2.876   2.039   1.304  0.3879 -0.3240  2.1592
 4278TIP3   OH234392   4.894   0.071   6.798  0.1094 -0.5149  0.3915
 4278TIP3    H134393   4.871   0.129   6.725 -1.4743 -1.2240  0.2867
 4278TIP3    H234394   4.988   0.057   6.788 -0.1100 -0.8816 -1.7713
 4279TIP3   OH234395   2.810   1.931   6.624  0.2134  0.3049  0.5795
 4279TIP3    H134396   2.881   1.978   6.580 -0.6552  1.0723 -0.0218
 4279TIP3    H234397   2.798   1.852   6.572  0.7005  0.1041  0.7595
 4280TIP3   OH234398   5.231   0.036   7.973 -0.2834  0.3552 -0.1334
 4280TIP3    H134399   5.159   0.094   7.999 -1.7581 -1.6797  0.5417
 4280TIP3    H234400   5.306   0.067   8.024 -0.4188  2.8947 -1.2814
 4281TIP3   OH234401   6.743   3.698   7.846 -0.1121 -0.4878  0.3833
 4281TIP3    H134402   6.776   3.721   7.933  0.0113  0.6227  0.0614
 4281TIP3    H234403   6.808   3.638   7.811  0.0755 -0.5746  0.8686
 4282TIP3   OH234404   3.258   1.982   2.145 -0.2092  0.1094  0.3502
 4282TIP3    H134405   3.240   2.020   2.231  0.2834 -2.2510  1.5905
 4282TIP3    H234406   3.312   2.047   2.101  1.6102  0.3989  2.8034
 4283TIP3   OH234407   1.915   5.326   0.221  0.0895  0.2679 -0.3237
 4283TIP3    H134408   1.862   5.247   0.225  0.5502 -0.0126  1.4238
 4283TIP3    H234409   2.000   5.297   0.188  0.3565 -0.0724  0.6023
 4284TIP3   OH234410   3.674   2.079   2.013  0.4108  0.1219 -0.0861
 4284TIP3    H134411   3.650   1.987   2.019 -0.0742  0.2696  0.3459
 4284TIP3    H234412   3.756   2.080   1.964  0.7496 -0.5880  0.4630
 4285TIP3   OH234413   1.346   5.097   3.161 -0.0566 -0.0977 -0.2665
 4285TIP3    H134414   1.284   5.078   3.090  1.7712 -0.1295 -1.9486
 4285TIP3    H234415   1.349   5.016   3.212 -1.4620 -0.0534 -0.0890
 4286TIP3   OH234416   2.963   3.153   8.491  0.3869 -0.0299 -0.1251
 4286TIP3    H134417   2.972   3.248   8.477  2.8670 -0.1759  0.0333
 4286TIP3    H234418   3.011   3.114   8.418  0.4245 -1.1257  0.4760
 4287TIP3   OH234419   6.290   6.664   0.452 -0.3416  0.2585 -0.0146
 4287TIP3    H134420   6.347   6.738   0.430  1.9838 -1.3219  0.2795
 4287TIP3    H234421   6.262   6.629   0.368  2.2219 -1.1242 -0.4018
 4288TIP3   OH234422   4.059   1.871   8.458 -0.1896  0.0726  0.1342
 4288TIP3    H134423   4.099   1.933   8.396 -1.2086 -0.1589 -0.7876
 4288TIP3    H234424   4.050   1.790   8.408 -3.1344  0.5156 -0.2365
 4289TIP3   OH234425   2.204   1.024   0.577  0.1705 -0.3003  0.2422
 4289TIP3    H134426   2.149   0.977   0.640 -1.2432  0.3561 -0.4607
 4289TIP3    H234427   2.201   0.970   0.498  1.6764 -0.9535  0.5914
 4290TIP3   OH234428   4.301   4.120   1.397  0.7063 -0.2706 -0.0704
 4290TIP3    H134429   4.350   4.177   1.455  2.4565 -1.1845 -0.5827
 4290TIP3    H234430   4.266   4.178   1.329  0.4601  0.4882  0.6990
 4291TIP3   OH234431   4.002   6.374   7.508  0.0616  0.7880 -0.4897
 4291TIP3    H134432   4.072   6.310   7.519  0.0336  0.8564  0.1163
 4291TIP3    H234433   3.925   6.322   7.486  0.1413  0.6544 -0.4549
 4292TIP3   OH234434   1.786   0.462   0.398 -0.4865 -0.0030  0.3896
 4292TIP3    H134435   1.864   0.497   0.439 -1.9208  1.3996  2.0694
 4292TIP3    H234436   1.774   0.376   0.437 -0.6954  0.4773  1.4008
 4293TIP3   OH234437   6.343   1.171   7.506 -0.3708 -0.4009 -0.4613
 4293TIP3    H134438   6.281   1.239   7.481  0.7412  0.3659 -1.2802
 4293TIP3    H234439   6.333   1.103   7.439 -1.4819 -1.0598  0.3566
 4294TIP3   OH234440   4.148   0.933   1.165  0.8347  0.1233 -0.0578
 4294TIP3    H134441   4.053   0.931   1.150  0.8488  1.3286 -0.4378
 4294TIP3    H234442   4.159   0.895   1.252 -0.0942  0.8116  0.3802
 4295TIP3   OH234443   1.229   3.295   7.744 -0.6044 -0.8613 -0.4016
 4295TIP3    H134444   1.290   3.358   7.706  0.6515 -0.5281  1.9915
 4295TIP3    H234445   1.239   3.216   7.690  2.1805 -0.9041  0.0365
 4296TIP3   OH234446   3.107   4.168   0.298 -0.3683  0.1336  0.2131
 4296TIP3    H134447   3.026   4.150   0.251  0.4610 -1.1051 -0.7977
 4296TIP3    H234448   3.153   4.084   0.301  0.9914  0.8487  0.5668
 4297TIP3   OH234449   6.088   3.917   8.097 -0.2001 -0.3140 -0.0129
 4297TIP3    H134450   6.136   3.998   8.077  0.0712 -0.8650 -1.7171
 4297TIP3    H234451   6.155   3.858   8.133  0.2461 -0.7583 -1.5112
 4298TIP3   OH234452   3.752   0.288   0.552 -0.7707  0.1068  0.1768
 4298TIP3    H134453   3.775   0.203   0.590 -2.1804 -0.4804 -0.2051
 4298TIP3    H234454   3.682   0.268   0.490 -0.0772  1.3465 -1.0673
 4299TIP3   OH234455   1.351   6.626   7.799 -0.2954  0.5116 -0.2167
 4299TIP3    H134456   1.409   6.568   7.848  0.4655 -0.2228 -1.8827
 4299TIP3    H234457   1.346   6.706   7.851  0.4810 -0.2164  1.0122
 4300TIP3   OH234458   5.670   1.073   2.209  0.0132 -0.3835  0.1299
 4300TIP3    H134459   5.575   1.071   2.222  0.0676  1.8124  1.5371
 4300TIP3    H234460   5.706   1.034   2.289  0.3122 -1.6144 -0.5940
 4301TIP3   OH234461   4.703   0.475   0.959 -0.5797  0.0826 -0.3618
 4301TIP3    H134462   4.731   0.465   0.868 -1.6617  0.2687 -0.7266
 4301TIP3    H234463   4.707   0.386   0.995  3.2183  0.4107  0.4863
 4302TIP3   OH234464   3.756   3.138   7.440 -0.4752 -0.0477  0.2935
 4302TIP3    H134465   3.811   3.189   7.380 -0.3770 -0.2233  0.2318
 4302TIP3    H234466   3.715   3.203   7.497  0.0616  0.0658  0.5582
 4303TIP3   OH234467   4.010   1.460   2.473 -0.1530 -0.3781  0.0659
 4303TIP3    H134468   3.942   1.405   2.434  0.3424 -0.2950 -0.9708
 4303TIP3    H234469   4.092   1.428   2.434 -0.0246  2.4804 -2.4348
 4304TIP3   OH234470   4.014   2.870   7.403  0.3014  0.4584  0.6462
 4304TIP3    H134471   4.088   2.864   7.462  1.0627  1.1324 -0.2097
 4304TIP3    H234472   4.033   2.945   7.347  0.3936 -1.0568 -1.4957
 4305TIP3   OH234473   5.011   1.281   7.171  0.0361  0.0936  0.0992
 4305TIP3    H134474   5.091   1.229   7.176 -1.1908 -1.8173  1.9615
 4305TIP3    H234475   5.004   1.321   7.258 -1.1941 -0.0683  0.0880
 4306TIP3   OH234476   0.554   5.744   0.245  0.5121  0.0255  0.1110
 4306TIP3    H134477   0.505   5.802   0.303 -0.7426 -1.5285  0.6788
 4306TIP3    H234478   0.614   5.697   0.303  0.7278 -0.0367 -0.1629
 4307TIP3   OH234479   5.881   5.640   7.165  0.0571  0.5283 -0.9130
 4307TIP3    H134480   5.788   5.656   7.150  0.5003  1.2416 -3.2076
 4307TIP3    H234481   5.915   5.722   7.200 -0.4042 -0.1962  1.3827
 4308TIP3   OH234482   2.375   3.017   7.752  0.1391 -0.0171 -0.1031
 4308TIP3    H134483   2.338   2.939   7.709 -1.6041 -0.3502  1.8280
 4308TIP3    H234484   2.470   3.003   7.750 -0.0952 -1.7577 -0.6045
 4309TIP3   OH234485   5.190   1.166   8.016 -0.5099 -0.0165 -0.0021
 4309TIP3    H134486   5.109   1.140   8.060 -1.1276  0.9853 -0.5200
 4309TIP3    H234487   5.210   1.252   8.053 -0.0666  0.0455 -0.3930
 4310TIP3   OH234488   5.576   5.589   1.941  0.4359  0.3758  0.2857
 4310TIP3    H134489   5.538   5.548   2.018  0.7618 -0.6118 -0.0611
 4310TIP3    H234490   5.651   5.534   1.919  3.0162  2.9839  1.7586
 4311TIP3   OH234491   4.808   6.225   8.568 -0.4933  0.6951 -0.4705
 4311TIP3    H134492   4.739   6.270   8.519 -0.0059  1.1802 -0.7064
 4311TIP3    H234493   4.884   6.282   8.562 -0.3439  0.6184  0.6135
 4312TIP3   OH234494   1.755   3.238   1.521 -0.0919  0.4650  0.4099
 4312TIP3    H134495   1.746   3.206   1.431  0.9102 -0.4397  0.6063
 4312TIP3    H234496   1.665   3.254   1.550 -0.6242 -1.7003  0.0999
 4313TIP3   OH234497   4.471   4.050   7.982  0.2608  0.3648 -0.2900
 4313TIP3    H134498   4.496   4.023   8.071  0.0063  2.2384  0.3940
 4313TIP3    H234499   4.458   4.145   7.989  1.3901  0.7515 -2.6116
 4314TIP3   OH234500   6.609   3.473   0.640 -0.6334  0.5156  0.5816
 4314TIP3    H134501   6.541   3.518   0.589  0.5855 -0.2174 -1.8322
 4314TIP3    H234502   6.630   3.396   0.588 -0.7070 -1.4420  3.2487
 4315TIP3   OH234503   3.643   2.614   6.880 -0.3136  0.1253  0.1535
 4315TIP3    H134504   3.616   2.583   6.794 -1.8590 -1.3276  1.1079
 4315TIP3    H234505   3.736   2.636   6.870 -0.6136  0.5865 -2.0137
 4316TIP3   OH234506   0.769   6.519   0.103  0.2584  0.0399 -0.7200
 4316TIP3    H134507   0.772   6.442   0.047 -0.4920  0.6293 -1.6186
 4316TIP3    H234508   0.708   6.578   0.059  1.3564  1.4437 -0.4390
 4317TIP3   OH234509   5.492   4.510   7.217  0.4582 -0.3409 -0.6461
 4317TIP3    H134510   5.503   4.481   7.308  0.0512  0.8492 -0.2003
 4317TIP3    H234511   5.511   4.604   7.219 -0.6619 -0.0693 -1.5605
 4318TIP3   OH234512   4.997   1.670   2.227 -0.1483  0.1749  0.0837
 4318TIP3    H134513   4.949   1.648   2.307 -0.0177 -0.8577 -0.1012
 4318TIP3    H234514   5.087   1.646   2.246 -0.4323 -2.1265 -1.0414
 4319TIP3   OH234515   3.930   1.363   1.498 -0.0342  0.5333  0.4941
 4319TIP3    H134516   3.859   1.392   1.440  0.8968  0.4703 -0.7324
 4319TIP3    H234517   3.889   1.352   1.583 -1.2678  1.4992  0.0485
 4320TIP3   OH234518   6.702   5.559   2.206 -0.3632 -0.1246 -0.3084
 4320TIP3    H134519   6.680   5.491   2.143 -1.8533  0.6487 -0.6711
 4320TIP3    H234520   6.700   5.640   2.156  1.4031  0.2199  0.1113
 4321TIP3   OH234521   5.866   1.441   8.136  0.5400 -0.0237  0.2466
 4321TIP3    H134522   5.781   1.443   8.092 -0.8659 -0.2766  2.7778
 4321TIP3    H234523   5.898   1.352   8.123 -0.2836 -0.3627  0.4833
 4322TIP3   OH234524   1.521   3.401   8.332 -0.3723 -0.0222  0.5833
 4322TIP3    H134525   1.483   3.487   8.354 -0.4052  0.2678 -0.5797
 4322TIP3    H234526   1.455   3.338   8.362  0.1923  0.2691  2.5898
 4323TIP3   OH234527   4.270   5.710   0.755  0.2457  0.4613 -0.0251
 4323TIP3    H134528   4.286   5.754   0.839 -0.7992  1.9216 -0.5376
 4323TIP3    H234529   4.307   5.769   0.690 -0.6555  0.3116 -0.7002
 4324TIP3   OH234530   4.560   6.189   1.508  0.6158 -0.1153 -0.2932
 4324TIP3    H134531   4.587   6.142   1.587  1.5891  0.7372 -0.1030
 4324TIP3    H234532   4.519   6.122   1.453 -0.7054 -0.6028  1.1979
 4325TIP3   OH234533   3.402   0.068   0.845  0.0731 -0.5023 -0.3668
 4325TIP3    H134534   3.426   0.093   0.756  0.2403  1.6166  0.2005
 4325TIP3    H234535   3.486   0.053   0.889  0.4185  3.3383  0.6531
 4326TIP3   OH234536   2.045   4.613   7.152 -0.0700 -0.4488  0.6358
 4326TIP3    H134537   1.961   4.655   7.135 -1.9148 -4.2991 -1.0726
 4326TIP3    H234538   2.106   4.657   7.093 -1.4595  0.7637  0.0241
 4327TIP3   OH234539   5.877   2.312   7.525  0.9180 -0.1322  0.0470
 4327TIP3    H134540   5.814   2.263   7.577 -0.2386  0.3426 -0.8478
 4327TIP3    H234541   5.842   2.401   7.523  2.3800  0.4893  0.7067
 4328TIP3   OH234542   4.547   0.641   1.892 -0.4028  0.0845 -0.2173
 4328TIP3    H134543   4.458   0.610   1.877 -0.6321  1.1597 -1.1847
 4328TIP3    H234544   4.554   0.721   1.841  1.6623 -0.8561 -1.5304
 4329TIP3   OH234545   0.115   1.510   7.253 -0.0451  0.3794  0.3333
 4329TIP3    H134546   0.051   1.472   7.193 -1.2518  0.1567  1.7234
 4329TIP3    H234547   0.188   1.447   7.253 -0.0015  0.4099 -0.9143
 4330TIP3   OH234548   2.612   4.888   1.052 -0.3760 -0.6504 -0.1185
 4330TIP3    H134549   2.587   4.959   1.110  0.1378  1.3527 -2.1799
 4330TIP3    H234550   2.534   4.833   1.046 -1.0736  0.1916  0.8859
 4331TIP3   OH234551   5.527   5.623   7.587  0.1819 -0.2557  0.0495
 4331TIP3    H134552   5.572   5.600   7.506  0.0397  0.2056 -0.1602
 4331TIP3    H234553   5.597   5.650   7.647  0.2629 -0.3449 -0.0048
 4332TIP3   OH234554   6.195   5.284   7.759 -0.0694 -0.5055 -0.2981
 4332TIP3    H134555   6.117   5.229   7.760 -0.8536  0.5160 -1.5438
 4332TIP3    H234556   6.214   5.297   7.666  1.8223 -1.0070 -0.0346
 4333TIP3   OH234557   6.118   5.536   1.627 -0.0155  0.1634 -0.3403
 4333TIP3    H134558   6.163   5.453   1.640 -0.6838 -0.2307 -0.4586
 4333TIP3    H234559   6.094   5.536   1.534 -0.1656  0.4058 -0.3032
 4334TIP3   OH234560   3.591   2.769   0.412 -0.4747  0.8533  0.0364
 4334TIP3    H134561   3.653   2.768   0.339 -0.1359  1.9959  0.2899
 4334TIP3    H234562   3.509   2.737   0.374  0.2609 -0.7618 -0.2857
 4335TIP3   OH234563   4.351   1.720   0.588 -0.6882 -0.4782  0.6062
 4335TIP3    H134564   4.343   1.814   0.607 -2.3464 -0.3897 -0.3374
 4335TIP3    H234565   4.265   1.684   0.608 -0.0677 -1.8194  0.9666
 4336TIP3   OH234566   2.589   4.770   7.341 -0.7341  0.1983  0.4895
 4336TIP3    H134567   2.512   4.779   7.284 -0.2372  0.2324 -0.1889
 4336TIP3    H234568   2.596   4.676   7.358 -0.2590  0.0577 -0.4046
 4337TIP3   OH234569   6.676   2.890   7.839 -0.1619 -0.0520 -0.1064
 4337TIP3    H134570   6.677   2.972   7.790 -1.5352  0.3321  0.4495
 4337TIP3    H234571   6.726   2.908   7.918 -3.4938  1.5288  1.8414
 4338TIP3   OH234572   1.526   5.413   1.802 -0.2899  0.1249 -0.2374
 4338TIP3    H134573   1.600   5.451   1.755 -1.6466  0.3785 -2.3100
 4338TIP3    H234574   1.473   5.487   1.829 -1.2731 -0.0990 -1.4245
 4339TIP3   OH234575   0.642   1.908   0.608  0.4580  0.2399  0.0536
 4339TIP3    H134576   0.598   1.852   0.672  0.9574  0.5107  0.6387
 4339TIP3    H234577   0.647   1.993   0.650 -1.6863  1.1914 -1.4154
 4340TIP3   OH234578   2.278   5.646   7.053 -0.1318  0.1678  0.0174
 4340TIP3    H134579   2.290   5.642   6.958  0.8585 -0.2329  0.1434
 4340TIP3    H234580   2.237   5.562   7.075  0.2067 -0.0012  0.0126
 4341TIP3   OH234581   2.173   6.780   0.398 -0.3482 -0.1219 -0.3871
 4341TIP3    H134582   2.142   6.865   0.364 -0.2430  0.9050  1.9238
 4341TIP3    H234583   2.109   6.757   0.465  1.3428 -0.2691  1.2320
 4342TIP3   OH234584   5.395   4.752   6.678  0.2468  0.5822 -0.3889
 4342TIP3    H134585   5.464   4.771   6.614  1.7263  1.6356  1.4181
 4342TIP3    H234586   5.375   4.837   6.717  1.2338 -0.2885  2.2695
 4343TIP3   OH234587   4.616   3.125   1.532 -0.4314  0.2282  0.0326
 4343TIP3    H134588   4.659   3.159   1.610 -0.6672  0.5083  0.0434
 4343TIP3    H234589   4.647   3.181   1.461  0.4273 -0.5399 -0.2163
 4344TIP3   OH234590   6.833   5.578   7.827  0.0790  0.6226 -0.1332
 4344TIP3    H134591   6.787   5.528   7.894  2.6358 -1.9140 -0.0530
 4344TIP3    H234592   6.767   5.590   7.758 -1.3092 -0.9431  0.8173
 4345TIP3   OH234593   6.270   3.582   0.004 -0.0779 -0.1457  0.2537
 4345TIP3    H134594   6.257   3.545   0.091 -0.1506 -0.3209  0.1699
 4345TIP3    H234595   6.244   3.674   0.013  0.6896  0.0459  0.6110
 4346TIP3   OH234596   0.276   0.925   0.821  0.1934 -0.2223  0.2512
 4346TIP3    H134597   0.283   0.925   0.917  3.1689  0.6954  0.1150
 4346TIP3    H234598   0.315   0.842   0.794  0.2397 -0.0496 -0.2187
 4347TIP3   OH234599   2.512   3.714   8.158  0.4673 -0.4783 -0.6094
 4347TIP3    H134600   2.471   3.788   8.114  2.9484 -0.2028 -2.6574
 4347TIP3    H234601   2.505   3.642   8.096  1.8457 -0.7659 -0.4603
 4348TIP3   OH234602   1.369   1.841   6.254  0.0006 -0.4400 -0.0565
 4348TIP3    H134603   1.440   1.815   6.195  0.5086  1.9145 -0.6103
 4348TIP3    H234604   1.407   1.911   6.307 -1.3911 -0.3592  0.8830
 4349TIP3   OH234605   4.056   6.749   0.510 -0.3032 -0.4061  0.5337
 4349TIP3    H134606   4.139   6.758   0.557 -0.4827  0.0959  0.7590
 4349TIP3    H234607   4.075   6.779   0.421 -0.4211  0.3979  0.7771
 4350TIP3   OH234608   4.777   5.273   1.051 -0.3195  0.6344 -0.9196
 4350TIP3    H134609   4.703   5.287   0.991 -1.1206  0.3690 -0.0319
 4350TIP3    H234610   4.823   5.198   1.015 -0.8405  0.4235 -1.1660
 4351TIP3   OH234611   3.709   3.058   0.788  0.1253 -0.2834  0.1186
 4351TIP3    H134612   3.662   3.136   0.816  0.5487  0.1458 -0.3521
 4351TIP3    H234613   3.647   2.986   0.803 -0.9618  0.3429 -1.0957
 4352TIP3   OH234614   2.245   4.614   0.020  0.1576 -0.1064  0.0474
 4352TIP3    H134615   2.190   4.539   0.040 -0.9690  0.4964 -0.6915
 4352TIP3    H234616   2.334   4.579   0.016 -0.1763 -1.1292  1.0788
 4353TIP3   OH234617   0.619   6.753   0.671  0.2080 -0.0995 -0.1780
 4353TIP3    H134618   0.686   6.773   0.606  0.6653 -0.0137  0.3119
 4353TIP3    H234619   0.541   6.799   0.640  0.1125 -0.9416 -1.2356
 4354TIP3   OH234620   4.290   1.136   7.748  0.4426 -0.4087 -0.4882
 4354TIP3    H134621   4.258   1.047   7.734 -0.7722 -0.3537  1.5408
 4354TIP3    H234622   4.370   1.125   7.799 -0.2913 -0.3423  0.7139
 4355TIP3   OH234623   1.229   4.682   6.984  0.3187  0.3901 -0.6707
 4355TIP3    H134624   1.192   4.616   6.925  1.2988 -3.5416  2.6527
 4355TIP3    H234625   1.318   4.651   7.001  1.3460  3.4397  0.0638
 4356TIP3   OH234626   4.358   6.634   8.396 -0.4161  0.6440  0.0957
 4356TIP3    H134627   4.426   6.589   8.447 -0.7652 -0.4442 -0.3648
 4356TIP3    H234628   4.315   6.692   8.459  1.4633  2.0085  0.2140
 4357TIP3   OH234629   2.199   1.305   1.468  0.1060  0.0813 -0.3366
 4357TIP3    H134630   2.146   1.364   1.522 -1.9107 -1.2896 -0.6849
 4357TIP3    H234631   2.138   1.272   1.402  1.6817 -0.8277 -1.4037
 4358TIP3   OH234632   2.639   1.168   1.630 -0.4218 -0.0949 -0.0327
 4358TIP3    H134633   2.583   1.115   1.687  0.3895 -1.2144 -0.2439
 4358TIP3    H234634   2.617   1.138   1.541 -0.2836  0.2481 -0.1817
 4359TIP3   OH234635   1.323   0.515   0.773  0.0128  0.1064 -0.8414
 4359TIP3    H134636   1.419   0.512   0.778  0.0682  0.5992 -1.5174
 4359TIP3    H234637   1.304   0.531   0.681 -0.7376 -0.3138 -0.7715
 4360TIP3   OH234638   4.736   6.766   8.488  0.6347 -0.5478  0.2501
 4360TIP3    H134639   4.786   6.703   8.540  2.7632  0.5929 -0.2980
 4360TIP3    H234640   4.719   6.838   8.549  2.5647  0.4965 -0.3382
 4361TIP3   OH234641   5.260   2.994   7.325 -0.3052 -0.0787  0.2144
 4361TIP3    H134642   5.295   2.905   7.318  0.1254  0.0255  0.9266
 4361TIP3    H234643   5.167   2.985   7.302 -0.0562 -0.5437 -0.6327
 4362TIP3   OH234644   2.424   2.071   7.965  0.0162  0.3536 -0.1063
 4362TIP3    H134645   2.464   2.029   8.041  2.7913  0.8988 -1.1585
 4362TIP3    H234646   2.497   2.090   7.906 -1.8992  0.8579 -2.4998
 4363TIP3   OH234647   4.375   1.588   0.068  0.4444  0.0795  0.3576
 4363TIP3    H134648   4.291   1.544   0.050  1.0750 -0.6320 -0.9733
 4363TIP3    H234649   4.375   1.600   0.163  0.0663 -2.4746  0.7594
 4364TIP3   OH234650   4.639   3.279   0.104 -0.2225 -0.2957  0.2144
 4364TIP3    H134651   4.646   3.190   0.069 -0.0479 -0.3244  0.3223
 4364TIP3    H234652   4.604   3.331   0.031  1.0747 -0.1558 -0.3361
 4365TIP3   OH234653   2.348   5.178   0.283 -0.5620 -0.9173 -0.1636
 4365TIP3    H134654   2.345   5.101   0.339  0.2537  0.8378  2.5354
 4365TIP3    H234655   2.418   5.232   0.321 -0.4591  0.7490 -2.4955
 4366TIP3   OH234656   2.200   2.982   7.967  0.2483 -0.0789  0.1003
 4366TIP3    H134657   2.117   2.998   7.922  0.3593 -2.6608 -1.1742
 4366TIP3    H234658   2.267   2.997   7.901  0.5635 -1.5219  0.0694
 4367TIP3   OH234659   3.181   5.461   1.491 -0.1609  0.2470  0.3299
 4367TIP3    H134660   3.174   5.368   1.469 -2.7708  0.1518  1.2251
 4367TIP3    H234661   3.246   5.496   1.429  0.7134 -2.0983 -0.1620
 4368TIP3   OH234662   5.524   1.136   1.934  0.1019 -0.1301  0.3050
 4368TIP3    H134663   5.611   1.121   1.895  0.3825  0.7219  0.5837
 4368TIP3    H234664   5.526   1.088   2.016  0.0496 -0.6960 -0.0182
 4369TIP3   OH234665   3.693   2.865   7.274  0.1982  0.2899 -0.6234
 4369TIP3    H134666   3.751   2.884   7.200  1.2523  1.5483  0.4628
 4369TIP3    H234667   3.707   2.772   7.292  3.0513  0.8199  0.4755
 4370TIP3   OH234668   6.011   6.320   0.809  0.7372  0.9177 -0.0099
 4370TIP3    H134669   6.063   6.323   0.728 -0.7265  0.7934 -0.9899
 4370TIP3    H234670   5.920   6.312   0.779  0.1540  0.9293  1.6565
 4371TIP3   OH234671   0.975   3.980   7.938  0.0055  0.3241 -0.3693
 4371TIP3    H134672   1.033   3.945   8.005 -2.3905  0.1531  1.7498
 4371TIP3    H234673   0.956   3.904   7.882 -0.2849 -0.2741  0.5159
 4372TIP3   OH234674   1.180   6.571   0.010 -0.1589 -0.4658 -0.1429
 4372TIP3    H134675   1.268   6.575   0.050 -0.6911  0.0013  1.0381
 4372TIP3    H234676   1.184   6.496  -0.049  0.7961 -0.9676  0.5212
 4373TIP3   OH234677   3.980   4.670   7.705  0.2294 -0.9136 -0.2038
 4373TIP3    H134678   4.032   4.665   7.625  0.9193  1.1526  0.0584
 4373TIP3    H234679   4.009   4.751   7.748 -1.4988 -0.9576  1.1778
 4374TIP3   OH234680   2.675   5.549   0.141  0.0765 -0.5632 -0.7441
 4374TIP3    H134681   2.583   5.573   0.132  0.5622  1.3603 -1.0102
 4374TIP3    H234682   2.719   5.598   0.072  1.4711 -0.3609  0.2511
 4375TIP3   OH234683   1.736   1.479   0.892  0.8700  0.5915 -0.0425
 4375TIP3    H134684   1.760   1.572   0.889  1.1091  0.5340  0.1333
 4375TIP3    H234685   1.774   1.442   0.812  0.3285  0.7519 -0.3795
 4376TIP3   OH234686   3.100   1.770   1.786 -0.4759  0.9317 -0.3930
 4376TIP3    H134687   3.190   1.788   1.812 -0.4442 -1.8855  2.0498
 4376TIP3    H234688   3.076   1.843   1.730  3.1490  2.0224 -0.7930
 4377TIP3   OH234689   2.533   2.154   8.384  0.8221 -0.2270 -0.4082
 4377TIP3    H134690   2.567   2.090   8.321 -2.0944 -2.2738 -0.0723
 4377TIP3    H234691   2.592   2.147   8.459  0.5483 -2.6198 -0.3521
 4378TIP3   OH234692   3.699   4.479   8.188  0.1953  0.2417 -0.7168
 4378TIP3    H134693   3.747   4.424   8.249 -2.1528 -0.9596  0.2098
 4378TIP3    H234694   3.685   4.561   8.235  0.0875  0.0485 -0.4091
 4379TIP3   OH234695   2.284   4.790   7.740  0.2012 -0.0950 -0.6875
 4379TIP3    H134696   2.298   4.696   7.726 -1.5585 -0.3695 -0.8103
 4379TIP3    H234697   2.191   4.798   7.761  0.7973  1.3235  2.0140
 4380TIP3   OH234698   5.199   5.365   8.625  0.0359  0.0003  0.0878
 4380TIP3    H134699   5.278   5.359   8.571  1.7048 -3.0691  2.5633
 4380TIP3    H234700   5.142   5.296   8.592 -0.9536  1.1093 -0.5954
 4381TIP3   OH234701   4.601   4.324   7.817  0.1009 -0.3342  0.0154
 4381TIP3    H134702   4.577   4.349   7.906  0.4657  0.5923 -0.1327
 4381TIP3    H234703   4.684   4.277   7.827 -0.9476 -2.2183  0.3706
 4382TIP3   OH234704   4.779   0.571   7.792 -0.2101  0.0080  0.1794
 4382TIP3    H134705   4.687   0.598   7.798  0.1813  1.4665 -0.2079
 4382TIP3    H234706   4.828   0.652   7.785  1.2215 -0.6983  1.4206
 4383TIP3   OH234707   3.276   6.505   2.234  0.7174  0.6282  0.4155
 4383TIP3    H134708   3.294   6.416   2.203 -0.2102  0.8785 -0.9064
 4383TIP3    H234709   3.187   6.501   2.269 -0.1799  1.4876 -1.6273
 4384TIP3   OH234710   1.089   4.407   7.051 -0.0683 -0.2012  0.1346
 4384TIP3    H134711   1.031   4.466   7.004 -1.8139 -2.5329 -0.8358
 4384TIP3    H234712   1.033   4.368   7.118  1.0488 -0.7232  0.7885
 4385TIP3   OH234713   2.461   4.596   1.924  0.2597  0.0882  0.6475
 4385TIP3    H134714   2.530   4.605   1.858  0.1934  0.6781  0.6499
 4385TIP3    H234715   2.495   4.531   1.985 -0.6876 -2.3145 -1.2117
 4386TIP3   OH234716   2.611   0.805   1.886 -0.0482 -0.1009  0.3927
 4386TIP3    H134717   2.525   0.766   1.869  0.0707 -0.7992  1.3435
 4386TIP3    H234718   2.673   0.739   1.854  0.1483 -0.4079  1.3925
 4387TIP3   OH234719   6.644   2.809   7.522  0.3569  0.4243 -0.3240
 4387TIP3    H134720   6.599   2.725   7.530 -2.4377  1.9022  0.6564
 4387TIP3    H234721   6.693   2.817   7.604  3.2571 -1.5122 -1.6904
 4388TIP3   OH234722   4.336   1.663   1.310 -0.2898  0.7421 -0.5617
 4388TIP3    H134723   4.256   1.654   1.363 -0.0637  0.3134 -0.2861
 4388TIP3    H234724   4.336   1.586   1.253  0.4611  0.1846  0.1740
 4389TIP3   OH234725   2.734   2.433   0.525  0.1488  0.2738 -0.8644
 4389TIP3    H134726   2.722   2.486   0.604  0.2767 -2.0405  0.8210
 4389TIP3    H234727   2.828   2.411   0.526 -0.3916 -2.4809  0.3246
 4390TIP3   OH234728   0.577   1.409   7.540 -0.5101 -0.1139 -0.4483
 4390TIP3    H134729   0.547   1.436   7.627  1.1244 -0.4800  0.2672
 4390TIP3    H234730   0.616   1.323   7.554 -1.0397 -0.5787 -1.7346
 4391TIP3   OH234731   3.885   5.950   2.137 -0.0808 -0.5496  0.2087
 4391TIP3    H134732   3.810   5.948   2.196 -0.7706 -1.4854 -0.6668
 4391TIP3    H234733   3.850   5.925   2.052  0.8701  0.8295 -0.6445
 4392TIP3   OH234734   3.565   3.232   7.245 -0.2046 -0.0006  0.2267
 4392TIP3    H134735   3.566   3.253   7.152 -0.4993 -1.8063 -0.2311
 4392TIP3    H234736   3.657   3.236   7.272  0.2667 -2.0806 -0.8443
 4393TIP3   OH234737   6.243   0.616   3.018  0.1705  0.0315  0.5122
 4393TIP3    H134738   6.256   0.660   2.934 -2.5276 -0.5386 -0.3119
 4393TIP3    H234739   6.260   0.524   3.000  1.9619  0.1932  1.2449
 4394TIP3   OH234740   0.955   6.298   6.342 -0.1888  0.2082  0.1430
 4394TIP3    H134741   0.981   6.209   6.364 -1.7979 -0.6287 -1.1395
 4394TIP3    H234742   0.990   6.351   6.413  0.8837 -1.4286  0.8878
 4395TIP3   OH234743   4.970   4.755   7.037  0.2385  0.0895  0.0590
 4395TIP3    H134744   5.056   4.792   7.016  0.0495 -0.6890 -2.4721
 4395TIP3    H234745   4.990   4.672   7.081  0.7773  0.3004  0.2154
 4396TIP3   OH234746   3.511   3.965   0.985  0.3667 -0.8017  0.2207
 4396TIP3    H134747   3.561   3.887   1.006  1.8734  0.1211  0.1974
 4396TIP3    H234748   3.475   3.948   0.898  1.0395 -1.3075  0.0338
 4397TIP3   OH234749   4.869   5.053   1.210  0.1343  0.2624 -0.3360
 4397TIP3    H134750   4.904   5.105   1.138 -0.1455  2.7511  1.2050
 4397TIP3    H234751   4.905   5.093   1.289 -2.0919 -0.2741  1.0704
 4398TIP3   OH234752   0.952   3.064   8.607 -0.8382  0.3290 -0.1947
 4398TIP3    H134753   0.895   3.140   8.593  1.5623  2.1937 -0.4984
 4398TIP3    H234754   1.032   3.100   8.645  0.4047 -2.0699 -0.3248
 4399TIP3   OH234755   6.397   2.911   1.668  0.2407  0.3397 -0.5293
 4399TIP3    H134756   6.313   2.920   1.624  0.0989  0.2104 -0.2889
 4399TIP3    H234757   6.391   2.970   1.743 -0.5586 -1.4123  0.8514
 4400TIP3   OH234758   5.723   0.997   0.403  0.6314 -0.0715  0.2201
 4400TIP3    H134759   5.652   0.967   0.460 -0.6968 -0.6574 -1.6594
 4400TIP3    H234760   5.685   1.068   0.353  0.9875 -1.0895 -1.5801
 4401TIP3   OH234761   1.892   2.565   0.627  0.0692  0.1635 -0.3709
 4401TIP3    H134762   1.906   2.657   0.646 -0.5364  0.0994  0.4495
 4401TIP3    H234763   1.841   2.564   0.547  1.0965  0.4944 -1.0499
 4402TIP3   OH234764   1.034   1.239   0.983 -0.4046  0.0339  0.3371
 4402TIP3    H134765   1.005   1.233   1.074 -1.1550 -0.6249  0.0689
 4402TIP3    H234766   0.956   1.264   0.935 -0.1261 -0.0944 -0.1888
 4403TIP3   OH234767   5.683   5.885   0.375 -0.4162  0.2416 -0.2250
 4403TIP3    H134768   5.620   5.828   0.333  0.1491  0.0710 -0.8589
 4403TIP3    H234769   5.764   5.833   0.379  0.6040  1.5523 -2.3779
 4404TIP3   OH234770   6.578   5.818   6.745 -0.0267 -0.5373  0.9070
 4404TIP3    H134771   6.631   5.773   6.810  1.0676  0.1000  0.4902
 4404TIP3    H234772   6.604   5.778   6.661  0.2178  0.1664  0.6408
 4405TIP3   OH234773   2.213   2.711   2.107 -0.4654  0.2257  0.4485
 4405TIP3    H134774   2.258   2.794   2.122  0.5700 -0.3258  0.4601
 4405TIP3    H234775   2.162   2.696   2.187  0.5252  0.1138  1.0688
 4406TIP3   OH234776   2.970   1.655   8.615  0.1978  0.4465 -0.5835
 4406TIP3    H134777   3.063   1.634   8.614 -0.0869 -0.9159 -1.6322
 4406TIP3    H234778   2.926   1.571   8.628 -0.9428  0.5587 -3.0667
 4407TIP3   OH234779   4.211   4.320   1.225 -0.6363  0.0721  0.0222
 4407TIP3    H134780   4.246   4.397   1.179 -1.8013  0.4892 -0.2129
 4407TIP3    H234781   4.182   4.354   1.310 -0.3919 -0.2846  0.2524
 4408TIP3   OH234782   3.732   3.124   0.523  0.0406 -0.5198 -0.1519
 4408TIP3    H134783   3.744   3.122   0.618 -1.5216 -0.1394  0.0817
 4408TIP3    H234784   3.710   3.033   0.500 -0.4363 -0.4362 -0.0240
 4409TIP3   OH234785   5.922   1.169   8.024  0.2059  0.0710  0.1197
 4409TIP3    H134786   5.838   1.140   7.988  0.6449  0.6440 -1.4432
 4409TIP3    H234787   5.984   1.102   7.995  0.5901  0.6059 -0.3097
 4410TIP3   OH234788   3.998   0.967   6.565 -0.5909  0.4455 -0.1402
 4410TIP3    H134789   4.005   0.893   6.625 -1.8900 -0.5371 -1.1284
 4410TIP3    H234790   3.907   0.996   6.573 -1.5018 -1.1773 -3.1982
 4411TIP3   OH234791   2.133   0.799   7.972 -0.3239 -0.1595 -0.1717
 4411TIP3    H134792   2.218   0.842   7.983  0.1275 -1.0428 -0.0161
 4411TIP3    H234793   2.155   0.715   7.931 -1.2174 -0.0562 -0.8904
 4412TIP3   OH234794   5.890   0.010   0.810 -0.2880 -0.1496  0.2481
 4412TIP3    H134795   5.848   0.094   0.823  0.2418  0.2543 -0.5309
 4412TIP3    H234796   5.974   0.032   0.769  0.1180 -1.0118  0.5992
 4413TIP3   OH234797   6.247   3.845   0.311 -0.7024  0.7688 -0.1997
 4413TIP3    H134798   6.323   3.812   0.263  0.5378  2.5294  0.4454
 4413TIP3    H234799   6.211   3.913   0.253 -1.4172  0.3726 -0.2265
 4414TIP3   OH234800   0.008   2.222   1.287  0.3815 -0.1361  0.7641
 4414TIP3    H134801   0.067   2.276   1.340  1.2963  0.1964 -0.5481
 4414TIP3    H234802  -0.070   2.211   1.342  0.7888  1.2384  1.6755
 4415TIP3   OH234803   4.191   6.070   1.661  0.6245  0.0071  0.0802
 4415TIP3    H134804   4.222   6.116   1.740 -0.4719 -0.1513  0.6106
 4415TIP3    H234805   4.137   5.998   1.694  0.1407 -0.0558 -0.8203
 4416TIP3   OH234806   2.946   1.949   0.511 -0.2488 -0.2481 -0.1140
 4416TIP3    H134807   2.921   1.922   0.600  2.2195  3.5520  2.0142
 4416TIP3    H234808   2.865   1.984   0.473 -0.8385  0.4171  1.6677
 4417TIP3   OH234809   0.218   0.867   8.083  0.1644 -0.3272  0.3645
 4417TIP3    H134810   0.173   0.945   8.115  0.4327  0.4083 -0.9875
 4417TIP3    H234811   0.273   0.899   8.012  0.9332 -1.6210  0.3546
 4418TIP3   OH234812   3.060   4.215   0.548 -0.5229  0.1046  0.7497
 4418TIP3    H134813   2.974   4.173   0.548 -1.8354  2.6533  0.3163
 4418TIP3    H234814   3.090   4.208   0.457 -0.8651  0.3750  0.6163
 4419TIP3   OH234815   1.032   0.101   1.049  0.1703  0.0302  0.4689
 4419TIP3    H134816   1.009   0.172   1.108 -1.1364 -1.7601  2.2502
 4419TIP3    H234817   0.948   0.071   1.014  0.4874 -1.7094  1.1018
 4420TIP3   OH234818   0.763   5.151   7.294  0.0992  0.4372 -0.3824
 4420TIP3    H134819   0.853   5.151   7.326  0.3443 -2.0901 -0.8601
 4420TIP3    H234820   0.770   5.127   7.202 -1.0159  0.9771 -0.6225
 4421TIP3   OH234821   2.694   1.980   0.429 -1.1619 -0.5296 -0.0192
 4421TIP3    H134822   2.652   1.927   0.497 -0.1878 -0.0386  0.9853
 4421TIP3    H234823   2.625   2.039   0.399 -1.2896  0.1133  1.4571
 4422TIP3   OH234824   4.051   5.506   2.741 -0.2385  0.2210 -0.3432
 4422TIP3    H134825   4.082   5.595   2.726 -1.2644  0.8288  0.9513
 4422TIP3    H234826   3.972   5.498   2.688 -0.3204  0.1891 -0.2175
 4423TIP3   OH234827   1.574   2.839   7.988  0.1005 -0.1393 -0.1547
 4423TIP3    H134828   1.504   2.822   7.925  0.0295  0.8724 -0.3680
 4423TIP3    H234829   1.539   2.909   8.043  0.6092 -0.2320  0.2922
 4424TIP3   OH234830   1.796   4.706   0.696 -0.4227 -0.4758 -0.2761
 4424TIP3    H134831   1.783   4.760   0.618 -1.4230  0.0939  0.2603
 4424TIP3    H234832   1.890   4.687   0.697 -0.3523 -0.2936 -1.4755
 4425TIP3   OH234833   3.290   5.326   0.071  0.0737 -0.6810 -0.4642
 4425TIP3    H134834   3.294   5.421   0.065  0.5897 -0.6552  0.1944
 4425TIP3    H234835   3.259   5.297  -0.015 -2.8818  0.2565  0.1525
 4426TIP3   OH234836   4.016   5.890   7.988 -0.2731 -0.1935 -0.3626
 4426TIP3    H134837   4.044   5.970   7.942 -1.0180  0.1920 -0.1590
 4426TIP3    H234838   3.965   5.842   7.922  0.1761 -0.5115 -0.4851
 4427TIP3   OH234839   2.244   1.120   8.043 -0.0968  0.5408 -0.6812
 4427TIP3    H134840   2.261   1.149   7.953  1.4215  1.2017 -0.2114
 4427TIP3    H234841   2.258   1.198   8.096  0.4704 -0.1885  0.2718
 4428TIP3   OH234842   1.105   4.131   0.260 -0.2227 -0.1670  0.3112
 4428TIP3    H134843   1.184   4.080   0.239 -0.5194  0.0021 -1.3781
 4428TIP3    H234844   1.126   4.173   0.343  0.8714 -1.3305  0.6645
 4429TIP3   OH234845   2.300   0.379   8.405  0.2059  0.4024 -0.0983
 4429TIP3    H134846   2.363   0.408   8.471 -0.1339  0.3803  0.2335
 4429TIP3    H234847   2.330   0.291   8.381  1.0574  0.8823 -0.8824
 4430TIP3   OH234848   1.076   0.415   1.066  0.4903 -0.1563 -0.8899
 4430TIP3    H134849   1.075   0.511   1.072  1.3639 -0.1545 -0.7595
 4430TIP3    H234850   1.146   0.387   1.124  0.7176 -0.8394 -1.4801
 4431TIP3   OH234851   4.652   1.176   6.846  0.6766  0.7741  0.3925
 4431TIP3    H134852   4.720   1.109   6.842 -0.7572 -0.6871 -1.4728
 4431TIP3    H234853   4.622   1.185   6.755 -1.1696  1.8187  1.0504
 4432TIP3   OH234854   1.311   4.373   7.205  0.1040 -0.4006 -0.7207
 4432TIP3    H134855   1.352   4.316   7.139 -0.0841 -0.0209 -1.1741
 4432TIP3    H234856   1.262   4.437   7.154 -0.7734 -0.6358 -0.1882
 4433TIP3   OH234857   1.153   5.304   0.007 -0.4558 -0.6124  0.0015
 4433TIP3    H134858   1.180   5.237   0.069 -0.3268 -0.0540  0.5623
 4433TIP3    H234859   1.118   5.256  -0.067  2.2722 -1.4298 -0.8857
 4434TIP3   OH234860   4.360   2.779   8.027  0.8468 -0.4296 -0.6634
 4434TIP3    H134861   4.411   2.804   7.950  2.2182 -1.7465 -0.2264
 4434TIP3    H234862   4.270   2.804   8.005  1.0677 -1.4609 -3.0163
 4435TIP3   OH234863   6.677   5.609   8.245 -0.2032  0.1619  0.3479
 4435TIP3    H134864   6.663   5.536   8.185  0.1545  0.2148  0.1979
 4435TIP3    H234865   6.706   5.569   8.327 -1.5686  0.0223  0.7847
 4436TIP3   OH234866   1.925   3.486   7.738  0.1732 -0.5034 -0.8464
 4436TIP3    H134867   1.847   3.540   7.742 -0.2713 -1.0417 -1.8683
 4436TIP3    H234868   1.971   3.504   7.820 -1.7063 -1.2411  0.4171
 4437TIP3   OH234869   5.673   6.086   1.051  0.3781  0.1985 -0.0971
 4437TIP3    H134870   5.674   6.123   0.963  0.9910 -0.3206 -0.3152
 4437TIP3    H234871   5.625   6.150   1.103 -0.8980  0.0473 -1.0103
 4438TIP3   OH234872   4.053   5.038   0.642 -0.5965 -0.5017 -0.4856
 4438TIP3    H134873   3.979   5.022   0.585 -1.0879  0.1637 -0.0519
 4438TIP3    H234874   4.038   4.982   0.718 -2.0267  1.4356  0.7767
 4439TIP3   OH234875   2.899   5.637   8.351 -0.0391  0.5554 -0.1637
 4439TIP3    H134876   2.969   5.595   8.302 -0.4492 -0.0866 -0.2170
 4439TIP3    H234877   2.822   5.582   8.336  0.1204 -0.4936  2.3220
 4440TIP3   OH234878   1.353   2.199   0.274 -0.6617  0.2565  0.2832
 4440TIP3    H134879   1.427   2.203   0.213 -0.8136 -2.9190 -0.2859
 4440TIP3    H234880   1.339   2.290   0.301  2.1883  1.2089 -1.0542
 4441TIP3   OH234881   3.135   6.853   1.944  0.0064  0.3128  0.1791
 4441TIP3    H134882   3.122   6.763   1.914 -1.2692  1.0542 -1.6489
 4441TIP3    H234883   3.056   6.873   1.994  0.2451  0.4469  0.5024
 4442TIP3   OH234884   4.390   0.150   7.148  0.0144  0.1231  0.1872
 4442TIP3    H134885   4.366   0.087   7.080  1.0801  0.1848 -0.2548
 4442TIP3    H234886   4.429   0.223   7.101  2.8944 -0.7877  0.9411
 4443TIP3   OH234887   4.537   6.821   1.762 -0.3166  0.0441  0.3796
 4443TIP3    H134888   4.540   6.803   1.856 -0.2527 -1.0738  0.1839
 4443TIP3    H234889   4.629   6.835   1.738 -0.3615  0.6070  0.5292
 4444TIP3   OH234890   3.538   0.238   7.749 -0.2796 -0.0838  0.0888
 4444TIP3    H134891   3.465   0.239   7.812 -1.1684  1.3141 -0.9277
 4444TIP3    H234892   3.573   0.149   7.757 -1.5418 -0.5327  1.2256
 4445TIP3   OH234893   3.400   5.435   8.428  0.2303  0.0211  0.7729
 4445TIP3    H134894   3.456   5.491   8.482  0.7849  0.5695 -0.3490
 4445TIP3    H234895   3.433   5.446   8.339  0.0601 -1.7479  0.4563
 4446TIP3   OH234896   5.070   2.125   1.019  0.0815 -0.1934 -0.4594
 4446TIP3    H134897   5.019   2.048   1.041 -1.4552  0.3467 -1.9039
 4446TIP3    H234898   5.135   2.094   0.956  1.2552 -0.7737  0.9689
 4447TIP3   OH234899   4.849   2.139   1.721  0.5977  0.2389 -0.1909
 4447TIP3    H134900   4.897   2.203   1.670 -0.6094  0.6352 -0.8743
 4447TIP3    H234901   4.889   2.141   1.808  1.1444  1.2577 -0.4616
 4448TIP3   OH234902   6.316   6.104   0.179  0.3686  0.1250 -0.8518
 4448TIP3    H134903   6.349   6.138   0.262 -0.8358 -0.3156 -0.1636
 4448TIP3    H234904   6.395   6.082   0.129  1.1220 -0.1168  0.3981
 4449TIP3   OH234905   6.571   2.238   1.148 -0.2530  0.1321  0.0717
 4449TIP3    H134906   6.495   2.196   1.187 -0.1899  0.8697  1.0385
 4449TIP3    H234907   6.625   2.166   1.115 -0.3861 -0.5153  1.2302
 4450TIP3   OH234908   5.572   1.962   1.560 -0.0084 -0.4901 -0.2269
 4450TIP3    H134909   5.641   1.962   1.494  0.1324 -0.0891 -0.0815
 4450TIP3    H234910   5.505   2.022   1.526  0.0661 -0.2808 -0.0026
 4451TIP3   OH234911   5.803   0.651   1.522 -0.7218 -0.1039 -0.1193
 4451TIP3    H134912   5.883   0.605   1.498 -0.9542 -1.1572  1.0390
 4451TIP3    H234913   5.733   0.587   1.508 -1.4296  0.9324 -1.5084
 4452TIP3   OH234914   4.957   3.795   8.353 -0.4206  0.2846 -0.0031
 4452TIP3    H134915   4.943   3.742   8.274 -1.7033 -2.5540  1.9980
 4452TIP3    H234916   5.030   3.753   8.398 -1.9075 -0.3238  1.9709
 4453TIP3   OH234917   5.214   1.867   8.511  0.0015  0.2332 -0.2385
 4453TIP3    H134918   5.170   1.860   8.426  0.3920  1.1934 -0.5348
 4453TIP3    H234919   5.307   1.874   8.489  0.1930 -0.4953  0.3201
 4454TIP3   OH234920   4.123   4.143   7.104  0.1926  0.8939 -0.3014
 4454TIP3    H134921   4.192   4.114   7.045  1.7010  2.4363  0.5804
 4454TIP3    H234922   4.113   4.237   7.086 -0.3691  1.0841  0.8445
 4455TIP3   OH234923   3.093   3.772   0.038  0.3940 -0.3973 -0.5471
 4455TIP3    H134924   3.085   3.678   0.051 -0.0782 -0.2719  0.1193
 4455TIP3    H234925   3.151   3.781  -0.037  1.1217 -1.2064 -0.0957
 4456TIP3   OH234926   1.062   2.535   1.113 -0.0840 -0.0507  0.2627
 4456TIP3    H134927   1.144   2.498   1.146 -0.5285 -0.5903  0.7923
 4456TIP3    H234928   0.995   2.470   1.138 -0.6600  0.3560 -0.2091
 4457TIP3   OH234929   4.306   2.163   7.371 -0.3716 -0.0647 -0.1882
 4457TIP3    H134930   4.350   2.152   7.287  0.3699 -0.8760  0.2784
 4457TIP3    H234931   4.230   2.218   7.352 -1.1230 -1.5302 -1.6890
 4458TIP3   OH234932   5.954   4.286   1.008  0.4467  0.7504 -0.5106
 4458TIP3    H134933   6.012   4.304   0.934  0.2508  2.8689 -0.2269
 4458TIP3    H234934   6.009   4.300   1.085  0.3793 -0.4063 -0.2436
 4459TIP3   OH234935   0.429   4.570   0.481 -0.3110 -0.2849 -0.2666
 4459TIP3    H134936   0.462   4.480   0.475  0.8271  0.1018  0.0476
 4459TIP3    H234937   0.497   4.624   0.441 -1.0267  0.4324 -0.5346
 4460TIP3   OH234938   2.403   6.463   1.344  0.2314  0.5011 -0.0752
 4460TIP3    H134939   2.348   6.399   1.390 -0.4926  0.5628 -0.8298
 4460TIP3    H234940   2.356   6.546   1.353  1.2657  0.9968  1.0725
 4461TIP3   OH234941   0.226   3.356   6.850  0.2955 -0.2443  0.0320
 4461TIP3    H134942   0.273   3.419   6.796  1.2431 -0.5233  0.5042
 4461TIP3    H234943   0.193   3.407   6.924 -1.8085  0.3281 -1.2159
 4462TIP3   OH234944   4.231   1.975   6.603  0.2729  0.2556  0.7256
 4462TIP3    H134945   4.321   1.991   6.576  0.3013  0.2148  0.7971
 4462TIP3    H234946   4.202   2.059   6.639  0.5408  0.0422  1.4422
 4463TIP3   OH234947   4.023   3.041   1.234 -0.6017  0.9058 -0.6887
 4463TIP3    H134948   3.948   3.075   1.283 -0.3326 -1.8060  1.9315
 4463TIP3    H234949   4.099   3.087   1.270 -0.3450 -1.4419  2.1139
 4464TIP3   OH234950   1.399   2.994   1.423  0.1200 -0.2155 -0.1222
 4464TIP3    H134951   1.478   2.943   1.405 -0.7354 -1.7132  0.1965
 4464TIP3    H234952   1.418   3.081   1.388  1.1171 -1.1131 -1.9749
 4465TIP3   OH234953   4.030   0.035   7.475  0.4358  0.0598  0.1875
 4465TIP3    H134954   3.996   0.067   7.391  1.0937  0.4602  0.0651
 4465TIP3    H234955   3.999  -0.055   7.481 -0.7320  0.4480  0.1345
 4466TIP3   OH234956   2.057   1.307   0.300 -0.1092  0.0065 -0.3431
 4466TIP3    H134957   2.099   1.325   0.384 -0.2262  0.6908 -0.4246
 4466TIP3    H234958   1.993   1.238   0.320 -0.0755  0.1024  0.1164
 4467TIP3   OH234959   1.752   6.482   8.260  0.3756  0.2987  0.9906
 4467TIP3    H134960   1.794   6.445   8.337 -0.9710  0.4510  1.8320
 4467TIP3    H234961   1.697   6.411   8.226  0.5371  0.4043  0.5098
 4468TIP3   OH234962   0.022   5.147   7.333 -0.4921 -0.0548  0.2050
 4468TIP3    H134963   0.053   5.062   7.302 -0.4144  0.4569 -1.1978
 4468TIP3    H234964  -0.072   5.146   7.318 -0.5676 -0.0624  0.6451
 4469TIP3   OH234965   6.418   6.780   1.598 -0.1856 -0.0494  0.5279
 4469TIP3    H134966   6.355   6.738   1.540 -1.0979  0.9896  0.7347
 4469TIP3    H234967   6.502   6.742   1.574 -0.6103 -0.0300 -1.1071
 4470TIP3   OH234968   0.959   0.150   1.555  0.1459  0.3950  0.1379
 4470TIP3    H134969   0.997   0.065   1.535  0.7262  0.5581  0.5422
 4470TIP3    H234970   1.031   0.202   1.591 -0.7925  0.1319  2.6582
 4471TIP3   OH234971   5.197   1.442   0.746  0.3001  0.1949  0.6237
 4471TIP3    H134972   5.116   1.443   0.796  0.6565  1.0762  1.2110
 4471TIP3    H234973   5.169   1.447   0.655 -0.3335 -0.6430  0.7625
 4472TIP3   OH234974   4.165   4.478   2.290  0.2625  0.2055 -0.2385
 4472TIP3    H134975   4.221   4.400   2.292 -0.0301 -0.0253 -0.8095
 4472TIP3    H234976   4.162   4.507   2.381 -1.0247 -1.4543  0.2960
 4473TIP3   OH234977   3.078   2.691   7.092  0.0082  0.4427 -0.1249
 4473TIP3    H134978   3.039   2.666   7.008 -1.3690  0.1894  0.5704
 4473TIP3    H234979   3.091   2.608   7.138 -1.6988  0.7328  0.9512
 4474TIP3   OH234980   1.877   4.230   0.711 -0.2838 -0.5109  0.5965
 4474TIP3    H134981   1.969   4.258   0.711 -0.4596  0.4967 -2.4530
 4474TIP3    H234982   1.832   4.296   0.764  0.5242 -0.0838  0.7759
 4475TIP3   OH234983   5.486   5.143   0.701  0.0032  0.1647  0.1041
 4475TIP3    H134984   5.532   5.227   0.700 -0.6957  0.5717  1.0492
 4475TIP3    H234985   5.505   5.107   0.788  1.5323 -1.3726 -0.8015
 4476TIP3   OH234986   0.024   1.984   1.139 -0.2436  0.4693  0.4072
 4476TIP3    H134987   0.025   2.058   1.199 -0.9368  0.2028  0.7568
 4476TIP3    H234988  -0.043   2.006   1.075 -0.7348 -0.0247  0.7407
 4477TIP3   OH234989   0.783   3.841   8.135  0.2548 -0.0132  0.4294
 4477TIP3    H134990   0.807   3.933   8.129  0.2230 -0.0307 -0.0814
 4477TIP3    H234991   0.696   3.840   8.173  0.4230  0.1446  0.8179
 4478TIP3   OH234992   1.450   1.489   7.651  0.3483  0.5546 -0.1061
 4478TIP3    H134993   1.529   1.441   7.674 -0.4801 -0.1482  1.4848
 4478TIP3    H234994   1.425   1.533   7.733 -1.6434 -0.3683 -0.1542
 4479TIP3   OH234995   2.971   2.664   0.136  0.3742 -0.0797 -0.1247
 4479TIP3    H134996   2.910   2.630   0.070  0.4198  2.2798 -1.4656
 4479TIP3    H234997   3.031   2.719   0.088  1.0794  0.8883  1.7645
 4480TIP3   OH234998   6.160   5.386   0.416  0.3577 -0.2950  0.4032
 4480TIP3    H134999   6.254   5.371   0.427  0.5741 -1.3717 -2.1297
 4480TIP3    H235000   6.121   5.298   0.418 -0.1532 -0.1585 -1.5011
 4481TIP3   OH235001   0.667   5.383   1.007  0.5515 -0.4210  0.4635
 4481TIP3    H135002   0.681   5.315   1.073 -0.7989 -0.6809  0.4973
 4481TIP3    H235003   0.686   5.340   0.924 -1.9005 -1.3800  0.3322
 4482TIP3   OH235004   4.265   2.924   7.523 -0.3209 -0.1846  0.4967
 4482TIP3    H135005   4.300   3.012   7.541 -0.7187 -0.0999  0.8725
 4482TIP3    H235006   4.226   2.896   7.606 -2.5340  0.3699 -0.2947
 4483TIP3   OH235007   6.249   1.155   2.428 -0.6221  0.0899 -0.5031
 4483TIP3    H135008   6.185   1.195   2.369 -2.9460 -2.4073  0.1327
 4483TIP3    H235009   6.253   1.064   2.401 -2.3854 -1.4016  3.4505
 4484TIP3   OH235010   4.998   2.602   1.200  0.0150 -0.0479  0.3717
 4484TIP3    H135011   5.090   2.611   1.177  0.1052 -0.9386  0.3594
 4484TIP3    H235012   4.955   2.674   1.155  0.6185  0.0153 -0.1165
 4485TIP3   OH235013   1.474   3.823   8.076 -0.1749 -0.3179  0.5146
 4485TIP3    H135014   1.470   3.863   8.163 -1.3420  2.6147 -0.7651
 4485TIP3    H235015   1.439   3.735   8.089 -1.5220  0.4629  2.7931
 4486TIP3   OH235016   6.299   4.922   7.475 -0.0346  0.0808  0.4641
 4486TIP3    H135017   6.228   4.904   7.414  0.7158 -0.9623 -0.1411
 4486TIP3    H235018   6.259   4.915   7.562 -0.4656 -1.4564  0.1614
 4487TIP3   OH235019   2.138   3.987   7.621  0.1234  0.0421 -0.1035
 4487TIP3    H135020   2.107   3.901   7.594  0.0445 -0.0754  0.3583
 4487TIP3    H235021   2.207   3.970   7.684 -1.1501  0.3050  1.4230
 4488TIP3   OH235022   3.188   1.819   0.802  0.0498  0.0226 -0.2829
 4488TIP3    H135023   3.257   1.802   0.738 -1.9643  1.3152 -3.0045
 4488TIP3    H235024   3.155   1.732   0.824  1.2302 -0.4900 -0.4339
 4489TIP3   OH235025   1.864   4.073   1.319 -0.5979 -0.5130  0.4296
 4489TIP3    H135026   1.781   4.047   1.279 -0.1013 -2.7088  0.6960
 4489TIP3    H235027   1.845   4.076   1.413 -0.3647 -1.1557  0.5025
 4490TIP3   OH235028   0.618   1.374   6.438  0.3055  0.2557 -0.4886
 4490TIP3    H135029   0.683   1.441   6.462 -0.1963  0.6820 -0.2975
 4490TIP3    H235030   0.670   1.297   6.417  0.9081  0.7667 -0.9053
 4491TIP3   OH235031   6.632   0.533   0.421 -0.1780 -0.0035  0.3085
 4491TIP3    H135032   6.608   0.447   0.386  0.3371 -0.1508  0.3107
 4491TIP3    H235033   6.606   0.595   0.352 -1.0481 -0.1101  0.5363
 4492TIP3   OH235034   5.997   2.195   8.007 -0.1342 -0.0740 -0.0738
 4492TIP3    H135035   6.029   2.241   7.929  2.7122 -0.5910  0.6952
 4492TIP3    H235036   5.979   2.265   8.070 -0.4874  0.2219 -0.4927
 4493TIP3   OH235037   3.732   3.664   8.165  0.1258 -0.0838 -0.3735
 4493TIP3    H135038   3.761   3.754   8.180  1.9518 -0.8595  0.9656
 4493TIP3    H235039   3.644   3.661   8.205  1.1741  0.3970  2.1719
 4494TIP3   OH235040   4.258   4.737   8.048  0.0488  0.3285  0.0062
 4494TIP3    H135041   4.293   4.705   8.131  0.0239 -0.5781 -0.3097
 4494TIP3    H235042   4.214   4.660   8.010  0.5847  0.5545 -1.1204
 4495TIP3   OH235043   5.935   5.168   0.902  0.6702 -0.0162 -0.3019
 4495TIP3    H135044   5.877   5.127   0.967  1.1154  1.3610  1.0289
 4495TIP3    H235045   5.890   5.156   0.819 -0.4676 -0.8752  0.4102
 4496TIP3   OH235046   0.672   5.079   6.940  0.5270 -0.7341  0.2653
 4496TIP3    H135047   0.766   5.093   6.935  0.4918 -0.2830  0.7519
 4496TIP3    H235048   0.634   5.165   6.921  0.2011 -1.0158 -0.3855
 4497TIP3   OH235049   6.768   6.162   2.954 -0.2783 -0.5316  0.4966
 4497TIP3    H135050   6.839   6.171   3.017  0.6142 -1.1129 -0.3852
 4497TIP3    H235051   6.809   6.181   2.869 -1.5750  0.7843  0.1298
 4498TIP3   OH235052   5.539   0.015   0.516 -0.1332  0.2120 -0.0502
 4498TIP3    H135053   5.478  -0.038   0.465  1.6680 -0.2011 -1.9379
 4498TIP3    H235054   5.484   0.066   0.576 -2.1192 -1.7740 -0.0569
 4499TIP3   OH235055   4.498   6.648   2.022 -0.1629  0.7283 -0.1461
 4499TIP3    H135056   4.449   6.584   1.970 -3.1343  1.8089  1.1345
 4499TIP3    H235057   4.562   6.595   2.070 -0.3985 -0.8372 -1.4665
 4500TIP3   OH235058   1.965   1.433   1.117  0.7156  0.0508 -0.0666
 4500TIP3    H135059   1.902   1.439   1.045  3.6239 -0.4220 -2.8853
 4500TIP3    H235060   1.911   1.421   1.195 -2.6798  1.0268 -2.0516
 4501TIP3   OH235061   0.613   4.682   1.139  0.9899  0.1640  0.1903
 4501TIP3    H135062   0.635   4.762   1.092  2.7215  0.4301  1.3484
 4501TIP3    H235063   0.667   4.615   1.097  1.0601  0.0101  0.5289
 4502TIP3   OH235064   2.817   6.268   1.495 -0.5462  0.2245 -0.0078
 4502TIP3    H135065   2.886   6.327   1.526 -0.7572  1.7531 -2.1485
 4502TIP3    H235066   2.737   6.319   1.504 -0.6514  0.6904 -2.5883
 4503TIP3   OH235067   5.784   6.581   1.420 -0.1135 -0.6732 -0.4629
 4503TIP3    H135068   5.754   6.510   1.363 -0.6506  0.0024 -1.0453
 4503TIP3    H235069   5.853   6.542   1.473  0.1226 -1.4208 -1.3031
 4504TIP3   OH235070   6.295   0.480   0.787  0.1935  0.0315  0.0838
 4504TIP3    H135071   6.366   0.528   0.828  0.2758 -1.1546  1.4074
 4504TIP3    H235072   6.335   0.435   0.713  0.6232  0.0621  0.2980
 4505TIP3   OH235073   6.736   2.544   0.406 -0.2751  0.2691  0.3852
 4505TIP3    H135074   6.827   2.543   0.435 -0.2938  0.8481  0.4742
 4505TIP3    H235075   6.697   2.466   0.446 -0.6148  1.6414  2.9217
 4506TIP3   OH235076   1.331   5.692   7.909  0.0001  0.7768  0.0734
 4506TIP3    H135077   1.380   5.622   7.865  0.2758 -0.7075  2.5422
 4506TIP3    H235078   1.241   5.659   7.911  0.0596  0.6486  0.8967
 4507TIP3   OH235079   6.152   4.955   0.335  0.3154  0.2231 -0.2708
 4507TIP3    H135080   6.185   4.918   0.416 -0.2067 -0.6658 -0.4529
 4507TIP3    H235081   6.094   5.026   0.362 -1.8890 -1.6583  0.2935
 4508TIP3   OH235082   5.354   4.739   1.142 -0.1016 -0.6257  0.1673
 4508TIP3    H135083   5.357   4.824   1.186 -1.0332 -1.1673  1.3350
 4508TIP3    H235084   5.383   4.676   1.207 -1.5424 -1.4508  0.0724
 4509TIP3   OH235085   2.717   3.887   8.249  0.1649 -0.0223  0.1301
 4509TIP3    H135086   2.664   3.809   8.234  1.3563 -0.7130 -0.6805
 4509TIP3    H235087   2.799   3.853   8.287 -0.2753  1.0919  2.2240
 4510TIP3   OH235088   1.562   0.214   0.272  0.0899 -0.0426 -0.2426
 4510TIP3    H135089   1.558   0.228   0.366 -1.3637 -0.1570 -0.2586
 4510TIP3    H235090   1.612   0.288   0.238  0.4413  0.1105  0.5900
 4511TIP3   OH235091   4.093   0.126   2.819 -0.3336  0.0853 -0.7657
 4511TIP3    H135092   4.072   0.074   2.897  0.0006  1.3993  0.2234
 4511TIP3    H235093   4.072   0.067   2.746  0.7345 -1.7268  0.2894
 4512TIP3   OH235094   1.274   1.514   8.083  0.7300  0.0887 -0.1830
 4512TIP3    H135095   1.354   1.479   8.122  1.5196  0.0833 -1.7359
 4512TIP3    H235096   1.304   1.564   8.007 -0.6823  0.8601 -0.2722
 4513TIP3   OH235097   3.904   1.915   0.374 -0.3709  0.4943 -0.4447
 4513TIP3    H135098   3.962   1.856   0.326 -0.7122  1.2207 -1.8062
 4513TIP3    H235099   3.826   1.863   0.392  0.6416 -0.4914  1.4034
 4514TIP3   OH235100   2.899   5.121   1.491  0.7028  0.1028 -0.8083
 4514TIP3    H135101   2.840   5.196   1.499  1.9661  1.0675 -0.2450
 4514TIP3    H235102   2.841   5.045   1.484 -0.6012  0.9211  0.6429
 4515TIP3   OH235103   4.585   4.418   0.624  0.2131  0.9447 -0.0349
 4515TIP3    H135104   4.678   4.399   0.613  0.7615  3.7076 -0.8884
 4515TIP3    H235105   4.581   4.487   0.691 -1.3564 -0.0064  0.9259
 4516TIP3   OH235106   2.613   6.328   7.173 -0.7481 -0.3170 -0.2378
 4516TIP3    H135107   2.666   6.252   7.150  2.0778  1.2640  0.6571
 4516TIP3    H235108   2.604   6.323   7.268 -1.6261 -0.1805 -0.3055
 4517TIP3   OH235109   6.877   4.206   1.080 -0.1847  0.5278 -0.0114
 4517TIP3    H135110   6.969   4.192   1.102  0.2584  0.2716 -1.8585
 4517TIP3    H235111   6.871   4.298   1.056 -0.8797  1.0696  1.9974
 4518TIP3   OH235112   0.040   6.169   0.211  0.2095  0.2888  0.0251
 4518TIP3    H135113  -0.032   6.141   0.267  2.8140 -0.9892  3.0910
 4518TIP3    H235114   0.049   6.263   0.227  0.7781 -0.0173  1.7322
 4519TIP3   OH235115   2.539   4.090   0.365 -0.2144  0.2259  0.6472
 4519TIP3    H135116   2.542   4.105   0.271 -1.5244 -2.0038  0.1829
 4519TIP3    H235117   2.455   4.127   0.393 -0.8465 -1.0461  0.5031
 4520TIP3   OH235118   2.313   1.457   7.043  0.6487  0.0523  0.7044
 4520TIP3    H135119   2.285   1.386   7.100 -2.1318  1.7218  1.6039
 4520TIP3    H235120   2.271   1.439   6.959  1.0758 -0.0566  0.5098
 4521TIP3   OH235121   2.912   3.150   6.382  0.0944  0.1108  0.5587
 4521TIP3    H135122   2.890   3.184   6.295 -0.4238  0.0446  0.6615
 4521TIP3    H235123   2.975   3.080   6.365 -0.0794  0.0342  0.2284
 4522TIP3   OH235124   5.431   6.145   2.477  0.3968 -0.4057 -0.2220
 4522TIP3    H135125   5.379   6.090   2.418 -0.4353 -2.0304  1.8540
 4522TIP3    H235126   5.370   6.212   2.508 -0.7976 -2.5469  2.5200
 4523TIP3   OH235127   5.681   1.381   0.991 -0.0568  0.0590 -0.2306
 4523TIP3    H135128   5.625   1.458   0.999 -1.5370 -0.6829 -2.6092
 4523TIP3    H235129   5.620   1.308   0.987  1.2010 -1.0024 -0.5449
 4524TIP3   OH235130   3.624   4.438   1.487 -0.1113 -0.2377 -0.2018
 4524TIP3    H135131   3.598   4.439   1.579  1.4354 -0.3011  0.2541
 4524TIP3    H235132   3.565   4.374   1.447  1.2289 -2.6189  1.4040
 4525TIP3   OH235133   4.015   1.603   7.687 -0.2429 -0.0428 -0.1967
 4525TIP3    H135134   3.937   1.568   7.730  0.1300 -0.5851  0.0384
 4525TIP3    H235135   4.038   1.537   7.621  1.1159 -0.8042  0.9946
 4526TIP3   OH235136   0.873   6.627   7.459 -1.0225  0.0155  0.5867
 4526TIP3    H135137   0.928   6.654   7.532 -1.3963 -0.1703  0.9413
 4526TIP3    H235138   0.786   6.659   7.481 -1.5444 -1.6638  1.1473
 4527TIP3   OH235139   0.369   3.848   7.884  0.1472 -0.4446  0.5866
 4527TIP3    H135140   0.402   3.758   7.886  1.1174 -0.1219 -0.0558
 4527TIP3    H235141   0.448   3.902   7.873 -0.6893  0.2480 -3.6081
 4528TIP3   OH235142   6.668   6.032   1.949  0.2525  0.1800 -0.0752
 4528TIP3    H135143   6.709   6.097   1.892  1.0078  0.6079  0.9169
 4528TIP3    H235144   6.586   6.073   1.977  1.9412  2.0138  2.7358
 4529TIP3   OH235145   2.283   4.913   0.985  0.3192 -0.9835 -0.1301
 4529TIP3    H135146   2.273   4.957   1.069 -0.5915  0.6446 -1.0407
 4529TIP3    H235147   2.211   4.850   0.982 -0.0451 -0.5766  0.0334
 4530TIP3   OH235148   5.924   3.664   6.986 -0.2103  0.3609 -0.8469
 4530TIP3    H135149   6.013   3.664   6.949 -0.5633 -0.1581 -1.7385
 4530TIP3    H235150   5.889   3.577   6.964 -0.6723  0.2813  0.1649
 4531TIP3   OH235151   4.437   2.422   1.033  0.4472  0.5917  0.5397
 4531TIP3    H135152   4.450   2.359   1.103  1.4279 -1.1608 -1.1281
 4531TIP3    H235153   4.520   2.422   0.985 -0.3095  1.4752 -0.8427
 4532TIP3   OH235154   4.860   5.474   0.424 -0.1397  0.3086  0.3339
 4532TIP3    H135155   4.776   5.427   0.419  0.6199 -1.1527  0.8123
 4532TIP3    H235156   4.870   5.494   0.518 -0.0075  0.6015  0.2587
 4533TIP3   OH235157   6.564   0.234   7.100 -0.4022 -0.1620 -0.0641
 4533TIP3    H135158   6.639   0.175   7.104 -0.9533 -0.8865 -0.2596
 4533TIP3    H235159   6.494   0.188   7.147 -1.5463 -0.7583 -2.2033
 4534TIP3   OH235160   6.276   0.877   3.185  0.4293  0.1803  0.2998
 4534TIP3    H135161   6.369   0.891   3.168  0.4091  1.2781  1.0086
 4534TIP3    H235162   6.260   0.787   3.157  1.6102  0.1093 -0.2069
 4535TIP3   OH235163   1.455   5.680   8.438  0.0683  0.1204  0.0113
 4535TIP3    H135164   1.444   5.686   8.533 -2.9973 -3.2555  0.1008
 4535TIP3    H235165   1.387   5.736   8.402 -1.3509 -1.5200  0.0018
 4536TIP3   OH235166   5.057   2.794   8.360  0.9151 -0.6222 -0.0599
 4536TIP3    H135167   5.004   2.721   8.393  0.4279 -0.6899 -0.9593
 4536TIP3    H235168   5.142   2.754   8.341  0.2586 -1.2898 -1.8105
 4537TIP3   OH235169   2.148   1.912   7.192 -0.2179  0.3629  0.1087
 4537TIP3    H135170   2.175   1.894   7.282  0.2746 -1.5992 -0.3990
 4537TIP3    H235171   2.214   1.974   7.160 -0.3169  0.9665  1.0402
 4538TIP3   OH235172   3.323   2.265   0.787 -0.0441  0.4121 -0.2006
 4538TIP3    H135173   3.339   2.187   0.840  1.2036  1.9993  1.9201
 4538TIP3    H235174   3.408   2.284   0.747  0.1286  1.6016  0.6814
 4539TIP3   OH235175   0.959   6.030   0.682 -0.6586  0.3861  0.0715
 4539TIP3    H135176   0.990   6.070   0.764 -0.2614 -0.4915  0.3582
 4539TIP3    H235177   0.968   6.100   0.617  0.4850  0.6157  0.4625
 4540TIP3   OH235178   4.958   6.205   1.951 -0.1043 -0.1984 -0.1638
 4540TIP3    H135179   5.038   6.247   1.981 -0.6652  0.6416  0.2021
 4540TIP3    H235180   4.896   6.277   1.937 -1.2564 -0.9167  0.9793
 4541TIP3   OH235181   6.485   5.891   1.106  0.3009 -0.8136  0.1663
 4541TIP3    H135182   6.490   5.908   1.012  0.7916  0.4724  0.4016
 4541TIP3    H235183   6.531   5.965   1.146  1.8493 -2.3413  1.3442
 4542TIP3   OH235184   1.835   2.120   8.353 -0.5392 -0.1186  0.1791
 4542TIP3    H135185   1.752   2.103   8.396 -1.3930  1.3381 -0.8195
 4542TIP3    H235186   1.850   2.042   8.299  0.7008 -2.1221  3.1524
 4543TIP3   OH235187   6.248   0.207   0.930  0.6607  0.4360  0.4461
 4543TIP3    H135188   6.312   0.267   0.894  0.1486  0.2163 -0.8669
 4543TIP3    H235189   6.199   0.259   0.994  0.1247  1.4688 -0.7735
 4544TIP3   OH235190   1.549   6.184   7.704  0.0469  0.4813  0.3293
 4544TIP3    H135191   1.588   6.114   7.652 -1.9433 -1.1401  0.8861
 4544TIP3    H235192   1.460   6.193   7.670 -1.4638 -0.8514  3.4694
 4545TIP3   OH235193   3.111   2.424   1.574 -0.1566  0.1570  0.3704
 4545TIP3    H135194   3.152   2.472   1.502  1.2288 -0.9924  0.3583
 4545TIP3    H235195   3.017   2.439   1.561  0.1589  1.8197 -0.3429
 4546TIP3   OH235196   5.488   1.021   1.259 -0.0125 -0.3876 -0.1373
 4546TIP3    H135197   5.504   0.930   1.284  2.6363 -0.0346 -0.2573
 4546TIP3    H235198   5.494   1.069   1.341  0.7002 -0.1267 -0.3301
 4547TIP3   OH235199   0.200   1.831   0.985 -0.0699 -0.2636 -0.2811
 4547TIP3    H135200   0.272   1.814   1.046 -1.7385 -1.9424  1.3637
 4547TIP3    H235201   0.157   1.909   1.020  0.2056  0.0188 -0.5613
 4548TIP3   OH235202   4.117   1.961   7.137 -0.3463  0.0589 -0.2976
 4548TIP3    H135203   4.181   2.017   7.093  0.3548  0.4233  1.1465
 4548TIP3    H235204   4.037   2.014   7.140  0.2089  0.8741  0.7405
 4549TIP3   OH235205   6.606   2.320   0.465  0.0546  0.6491 -0.3472
 4549TIP3    H135206   6.523   2.282   0.435  0.7562  0.5703 -2.3389
 4549TIP3    H235207   6.631   2.267   0.541 -0.5648 -0.8393 -1.1384
 4550TIP3   OH235208   5.729   4.751   0.788 -0.3761 -0.3502 -0.3197
 4550TIP3    H135209   5.648   4.720   0.830 -0.5514 -0.1390 -0.5013
 4550TIP3    H235210   5.713   4.741   0.694 -0.0640 -0.6181 -0.3468
 4551TIP3   OH235211   5.984   4.031   0.628  0.8419 -0.1583 -0.0461
 4551TIP3    H135212   5.897   4.061   0.603  0.1759 -1.6292  0.4268
 4551TIP3    H235213   6.003   3.959   0.567  1.0180 -0.9400  0.9130
 4552TIP3   OH235214   3.902   4.462   2.348  0.3449 -0.0666 -0.2564
 4552TIP3    H135215   3.865   4.440   2.263  1.5724  3.9163 -2.0444
 4552TIP3    H235216   3.991   4.491   2.328  1.1461 -0.2750  2.6056
 4553TIP3   OH235217   0.896   3.978   1.470 -0.2208 -0.1971  0.3007
 4553TIP3    H135218   0.859   3.912   1.528 -1.1615 -1.6011 -1.7965
 4553TIP3    H235219   0.821   4.028   1.438  0.3979  1.3756  1.1716
 4554TIP3   OH235220   0.095   0.590   1.863 -0.4939 -0.3011  0.2688
 4554TIP3    H135221   0.085   0.498   1.837 -0.1669  0.2734 -2.1745
 4554TIP3    H235222   0.179   0.617   1.824 -0.6819  1.0866  0.7650
 4555TIP3   OH235223   3.268   0.948   2.233 -0.6410 -0.6344  0.1084
 4555TIP3    H135224   3.356   0.985   2.227 -0.2581 -1.3948  0.8603
 4555TIP3    H235225   3.283   0.855   2.252 -1.6261 -0.4224  2.0484
 4556TIP3   OH235226   2.235   0.394   0.040 -0.3685 -0.3813 -0.3062
 4556TIP3    H135227   2.266   0.304   0.053  0.3151  0.0391  1.2098
 4556TIP3    H235228   2.304   0.435  -0.013  0.8215  0.0087  1.4352
 4557TIP3   OH235229   4.784   1.648   0.123 -0.4157  0.0632  0.5673
 4557TIP3    H135230   4.785   1.556   0.097  1.0917  0.0584  0.5783
 4557TIP3    H235231   4.822   1.695   0.049 -0.1102  0.5525  1.0282
 4558TIP3   OH235232   2.267   2.297   7.854 -0.8845 -0.0983  0.6023
 4558TIP3    H135233   2.299   2.224   7.907  1.3118  0.3403  0.0048
 4558TIP3    H235234   2.231   2.256   7.775 -2.5045 -0.6492  1.5876
 4559TIP3   OH235235   6.524   1.967   7.777 -0.4104  0.2688 -0.0482
 4559TIP3    H135236   6.460   2.036   7.760  0.0953  0.9629  0.7846
 4559TIP3    H235237   6.583   1.972   7.702 -2.3377 -1.6439 -1.8282
 4560TIP3   OH235238   6.222   3.613   7.175  0.3936  0.1184  0.4493
 4560TIP3    H135239   6.294   3.677   7.172 -1.1229  1.9400  0.6961
 4560TIP3    H235240   6.209   3.588   7.083  1.5454 -0.4942  0.4393
 4561TIP3   OH235241   1.598   2.731   2.022 -0.1579 -0.6813 -0.2434
 4561TIP3    H135242   1.650   2.769   1.952 -1.1914 -0.4447 -0.9162
 4561TIP3    H235243   1.538   2.800   2.048 -0.9812 -1.3219 -0.3768
 4562TIP3   OH235244   4.141   0.028   0.315 -0.6749 -0.2740 -0.5232
 4562TIP3    H135245   4.135   0.110   0.267 -0.4959 -0.2042 -0.4275
 4562TIP3    H235246   4.200   0.047   0.388 -0.4965 -0.5336 -0.5991
 4563TIP3   OH235247   5.723   2.325   8.449 -0.4738  0.2814  0.6410
 4563TIP3    H135248   5.764   2.286   8.527  0.2277 -2.0142 -0.7650
 4563TIP3    H235249   5.790   2.316   8.381 -1.5246  1.0897 -0.5232
 4564TIP3   OH235250   4.959   6.669   1.738 -0.6174  0.2632 -0.7837
 4564TIP3    H135251   4.909   6.739   1.697  1.1597  1.6354 -0.6977
 4564TIP3    H235252   5.030   6.713   1.785  0.0692 -1.5422 -0.0108
 4565TIP3   OH235253   4.210   3.353   0.702  0.7699  0.1726 -0.0047
 4565TIP3    H135254   4.283   3.360   0.641 -0.2390  1.2408 -1.1246
 4565TIP3    H235255   4.132   3.352   0.647 -0.1255  0.2080  1.2185
 4566TIP3   OH235256   2.515   5.887   7.973  0.3918  0.2481 -0.3193
 4566TIP3    H135257   2.531   5.794   7.958 -2.0081 -0.4919  1.0777
 4566TIP3    H235258   2.459   5.914   7.901 -0.1969  0.1703  0.0991
 4567TIP3   OH235259   1.424   4.463   6.816  0.1599  0.3660  0.1523
 4567TIP3    H135260   1.459   4.551   6.835  1.4245 -0.4777  2.0377
 4567TIP3    H235261   1.358   4.478   6.748  1.0263  2.6467 -0.2886
 4568TIP3   OH235262   4.400   2.185   7.110  0.2424 -0.0975 -0.7810
 4568TIP3    H135263   4.451   2.260   7.077 -1.3209  1.5865  0.3878
 4568TIP3    H235264   4.346   2.158   7.036 -0.4039  1.0692 -0.7555
 4569TIP3   OH235265   6.391   6.855   8.499  0.6854  0.5447 -0.3069
 4569TIP3    H135266   6.406   6.945   8.526  0.8982  0.3232  0.3345
 4569TIP3    H235267   6.460   6.837   8.436  2.0723  0.1123  1.2719
 4570TIP3   OH235268   1.062   1.570   8.306 -0.3160  0.9772  0.4262
 4570TIP3    H135269   1.055   1.515   8.228  0.0564  0.7355  0.5671
 4570TIP3    H235270   1.116   1.521   8.366 -0.2821  1.3379  0.6938
 4571TIP3   OH235271   0.876   5.903   7.015 -0.3134  0.0088  0.2044
 4571TIP3    H135272   0.828   5.976   6.977  1.6456  1.0839 -0.3269
 4571TIP3    H235273   0.856   5.906   7.108 -2.3057 -0.4242 -0.1741
 4572TIP3   OH235274   6.626   1.135   0.516  0.2781  0.2481  0.2754
 4572TIP3    H135275   6.695   1.124   0.450  0.4365  1.6306  0.1852
 4572TIP3    H235276   6.659   1.201   0.576 -0.3766 -0.1199  1.0675
 4573TIP3   OH235277   1.631   0.939   7.546 -0.2629  0.0997  0.3809
 4573TIP3    H135278   1.570   1.004   7.513 -0.1479  0.6017  1.1348
 4573TIP3    H235279   1.579   0.860   7.559 -0.2574 -0.1804 -1.2090
 4574TIP3   OH235280   2.348   6.207   7.706  0.2071  0.1412 -0.1003
 4574TIP3    H135281   2.287   6.189   7.635  0.1119  1.6996 -0.4555
 4574TIP3    H235282   2.318   6.152   7.779  0.7395 -2.0289 -1.4374
 4575TIP3   OH235283   4.122   1.263   8.151  0.0476  0.6719  0.0544
 4575TIP3    H135284   4.085   1.315   8.222  1.6040  1.8271  0.0851
 4575TIP3    H235285   4.070   1.183   8.149 -1.7356  1.7682  0.7203
 4576TIP3   OH235286   1.652   0.776   1.162  0.6221 -0.1405 -0.0782
 4576TIP3    H135287   1.660   0.832   1.085 -2.3505 -0.7653 -0.9901
 4576TIP3    H235288   1.657   0.687   1.127  0.4099 -0.4386  0.6293
 4577TIP3   OH235289   1.189   0.282   0.669 -0.0542  0.4388 -0.5007
 4577TIP3    H135290   1.213   0.195   0.698  0.0069  0.7596  0.4360
 4577TIP3    H235291   1.224   0.341   0.736 -0.3112  1.1647 -0.9835
 4578TIP3   OH235292   3.719   6.175   0.183 -0.9097 -0.7762  0.8132
 4578TIP3    H135293   3.704   6.113   0.112 -0.6739  1.1766 -1.0317
 4578TIP3    H235294   3.799   6.145   0.225  1.7641  0.5745 -2.8306
 4579TIP3   OH235295   2.190   0.711   0.763 -0.0775  0.4219  0.4228
 4579TIP3    H135296   2.227   0.734   0.848  1.5069  0.8399 -0.3395
 4579TIP3    H235297   2.245   0.640   0.731  0.3541  1.3013 -0.8977
 4580TIP3   OH235298   2.665   6.088   7.651  0.1456 -0.7901  0.6866
 4580TIP3    H135299   2.734   6.036   7.693 -0.1754 -0.8524  1.1483
 4580TIP3    H235300   2.584   6.058   7.693  0.0148  0.5127  1.4215
 4581TIP3   OH235301   0.241   6.667   8.159 -0.1602 -0.7696 -0.0032
 4581TIP3    H135302   0.195   6.681   8.242 -0.2753 -1.5392  0.0682
 4581TIP3    H235303   0.281   6.752   8.139  2.7515 -1.3843  2.5402
 4582TIP3   OH235304   6.825   3.232   6.681 -0.4585 -0.3078 -0.6955
 4582TIP3    H135305   6.793   3.293   6.748  0.4548  0.0826 -0.5885
 4582TIP3    H235306   6.872   3.165   6.730  0.5982  0.2181 -0.9397
 4583TIP3   OH235307   0.024   3.006   0.065 -0.5336  0.2808 -0.4094
 4583TIP3    H135308   0.091   2.970   0.006 -0.0512  0.0361  0.2696
 4583TIP3    H235309  -0.053   2.951   0.049  0.5840 -2.0924  1.6043
 4584TIP3   OH235310   5.421   2.809   1.496  0.1639 -0.3817 -0.0131
 4584TIP3    H135311   5.425   2.724   1.540 -0.4789  0.7074  2.3016
 4584TIP3    H235312   5.496   2.858   1.529 -1.3634  1.1148  1.4072
 4585TIP3   OH235313   4.305   5.180   1.751 -0.0884  0.5921  0.0216
 4585TIP3    H135314   4.302   5.271   1.724 -3.4065  0.4498 -0.4376
 4585TIP3    H235315   4.262   5.131   1.681 -0.6610 -0.9643  1.3646
 4586TIP3   OH235316   6.599   6.345   2.004  0.2411  0.4376 -0.3494
 4586TIP3    H135317   6.522   6.329   1.949  0.9981 -1.5688 -0.8763
 4586TIP3    H235318   6.563   6.389   2.082 -1.3364  0.1452 -0.8697
 4587TIP3   OH235319   1.222   2.834   1.548  0.4577  0.1724 -0.1037
 4587TIP3    H135320   1.147   2.891   1.565  0.3242  0.2301 -0.8518
 4587TIP3    H235321   1.293   2.894   1.528  0.1105  0.0926 -1.7374
 4588TIP3   OH235322   3.678   0.990   7.641 -0.4016  0.7461 -0.1074
 4588TIP3    H135323   3.627   0.943   7.707 -1.7931 -0.7995 -2.1550
 4588TIP3    H235324   3.758   0.939   7.632 -1.3386 -0.5600 -1.3893
 4589TIP3   OH235325   3.202   2.953   1.776 -0.0289  0.2152 -0.7321
 4589TIP3    H135326   3.233   3.038   1.744  1.7427 -0.4473 -0.8886
 4589TIP3    H235327   3.174   2.970   1.866  1.4259  0.7506 -0.3566
 4590TIP3   OH235328   3.160   1.101   6.328 -0.2336  0.2075 -0.3846
 4590TIP3    H135329   3.171   1.186   6.286  0.0723 -0.5804 -1.9696
 4590TIP3    H235330   3.065   1.090   6.336 -0.3081  0.2649 -1.1275
 4591TIP3   OH235331   5.974   2.056   6.644 -0.1590  0.2824  0.1631
 4591TIP3    H135332   5.955   2.132   6.589  0.1948 -0.3015 -0.7840
 4591TIP3    H235333   6.062   2.029   6.619  0.0530  0.0524  1.0887
 4592TIP3   OH235334   1.975   4.887   1.804 -0.1925  0.3078 -0.3789
 4592TIP3    H135335   1.970   4.794   1.825  0.9575  0.8318  2.7022
 4592TIP3    H235336   2.057   4.897   1.755  0.0240 -0.2252 -0.1296
 4593TIP3   OH235337   6.126   5.465   7.956  0.4211  0.4236  0.6124
 4593TIP3    H135338   6.101   5.534   7.895  0.5539 -0.5319 -0.5648
 4593TIP3    H235339   6.151   5.392   7.900 -0.3662 -0.8146  1.8119
 4594TIP3   OH235340   3.813   4.457   2.086  0.9294  0.0330 -0.2583
 4594TIP3    H135341   3.730   4.414   2.067  0.6924  0.7215 -0.7793
 4594TIP3    H235342   3.861   4.455   2.004  1.3750 -0.2093 -0.0024
 4595TIP3   OH235343   4.046   5.540   0.209 -0.1986  0.9041  0.3639
 4595TIP3    H135344   4.000   5.559   0.127  0.2307 -1.6533 -0.5571
 4595TIP3    H235345   4.137   5.526   0.182 -0.0729 -0.0921  1.2521
 4596TIP3   OH235346   3.213   1.324   6.184 -0.3138 -0.2760  0.0895
 4596TIP3    H135347   3.293   1.378   6.179 -2.2291  2.8280  0.2253
 4596TIP3    H235348   3.190   1.308   6.093  0.7204 -1.6738  0.0510
 4597TIP3   OH235349   6.197   5.839   6.530 -0.1906 -0.7041 -0.2309
 4597TIP3    H135350   6.275   5.856   6.584 -1.9625  0.3962  2.1608
 4597TIP3    H235351   6.164   5.925   6.506 -1.1907 -1.1184 -0.4095
 4598TIP3   OH235352   6.161   6.625   1.205  0.2772 -0.4628 -0.5979
 4598TIP3    H135353   6.244   6.655   1.243  0.6644  0.7081 -2.2459
 4598TIP3    H235354   6.096   6.642   1.273  1.2634 -0.7055  0.4402
 4599TIP3   OH235355   6.507   3.236   0.723  0.0316  0.3652 -0.2404
 4599TIP3    H135356   6.503   3.195   0.810 -0.2285  0.2556 -0.3042
 4599TIP3    H235357   6.559   3.315   0.737  2.0694 -0.8511 -0.4576
 4600TIP3   OH235358   1.461   0.787   0.240  0.8726  0.4801 -0.3447
 4600TIP3    H135359   1.491   0.699   0.217  2.1863  0.7004  0.3564
 4600TIP3    H235360   1.381   0.799   0.191  0.0477 -1.5357  0.3771
 4601TIP3   OH235361   2.917   1.477   0.317 -0.8534  0.2361 -0.0226
 4601TIP3    H135362   3.002   1.432   0.318 -0.4737  0.7969 -2.3312
 4601TIP3    H235363   2.939   1.570   0.316 -1.5115  0.3961 -0.0178
 4602TIP3   OH235364   6.765   5.087   8.575  0.2341 -0.3911  0.5125
 4602TIP3    H135365   6.801   5.169   8.609  1.0367 -0.0251 -1.1027
 4602TIP3    H235366   6.834   5.022   8.592  0.9668 -0.0522 -1.0068
 4603TIP3   OH235367   1.543   3.681   7.037 -0.5101 -0.2932  0.1112
 4603TIP3    H135368   1.466   3.625   7.027 -0.7106 -0.0902  0.4884
 4603TIP3    H235369   1.517   3.764   6.996 -0.8104  0.0585  0.9690
 4604TIP3   OH235370   1.776   5.578   2.020  0.1057 -0.2266 -0.1189
 4604TIP3    H135371   1.835   5.615   1.954 -0.1312 -0.1485 -0.2897
 4604TIP3    H235372   1.834   5.537   2.084  0.4169  1.1089  0.4938
 4605TIP3   OH235373   4.740   5.682   1.685  0.4835  0.4285 -0.2285
 4605TIP3    H135374   4.797   5.626   1.736 -0.3080 -0.4433 -0.2629
 4605TIP3    H235375   4.675   5.714   1.748  0.2983  0.4354 -0.4218
 4606TIP3   OH235376   3.044   4.119   8.311 -0.5730  0.2213 -0.6620
 4606TIP3    H135377   3.135   4.138   8.332 -0.7366 -0.0594  0.3656
 4606TIP3    H235378   3.005   4.205   8.294 -0.8774  0.7626  2.2078
 4607TIP3   OH235379   5.445   0.965   7.402 -0.7661 -0.3352 -0.3551
 4607TIP3    H135380   5.438   0.905   7.328 -0.4947 -1.9190  0.8575
 4607TIP3    H235381   5.363   1.015   7.401 -2.0059 -2.2615 -0.1217
 4608TIP3   OH235382   5.345   3.572   7.945 -0.3162 -0.1285 -0.4197
 4608TIP3    H135383   5.394   3.654   7.948 -1.4550  0.5451  0.8202
 4608TIP3    H235384   5.260   3.596   7.909 -1.1095 -0.4797  1.1279
 4609TIP3   OH235385   2.670   5.323   0.868  0.2041 -0.0522 -0.2950
 4609TIP3    H135386   2.732   5.366   0.927  0.4757  0.4213 -0.9095
 4609TIP3    H235387   2.717   5.316   0.785 -0.7886  0.9676 -0.9819
 4610TIP3   OH235388   3.816   2.406   6.975 -0.4128  0.2002  0.2853
 4610TIP3    H135389   3.798   2.498   6.960 -1.3005 -0.1452 -0.9436
 4610TIP3    H235390   3.850   2.373   6.892  0.7344 -0.4062  0.9602
 4611TIP3   OH235391   0.989   5.673   0.665  0.2451 -0.2552 -0.3972
 4611TIP3    H135392   0.966   5.736   0.597  0.4575 -0.6730 -0.8648
 4611TIP3    H235393   1.008   5.726   0.742 -0.4697  0.1993 -0.5223
 4612TIP3   OH235394   0.836   3.338   1.787 -0.2243  0.3482 -0.3517
 4612TIP3    H135395   0.780   3.293   1.851  1.1211 -1.5581 -0.4230
 4612TIP3    H235396   0.799   3.314   1.702 -0.2949  0.4910 -0.3617
 4613TIP3   OH235397   1.432   4.745   2.460  0.3855 -0.2559 -0.3575
 4613TIP3    H135398   1.398   4.736   2.549 -0.7880  0.7828 -0.6698
 4613TIP3    H235399   1.493   4.819   2.464 -1.1688  1.1066 -0.7812
 4614TIP3   OH235400   5.130   2.065   0.597 -0.5761  0.2744 -0.3021
 4614TIP3    H135401   5.052   2.057   0.542  0.0037  0.2512 -1.1519
 4614TIP3    H235402   5.203   2.070   0.534  0.5662 -3.7682  0.3702
 4615TIP3   OH235403   1.658   3.126   0.909  0.1008 -0.1236 -0.0660
 4615TIP3    H135404   1.747   3.107   0.880 -0.1677  0.0985 -1.0588
 4615TIP3    H235405   1.665   3.130   1.004  1.7450  2.6960 -0.1627
 4616TIP3   OH235406   3.590   6.159   1.856 -0.3334  0.1409  0.5360
 4616TIP3    H135407   3.584   6.181   1.949 -0.9238 -1.4191  0.8981
 4616TIP3    H235408   3.528   6.087   1.844 -1.2458  1.1525 -1.3555
 4617TIP3   OH235409   5.116   1.378   2.067 -0.1779 -0.0058 -0.1632
 4617TIP3    H135410   5.032   1.399   2.027  0.0036  4.1327  1.1531
 4617TIP3    H235411   5.096   1.364   2.159  0.3781 -1.0174 -0.1852
 4618TIP3   OH235412   4.257   3.546   2.380 -0.0214  0.4871 -1.1048
 4618TIP3    H135413   4.317   3.533   2.307 -0.4750  0.0485 -1.4106
 4618TIP3    H235414   4.176   3.502   2.353 -0.0251 -0.1591 -0.1192
 4619TIP3   OH235415   2.942   5.626   1.446  0.2216 -0.1283 -0.2903
 4619TIP3    H135416   2.969   5.537   1.468  0.9379  0.1363 -0.0948
 4619TIP3    H235417   3.021   5.668   1.413  0.5970  1.2676  2.1604
 4620TIP3   OH235418   2.922   4.339   1.874 -0.9038 -0.1077  0.1553
 4620TIP3    H135419   2.978   4.376   1.806 -0.9650 -0.4826 -0.1006
 4620TIP3    H235420   2.983   4.308   1.941 -0.8545  0.5500  0.4295
 4621TIP3   OH235421   6.737   6.033   2.653 -0.1995  0.1520 -0.3972
 4621TIP3    H135422   6.796   6.102   2.684 -0.8055  1.2280 -1.5548
 4621TIP3    H235423   6.651   6.074   2.654 -0.2360  0.4367 -3.7992
 4622TIP3   OH235424   0.828   6.051   1.618  0.0864  0.0049  0.4512
 4622TIP3    H135425   0.867   5.996   1.685  0.8218 -0.0292  0.0087
 4622TIP3    H235426   0.747   6.084   1.657 -0.2733 -1.2426  0.7820
 4623TIP3   OH235427   3.547   1.259   1.108  0.2454  0.6230 -0.3344
 4623TIP3    H135428   3.506   1.215   1.033  0.5019 -1.8623  0.9116
 4623TIP3    H235429   3.519   1.351   1.099 -0.8249  0.1422 -2.7084
 4624TIP3   OH235430   4.909   3.694   0.685 -0.5176  0.4934 -0.0710
 4624TIP3    H135431   4.922   3.602   0.663 -0.1133 -0.0104  2.0065
 4624TIP3    H235432   4.844   3.725   0.623  1.3821 -0.3820 -2.6878
 4625TIP3   OH235433   5.351   3.229   7.480  0.3881  0.1458  0.2592
 4625TIP3    H135434   5.353   3.304   7.420  3.0511 -0.1635 -0.1638
 4625TIP3    H235435   5.305   3.160   7.431 -0.4930  0.9232 -0.0426
 4626TIP3   OH235436   0.819   6.008   7.265  0.0016 -0.1857  0.8614
 4626TIP3    H135437   0.734   6.050   7.271 -0.9024 -2.1234  4.8565
 4626TIP3    H235438   0.882   6.079   7.281 -0.7844  1.1323 -1.4442
 4627TIP3   OH235439   1.009   5.164   2.387  0.5690  1.1617  0.1822
 4627TIP3    H135440   1.082   5.107   2.360 -0.4406  0.8968 -2.1723
 4627TIP3    H235441   0.932   5.108   2.382 -0.0474  1.9036  1.0109
 4628TIP3   OH235442   3.184   3.148   7.185 -0.0294  0.0799  0.0123
 4628TIP3    H135443   3.129   3.078   7.149  0.6163 -0.3999 -0.0590
 4628TIP3    H235444   3.123   3.203   7.235 -0.5931 -0.3728 -0.1665
 4629TIP3   OH235445   6.730   6.233   0.406  0.2872 -1.1678  0.3010
 4629TIP3    H135446   6.681   6.314   0.405  1.9175 -0.1341  0.0765
 4629TIP3    H235447   6.756   6.221   0.497  2.7558  0.3479 -0.1119
 4630TIP3   OH235448   0.855   3.186   2.509  0.2729  0.1956 -0.4197
 4630TIP3    H135449   0.912   3.128   2.560 -1.0346 -0.2682  0.5838
 4630TIP3    H235450   0.842   3.262   2.565 -1.1085 -0.2778 -0.0610
 4631TIP3   OH235451   2.574   4.096   8.367 -0.1191  0.0610  0.5323
 4631TIP3    H135452   2.545   4.054   8.448  1.7723 -0.1450  1.1532
 4631TIP3    H235453   2.618   4.027   8.318 -1.6725  0.0558 -0.9577
 4632TIP3   OH235454   6.570   4.763   8.133  0.2423  0.3165  0.5100
 4632TIP3    H135455   6.535   4.676   8.149 -1.6323  0.9083 -0.1310
 4632TIP3    H235456   6.631   4.751   8.060 -0.8714 -0.2991 -0.3594
 4633TIP3   OH235457   5.515   3.943   7.019  0.1611 -0.1094 -0.5524
 4633TIP3    H135458   5.578   3.925   7.089  0.6209 -0.4342 -1.0305
 4633TIP3    H235459   5.568   3.982   6.950 -0.2732  0.1462 -0.7429
 4634TIP3   OH235460   4.234   1.134   7.476  0.1842 -0.4141  0.1185
 4634TIP3    H135461   4.274   1.173   7.553 -1.6042  0.6410  0.5432
 4634TIP3    H235462   4.296   1.066   7.449  1.1703 -0.3356  2.0512
 4635TIP3   OH235463   6.551   3.730   7.409  0.0308  0.5106  0.1858
 4635TIP3    H135464   6.548   3.778   7.326  1.2527 -0.0888 -0.2322
 4635TIP3    H235465   6.484   3.772   7.463 -1.3782  0.3616 -1.3712
 4636TIP3   OH235466   0.102   2.256   0.042  0.3534 -0.4767 -0.5363
 4636TIP3    H135467   0.076   2.345   0.067 -1.3611 -1.3029  0.8288
 4636TIP3    H235468   0.157   2.268  -0.036 -0.3677  1.7263 -0.7743
 4637TIP3   OH235469   0.734   2.481   1.356  0.2650  0.1549 -0.5817
 4637TIP3    H135470   0.758   2.465   1.265  0.2113  0.6169 -0.6770
 4637TIP3    H235471   0.758   2.572   1.372  0.0317  0.1528 -0.2113
 4638TIP3   OH235472   2.037   0.168   2.006  0.2000 -0.9803  0.4750
 4638TIP3    H135473   2.078   0.084   1.984  0.0917 -0.7585 -0.6232
 4638TIP3    H235474   2.085   0.233   1.955 -0.6908 -0.5630  0.1332
 4639TIP3   OH235475   6.046   0.119   7.886 -0.0826  0.2524 -1.0185
 4639TIP3    H135476   6.071   0.201   7.928 -0.7975 -0.5730  1.1596
 4639TIP3    H235477   5.998   0.145   7.808 -0.4854  1.9219 -0.2494
 4640TIP3   OH235478   4.131   2.372   7.299 -0.3561  0.2302 -0.0300
 4640TIP3    H135479   4.173   2.381   7.213  0.4554  0.7528  0.4166
 4640TIP3    H235480   4.038   2.387   7.281 -0.1475  0.7266 -0.7590
 4641TIP3   OH235481   6.737   5.719   2.767  0.6917  0.0180  0.2638
 4641TIP3    H135482   6.771   5.760   2.846  0.2506  0.3225  0.2968
 4641TIP3    H235483   6.707   5.633   2.795  2.5306 -0.7573  0.0104
 4642TIP3   OH235484   1.103   5.618   1.626 -0.2489  0.4774  0.0432
 4642TIP3    H135485   1.022   5.566   1.631 -0.6131  1.0180 -0.1289
 4642TIP3    H235486   1.169   5.563   1.669 -0.9778  0.5525  1.3257
 4643TIP3   OH235487   0.723   0.561   0.415  0.5871  0.0271 -0.1398
 4643TIP3    H135488   0.797   0.562   0.353 -0.0443  1.3649 -0.9425
 4643TIP3    H235489   0.649   0.593   0.363 -0.6207 -1.4461  0.6044
 4644TIP3   OH235490   1.677   4.089   7.800 -0.3511  0.2646  0.3368
 4644TIP3    H135491   1.671   4.039   7.718 -0.3826  0.5119  0.1876
 4644TIP3    H235492   1.749   4.048   7.848 -0.4623 -0.0104  0.2744
 4645TIP3   OH235493   0.091   3.017   7.099 -0.1356  0.4676 -0.8062
 4645TIP3    H135494   0.121   3.035   7.010  0.3723  0.3374 -0.6708
 4645TIP3    H235495   0.080   2.922   7.101  2.4099  0.1009 -0.0070
 4646TIP3   OH235496   6.617   1.303   1.949 -0.3003 -0.2105  0.1188
 4646TIP3    H135497   6.702   1.260   1.945 -0.7435 -1.0337 -1.1980
 4646TIP3    H235498   6.633   1.393   1.919 -0.0175 -0.5991 -0.9484
 4647TIP3   OH235499   0.533   4.952   0.084  0.3477  0.0649  0.0909
 4647TIP3    H135500   0.621   4.931   0.051  0.2177  0.5278 -0.5812
 4647TIP3    H235501   0.509   5.032   0.038 -0.5342 -0.1974  0.0679
 4648TIP3   OH235502   4.649   6.760   8.227  0.0417  0.1038 -0.8080
 4648TIP3    H135503   4.698   6.755   8.309  0.8951  1.1351 -1.2347
 4648TIP3    H235504   4.587   6.832   8.240 -0.9102 -0.7466 -0.5212
 4649TIP3   OH235505   4.558   2.542   8.071  0.4547 -0.0459  0.0616
 4649TIP3    H135506   4.488   2.607   8.072  0.8171  0.3431  0.6049
 4649TIP3    H235507   4.591   2.541   8.161 -0.0209 -1.5025  0.2456
 4650TIP3   OH235508   4.216   4.857   7.094  0.0953 -0.6709  0.8028
 4650TIP3    H135509   4.281   4.925   7.079 -1.2546  0.3701 -0.7562
 4650TIP3    H235510   4.241   4.786   7.035 -0.2275 -0.2083  0.0915
 4651TIP3   OH235511   2.380   6.668   7.596 -0.6759  0.2605 -0.0457
 4651TIP3    H135512   2.423   6.672   7.511 -0.9680  1.1309 -0.1561
 4651TIP3    H235513   2.427   6.599   7.643  0.2607  0.5846 -0.4834
 4652TIP3   OH235514   0.770   0.854   7.472 -0.0517 -0.0070  0.2517
 4652TIP3    H135515   0.828   0.781   7.447 -1.6687 -0.5495 -2.2600
 4652TIP3    H235516   0.705   0.814   7.529 -1.1126 -0.6784 -1.3615
 4653TIP3   OH235517   3.959   1.837   6.551 -0.3476 -0.2092 -0.5209
 4653TIP3    H135518   3.898   1.796   6.613 -0.3139  2.2647  1.3033
 4653TIP3    H235519   4.044   1.835   6.596 -0.4549  2.2490 -0.0484
 4654TIP3   OH235520   1.916   3.365   1.692  0.0047 -0.1395  0.0287
 4654TIP3    H135521   2.009   3.388   1.690  0.2538 -0.7790  1.8368
 4654TIP3    H235522   1.899   3.327   1.605  1.2874  0.4743 -0.5183
 4655TIP3   OH235523   2.764   3.809   0.137  0.3899 -0.4813 -0.6413
 4655TIP3    H135524   2.722   3.730   0.172  0.1452  0.3141  0.9801
 4655TIP3    H235525   2.691   3.868   0.117  0.6283 -0.0168 -0.1617
 4656TIP3   OH235526   4.730   3.990   7.584  0.3445 -0.1052  0.1473
 4656TIP3    H135527   4.778   4.022   7.507 -0.1759 -1.2176 -0.6751
 4656TIP3    H235528   4.654   3.945   7.547  0.0553 -0.6165  1.3325
 4657TIP3   OH235529   5.268   3.653   1.355  0.0512  0.2386  0.2958
 4657TIP3    H135530   5.228   3.718   1.298  0.6319  0.2714 -0.0885
 4657TIP3    H235531   5.356   3.687   1.372 -0.0554  0.1392  1.0690
 4658TIP3   OH235532   6.541   4.010   1.503 -0.4916 -0.7025  0.0312
 4658TIP3    H135533   6.575   3.970   1.583  0.8634  1.8788  0.8729
 4658TIP3    H235534   6.614   4.005   1.441 -0.8350 -0.9041 -0.3571
 4659TIP3   OH235535   3.967   5.041   8.043  0.0545 -0.1778  0.9353
 4659TIP3    H135536   3.930   4.987   8.112 -0.2506 -0.2885  0.6865
 4659TIP3    H235537   3.905   5.113   8.032 -1.1851 -1.4413 -0.8961
 4660TIP3   OH235538   3.845   4.584   7.938  0.2366  0.1338  0.1422
 4660TIP3    H135539   3.895   4.516   7.982 -0.4100  0.6161  1.6710
 4660TIP3    H235540   3.904   4.617   7.870  1.8008  0.3449  1.5573
 4661TIP3   OH235541   4.550   0.352   2.691  0.0228  0.4861  0.0980
 4661TIP3    H135542   4.486   0.281   2.694 -0.3394  0.7944 -0.3578
 4661TIP3    H235543   4.509   0.423   2.740  0.3577  0.4078  0.4975
 4662TIP3   OH235544   1.729   0.253   0.593 -0.0599 -0.0457  0.1699
 4662TIP3    H135545   1.636   0.276   0.586 -0.5169 -2.0426 -1.1382
 4662TIP3    H235546   1.730   0.157   0.596  1.9316 -0.0506  1.1856
 4663TIP3   OH235547   3.506   1.338   8.405 -0.1554 -0.1328 -0.0258
 4663TIP3    H135548   3.416   1.326   8.375 -0.1072  0.5149 -0.4511
 4663TIP3    H235549   3.548   1.254   8.389 -0.6281 -0.3716 -0.0273
 4664TIP3   OH235550   4.150   0.042   7.807 -0.4094  0.0805 -0.1524
 4664TIP3    H135551   4.071   0.076   7.765 -1.8785 -0.4180  1.9920
 4664TIP3    H235552   4.132  -0.051   7.819  0.8094 -0.1771 -0.2459
 4665TIP3   OH235553   6.501   5.345   2.261  0.4665 -0.1959 -0.3120
 4665TIP3    H135554   6.544   5.411   2.315  0.7546 -0.8325  0.2462
 4665TIP3    H235555   6.563   5.326   2.191  0.0802  0.6537 -0.8909
 4666TIP3   OH235556   0.252   1.495   2.136  0.1008 -0.5321  0.0283
 4666TIP3    H135557   0.280   1.579   2.100  1.2206 -1.2639 -0.8889
 4666TIP3    H235558   0.324   1.467   2.192 -0.9921 -0.1153  1.7463
 4667TIP3   OH235559   2.090   3.554   7.952 -0.2814  0.2921 -0.1721
 4667TIP3    H135560   2.114   3.490   8.019  0.3601  1.1981  0.4834
 4667TIP3    H235561   2.147   3.629   7.969 -0.5153  0.7630 -1.3792
 4668TIP3   OH235562   4.247   4.633   0.542  0.3058  0.3255  0.1778
 4668TIP3    H135563   4.265   4.662   0.453 -0.0449  0.0228  0.0058
 4668TIP3    H235564   4.222   4.541   0.533 -0.7967  0.5797  0.4630
 4669TIP3   OH235565   4.044   5.853   1.752  0.0961 -0.4700 -0.3354
 4669TIP3    H135566   3.982   5.906   1.803  0.6736 -0.2150  0.1179
 4669TIP3    H235567   4.082   5.793   1.817  2.1033  0.9967 -0.0612
 4670TIP3   OH235568   5.679   4.127   6.507  0.2555 -0.1875  0.5950
 4670TIP3    H135569   5.706   4.218   6.515 -0.3918  0.2221 -1.3118
 4670TIP3    H235570   5.751   4.084   6.462 -0.9829  0.2958 -2.0095
 4671TIP3   OH235571   3.116   5.430   1.920 -0.1291 -0.4393  0.1117
 4671TIP3    H135572   3.138   5.484   1.845 -0.5572 -1.1838 -0.5722
 4671TIP3    H235573   3.151   5.344   1.899 -2.9852 -1.5286 -0.7494
 4672TIP3   OH235574   1.512   3.392   0.086  0.3729 -0.0763 -0.1104
 4672TIP3    H135575   1.538   3.389   0.178 -0.0851 -0.3158  0.0178
 4672TIP3    H235576   1.488   3.301   0.065  2.2275 -0.4130 -0.9926
 4673TIP3   OH235577   3.221   0.533   1.730  0.1588  0.2757 -0.1133
 4673TIP3    H135578   3.184   0.456   1.775 -0.0523  1.0299  1.0466
 4673TIP3    H235579   3.145   0.589   1.714  0.2546  0.0827 -1.3174
 4674TIP3   OH235580   5.939   1.503   2.842 -0.3793 -0.4000  0.2368
 4674TIP3    H135581   5.882   1.428   2.823 -0.5784 -0.3402  0.5726
 4674TIP3    H235582   5.887   1.579   2.820 -1.4895 -0.2241  3.0033
 4675TIP3   OH235583   4.143   0.335   1.155 -0.1636 -0.6239 -0.1443
 4675TIP3    H135584   4.198   0.263   1.125  0.4470 -0.6467  0.9999
 4675TIP3    H235585   4.173   0.411   1.105 -0.3339 -1.0018 -0.8374
 4676TIP3   OH235586   4.863   0.647   1.939 -0.4276 -0.4392 -0.2267
 4676TIP3    H135587   4.781   0.626   1.893 -1.1849  0.0759  0.8370
 4676TIP3    H235588   4.835   0.668   2.028  1.0343 -1.8779  0.6255
 4677TIP3   OH235589   4.153   4.023   6.529 -0.0762 -0.5626  0.0398
 4677TIP3    H135590   4.123   4.094   6.585  0.4570  1.2090 -1.8289
 4677TIP3    H235591   4.223   3.981   6.579  1.0660  1.6022  0.3528
 4678TIP3   OH235592   3.839   6.432   0.600 -0.0818 -0.1391  0.1474
 4678TIP3    H135593   3.921   6.385   0.617  0.1951  0.9604  2.2753
 4678TIP3    H235594   3.785   6.414   0.677 -1.9702 -1.0103 -1.3075
 4679TIP3   OH235595   6.286   4.917   7.799 -0.5264 -0.0592  0.3106
 4679TIP3    H135596   6.362   4.952   7.845 -1.3314  1.7088  0.3680
 4679TIP3    H235597   6.227   4.992   7.790 -1.7046 -1.0881 -0.8796
 4680TIP3   OH235598   0.054   2.576   7.534 -0.3234 -0.7203 -0.8058
 4680TIP3    H135599   0.024   2.577   7.443 -0.1897  1.3350 -0.8562
 4680TIP3    H235600   0.028   2.660   7.570  0.2707 -1.1982  0.8665
 4681TIP3   OH235601   6.214   1.368   7.201  0.1379  0.5759  0.4414
 4681TIP3    H135602   6.192   1.375   7.294  1.9023 -1.9672  1.1437
 4681TIP3    H235603   6.130   1.351   7.158 -0.5832  0.9188  1.6557
 4682TIP3   OH235604   3.646   5.296   7.311  0.0886  0.1952 -0.3099
 4682TIP3    H135605   3.674   5.386   7.294 -2.4181  1.0352 -0.4282
 4682TIP3    H235606   3.642   5.256   7.224  1.6313 -0.2074 -0.2194
 4683TIP3   OH235607   6.388   1.339   1.357 -0.0048 -0.1653  0.4850
 4683TIP3    H135608   6.423   1.390   1.430 -1.0598 -0.0230  0.9068
 4683TIP3    H235609   6.296   1.326   1.379 -0.2401 -0.4668 -0.6305
 4684TIP3   OH235610   0.111   1.208   0.755 -0.0215  0.1872  0.0898
 4684TIP3    H135611   0.157   1.138   0.800  2.0998  1.8927  0.7297
 4684TIP3    H235612   0.156   1.217   0.671 -3.0144 -1.9774 -1.9777
 4685TIP3   OH235613   5.018   1.011   1.941 -0.1622  0.1070  0.3617
 4685TIP3    H135614   5.099   1.059   1.925  0.7057 -1.7887 -1.2966
 4685TIP3    H235615   5.023   0.984   2.033  0.1450  1.6123  0.8105
 4686TIP3   OH235616   2.474   6.643   2.146  0.8015 -0.5787 -0.3736
 4686TIP3    H135617   2.412   6.598   2.089 -0.0094 -0.1631  0.1689
 4686TIP3    H235618   2.463   6.735   2.125  0.9771 -0.4751 -0.0118
 4687TIP3   OH235619   0.477   2.817   0.090 -0.5726 -0.0072  0.2420
 4687TIP3    H135620   0.428   2.791   0.012 -1.1729  0.3777  0.4802
 4687TIP3    H235621   0.501   2.909   0.074 -0.8835  0.1398  0.6000
 4688TIP3   OH235622   3.279   5.775   7.557  0.1273  0.6055 -0.1020
 4688TIP3    H135623   3.220   5.787   7.483 -1.2129  0.3550  0.8871
 4688TIP3    H235624   3.367   5.776   7.518 -0.5655 -0.9050 -1.8993
 4689TIP3   OH235625   4.898   5.653   2.632 -0.1443 -0.1257 -0.0393
 4689TIP3    H135626   4.980   5.606   2.617 -0.6015 -0.7392 -0.6747
 4689TIP3    H235627   4.861   5.612   2.710 -0.0106 -0.0788  0.0485
 4690TIP3   OH235628   5.186   3.093   1.666  0.0893 -0.2475 -0.2867
 4690TIP3    H135629   5.173   3.004   1.636 -1.1389 -0.2054  0.0807
 4690TIP3    H235630   5.187   3.146   1.586  0.7151 -0.5585 -0.4954
 4691TIP3   OH235631   3.821   1.292   0.982  0.4077 -0.0970  0.1428
 4691TIP3    H135632   3.857   1.204   0.969  1.0481  0.1156  0.4347
 4691TIP3    H235633   3.731   1.277   1.010 -0.2011 -0.6106 -1.9113
 4692TIP3   OH235634   6.682   4.305   0.576  0.7529  0.3239  0.1927
 4692TIP3    H135635   6.673   4.344   0.489  0.0418  3.2854  1.4606
 4692TIP3    H235636   6.777   4.291   0.586  0.9969  1.3869 -0.5051
 4693TIP3   OH235637   6.100   1.920   0.142 -0.0717  0.2401  0.8177
 4693TIP3    H135638   6.180   1.873   0.118 -0.2091 -0.4952  1.7098
 4693TIP3    H235639   6.051   1.929   0.061  0.0368 -1.0456  0.5922
 4694TIP3   OH235640   6.281   6.869   6.306 -0.3019  0.4943  0.2739
 4694TIP3    H135641   6.288   6.914   6.391 -2.4303  0.2140  0.6543
 4694TIP3    H235642   6.336   6.921   6.247  2.2675 -0.0271  2.0453
 4695TIP3   OH235643   4.053   3.460   0.496 -0.1011 -0.3504 -1.0452
 4695TIP3    H135644   4.080   3.466   0.404  1.9570 -2.2660 -0.6455
 4695TIP3    H235645   4.104   3.528   0.540 -0.8698  0.3717 -1.2393
 4696TIP3   OH235646   6.406   0.366   2.009 -0.1489  0.0253 -0.1284
 4696TIP3    H135647   6.336   0.375   1.945 -1.1611  2.0862  1.1551
 4696TIP3    H235648   6.476   0.422   1.976  0.8192 -1.7741 -1.2411
 4697TIP3   OH235649   2.639   0.489   7.554  0.6152 -0.2157 -0.2269
 4697TIP3    H135650   2.554   0.505   7.514 -0.0891 -1.3642  0.7688
 4697TIP3    H235651   2.652   0.394   7.548 -0.0519 -0.6439  3.1824
 4698TIP3   OH235652   4.069   3.884   7.913 -0.1018  0.3009 -0.2731
 4698TIP3    H135653   3.981   3.873   7.876  0.3767 -2.0583 -0.8494
 4698TIP3    H235654   4.109   3.953   7.859 -1.9068  2.2202  0.7098
 4699TIP3   OH235655   0.635   2.373   7.908  0.3437  0.2235 -0.4573
 4699TIP3    H135656   0.706   2.365   7.971 -0.1485 -0.4716  0.0299
 4699TIP3    H235657   0.592   2.287   7.910 -0.2797  0.5148 -1.0129
 4700TIP3   OH235658   2.377   5.463   0.756 -0.5685 -0.1069  0.1022
 4700TIP3    H135659   2.433   5.444   0.832 -0.0466  1.3137  0.1012
 4700TIP3    H235660   2.289   5.468   0.793 -0.3287  0.4914  0.6046
 4701TIP3   OH235661   3.542   6.683   1.820 -0.1327  0.0640 -0.1033
 4701TIP3    H135662   3.484   6.628   1.767  0.9819  0.0316 -1.3100
 4701TIP3    H235663   3.538   6.769   1.779 -0.0883  0.3207  0.4153
 4702TIP3   OH235664   0.065   3.349   8.563 -0.3312  0.1040 -0.2479
 4702TIP3    H135665   0.047   3.293   8.487 -1.0570  0.3874 -0.2966
 4702TIP3    H235666  -0.002   3.324   8.627  0.0119  0.1646  0.1377
 4703TIP3   OH235667   6.340   4.365   0.822  0.3047 -0.1524 -0.2273
 4703TIP3    H135668   6.277   4.339   0.754 -0.1278  2.3913 -0.9036
 4703TIP3    H235669   6.392   4.434   0.782 -0.1483  1.6509  2.0504
 4704TIP3   OH235670   5.939   6.259   0.081  0.7289  0.3842  0.5155
 4704TIP3    H135671   6.027   6.285   0.056  0.3417  1.2066 -0.0449
 4704TIP3    H235672   5.951   6.195   0.151  1.7709  0.1663  0.1414
 4705TIP3   OH235673   2.708   0.478   0.172 -0.4295  0.2497  0.3215
 4705TIP3    H135674   2.680   0.568   0.191  0.1318  0.0073  2.5148
 4705TIP3    H235675   2.796   0.487   0.138 -0.0910  0.5145  1.2326
 4706TIP3   OH235676   0.031   3.967   0.908  0.7498 -0.1794  0.2659
 4706TIP3    H135677   0.028   4.009   0.822 -0.4878 -1.1637 -0.1911
 4706TIP3    H235678   0.017   4.039   0.970  1.3849  0.4937 -0.3480
 4707TIP3   OH235679   2.401   5.675   7.609 -0.2598 -0.2835 -0.6687
 4707TIP3    H135680   2.371   5.587   7.633  0.6663 -0.0787  1.4048
 4707TIP3    H235681   2.377   5.684   7.516 -4.1845 -1.0821  0.1239
 4708TIP3   OH235682   1.033   6.311   0.161  0.1880  1.0395 -0.3430
 4708TIP3    H135683   1.032   6.342   0.070 -1.8248  3.0955  0.3016
 4708TIP3    H235684   1.024   6.390   0.214 -2.4183 -0.3571  1.5161
 4709TIP3   OH235685   4.119   0.858   0.748  0.2911  0.0521  0.0923
 4709TIP3    H135686   4.197   0.841   0.696 -0.8150  1.0034 -2.0170
 4709TIP3    H235687   4.048   0.817   0.698 -1.0344  2.2847  0.0087
 4710TIP3   OH235688   6.158   0.313   1.881  0.2307  0.6211  0.2199
 4710TIP3    H135689   6.149   0.363   1.801  2.7982 -0.9999 -1.2305
 4710TIP3    H235690   6.085   0.251   1.879  1.1763 -0.5240 -1.8224
 4711TIP3   OH235691   6.711   0.500   6.747  0.4437  0.5220 -0.3588
 4711TIP3    H135692   6.639   0.448   6.781 -0.4462  1.7016 -0.3969
 4711TIP3    H235693   6.788   0.444   6.759 -0.4054 -0.6107  0.0126
 4712TIP3   OH235694   1.149   4.288   0.952 -0.0650 -0.2749 -0.1000
 4712TIP3    H135695   1.060   4.263   0.927  0.2963 -0.2842 -1.4232
 4712TIP3    H235696   1.168   4.233   1.029 -0.5219 -1.6313 -0.9197
 4713TIP3   OH235697   1.705   3.259   8.006 -0.1490  0.0985 -0.3309
 4713TIP3    H135698   1.752   3.331   8.047  1.3705 -1.0845  0.1194
 4713TIP3    H235699   1.672   3.296   7.924  2.7900  0.7067 -1.3719
 4714TIP3   OH235700   2.673   6.183   2.314  0.2923  0.4854 -0.9050
 4714TIP3    H135701   2.667   6.278   2.300  0.6823  0.6015 -0.3407
 4714TIP3    H235702   2.735   6.153   2.248  2.4737  1.0954  0.7393
 4715TIP3   OH235703   3.340   1.211   0.460 -0.2797  0.0435 -0.1050
 4715TIP3    H135704   3.297   1.135   0.421 -0.2555  0.5160 -1.0599
 4715TIP3    H235705   3.431   1.185   0.468 -0.5197 -0.5579  0.9246
 4716TIP3   OH235706   0.479   1.391   0.371  0.9676 -0.0729 -0.3261
 4716TIP3    H135707   0.444   1.324   0.313  0.4033  1.1081 -1.4178
 4716TIP3    H235708   0.524   1.452   0.312 -1.8306  2.5812  0.0298
 4717TIP3   OH235709   5.106   6.030   8.089 -0.0539 -0.1415 -0.1377
 4717TIP3    H135710   5.148   6.006   8.172 -1.7603  0.4173  0.9309
 4717TIP3    H235711   5.016   6.000   8.098 -0.2423 -0.2213 -1.8822
 4718TIP3   OH235712   5.243   6.495   8.517  0.3828 -0.1692 -0.1476
 4718TIP3    H135713   5.160   6.537   8.498 -0.3845 -1.4036  0.3554
 4718TIP3    H235714   5.305   6.567   8.530 -1.1686  0.8322  2.1009
 4719TIP3   OH235715   5.712   2.259   7.971 -0.3839 -0.2116  0.2868
 4719TIP3    H135716   5.669   2.174   7.981  1.1690 -1.1886 -0.9507
 4719TIP3    H235717   5.769   2.267   8.047 -2.2347  0.8576  1.6607
 4720TIP3   OH235718   3.012   3.836   0.880  0.3962  0.1055 -0.0021
 4720TIP3    H135719   3.073   3.824   0.952 -1.3091 -0.3432  1.4379
 4720TIP3    H235720   3.024   3.758   0.825  0.9664 -0.0710  0.3702
 4721TIP3   OH235721   5.412   5.132   8.161 -0.0361 -0.4050  0.1455
 4721TIP3    H135722   5.353   5.107   8.232 -0.3833 -0.0315 -0.0095
 4721TIP3    H235723   5.393   5.068   8.092 -2.2735  1.3355 -0.9712
 4722TIP3   OH235724   2.545   0.631   1.343 -0.5404 -0.0492  0.7728
 4722TIP3    H135725   2.568   0.724   1.346 -1.4876  0.2128  0.5443
 4722TIP3    H235726   2.627   0.584   1.356  0.0634  0.8185  0.1583
 4723TIP3   OH235727   2.985   4.394   0.126 -0.8496  0.4977 -0.4160
 4723TIP3    H135728   2.994   4.446   0.205  0.8371 -1.5202  0.8375
 4723TIP3    H235729   2.919   4.329   0.147  2.4157 -2.7036  1.1123
 4724TIP3   OH235730   2.240   6.361   0.299 -0.1914 -0.1132 -0.3891
 4724TIP3    H135731   2.195   6.277   0.286  1.0801 -0.9996  0.5647
 4724TIP3    H235732   2.211   6.416   0.227 -0.3914 -1.6771 -1.5590
 4725TIP3   OH235733   4.520   3.283   7.302  0.2815 -0.1210 -0.5943
 4725TIP3    H135734   4.479   3.366   7.280 -0.1293  0.2283  1.2971
 4725TIP3    H235735   4.466   3.247   7.373  1.4173 -1.1660 -0.2136
 4726TIP3   OH235736   6.769   5.172   7.796  0.8041  0.2469 -0.0195
 4726TIP3    H135737   6.760   5.247   7.736  2.4865  0.5326  0.0342
 4726TIP3    H235738   6.751   5.209   7.883 -0.8577  0.0006 -0.2147
 4727TIP3   OH235739   6.346   5.722   1.267  0.1983 -0.0008 -0.3184
 4727TIP3    H135740   6.262   5.764   1.286  0.5457  0.7937 -0.5029
 4727TIP3    H235741   6.386   5.778   1.200  1.7367  0.7519  1.1462
 4728TIP3   OH235742   0.924   0.669   7.189  0.2214  0.0945  0.1719
 4728TIP3    H135743   0.928   0.577   7.215  1.1949  0.2524  0.6240
 4728TIP3    H235744   0.904   0.666   7.095  0.2655 -0.5850  0.1789
 4729TIP3   OH235745   1.850   4.817   6.771  1.0907  0.0401  0.2844
 4729TIP3    H135746   1.849   4.897   6.719 -0.1820  0.5947  1.1298
 4729TIP3    H235747   1.903   4.756   6.719  2.4253  1.5328 -0.1830
 4730TIP3   OH235748   5.334   1.672   0.117  0.0888 -0.3132  0.3313
 4730TIP3    H135749   5.247   1.647   0.087 -0.2082 -0.7341  1.5205
 4730TIP3    H235750   5.363   1.737   0.053 -1.4322  0.4624  0.4006
 4731TIP3   OH235751   6.432   5.655   7.702  0.1729  0.2305 -0.8415
 4731TIP3    H135752   6.380   5.733   7.721 -1.7360 -0.7350 -1.7989
 4731TIP3    H235753   6.383   5.610   7.633  1.2427 -1.7829 -0.3666
 4732TIP3   OH235754   4.808   4.646   7.448  0.1689 -0.3219  0.1506
 4732TIP3    H135755   4.745   4.586   7.489 -0.3231  0.0169 -0.1065
 4732TIP3    H235756   4.754   4.713   7.407  0.7273  0.7882  1.1745
 4733TIP3   OH235757   0.312   2.650   7.259 -0.2235 -0.0237  0.3696
 4733TIP3    H135758   0.347   2.565   7.287  0.1989 -0.5508 -1.5661
 4733TIP3    H235759   0.297   2.639   7.165 -1.7921  1.5168  0.4047
 4734TIP3   OH235760   6.010   1.782   1.805 -0.1621  0.0764  0.4611
 4734TIP3    H135761   5.931   1.797   1.753 -1.4988 -3.4262  1.1850
 4734TIP3    H235762   5.982   1.797   1.896  1.1784  2.5725  0.5645
 4735TIP3   OH235763   1.465   3.076   8.341 -0.1064 -0.6744  0.4926
 4735TIP3    H135764   1.528   3.043   8.405 -0.6352 -1.3314  0.6826
 4735TIP3    H235765   1.519   3.111   8.270  0.4792 -1.7382  0.3925
 4736TIP3   OH235766   1.485   5.143   7.761  0.3980  0.2974  0.5626
 4736TIP3    H135767   1.401   5.132   7.718  1.2918  1.1178 -1.5023
 4736TIP3    H235768   1.472   5.216   7.822  0.2230  2.1151 -1.5453
 4737TIP3   OH235769   1.856   3.508   0.503  0.3991 -0.2345 -0.0527
 4737TIP3    H135770   1.802   3.577   0.465 -1.5070 -0.9761  1.1748
 4737TIP3    H235771   1.795   3.452   0.550  2.1500 -1.6108  0.7303
 4738TIP3   OH235772   2.756   0.999   6.748 -0.1911  0.9983 -0.7365
 4738TIP3    H135773   2.665   0.997   6.777  0.6873  1.2201  2.3786
 4738TIP3    H235774   2.762   1.076   6.692 -1.9163  0.9152 -1.0812
 4739TIP3   OH235775   6.615   5.983   8.210 -0.4275 -0.1648 -0.1146
 4739TIP3    H135776   6.529   5.973   8.249  0.6930 -3.1791  1.9558
 4739TIP3    H235777   6.610   5.934   8.127 -1.1440  1.1996 -0.9080
 4740TIP3   OH235778   4.548   0.364   7.745 -0.0979  0.2792 -0.0996
 4740TIP3    H135779   4.533   0.452   7.711 -1.2944  0.0376 -0.2246
 4740TIP3    H235780   4.568   0.311   7.668 -0.2669  0.2624 -0.1328
 4741TIP3   OH235781   5.995   5.697   0.783  0.2014 -0.3450 -0.5887
 4741TIP3    H135782   5.998   5.601   0.784  0.4243 -0.3432 -0.9151
 4741TIP3    H235783   5.964   5.721   0.871  1.6485 -0.6604  0.0306
 4742TIP3   OH235784   0.025   1.620   1.815 -0.1396  0.2219 -0.0360
 4742TIP3    H135785   0.023   1.673   1.736 -0.3209  1.4517  0.7679
 4742TIP3    H235786   0.114   1.629   1.848 -0.0461 -0.3384 -0.1215
 4743TIP3   OH235787   0.090   4.557   1.856 -0.4078 -0.0611  0.1355
 4743TIP3    H135788   0.160   4.570   1.793  0.0726 -0.6726  0.5331
 4743TIP3    H235789   0.102   4.467   1.887 -0.5940  0.2526  1.1499
 4744TIP3   OH235790   1.075   2.005   6.548  0.1231 -0.2587 -0.1277
 4744TIP3    H135791   1.155   2.046   6.581 -0.2477 -0.1421  0.6587
 4744TIP3    H235792   1.106   1.935   6.491  0.8010 -0.5422  0.5645
 4745TIP3   OH235793   6.725   5.181   0.712 -0.6230  0.4224  1.1609
 4745TIP3    H135794   6.781   5.158   0.786  0.4489 -0.1687  0.1940
 4745TIP3    H235795   6.771   5.252   0.668 -1.2654  0.7894  1.0625
 4746TIP3   OH235796   4.526   3.063   0.772  0.2773  0.0606  0.3329
 4746TIP3    H135797   4.477   3.024   0.699 -0.1203 -0.7700  1.0154
 4746TIP3    H235798   4.569   2.989   0.814  2.2575  0.7971 -0.3144
 4747TIP3   OH235799   5.260   4.188   6.821  0.7745 -0.4069  0.0401
 4747TIP3    H135800   5.294   4.250   6.885  1.4910  0.4645 -1.1393
 4747TIP3    H235801   5.281   4.227   6.736 -0.5569 -1.2932 -0.7384
 4748TIP3   OH235802   0.317   1.779   1.627 -0.1594 -0.0106  0.3780
 4748TIP3    H135803   0.318   1.873   1.611  0.4625  0.0231  0.5705
 4748TIP3    H235804   0.329   1.770   1.721  2.2187 -0.2963  0.1226
 4749TIP3   OH235805   1.383   5.226   7.329 -0.6273 -0.0073 -0.3257
 4749TIP3    H135806   1.380   5.200   7.237  1.6550  0.3623 -0.5643
 4749TIP3    H235807   1.339   5.311   7.332 -2.2181 -0.7834 -0.7365
 4750TIP3   OH235808   2.640   4.058   0.890  0.4319 -0.2768  0.2893
 4750TIP3    H135809   2.626   3.971   0.927 -0.5306 -0.3186 -0.1571
 4750TIP3    H235810   2.553   4.086   0.861  0.7336  0.8408  0.4464
 4751TIP3   OH235811   0.518   4.084   7.782  0.4229  0.4953 -0.1508
 4751TIP3    H135812   0.502   4.012   7.720  0.3733  0.4510 -0.0870
 4751TIP3    H235813   0.478   4.160   7.741  0.2482  0.4330 -0.1000
 4752TIP3   OH235814   3.752   1.453   7.778  0.5366 -0.1957  0.0967
 4752TIP3    H135815   3.734   1.545   7.797  1.3808 -0.0707  0.2982
 4752TIP3    H235816   3.681   1.405   7.822  1.5707  0.1794  2.2810
 4753TIP3   OH235817   6.869   4.582   1.513 -0.8253 -0.1602  0.3767
 4753TIP3    H135818   6.827   4.506   1.554 -1.0724 -0.1190  0.1993
 4753TIP3    H235819   6.944   4.545   1.465 -1.0859 -0.3250  0.0919
 4754TIP3   OH235820   4.792   3.098   2.475 -0.3653 -0.0380 -0.1595
 4754TIP3    H135821   4.733   3.165   2.511  0.8548  0.4627  0.9675
 4754TIP3    H235822   4.877   3.142   2.468  0.1004 -1.0156 -0.8958
 4755TIP3   OH235823   3.941   3.974   6.880 -0.5109 -0.3455  0.4689
 4755TIP3    H135824   4.021   3.937   6.916 -1.0102 -2.1544 -0.1736
 4755TIP3    H235825   3.881   3.978   6.954 -0.9061 -2.2357  0.2996
 4756TIP3   OH235826   0.267   0.962   8.657  0.0158  0.2947  0.0626
 4756TIP3    H135827   0.186   0.967   8.607  0.6460 -1.5394 -1.2604
 4756TIP3    H235828   0.309   1.047   8.643 -0.4738  0.3136 -1.4129
 4757TIP3   OH235829   3.048   5.158   0.077 -0.0826 -0.2786  0.0078
 4757TIP3    H135830   3.141   5.178   0.083 -0.4721  1.8570 -0.3395
 4757TIP3    H235831   3.024   5.129   0.165  0.5168  1.1268  0.6708
 4758TIP3   OH235832   4.130   5.073   7.446  0.8605 -0.3141 -0.0754
 4758TIP3    H135833   4.075   5.041   7.518  1.0372 -1.8917 -0.5986
 4758TIP3    H235834   4.068   5.087   7.374  0.7102  1.0879  0.2995
 4759TIP3   OH235835   4.117   4.489   7.997 -0.6598  0.2931  0.3562
 4759TIP3    H135836   4.168   4.449   8.068 -0.0098  0.5567  0.0432
 4759TIP3    H235837   4.105   4.418   7.934  1.3448  0.8036 -0.6659
 4760TIP3   OH235838   3.815   0.273   1.741  0.4516  0.5461 -0.4869
 4760TIP3    H135839   3.897   0.224   1.752 -0.3240 -0.8483 -0.7259
 4760TIP3    H235840   3.747   0.207   1.748 -0.7823  1.9109  1.3820
 4761TIP3   OH235841   5.471   3.300   1.231 -0.0660 -0.3935 -0.1377
 4761TIP3    H135842   5.549   3.326   1.183 -0.4675  0.6628 -0.2358
 4761TIP3    H235843   5.480   3.341   1.316  1.6081 -3.8241  1.5509
 4762TIP3   OH235844   0.178   2.809   1.345  0.0724 -0.4095 -0.8421
 4762TIP3    H135845   0.270   2.784   1.339  0.0190 -0.4861 -1.5332
 4762TIP3    H235846   0.134   2.750   1.283 -0.4344 -0.3413 -0.5509
 4763TIP3   OH235847   3.484   5.509   1.716  0.1392 -0.0624  0.5045
 4763TIP3    H135848   3.556   5.502   1.654 -0.2448  1.4005 -0.1619
 4763TIP3    H235849   3.484   5.426   1.764  2.2339 -0.1013  0.5133
 4764TIP3   OH235850   1.890   6.632   2.478  0.9268 -0.0840  0.1314
 4764TIP3    H135851   1.873   6.537   2.484  0.3420  0.0224  0.2632
 4764TIP3    H235852   1.817   6.666   2.426  0.1685  0.5350  1.5382
 4765TIP3   OH235853   0.857   2.345   0.613 -0.2618  0.2119  0.4023
 4765TIP3    H135854   0.952   2.348   0.616 -0.1809 -1.6463  1.1854
 4765TIP3    H235855   0.833   2.401   0.539  1.3695  1.2555  0.5996
 4766TIP3   OH235856   0.503   4.310   2.528  0.7184 -0.0559 -0.3671
 4766TIP3    H135857   0.594   4.340   2.535  0.8398 -0.5581  0.2631
 4766TIP3    H235858   0.451   4.387   2.552  0.8866  0.8403 -2.5793
 4767TIP3   OH235859   1.219   6.369   8.499  0.1084 -0.1801 -0.1965
 4767TIP3    H135860   1.200   6.387   8.407  1.7238  1.2134 -0.3168
 4767TIP3    H235861   1.308   6.334   8.498 -0.3806 -1.5259  0.7442
 4768TIP3   OH235862   3.937   1.667   8.007  0.4872  0.0584 -1.1029
 4768TIP3    H135863   3.896   1.718   7.937  0.9268 -0.1303 -1.5008
 4768TIP3    H235864   3.993   1.730   8.052 -0.7312  0.4902 -0.1234
 4769TIP3   OH235865   3.961   3.667   8.389  0.3492  0.0402  0.2594
 4769TIP3    H135866   3.915   3.583   8.383  1.3832 -0.5161 -0.3010
 4769TIP3    H235867   3.898   3.731   8.357 -0.3923 -0.5481  0.5110
 4770TIP3   OH235868   1.024   1.211   1.247 -0.6273 -0.5035 -0.3239
 4770TIP3    H135869   1.022   1.300   1.283 -0.3104 -0.4999 -0.3174
 4770TIP3    H235870   0.932   1.186   1.240 -0.8052  0.5073 -2.0206
 4771TIP3   OH235871   6.635   2.845   2.230  0.4963  0.1462  0.2769
 4771TIP3    H135872   6.559   2.793   2.203  0.9174 -1.7800  2.5266
 4771TIP3    H235873   6.689   2.784   2.280  2.9464  1.8034 -0.1994
 4772TIP3   OH235874   1.937   5.008   2.057 -0.3619 -0.3180  0.1005
 4772TIP3    H135875   2.016   4.978   2.102  0.3205  0.8422 -0.2971
 4772TIP3    H235876   1.947   4.975   1.967 -0.2371 -0.0148  0.0023
 4773TIP3   OH235877   0.748   6.006   1.337  0.3455 -0.0087  0.2204
 4773TIP3    H135878   0.769   5.984   1.428  0.8064 -0.2950  0.0458
 4773TIP3    H235879   0.712   6.095   1.342 -1.9341 -0.9125  0.9742
 4774TIP3   OH235880   1.155   4.089   1.168  0.1095  0.3882 -0.7766
 4774TIP3    H135881   1.192   4.063   1.253 -0.4125  2.1011  0.0422
 4774TIP3    H235882   1.117   4.009   1.133 -2.7871  0.1897  2.2771
 4775TIP3   OH235883   2.724   3.058   8.344  0.3141 -0.1719  0.0976
 4775TIP3    H135884   2.801   3.076   8.398 -0.1862  3.0178 -0.0529
 4775TIP3    H235885   2.746   3.092   8.258 -0.3229 -1.7283 -0.7293
 4776TIP3   OH235886   5.269   1.478   2.901  0.2888  0.4614 -0.1898
 4776TIP3    H135887   5.184   1.453   2.863  1.1004  0.4705 -2.1213
 4776TIP3    H235888   5.316   1.395   2.909 -1.0060 -0.1074  4.1548
 4777TIP3   OH235889   0.459   3.006   7.816  0.4180  0.1732  0.4193
 4777TIP3    H135890   0.449   2.961   7.731 -0.8669 -0.3744  0.8227
 4777TIP3    H235891   0.536   3.061   7.805  0.5631 -0.2486 -0.9514
 4778TIP3   OH235892   4.632   6.732   0.479 -0.5055 -0.0675 -0.0606
 4778TIP3    H135893   4.558   6.702   0.532 -1.8469  3.2656  0.1547
 4778TIP3    H235894   4.609   6.708   0.389 -1.2909 -0.0954  0.1405
 4779TIP3   OH235895   3.053   2.635   1.074  0.8053  0.0074  0.2838
 4779TIP3    H135896   3.118   2.591   1.019  1.4794 -0.9255  1.7671
 4779TIP3    H235897   2.970   2.620   1.029  1.1495 -1.9847  0.2286
 4780TIP3   OH235898   1.542   6.363   1.827 -0.8969  0.4497  0.1593
 4780TIP3    H135899   1.548   6.288   1.885 -0.3709  0.0607 -0.3734
 4780TIP3    H235900   1.580   6.436   1.877  0.5442 -0.1138 -0.0577
 4781TIP3   OH235901   1.196   6.861   0.203  0.6943  0.3284 -0.2600
 4781TIP3    H135902   1.270   6.861   0.143  0.6121 -0.2900 -0.3746
 4781TIP3    H235903   1.119   6.866   0.146  0.6066 -0.5646 -0.2326
 4782TIP3   OH235904   1.804   4.368   7.778 -0.3966  0.6244  0.4943
 4782TIP3    H135905   1.895   4.344   7.798 -0.5161 -0.4715 -0.2017
 4782TIP3    H235906   1.757   4.285   7.779 -0.7556  0.6779 -2.4736
 4783TIP3   OH235907   0.282   0.425   0.887  0.2270 -0.2376  0.4586
 4783TIP3    H135908   0.288   0.355   0.952 -0.9136 -0.3870  0.4107
 4783TIP3    H235909   0.189   0.435   0.870  0.5111 -0.6232 -1.6088
 4784TIP3   OH235910   3.127   0.247   1.500 -0.0693  0.3682 -0.1849
 4784TIP3    H135911   3.121   0.198   1.582 -0.7672 -1.0075 -1.0198
 4784TIP3    H235912   3.213   0.224   1.464 -0.4641 -0.4301 -0.6583
 4785TIP3   OH235913   2.880   0.956   1.765  0.3328 -0.1751  0.0748
 4785TIP3    H135914   2.885   1.043   1.724  1.8216  0.3974  1.4125
 4785TIP3    H235915   2.824   0.906   1.705  1.7760  0.8402 -2.2714
 4786TIP3   OH235916   5.416   5.779   2.270 -0.7612  0.2433  0.1506
 4786TIP3    H135917   5.391   5.868   2.247 -2.7508 -0.0225  1.0649
 4786TIP3    H235918   5.336   5.727   2.257  0.6907 -1.7135 -1.7016
 4787TIP3   OH235919   0.996   0.683   2.185 -0.4113 -0.0190 -0.7145
 4787TIP3    H135920   0.944   0.702   2.264  0.4898  0.5374 -0.2490
 4787TIP3    H235921   0.930   0.666   2.117 -1.2433  1.6697 -0.3942
 4788TIP3   OH235922   6.019   5.140   0.536  0.0127  0.2189 -0.1519
 4788TIP3    H135923   6.076   5.132   0.612  0.2327  0.4742 -0.2840
 4788TIP3    H235924   5.932   5.153   0.572  0.0947  0.1967  0.0559
 4789TIP3   OH235925   6.837   3.342   7.127  0.4998  0.0098  0.0549
 4789TIP3    H135926   6.883   3.292   7.060  1.2919  0.4856  0.2368
 4789TIP3    H235927   6.894   3.416   7.146 -0.3158  0.5916  0.3227
 4790TIP3   OH235928   0.252   2.243   1.050 -0.0612 -0.5557 -0.2334
 4790TIP3    H135929   0.263   2.312   1.115 -0.8176 -2.1713  1.7254
 4790TIP3    H235930   0.170   2.264   1.006 -0.2982 -0.2095  0.3682
 4791TIP3   OH235931   4.920   2.800   0.447 -0.8266 -0.2362  0.4288
 4791TIP3    H135932   4.842   2.763   0.488 -0.3975 -0.6922  0.8434
 4791TIP3    H235933   4.973   2.724   0.423  0.5606  0.0743  2.2606
 4792TIP3   OH235934   6.267   2.707   8.545 -0.5231 -0.3579 -0.2554
 4792TIP3    H135935   6.255   2.740   8.456  1.4162  1.2169 -0.0064
 4792TIP3    H235936   6.338   2.643   8.538  0.2954  0.4701  0.2685
 4793TIP3   OH235937   2.507   2.269   2.108  0.1095 -0.3962 -0.2655
 4793TIP3    H135938   2.467   2.196   2.155  0.6724  0.4465  1.6495
 4793TIP3    H235939   2.438   2.335   2.102 -0.3042 -0.9255 -1.7107
 4794TIP3   OH235940   1.162   4.928   0.613 -0.0234 -0.3639  0.0079
 4794TIP3    H135941   1.133   4.972   0.693  0.6012  0.0308  0.0233
 4794TIP3    H235942   1.223   4.860   0.644  2.1711  1.3649 -0.2424
 4795TIP3   OH235943   1.039   0.619   0.665  0.4703  0.2092  0.2420
 4795TIP3    H135944   1.060   0.706   0.699  1.4039 -0.0862  0.4762
 4795TIP3    H235945   1.060   0.560   0.737 -0.9611 -0.1539  0.3765
 4796TIP3   OH235946   5.926   2.212   1.910  0.0481 -0.3271  0.1577
 4796TIP3    H135947   5.867   2.268   1.859  0.6563  0.7526  0.6169
 4796TIP3    H235948   5.996   2.270   1.938 -0.2112 -0.9245  2.1597
 4797TIP3   OH235949   0.097   6.761   7.909 -0.6840 -0.0051 -0.8164
 4797TIP3    H135950   0.159   6.706   7.955  0.6708  0.6271 -1.8286
 4797TIP3    H235951   0.060   6.819   7.976 -0.0009 -0.2250 -0.2496
 4798TIP3   OH235952   6.392   0.199   8.657 -0.1937 -0.3565  0.4208
 4798TIP3    H135953   6.327   0.252   8.703 -0.7492  0.7822 -1.5689
 4798TIP3    H235954   6.472   0.253   8.660  0.4761 -1.3520  2.0663
 4799TIP3   OH235955   1.149   0.256   1.738 -0.3460  0.5075  0.4207
 4799TIP3    H135956   1.117   0.243   1.827  1.0275  0.3638  0.9207
 4799TIP3    H235957   1.137   0.349   1.721  0.1196  0.6954  1.0759
 4800TIP3   OH235958   6.115   2.092   0.541  0.9013 -0.4789  0.5300
 4800TIP3    H135959   6.080   2.177   0.513  1.8924  0.5221  2.1514
 4800TIP3    H235960   6.076   2.029   0.481 -0.8938  0.9716  0.0717
 4801TIP3   OH235961   3.186   4.714   2.229 -0.1206 -0.0010 -0.0447
 4801TIP3    H135962   3.172   4.769   2.152  0.0917 -1.7340 -1.3873
 4801TIP3    H235963   3.157   4.627   2.202  0.7240 -0.8372  1.5739
 4802TIP3   OH235964   0.488   6.791   2.629  0.3271 -0.4577 -0.4116
 4802TIP3    H135965   0.464   6.865   2.685  0.7305 -1.0326  0.5416
 4802TIP3    H235966   0.529   6.728   2.688  0.6982 -1.1189 -1.3447
 4803TIP3   OH235967   0.150   1.471   6.868  0.0829 -0.2911  0.2094
 4803TIP3    H135968   0.113   1.556   6.841 -0.1221 -0.0492  1.2305
 4803TIP3    H235969   0.220   1.455   6.804  1.2218  1.4461  0.9341
 4804TIP3   OH235970   3.592   5.649   8.294 -0.3630  0.8846  0.2290
 4804TIP3    H135971   3.558   5.738   8.305 -1.1234  0.4942  1.1005
 4804TIP3    H235972   3.680   5.662   8.258 -1.0184  1.9316 -1.0876
 4805TIP3   OH235973   4.527   6.075   2.055 -0.5965  0.2126 -0.3463
 4805TIP3    H135974   4.613   6.066   2.013  0.0308  2.0014  0.4647
 4805TIP3    H235975   4.546   6.069   2.148 -1.2590  1.3082 -0.1352
 4806TIP3   OH235976   3.133   2.269   7.075 -0.2127  0.1385 -0.0339
 4806TIP3    H135977   3.198   2.322   7.121 -0.4416  1.8186 -1.5043
 4806TIP3    H235978   3.049   2.298   7.110 -0.3009 -0.0160 -0.1150
 4807TIP3   OH235979   4.780   3.324   0.996  0.1310 -0.3868 -0.0750
 4807TIP3    H135980   4.871   3.312   0.968  0.3085 -0.0622  0.3400
 4807TIP3    H235981   4.730   3.326   0.914  0.4781 -0.7129 -0.2997
 4808TIP3   OH235982   4.177   3.600   8.056 -0.1790  0.7277  0.1167
 4808TIP3    H135983   4.177   3.685   8.012 -0.2482  0.6486 -0.0349
 4808TIP3    H235984   4.103   3.553   8.019  0.4534  0.2193 -0.5252
 4809TIP3   OH235985   4.807   0.382   7.030  0.0403  0.6182 -0.6119
 4809TIP3    H135986   4.884   0.375   6.974  0.9064  0.5732  0.5558
 4809TIP3    H235987   4.791   0.476   7.035  2.6477  1.0652  2.5118
 4810TIP3   OH235988   4.397   3.521   7.250  0.2944  0.3541 -0.2092
 4810TIP3    H135989   4.458   3.581   7.208  1.0804 -0.5803 -0.4285
 4810TIP3    H235990   4.322   3.518   7.190 -0.4347  2.2620  0.5431
 4811TIP3   OH235991   6.743   0.493   1.372  0.3629 -0.0368  0.0483
 4811TIP3    H135992   6.770   0.406   1.401  1.1975  0.5333  1.0503
 4811TIP3    H235993   6.771   0.551   1.443 -0.8880  0.9541 -0.2374
 4812TIP3   OH235994   5.617   1.599   8.422 -0.4237  0.7127 -0.4857
 4812TIP3    H135995   5.577   1.685   8.436  1.2168  1.3362  0.5841
 4812TIP3    H235996   5.543   1.542   8.397 -1.9263  1.8679  1.1363
 4813TIP3   OH235997   2.302   2.248   6.520  0.6961 -0.0626  0.2059
 4813TIP3    H135998   2.221   2.272   6.475  0.0872 -1.6091  0.4152
 4813TIP3    H235999   2.372   2.267   6.457 -0.0126 -0.6859 -0.7851
 4814TIP3   OH236000   2.051   5.147   1.210 -0.3869  0.7658 -0.6897
 4814TIP3    H136001   2.010   5.230   1.237 -1.3451  0.5696 -1.4800
 4814TIP3    H236002   1.986   5.081   1.233  0.7845  0.1120  0.8406
 4815TIP3   OH236003   3.342   0.793   7.587 -0.0128 -0.0345 -0.0298
 4815TIP3    H136004   3.386   0.737   7.523  1.8371  0.6857  0.5508
 4815TIP3    H236005   3.409   0.814   7.652 -0.5920  2.8215 -0.1909
 4816TIP3   OH236006   5.058   5.236   0.363  0.2514  0.2345  0.0237
 4816TIP3    H136007   5.137   5.249   0.310 -0.9259  1.7248 -1.4409
 4816TIP3    H236008   5.022   5.324   0.375 -0.5574 -0.2843  1.7243
 4817TIP3   OH236009   4.133   6.730   7.167 -0.4270 -0.1449 -0.1981
 4817TIP3    H136010   4.072   6.658   7.184 -1.9410  1.4835  1.8156
 4817TIP3    H236011   4.208   6.712   7.224 -0.3685 -0.5892 -0.4091
 4818TIP3   OH236012   0.289   2.425   1.581  0.4748  0.0636  0.2319
 4818TIP3    H136013   0.371   2.471   1.602 -0.1440  0.3209  2.2580
 4818TIP3    H236014   0.226   2.457   1.645 -0.5089 -2.1622  0.4582
 4819TIP3   OH236015   4.881   4.217   7.761  0.7740 -0.0743 -0.0280
 4819TIP3    H136016   4.917   4.207   7.673  2.5776 -0.6931  0.7384
 4819TIP3    H236017   4.899   4.134   7.805  1.0327  0.6638  1.3104
 4820TIP3   OH236018   1.648   3.651   6.611 -0.0513 -0.4210 -0.2887
 4820TIP3    H136019   1.658   3.725   6.672  0.0545 -0.7998  0.1598
 4820TIP3    H236020   1.737   3.623   6.593 -0.0985 -0.5572 -0.3096
 4821TIP3   OH236021   2.565   2.469   0.808  0.6374 -0.4999  0.2378
 4821TIP3    H136022   2.475   2.466   0.842  0.9017  0.6493  1.1178
 4821TIP3    H236023   2.565   2.543   0.747  0.7690 -1.0563 -0.4402
 4822TIP3   OH236024   4.674   5.231   7.635  0.1890 -0.1523  0.1384
 4822TIP3    H136025   4.639   5.280   7.710 -2.0633  0.0199 -0.9374
 4822TIP3    H236026   4.631   5.146   7.640  0.5262 -0.3713 -0.6114
 4823TIP3   OH236027   3.286   3.961   0.285 -0.1062  0.1694 -0.1183
 4823TIP3    H136028   3.357   3.965   0.221 -1.0281  2.0639 -1.1033
 4823TIP3    H236029   3.225   3.896   0.249  0.2754 -0.1651 -0.1675
 4824TIP3   OH236030   6.762   4.952   1.758 -0.0518 -0.2224 -0.3695
 4824TIP3    H136031   6.672   4.960   1.729 -0.8178 -0.5757  1.7460
 4824TIP3    H236032   6.765   4.869   1.806  0.9728  0.5743  1.0020
 4825TIP3   OH236033   2.443   1.973   7.215 -0.4441 -0.0417 -0.2511
 4825TIP3    H136034   2.517   1.927   7.176 -0.2174  1.8907 -2.3527
 4825TIP3    H236035   2.482   2.040   7.271 -0.4887  1.2823 -1.7190
 4826TIP3   OH236036   5.925   3.645   7.515 -0.2947 -0.0004  0.0356
 4826TIP3    H136037   5.988   3.687   7.574  1.2499  1.3648 -2.3998
 4826TIP3    H236038   5.911   3.558   7.553  1.4130  0.4207  1.8222
 4827TIP3   OH236039   2.408   1.760   0.592 -0.1658 -0.2831  0.0923
 4827TIP3    H136040   2.391   1.825   0.660 -0.2910 -1.5305  1.2912
 4827TIP3    H236041   2.393   1.676   0.635 -0.1671 -1.1095 -1.4679
 4828TIP3   OH236042   3.158   4.831   1.961 -0.2009 -0.2036  0.1223
 4828TIP3    H136043   3.079   4.827   1.908  0.4799  2.1649 -1.2088
 4828TIP3    H236044   3.228   4.804   1.902  0.3246  0.4863  0.4194
 4829TIP3   OH236045   6.082   3.729   1.467  0.1146 -0.4189  0.2487
 4829TIP3    H136046   6.153   3.729   1.531 -0.8706  1.4343  1.4211
 4829TIP3    H236047   6.061   3.637   1.454  2.7712 -1.0530 -0.2438
 4830TIP3   OH236048   6.056   6.383   8.105  0.4165 -0.1076  0.0643
 4830TIP3    H136049   6.024   6.389   8.195 -1.9877  1.1442 -0.7794
 4830TIP3    H236050   6.111   6.461   8.094 -3.8679  3.0875 -1.0622
 4831TIP3   OH236051   4.665   1.992   8.118 -0.1431 -0.2859  0.0543
 4831TIP3    H136052   4.754   2.023   8.099  0.8257 -2.8024  0.1681
 4831TIP3    H236053   4.663   1.982   8.213  0.7214 -3.5003 -0.1651
 4832TIP3   OH236054   3.840   5.760   1.501  0.1088 -0.3340 -0.0796
 4832TIP3    H136055   3.873   5.849   1.509 -1.1239  0.1850 -0.5968
 4832TIP3    H236056   3.892   5.721   1.430 -0.6712  0.6263 -1.2210
 4833TIP3   OH236057   4.502   4.220   0.104  0.3909 -0.0878  0.5387
 4833TIP3    H136058   4.476   4.296   0.156 -0.1794 -0.0403  0.1837
 4833TIP3    H236059   4.506   4.253   0.014  1.3779 -0.1676  0.5398
 4834TIP3   OH236060   2.234   5.808   2.367 -0.0996  0.5863  0.0779
 4834TIP3    H136061   2.184   5.735   2.330 -0.8493  1.7599 -1.3715
 4834TIP3    H236062   2.181   5.885   2.347  1.1358  1.6282  0.6965
 4835TIP3   OH236063   3.453   1.303   6.512 -0.1961  0.4670 -0.4475
 4835TIP3    H136064   3.358   1.294   6.515 -0.1225 -0.2908 -0.0784
 4835TIP3    H236065   3.486   1.235   6.572  0.5087  2.0982  1.0891
 4836TIP3   OH236066   6.263   5.866   7.763 -0.3401  0.4426 -0.0089
 4836TIP3    H136067   6.171   5.883   7.741  0.0388  2.1010 -0.4232
 4836TIP3    H236068   6.276   5.910   7.847  0.0428  0.0930  0.1175
 4837TIP3   OH236069   6.702   4.294   2.039  0.7755 -0.6436  0.2635
 4837TIP3    H136070   6.624   4.252   2.076 -0.7318  1.2593 -0.5774
 4837TIP3    H236071   6.721   4.366   2.099 -0.5783  1.3408 -1.5723
 4838TIP3   OH236072   5.353   5.776   1.143 -0.0331  0.2489 -0.2523
 4838TIP3    H136073   5.432   5.737   1.106 -0.1296 -1.2639  1.0125
 4838TIP3    H236074   5.385   5.837   1.209  0.1072 -1.0097  0.8776
 4839TIP3   OH236075   3.317   0.879   6.443 -0.2489 -0.1719  0.5139
 4839TIP3    H136076   3.248   0.929   6.400 -0.5621 -1.5189 -0.6050
 4839TIP3    H236077   3.287   0.789   6.442  0.4664 -0.4797  2.1777
 4840TIP3   OH236078   0.252   2.253   7.891  0.0680 -0.5377 -0.0393
 4840TIP3    H136079   0.281   2.333   7.847 -0.0055  0.2275  1.2490
 4840TIP3    H236080   0.157   2.251   7.879 -0.2093  0.6433  1.5399
 4841TIP3   OH236081   2.295   2.557   1.327  0.2114  0.2971  0.1500
 4841TIP3    H136082   2.353   2.542   1.401  0.9891 -1.0827 -0.6853
 4841TIP3    H236083   2.331   2.503   1.257 -2.4720 -1.2298 -0.2083
 4842TIP3   OH236084   6.599   3.661   8.198 -0.1686  0.2496 -0.5781
 4842TIP3    H136085   6.577   3.639   8.289  1.1820 -1.4898 -0.6142
 4842TIP3    H236086   6.546   3.600   8.146  2.0752 -1.7066 -0.7554
 4843TIP3   OH236087   3.540   4.068   2.635 -0.4294  0.2323 -0.1047
 4843TIP3    H136088   3.574   4.153   2.608  0.0700 -0.4196 -1.6397
 4843TIP3    H236089   3.615   4.009   2.628 -1.0516 -0.5642 -0.2252
 4844TIP3   OH236090   1.222   5.628   1.334  0.1854 -0.5986  0.7666
 4844TIP3    H136091   1.137   5.596   1.361  0.0552 -2.5835 -1.6325
 4844TIP3    H236092   1.285   5.578   1.387 -0.1099 -0.2110  1.4873
 4845TIP3   OH236093   1.370   4.272   1.274 -0.2540 -0.0499  0.1515
 4845TIP3    H136094   1.302   4.210   1.248 -0.5680 -0.1410  1.1572
 4845TIP3    H236095   1.368   4.339   1.205  0.0192 -1.0871 -0.8832
 4846TIP3   OH236096   3.068   6.632   1.089  0.6502 -0.0692 -0.5275
 4846TIP3    H136097   3.146   6.638   1.144  1.0169  0.5864 -1.0879
 4846TIP3    H236098   3.056   6.539   1.073  0.0856 -0.3322  1.2719
 4847TIP3   OH236099   1.669   6.621   0.031  0.1873 -1.1555  0.5841
 4847TIP3    H136100   1.627   6.548  -0.014 -0.0595 -0.5478 -0.1924
 4847TIP3    H236101   1.626   6.699  -0.005  0.1092 -0.6474  1.7474
 4848TIP3   OH236102   3.055   6.380   2.021 -0.2388  0.0847  0.4459
 4848TIP3    H136103   2.967   6.357   1.989  0.4488 -2.1860  0.0767
 4848TIP3    H236104   3.042   6.397   2.114 -1.1284  0.1252  0.3273
 4849TIP3   OH236105   4.684   3.988   0.030 -0.2523 -0.5308 -0.3135
 4849TIP3    H136106   4.624   4.063   0.040  1.4638  0.8135  0.4101
 4849TIP3    H236107   4.697   3.981  -0.064 -1.6944 -1.0128 -0.5136
 4850TIP3   OH236108   2.082   3.504   0.654 -0.5009  0.2001  0.6190
 4850TIP3    H136109   2.008   3.502   0.593 -0.0114 -2.3000 -0.0112
 4850TIP3    H236110   2.159   3.513   0.598 -0.1903  0.6887  1.1133
 4851TIP3   OH236111   0.331   4.152   0.005 -0.0566  0.1167 -0.5658
 4851TIP3    H136112   0.355   4.192  -0.078 -0.2459 -0.8232 -1.0875
 4851TIP3    H236113   0.354   4.217   0.071  0.7703  0.5829 -1.2983
 4852TIP3   OH236114   1.188   3.471   8.091 -1.1932  0.5208  0.1036
 4852TIP3    H136115   1.133   3.443   8.164 -0.4644 -0.3606  0.3383
 4852TIP3    H236116   1.246   3.538   8.128 -0.0364 -0.7402  0.6692
 4853TIP3   OH236117   0.487   5.599   0.854 -0.1850  0.6323 -0.1917
 4853TIP3    H136118   0.554   5.531   0.862  0.4279  1.3553  1.0825
 4853TIP3    H236119   0.438   5.575   0.775 -0.2587 -1.5153  0.4461
 4854TIP3   OH236120   0.081   4.294   1.934  0.5256 -0.2833  0.3622
 4854TIP3    H136121   0.078   4.237   1.857 -1.2816 -1.2237  1.0649
 4854TIP3    H236122  -0.002   4.278   1.978  0.9390  1.2684  1.7851
 4855TIP3   OH236123   1.066   0.257   7.991  0.1776  0.1982  1.0413
 4855TIP3    H136124   1.041   0.315   7.919  1.2885 -2.5182 -1.7742
 4855TIP3    H236125   1.160   0.271   8.002  0.2900 -0.4000  0.9176
 4856TIP3   OH236126   5.442   5.163   2.269 -0.2712 -0.0055 -0.4301
 4856TIP3    H136127   5.376   5.095   2.258  0.0913 -0.2565 -1.0748
 4856TIP3    H236128   5.477   5.149   2.357  2.1280 -2.7902 -1.6592
 4857TIP3   OH236129   1.471   3.011   1.774 -0.2291  0.0315  0.2511
 4857TIP3    H136130   1.534   2.941   1.757 -0.4897  0.3829 -2.6943
 4857TIP3    H236131   1.396   2.966   1.815  0.1910 -1.1466 -0.2432
 4858TIP3   OH236132   4.289   6.793   2.540 -0.3642 -0.5291 -0.1633
 4858TIP3    H136133   4.197   6.800   2.565 -0.6969  0.1008 -1.4630
 4858TIP3    H236134   4.288   6.793   2.444  1.0863  1.7020 -0.2693
 4859TIP3   OH236135   1.728   4.261   8.101  0.0185  0.1181  0.1924
 4859TIP3    H136136   1.651   4.259   8.044 -0.6341 -0.6562  1.0845
 4859TIP3    H236137   1.716   4.339   8.156  1.2583  1.5985 -1.4893
 4860TIP3   OH236138   3.296   1.688   1.112 -0.5225  0.2030  0.4381
 4860TIP3    H136139   3.234   1.621   1.140 -0.5350  0.3828  0.8425
 4860TIP3    H236140   3.268   1.768   1.157 -2.3758  1.2878 -2.3540
 4861TIP3   OH236141   0.848   3.265   0.133  0.2031  0.0598  0.1102
 4861TIP3    H136142   0.853   3.309   0.218 -1.3025 -0.2791  0.4111
 4861TIP3    H236143   0.873   3.332   0.069 -1.9029  1.3822  0.5611
 4862TIP3   OH236144   0.316   1.283   7.582  0.5617  0.4140 -0.0644
 4862TIP3    H136145   0.229   1.267   7.544  0.3564 -1.1196  0.9349
 4862TIP3    H236146   0.366   1.324   7.511 -0.4692 -0.2938 -1.2558
 4863TIP3   OH236147   2.259   4.507   1.651  0.8924  0.0253 -0.9362
 4863TIP3    H136148   2.353   4.508   1.632  0.7945 -0.9432 -1.5712
 4863TIP3    H236149   2.225   4.583   1.604  1.5708  1.3812  0.6638
 4864TIP3   OH236150   2.974   0.899   8.103 -0.0365  0.3230 -0.3978
 4864TIP3    H136151   3.020   0.982   8.087 -1.0514  0.8751 -0.5579
 4864TIP3    H236152   2.889   0.910   8.059 -0.6543 -0.3385  0.5820
 4865TIP3   OH236153   2.572   2.400   8.162  0.6081 -0.3853 -0.0539
 4865TIP3    H136154   2.510   2.334   8.193  0.4257 -0.7997 -1.2549
 4865TIP3    H236155   2.543   2.422   8.074  1.1300  0.7379  0.0245
 4866TIP3   OH236156   3.908   1.408   0.733 -0.1629  0.0901  0.1227
 4866TIP3    H136157   3.877   1.349   0.664  1.8778 -0.0475 -0.7388
 4866TIP3    H236158   3.886   1.362   0.814 -1.4421 -0.3501 -0.4405
 4867TIP3   OH236159   0.047   5.173   1.721 -0.2338  0.2906 -0.1127
 4867TIP3    H136160  -0.030   5.116   1.716  0.4534 -0.6708 -0.0507
 4867TIP3    H236161   0.067   5.177   1.815  0.0079  0.2278 -0.1602
 4868TIP3   OH236162   6.676   0.016   1.941  0.0913 -0.2485 -0.2251
 4868TIP3    H136163   6.584   0.038   1.955 -0.2148 -1.0045 -0.9970
 4868TIP3    H236164   6.723   0.066   2.008 -0.9736 -0.7329  0.9100
 4869TIP3   OH236165   0.372   6.300   7.233 -0.1760  0.2534  0.0005
 4869TIP3    H136166   0.375   6.327   7.141 -0.9209  3.5810  0.8040
 4869TIP3    H236167   0.286   6.330   7.264  0.4661  0.1715  2.0150
 4870TIP3   OH236168   4.472   0.788   8.579 -0.5237 -0.3976  0.2475
 4870TIP3    H136169   4.400   0.740   8.620  0.4989 -1.0450  1.3179
 4870TIP3    H236170   4.546   0.728   8.582 -0.2068 -0.2210 -1.9573
 4871TIP3   OH236171   1.634   3.185   7.113 -0.6999 -0.2824  0.1336
 4871TIP3    H136172   1.668   3.242   7.182 -0.0775  0.2990 -0.6251
 4871TIP3    H236173   1.551   3.152   7.146 -2.3081  2.9297 -0.3105
 4872TIP3   OH236174   1.872   1.314   7.600 -0.4699 -0.4687 -0.1181
 4872TIP3    H136175   1.913   1.333   7.685 -2.2133 -0.6989  0.8275
 4872TIP3    H236176   1.946   1.292   7.542  0.9173  1.3712  0.8500
 4873TIP3   OH236177   0.130   5.056   2.869 -0.2443 -0.0101  0.6717
 4873TIP3    H136178   0.151   4.993   2.938 -0.5015  0.3509  1.0798
 4873TIP3    H236179   0.216   5.091   2.842  0.0678 -1.6513 -0.6552
 4874TIP3   OH236180   6.792   0.514   7.846  0.5980 -0.1553  0.3263
 4874TIP3    H136181   6.717   0.571   7.830 -0.7487 -1.3409  2.0423
 4874TIP3    H236182   6.857   0.571   7.888  0.7213  0.8848 -1.1895
 4875TIP3   OH236183   1.973   0.851   0.685 -0.6932  0.2649  0.4922
 4875TIP3    H136184   1.914   0.777   0.669 -1.2843  0.5219  1.3741
 4875TIP3    H236185   2.047   0.812   0.732 -1.3411  0.3175  1.6060
 4876TIP3   OH236186   1.746   2.776   8.473 -0.2103  0.1661  0.1224
 4876TIP3    H136187   1.740   2.710   8.404 -1.1134  0.7292 -0.3561
 4876TIP3    H236188   1.809   2.740   8.535  1.3369  0.0503 -1.4340
 4877TIP3   OH236189   2.664   3.650   7.393  0.9219 -0.3897 -0.1986
 4877TIP3    H136190   2.687   3.742   7.378  2.1248 -0.5666  0.4170
 4877TIP3    H236191   2.606   3.628   7.320  1.7556  0.4651 -1.1582
 4878TIP3   OH236192   6.693   5.970   7.305  0.2224 -0.2981 -0.4807
 4878TIP3    H136193   6.785   5.986   7.284  0.3297  3.0635  1.7742
 4878TIP3    H236194   6.646   5.996   7.226  1.1157  1.2383 -0.5557
 4879TIP3   OH236195   2.217   3.911   1.122  0.0924  0.0067 -0.1060
 4879TIP3    H136196   2.194   3.939   1.210  0.8815  1.1630 -0.2468
 4879TIP3    H236197   2.268   3.983   1.086 -0.9927 -0.0363 -1.8472
 4880TIP3   OH236198   6.262   3.140   1.331  0.5177 -0.0229  0.1064
 4880TIP3    H136199   6.231   3.147   1.421 -0.4345 -0.3644 -0.1858
 4880TIP3    H236200   6.345   3.092   1.338  0.0181 -0.8254  0.7240
 4881TIP3   OH236201   4.363   2.465   8.362 -0.1089 -0.3058  0.1787
 4881TIP3    H136202   4.331   2.442   8.450  0.5668  0.1799  0.5620
 4881TIP3    H236203   4.344   2.558   8.353  0.3035 -0.2309  0.0285
 4882TIP3   OH236204   6.261   2.868   7.755  1.2602  0.1520 -0.0484
 4882TIP3    H136205   6.259   2.831   7.667 -3.6171  2.1576 -1.1455
 4882TIP3    H236206   6.303   2.953   7.744  1.1178  0.1847 -0.3747
 4883TIP3   OH236207   4.393   6.770   7.356 -0.2957 -0.3964  0.1590
 4883TIP3    H136208   4.363   6.854   7.390  0.6322 -0.7749  2.0790
 4883TIP3    H236209   4.465   6.746   7.414 -0.5916 -2.5576 -0.2959
 4884TIP3   OH236210   4.299   0.946   2.314 -0.5704  0.3203 -0.0969
 4884TIP3    H136211   4.320   0.905   2.230  1.3639  0.2342  0.3939
 4884TIP3    H236212   4.376   0.998   2.336 -2.0224  2.3701  0.4564
 4885TIP3   OH236213   5.743   3.998   6.861 -0.4861  0.4090  0.3545
 4885TIP3    H136214   5.805   3.948   6.808  0.4459  1.1766  0.6943
 4885TIP3    H236215   5.793   4.074   6.892 -1.1854  0.2990  1.8204
 4886TIP3   OH236216   1.351   1.607   7.339  0.0730  0.2065  0.0815
 4886TIP3    H136217   1.275   1.660   7.319  1.1210  1.4880 -0.6177
 4886TIP3    H236218   1.361   1.548   7.264  1.0741  1.5971 -0.9175
 4887TIP3   OH236219   1.394   3.959   0.949  0.1513  0.1326  0.1501
 4887TIP3    H136220   1.432   3.993   0.868 -1.4083 -0.8559 -1.0570
 4887TIP3    H236221   1.446   3.881   0.970  1.0949  0.8704  0.5968
 4888TIP3   OH236222   4.765   1.782   8.412 -0.3021  0.5663  0.5646
 4888TIP3    H136223   4.695   1.764   8.349  1.4107  0.5667 -1.4475
 4888TIP3    H236224   4.768   1.878   8.417 -0.8150  0.5623  1.1419
 4889TIP3   OH236225   6.512   0.342   6.846 -0.5609 -0.8959 -0.1371
 4889TIP3    H136226   6.469   0.284   6.782 -0.0949  0.4615 -1.7604
 4889TIP3    H236227   6.509   0.293   6.928 -0.3530 -3.1503 -1.3758
 4890TIP3   OH236228   2.020   0.179   7.067  0.0401  0.2681  0.4830
 4890TIP3    H136229   1.937   0.134   7.080  1.1587 -2.1718 -0.2278
 4890TIP3    H236230   2.009   0.226   6.984  0.5166 -3.2790 -1.8237
 4891TIP3   OH236231   5.274   4.369   1.223  0.1202  0.4114  0.4028
 4891TIP3    H136232   5.278   4.458   1.259  0.7427  0.6294 -0.1833
 4891TIP3    H236233   5.187   4.364   1.183 -0.0614  0.6237  0.7583
 4892TIP3   OH236234   0.795   1.287   0.884 -0.0311 -0.0489 -0.1347
 4892TIP3    H136235   0.764   1.198   0.872 -0.8667 -0.0616  1.7376
 4892TIP3    H236236   0.719   1.334   0.920  0.8209  1.0494  0.2956
 4893TIP3   OH236237   1.399   2.539   7.002 -0.0188 -0.6730  0.7033
 4893TIP3    H136238   1.351   2.621   7.016  0.8531 -0.0830  0.2769
 4893TIP3    H236239   1.336   2.483   6.956 -0.5439 -0.1611  0.7749
 4894TIP3   OH236240   6.480   4.098   7.394  0.0587  0.9695  0.3089
 4894TIP3    H136241   6.526   4.175   7.427  0.8175  0.5111  0.3462
 4894TIP3    H236242   6.501   4.095   7.300 -1.2058  1.6535 -0.0133
 4895TIP3   OH236243   3.284   6.328   6.833  0.1086  0.0024 -0.5447
 4895TIP3    H136244   3.307   6.350   6.923 -0.1585 -0.7196 -0.2901
 4895TIP3    H236245   3.250   6.239   6.838  2.6586 -1.1547 -1.7567
 4896TIP3   OH236246   5.627   2.953   1.664  0.1889  0.1753 -0.1025
 4896TIP3    H136247   5.598   3.039   1.634 -0.9390 -0.4477 -0.8855
 4896TIP3    H236248   5.584   2.941   1.749 -0.3866  0.0095 -0.4168
 4897TIP3   OH236249   0.470   3.989   0.574  0.3973 -0.8881 -0.0071
 4897TIP3    H136250   0.445   4.064   0.520  0.4812 -1.1017 -0.3456
 4897TIP3    H236251   0.414   3.917   0.544  0.1142 -0.8922  0.5133
 4898TIP3   OH236252   1.869   3.108   8.625 -0.2789 -0.9781  0.6576
 4898TIP3    H136253   1.935   3.103   8.694  0.4024 -2.4656 -0.0540
 4898TIP3    H236254   1.861   3.201   8.606  1.2064 -0.7160  1.1634
 4899TIP3   OH236255   2.945   6.123   1.322 -0.3553  0.1741 -0.0047
 4899TIP3    H136256   2.910   6.035   1.314 -0.9824  0.4630 -0.4849
 4899TIP3    H236257   2.886   6.167   1.384 -0.2291  0.3501 -0.0086
 4900TIP3   OH236258   4.736   1.233   7.113  0.1038 -0.0243 -0.4771
 4900TIP3    H136259   4.817   1.255   7.160 -0.9844 -1.3357  2.2090
 4900TIP3    H236260   4.740   1.139   7.101 -0.1703  0.1513 -2.1160
 4901TIP3   OH236261   3.404   3.035   2.043  0.4818 -0.5073  0.9227
 4901TIP3    H136262   3.316   3.001   2.061  1.0813 -1.7986  1.6130
 4901TIP3    H236263   3.462   2.980   2.096  1.6088  1.1631  1.5126
 4902TIP3   OH236264   6.799   5.951   0.519  0.2155  0.3146  0.0139
 4902TIP3    H136265   6.848   6.023   0.558 -0.3806  0.0082  1.3653
 4902TIP3    H236266   6.842   5.936   0.435  0.0775  2.5473 -0.5244
 4903TIP3   OH236267   3.693   5.433   1.541 -0.0058  0.6612  0.1377
 4903TIP3    H136268   3.713   5.418   1.449  0.0484  0.6948  0.1441
 4903TIP3    H236269   3.772   5.406   1.588  1.0434  3.2096 -0.0099
 4904TIP3   OH236270   2.107   6.866   1.592  0.1449  0.0833  0.6150
 4904TIP3    H136271   2.066   6.947   1.560 -0.6501  0.2890  2.0589
 4904TIP3    H236272   2.053   6.796   1.556 -0.9563  0.3202  1.7214
 4905TIP3   OH236273   2.902   3.082   1.843 -0.3809 -0.3629 -0.1816
 4905TIP3    H136274   2.824   3.105   1.793 -0.5043 -1.4384 -0.5043
 4905TIP3    H236275   2.887   2.993   1.872  0.1020 -0.0794  1.0037
 4906TIP3   OH236276   1.888   3.018   8.011 -0.1924 -0.4691  0.5141
 4906TIP3    H136277   1.853   2.979   7.931  0.8992 -0.5867  0.0763
 4906TIP3    H236278   1.842   3.102   8.020 -0.2966 -0.4448 -0.2528
 4907TIP3   OH236279   2.591   0.462   1.701 -0.3739 -0.2649  0.5708
 4907TIP3    H136280   2.678   0.503   1.708  0.9627 -2.0687 -2.8960
 4907TIP3    H236281   2.595   0.388   1.762  0.5039 -0.2884  0.5066
 4908TIP3   OH236282   2.755   0.939   7.948  0.2904  0.7784  0.0005
 4908TIP3    H136283   2.760   0.994   7.869  1.7728  2.3778  1.1310
 4908TIP3    H236284   2.700   0.990   8.008  1.8120  1.1475  1.1227
 4909TIP3   OH236285   3.443   6.656   7.842 -0.5254 -0.1365  0.2814
 4909TIP3    H136286   3.437   6.645   7.937 -1.3133 -1.3490  0.1186
 4909TIP3    H236287   3.471   6.746   7.830  3.5714 -1.0100  1.7325
 4910TIP3   OH236288   6.045   6.355   0.382 -0.0239 -0.5570  0.5887
 4910TIP3    H136289   6.038   6.271   0.336 -0.3172 -1.3033  1.9393
 4910TIP3    H236290   6.103   6.408   0.327  0.8468 -1.9363  0.1275
 4911TIP3   OH236291   4.331   1.446   0.863  0.0210  0.3383 -0.9196
 4911TIP3    H136292   4.412   1.488   0.835  0.9737 -0.8296 -0.0124
 4911TIP3    H236293   4.329   1.362   0.817 -0.3397  0.0712 -0.4286
 4912TIP3   OH236294   2.115   2.589   1.048  0.4019  0.3496 -0.4185
 4912TIP3    H136295   2.099   2.502   1.010  0.5364  0.9666 -1.9806
 4912TIP3    H236296   2.034   2.638   1.030  0.8155  0.9324 -0.7161
 4913TIP3   OH236297   4.431   5.141   1.363  0.3645  0.4420 -0.1228
 4913TIP3    H136298   4.386   5.123   1.280 -0.4845  1.9276 -0.0301
 4913TIP3    H236299   4.521   5.161   1.337  0.6812 -1.2709 -0.4443
 4914TIP3   OH236300   3.123   4.081   6.683 -0.0964 -0.0621  0.4066
 4914TIP3    H136301   3.063   4.020   6.641  0.0857 -1.6741  2.3494
 4914TIP3    H236302   3.201   4.029   6.704  0.3043  0.9548  1.5825
 4915TIP3   OH236303   1.404   1.498   7.103  0.4950  0.0606 -0.0154
 4915TIP3    H136304   1.359   1.501   7.018  0.7708  0.6247 -0.1474
 4915TIP3    H236305   1.491   1.532   7.084  0.7443 -0.3664  0.3804
 4916TIP3   OH236306   0.507   4.900   8.422  0.0670 -0.3353 -0.3117
 4916TIP3    H136307   0.414   4.898   8.446  0.3496 -2.9010  0.8991
 4916TIP3    H236308   0.513   4.841   8.347  0.7823 -0.6609 -0.0094
 4917TIP3   OH236309   5.516   2.763   8.003  0.0719 -0.1196  0.4107
 4917TIP3    H136310   5.517   2.837   8.064  0.9359 -1.7006  2.4338
 4917TIP3    H236311   5.520   2.804   7.916  2.4118  2.2108  1.4552
 4918TIP3   OH236312   2.283   4.530   1.272 -0.7362 -0.3803 -0.3551
 4918TIP3    H136313   2.191   4.539   1.297 -0.8526  0.6005 -1.0730
 4918TIP3    H236314   2.298   4.436   1.267 -2.2080 -0.5770 -1.9779
 4919TIP3   OH236315   0.564   0.500   0.848 -0.1794  0.6205  0.0397
 4919TIP3    H136316   0.468   0.495   0.845 -0.1835 -2.7979  1.6010
 4919TIP3    H236317   0.593   0.452   0.771  0.1420 -2.1514  1.7660
 4920TIP3   OH236318   1.378   5.129   0.103  0.7114  0.0072  0.0844
 4920TIP3    H136319   1.404   5.065   0.169  0.9152 -0.4981 -0.4743
 4920TIP3    H236320   1.452   5.190   0.099  1.9116 -1.4619 -1.5449
 4921TIP3   OH236321   2.032   2.325   1.346 -0.1523 -0.0726 -0.5920
 4921TIP3    H136322   2.022   2.416   1.375  1.0531 -0.1056  0.0039
 4921TIP3    H236323   2.125   2.318   1.323 -0.0651 -1.3470  0.0720
 4922TIP3   OH236324   3.268   4.938   8.164  0.2750 -0.1762 -0.1641
 4922TIP3    H136325   3.349   4.888   8.157 -0.1490 -1.1896  1.5090
 4922TIP3    H236326   3.231   4.938   8.076  1.6246 -0.4682 -0.7577
 4923TIP3   OH236327   2.853   2.420   1.203  0.2813 -0.0988  0.2984
 4923TIP3    H136328   2.850   2.447   1.295  0.9666 -1.0950  0.6250
 4923TIP3    H236329   2.913   2.482   1.162  1.6457 -0.9142  0.9879
 4924TIP3   OH236330   1.467   0.230   0.537 -0.0217  0.0773  0.4803
 4924TIP3    H136331   1.468   0.134   0.532  1.8774  0.0552  0.6470
 4924TIP3    H236332   1.374   0.253   0.529 -0.5632 -1.7838  0.8583
 4925TIP3   OH236333   2.147   2.605   6.247 -0.5417 -0.0417 -0.0647
 4925TIP3    H136334   2.112   2.528   6.292  0.6802 -0.0477  0.9277
 4925TIP3    H236335   2.237   2.612   6.278  0.2345  0.2055 -2.2110
 4926TIP3   OH236336   0.586   6.233   8.321 -0.0437 -0.7825 -0.0018
 4926TIP3    H136337   0.561   6.140   8.320 -0.8054 -0.5995 -1.4907
 4926TIP3    H236338   0.680   6.233   8.302 -0.0597 -1.2486 -0.0984
 4927TIP3   OH236339   3.574   2.023   0.181  0.4353  0.3744  0.1982
 4927TIP3    H136340   3.608   2.072   0.256  0.9186 -0.4297  0.5040
 4927TIP3    H236341   3.646   2.022   0.118  0.2575  0.4665 -0.0102
 4928TIP3   OH236342   3.831   5.446   7.761  0.0613 -0.6592 -0.3512
 4928TIP3    H136343   3.921   5.414   7.755 -0.0369 -0.7569 -1.7451
 4928TIP3    H236344   3.782   5.390   7.700 -0.7325  0.0630 -0.3936
 4929TIP3   OH236345   5.247   1.782   0.388  0.5265  0.6775  0.8446
 4929TIP3    H136346   5.160   1.814   0.369 -0.0216 -1.0458  0.2373
 4929TIP3    H236347   5.291   1.778   0.303  0.6470  0.0730  0.9288
 4930TIP3   OH236348   4.811   6.259   2.227 -0.2233  0.0505 -0.2753
 4930TIP3    H136349   4.782   6.170   2.209 -1.9591  0.4182  0.5470
 4930TIP3    H236350   4.897   6.248   2.269  0.4925 -1.1056 -1.9116
 4931TIP3   OH236351   0.321   0.403   1.956  0.1460 -0.2433 -0.1025
 4931TIP3    H136352   0.373   0.482   1.945 -0.4437  0.6441  2.7504
 4931TIP3    H236353   0.381   0.339   1.993 -0.3314  0.2736  1.6516
 4932TIP3   OH236354   5.774   5.469   8.265  0.3966 -0.1278 -0.3293
 4932TIP3    H136355   5.740   5.381   8.255 -0.2212 -0.1562  1.6409
 4932TIP3    H236356   5.828   5.466   8.344  0.8500  1.1169 -0.5609
 4933TIP3   OH236357   4.624   2.050   8.397  0.2753  0.1488  0.1890
 4933TIP3    H136358   4.541   2.016   8.432 -0.1370  1.4752  0.5753
 4933TIP3    H236359   4.645   2.124   8.454  1.0537  0.6356 -0.7002
 4934TIP3   OH236360   0.470   0.293   8.484 -0.0079 -0.4027 -0.4309
 4934TIP3    H136361   0.540   0.285   8.420  2.5422 -0.5960  2.1978
 4934TIP3    H236362   0.450   0.387   8.486  3.6434  0.5267  2.0174
 4935TIP3   OH236363   3.962   2.086   1.952  0.4076 -0.3449 -0.0581
 4935TIP3    H136364   3.968   2.042   2.037  0.3360 -0.4545 -0.1091
 4935TIP3    H236365   4.043   2.136   1.945  1.3825 -1.9249 -0.7985
 4936TIP3   OH236366   0.549   2.480   1.033  0.1515  0.2719 -0.0616
 4936TIP3    H136367   0.594   2.474   0.949  2.3727 -0.1597  1.0861
 4936TIP3    H236368   0.557   2.392   1.071 -1.8285  0.1336  0.1652
 4937TIP3   OH236369   3.017   4.024   2.767  0.1660 -0.1301 -0.2203
 4937TIP3    H136370   3.110   4.007   2.780 -0.1135 -1.7936 -0.1465
 4937TIP3    H236371   3.014   4.102   2.712  1.5964  0.0161 -0.1212
 4938TIP3   OH236372   5.152   0.322   1.064 -0.5538 -0.6611 -0.5734
 4938TIP3    H136373   5.112   0.297   1.147 -0.9537  0.2255 -0.4868
 4938TIP3    H236374   5.242   0.343   1.086 -0.8734  0.3798 -0.2008
 4939TIP3   OH236375   1.694   1.985   1.262 -0.0339 -0.4631  0.2325
 4939TIP3    H136376   1.610   1.959   1.225  0.0531 -0.2528 -0.1162
 4939TIP3    H236377   1.675   2.009   1.352 -0.3644 -0.3229  0.1244
 4940TIP3   OH236378   2.926   4.451   8.536  0.6164 -0.0611  0.4059
 4940TIP3    H136379   2.950   4.390   8.606  0.2777 -0.6049  0.0654
 4940TIP3    H236380   2.961   4.535   8.564  1.1707 -0.4280  0.8524
 4941TIP3   OH236381   5.040   6.796   7.465  0.3605 -0.1007 -0.0385
 4941TIP3    H136382   4.948   6.768   7.463  0.2773  0.1802 -0.7494
 4941TIP3    H236383   5.035   6.892   7.464  0.6505 -0.0490  1.5081
 4942TIP3   OH236384   0.175   4.505   1.337 -0.2291 -0.2850  1.1352
 4942TIP3    H136385   0.174   4.527   1.244 -0.3082  3.5818  1.8865
 4942TIP3    H236386   0.252   4.550   1.371 -1.7696  0.8617  3.3687
 4943TIP3   OH236387   2.019   4.903   8.495  0.3896  0.2774 -0.3986
 4943TIP3    H136388   1.933   4.946   8.494  0.1846 -0.1278 -1.7111
 4943TIP3    H236389   2.054   4.922   8.582 -1.7000 -0.8497  0.7611
 4944TIP3   OH236390   2.999   2.374   0.507 -0.0462  0.1226  0.4539
 4944TIP3    H136391   3.056   2.298   0.520 -1.8805 -0.9908  2.7249
 4944TIP3    H236392   3.002   2.390   0.413  4.2729  0.4527  0.4554
 4945TIP3   OH236393   3.365   1.526   0.526 -0.6418 -0.1647  0.8579
 4945TIP3    H136394   3.386   1.592   0.591 -2.0987  0.6033  0.5625
 4945TIP3    H236395   3.395   1.444   0.566 -0.7868  0.3813  2.1436
 4946TIP3   OH236396   0.265   6.729   1.832  0.1741  0.1101  0.0286
 4946TIP3    H136397   0.221   6.814   1.831 -1.1411 -0.4931  1.9625
 4946TIP3    H236398   0.198   6.666   1.809  0.5842 -0.6179  0.7820
 4947TIP3   OH236399   4.207   4.318   2.714  0.3688 -0.2621  0.4580
 4947TIP3    H136400   4.262   4.377   2.664  0.6645  1.5283  2.7178
 4947TIP3    H236401   4.123   4.363   2.720 -0.2345 -1.3042  0.0330
 4948TIP3   OH236402   2.701   6.881   0.763  0.5312 -0.1006  0.1312
 4948TIP3    H136403   2.742   6.920   0.686 -0.3957 -1.4405 -1.0926
 4948TIP3    H236404   2.673   6.794   0.734  1.2530 -1.1471  2.3397
 4949TIP3   OH236405   4.169   6.402   0.513  0.3751 -0.3841 -0.1605
 4949TIP3    H136406   4.123   6.323   0.543  1.9484 -2.0731 -1.8782
 4949TIP3    H236407   4.253   6.398   0.559  0.0813  0.9092  0.5253
 4950TIP3   OH236408   0.991   5.802   1.441  0.1459 -0.1237 -0.0346
 4950TIP3    H136409   0.920   5.741   1.420  0.7455 -0.7356 -0.3198
 4950TIP3    H236410   1.032   5.766   1.519 -0.3315  0.6483  0.5829
 4951TIP3   OH236411   5.891   5.527   0.406  0.1054  0.9078  0.1110
 4951TIP3    H136412   5.937   5.606   0.434  0.6350  0.8286 -0.5055
 4951TIP3    H236413   5.953   5.456   0.420  0.4869  0.8962 -1.4514
 4952TIP3   OH236414   1.630   1.265   7.675  0.0110 -0.1520  0.4833
 4952TIP3    H136415   1.589   1.196   7.623 -0.8656  2.0521 -1.9624
 4952TIP3    H236416   1.720   1.270   7.642  0.0738 -0.1131  0.6578
 4953TIP3   OH236417   2.240   3.782   7.977 -0.2691  0.4774 -0.2814
 4953TIP3    H136418   2.202   3.868   7.991 -0.2321  0.2420  1.4373
 4953TIP3    H236419   2.299   3.793   7.902  0.4400  2.1722  0.4871
 4954TIP3   OH236420   5.414   0.115   8.165  0.0272  0.0605  0.4393
 4954TIP3    H136421   5.359   0.108   8.243  0.1582  0.1986  0.5448
 4954TIP3    H236422   5.388   0.197   8.124  0.1383  0.1144  0.4766
 4955TIP3   OH236423   3.047   3.464   7.869  0.3642  0.4128  0.1939
 4955TIP3    H136424   3.070   3.545   7.823 -0.3098 -0.3543 -1.5547
 4955TIP3    H236425   3.012   3.494   7.953  0.3288  1.9313 -0.3372
 4956TIP3   OH236426   6.489   6.462   8.349 -0.2091  0.1052 -0.2307
 4956TIP3    H136427   6.443   6.382   8.377  0.8692 -0.4283  0.0735
 4956TIP3    H236428   6.449   6.483   8.264 -1.5385  0.1152  0.3606
 4957TIP3   OH236429   0.752   3.720   1.273  0.9227 -0.0063 -0.0749
 4957TIP3    H136430   0.677   3.662   1.277  0.9733 -0.1281 -0.8026
 4957TIP3    H236431   0.804   3.697   1.351 -0.4407  1.0088  1.1934
 4958TIP3   OH236432   1.202   4.907   6.584  0.0577  0.3007 -0.2711
 4958TIP3    H136433   1.276   4.903   6.524  0.0153  2.3575 -0.5395
 4958TIP3    H236434   1.241   4.899   6.672  0.2485 -1.4371 -0.4734
 4959TIP3   OH236435   5.860   4.426   0.155 -0.0182  0.4900 -0.4326
 4959TIP3    H136436   5.800   4.462   0.220  0.4026  1.5649 -0.6268
 4959TIP3    H236437   5.947   4.453   0.185  0.2810 -0.0248 -0.8084
 4960TIP3   OH236438   6.598   2.000   6.992 -0.1063  0.1845  0.2873
 4960TIP3    H136439   6.639   1.944   7.058  0.1240  0.3278  0.2677
 4960TIP3    H236440   6.624   1.959   6.908  2.5423  1.9194  0.1265
 4961TIP3   OH236441   6.856   2.920   1.669 -0.0640 -0.7743 -0.8211
 4961TIP3    H136442   6.869   2.929   1.764  1.5460 -1.0494 -0.9926
 4961TIP3    H236443   6.769   2.882   1.661 -1.1951  1.3149  0.4499
 4962TIP3   OH236444   5.654   1.573   7.650 -0.6458 -0.0493  0.1838
 4962TIP3    H136445   5.625   1.598   7.562  0.4879 -0.1600 -0.2467
 4962TIP3    H236446   5.689   1.653   7.688 -0.4863 -0.1540  0.2605
 4963TIP3   OH236447   5.418   6.778   0.957  0.1973 -0.0951  0.9560
 4963TIP3    H136448   5.386   6.811   0.873  1.5425 -0.9325  0.0835
 4963TIP3    H236449   5.369   6.828   1.023 -2.7048 -1.1431 -0.2617
 4964TIP3   OH236450   3.337   4.143   1.160  0.4452  0.2987 -0.3542
 4964TIP3    H136451   3.260   4.169   1.109  1.0582  0.4360 -1.2427
 4964TIP3    H236452   3.410   4.188   1.117  1.0554 -0.0160  0.3296
 4965TIP3   OH236453   5.685   5.125   7.848  0.8588  0.3221  0.8195
 4965TIP3    H136454   5.619   5.122   7.779  0.2485 -0.5016  1.4153
 4965TIP3    H236455   5.695   5.218   7.868  1.9345  0.7008 -1.1819
 4966TIP3   OH236456   6.137   1.507   1.800  0.2507  0.4817  0.3679
 4966TIP3    H136457   6.097   1.594   1.794  1.1002  0.8314 -0.4022
 4966TIP3    H236458   6.219   1.521   1.847  0.4356  0.1097  0.1596
 4967TIP3   OH236459   0.653   0.261   7.870 -0.0603  0.6376  0.2315
 4967TIP3    H136460   0.696   0.298   7.947 -0.9154  1.0712  0.5109
 4967TIP3    H236461   0.597   0.192   7.905  1.8253 -1.2820 -0.3230
 4968TIP3   OH236462   2.321   5.693   1.990 -0.5207  0.4145 -0.3059
 4968TIP3    H136463   2.372   5.707   1.910 -1.8714 -0.7926 -1.4211
 4968TIP3    H236464   2.386   5.665   2.055  0.2225 -1.6509 -1.8208
 4969TIP3   OH236465   3.983   0.717   6.724 -0.5891 -0.5049 -0.5426
 4969TIP3    H136466   3.998   0.623   6.714  1.1531 -0.2954 -0.1485
 4969TIP3    H236467   4.058   0.748   6.773 -1.8950  0.8610  0.6929
 4970TIP3   OH236468   4.177   3.202   1.402  0.1603  0.3738 -0.8138
 4970TIP3    H136469   4.100   3.208   1.459 -0.2224  0.7260 -1.3493
 4970TIP3    H236470   4.236   3.142   1.446  0.0149  0.9044  0.1194
 4971TIP3   OH236471   0.590   4.987   8.120 -0.0582 -0.5239  0.0513
 4971TIP3    H136472   0.547   5.031   8.046 -1.2950  0.6378  1.4093
 4971TIP3    H236473   0.539   4.907   8.133  0.1797 -0.7458 -0.3510
 4972TIP3   OH236474   1.328   5.907   7.257  0.0513 -0.0001  0.1741
 4972TIP3    H136475   1.269   5.914   7.182  0.4339  1.0339 -0.0435
 4972TIP3    H236476   1.357   5.996   7.274 -1.2270  0.0489  2.5642
 4973TIP3   OH236477   5.983   0.200   0.605  0.2350  0.3720  0.1593
 4973TIP3    H136478   5.946   0.266   0.663 -3.3219 -2.5298  1.5869
 4973TIP3    H236479   5.910   0.175   0.548  2.0897 -0.7785 -1.8710
 4974TIP3   OH236480   0.616   3.868   0.174  0.0376 -0.4500  0.0706
 4974TIP3    H136481   0.636   3.787   0.220  0.4572 -0.1834  0.3593
 4974TIP3    H236482   0.634   3.938   0.237  0.9744 -0.0574 -0.6049
 4975TIP3   OH236483   1.561   4.892   7.067  0.0367  0.0401 -0.4798
 4975TIP3    H136484   1.487   4.932   7.111 -1.7163 -2.4434 -0.9452
 4975TIP3    H236485   1.545   4.907   6.974  2.0131  2.4525 -0.5194
 4976TIP3   OH236486   2.189   5.464   0.338  0.1660 -0.3809  0.0220
 4976TIP3    H136487   2.186   5.429   0.249  3.7311  1.3409 -0.9346
 4976TIP3    H236488   2.145   5.549   0.332 -0.0369 -0.4836  0.0435
 4977TIP3   OH236489   0.657   4.091   2.372 -0.2848  0.1949  0.6239
 4977TIP3    H136490   0.607   4.033   2.315  0.0578 -0.3475  0.8660
 4977TIP3    H236491   0.629   4.180   2.347  1.1373  0.0828 -1.6392
 4978TIP3   OH236492   2.034   3.191   1.175 -0.2809  0.1706 -0.0749
 4978TIP3    H136493   2.122   3.202   1.210  0.4882  0.5185 -2.0147
 4978TIP3    H236494   2.033   3.102   1.140 -1.0424 -0.1824  0.8014
 4979TIP3   OH236495   3.081   0.761   1.682 -0.4897  0.5608 -0.1391
 4979TIP3    H136496   3.008   0.806   1.726 -0.5701  0.2525  0.0448
 4979TIP3    H236497   3.134   0.832   1.646 -1.3023  0.7709 -0.9537
 4980TIP3   OH236498   6.684   4.850   2.775 -0.3228  0.2788  0.6378
 4980TIP3    H136499   6.758   4.792   2.757 -1.3384 -0.4556 -1.5391
 4980TIP3    H236500   6.709   4.934   2.736  0.1396  0.6015  1.6140
 4981TIP3   OH236501   5.524   1.457   7.378  0.1304  0.6985  0.2028
 4981TIP3    H136502   5.605   1.506   7.365  0.4923 -0.0010 -0.2265
 4981TIP3    H236503   5.472   1.512   7.436  0.5715  1.5413 -0.1815
 4982TIP3   OH236504   4.154   0.830   8.070 -0.2939 -0.2931  0.2378
 4982TIP3    H136505   4.227   0.769   8.062  0.9760  0.7174  2.8788
 4982TIP3    H236506   4.148   0.873   7.985  3.4631  0.9108  0.4117
 4983TIP3   OH236507   3.907   5.144   7.282  0.3949 -0.1025 -0.2135
 4983TIP3    H136508   3.883   5.236   7.298 -1.6073 -0.6164  0.0392
 4983TIP3    H236509   3.888   5.131   7.189  2.0697  0.0991 -0.6079
 4984TIP3   OH236510   1.334   1.810   7.073 -0.1737 -0.0926 -0.2557
 4984TIP3    H136511   1.253   1.778   7.112 -0.5971  0.3285 -0.7706
 4984TIP3    H236512   1.362   1.882   7.130  0.2270 -0.6976  0.3216
 4985TIP3   OH236513   4.226   2.368   8.569 -0.1995  0.3116  0.0970
 4985TIP3    H136514   4.132   2.387   8.558 -0.2163  0.6564  0.7381
 4985TIP3    H236515   4.229   2.277   8.597 -0.4315  0.6002  1.1126
 4986TIP3   OH236516   2.773   3.190   1.527 -0.3416 -1.0491  0.2554
 4986TIP3    H136517   2.769   3.224   1.437  0.6434  1.6089  1.1150
 4986TIP3    H236518   2.857   3.144   1.531  0.3564  0.1552  0.1680
 4987TIP3   OH236519   1.082   3.382   0.629 -0.1636 -0.3170  0.1571
 4987TIP3    H136520   1.050   3.295   0.603  1.6908 -1.3086  0.9741
 4987TIP3    H236521   1.072   3.385   0.724  1.8116 -0.5797  0.4185
 4988TIP3   OH236522   2.412   5.715   7.293 -0.5475  0.0539 -0.1469
 4988TIP3    H136523   2.354   5.701   7.217 -0.7895  0.1810  0.0128
 4988TIP3    H236524   2.499   5.692   7.261 -0.5845  0.5205 -0.5954
 4989TIP3   OH236525   4.464   6.131   0.534  0.5869 -0.0273  0.2884
 4989TIP3    H136526   4.491   6.135   0.626 -1.1671  2.6831  0.7953
 4989TIP3    H236527   4.545   6.137   0.485  1.5337 -1.1268  1.6109
 4990TIP3   OH236528   4.224   5.341   2.546 -0.9036  0.0421  0.2822
 4990TIP3    H136529   4.302   5.390   2.573 -0.5504  0.0691 -0.7375
 4990TIP3    H236530   4.190   5.304   2.628 -1.3411  2.1695  1.1311
 4991TIP3   OH236531   3.594   4.849   8.570 -0.1784 -0.3002  0.0750
 4991TIP3    H136532   3.552   4.933   8.591 -1.8580 -0.5486 -1.9384
 4991TIP3    H236533   3.648   4.868   8.494 -0.3723 -0.9876 -0.2395
 4992TIP3   OH236534   6.777   3.247   0.148  0.2767 -0.2094 -0.1837
 4992TIP3    H136535   6.719   3.237   0.073  0.3565 -1.0612 -0.1393
 4992TIP3    H236536   6.835   3.171   0.145  0.9542  0.2727  0.1592
 4993TIP3   OH236537   0.841   5.531   2.320 -0.1292  0.5364 -0.6306
 4993TIP3    H136538   0.930   5.508   2.348  0.2282  0.6540 -1.6362
 4993TIP3    H236539   0.789   5.453   2.339  0.4240  0.0455 -1.1067
 4994TIP3   OH236540   5.775   1.920   8.281  0.2657  0.8390  0.7738
 4994TIP3    H136541   5.728   1.857   8.227 -1.8600 -0.4477  3.8069
 4994TIP3    H236542   5.840   1.869   8.328  2.4106  2.0134 -0.7364
 4995TIP3   OH236543   6.602   5.870   0.273 -0.1732  0.1951 -0.3018
 4995TIP3    H136544   6.561   5.784   0.272 -0.2487  0.1891  1.1975
 4995TIP3    H236545   6.694   5.854   0.252  0.2482 -0.5292  1.9189
 4996TIP3   OH236546   5.147   2.494   1.467  0.2899  0.1483 -0.5367
 4996TIP3    H136547   5.097   2.487   1.386 -0.1796  0.9982 -0.3331
 4996TIP3    H236548   5.125   2.581   1.501 -1.0413 -0.9272  1.5185
 4997TIP3   OH236549   0.102   6.492   7.996 -0.2128 -0.3303  0.4067
 4997TIP3    H136550   0.151   6.543   8.061 -1.2000  0.4206  0.6021
 4997TIP3    H236551   0.167   6.437   7.953  0.5698 -0.3316  1.5629
 4998TIP3   OH236552   1.958   2.617   7.851 -0.2620 -0.2825 -0.4920
 4998TIP3    H136553   2.045   2.651   7.832 -1.5577  2.5908 -1.8008
 4998TIP3    H236554   1.965   2.585   7.942  1.8704  0.7560 -0.2125
 4999TIP3   OH236555   3.802   6.562   7.040 -0.1964 -0.5713 -0.6515
 4999TIP3    H136556   3.879   6.541   7.093  0.8637  0.9856 -1.5073
 4999TIP3    H236557   3.836   6.616   6.969 -1.8947 -0.9289 -1.7915
 5000TIP3   OH236558   1.897   1.489   1.435 -0.0528 -0.4320 -0.2543
 5000TIP3    H136559   1.952   1.468   1.510  1.0770 -1.9352 -1.4373
 5000TIP3    H236560   1.954   1.539   1.376 -1.1297  1.3479  0.1446
 5001TIP3   OH236561   5.730   1.907   0.577  0.5592  0.3741  0.2847
 5001TIP3    H136562   5.822   1.882   0.579  0.6550  0.7499  0.6778
 5001TIP3    H236563   5.730   2.003   0.577  0.2179  0.4531 -2.3164
 5002TIP3   OH236564   3.822   3.779   1.672 -0.0197  0.2732 -0.4698
 5002TIP3    H136565   3.848   3.687   1.669  0.2994  0.3484 -0.1220
 5002TIP3    H236566   3.761   3.785   1.745  1.2156  0.6386  0.5615
 5003TIP3   OH236567   1.191   4.418   0.398  0.0051  0.8645  0.3085
 5003TIP3    H136568   1.201   4.480   0.326 -0.4945  2.3701  1.4891
 5003TIP3    H236569   1.104   4.437   0.434 -0.1767 -0.5609  0.6817
 5004TIP3   OH236570   0.442   3.210   8.460  0.7563 -0.1869 -0.1454
 5004TIP3    H136571   0.389   3.273   8.509  0.7031  0.6944 -1.2795
 5004TIP3    H236572   0.507   3.179   8.523 -0.9163 -1.1250  1.2242
 5005TIP3   OH236573   3.796   1.533   1.312  0.2372 -0.0681  0.2095
 5005TIP3    H136574   3.867   1.514   1.251 -0.9865  1.1322 -1.6968
 5005TIP3    H236575   3.716   1.520   1.261 -0.8570  0.5707  1.6848
 5006TIP3   OH236576   1.218   2.453   0.242 -0.0742 -0.1985 -0.0397
 5006TIP3    H136577   1.184   2.505   0.314  1.2433 -0.4616  0.8201
 5006TIP3    H236578   1.141   2.414   0.201 -0.8326 -0.1926  1.3376
 5007TIP3   OH236579   5.200   4.602   6.919 -0.1625  0.3314  0.0767
 5007TIP3    H136580   5.194   4.696   6.935 -1.4842  0.1883  0.5162
 5007TIP3    H236581   5.172   4.590   6.829  0.6736  0.4143 -0.2059
 5008TIP3   OH236582   5.794   2.025   0.952  0.5707  0.1953  0.4266
 5008TIP3    H136583   5.725   1.978   0.999 -0.8786 -0.7063 -2.4161
 5008TIP3    H236584   5.777   2.117   0.973 -2.4908  0.1566 -1.2474
 5009TIP3   OH236585   6.021   6.802   6.815  0.6857  0.0872  0.3738
 5009TIP3    H136586   6.102   6.823   6.768  1.0577 -0.4465  0.7719
 5009TIP3    H236587   6.039   6.719   6.859  0.1054  0.2332  0.9015
 5010TIP3   OH236588   2.230   4.950   1.273 -0.0339  0.0122  0.2341
 5010TIP3    H136589   2.305   5.008   1.285 -0.2098  0.0740  1.0557
 5010TIP3    H236590   2.154   5.009   1.272 -0.1976 -0.1784  0.8941
 5011TIP3   OH236591   3.168   5.605   1.726  0.0744 -0.3769  0.3356
 5011TIP3    H136592   3.153   5.552   1.647 -2.4772  0.4875  0.1555
 5011TIP3    H236593   3.213   5.683   1.694 -1.3544  0.1829 -0.4042
 5012TIP3   OH236594   0.547   1.091   0.273  0.1811 -0.4723  0.0543
 5012TIP3    H136595   0.545   1.111   0.366 -0.6629 -0.2161 -0.0094
 5012TIP3    H236596   0.619   1.029   0.263  0.5100 -0.2209  0.8157
 5013TIP3   OH236597   2.341   1.369   8.191  0.5149 -0.4012  0.6015
 5013TIP3    H136598   2.377   1.443   8.240  1.9942 -0.1943 -0.7257
 5013TIP3    H236599   2.278   1.329   8.251 -1.2868  2.6266  0.9503
 5014TIP3   OH236600   6.244   5.476   2.273  0.1147 -0.0808  0.6308
 5014TIP3    H136601   6.240   5.394   2.224 -0.4004 -0.0587  0.6363
 5014TIP3    H236602   6.238   5.450   2.365 -1.8149  0.0751  0.5773
 5015TIP3   OH236603   2.344   3.677   0.758 -0.1867  0.1195  0.0600
 5015TIP3    H136604   2.355   3.605   0.696  0.3103  1.4604 -1.4724
 5015TIP3    H236605   2.268   3.653   0.810 -1.4465 -0.4621 -1.9477
 5016TIP3   OH236606   5.001   6.765   1.030 -0.0249  0.2357 -0.5674
 5016TIP3    H136607   4.984   6.762   1.124 -0.3149 -0.2699 -0.6322
 5016TIP3    H236608   4.994   6.858   1.007  0.3772  0.4075 -0.0354
 5017TIP3   OH236609   0.967   3.886   6.679 -0.3339 -0.1339 -0.2661
 5017TIP3    H136610   0.949   3.879   6.585  0.8690 -0.1378 -0.5189
 5017TIP3    H236611   1.061   3.869   6.686 -0.4750 -0.4848  0.9845
 5018TIP3   OH236612   3.901   1.042   0.881  0.2901 -0.7781 -0.9375
 5018TIP3    H136613   3.927   0.980   0.813  1.9808 -0.5636 -0.5188
 5018TIP3    H236614   3.886   0.988   0.959  1.1432 -0.7331 -0.7391
 5019TIP3   OH236615   5.453   0.792   8.639  0.3034 -0.5951 -0.5701
 5019TIP3    H136616   5.395   0.743   8.697 -3.9727  1.3939 -2.6946
 5019TIP3    H236617   5.395   0.853   8.593  4.1042  1.3304 -3.3759
 5020TIP3   OH236618   6.812   4.459   7.737 -0.7396  0.3419  0.2354
 5020TIP3    H136619   6.773   4.394   7.796  0.5746 -0.1006  0.6394
 5020TIP3    H236620   6.868   4.409   7.678  3.0263  1.2555  2.6912
 5021TIP3   OH236621   3.418   6.111   7.417  0.1507 -0.3367 -0.5917
 5021TIP3    H136622   3.464   6.191   7.391 -0.5387 -0.1567 -1.3088
 5021TIP3    H236623   3.439   6.048   7.348  0.2106 -0.5991 -0.3366
 5022TIP3   OH236624   4.332   1.042   0.516 -0.5490 -0.3749  0.4830
 5022TIP3    H136625   4.359   1.002   0.599 -1.7875 -0.5053  0.8404
 5022TIP3    H236626   4.330   1.136   0.534  2.5074 -0.0429 -0.3985
 5023TIP3   OH236627   1.666   5.677   8.106  0.4551 -0.0828 -0.1446
 5023TIP3    H136628   1.664   5.772   8.104  0.7573 -0.0871 -0.9933
 5023TIP3    H236629   1.752   5.656   8.142 -0.0253 -0.0382  1.0549
 5024TIP3   OH236630   2.933   2.809   1.672  0.1224 -0.3586  0.2136
 5024TIP3    H136631   2.995   2.775   1.607  1.9687 -0.3372  1.8820
 5024TIP3    H236632   2.986   2.863   1.730 -1.6179  0.2599  1.3002
 5025TIP3   OH236633   4.964   0.014   2.170 -0.0180  0.3532 -0.1904
 5025TIP3    H136634   4.893  -0.050   2.164 -0.0896  0.4264 -0.1325
 5025TIP3    H236635   4.921   0.099   2.157  0.0431  0.4053 -0.0593
 5026TIP3   OH236636   0.744   4.408   1.112  0.0241 -0.0559 -0.9006
 5026TIP3    H136637   0.764   4.317   1.092  1.0570  0.1185 -0.7158
 5026TIP3    H236638   0.763   4.417   1.205 -1.5673 -0.0307 -0.5577
 5027TIP3   OH236639   1.936   1.392   8.239 -0.1691  0.0833 -0.0315
 5027TIP3    H136640   2.001   1.403   8.308  0.1380 -1.1962 -0.0887
 5027TIP3    H236641   1.889   1.475   8.237 -1.2376 -0.3604  2.7753
 5028TIP3   OH236642   4.970   5.877   0.114 -0.8439  0.6829 -0.2080
 5028TIP3    H136643   4.929   5.799   0.153 -1.3299  0.3958 -1.2758
 5028TIP3    H236644   5.037   5.902   0.178  0.4734 -1.5943 -0.5831
 5029TIP3   OH236645   0.739   0.831   0.664 -0.1290  0.3401  0.1019
 5029TIP3    H136646   0.791   0.762   0.623 -0.4474 -0.0327  0.3197
 5029TIP3    H236647   0.742   0.904   0.601  1.1565  0.5574  0.3727
 5030TIP3   OH236648   1.842   0.560   7.349  0.0596  0.5264 -0.2417
 5030TIP3    H136649   1.782   0.496   7.312  0.6860 -0.7507  0.8738
 5030TIP3    H236650   1.847   0.629   7.283 -1.0343 -0.3174 -1.2478
 5031TIP3   OH236651   6.771   3.741   0.125 -0.6087 -0.4228  0.1956
 5031TIP3    H136652   6.736   3.668   0.176 -0.2964 -0.3669  0.4926
 5031TIP3    H236653   6.778   3.706   0.036  0.9169 -1.2612  0.5990
 5032TIP3   OH236654   3.429   2.171   1.966 -0.4589  0.1127  0.1102
 5032TIP3    H136655   3.437   2.138   1.876  1.3770 -1.4038  0.7718
 5032TIP3    H236656   3.519   2.172   1.999 -1.0067  1.4297  1.6972
 5033TIP3   OH236657   1.152   5.152   1.590 -0.0274 -0.8741 -0.8271
 5033TIP3    H136658   1.228   5.093   1.585 -1.7428 -3.2367 -0.3931
 5033TIP3    H236659   1.094   5.112   1.654 -0.8593  1.8967  0.2781
 5034TIP3   OH236660   5.989   6.790   8.033  0.3349  0.1025  0.4268
 5034TIP3    H136661   6.018   6.855   7.969  1.4784 -0.3845  0.4182
 5034TIP3    H236662   5.927   6.735   7.986  0.6700  0.1474 -0.0743
 5035TIP3   OH236663   2.292   0.296   7.030 -0.2144 -0.3786  0.2360
 5035TIP3    H136664   2.332   0.239   7.096 -0.2963 -1.6652 -0.7654
 5035TIP3    H236665   2.199   0.274   7.032 -0.3130  0.0139  0.1089
 5036TIP3   OH236666   1.068   4.570   7.976 -0.0037  0.3360 -0.2215
 5036TIP3    H136667   0.998   4.511   7.948 -0.4188  0.0427  1.3129
 5036TIP3    H236668   1.085   4.625   7.900 -0.0931 -1.2830 -1.4778
 5037TIP3   OH236669   1.069   4.963   7.406 -0.3186 -0.8496  0.4012
 5037TIP3    H136670   1.129   4.915   7.349  0.1166 -2.3800  2.0454
 5037TIP3    H236671   0.994   4.904   7.417 -1.1995  0.1675  0.0243
 5038TIP3   OH236672   5.885   4.334   7.724  0.3767 -0.1410 -0.5162
 5038TIP3    H136673   5.977   4.307   7.725  0.6483  0.6380 -1.8896
 5038TIP3    H236674   5.836   4.252   7.728  0.9951 -0.5206  3.6280
 5039TIP3   OH236675   3.353   2.104   7.873 -0.8611  0.0667 -0.5718
 5039TIP3    H136676   3.279   2.053   7.907 -1.0999  0.6883 -0.1301
 5039TIP3    H236677   3.358   2.082   7.780 -0.9989 -0.7052 -0.3981
 5040TIP3   OH236678   1.114   4.997   2.040 -0.2681 -0.2794 -0.3485
 5040TIP3    H136679   1.151   4.987   2.127 -0.2672 -1.2086 -0.4475
 5040TIP3    H236680   1.181   5.044   1.990 -0.0506 -0.2167  0.0036
 5041TIP3   OH236681   4.410   5.915   8.530  0.4749  0.0179  0.3015
 5041TIP3    H136682   4.363   5.831   8.530 -1.3600  0.9711  0.9140
 5041TIP3    H236683   4.373   5.962   8.605  1.0295  1.6031 -0.3950
 5042TIP3   OH236684   5.251   5.756   0.548  0.1250  0.1407 -0.5754
 5042TIP3    H136685   5.276   5.684   0.490 -0.0087 -0.9286  0.6421
 5042TIP3    H236686   5.315   5.753   0.619 -1.1075 -0.1350  0.5689
 5043TIP3   OH236687   4.255   5.933   0.090  0.0142  0.2394  0.6323
 5043TIP3    H136688   4.210   6.017   0.086  0.0529  0.2062 -2.1309
 5043TIP3    H236689   4.187   5.871   0.118 -0.8231  0.7095 -0.3116
 5044TIP3   OH236690   3.252   6.581   7.064 -0.3540 -0.0892  0.5267
 5044TIP3    H136691   3.314   6.604   7.133  0.5777  0.4375 -0.4771
 5044TIP3    H236692   3.166   6.600   7.103  0.2110  1.3372  1.1166
 5045TIP3   OH236693   5.386   5.366   8.028 -0.3381 -0.0521 -0.6441
 5045TIP3    H136694   5.412   5.293   8.084  1.1104 -0.0851 -1.3142
 5045TIP3    H236695   5.355   5.324   7.948 -0.0050  0.0575 -0.8289
 5046TIP3   OH236696   0.114   1.691   8.466 -0.3017  0.5391  0.0037
 5046TIP3    H136697   0.045   1.626   8.452 -2.1056  2.5588 -0.9568
 5046TIP3    H236698   0.134   1.723   8.379  2.1029 -0.1536  0.2354
 5047TIP3   OH236699   2.503   3.024   7.468  0.1578  0.9834  0.4535
 5047TIP3    H136700   2.462   3.096   7.514 -0.6696  0.3209  0.7765
 5047TIP3    H236701   2.556   2.980   7.534  0.3155  1.0343  0.3618
 5048TIP3   OH236702   4.935   1.916   1.092 -0.1647  0.1961 -0.1558
 5048TIP3    H136703   4.869   1.932   1.159 -0.6210 -0.4758 -0.4314
 5048TIP3    H236704   4.931   1.822   1.075  2.3304 -0.2756  1.3094
 5049TIP3   OH236705   1.377   6.156   2.879 -0.4283 -0.5080  0.3900
 5049TIP3    H136706   1.416   6.112   2.955  1.0371  0.4538  0.2292
 5049TIP3    H236707   1.283   6.155   2.896 -0.0771  0.4750  2.6529
 5050TIP3   OH236708   3.810   0.476   8.636  0.0739 -0.3295 -0.0932
 5050TIP3    H136709   3.727   0.430   8.652 -0.1455  0.2276  0.4313
 5050TIP3    H236710   3.862   0.414   8.586 -0.1862 -1.1902  0.6608
 5051TIP3   OH236711   3.856   0.008   8.428  0.0550 -0.0667  0.1603
 5051TIP3    H136712   3.776   0.026   8.378  1.0309  1.8355 -0.8296
 5051TIP3    H236713   3.925   0.056   8.382  1.6618 -1.0421  1.4088
 5052TIP3   OH236714   3.176   2.510   1.282 -0.2863 -0.0040  0.3489
 5052TIP3    H136715   3.267   2.538   1.281 -0.1928 -0.3112 -0.3350
 5052TIP3    H236716   3.131   2.573   1.226 -0.1130 -1.0385 -1.0220
 5053TIP3   OH236717   3.791   1.060   1.480 -0.6893  0.4402 -0.1642
 5053TIP3    H136718   3.832   1.048   1.394 -0.9485  0.3025 -0.2687
 5053TIP3    H236719   3.825   1.144   1.511 -1.2951  0.9264 -0.8002
 5054TIP3   OH236720   3.936   5.450   7.286  0.0847 -0.8207 -0.3719
 5054TIP3    H136721   3.971   5.490   7.365 -1.0760 -1.0054  0.2672
 5054TIP3    H236722   3.849   5.490   7.276 -0.9576 -2.8288  0.0576
 5055TIP3   OH236723   2.103   6.781   6.953 -0.4001 -0.2897  0.4192
 5055TIP3    H136724   2.064   6.846   6.895  0.6998 -0.4849 -0.5776
 5055TIP3    H236725   2.091   6.698   6.906  1.4387 -0.3158 -0.0810
 5056TIP3   OH236726   5.197   0.944   1.261  0.0905  0.2218  0.1271
 5056TIP3    H136727   5.209   1.038   1.255 -1.8495  0.4676 -0.9536
 5056TIP3    H236728   5.261   0.907   1.200  2.1775  0.6458  1.9496
 5057TIP3   OH236729   4.354   4.004   8.553  0.5817 -1.0701 -0.5774
 5057TIP3    H136730   4.294   4.034   8.622  0.0967 -3.1099 -0.0435
 5057TIP3    H236731   4.388   4.085   8.515 -1.6992  0.1670 -0.1947
 5058TIP3   OH236732   0.732   3.916   0.507  0.2751  0.5551 -0.1002
 5058TIP3    H136733   0.774   3.975   0.445 -0.5459  1.5138  0.2415
 5058TIP3    H236734   0.642   3.948   0.514 -0.3772 -1.1103 -0.3730
 5059TIP3   OH236735   0.383   3.521   0.617  0.9494 -0.6074  0.2965
 5059TIP3    H136736   0.324   3.574   0.672  0.1956 -0.7109 -0.3922
 5059TIP3    H236737   0.469   3.560   0.630  0.2630  1.5161 -1.0197
 5060TIP3   OH236738   1.391   2.207   7.058 -0.0826  0.3065  0.4218
 5060TIP3    H136739   1.465   2.204   6.997 -1.0829  0.8215 -0.8699
 5060TIP3    H236740   1.418   2.152   7.131  2.1634  1.6120  0.6906
 5061TIP3   OH236741   3.486   1.609   0.285  0.2891  0.1473 -0.5016
 5061TIP3    H136742   3.434   1.583   0.362  0.1085  1.2563 -0.2299
 5061TIP3    H236743   3.432   1.674   0.240  0.5560 -0.2241 -1.3759
 5062TIP3   OH236744   0.413   2.184   1.341  0.3966  0.1113 -0.0946
 5062TIP3    H136745   0.493   2.196   1.291  0.7730  0.6058  0.6032
 5062TIP3    H236746   0.358   2.258   1.317  0.5134  0.2631  0.1073
 5063TIP3   OH236747   2.123   4.355   0.636  0.3779 -0.2362 -0.0751
 5063TIP3    H136748   2.168   4.352   0.721  0.6065  1.8505 -0.0524
 5063TIP3    H236749   2.095   4.447   0.628  0.2250 -0.4246 -2.1906
 5064TIP3   OH236750   5.123   1.104   8.311 -0.1352  0.1196  0.2717
 5064TIP3    H136751   5.100   1.191   8.344 -1.9876 -0.4556  0.5526
 5064TIP3    H236752   5.059   1.087   8.242  0.5797 -0.8030 -0.1840
 5065TIP3   OH236753   6.052   0.037   1.742 -0.4096 -0.0927  0.4695
 5065TIP3    H136754   5.977   0.083   1.703 -0.0969  0.5323  0.5898
 5065TIP3    H236755   6.019  -0.051   1.761 -0.8253 -0.1329 -0.3906
 5066TIP3   OH236756   5.386   2.736   7.614 -0.4612  0.1639 -0.1655
 5066TIP3    H136757   5.295   2.754   7.590 -0.0448 -0.7230 -2.7297
 5066TIP3    H236758   5.391   2.640   7.616  0.0626  0.1920  1.6497
 5067TIP3   OH236759   0.373   5.781   8.533 -0.1678 -0.0137 -0.3329
 5067TIP3    H136760   0.392   5.731   8.453 -0.8597 -1.6267  0.4506
 5067TIP3    H236761   0.297   5.835   8.510 -1.0495 -1.2618 -0.5084
 5068TIP3   OH236762   3.999   6.768   1.896 -0.1601  0.2796 -0.1960
 5068TIP3    H136763   3.975   6.831   1.964  1.4975 -0.7854  1.4639
 5068TIP3    H236764   3.926   6.706   1.895 -0.1921  0.2902  0.6509
 5069TIP3   OH236765   4.547   5.552   0.097  0.0349 -0.2571 -0.0831
 5069TIP3    H136766   4.523   5.630   0.147  0.0116  1.3241 -2.3976
 5069TIP3    H236767   4.607   5.584   0.030  0.1736 -2.2792 -1.0092
 5070TIP3   OH236768   5.178   4.619   0.762 -0.5489 -0.1436 -1.0397
 5070TIP3    H136769   5.160   4.624   0.669  0.7270  0.1814 -1.2847
 5070TIP3    H236770   5.207   4.528   0.775 -2.7843 -0.8682 -0.5285
 5071TIP3   OH236771   4.987   4.831   2.244  0.2353  0.6615 -0.1277
 5071TIP3    H136772   4.984   4.805   2.152 -0.5522  1.2050 -0.2708
 5071TIP3    H236773   5.009   4.751   2.291 -0.9958 -0.0181 -0.6489
 5072TIP3   OH236774   6.667   5.519   0.756 -0.3315  0.1360 -0.4017
 5072TIP3    H136775   6.685   5.529   0.849  2.8856  0.5596 -0.9577
 5072TIP3    H236776   6.581   5.559   0.744 -0.0386  1.7275  2.0988
 5073TIP3   OH236777   4.286   3.166   8.477  0.4939  0.1088  0.0777
 5073TIP3    H136778   4.369   3.214   8.471  0.6158 -0.0610  0.4104
 5073TIP3    H236779   4.312   3.075   8.494  0.2508 -0.0061 -0.1550
 5074TIP3   OH236780   0.158   2.345   8.463 -0.2045 -0.4943 -0.2400
 5074TIP3    H136781   0.182   2.405   8.392 -0.8615 -0.6490 -0.6048
 5074TIP3    H236782   0.090   2.289   8.425 -2.5079  1.0814  1.2109
 5075TIP3   OH236783   0.845   0.215   0.133 -0.0086 -0.5805  0.2492
 5075TIP3    H136784   0.865   0.308   0.145 -0.3501 -0.5998  0.9905
 5075TIP3    H236785   0.927   0.177   0.100  0.0651  0.0211 -0.2772
 5076TIP3   OH236786   6.135   4.183   8.014 -0.1011 -0.1527  0.0883
 5076TIP3    H136787   6.195   4.248   7.977  0.0134 -0.0480  0.4601
 5076TIP3    H236788   6.053   4.231   8.029 -0.0997 -0.1582  0.1141
 5077TIP3   OH236789   0.611   0.986   6.641  0.8109  0.4008  0.4808
 5077TIP3    H136790   0.678   0.938   6.689  2.0831  0.8301 -0.7791
 5077TIP3    H236791   0.569   0.920   6.586  1.4595  0.4154 -0.0546
 5078TIP3   OH236792   0.819   4.388   0.121 -0.3295  0.6660  0.0324
 5078TIP3    H136793   0.770   4.381   0.039  0.4831 -0.1426 -0.4013
 5078TIP3    H236794   0.909   4.363   0.098  0.1548  1.4487  0.9483
 5079TIP3   OH236795   5.161   4.771   8.366 -0.6861  0.1448 -0.3437
 5079TIP3    H136796   5.149   4.696   8.307 -1.6104  0.0808 -0.0993
 5079TIP3    H236797   5.091   4.761   8.431 -0.7464  1.1566 -0.2428
 5080TIP3   OH236798   1.625   4.189   7.334  0.4769 -0.2698 -0.3297
 5080TIP3    H136799   1.648   4.282   7.337  0.8958 -0.3918  0.7428
 5080TIP3    H236800   1.681   4.152   7.266  2.3364 -0.2393  1.1079
 5081TIP3   OH236801   1.904   6.054   7.286  0.7474 -0.6396  0.3012
 5081TIP3    H136802   1.963   6.033   7.213 -0.3209  0.1640 -0.8457
 5081TIP3    H236803   1.836   5.986   7.282 -0.4106  0.5130 -0.7736
 5082TIP3   OH236804   2.486   6.173   1.102 -0.3887  0.0661 -0.3834
 5082TIP3    H136805   2.428   6.249   1.111 -0.0474  0.8106 -3.5186
 5082TIP3    H236806   2.452   6.126   1.026  2.2202 -0.2510 -1.4548
 5083TIP3   OH236807   5.304   0.956   0.718 -0.3306  0.1280  0.5860
 5083TIP3    H136808   5.280   1.013   0.645 -0.7368  0.0731  0.6696
 5083TIP3    H236809   5.273   1.002   0.796 -0.0273  0.1198  0.7114
 5084TIP3   OH236810   2.398   0.865   6.468  0.5869 -0.5231 -0.3754
 5084TIP3    H136811   2.307   0.862   6.440  0.4687  0.0146 -0.0579
 5084TIP3    H236812   2.429   0.951   6.439  0.6918 -0.2834  0.4271
 5085TIP3   OH236813   0.192   1.635   2.714 -0.6171  0.1379 -0.3992
 5085TIP3    H136814   0.274   1.585   2.725 -0.8774 -0.2853 -0.3498
 5085TIP3    H236815   0.183   1.646   2.620 -0.0480  0.9567 -0.3653
 5086TIP3   OH236816   6.791   0.606   2.067 -0.0035  0.8869  0.1961
 5086TIP3    H136817   6.794   0.691   2.024  1.6923  0.7637 -0.0141
 5086TIP3    H236818   6.866   0.558   2.030  0.3473  0.0749  1.8473
 5087TIP3   OH236819   2.739   0.995   2.059  0.3822 -0.1423  0.4257
 5087TIP3    H136820   2.680   0.988   2.135 -0.4399  1.4972 -0.0199
 5087TIP3    H236821   2.712   0.923   2.002 -0.5398 -0.0069  0.6674
 5088TIP3   OH236822   5.336   3.794   6.811 -0.3873  0.2147 -0.2860
 5088TIP3    H136823   5.359   3.798   6.718  0.7564  1.2063  0.0112
 5088TIP3    H236824   5.360   3.880   6.845 -2.1060  0.3779  0.6564
 5089TIP3   OH236825   1.448   6.827   2.112  0.7481 -0.1046 -0.5257
 5089TIP3    H136826   1.368   6.877   2.096 -0.2217 -1.4559 -0.0422
 5089TIP3    H236827   1.433   6.782   2.194  3.1823  1.8259  1.1518
 5090TIP3   OH236828   3.485   5.904   6.738 -0.0261 -0.4344 -0.7678
 5090TIP3    H136829   3.544   5.879   6.808  0.0913  0.0117 -0.7045
 5090TIP3    H236830   3.488   6.000   6.737 -2.3457 -0.2652  0.6557
 5091TIP3   OH236831   4.449   1.000   0.999 -0.2988  0.0268 -0.4370
 5091TIP3    H136832   4.463   0.929   1.062  0.3723  0.1384 -0.4533
 5091TIP3    H236833   4.447   0.956   0.914 -0.1545 -0.0046 -0.4245
 5092TIP3   OH236834   2.144   0.572   1.685  0.1042 -0.5171 -0.4047
 5092TIP3    H136835   2.178   0.561   1.596  1.5229  0.4885 -0.0122
 5092TIP3    H236836   2.081   0.643   1.677  2.3928  1.6538 -0.1311
 5093TIP3   OH236837   0.409   0.201   1.427  0.2165 -0.5953  0.2064
 5093TIP3    H136838   0.414   0.244   1.513 -0.9925 -1.0690  0.5266
 5093TIP3    H236839   0.500   0.198   1.398  0.3411  2.4148  0.0164
 5094TIP3   OH236840   2.155   6.227   7.492  0.1083  0.4165 -0.5734
 5094TIP3    H136841   2.201   6.191   7.416  0.9901 -2.4042  1.1458
 5094TIP3    H236842   2.079   6.271   7.454  0.8256 -0.3410 -3.1285
 5095TIP3   OH236843   0.834   1.093   8.165  0.4419  0.1559 -0.2548
 5095TIP3    H136844   0.878   1.099   8.080  0.3051  0.6751 -0.2917
 5095TIP3    H236845   0.882   1.025   8.212  0.0415 -0.6663 -1.0272
 5096TIP3   OH236846   1.487   3.508   1.883 -0.1525  0.3941  0.6107
 5096TIP3    H136847   1.485   3.424   1.929 -0.6062  0.4707  0.7337
 5096TIP3    H236848   1.560   3.500   1.821  0.5883  0.3602  1.4705
 5097TIP3   OH236849   6.019   0.141   2.534  0.3524 -0.5471 -0.0841
 5097TIP3    H136850   5.934   0.176   2.560 -0.2133 -1.4728 -0.6269
 5097TIP3    H236851   6.042   0.189   2.454  0.3414 -0.2922  0.0671
 5098TIP3   OH236852   4.140   4.109   7.742 -0.3753  0.8464  0.5288
 5098TIP3    H136853   4.071   4.156   7.695  0.0363  2.2941  1.2923
 5098TIP3    H236854   4.164   4.168   7.814  1.1824  0.0804  0.6864
 5099TIP3   OH236855   4.406   3.478   8.023 -0.1424  0.0188 -0.7299
 5099TIP3    H136856   4.465   3.472   8.098 -0.4727 -2.7257 -0.5843
 5099TIP3    H236857   4.336   3.536   8.053  0.7984  0.6772  0.2864
 5100TIP3   OH236858   2.250   2.473   8.065  0.5495 -0.0150 -0.4552
 5100TIP3    H136859   2.293   2.413   8.126 -4.3733 -1.6298  1.9727
 5100TIP3    H236860   2.238   2.421   7.986  1.6401 -0.0170 -0.6399
 5101TIP3   OH236861   3.149   3.931   0.542 -0.6576  0.1403  0.5433
 5101TIP3    H136862   3.130   4.024   0.551 -2.5467 -0.1857  0.2837
 5101TIP3    H236863   3.127   3.910   0.451 -0.8227 -0.6796  0.7639
 5102TIP3   OH236864   1.148   6.509   0.379  0.2475  0.1076 -0.7670
 5102TIP3    H136865   1.190   6.449   0.440  1.3956 -0.1162 -1.7245
 5102TIP3    H236866   1.100   6.571   0.434 -0.0322 -1.0009  0.2815
 5103TIP3   OH236867   3.961   1.975   7.752 -0.0354  0.3956 -0.3914
 5103TIP3    H136868   3.985   1.999   7.841  0.0546 -1.1699  0.0442
 5103TIP3    H236869   3.881   1.922   7.763 -1.0811  1.7140 -1.4118
 5104TIP3   OH236870   5.762   2.429   2.498  0.4251 -0.2860  0.6179
 5104TIP3    H136871   5.826   2.406   2.430  0.5943  0.8601  0.3601
 5104TIP3    H236872   5.781   2.521   2.518 -0.7524 -0.1081  0.9729
 5105TIP3   OH236873   3.411   6.475   1.643  0.2341  0.2114 -0.0234
 5105TIP3    H136874   3.487   6.417   1.651 -1.4776 -2.1027  0.4620
 5105TIP3    H236875   3.352   6.447   1.712 -1.6976  0.9289 -1.3110
 5106TIP3   OH236876   4.439   1.489   7.672 -0.4552 -0.4166 -0.5720
 5106TIP3    H136877   4.443   1.422   7.741 -1.2566  0.6710  0.5773
 5106TIP3    H236878   4.364   1.543   7.696 -0.9512 -0.1643 -2.4835
 5107TIP3   OH236879   0.514   1.135   1.819  0.5335 -0.4889 -0.1607
 5107TIP3    H136880   0.493   1.144   1.912 -3.3135  1.1567 -0.9905
 5107TIP3    H236881   0.558   1.217   1.796  0.7872 -0.5664  0.0440
 5108TIP3   OH236882   0.899   1.954   7.899  0.3828 -0.3792 -0.1268
 5108TIP3    H136883   0.895   1.895   7.973  0.1312  0.6713  0.7273
 5108TIP3    H236884   0.834   1.921   7.837 -0.1867 -0.6404  0.5993
 5109TIP3   OH236885   6.183   4.675   8.048  0.2886 -0.1080 -0.2189
 5109TIP3    H136886   6.104   4.651   8.000  1.4522 -1.9564 -1.3091
 5109TIP3    H236887   6.166   4.647   8.138 -0.0703 -1.0717 -0.5765
 5110TIP3   OH236888   3.685   4.191   1.945  0.3257  0.1858  0.3332
 5110TIP3    H136889   3.665   4.164   1.855  1.4629  0.2885  0.0266
 5110TIP3    H236890   3.685   4.109   1.995 -0.4507  0.1436  0.2780
 5111TIP3   OH236891   5.489   3.464   1.462 -0.7011  0.3517  0.1407
 5111TIP3    H136892   5.484   3.538   1.402 -0.0662  0.9944  0.8600
 5111TIP3    H236893   5.435   3.488   1.537  0.1220  0.4323  0.7225
 5112TIP3   OH236894   2.902   0.379   1.518  0.0056 -0.2692  0.0685
 5112TIP3    H136895   2.861   0.336   1.593 -0.5673  0.0017 -0.0881
 5112TIP3    H236896   2.988   0.337   1.511  0.1554 -0.1503  1.0021
 5113TIP3   OH236897   4.053   0.448   7.637  0.1971  0.6105 -0.1430
 5113TIP3    H136898   4.087   0.388   7.703 -1.3898 -1.9576 -1.5004
 5113TIP3    H236899   4.126   0.463   7.578  0.7815  0.5297  0.5466
 5114TIP3   OH236900   0.813   0.300   8.494  0.3173  0.1767 -0.3691
 5114TIP3    H136901   0.891   0.257   8.529  0.3354  0.7083  0.2714
 5114TIP3    H236902   0.757   0.229   8.465  0.4313 -0.2785  0.4875
 5115TIP3   OH236903   5.387   0.480   1.988  0.1029  0.0092 -0.5253
 5115TIP3    H136904   5.440   0.410   2.028 -1.5128 -1.0832 -0.2047
 5115TIP3    H236905   5.401   0.469   1.894  0.7191 -0.0402 -0.4337
 5116TIP3   OH236906   2.492   0.744   0.539  0.0045 -0.5308  0.0075
 5116TIP3    H136907   2.411   0.750   0.488  0.3370  0.6704 -0.4284
 5116TIP3    H236908   2.552   0.696   0.482  0.7435  1.7886 -1.3334
 5117TIP3   OH236909   0.865   4.869   0.458 -0.1051 -0.1884  0.5037
 5117TIP3    H136910   0.870   4.894   0.550  0.1337  0.0730  0.4195
 5117TIP3    H236911   0.870   4.951   0.410 -0.9228 -0.2624  0.2702
 5118TIP3   OH236912   2.009   3.347   0.327 -0.0617 -0.0552 -0.2498
 5118TIP3    H136913   2.098   3.380   0.335  0.8211 -2.4820  1.4479
 5118TIP3    H236914   1.958   3.398   0.389 -0.0425  1.7094 -1.6137
 5119TIP3   OH236915   0.647   4.389   8.573 -0.2236 -0.5452 -0.0941
 5119TIP3    H136916   0.686   4.397   8.486 -1.7434 -0.1780 -0.7646
 5119TIP3    H236917   0.556   4.367   8.557 -1.0597  1.5709  1.3254
 5120TIP3   OH236918   3.384   3.119   0.671  0.8935  0.7584 -0.0793
 5120TIP3    H136919   3.319   3.068   0.622 -0.8598  1.7866  1.0954
 5120TIP3    H236920   3.446   3.053   0.703 -1.2919 -0.7071  1.4079
 5121TIP3   OH236921   0.966   5.025   7.677  0.6462 -0.0699  0.0877
 5121TIP3    H136922   0.896   5.084   7.648  0.6603 -0.5192 -0.8986
 5121TIP3    H236923   0.980   5.048   7.769 -1.2156 -0.3887  0.4946
 5122TIP3   OH236924   6.800   0.263   2.882  0.0152 -0.2944  0.4130
 5122TIP3    H136925   6.753   0.312   2.950  0.8273  1.2365 -0.0856
 5122TIP3    H236926   6.761   0.293   2.800  1.9257  1.1884 -0.0279
 5123TIP3   OH236927   0.294   0.980   6.922  0.3797 -0.3491 -0.4354
 5123TIP3    H136928   0.219   0.981   6.863 -0.2966  0.3561  0.4073
 5123TIP3    H236929   0.325   1.071   6.923  1.1195 -0.5954 -0.6147
 5124TIP3   OH236930   1.923   1.731   7.407 -0.4477 -0.5829  0.1274
 5124TIP3    H136931   1.920   1.677   7.328  1.5719 -0.1763 -0.2776
 5124TIP3    H236932   1.973   1.678   7.469  1.1813  0.5791 -0.1308
 5125TIP3   OH236933   1.886   5.913   7.842  0.3430  0.0588 -0.2752
 5125TIP3    H136934   1.829   5.940   7.913 -1.2514  1.4406 -1.9671
 5125TIP3    H236935   1.857   5.824   7.821 -1.0055  0.6097 -0.8720
 5126TIP3   OH236936   4.102   1.451   0.436 -0.2193  0.1596 -0.2886
 5126TIP3    H136937   4.054   1.521   0.480 -1.1888 -1.9051  2.2270
 5126TIP3    H236938   4.037   1.408   0.381 -0.6532 -0.9769  1.0471
 5127TIP3   OH236939   0.170   2.755   1.883 -0.8295  0.5426 -0.1673
 5127TIP3    H136940   0.171   2.697   1.807 -2.8827  0.4685 -0.1834
 5127TIP3    H236941   0.151   2.698   1.957 -3.2880  1.1546 -0.2377
 5128TIP3   OH236942   6.521   6.465   2.245 -0.5674 -0.2554 -0.7352
 5128TIP3    H136943   6.608   6.446   2.279  0.3074  2.6358 -1.0770
 5128TIP3    H236944   6.473   6.382   2.254  2.1523 -1.9379 -0.4861
 5129TIP3   OH236945   0.400   2.992   0.516 -0.4105  0.3573 -0.0087
 5129TIP3    H136946   0.380   2.907   0.477  0.2408  0.0392  0.3343
 5129TIP3    H236947   0.453   3.037   0.450  2.8926 -1.1578  1.3793
 5130TIP3   OH236948   2.845   3.618   1.294  0.3207 -0.4976 -0.2972
 5130TIP3    H136949   2.917   3.557   1.280 -0.6494 -1.4147 -1.4770
 5130TIP3    H236950   2.835   3.663   1.210 -0.8975 -0.8700 -0.3694
 5131TIP3   OH236951   0.179   2.240   0.591 -0.6052  0.5802 -0.7666
 5131TIP3    H136952   0.141   2.215   0.506 -0.2151 -1.7141 -0.3343
 5131TIP3    H236953   0.179   2.335   0.590 -1.6712  0.6204 -2.8734
 5132TIP3   OH236954   3.714   1.826   1.061  0.4705  0.0528  0.0740
 5132TIP3    H136955   3.650   1.885   1.102 -0.6355 -0.2088 -1.2368
 5132TIP3    H236956   3.758   1.881   0.996  1.3180  0.1202  0.6865
 5133TIP3   OH236957   3.401   5.393   7.560  0.0048  0.0748 -0.8229
 5133TIP3    H136958   3.350   5.350   7.491 -1.6804 -1.2049  1.1158
 5133TIP3    H236959   3.337   5.415   7.628  1.3972  2.4786 -0.1578
 5134TIP3   OH236960   0.412   0.715   0.740 -0.2057  0.7291 -0.6327
 5134TIP3    H136961   0.497   0.697   0.781 -0.3807  0.0183 -0.5742
 5134TIP3    H236962   0.392   0.635   0.691 -2.1780 -0.3011  1.6434
 5135TIP3   OH236963   1.384   0.430   1.227 -0.2716 -0.1770  0.2927
 5135TIP3    H136964   1.449   0.361   1.212  0.0190  0.1727 -0.0465
 5135TIP3    H236965   1.393   0.490   1.153  0.2084  0.7997  1.1148
 5136TIP3   OH236966   3.979   4.058   1.696  0.2935 -0.1416  0.0182
 5136TIP3    H136967   3.934   3.983   1.658  2.1794 -0.6505 -1.3709
 5136TIP3    H236968   3.925   4.133   1.670 -0.5072 -0.8290 -0.3596
 5137TIP3   OH236969   5.646   6.042   8.017  0.1348 -0.2047 -0.2839
 5137TIP3    H136970   5.604   6.028   8.102  1.3319 -0.3028  0.3137
 5137TIP3    H236971   5.575   6.035   7.954 -0.4787 -2.2030  0.5353
 5138TIP3   OH236972   3.987   5.193   8.613 -0.4978 -0.5386  0.7011
 5138TIP3    H136973   3.909   5.148   8.647 -2.2474  1.2170 -0.7235
 5138TIP3    H236974   4.003   5.150   8.528  0.2217 -1.0048  1.0643
 5139TIP3   OH236975   5.985   5.884   7.702 -0.2675 -0.2707 -0.2933
 5139TIP3    H136976   6.018   5.958   7.650  0.7656 -1.1253 -0.8801
 5139TIP3    H236977   5.904   5.858   7.659  0.7683 -1.2098 -1.7433
 5140TIP3   OH236978   2.902   0.721   7.189  0.0396  0.4292  0.0679
 5140TIP3    H136979   2.875   0.807   7.157  1.9339  1.8094  1.9252
 5140TIP3    H236980   2.891   0.726   7.284  0.6621 -1.1872  0.2514
 5141TIP3   OH236981   3.180   6.491   0.343 -0.2593  0.1219  0.0556
 5141TIP3    H136982   3.123   6.433   0.292 -1.0235 -0.1680  1.1995
 5141TIP3    H236983   3.202   6.562   0.283 -0.8346 -0.3934 -0.7898
 5142TIP3   OH236984   6.351   0.790   0.551 -0.1991 -0.5314 -0.1066
 5142TIP3    H136985   6.333   0.829   0.465  1.1104  0.2815 -0.0379
 5142TIP3    H236986   6.441   0.816   0.571 -0.5068 -0.6427  1.5568
 5143TIP3   OH236987   2.205   2.157   0.536 -0.5898  0.1836  0.0020
 5143TIP3    H136988   2.249   2.190   0.615 -1.7891 -2.5747  1.9770
 5143TIP3    H236989   2.119   2.199   0.537 -0.0907  1.2918 -0.7552
 5144TIP3   OH236990   2.743   4.272   7.260 -0.0443  0.0661 -0.1217
 5144TIP3    H136991   2.686   4.217   7.208  1.4924 -2.0652  0.3271
 5144TIP3    H236992   2.779   4.336   7.198 -1.5429  0.3563 -0.7246
 5145TIP3   OH236993   5.028   2.986   6.932 -0.3205 -0.2273  0.6027
 5145TIP3    H136994   5.102   3.038   6.901  1.8540 -1.9738  2.4390
 5145TIP3    H236995   5.025   2.910   6.874 -2.3182  0.9179 -0.9390
 5146TIP3   OH236996   1.159   6.446   7.983  0.2145  0.0751 -0.0562
 5146TIP3    H136997   1.234   6.454   7.924 -0.0788 -1.4545 -0.6798
 5146TIP3    H236998   1.092   6.501   7.943 -0.5771 -2.2480 -2.2300
 5147TIP3   OH236999   1.817   1.643   0.459  0.1571  0.2024  0.3143
 5147TIP3    H137000   1.844   1.700   0.387 -0.4113 -0.8886 -0.8008
 5147TIP3    H237001   1.883   1.658   0.527  0.8153  1.1258 -0.4961
 5148TIP3   OH237002   5.021   2.175   1.347 -0.0680 -0.0656 -0.5449
 5148TIP3    H137003   5.043   2.087   1.316  1.2054 -0.3563  1.0578
 5148TIP3    H237004   4.977   2.216   1.273 -0.8624 -2.1055 -1.2748
 5149TIP3   OH237005   1.724   1.201   7.234  0.3617  0.6037 -0.0772
 5149TIP3    H137006   1.663   1.161   7.296 -0.0322  0.6230 -0.4434
 5149TIP3    H237007   1.667   1.245   7.170  0.6434 -1.6740 -2.0162
 5150TIP3   OH237008   0.475   0.051   7.700  0.1468  0.0619  0.0968
 5150TIP3    H137009   0.490   0.143   7.677  1.0607 -0.0943  0.0603
 5150TIP3    H237010   0.455   0.054   7.794 -3.3878  0.6713 -0.5365
 5151TIP3   OH237011   3.761   5.192   0.887  0.0920 -0.8086 -0.9509
 5151TIP3    H137012   3.684   5.188   0.943  0.1308 -1.0420 -0.9142
 5151TIP3    H237013   3.748   5.122   0.823  0.5952 -1.2902 -0.5347
 5152TIP3   OH237014   2.278   3.199   1.300 -0.3134  0.4157 -0.3909
 5152TIP3    H137015   2.296   3.117   1.346  0.6259  1.8172  1.9043
 5152TIP3    H237016   2.346   3.259   1.329 -1.4738  2.2889 -1.3165
 5153TIP3   OH237017   3.240   1.875   8.639  0.5125  0.0591 -0.1658
 5153TIP3    H137018   3.164   1.910   8.592 -0.5450 -1.1614  0.5631
 5153TIP3    H237019   3.253   1.788   8.601  2.2131  0.6398 -0.9862
 5154TIP3   OH237020   0.426   4.768   8.179 -0.2553  0.0764  0.0242
 5154TIP3    H137021   0.475   4.689   8.153 -0.4419  0.4840 -1.7188
 5154TIP3    H237022   0.346   4.734   8.220 -0.6427 -0.6886 -1.2861
 5155TIP3   OH237023   1.299   1.297   1.132  0.0527 -0.2218 -0.1548
 5155TIP3    H137024   1.206   1.277   1.117 -0.5530  0.7214  1.9874
 5155TIP3    H237025   1.304   1.319   1.225  2.6639 -1.4176  0.0694
 5156TIP3   OH237026   2.258   4.012   2.052 -0.2528  0.1376  0.3483
 5156TIP3    H137027   2.234   4.086   1.995  2.4455 -0.2876 -1.5421
 5156TIP3    H237028   2.196   3.943   2.029 -0.9531  0.8822 -0.0452
 5157TIP3   OH237029   0.689   1.552   0.232  0.0964 -0.4904  0.4124
 5157TIP3    H137030   0.772   1.534   0.276 -0.3968 -2.6680  0.5571
 5157TIP3    H237031   0.709   1.625   0.174  1.7368 -0.0342  1.4647
 5158TIP3   OH237032   0.066   4.728   0.444 -0.1040  0.6759 -0.3869
 5158TIP3    H137033   0.044   4.796   0.508 -1.1135  1.5869 -1.6414
 5158TIP3    H237034   0.097   4.776   0.367  1.8955 -0.4228 -0.3512
 5159TIP3   OH237035   0.265   5.449   0.704  0.2182  1.0340  0.2877
 5159TIP3    H137036   0.199   5.456   0.774 -1.9247 -1.7766 -1.2426
 5159TIP3    H237037   0.250   5.526   0.650 -0.3035  1.5569  1.1489
 5160TIP3   OH237038   0.641   6.251   7.887  0.0785  0.3449 -0.4601
 5160TIP3    H137039   0.716   6.267   7.829  0.5201 -0.1905 -0.0588
 5160TIP3    H237040   0.615   6.161   7.867 -1.9641  1.2507 -2.2482
 5161TIP3   OH237041   1.267   2.792   1.826 -0.1397  0.2741 -0.4529
 5161TIP3    H137042   1.285   2.797   1.732  2.2255 -1.0631 -0.1495
 5161TIP3    H237043   1.195   2.729   1.833  0.9928 -1.1940 -1.3037
 5162TIP3   OH237044   0.230   6.122   2.175  0.2471 -0.5481  0.0484
 5162TIP3    H137045   0.168   6.068   2.125 -0.6801 -2.6125  3.1128
 5162TIP3    H237046   0.310   6.121   2.123 -0.8656 -1.8366 -1.7760
 5163TIP3   OH237047   1.028   4.217   1.364  0.8421 -0.3929  0.0345
 5163TIP3    H137048   0.998   4.140   1.413  2.0166 -0.6357  0.3923
 5163TIP3    H237049   1.041   4.184   1.275 -0.9575 -0.0312 -0.4050
 5164TIP3   OH237050   0.695   5.073   1.661  0.5607  0.0034 -0.1617
 5164TIP3    H137051   0.634   5.000   1.670  1.3872 -0.6890 -0.1276
 5164TIP3    H237052   0.756   5.063   1.734  0.0473  1.3509  0.4832
 5165TIP3   OH237053   2.464   0.461   8.138  0.1296  0.1921  0.2959
 5165TIP3    H137054   2.414   0.501   8.209  0.6776 -0.4338  1.0551
 5165TIP3    H237055   2.501   0.382   8.177  0.9879  0.1856 -0.5079
 5166TIP3   OH237056   0.366   2.914   7.033 -0.2427  0.6636  0.0329
 5166TIP3    H137057   0.306   2.841   7.016 -0.4201  0.4711  1.3440
 5166TIP3    H237058   0.388   2.949   6.946 -0.5104 -0.6605 -0.5856
 5167TIP3   OH237059   3.616   3.364   0.839 -0.2242 -0.3499  0.1671
 5167TIP3    H137060   3.690   3.387   0.784  0.2280 -2.4379 -0.1994
 5167TIP3    H237061   3.630   3.411   0.921  1.8214 -1.0877  0.3011
 5168TIP3   OH237062   4.183   1.345   7.890  0.4387 -0.8514 -0.1779
 5168TIP3    H137063   4.227   1.272   7.845 -0.2971 -1.7118  0.4479
 5168TIP3    H237064   4.154   1.307   7.973  0.2262  0.2267  0.2481
 5169TIP3   OH237065   3.973   6.382   8.170  0.1035  0.0886 -0.2534
 5169TIP3    H137066   3.991   6.468   8.209 -1.5528 -0.3351  1.6320
 5169TIP3    H237067   3.931   6.401   8.087 -2.3301  1.2226  1.1401
 5170TIP3   OH237068   5.244   5.771   0.834 -0.2107  0.5154 -0.2087
 5170TIP3    H137069   5.232   5.767   0.928  0.1503 -2.7212 -0.1649
 5170TIP3    H237070   5.339   5.773   0.822 -0.2433  0.4433 -0.4866
 5171TIP3   OH237071   5.892   0.237   1.248 -0.7511 -0.4620  0.0760
 5171TIP3    H137072   5.910   0.143   1.239  0.7849 -0.1496 -0.4204
 5171TIP3    H237073   5.953   0.279   1.187 -1.4041  0.8702  0.2989
 5172TIP3   OH237074   3.452   1.876   7.034 -0.3772  0.4603 -0.7676
 5172TIP3    H137075   3.511   1.889   6.961  0.2938 -0.9717 -0.5207
 5172TIP3    H237076   3.369   1.914   7.005  0.5629  2.2893 -1.2099
 5173TIP3   OH237077   6.751   2.970   1.960  0.3206 -0.3067  0.4288
 5173TIP3    H137078   6.671   2.927   1.990 -0.8434  0.6765 -1.0808
 5173TIP3    H237079   6.736   3.063   1.975  0.8720 -0.0471 -0.4909
 5174TIP3   OH237080   0.558   4.043   6.383  0.5622 -0.0583  0.1640
 5174TIP3    H137081   0.511   4.044   6.466  0.9843 -1.0607  0.4339
 5174TIP3    H237082   0.606   4.125   6.382 -1.2352  1.0451 -0.1675
 5175TIP3   OH237083   5.275   5.296   0.196  0.7627 -0.4013 -0.2517
 5175TIP3    H137084   5.253   5.343   0.115  3.2286  1.3432 -0.0234
 5175TIP3    H237085   5.251   5.205   0.178 -2.4045  0.5388 -1.4563
 5176TIP3   OH237086   0.410   1.289   8.091  0.3816  0.6585 -0.0141
 5176TIP3    H137087   0.443   1.200   8.101  1.9169  1.1450 -0.4470
 5176TIP3    H237088   0.371   1.291   8.004 -0.8417  0.0933  0.4843
 5177TIP3   OH237089   0.588   6.117   1.688  0.6995  0.3456 -0.1715
 5177TIP3    H137090   0.498   6.091   1.707  0.9203 -1.8464 -1.7786
 5177TIP3    H237091   0.583   6.212   1.675 -1.3550  0.2750 -0.1969
 5178TIP3   OH237092   6.480   2.422   8.067 -0.0769  0.3108  0.6434
 5178TIP3    H137093   6.527   2.402   8.148  0.0538  1.3032  0.8271
 5178TIP3    H237094   6.541   2.399   7.997  0.6467  1.4533  0.8793
 5179TIP3   OH237095   0.895   1.343   7.487 -0.5260  0.0275  0.0823
 5179TIP3    H137096   0.989   1.354   7.496 -0.6575  2.1979 -0.7494
 5179TIP3    H237097   0.865   1.318   7.575  0.7246 -0.0690  0.4933
 5180TIP3   OH237098   6.615   2.821   1.532 -0.0993  0.0195 -0.1458
 5180TIP3    H137099   6.533   2.834   1.578  1.0861  0.4376  1.9852
 5180TIP3    H237100   6.602   2.864   1.447 -2.0253  0.1137  0.1509
 5181TIP3   OH237101   4.544   1.306   0.041  0.0917 -0.0103 -0.2568
 5181TIP3    H137102   4.571   1.396   0.027 -2.0983  0.4112 -2.3630
 5181TIP3    H237103   4.495   1.308   0.123  0.1911  0.6628 -0.2089
 5182TIP3   OH237104   6.497   0.684   8.076  0.2746  0.1367  0.2634
 5182TIP3    H137105   6.407   0.666   8.101  0.6329 -0.6408  1.0066
 5182TIP3    H237106   6.507   0.779   8.088 -0.3868  0.1946  0.3439
 5183TIP3   OH237107   1.361   5.183   1.266 -0.3776 -0.9535 -0.5320
 5183TIP3    H137108   1.268   5.205   1.264 -0.6938 -2.1691 -0.0268
 5183TIP3    H237109   1.366   5.101   1.315  1.2269  0.4371  1.8843
 5184TIP3   OH237110   5.132   3.910   2.565  0.0010 -0.1520  0.0773
 5184TIP3    H137111   5.088   3.974   2.621  2.3616  1.8317 -0.1424
 5184TIP3    H237112   5.150   3.958   2.484  3.3511 -0.4237  0.5150
 5185TIP3   OH237113   6.125   6.122   8.102 -0.4006 -0.4151  0.3453
 5185TIP3    H137114   6.049   6.096   8.049 -0.4631 -0.9266  0.6762
 5185TIP3    H237115   6.127   6.218   8.096 -0.0746 -0.4982 -1.0248
 5186TIP3   OH237116   4.910   3.080   7.826 -0.3167 -0.4531 -0.3242
 5186TIP3    H137117   4.969   3.146   7.861  0.0731 -0.5703 -0.7514
 5186TIP3    H237118   4.960   2.998   7.831 -1.0074 -0.8326  0.7588
 5187TIP3   OH237119   2.328   5.560   6.804  0.6190  0.3308  0.2767
 5187TIP3    H137120   2.265   5.615   6.758 -1.4153 -0.3448  2.1040
 5187TIP3    H237121   2.342   5.486   6.745 -0.1833  0.5640 -0.2286
 5188TIP3   OH237122   0.551   1.491   1.998  0.7364 -0.0305 -0.4825
 5188TIP3    H137123   0.494   1.561   1.966  0.0102 -0.4686 -0.1698
 5188TIP3    H237124   0.579   1.445   1.919 -0.5682 -0.7416 -0.5487
 5189TIP3   OH237125   3.631   3.557   1.626  0.4331  0.0099 -0.4924
 5189TIP3    H137126   3.722   3.528   1.622  1.1716  2.0586  0.5211
 5189TIP3    H237127   3.602   3.530   1.713  0.3715  0.2314 -0.4459
 5190TIP3   OH237128   1.244   1.139   7.692 -0.1842  0.2216  0.1598
 5190TIP3    H137129   1.245   1.194   7.771 -1.3810  0.4257  0.0525
 5190TIP3    H237130   1.239   1.050   7.726  0.0474  0.2706  0.3238
 5191TIP3   OH237131   1.710   1.003   0.088  0.4622 -0.0309 -0.1536
 5191TIP3    H137132   1.658   1.074   0.126 -0.0297  1.3492 -3.1003
 5191TIP3    H237133   1.690   0.927   0.142 -1.9013  1.2440  0.9462
 5192TIP3   OH237134   0.199   0.506   8.333 -0.4206 -0.6577  0.1053
 5192TIP3    H137135   0.234   0.458   8.258  1.0823  0.8222 -0.1887
 5192TIP3    H237136   0.275   0.523   8.389 -0.2784  3.4315 -0.9809
 5193TIP3   OH237137   5.462   1.549   0.789 -0.3169  0.7299 -0.5639
 5193TIP3    H137138   5.376   1.516   0.814  0.0876 -0.6402 -0.8583
 5193TIP3    H237139   5.449   1.583   0.700 -0.4428 -0.0291 -0.8480
 5194TIP3   OH237140   5.772   1.745   1.619  0.2138 -1.0494 -0.0363
 5194TIP3    H137141   5.776   1.777   1.529 -0.3473 -0.9641 -0.0346
 5194TIP3    H237142   5.828   1.667   1.619 -0.9500 -1.9205 -0.8353
 5195TIP3   OH237143   6.016   5.093   7.816 -0.6098 -0.1074 -0.1425
 5195TIP3    H137144   5.983   5.100   7.906  0.2829  0.4606  0.1498
 5195TIP3    H237145   5.971   5.015   7.781  0.1124 -1.2256  1.2791
 5196TIP3   OH237146   0.379   0.182   6.542 -0.1284 -0.1082 -0.6563
 5196TIP3    H137147   0.305   0.124   6.526 -1.8079  2.0465 -1.2938
 5196TIP3    H237148   0.432   0.137   6.608 -1.3994 -2.2342 -1.0212
 5197TIP3   OH237149   6.438   3.755   2.076 -0.1719 -0.0839  0.2758
 5197TIP3    H137150   6.354   3.800   2.065 -0.6070 -0.3254  2.2958
 5197TIP3    H237151   6.500   3.825   2.093 -0.1212  0.0209 -0.3098
 5198TIP3   OH237152   1.561   5.400   0.266  0.1240 -0.0753 -0.6213
 5198TIP3    H137153   1.487   5.375   0.321  0.5304  0.1700  0.0506
 5198TIP3    H237154   1.597   5.317   0.235  1.3057 -0.3793  1.3755
 5199TIP3   OH237155   5.224   2.573   0.639 -0.1798  0.3227 -0.4669
 5199TIP3    H137156   5.194   2.486   0.612  2.1507 -0.7115  0.0232
 5199TIP3    H237157   5.165   2.598   0.710 -1.4867 -0.3899 -1.2683
 5200TIP3   OH237158   4.646   4.714   1.753 -0.4497  0.2862 -0.2662
 5200TIP3    H137159   4.639   4.776   1.826 -2.6069 -1.3584  1.0928
 5200TIP3    H237160   4.570   4.733   1.698 -0.6203 -0.5028 -0.3226
 5201TIP3   OH237161   5.146   0.197   2.786 -0.1834  0.4702 -0.6105
 5201TIP3    H137162   5.187   0.275   2.749  1.1437 -0.2259 -0.6799
 5201TIP3    H237163   5.100   0.228   2.864  3.3818  0.8433  1.5421
 5202TIP3   OH237164   1.088   0.332   8.636  0.4180 -0.5988  0.0320
 5202TIP3    H137165   1.157   0.374   8.688  0.0584 -0.5007  0.4348
 5202TIP3    H237166   1.132   0.259   8.592  1.0901  0.2518 -0.7723
 5203TIP3   OH237167   3.603   4.897   0.439 -0.0757  0.1982  0.1775
 5203TIP3    H137168   3.542   4.890   0.365  0.1120 -0.4697  0.0763
 5203TIP3    H237169   3.583   4.821   0.493  0.6854 -0.0545  0.1226
 5204TIP3   OH237170   2.570   3.682   1.679 -0.1092 -0.2877  0.4129
 5204TIP3    H137171   2.635   3.753   1.676  0.2806 -0.6579 -0.7852
 5204TIP3    H237172   2.607   3.619   1.741  0.5136 -0.3303  0.0097
 5205TIP3   OH237173   2.098   5.462   2.652  0.1778 -0.1451 -0.2996
 5205TIP3    H137174   2.171   5.469   2.713  0.2951 -2.2580 -0.1295
 5205TIP3    H237175   2.139   5.451   2.567  0.1173 -1.8998 -0.1357
 5206TIP3   OH237176   6.062   2.355   7.791 -0.0883  0.7430 -0.5068
 5206TIP3    H137177   6.145   2.333   7.749  0.1067  0.6556 -0.0812
 5206TIP3    H237178   5.995   2.326   7.728  0.2024  0.9228 -0.9004
 5207TIP3   OH237179   2.086   0.108   6.751  0.0536 -0.3967 -0.1724
 5207TIP3    H137180   2.181   0.112   6.744 -0.0875  0.7570 -1.9696
 5207TIP3    H237181   2.058   0.198   6.767 -0.7865 -0.5887 -0.4676
 5208TIP3   OH237182   2.256   0.531   7.910 -0.2549  0.0429  0.2871
 5208TIP3    H137183   2.316   0.497   7.976 -0.2305 -0.8661 -0.1810
 5208TIP3    H237184   2.311   0.549   7.834 -0.4419  0.0391  0.1475
 5209TIP3   OH237185   2.772   4.730   7.633  0.1061  0.5381  0.0748
 5209TIP3    H137186   2.726   4.811   7.610 -0.4061  0.5114  0.9491
 5209TIP3    H237187   2.851   4.760   7.678  1.1323  0.5908 -1.6993
 5210TIP3   OH237188   5.215   3.885   0.842 -0.5179  0.5095  0.1227
 5210TIP3    H137189   5.259   3.819   0.896  0.3914  1.7147  0.9231
 5210TIP3    H237190   5.126   3.851   0.831 -0.3994 -0.3268  1.4392
 5211TIP3   OH237191   4.027   6.497   7.233 -0.4155 -0.3463  0.0575
 5211TIP3    H137192   4.013   6.473   7.324 -0.4190  1.1870  0.4862
 5211TIP3    H237193   4.069   6.420   7.194  0.7525 -0.5675  1.6460
 5212TIP3   OH237194   4.555   6.488   2.372 -0.5566 -0.4739 -0.1452
 5212TIP3    H137195   4.611   6.478   2.295  1.4476  0.1874  1.1426
 5212TIP3    H237196   4.524   6.579   2.367 -0.7557 -0.5527 -0.3683
 5213TIP3   OH237197   3.627   2.978   7.936  0.5430  0.1904  0.4338
 5213TIP3    H137198   3.612   3.055   7.992  0.9448  1.1854 -0.7890
 5213TIP3    H237199   3.547   2.926   7.946  0.7516  0.1336  2.2174
 5214TIP3   OH237200   4.295   3.704   0.037  0.4511  0.4243  0.3447
 5214TIP3    H137201   4.352   3.775   0.066  2.8043 -0.3329 -2.0319
 5214TIP3    H237202   4.230   3.746  -0.020  0.3632  0.9473  0.8275
 5215TIP3   OH237203   1.717   5.487   1.629 -0.1406  0.0424 -0.5359
 5215TIP3    H137204   1.692   5.568   1.584  1.8335  1.2139  0.3478
 5215TIP3    H237205   1.699   5.418   1.566 -0.5281  1.2979 -1.8730
 5216TIP3   OH237206   1.620   2.372   8.120  0.6526 -0.1926  0.2066
 5216TIP3    H137207   1.563   2.449   8.123  0.6723  0.0561 -2.7424
 5216TIP3    H237208   1.584   2.312   8.186 -0.6722  1.4681  1.0555
 5217TIP3   OH237209   1.360   4.734   0.709  0.3944  0.1624  0.1003
 5217TIP3    H137210   1.336   4.652   0.753 -0.1382  0.0869 -0.3258
 5217TIP3    H237211   1.439   4.713   0.660 -0.4601 -0.4569 -1.0448
 5218TIP3   OH237212   4.006   1.970   1.124  0.1939 -0.2990 -0.5633
 5218TIP3    H137213   4.004   1.888   1.173  1.2603  0.5793  1.0539
 5218TIP3    H237214   3.933   2.021   1.159 -0.3970 -0.4941 -1.4852
 5219TIP3   OH237215   3.517   2.443   1.737  0.5952 -0.0587  0.1643
 5219TIP3    H137216   3.600   2.423   1.693  0.3806  0.6956 -0.5991
 5219TIP3    H237217   3.533   2.524   1.785  0.1366  0.4164 -0.4686
 5220TIP3   OH237218   2.428   5.597   0.040  0.2906 -0.0937  0.4957
 5220TIP3    H137219   2.341   5.638   0.045  0.3557  0.1540 -0.2801
 5220TIP3    H237220   2.467   5.634  -0.039  0.7777 -0.8497  0.3778
 5221TIP3   OH237221   3.870   3.534   0.916 -0.0616  0.2446  0.4082
 5221TIP3    H137222   3.959   3.505   0.895 -0.2659 -1.7045  1.9281
 5221TIP3    H237223   3.872   3.553   1.009 -1.2438  0.1267  0.4733
 5222TIP3   OH237224   4.480   0.412   0.158 -0.0628 -0.1055 -0.2859
 5222TIP3    H137225   4.472   0.413   0.063 -2.3218  3.2314 -0.2316
 5222TIP3    H237226   4.401   0.457   0.190  1.1168 -0.1228  3.1024
 5223TIP3   OH237227   0.977   6.004   0.186 -0.4840 -0.2929 -0.2533
 5223TIP3    H137228   1.024   6.000   0.103  0.6132 -0.2055  0.3404
 5223TIP3    H237229   0.998   6.091   0.221 -1.7655  0.0671 -0.3462
 5224TIP3   OH237230   1.253   0.167   1.443 -0.2888  0.5128  0.1305
 5224TIP3    H137231   1.341   0.175   1.480 -0.3663 -0.4701  0.5659
 5224TIP3    H237232   1.215   0.091   1.487 -0.5679 -0.4175 -1.5987
 5225TIP3   OH237233   1.702   0.366   0.065  0.6309  0.5610 -0.1150
 5225TIP3    H137234   1.796   0.381   0.052  0.5891  0.8078 -0.1396
 5225TIP3    H237235   1.668   0.347  -0.023  0.6454  0.5435 -0.1164
 5226TIP3   OH237236   6.369   5.955   7.143  0.1371 -0.5215  0.2354
 5226TIP3    H137237   6.382   5.942   7.049 -1.4974 -1.2525  0.0778
 5226TIP3    H237238   6.384   6.049   7.157 -1.2972 -0.0596 -1.0826
 5227TIP3   OH237239   1.848   1.809   6.805  0.1205  0.2662  0.2268
 5227TIP3    H137240   1.763   1.768   6.789  0.2674  0.3095 -0.7404
 5227TIP3    H237241   1.848   1.829   6.898 -0.2399 -1.2681  0.5807
 5228TIP3   OH237242   4.693   2.491   2.134 -0.3125  0.0987  0.4110
 5228TIP3    H137243   4.692   2.405   2.092  1.8343  0.6811 -1.0237
 5228TIP3    H237244   4.756   2.481   2.205 -1.0776  0.1427  1.1032
 5229TIP3   OH237245   6.875   1.202   1.371 -0.0078 -0.5533 -0.0474
 5229TIP3    H137246   6.786   1.233   1.383  0.1273  0.1352 -0.7257
 5229TIP3    H237247   6.873   1.157   1.286  0.3684 -0.1931 -0.2524
 5230TIP3   OH237248   0.417   0.108   7.105 -0.2107 -0.3598  0.3802
 5230TIP3    H137249   0.401   0.107   7.011  0.4911  1.1366  0.2128
 5230TIP3    H237250   0.350   0.051   7.142 -0.5485 -0.8925 -1.0115
 5231TIP3   OH237251   6.133   3.090   2.687 -0.0005  0.2686  0.2068
 5231TIP3    H137252   6.190   3.152   2.642 -0.6486  0.2088 -0.7329
 5231TIP3    H237253   6.187   3.053   2.757  1.1680  0.0688 -0.7793
 5232TIP3   OH237254   0.431   4.201   1.297  0.3673 -0.0114  0.5982
 5232TIP3    H137255   0.364   4.148   1.255  0.9288 -0.4177  0.1970
 5232TIP3    H237256   0.421   4.288   1.259  0.2056 -0.1243  0.3793
 5233TIP3   OH237257   1.624   6.422   7.583 -0.0618 -0.2212 -0.3713
 5233TIP3    H137258   1.638   6.364   7.658  0.1366 -0.2599 -0.4375
 5233TIP3    H237259   1.667   6.376   7.510 -2.9191 -1.7543 -1.2250
 5234TIP3   OH237260   6.347   5.759   7.327  0.1455  0.0633 -0.1019
 5234TIP3    H137261   6.440   5.762   7.350 -0.1878  1.2594  1.2649
 5234TIP3    H237262   6.334   5.834   7.269  0.0192 -0.0531 -0.2230
 5235TIP3   OH237263   0.227   2.866   8.114  0.5844 -0.2054 -0.2753
 5235TIP3    H137264   0.314   2.829   8.127  0.4243 -0.2939  0.6605
 5235TIP3    H237265   0.230   2.952   8.156  0.4046  0.0577 -0.7907
 5236TIP3   OH237266   4.278   5.707   2.223  0.8394 -0.4986  0.1728
 5236TIP3    H137267   4.312   5.627   2.262 -0.2112 -0.0462  2.1413
 5236TIP3    H237268   4.247   5.759   2.297 -4.6914 -1.0790 -1.2815
 5237TIP3   OH237269   1.408   0.058   0.046  0.2062  1.3771  0.0368
 5237TIP3    H137270   1.482   0.053  -0.015  0.4202 -0.3772  0.3813
 5237TIP3    H237271   1.447   0.087   0.128  0.8018 -0.6746  0.5470
 5238TIP3   OH237272   4.404   0.383   8.523 -0.0192 -0.1885  0.0118
 5238TIP3    H137273   4.497   0.360   8.519 -0.3002 -1.4031  0.1665
 5238TIP3    H237274   4.372   0.368   8.434 -0.3625 -1.0913  0.2846
 5239TIP3   OH237275   1.132   3.411   8.649  0.9880  0.1341  0.4369
 5239TIP3    H137276   1.116   3.468   8.574 -1.6213  0.1414  0.9045
 5239TIP3    H237277   1.197   3.349   8.618 -0.6739 -0.4409 -2.2336
 5240TIP3   OH237278   2.516   4.650   7.088 -0.1416  0.0452 -0.3992
 5240TIP3    H137279   2.454   4.598   7.035 -0.7332  0.7542 -0.4248
 5240TIP3    H237280   2.600   4.607   7.075 -1.1584 -3.5215  2.8858
 5241TIP3   OH237281   2.142   5.222   1.642 -0.0304 -0.1914  0.1051
 5241TIP3    H137282   2.150   5.130   1.670 -0.4457 -0.1103  0.5046
 5241TIP3    H237283   2.084   5.261   1.707 -1.1968 -0.0407 -0.9982
 5242TIP3   OH237284   2.626   5.438   2.383 -0.2827 -0.1808 -0.4344
 5242TIP3    H137285   2.707   5.422   2.431  0.6701  2.6437 -0.8910
 5242TIP3    H237286   2.613   5.361   2.329  2.2660 -0.5993 -0.5432
 5243TIP3   OH237287   2.068   4.355   0.018  0.4614 -0.0202 -0.3926
 5243TIP3    H137288   1.988   4.403  -0.002  1.4579  1.4343 -1.0698
 5243TIP3    H237289   2.045   4.263   0.006 -2.2074 -0.0544  3.2367
 5244TIP3   OH237290   5.157   0.262   8.205  0.0202 -0.2840  0.5882
 5244TIP3    H137291   5.075   0.221   8.177 -0.0356 -0.4499  0.9876
 5244TIP3    H237292   5.171   0.332   8.142  0.1382 -0.9387 -0.1287
 5245TIP3   OH237293   6.373   0.533   0.126  0.5305 -0.5067 -0.2457
 5245TIP3    H137294   6.297   0.590   0.139  0.2624 -1.0658  0.7469
 5245TIP3    H237295   6.448   0.593   0.121  0.1885 -0.0387  0.2266
 5246TIP3   OH237296   6.115   0.658   1.953 -0.5666 -0.6777  0.3960
 5246TIP3    H137297   6.025   0.626   1.955 -0.4280 -1.2441 -0.9976
 5246TIP3    H237298   6.163   0.590   1.906  0.7740 -0.7811  1.8392
 5247TIP3   OH237299   3.326   3.470   1.178  0.3904  0.6037  0.3081
 5247TIP3    H137300   3.335   3.424   1.262  2.5678 -2.4055 -1.3556
 5247TIP3    H237301   3.276   3.410   1.123  0.6630  1.6363 -1.1107
 5248TIP3   OH237302   4.834   1.658   1.331 -0.0538 -0.1066  0.2480
 5248TIP3    H137303   4.757   1.707   1.359  0.2785  0.0086  0.9852
 5248TIP3    H237304   4.798   1.581   1.287 -0.5998 -0.1026  0.6653
 5249TIP3   OH237305   5.440   1.640   1.076 -0.1601 -0.2521  0.2196
 5249TIP3    H137306   5.373   1.704   1.100 -1.7359 -2.1395  1.1731
 5249TIP3    H237307   5.429   1.628   0.982 -1.3975 -0.7266  0.4017
 5250TIP3   OH237308   4.523   2.564   1.874 -0.3717 -0.1794 -0.0767
 5250TIP3    H137309   4.501   2.543   1.964 -1.2973  1.4490  0.1176
 5250TIP3    H237310   4.539   2.659   1.875  0.4589 -0.2785 -1.4537
 5251TIP3   OH237311   0.623   5.341   6.837 -0.3338  0.3384  0.6439
 5251TIP3    H137312   0.578   5.424   6.821  0.3498  0.2645 -2.2914
 5251TIP3    H237313   0.645   5.309   6.750  1.5717 -1.7444  1.7831
 5252TIP3   OH237314   6.037   4.798   1.997  0.0790  0.0799 -0.4075
 5252TIP3    H137315   6.124   4.814   1.962  0.1782 -0.2447 -0.3150
 5252TIP3    H237316   6.034   4.703   2.010  0.8956  0.3826  2.6408
 5253TIP3   OH237317   1.712   0.849   0.335  0.3047  0.0049  0.1264
 5253TIP3    H137318   1.712   0.902   0.415 -0.0776  1.2148 -0.6379
 5253TIP3    H237319   1.620   0.838   0.313  0.3894 -0.7951  0.1404
 5254TIP3   OH237320   4.970   5.510   8.282 -0.0504  0.2659 -0.1769
 5254TIP3    H137321   5.042   5.553   8.328 -0.0333 -1.8989  2.0185
 5254TIP3    H237322   5.012   5.461   8.211  0.4150  0.4737 -0.0462
 5255TIP3   OH237323   4.596   5.886   7.884  0.7529 -0.2314  0.2452
 5255TIP3    H137324   4.576   5.971   7.923 -2.1136 -0.5545 -0.3118
 5255TIP3    H237325   4.633   5.907   7.798  1.4345  0.4118  0.6802
 5256TIP3   OH237326   2.000   0.566   8.279 -0.1592 -0.1975 -0.1162
 5256TIP3    H137327   1.946   0.509   8.334  1.0925 -0.3400  1.0065
 5256TIP3    H237328   1.990   0.653   8.317 -1.2315  0.1666 -1.1882
 5257TIP3   OH237329   2.183   3.057   7.398 -0.5777 -0.4034 -0.2292
 5257TIP3    H137330   2.218   3.115   7.466 -3.8622  0.0932  1.2778
 5257TIP3    H237331   2.217   3.093   7.316  4.1351 -1.4498  0.9809
 5258TIP3   OH237332   0.885   4.760   6.853 -0.0801  0.7651  0.5965
 5258TIP3    H137333   0.871   4.666   6.860  0.1064  0.6811 -0.0847
 5258TIP3    H237334   0.812   4.791   6.799  1.4133  0.5575 -1.6477
 5259TIP3   OH237335   2.033   5.017   0.512  0.6119 -0.3170  0.4000
 5259TIP3    H137336   1.950   5.000   0.467  0.5255  1.1060 -0.0250
 5259TIP3    H237337   2.024   5.106   0.546  1.6007 -0.5054  1.1968
 5260TIP3   OH237338   2.421   1.257   7.331  0.4735  0.0592  0.2923
 5260TIP3    H137339   2.367   1.212   7.266  1.1512 -1.5971  0.8233
 5260TIP3    H237340   2.494   1.293   7.280  0.0810  0.3308 -0.0962
 5261TIP3   OH237341   2.038   6.866   2.488  0.0682 -0.2695  0.4397
 5261TIP3    H137342   2.111   6.866   2.426 -0.5069 -0.9361 -0.2647
 5261TIP3    H237343   1.993   6.783   2.471 -0.0015 -0.5493  1.8822
 5262TIP3   OH237344   5.336   2.657   8.305 -0.6031 -0.3350  0.3092
 5262TIP3    H137345   5.326   2.670   8.211 -0.5698  1.9583  0.5838
 5262TIP3    H237346   5.398   2.584   8.313 -0.8273 -0.7493 -1.4249
 5263TIP3   OH237347   6.455   4.600   0.699  0.1979  0.3647 -0.5313
 5263TIP3    H137348   6.392   4.671   0.712  0.9639  0.7048  1.7528
 5263TIP3    H237349   6.538   4.636   0.728  1.4110 -0.2899 -2.8906
 5264TIP3   OH237350   3.802   2.934   7.723  0.2189  0.8189  0.3218
 5264TIP3    H137351   3.729   2.969   7.773  1.1357  0.2327  2.1750
 5264TIP3    H237352   3.858   3.009   7.705  0.7996  0.7884  1.8526
 5265TIP3   OH237353   2.368   1.583   2.314  0.6172 -0.0593  0.3977
 5265TIP3    H137354   2.390   1.499   2.274  0.6706 -0.6131  1.5626
 5265TIP3    H237355   2.448   1.636   2.307  0.9092 -0.4751  0.5948
 5266TIP3   OH237356   1.258   1.369   2.319  0.4975  0.4561  0.2603
 5266TIP3    H137357   1.352   1.373   2.300  0.5337 -0.5100  0.2332
 5266TIP3    H237358   1.251   1.313   2.396 -0.1499 -0.4985 -0.4726
 5267TIP3   OH237359   3.925   1.081   2.722 -0.1705 -0.2612  0.4944
 5267TIP3    H137360   3.944   1.094   2.629 -0.2793 -1.6385  0.2442
 5267TIP3    H237361   3.944   1.165   2.763 -1.7666  0.9055 -1.0227
 5268TIP3   OH237362   4.866   1.598   0.641  0.0124 -0.1387 -0.1468
 5268TIP3    H137363   4.802   1.605   0.570  0.0309  1.2561 -0.0671
 5268TIP3    H237364   4.947   1.570   0.598 -0.4744 -1.2506 -0.3525
 5269TIP3   OH237365   0.813   6.539   6.897 -0.0507 -0.3526 -0.1429
 5269TIP3    H137366   0.852   6.510   6.815 -1.1419 -0.8195 -0.5235
 5269TIP3    H237367   0.758   6.613   6.873 -0.4951 -0.5855  0.1346
 5270TIP3   OH237368   3.120   0.241   6.353  0.1118  0.0876 -0.1371
 5270TIP3    H137369   3.114   0.301   6.427 -1.0923  0.2426 -0.3385
 5270TIP3    H237370   3.156   0.295   6.282  0.3269  0.2020  0.0555
 5271TIP3   OH237371   0.110   3.589   7.824  0.4085  0.1367 -0.1763
 5271TIP3    H137372   0.176   3.629   7.881  0.8224 -0.9309  0.1053
 5271TIP3    H237373   0.156   3.572   7.742  0.4812 -0.5421 -0.0033
 5272TIP3   OH237374   6.483   2.209   0.016  0.0997 -0.0413 -0.6088
 5272TIP3    H137375   6.574   2.178   0.009  0.6677  0.5632  2.5927
 5272TIP3    H237376   6.449   2.165   0.093 -1.2616  2.1604  0.1332
 5273TIP3   OH237377   4.789   1.858   0.704 -0.5269 -0.5668 -0.4675
 5273TIP3    H137378   4.753   1.878   0.791  2.7734 -1.0017  1.1578
 5273TIP3    H237379   4.814   1.766   0.709  0.5939 -0.3406 -1.5148
 5274TIP3   OH237380   1.982   4.096   8.464 -0.3474 -0.0879  0.3543
 5274TIP3    H137381   2.022   4.018   8.426 -1.9747  0.3129 -2.3935
 5274TIP3    H237382   2.017   4.169   8.413 -0.8645  0.7560  1.1556
 5275TIP3   OH237383   5.608   5.272   0.999  0.8620  0.1553 -0.7872
 5275TIP3    H137384   5.591   5.338   0.932  0.5148  0.1545 -0.7042
 5275TIP3    H237385   5.562   5.305   1.077  1.0862  0.0533 -0.6124
 5276TIP3   OH237386   1.372   3.301   2.562  0.3127  0.1353  0.4770
 5276TIP3    H137387   1.295   3.299   2.618 -0.7156 -1.0989 -0.8973
 5276TIP3    H237388   1.411   3.214   2.571 -0.7797 -0.6818 -1.8188
 5277TIP3   OH237389   0.181   4.879   1.865  0.5062 -0.3162 -0.2136
 5277TIP3    H137390   0.144   4.839   1.786  0.9703 -0.8563 -0.1616
 5277TIP3    H237391   0.107   4.884   1.926  0.0250  0.5459 -0.8366
 5278TIP3   OH237392   6.085   1.722   1.120  0.4443 -0.4803 -0.0227
 5278TIP3    H137393   6.142   1.696   1.048 -0.8417  2.0762 -2.1631
 5278TIP3    H237394   6.011   1.661   1.115  0.6502 -0.6973 -0.4908
 5279TIP3   OH237395   1.780   3.191   7.651 -0.2200  0.0748  0.1534
 5279TIP3    H137396   1.799   3.280   7.682  2.1511 -0.7304  1.3076
 5279TIP3    H237397   1.742   3.147   7.727  1.3572 -0.6641  0.5472
 5280TIP3   OH237398   6.517   4.918   0.517  0.0896 -0.1611  0.0256
 5280TIP3    H137399   6.560   4.923   0.602 -1.0105 -1.4173  0.6910
 5280TIP3    H237400   6.424   4.911   0.537 -0.4551  2.0262 -1.3681
 5281TIP3   OH237401   6.606   3.946   6.500 -0.6706  0.0355 -0.5587
 5281TIP3    H137402   6.686   3.975   6.545 -0.9278  1.2809 -0.8619
 5281TIP3    H237403   6.567   3.881   6.559  0.5871 -0.6326 -0.4331
 5282TIP3   OH237404   4.265   0.298   7.779  0.1227  0.8939  0.0690
 5282TIP3    H137405   4.359   0.296   7.766  0.4771  2.1079  2.0208
 5282TIP3    H237406   4.244   0.213   7.818  0.4856  0.7908  0.0402
 5283TIP3   OH237407   1.488   6.189   0.728 -0.4188  0.2307 -0.1141
 5283TIP3    H137408   1.498   6.122   0.660 -1.1902  1.5844 -1.6257
 5283TIP3    H237409   1.576   6.199   0.764  0.1597 -0.0807 -1.3603
 5284TIP3   OH237410   6.614   1.434   0.913 -0.6403  0.0875  0.5021
 5284TIP3    H137411   6.562   1.353   0.906 -0.5075  0.1129 -1.7182
 5284TIP3    H237412   6.695   1.407   0.956 -0.2587 -1.1873 -0.9337
 5285TIP3   OH237413   6.677   2.580   1.429 -0.3158  0.0106 -0.0995
 5285TIP3    H137414   6.745   2.546   1.487 -0.4277 -0.5090 -0.2658
 5285TIP3    H237415   6.653   2.665   1.467  0.0264 -0.0543  0.2731
 5286TIP3   OH237416   6.718   6.714   1.292  0.1825 -0.8092  0.6577
 5286TIP3    H137417   6.715   6.809   1.281 -1.4922 -0.8570  0.4356
 5286TIP3    H237418   6.678   6.698   1.378  2.1096 -1.2233  1.5235
 5287TIP3   OH237419   2.998   6.467   1.360 -0.2717  0.5203  0.0062
 5287TIP3    H137420   2.907   6.440   1.371 -0.0374  0.1599  1.2414
 5287TIP3    H237421   2.994   6.563   1.351 -0.9157  0.3354 -2.0504
 5288TIP3   OH237422   0.888   4.859   2.638  0.5578 -0.3290  0.5108
 5288TIP3    H137423   0.861   4.882   2.549  0.7777 -0.2839  0.4547
 5288TIP3    H237424   0.808   4.829   2.680  0.7863 -2.1949 -0.2829
 5289TIP3   OH237425   4.790   6.696   2.221  0.7325 -0.0364  0.1075
 5289TIP3    H137426   4.812   6.639   2.295  1.4567  0.2201  0.0970
 5289TIP3    H237427   4.789   6.637   2.145 -0.0761 -0.3124  0.3184
 5290TIP3   OH237428   2.782   1.275   1.017  0.1905  0.6469 -0.0862
 5290TIP3    H137429   2.842   1.203   1.038 -0.2524 -0.4905 -2.4210
 5290TIP3    H237430   2.835   1.354   1.028  1.7531 -0.2485 -0.8489
 5291TIP3   OH237431   5.200   1.331   7.511 -0.3306 -0.7252 -0.1241
 5291TIP3    H137432   5.292   1.330   7.540 -0.1376  1.4953 -0.4852
 5291TIP3    H237433   5.150   1.313   7.591  0.3589  0.3022  0.5640
 5292TIP3   OH237434   5.205   0.305   7.618  0.1933 -0.2082  0.6405
 5292TIP3    H137435   5.166   0.392   7.612 -0.7864 -0.6501  0.4131
 5292TIP3    H237436   5.297   0.321   7.641  0.0856  0.8857  0.3483
 5293TIP3   OH237437   4.738   2.727   1.681  0.2458 -0.0505 -0.1313
 5293TIP3    H137438   4.821   2.705   1.637  0.4996  0.7700 -0.0823
 5293TIP3    H237439   4.753   2.814   1.719 -0.5984  0.0556 -0.0154
 5294TIP3   OH237440   2.885   5.327   0.384  0.0947  0.2938  0.0255
 5294TIP3    H137441   2.843   5.267   0.323 -0.7353 -0.0196  0.8736
 5294TIP3    H237442   2.857   5.414   0.356 -1.2622  0.0815  0.6561
 5295TIP3   OH237443   0.251   6.347   7.571  0.1210  0.0970 -0.5205
 5295TIP3    H137444   0.209   6.401   7.504  1.6981  1.1594 -0.7183
 5295TIP3    H237445   0.342   6.377   7.572 -0.0266  0.7981  2.7379
 5296TIP3   OH237446   6.235   3.238   7.636  0.1852 -0.8826 -0.2366
 5296TIP3    H137447   6.323   3.205   7.614 -0.5173 -2.3057 -1.0705
 5296TIP3    H237448   6.236   3.329   7.605  0.4305 -1.7503 -3.0567
 5297TIP3   OH237449   5.667   6.413   1.217 -0.1372 -0.7611 -0.0590
 5297TIP3    H137450   5.744   6.388   1.166  0.1087  0.0623 -0.1060
 5297TIP3    H237451   5.616   6.469   1.157  1.0307  1.7185  1.1096
 5298TIP3   OH237452   5.781   4.418   0.582 -0.4696 -0.1560  0.6023
 5298TIP3    H137453   5.841   4.487   0.612 -0.9724  0.8999 -0.7240
 5298TIP3    H237454   5.755   4.445   0.494 -1.4275 -1.5742  0.4143
 5299TIP3   OH237455   0.781   0.660   1.368  0.1883  0.3310  0.2557
 5299TIP3    H137456   0.766   0.705   1.451  2.0509 -0.5382  1.1223
 5299TIP3    H237457   0.810   0.572   1.393 -0.4032 -0.3779 -1.3557
 5300TIP3   OH237458   3.502   2.486   0.087  0.2691  0.2523 -0.3222
 5300TIP3    H137459   3.587   2.512   0.122 -1.0248  1.0192  2.6039
 5300TIP3    H237460   3.505   2.391   0.084  1.2504  0.2728 -0.3227
 5301TIP3   OH237461   0.659   4.001   2.956 -0.3195 -0.2891  0.5303
 5301TIP3    H137462   0.648   4.003   2.861 -1.0213 -3.1180  0.4503
 5301TIP3    H237463   0.678   4.091   2.980  0.2996  0.4445 -2.3327
 5302TIP3   OH237464   5.100   5.474   7.939  0.0900  0.6636 -0.6318
 5302TIP3    H137465   5.119   5.442   7.850  0.0653 -0.3999 -0.2710
 5302TIP3    H237466   5.124   5.400   7.996 -0.7142  1.0155  0.1839
 5303TIP3   OH237467   6.351   3.891   7.517 -0.6634  0.1208  0.5613
 5303TIP3    H137468   6.400   3.965   7.481 -0.2366 -0.3475  0.1537
 5303TIP3    H237469   6.284   3.872   7.451 -0.6415  0.0164  0.5682
 5304TIP3   OH237470   4.609   1.990   0.893  0.1812  0.2061 -0.0546
 5304TIP3    H137471   4.545   2.062   0.896  0.5606  0.5179  0.6678
 5304TIP3    H237472   4.611   1.955   0.982 -0.2552 -0.9428 -0.4719
 5305TIP3   OH237473   0.986   2.475   8.202 -0.9293  0.2015  0.1716
 5305TIP3    H137474   1.015   2.563   8.178 -2.1521  0.9102  1.1557
 5305TIP3    H237475   0.918   2.490   8.268 -2.6845 -1.3902 -1.1705
 5306TIP3   OH237476   2.878   2.677   7.818 -0.3992 -0.3970 -0.8414
 5306TIP3    H137477   2.796   2.692   7.865  0.9125  2.1526  0.9143
 5306TIP3    H237478   2.851   2.659   7.728 -2.8908 -0.1598 -0.2204
 5307TIP3   OH237479   5.331   3.498   0.512 -0.4508 -0.1509  0.2278
 5307TIP3    H137480   5.343   3.590   0.537 -1.3869  0.3911 -1.2027
 5307TIP3    H237481   5.239   3.492   0.486 -0.1085 -1.2005 -0.8327
 5308TIP3   OH237482   0.930   6.782   0.768  0.1431  0.0965  0.5311
 5308TIP3    H137483   0.971   6.705   0.807  1.7012  1.6389  2.1545
 5308TIP3    H237484   0.881   6.822   0.840  2.7942  2.8213  1.0383
 5309TIP3   OH237485   0.583   6.003   7.943  0.3550 -0.2940  0.2408
 5309TIP3    H137486   0.631   5.940   7.998 -0.7491 -1.0390  0.3880
 5309TIP3    H237487   0.518   6.042   8.001 -0.3417 -0.5502 -0.3456
 5310TIP3   OH237488   2.899   1.378   7.448  0.0295  0.1065  0.0727
 5310TIP3    H137489   2.971   1.327   7.411  0.1632  0.1413  0.2799
 5310TIP3    H237490   2.849   1.408   7.372 -0.5353 -1.0270 -0.0143
 5311TIP3   OH237491   0.842   6.497   0.359 -0.5709  0.2233  0.8045
 5311TIP3    H137492   0.899   6.572   0.373 -0.8789  0.5564  0.3318
 5311TIP3    H237493   0.820   6.501   0.265 -2.4502  0.9024  1.2250
 5312TIP3   OH237494   2.294   2.505   0.071 -0.4652 -0.7472 -0.2632
 5312TIP3    H137495   2.309   2.508   0.165 -2.2894 -1.8927  0.1291
 5312TIP3    H237496   2.332   2.421   0.043 -0.1761 -0.5406 -0.4933
 5313TIP3   OH237497   1.581   1.930   0.117  0.0749 -0.0753 -0.1625
 5313TIP3    H137498   1.665   1.887   0.139 -0.7711 -1.3013  0.8227
 5313TIP3    H237499   1.523   1.907   0.190 -0.5017  2.6582  0.3339
 5314TIP3   OH237500   5.002   3.779   7.399  0.0711 -0.0930  0.3722
 5314TIP3    H137501   5.090   3.803   7.369 -0.9609  1.5850 -1.6118
 5314TIP3    H237502   4.952   3.860   7.392 -1.4098 -0.7546  2.4989
 5315TIP3   OH237503   2.117   3.636   8.278 -0.1181 -0.7040 -0.5907
 5315TIP3    H137504   2.076   3.549   8.274  0.9342 -1.2384 -0.2317
 5315TIP3    H237505   2.204   3.620   8.316 -0.4102  0.6957  0.7390
 5316TIP3   OH237506   0.759   5.840   1.924 -0.0782 -0.3025 -0.6254
 5316TIP3    H137507   0.779   5.749   1.947 -1.6179 -1.0874 -2.1395
 5316TIP3    H237508   0.838   5.871   1.881  0.0344 -1.3923 -1.2621
 5317TIP3   OH237509   0.579   2.929   7.228  0.5112 -0.1977 -0.0146
 5317TIP3    H137510   0.571   2.869   7.302  0.5531  0.4362  0.5133
 5317TIP3    H237511   0.496   2.918   7.180 -0.1001  0.3598  0.8786
 5318TIP3   OH237512   0.315   6.410   8.396 -0.2104  0.6700 -0.3963
 5318TIP3    H137513   0.263   6.329   8.393  0.6374  0.0725  0.4185
 5318TIP3    H237514   0.251   6.479   8.412 -1.2955  0.5345 -3.4913
 5319TIP3   OH237515   2.080   5.527   0.778  0.0083  0.6070  0.3658
 5319TIP3    H137516   2.050   5.453   0.727 -1.3443  2.0664 -1.0921
 5319TIP3    H237517   2.038   5.517   0.864 -0.2868 -0.2139  0.1253
 5320TIP3   OH237518   0.105   2.641   1.159 -0.0566 -0.6587 -0.5148
 5320TIP3    H137519   0.179   2.619   1.103 -0.2923 -1.7266 -0.4294
 5320TIP3    H237520   0.071   2.557   1.189  0.0606 -0.1190  1.2573
 5321TIP3   OH237521   0.107   2.806   7.336  0.1713 -0.2074 -0.6610
 5321TIP3    H137522   0.149   2.851   7.409 -1.3569  0.6874 -0.2833
 5321TIP3    H237523   0.175   2.750   7.300  1.4210  0.5416  0.4391
 5322TIP3   OH237524   1.384   1.841   7.519 -0.2776  0.1978  0.0306
 5322TIP3    H137525   1.406   1.850   7.612 -0.6449  0.1165  0.1259
 5322TIP3    H237526   1.289   1.832   7.517 -0.1295 -1.9384 -0.1759
 5323TIP3   OH237527   1.541   3.240   1.914  0.5983  0.2920 -0.3521
 5323TIP3    H137528   1.510   3.187   1.841  1.0651 -0.8619  0.2495
 5323TIP3    H237529   1.531   3.184   1.991 -0.5818  1.7359  0.6116
 5324TIP3   OH237530   4.652   0.070   8.640  0.3126 -0.2852 -0.2507
 5324TIP3    H137531   4.677   0.116   8.720  0.0292  0.5404 -0.6238
 5324TIP3    H237532   4.674   0.131   8.569 -0.9024 -0.3387 -0.7001
 5325TIP3   OH237533   4.164   2.291   0.537  0.0579  0.2402  0.2994
 5325TIP3    H137534   4.104   2.223   0.566  0.6657  0.0945  1.2744
 5325TIP3    H237535   4.108   2.369   0.526 -0.4132 -0.0561  0.5575
 5326TIP3   OH237536   2.290   6.155   7.221  0.0657 -0.7516  0.3279
 5326TIP3    H137537   2.317   6.090   7.286  2.3103 -1.1401 -0.8870
 5326TIP3    H237538   2.328   6.125   7.139  0.7323  1.7652 -0.3963
 5327TIP3   OH237539   5.575   3.805   0.459  0.3265  0.3162 -0.9487
 5327TIP3    H137540   5.559   3.873   0.394 -0.9278 -1.0578 -2.1383
 5327TIP3    H237541   5.495   3.802   0.511  1.5408  1.8582  1.2257
 5328TIP3   OH237542   1.638   1.699   8.582 -0.1597 -0.0309  1.0238
 5328TIP3    H137543   1.557   1.720   8.536  0.6683 -1.0058 -1.0340
 5328TIP3    H237544   1.680   1.783   8.597 -0.3643  0.3256 -0.2566
 5329TIP3   OH237545   6.390   5.960   6.853  0.0131 -0.0201 -0.3859
 5329TIP3    H137546   6.406   6.055   6.852  0.4203 -0.0869 -0.0898
 5329TIP3    H237547   6.468   5.922   6.813  1.0230 -0.4056  1.8275
 5330TIP3   OH237548   6.844   2.391   1.527 -0.4968  0.6076 -0.1046
 5330TIP3    H137549   6.777   2.323   1.536 -1.3675  1.6326  2.0075
 5330TIP3    H237550   6.877   2.403   1.616  1.7788  0.8900 -0.9217
 5331TIP3   OH237551   2.965   0.408   8.188  0.2956 -0.0345  0.8828
 5331TIP3    H137552   2.875   0.397   8.159  1.0056  0.1975 -1.6696
 5331TIP3    H237553   2.958   0.439   8.278 -2.1722  0.2819  0.6466
 5332TIP3   OH237554   3.453   2.241   1.408  0.3182 -0.3063  0.1751
 5332TIP3    H137555   3.480   2.149   1.415  0.1427 -0.3017  0.9513
 5332TIP3    H237556   3.368   2.236   1.363  1.2348 -0.3622 -1.6612
 5333TIP3   OH237557   1.942   1.424   1.925 -0.6199  0.0794  0.0691
 5333TIP3    H137558   1.962   1.339   1.964  1.2514  1.2727  1.9632
 5333TIP3    H237559   1.967   1.487   1.992 -0.2220  2.2106 -1.9536
 5334TIP3   OH237560   2.351   2.645   0.915  0.6548 -0.2176  0.0324
 5334TIP3    H137561   2.420   2.673   0.975  0.6153 -3.2587  1.6536
 5334TIP3    H237562   2.278   2.619   0.971 -1.1807  1.1007 -1.5749
 5335TIP3   OH237563   0.903   1.509   1.761 -0.3827 -0.9445  0.3520
 5335TIP3    H137564   0.917   1.514   1.856 -1.3673  0.3094  0.4424
 5335TIP3    H237565   0.986   1.539   1.723  0.3464 -2.3138  0.7700
 5336TIP3   OH237566   5.572   1.908   7.376  0.5441  0.0513  0.0797
 5336TIP3    H137567   5.557   1.919   7.469 -0.2955 -0.7590  0.0562
 5336TIP3    H237568   5.577   1.998   7.342 -1.3620  0.3989  0.5759
 5337TIP3   OH237569   4.583   6.482   2.882  0.0213  0.5580 -0.4815
 5337TIP3    H137570   4.521   6.536   2.834  0.6167  0.4087 -1.4373
 5337TIP3    H237571   4.530   6.411   2.919 -0.4970  0.8637 -0.6294
 5338TIP3   OH237572   4.132   3.049   1.925  0.0529 -0.0344  0.1813
 5338TIP3    H137573   4.191   2.989   1.878 -1.8876 -1.5710 -0.4381
 5338TIP3    H237574   4.067   2.992   1.965 -0.2168  1.5043  2.0785
 5339TIP3   OH237575   6.781   1.973   0.434  0.1011  0.6025  0.6371
 5339TIP3    H137576   6.825   1.909   0.490  1.0573  0.7107  0.0287
 5339TIP3    H237577   6.691   1.976   0.468  1.1479  2.2954  3.6057
 5340TIP3   OH237578   3.117   4.442   1.655 -0.0470  0.2410 -0.1597
 5340TIP3    H137579   3.173   4.448   1.577 -0.6144  3.4904 -0.4764
 5340TIP3    H237580   3.173   4.472   1.726 -0.6386  1.0710 -0.0340
 5341TIP3   OH237581   2.983   3.678   8.050  0.2555  0.3263 -0.4279
 5341TIP3    H137582   2.986   3.752   7.989  2.9137  0.1611 -0.6144
 5341TIP3    H237583   3.010   3.715   8.134 -0.7463  0.0097  0.0480
 5342TIP3   OH237584   4.139   1.427   0.120 -0.4458 -0.4283  0.1725
 5342TIP3    H137585   4.058   1.375   0.117 -0.0168 -1.1576  0.8786
 5342TIP3    H237586   4.209   1.362   0.124  0.2720  0.1774 -1.6498
 5343TIP3   OH237587   4.978   3.627   1.414  0.3317  0.6765 -0.0575
 5343TIP3    H137588   4.909   3.687   1.441  2.0334  2.4444  0.6151
 5343TIP3    H237589   5.038   3.624   1.488  0.3724 -1.8603 -0.1014
 5344TIP3   OH237590   2.946   0.168   2.768 -0.3240 -0.6428 -0.2491
 5344TIP3    H137591   3.007   0.224   2.720 -0.0845 -0.3666  0.3660
 5344TIP3    H237592   2.915   0.223   2.840 -0.6240 -1.0773 -0.0399
 5345TIP3   OH237593   5.093   5.400   6.676 -0.4636  0.3486 -0.1182
 5345TIP3    H137594   5.120   5.346   6.602  1.5825  2.0160 -0.6975
 5345TIP3    H237595   5.010   5.363   6.704  0.8991 -3.2167 -0.3106
 5346TIP3   OH237596   4.781   6.276   0.215  0.1380  0.3374 -0.4664
 5346TIP3    H137597   4.780   6.221   0.293  0.1021 -1.2095 -1.5056
 5346TIP3    H237598   4.860   6.249   0.168  0.5562  1.7676 -0.6229
 5347TIP3   OH237599   1.627   1.976   8.528 -0.4614  0.5802  0.5449
 5347TIP3    H137600   1.636   1.955   8.621  0.1028 -0.2171  0.3248
 5347TIP3    H237601   1.568   2.051   8.525 -2.6072 -1.0046  1.3786
 5348TIP3   OH237602   0.992   3.504   2.495 -0.3656 -0.5783 -0.2871
 5348TIP3    H137603   1.083   3.530   2.510 -0.4300 -0.9283  0.8565
 5348TIP3    H237604   0.953   3.577   2.449  0.4825 -0.3977 -0.7321
 5349TIP3   OH237605   6.122   3.461   1.313 -0.7211 -0.1921 -0.6239
 5349TIP3    H137606   6.137   3.367   1.317  1.1107  0.0626 -0.9480
 5349TIP3    H237607   6.037   3.470   1.269 -1.2261 -1.6848 -0.0199
 5350TIP3   OH237608   4.275   1.756   7.507 -0.0658 -0.4983  0.0628
 5350TIP3    H137609   4.348   1.742   7.447 -0.1903  0.4195 -0.3223
 5350TIP3    H237610   4.300   1.835   7.556 -1.2339  0.4238 -0.7764
 5351TIP3   OH237611   0.445   4.428   1.145  0.5193 -0.5416  1.1321
 5351TIP3    H137612   0.488   4.507   1.178  1.0051 -0.6158  0.6882
 5351TIP3    H237613   0.516   4.375   1.110 -0.1110  0.3701 -1.8077
 5352TIP3   OH237614   5.129   5.375   7.686 -0.4112 -0.0106  0.1634
 5352TIP3    H137615   5.044   5.363   7.643  0.2054 -0.4120 -0.9774
 5352TIP3    H237616   5.180   5.426   7.623 -0.7258  2.8977  2.0438
 5353TIP3   OH237617   0.259   5.340   7.229 -0.6031  0.6454  0.2180
 5353TIP3    H137618   0.292   5.370   7.313 -2.1570  0.0857  1.0709
 5353TIP3    H237619   0.231   5.420   7.184 -2.5254  0.7579  1.4986
 5354TIP3   OH237620   4.530   3.534   0.001 -0.4206 -0.0379  0.3096
 5354TIP3    H137621   4.604   3.579  -0.039 -0.2796 -1.0103 -0.5892
 5354TIP3    H237622   4.454   3.586  -0.024 -0.2435 -0.1682 -0.5466
 5355TIP3   OH237623   0.959   6.704   7.209  0.3191 -0.6256  0.2182
 5355TIP3    H137624   0.873   6.682   7.173 -1.4716  1.8556  2.5205
 5355TIP3    H237625   0.958   6.668   7.298  0.1996  2.1186  1.4490
 5356TIP3   OH237626   5.082   2.911   0.273 -0.0932  0.5668 -0.3717
 5356TIP3    H137627   5.166   2.867   0.285 -0.3651 -0.1329 -0.9748
 5356TIP3    H237628   5.022   2.862   0.329  0.0207  1.4704  0.5714
 5357TIP3   OH237629   0.618   1.109   7.548 -0.3131  0.2023 -0.1820
 5357TIP3    H137630   0.677   1.058   7.493 -0.7892  0.2660 -0.7564
 5357TIP3    H237631   0.539   1.057   7.555  0.3333 -0.6319  1.8965
 5358TIP3   OH237632   2.858   0.450   7.181  0.5171 -0.3157 -0.3437
 5358TIP3    H137633   2.884   0.534   7.219 -2.2762 -0.5099  2.3061
 5358TIP3    H237634   2.816   0.473   7.098 -0.7674  1.0316  0.6339
 5359TIP3   OH237635   5.104   5.578   2.898  0.1329 -0.1172 -0.1105
 5359TIP3    H137636   5.014   5.547   2.901  0.3217 -0.7173 -0.3993
 5359TIP3    H237637   5.097   5.674   2.902 -0.5912 -0.0895 -1.4312
 5360TIP3   OH237638   0.469   6.257   0.997  0.3575 -0.3125 -0.4419
 5360TIP3    H137639   0.511   6.247   0.911 -0.7877  0.8236 -1.1709
 5360TIP3    H237640   0.412   6.180   1.005  0.8593 -0.6905 -0.4542
 5361TIP3   OH237641   5.601   1.865   0.020 -0.0522 -0.3862 -0.3549
 5361TIP3    H137642   5.583   1.919   0.097 -0.9268 -0.7074 -0.3113
 5361TIP3    H237643   5.629   1.781   0.056 -0.7947 -0.6473 -0.3709
 5362TIP3   OH237644   5.347   4.893   7.971 -0.2281  0.8211  0.0629
 5362TIP3    H137645   5.294   4.821   7.937  1.2462  0.4662 -1.6407
 5362TIP3    H237646   5.432   4.853   7.990  0.6537  2.1007 -1.0208
 5363TIP3   OH237647   5.532   2.300   0.958  0.4769 -0.2412 -0.0425
 5363TIP3    H137648   5.482   2.269   1.034  0.6161  0.1798  0.2299
 5363TIP3    H237649   5.480   2.273   0.883 -0.6538  0.9755  0.2570
 5364TIP3   OH237650   1.273   3.110   7.511 -0.4546  0.4837  0.3329
 5364TIP3    H137651   1.218   3.041   7.473 -1.5608  1.3665  0.2979
 5364TIP3    H237652   1.248   3.189   7.464  0.3559  1.0311  0.8041
 5365TIP3   OH237653   4.047   0.535   1.605  0.5824 -0.4445 -0.7621
 5365TIP3    H137654   4.064   0.464   1.543 -0.6551 -1.9795  0.5477
 5365TIP3    H237655   4.128   0.545   1.654  0.9691 -0.5114 -1.3894
 5366TIP3   OH237656   1.720   1.244   1.307 -0.5993  0.2534 -0.3138
 5366TIP3    H137657   1.651   1.181   1.288 -0.4043  0.3283 -1.3664
 5366TIP3    H237658   1.692   1.325   1.264 -1.0993  1.0622  1.4699
 5367TIP3   OH237659   4.645   4.645   0.801  0.0468  0.4755 -0.1330
 5367TIP3    H137660   4.575   4.703   0.770  0.8350  1.1539 -0.6904
 5367TIP3    H237661   4.622   4.626   0.892 -1.3749 -0.1152 -0.5902
 5368TIP3   OH237662   6.489   2.988   8.557 -1.0528 -0.1239 -0.1669
 5368TIP3    H137663   6.547   2.912   8.553  0.8911  1.3315 -1.5725
 5368TIP3    H237664   6.416   2.960   8.611  0.2316 -2.5575  0.4306
 5369TIP3   OH237665   6.707   0.566   8.565  0.2013 -0.1357 -0.5166
 5369TIP3    H137666   6.736   0.548   8.476 -2.2160 -0.4533 -1.3119
 5369TIP3    H237667   6.618   0.600   8.555 -0.0954 -0.0580  1.7861
 5370TIP3   OH237668   4.503   1.893   1.144 -0.2686 -0.0161 -0.4701
 5370TIP3    H137669   4.536   1.983   1.148 -1.1584  0.3106 -0.0727
 5370TIP3    H237670   4.536   1.851   1.223 -1.8967  0.7225  0.6632
 5371TIP3   OH237671   0.923   1.537   0.392  0.3402  0.0165 -0.1962
 5371TIP3    H137672   0.918   1.500   0.480 -0.0980  0.5981  0.0327
 5371TIP3    H237673   1.015   1.526   0.366  0.4903 -0.0780  0.3645
 5372TIP3   OH237674   6.718   0.111   1.675 -0.7298  0.1290 -0.6338
 5372TIP3    H137675   6.635   0.134   1.635 -0.6362  0.1099 -0.8395
 5372TIP3    H237676   6.694   0.060   1.752 -0.9782  1.6231  0.3260
 5373TIP3   OH237677   3.192   0.697   7.280 -0.4051  0.1598  0.0325
 5373TIP3    H137678   3.270   0.665   7.325  0.4854 -0.9504 -2.1778
 5373TIP3    H237679   3.127   0.709   7.350  1.0139 -1.0861  1.6414
 5374TIP3   OH237680   1.381   3.034   0.361  0.0980  0.2900 -0.5836
 5374TIP3    H137681   1.349   3.079   0.439  1.2893 -1.0804  0.7532
 5374TIP3    H237682   1.448   3.093   0.324 -0.5809  1.0114 -0.6955
 5375TIP3   OH237683   5.523   5.405   0.323  0.7109  0.3777 -0.3161
 5375TIP3    H137684   5.591   5.370   0.267  1.3504  1.0429  0.0222
 5375TIP3    H237685   5.441   5.380   0.281  1.1639 -0.3398 -0.7815
 5376TIP3   OH237686   4.930   0.832   1.273 -0.5094 -0.1095  0.5264
 5376TIP3    H137687   5.023   0.848   1.256 -0.6639  0.0984 -0.1798
 5376TIP3    H237688   4.922   0.737   1.268 -0.6897 -0.0373 -1.5448
 5377TIP3   OH237689   2.796   3.197   8.121  0.2044 -0.5336 -0.0068
 5377TIP3    H137690   2.879   3.191   8.074  0.1052 -0.3714 -0.2050
 5377TIP3    H237691   2.792   3.288   8.150  0.7557 -0.8809  1.2247
 5378TIP3   OH237692   6.870   1.567   0.128 -0.1361  0.3238 -0.1933
 5378TIP3    H137693   6.930   1.639   0.147  0.6643 -0.2220 -0.5839
 5378TIP3    H237694   6.927   1.497   0.094 -0.6067 -1.1234  1.7782
 5379TIP3   OH237695   1.131   0.689   8.008  0.4791 -0.4916 -0.3838
 5379TIP3    H137696   1.191   0.692   7.934  1.2646  0.9026  0.2697
 5379TIP3    H237697   1.161   0.758   8.067 -0.9123 -0.7011  0.6415
 5380TIP3   OH237698   0.847   1.850   6.651  0.3151 -0.8481  0.6339
 5380TIP3    H137699   0.771   1.850   6.593  0.8235 -0.5497 -0.0586
 5380TIP3    H237700   0.906   1.916   6.613 -0.1754  0.8428  2.6305
 5381TIP3   OH237701   1.858   3.417   1.109  0.1938 -0.1450 -0.6649
 5381TIP3    H137702   1.916   3.362   1.162 -0.0035  0.5513  0.3015
 5381TIP3    H237703   1.904   3.501   1.103 -1.0397  0.6783  0.7842
 5382TIP3   OH237704   0.862   6.350   6.681  0.3682  0.3555 -0.0284
 5382TIP3    H137705   0.872   6.257   6.660  0.1291  0.7065 -1.7939
 5382TIP3    H237706   0.911   6.396   6.613 -2.5021  1.6371 -1.4050
 5383TIP3   OH237707   1.597   6.041   0.494 -0.5538  0.9238 -0.1868
 5383TIP3    H137708   1.604   5.957   0.449  1.1563  0.9759 -0.0955
 5383TIP3    H237709   1.503   6.061   0.495 -1.1110 -1.4838  0.7517
 5384TIP3   OH237710   1.180   4.180   8.484 -0.1609 -0.2951  0.5634
 5384TIP3    H137711   1.223   4.150   8.404 -0.0943 -0.0290  0.4976
 5384TIP3    H237712   1.252   4.200   8.544 -0.0967  1.7215 -0.0993
 5385TIP3   OH237713   0.693   6.704   7.136 -0.3751  0.0844 -0.9655
 5385TIP3    H137714   0.616   6.650   7.149 -0.4247  0.1173 -1.1215
 5385TIP3    H237715   0.699   6.716   7.042  0.6251 -1.0971 -1.0883
 5386TIP3   OH237716   1.493   4.203   8.297  0.8517  0.7340 -0.3749
 5386TIP3    H137717   1.463   4.281   8.344 -2.1467 -1.6351  2.0921
 5386TIP3    H237718   1.530   4.147   8.365 -1.4813 -1.8887 -1.0837
 5387TIP3   OH237719   2.460   4.083   6.746  0.3774  0.0245 -0.5106
 5387TIP3    H137720   2.522   4.046   6.808  0.8057 -1.5903 -1.8411
 5387TIP3    H237721   2.491   4.172   6.731  1.5590 -0.2931 -0.0706
 5388TIP3   OH237722   5.956   5.953   0.003  0.2792 -0.3806 -0.4019
 5388TIP3    H137723   5.942   5.883  -0.061  1.5804 -1.2480  0.2013
 5388TIP3    H237724   6.009   5.911   0.071  4.6531  2.0512 -1.8781
 5389TIP3   OH237725   2.012   0.050   0.899 -0.0184 -0.6624 -0.3794
 5389TIP3    H137726   2.096   0.011   0.921  0.2369  0.7686  1.4587
 5389TIP3    H237727   2.026   0.145   0.906 -1.6930 -0.3771 -0.2769
 5390TIP3   OH237728   5.433   5.967   0.212  0.6003 -0.0840  0.2749
 5390TIP3    H137729   5.458   5.884   0.170 -1.7818  0.0064 -1.5409
 5390TIP3    H237730   5.422   6.028   0.139  1.9968  1.8154  1.5561
 5391TIP3   OH237731   1.597   1.261   6.938 -0.2251 -0.1692 -0.3859
 5391TIP3    H137732   1.681   1.296   6.910  0.2881 -1.6557 -0.7895
 5391TIP3    H237733   1.540   1.338   6.947  0.5724  0.6695 -2.1468
 5392TIP3   OH237734   2.687   4.807   1.984 -0.2279 -0.0362  0.1004
 5392TIP3    H137735   2.667   4.900   1.998 -3.6534 -0.5634 -0.4678
 5392TIP3    H237736   2.715   4.776   2.071  0.1387  1.3155  0.4977
 5393TIP3   OH237737   5.801   2.285   7.150 -0.3933  0.0742 -0.0598
 5393TIP3    H137738   5.890   2.315   7.131 -0.8235  2.1347  0.9437
 5393TIP3    H237739   5.747   2.363   7.144 -2.4290 -1.3496 -2.0020
 5394TIP3   OH237740   3.790   0.326   8.258 -0.0496 -0.4004  0.0011
 5394TIP3    H137741   3.754   0.304   8.173 -0.6585  0.8284 -0.0803
 5394TIP3    H237742   3.885   0.334   8.244 -0.2878  1.1702 -0.8910
 5395TIP3   OH237743   2.163   5.416   7.451  0.1672 -0.1491  0.1153
 5395TIP3    H137744   2.151   5.473   7.527 -0.6025  0.4949 -0.4795
 5395TIP3    H237745   2.078   5.373   7.441  0.4546 -0.6939 -0.0204
 5396TIP3   OH237746   3.203   4.485   1.223 -0.2269 -0.2410  0.4226
 5396TIP3    H137747   3.244   4.532   1.150  1.2109 -0.1156  1.2718
 5396TIP3    H237748   3.135   4.431   1.182  0.0706  0.3618 -0.9152
 5397TIP3   OH237749   0.623   2.677   0.489 -0.1369 -0.6536 -0.2024
 5397TIP3    H137750   0.667   2.663   0.405  0.9955 -0.7363  0.3855
 5397TIP3    H237751   0.685   2.644   0.554 -1.7389 -2.2963  0.5939
 5398TIP3   OH237752   4.799   1.932   1.549 -0.2589  0.0349  0.1967
 5398TIP3    H137753   4.825   2.011   1.597  0.4201 -0.4672  0.6733
 5398TIP3    H237754   4.772   1.871   1.617  0.3835 -0.5636 -0.0766
 5399TIP3   OH237755   5.934   5.131   1.845  0.4617  0.4168 -0.2350
 5399TIP3    H137756   5.941   5.217   1.885  0.2862 -0.5070  1.9584
 5399TIP3    H237757   6.021   5.111   1.813  1.4165  0.1007  2.2962
 5400TIP3   OH237758   2.104   4.368   7.761 -0.7784  0.0836  0.0336
 5400TIP3    H137759   2.104   4.429   7.835 -0.3716  0.9772 -0.6715
 5400TIP3    H237760   2.171   4.403   7.702  0.0675 -1.5402 -0.0134
 5401TIP3   OH237761   2.046   0.080   8.498  0.0991  0.0319  0.6127
 5401TIP3    H137762   2.094   0.133   8.561  0.0097  1.7785 -0.7247
 5401TIP3    H237763   2.029  -0.002   8.545 -0.0271  1.2573  2.8753
 5402TIP3   OH237764   2.677   4.916   8.290 -0.6780 -0.0513  0.5068
 5402TIP3    H137765   2.705   4.836   8.334  0.6314  0.3701  0.4953
 5402TIP3    H237766   2.745   4.931   8.223 -1.8720  0.0796 -0.7284
 5403TIP3   OH237767   4.341   0.405   0.679 -0.6889 -0.7007 -0.9018
 5403TIP3    H137768   4.389   0.370   0.604  0.7657  1.3910 -1.0224
 5403TIP3    H237769   4.255   0.362   0.674 -0.3451 -1.2797 -3.2423
 5404TIP3   OH237770   5.573   3.156   7.597 -0.6438  0.5695  0.1003
 5404TIP3    H137771   5.614   3.241   7.615 -0.9011  0.9281 -0.8795
 5404TIP3    H237772   5.483   3.179   7.571 -1.3195 -0.1566  1.7072
 5405TIP3   OH237773   5.882   5.824   2.459 -0.1885  0.1389 -0.1263
 5405TIP3    H137774   5.977   5.815   2.448 -0.1836  0.3073 -0.2200
 5405TIP3    H237775   5.869   5.827   2.554 -0.2398 -1.4225 -0.0583
 5406TIP3   OH237776   5.571   3.514   6.666  0.5342  0.4731  0.6008
 5406TIP3    H137777   5.649   3.459   6.660  0.3399  0.1312  1.0809
 5406TIP3    H237778   5.594   3.582   6.729  1.0168  1.3735 -0.5210
 5407TIP3   OH237779   4.574   2.256   0.203  0.1932  0.2554 -0.4588
 5407TIP3    H137780   4.500   2.201   0.230  1.8019 -1.2126  1.2777
 5407TIP3    H237781   4.553   2.343   0.237 -1.3187  0.1981 -1.1793
 5408TIP3   OH237782   1.537   6.115   8.345  0.0390 -0.3730  0.0695
 5408TIP3    H137783   1.506   6.118   8.435 -0.2218 -2.5130  0.1042
 5408TIP3    H237784   1.618   6.064   8.349 -0.3075 -1.0395 -0.9572
 5409TIP3   OH237785   5.490   3.021   0.772  0.8815  0.0435 -0.4243
 5409TIP3    H137786   5.554   2.961   0.733 -0.0734  0.0756 -2.1380
 5409TIP3    H237787   5.405   2.990   0.739  0.2890  1.7934 -0.6355
 5410TIP3   OH237788   1.528   5.843   7.766 -0.5445 -0.4618  0.3516
 5410TIP3    H137789   1.451   5.821   7.818 -0.7229 -0.0139  0.2833
 5410TIP3    H237790   1.602   5.814   7.819 -0.6245  1.6362  1.7028
 5411TIP3   OH237791   6.018   0.552   7.434  0.5746 -0.6473  0.2881
 5411TIP3    H137792   6.036   0.626   7.378 -0.7700 -1.3936 -1.2010
 5411TIP3    H237793   6.096   0.497   7.427  1.1696  0.1320  0.6319
 5412TIP3   OH237794   4.236   1.625   7.843 -0.4769  0.2185 -0.3188
 5412TIP3    H137795   4.209   1.541   7.881  0.7584 -0.1558 -0.2386
 5412TIP3    H237796   4.172   1.641   7.774 -0.9316 -0.6185 -0.1096
 5413TIP3   OH237797   6.738   4.467   2.260 -0.0783 -0.6978 -0.0460
 5413TIP3    H137798   6.794   4.525   2.310  1.1252  0.5139 -2.5990
 5413TIP3    H237799   6.665   4.448   2.318  1.1656  0.6505  2.0786
 5414TIP3   OH237800   4.816   0.036   0.794 -0.4755  0.6471  0.0576
 5414TIP3    H137801   4.848   0.088   0.868 -0.6087  0.3092  0.3557
 5414TIP3    H237802   4.744   0.087   0.759  0.3507  1.3985 -0.5945
 5415TIP3   OH237803   5.552   1.107   6.947  0.4405  0.1201 -0.7767
 5415TIP3    H137804   5.639   1.094   6.908  0.6152  1.8194 -1.0346
 5415TIP3    H237805   5.492   1.100   6.873  0.1932 -2.1536 -0.4382
 5416TIP3   OH237806   2.084   0.720   2.439  0.2428  0.4697  0.1288
 5416TIP3    H137807   2.013   0.710   2.376 -1.0150  1.0199  1.3909
 5416TIP3    H237808   2.084   0.638   2.488 -0.0614  0.7674  0.6397
 5417TIP3   OH237809   1.242   5.392   1.723 -0.1188 -0.1707  0.4675
 5417TIP3    H137810   1.206   5.319   1.673 -0.7802 -0.3754  1.2229
 5417TIP3    H237811   1.307   5.352   1.781 -0.1650 -0.1026  0.5675
 5418TIP3   OH237812   0.347   5.881   1.989 -0.2288  0.5841 -0.0505
 5418TIP3    H137813   0.353   5.912   1.899 -0.2741  2.1346  0.4471
 5418TIP3    H237814   0.429   5.910   2.030 -0.3805  0.2442  0.5112
 5419TIP3   OH237815   5.376   2.185   7.710  0.2334 -0.4326 -0.0187
 5419TIP3    H137816   5.453   2.128   7.708  1.1818  0.7851  0.6988
 5419TIP3    H237817   5.411   2.273   7.721 -1.2969  0.0704  1.3054
 5420TIP3   OH237818   0.404   6.590   6.883 -0.8645 -0.3042 -0.5125
 5420TIP3    H137819   0.341   6.634   6.827 -0.1249  1.1889 -0.2151
 5420TIP3    H237820   0.486   6.637   6.870 -0.4357 -0.5345  1.0714
 5421TIP3   OH237821   0.330   6.359   1.315 -0.4016  0.4779 -0.5179
 5421TIP3    H137822   0.275   6.400   1.381  0.0888 -1.2592  1.0875
 5421TIP3    H237823   0.285   6.374   1.232 -2.1998  0.8659  0.4867
 5422TIP3   OH237824   1.056   2.892   7.208 -0.4733  0.1452  0.1317
 5422TIP3    H137825   1.100   2.902   7.124 -0.7600  2.3881  0.1969
 5422TIP3    H237826   0.968   2.861   7.186 -0.2734 -0.1341 -0.2988
 5423TIP3   OH237827   1.854   0.829   7.327  0.7146  0.2609 -0.1288
 5423TIP3    H137828   1.896   0.875   7.254 -0.4869  1.6796  0.0199
 5423TIP3    H237829   1.882   0.877   7.405  0.4862 -0.0688  0.1587
 5424TIP3   OH237830   3.911   1.846   1.411  0.1834  0.2667 -0.4181
 5424TIP3    H137831   3.943   1.774   1.357 -2.1282 -1.2218  0.0448
 5424TIP3    H237832   3.816   1.840   1.404 -0.0913  2.4847  0.6986
 5425TIP3   OH237833   0.867   3.528   0.008  0.0525  0.1828 -0.6419
 5425TIP3    H137834   0.956   3.499   0.026  0.5734  1.6354 -0.7607
 5425TIP3    H237835   0.866   3.621   0.033 -2.1554 -0.3921  1.9177
 5426TIP3   OH237836   5.031   6.273   1.335  0.2204  0.1846 -0.4952
 5426TIP3    H137837   5.075   6.349   1.296 -1.1822  1.3255  0.0946
 5426TIP3    H237838   4.944   6.272   1.295  0.5023 -1.6726 -1.1711
 5427TIP3   OH237839   2.702   0.820   8.232  0.1701  0.1440 -0.1545
 5427TIP3    H137840   2.671   0.761   8.164  0.2274 -3.1682  2.4214
 5427TIP3    H237841   2.795   0.833   8.213  0.1199 -0.5026 -0.8549
 5428TIP3   OH237842   1.298   5.049   7.111  0.0961 -0.1822  0.1521
 5428TIP3    H137843   1.220   5.105   7.118  0.1014 -0.3067  1.4041
 5428TIP3    H237844   1.273   4.981   7.048 -1.4425 -1.1833  1.7388
 5429TIP3   OH237845   0.768   5.555   1.848 -0.6098  0.7186 -0.1655
 5429TIP3    H137846   0.855   5.553   1.887 -0.5456  0.1115 -0.3316
 5429TIP3    H237847   0.784   5.566   1.754 -0.6897  0.1050 -0.2558
 5430TIP3   OH237848   6.733   5.970   1.526 -0.1770  0.0904 -0.5223
 5430TIP3    H137849   6.800   5.948   1.591  0.5080  0.6805 -1.0129
 5430TIP3    H237850   6.765   5.934   1.444 -0.1735  0.8799 -0.8763
 5431TIP3   OH237851   5.524   5.813   0.740  0.5478  0.5163  0.0800
 5431TIP3    H137852   5.594   5.782   0.683  0.4586 -2.1910  1.3013
 5431TIP3    H237853   5.560   5.806   0.829 -0.7977  0.4305  0.6435
 5432TIP3   OH237854   5.545   6.806   1.502  0.6146  0.3350 -0.3347
 5432TIP3    H137855   5.559   6.711   1.500  0.1216  0.2638 -0.8525
 5432TIP3    H237856   5.472   6.818   1.562 -0.6095  0.1877 -1.7364
 5433TIP3   OH237857   3.604   1.509   0.840 -0.4655  0.0131 -0.1079
 5433TIP3    H137858   3.658   1.577   0.801 -1.1883 -0.1581 -1.4821
 5433TIP3    H237859   3.585   1.449   0.768 -1.0096 -0.8836  0.7534
 5434TIP3   OH237860   4.291   5.466   0.154 -0.4424  0.2282  0.8657
 5434TIP3    H137861   4.357   5.511   0.102 -1.3322  2.7978  1.8187
 5434TIP3    H237862   4.329   5.461   0.242 -0.8942  0.3094  1.0677
 5435TIP3   OH237863   1.790   5.576   0.206 -0.1280  0.7329 -0.6474
 5435TIP3    H137864   1.844   5.499   0.227  0.3714  0.9189 -1.2438
 5435TIP3    H237865   1.700   5.547   0.224  0.2290  0.8245  1.5744
 5436TIP3   OH237866   5.332   4.867   2.330 -0.1830 -0.0309 -0.1857
 5436TIP3    H137867   5.381   4.888   2.410  0.1894  0.3201 -0.5020
 5436TIP3    H237868   5.278   4.792   2.354  0.1354 -0.1029  0.3182
 5437TIP3   OH237869   4.808   2.732   0.105 -0.4462  0.2783  0.1114
 5437TIP3    H137870   4.772   2.689   0.027 -0.2726 -1.6462  1.0149
 5437TIP3    H237871   4.903   2.728   0.093 -0.4332  0.8758 -0.0134
 5438TIP3   OH237872   0.106   2.152   0.340  0.6619 -0.9041 -0.3482
 5438TIP3    H137873   0.045   2.084   0.369  2.0090 -2.7917 -1.7381
 5438TIP3    H237874   0.053   2.211   0.287 -0.3703 -1.2628  0.2552
 5439TIP3   OH237875   0.356   3.187   0.734  0.1827 -0.0007 -0.4169
 5439TIP3    H137876   0.353   3.108   0.680  1.7151 -1.5384  1.5689
 5439TIP3    H237877   0.279   3.180   0.790 -1.1087  1.3188 -1.9245
 5440TIP3   OH237878   6.327   0.839   0.294  0.1568 -0.0736  0.2546
 5440TIP3    H137879   6.303   0.747   0.293  1.7335 -0.4993 -0.1036
 5440TIP3    H237880   6.267   0.880   0.231  1.9303 -1.5499 -2.5619
 5441TIP3   OH237881   0.966   6.466   1.054 -0.2803  0.4488  0.0367
 5441TIP3    H137882   0.890   6.418   1.021  0.4750 -0.5541 -0.2956
 5441TIP3    H237883   1.005   6.506   0.976 -1.7622  2.9688  0.4757
 5442TIP3   OH237884   3.544   6.612   2.290  0.0558  0.1074  0.1394
 5442TIP3    H137885   3.544   6.549   2.363  1.3311 -0.6072 -0.4393
 5442TIP3    H237886   3.458   6.602   2.250 -0.1632 -0.4673  0.7309
 5443TIP3   OH237887   0.200   1.924   7.432 -0.1390 -0.0978 -0.1407
 5443TIP3    H137888   0.219   1.830   7.431 -2.3828 -0.6657  1.3349
 5443TIP3    H237889   0.236   1.955   7.515 -0.5542  0.0351 -0.0048
 5444TIP3   OH237890   3.622   4.021   8.549 -0.2113  0.5776  0.1010
 5444TIP3    H137891   3.573   4.069   8.615  0.7027  0.0215  1.2104
 5444TIP3    H237892   3.643   3.938   8.590  0.9580  0.4817 -0.6443
 5445TIP3   OH237893   3.830   3.789   1.404 -0.9669  0.4924 -0.6662
 5445TIP3    H137894   3.906   3.846   1.393 -0.7725  0.4256  0.2761
 5445TIP3    H237895   3.819   3.782   1.498  1.7120 -4.5453 -0.3735
 5446TIP3   OH237896   3.454   2.072   0.573 -0.2695 -0.4551  0.2837
 5446TIP3    H137897   3.446   2.118   0.490  0.6061 -1.6478 -0.4945
 5446TIP3    H237898   3.545   2.087   0.600 -0.8965  1.0729  1.7687
 5447TIP3   OH237899   4.158   3.534   0.906 -0.3429  0.5958  0.0747
 5447TIP3    H137900   4.228   3.581   0.951  1.6655 -1.1835 -1.0548
 5447TIP3    H237901   4.198   3.501   0.826 -3.0242  1.1566 -1.6198
 5448TIP3   OH237902   2.178   5.002   8.301  0.2689 -0.3973  0.3696
 5448TIP3    H137903   2.262   4.956   8.290  0.7188  0.2996  0.8040
 5448TIP3    H237904   2.147   4.975   8.387  0.4493 -0.0286  0.5521
 5449TIP3   OH237905   5.280   1.631   2.259  0.0249 -0.0220 -0.1552
 5449TIP3    H137906   5.281   1.697   2.329  0.1406 -0.5653  0.3581
 5449TIP3    H237907   5.334   1.560   2.292 -1.7718 -1.3000  0.2051
 5450TIP3   OH237908   6.621   5.455   2.520 -0.3657  0.4476 -0.1125
 5450TIP3    H137909   6.606   5.548   2.533  4.0915  1.0943  2.5729
 5450TIP3    H237910   6.602   5.416   2.606  1.7371 -0.3252  0.0655
 5451TIP3   OH237911   4.552   5.634   7.723 -0.2068 -0.2307  0.6731
 5451TIP3    H137912   4.598   5.603   7.801  0.6731 -0.3561  0.1259
 5451TIP3    H237913   4.526   5.723   7.744 -0.4542 -0.4538  1.3087
 5452TIP3   OH237914   0.847   4.259   7.194  1.1612  0.3163 -0.7010
 5452TIP3    H137915   0.780   4.235   7.258  2.6758 -0.8499  0.5209
 5452TIP3    H237916   0.797   4.293   7.120 -0.6750  1.9392  1.1239
 5453TIP3   OH237917   1.063   0.804   7.569  0.4535  0.0224  0.0687
 5453TIP3    H137918   1.136   0.756   7.609  1.4513  1.5329  0.1394
 5453TIP3    H237919   1.042   0.872   7.633 -1.6196 -0.8772  0.4397
 5454TIP3   OH237920   3.056   0.915   0.113  0.4861  0.1555  0.0902
 5454TIP3    H137921   3.012   0.962   0.184 -2.7640 -1.8894 -0.3530
 5454TIP3    H237922   3.100   0.842   0.157  2.0225  1.1993  0.3505
 5455TIP3   OH237923   5.271   6.258   7.588  0.4559 -0.0358 -0.5498
 5455TIP3    H137924   5.227   6.281   7.670  0.4025  1.8676 -1.0675
 5455TIP3    H237925   5.356   6.223   7.616 -0.0122 -0.5122  0.3400
 5456TIP3   OH237926   5.067   6.205   0.199  0.2957 -0.0422  0.0577
 5456TIP3    H137927   5.055   6.112   0.215 -0.3228  0.0681  0.2508
 5456TIP3    H237928   5.110   6.209   0.114 -1.5820 -0.4533 -0.9768
 5457TIP3   OH237929   3.915   6.883   8.068 -0.1488 -0.1281  0.2280
 5457TIP3    H137930   4.005   6.861   8.093 -0.1801  0.3217  0.7685
 5457TIP3    H237931   3.924   6.939   7.991  0.1945  1.9147  1.6546
 5458TIP3   OH237932   1.756   2.943   7.168 -0.3157  0.7965 -0.3102
 5458TIP3    H137933   1.727   3.016   7.113 -0.0823 -0.7731 -2.6380
 5458TIP3    H237934   1.808   2.984   7.237 -1.9338  2.9975 -0.2841
 5459TIP3   OH237935   1.987   6.060   8.350  0.4241  0.2481  0.5019
 5459TIP3    H137936   2.051   6.099   8.290  0.1542 -1.8420 -1.2693
 5459TIP3    H237937   2.029   6.065   8.436  2.0319  0.8829 -0.2769
 5460TIP3   OH237938   4.627   4.835   6.963 -0.2273  0.2931  0.2425
 5460TIP3    H137939   4.719   4.811   6.978 -0.3449 -0.8667 -0.7578
 5460TIP3    H237940   4.587   4.756   6.929 -1.2708  1.1901 -0.7050
 5461TIP3   OH237941   6.665   2.113   7.558 -0.4130  0.8500  0.0451
 5461TIP3    H137942   6.722   2.178   7.600  1.5277 -0.7708  0.0395
 5461TIP3    H237943   6.722   2.065   7.499 -2.3643  0.7841 -1.9035
 5462TIP3   OH237944   3.827   1.929   1.760  0.8135 -0.1115  0.9314
 5462TIP3    H137945   3.854   1.852   1.708  0.5856  0.1000  0.4917
 5462TIP3    H237946   3.908   1.959   1.801  1.0884 -0.0138  0.3324
 5463TIP3   OH237947   4.898   1.900   2.384 -0.3954 -0.8192  0.4033
 5463TIP3    H137948   4.871   1.808   2.378 -0.3773 -0.9254  1.5867
 5463TIP3    H237949   4.989   1.896   2.413  0.0911 -0.4325 -1.0282
 5464TIP3   OH237950   2.429   1.905   1.209  0.0198  0.0749 -0.8515
 5464TIP3    H137951   2.524   1.908   1.222 -0.1774  1.0313  0.6477
 5464TIP3    H237952   2.417   1.857   1.128  1.7213 -1.5462 -0.2051
 5465TIP3   OH237953   2.977   0.222   0.722 -0.7459  0.1137  0.4046
 5465TIP3    H137954   2.990   0.280   0.646  1.0857 -1.3139 -0.4512
 5465TIP3    H237955   2.895   0.176   0.704 -0.3023 -0.2516 -0.7686
 5466TIP3   OH237956   0.568   3.490   2.851  0.2357  0.1132 -0.4982
 5466TIP3    H137957   0.541   3.567   2.901 -0.1149 -1.3314  1.6742
 5466TIP3    H237958   0.491   3.469   2.797  0.3654  1.2876 -1.1769
 5467TIP3   OH237959   2.098   0.253   7.852 -0.1769  0.2569  0.4336
 5467TIP3    H137960   2.070   0.325   7.909  0.5412  0.2080  0.8638
 5467TIP3    H237961   2.032   0.250   7.784  0.6224  2.4176 -0.5326
 5468TIP3   OH237962   3.377   6.681   1.148 -0.1190 -0.2010  0.3101
 5468TIP3    H137963   3.442   6.752   1.151  1.4179 -1.5506  1.1288
 5468TIP3    H237964   3.369   6.654   1.240 -2.5232  0.4608  0.3451
 5469TIP3   OH237965   1.564   6.392   2.671  0.2048  0.6139 -0.4517
 5469TIP3    H137966   1.481   6.413   2.714 -1.7822 -2.2606 -2.5044
 5469TIP3    H237967   1.554   6.425   2.582  0.7924 -0.6288 -1.0119
 5470TIP3   OH237968   0.344   4.529   8.016 -0.2562  0.1469 -0.1025
 5470TIP3    H137969   0.439   4.544   8.011  0.0053 -1.4569 -0.3496
 5470TIP3    H237970   0.309   4.612   8.050  1.1300  1.0836 -0.8335
 5471TIP3   OH237971   5.973   4.618   0.637  0.2188  0.3802 -0.0813
 5471TIP3    H137972   5.970   4.711   0.613  1.7095  0.4652 -0.0506
 5471TIP3    H237973   6.036   4.580   0.576 -0.0272 -0.5174  0.2158
 5472TIP3   OH237974   4.514   4.027   1.073 -0.0874 -0.2784  0.1216
 5472TIP3    H137975   4.547   4.086   1.141 -1.6113  0.4790  0.2371
 5472TIP3    H237976   4.475   3.954   1.120 -0.0011 -0.3898  0.0227
 5473TIP3   OH237977   5.263   3.830   7.323  0.7729 -0.3399 -0.3309
 5473TIP3    H137978   5.309   3.762   7.273 -1.2497 -1.2141 -1.1226
 5473TIP3    H237979   5.247   3.900   7.260 -1.5294 -1.3213 -0.9280
 5474TIP3   OH237980   3.858   2.984   1.504 -0.0050 -0.0761 -0.2125
 5474TIP3    H137981   3.787   2.969   1.567  0.5324 -0.6695  0.2683
 5474TIP3    H237982   3.878   2.896   1.470  0.5750  0.0726 -0.2580
 5475TIP3   OH237983   2.156   4.014   0.158  0.5948 -0.5740  0.7645
 5475TIP3    H137984   2.230   3.988   0.213  0.8870  0.0664  0.6893
 5475TIP3    H237985   2.165   3.961   0.079  0.3210 -1.3099  1.2194
 5476TIP3   OH237986   1.967   1.000   7.841  0.0640 -0.1184  0.0857
 5476TIP3    H137987   1.951   1.087   7.879 -1.6526  0.0561 -0.9106
 5476TIP3    H237988   2.025   0.956   7.904  0.2538  1.4262  1.0426
 5477TIP3   OH237989   0.387   1.463   1.200 -0.4563 -0.0653  0.5274
 5477TIP3    H137990   0.347   1.496   1.281 -0.9222 -2.9967  1.5992
 5477TIP3    H237991   0.317   1.471   1.134 -1.0120 -0.2504  1.0902
 5478TIP3   OH237992   1.992   0.668   1.021 -0.5822  0.2906  0.5071
 5478TIP3    H137993   2.074   0.640   0.980 -1.5644 -2.6758  0.3110
 5478TIP3    H237994   2.007   0.657   1.115 -0.7640 -0.4023  0.4632
 5479TIP3   OH237995   5.816   3.172   1.437 -0.5586 -0.0787  0.0547
 5479TIP3    H137996   5.857   3.104   1.492 -2.0173  1.0166  2.6724
 5479TIP3    H237997   5.724   3.173   1.465 -1.6518 -0.0243 -3.1212
 5480TIP3   OH237998   6.388   0.061   2.449 -0.1659 -0.3158 -0.3049
 5480TIP3    H137999   6.305   0.014   2.454  0.9988 -2.4030  0.5071
 5480TIP3    H238000   6.443   0.007   2.392  1.2553 -0.0251  0.7418
 5481TIP3   OH238001   5.921   6.249   1.485 -0.4736 -0.1901  0.3317
 5481TIP3    H138002   5.983   6.306   1.440 -0.2821  0.7590  1.7161
 5481TIP3    H238003   5.892   6.187   1.419  1.5713 -0.3474 -0.4613
 5482TIP3   OH238004   1.788   5.215   2.127 -0.4413 -0.2846 -0.5033
 5482TIP3    H138005   1.836   5.291   2.162  0.2367 -1.5914  1.6016
 5482TIP3    H238006   1.857   5.158   2.092 -0.8748 -0.2504 -1.4157
 5483TIP3   OH238007   0.329   0.574   2.211  0.0969 -0.6019 -0.1936
 5483TIP3    H138008   0.387   0.498   2.217 -0.0416 -0.7250 -0.3913
 5483TIP3    H238009   0.241   0.537   2.219 -0.0578 -0.6509 -1.7599
 5484TIP3   OH238010   5.242   2.366   1.784 -0.2380  0.1168  0.3447
 5484TIP3    H138011   5.163   2.339   1.738  0.3611 -0.0801 -0.5929
 5484TIP3    H238012   5.210   2.413   1.861 -1.2841 -1.2837  0.8196
 5485TIP3   OH238013   3.850   0.059   1.520 -0.3240  0.1560  0.5861
 5485TIP3    H138014   3.924   0.080   1.578  0.2822  0.9735 -0.4577
 5485TIP3    H238015   3.874  -0.026   1.482  0.8767  1.1248 -0.9421
 5486TIP3   OH238016   0.577   4.502   1.468 -0.0156 -0.2764  0.0456
 5486TIP3    H138017   0.663   4.481   1.430 -0.3231  0.3639 -1.0556
 5486TIP3    H238018   0.578   4.459   1.554  0.7594 -1.6736 -0.6192
 5487TIP3   OH238019   3.816   5.628   1.750 -0.7843  0.2648  0.1408
 5487TIP3    H138020   3.848   5.545   1.714 -0.2401  0.2562  0.6470
 5487TIP3    H238021   3.857   5.695   1.696  0.8356  0.2922  1.3253
 5488TIP3   OH238022   5.834   4.565   7.590 -0.5158 -0.1633 -0.1009
 5488TIP3    H138023   5.847   4.475   7.619  1.1032  0.3164  0.7565
 5488TIP3    H238024   5.741   4.582   7.607 -0.6594 -1.4137  0.4622
 5489TIP3   OH238025   0.027   0.868   1.712 -0.0839  0.2251 -0.0497
 5489TIP3    H138026   0.114   0.896   1.684  0.2502  0.4288  1.1088
 5489TIP3    H238027   0.043   0.798   1.775 -0.6546  1.4020  1.4606
 5490TIP3   OH238028   1.188   4.730   8.288  0.5693  0.4546 -0.0911
 5490TIP3    H138029   1.229   4.808   8.327  0.4438  0.1103  0.7673
 5490TIP3    H238030   1.233   4.656   8.330  0.1270  0.0669 -0.2909
 5491TIP3   OH238031   3.577   0.335   2.816  0.0035  0.3815  0.3582
 5491TIP3    H138032   3.539   0.408   2.864 -0.5921  0.2978  0.0299
 5491TIP3    H238033   3.619   0.375   2.740 -1.9786  0.2652 -0.8745
 5492TIP3   OH238034   6.034   0.860   1.054  0.3568 -0.3262 -0.9740
 5492TIP3    H138035   6.077   0.874   0.970  0.8139 -0.4844 -0.7659
 5492TIP3    H238036   6.006   0.947   1.082  1.8417 -0.0030 -0.4082
 5493TIP3   OH238037   2.462   6.090   8.468  0.7466 -0.1349 -0.5106
 5493TIP3    H138038   2.500   6.037   8.397  1.6920 -0.4118  0.1810
 5493TIP3    H238039   2.471   6.181   8.437  2.3357 -0.1618 -0.2368
 5494TIP3   OH238040   1.272   0.882   8.179  0.0355  0.5091 -0.7726
 5494TIP3    H138041   1.219   0.915   8.252  0.4407  0.4278 -0.4394
 5494TIP3    H238042   1.315   0.804   8.214  0.4182  0.6065 -1.0252
 5495TIP3   OH238043   2.139   1.928   7.491  0.0452  1.2470 -0.1354
 5495TIP3    H138044   2.062   1.891   7.448 -0.7477  0.6426  1.7034
 5495TIP3    H238045   2.193   1.851   7.512  1.2464  1.6728 -1.5164
 5496TIP3   OH238046   0.598   6.345   0.440 -0.2883 -0.4247 -0.2744
 5496TIP3    H138047   0.586   6.388   0.525  1.0022 -1.9767  0.7406
 5496TIP3    H238048   0.681   6.379   0.407  0.0224 -1.0201 -0.1316
 5497TIP3   OH238049   4.338   0.970   1.883 -0.8141 -0.0577 -0.4387
 5497TIP3    H138050   4.429   0.990   1.905 -0.8246 -0.7645  0.2862
 5497TIP3    H238051   4.336   0.971   1.787 -0.5342  2.0513 -0.4585
 5498TIP3   OH238052   5.330   1.083   6.783  0.2210  0.0393  0.4676
 5498TIP3    H138053   5.246   1.040   6.802  0.1356 -0.7695 -1.5295
 5498TIP3    H238054   5.326   1.102   6.690  1.3899  2.0039  0.7752
 5499TIP3   OH238055   0.469   3.586   8.571  0.4726 -0.3905  0.2450
 5499TIP3    H138056   0.436   3.501   8.602  2.1026 -1.5924 -1.0880
 5499TIP3    H238057   0.399   3.622   8.518 -0.2744 -0.8654  0.8884
 5500TIP3   OH238058   5.808   2.028   1.710 -0.3217 -0.0159  0.6233
 5500TIP3    H138059   5.854   2.057   1.789 -1.1663 -1.1634  1.5693
 5500TIP3    H238060   5.875   2.029   1.641  0.8323 -0.4934  1.7042
 5501TIP3   OH238061   3.456   2.474   8.162  0.4115 -0.5502  0.0142
 5501TIP3    H138062   3.388   2.430   8.112  1.5640 -1.1200 -1.1300
 5501TIP3    H238063   3.473   2.555   8.113  0.5284 -0.3909  0.3154
 5502TIP3   OH238064   3.618   1.859   6.823 -0.3172 -0.6605 -0.2777
 5502TIP3    H138065   3.651   1.780   6.780 -1.5171 -0.8978 -0.8021
 5502TIP3    H238066   3.578   1.910   6.753 -0.4698 -0.0824  0.2228
 5503TIP3   OH238067   1.116   1.651   0.638 -0.1568 -0.1762 -0.2556
 5503TIP3    H138068   1.063   1.572   0.646 -0.5407  0.2175  1.3510
 5503TIP3    H238069   1.206   1.618   0.628 -0.4044 -0.8109 -0.4318
 5504TIP3   OH238070   3.651   5.476   1.003 -0.5853  0.3544  0.2987
 5504TIP3    H138071   3.571   5.459   0.954 -0.8497  1.3452  0.3780
 5504TIP3    H238072   3.721   5.465   0.938 -0.8108 -0.0017  0.1092
 5505TIP3   OH238073   4.952   0.524   8.035 -0.0253 -0.2505 -0.3618
 5505TIP3    H138074   4.916   0.520   7.946 -1.4605  1.0205  0.1204
 5505TIP3    H238075   4.879   0.500   8.092  0.2560  1.0086  0.5712
 5506TIP3   OH238076   3.162   6.834   6.431  0.2198 -0.4198 -0.3410
 5506TIP3    H138077   3.238   6.861   6.482 -1.1716  0.4670  1.3896
 5506TIP3    H238078   3.136   6.911   6.381  1.4788 -1.2391 -2.3880
 5507TIP3   OH238079   0.613   6.231   7.605 -0.1368 -0.0642 -0.0728
 5507TIP3    H138080   0.626   6.141   7.634 -0.0320  0.2284  0.7923
 5507TIP3    H238081   0.680   6.244   7.537  0.1867 -0.4680  0.1686
 5508TIP3   OH238082   2.763   4.733   6.843 -0.0330  0.0812 -0.5278
 5508TIP3    H138083   2.809   4.802   6.794  0.0767  0.1807 -0.2886
 5508TIP3    H238084   2.738   4.669   6.777  1.2641 -0.4361 -0.5651
 5509TIP3   OH238085   1.089   0.698   8.363  0.2690 -1.0013 -0.0495
 5509TIP3    H138086   1.045   0.613   8.360 -1.4550 -0.1405 -2.7483
 5509TIP3    H238087   1.182   0.677   8.364 -0.1166 -2.8853  1.3865
 5510TIP3   OH238088   0.121   2.451   1.820  0.3349  0.1886  0.0098
 5510TIP3    H138089   0.030   2.479   1.805  0.1464 -0.6554 -0.5022
 5510TIP3    H238090   0.117   2.399   1.900  0.5967  1.2012  0.6876
 5511TIP3   OH238091   5.276   2.097   0.341  0.1241  0.0094  0.1140
 5511TIP3    H138092   5.366   2.071   0.360 -0.1920 -0.5631  0.8827
 5511TIP3    H238093   5.267   2.083   0.247  1.2655  1.4522 -0.2476
 5512TIP3   OH238094   2.008   0.836   8.356 -0.3270 -0.5674 -0.4952
 5512TIP3    H138095   1.976   0.871   8.273 -0.4098 -0.5528 -0.4566
 5512TIP3    H238096   1.938   0.853   8.418 -0.3429 -0.7505 -0.4631
 5513TIP3   OH238097   2.919   1.483   0.643 -0.0420  0.0037  0.0478
 5513TIP3    H138098   2.852   1.546   0.619 -0.6733 -1.5534 -2.7033
 5513TIP3    H238099   2.955   1.453   0.559  1.5345 -1.8784  1.3056
 5514TIP3   OH238100   0.247   0.648   6.685 -0.3836  0.1780  0.6080
 5514TIP3    H138101   0.276   0.614   6.770  0.0052  0.5663  0.6352
 5514TIP3    H238102   0.248   0.571   6.627 -1.0478 -0.1730  1.0487
 5515TIP3   OH238103   2.756   5.372   1.589  0.7286 -0.4110  0.6468
 5515TIP3    H138104   2.691   5.384   1.520  0.9896  0.1260  0.4883
 5515TIP3    H238105   2.754   5.453   1.639  1.4501 -0.2762  0.4784
 5516TIP3   OH238106   0.627   0.289   1.974 -0.3080  0.3974 -0.3931
 5516TIP3    H138107   0.651   0.378   1.952  0.5158  0.2690 -0.0278
 5516TIP3    H238108   0.689   0.234   1.927  2.1853  0.1217  2.8622
 5517TIP3   OH238109   2.671   3.365   0.207 -0.2329  0.3213  0.2114
 5517TIP3    H138110   2.709   3.346   0.121 -0.7203  0.8041 -0.1192
 5517TIP3    H238111   2.744   3.356   0.268  0.2181  0.4155 -0.3078
 5518TIP3   OH238112   4.176   5.663   1.894  0.4457 -0.0258  0.6409
 5518TIP3    H138113   4.147   5.610   1.968 -0.5510 -0.3061  0.0784
 5518TIP3    H238114   4.248   5.716   1.928  0.8321 -1.0506  1.4674
 5519TIP3   OH238115   5.135   1.712   1.362 -0.2131  0.4742 -1.0423
 5519TIP3    H138116   5.135   1.675   1.274  0.0441  1.0675 -1.2944
 5519TIP3    H238117   5.043   1.731   1.380 -0.1319  1.6321 -1.7393
 5520TIP3   OH238118   0.685   3.551   8.215  0.3365  0.3893 -0.2048
 5520TIP3    H138119   0.660   3.491   8.286  0.2069 -0.3656 -0.8720
 5520TIP3    H238120   0.642   3.634   8.237  1.4502  0.5967  1.3330
 5521TIP3   OH238121   6.251   4.885   0.587 -0.0374 -0.0730  0.1231
 5521TIP3    H138122   6.222   4.818   0.650  0.1174 -0.4949 -0.2540
 5521TIP3    H238123   6.229   4.968   0.630  0.0568 -0.3563  0.7303
 5522TIP3   OH238124   3.712   3.554   7.111 -0.1377  0.0901 -0.0786
 5522TIP3    H138125   3.799   3.528   7.082 -0.1425  0.2871 -0.2687
 5522TIP3    H238126   3.659   3.475   7.102  0.4251 -0.5504  1.7307
 5523TIP3   OH238127   4.861   6.732   0.602 -0.5081 -0.3981 -0.2236
 5523TIP3    H138128   4.832   6.793   0.670 -0.0731  1.4070 -1.5577
 5523TIP3    H238129   4.782   6.713   0.551 -0.4864 -0.2339 -0.3213
 5524TIP3   OH238130   2.625   5.514   1.864  0.1402 -0.4859  0.1370
 5524TIP3    H138131   2.532   5.539   1.855 -0.6640 -3.2474 -0.0408
 5524TIP3    H238132   2.627   5.454   1.938  1.7365 -0.8203 -0.1408
 5525TIP3   OH238133   4.154   1.614   8.359  0.1993 -0.8420 -0.4024
 5525TIP3    H138134   4.244   1.627   8.388 -0.6934 -0.4709  2.4758
 5525TIP3    H238135   4.125   1.534   8.405 -1.6139  0.3300  0.6381
 5526TIP3   OH238136   5.121   0.574   1.917 -0.0665  0.0636 -0.2420
 5526TIP3    H138137   5.141   0.519   1.842 -1.2088 -0.6248 -0.0615
 5526TIP3    H238138   5.027   0.588   1.913  0.0155  0.9160  0.4628
 5527TIP3   OH238139   1.845   4.410   7.353 -1.0798  0.8075 -0.4119
 5527TIP3    H138140   1.808   4.475   7.414 -0.4915 -0.0343  0.8804
 5527TIP3    H238141   1.873   4.338   7.409  1.4884  0.8972 -1.4390
 5528TIP3   OH238142   6.439   1.518   8.290  0.0872 -0.0740 -0.5252
 5528TIP3    H138143   6.459   1.530   8.383 -0.0111  0.7744 -0.6123
 5528TIP3    H238144   6.357   1.564   8.276  0.7020  0.8359 -1.2833
 5529TIP3   OH238145   4.724   2.267   8.534 -0.2801 -0.1633 -0.2375
 5529TIP3    H138146   4.707   2.322   8.611 -0.5406 -1.3421  0.5783
 5529TIP3    H238147   4.766   2.326   8.471 -2.0160  1.3859 -0.0342
 5530TIP3   OH238148   4.805   3.353   8.412 -0.0807 -0.1500 -0.4583
 5530TIP3    H138149   4.756   3.428   8.445 -1.4063 -0.5366 -1.4359
 5530TIP3    H238150   4.894   3.385   8.399 -0.0140  0.5350  1.5030
 5531TIP3   OH238151   1.773   2.906   7.786  0.1601 -0.1509  0.5566
 5531TIP3    H138152   1.748   2.865   7.704  0.7095 -0.0745  0.3477
 5531TIP3    H238153   1.716   2.866   7.851  0.8668 -1.4686  0.4068
 5532TIP3   OH238154   4.137   2.937   0.470 -0.0748 -0.1824 -0.1782
 5532TIP3    H138155   4.129   3.023   0.430 -0.7311  0.0367  0.4053
 5532TIP3    H238156   4.078   2.940   0.545  0.2599 -0.9767  0.1274
 5533TIP3   OH238157   1.365   2.823   8.601  0.1132  1.2610  0.5099
 5533TIP3    H138158   1.298   2.869   8.550  0.7400  1.1296 -0.4475
 5533TIP3    H238159   1.422   2.892   8.634  1.1166  1.2118 -1.0170
 5534TIP3   OH238160   5.213   6.635   7.665 -0.6070 -0.2986  0.3711
 5534TIP3    H138161   5.291   6.684   7.639 -1.2370  0.6070  0.1440
 5534TIP3    H238162   5.141   6.679   7.619 -1.0632 -2.2304 -0.8838
 5535TIP3   OH238163   6.570   4.858   1.427 -0.4521 -0.6988  0.0159
 5535TIP3    H138164   6.623   4.903   1.361  1.2588 -0.5868  1.3987
 5535TIP3    H238165   6.587   4.765   1.410  0.0096 -0.6698  0.3060
 5536TIP3   OH238166   1.157   2.841   2.817  0.5511  0.1438 -0.0866
 5536TIP3    H138167   1.143   2.921   2.767 -1.4714  0.0900  0.3066
 5536TIP3    H238168   1.117   2.772   2.765  0.3455 -0.2526  0.5783
 5537TIP3   OH238169   0.443   2.328   0.616  0.8799  0.4030 -0.4780
 5537TIP3    H138170   0.415   2.419   0.630 -1.7930 -0.3356 -0.5597
 5537TIP3    H238171   0.373   2.289   0.565  1.4792 -1.9897  0.3984
 5538TIP3   OH238172   4.114   5.247   0.806  0.2410 -0.3724  0.4021
 5538TIP3    H138173   4.037   5.300   0.786  0.8808  0.4624  0.1067
 5538TIP3    H238174   4.096   5.162   0.765 -1.1777 -0.6874  1.6287
 5539TIP3   OH238175   6.042   6.885   7.263 -0.2228 -0.1963 -0.4748
 5539TIP3    H138176   6.131   6.916   7.277 -0.9323  1.3465  0.9611
 5539TIP3    H238177   6.027   6.823   7.335  0.1509 -1.6462 -1.5840
 5540TIP3   OH238178   5.360   0.161   1.668 -0.0825  0.1359 -0.3597
 5540TIP3    H138179   5.328   0.088   1.721  0.9365 -0.5173 -0.6347
 5540TIP3    H238180   5.280   0.209   1.644 -0.5808  0.3723  1.6261
 5541TIP3   OH238181   6.806   0.176   0.354  0.2421  0.3359 -0.6464
 5541TIP3    H138182   6.881   0.143   0.303  0.6975  1.2415 -0.5816
 5541TIP3    H238183   6.748   0.101   0.362  0.2584  0.0937 -2.3336
 5542TIP3   OH238184   4.760   3.167   1.771 -0.0814  0.4950 -0.1639
 5542TIP3    H138185   4.736   3.184   1.861  0.5451 -0.0219  0.1137
 5542TIP3    H238186   4.780   3.253   1.734  1.1184  0.5867  0.6301
 5543TIP3   OH238187   5.484   1.715   1.792 -0.4813 -0.3727  0.3049
 5543TIP3    H138188   5.410   1.700   1.733 -0.0265 -0.8011 -0.1697
 5543TIP3    H238189   5.469   1.656   1.866 -0.7093 -0.3157  0.3059
 5544TIP3   OH238190   5.147   3.561   2.633  0.5389  0.5874  0.0794
 5544TIP3    H138191   5.092   3.639   2.620  0.0318  0.2290  0.0539
 5544TIP3    H238192   5.093   3.502   2.686  1.4110  0.7745  1.2234
 5545TIP3   OH238193   0.777   0.936   7.902 -0.6794  0.1846 -0.5438
 5545TIP3    H138194   0.718   0.920   7.828 -1.8458 -1.4103  0.6555
 5545TIP3    H238195   0.782   0.851   7.947  0.2571  1.0274  1.0269
 5546TIP3   OH238196   4.197   0.416   0.011 -0.4087 -0.0957 -0.6271
 5546TIP3    H138197   4.270   0.397  -0.049 -0.1449 -0.2355 -0.2624
 5546TIP3    H238198   4.120   0.385  -0.036 -0.3382  0.8219 -1.3863
 5547TIP3   OH238199   1.787   2.545   7.554 -0.1858 -0.2421  0.1062
 5547TIP3    H138200   1.797   2.496   7.636 -0.3572  0.5431  0.5992
 5547TIP3    H238201   1.695   2.572   7.553 -0.0339  0.2818 -0.0448
 5548TIP3   OH238202   6.341   1.834   6.835  0.1102  0.0267 -0.5016
 5548TIP3    H138203   6.301   1.787   6.761 -0.4728 -2.0047  0.9977
 5548TIP3    H238204   6.428   1.858   6.804 -0.1472 -0.6982 -1.8850
 5549TIP3   OH238205   3.419   4.716   1.237  0.0604  0.0487 -0.4908
 5549TIP3    H138206   3.359   4.763   1.179  0.3705  0.4153 -0.5128
 5549TIP3    H238207   3.369   4.639   1.265 -0.4139  0.3414 -0.5217
 5550TIP3   OH238208   5.921   6.085   1.718  0.0779  0.3676 -0.4676
 5550TIP3    H138209   5.918   6.180   1.708  2.2317  0.7332  1.4836
 5550TIP3    H238210   5.924   6.052   1.628 -0.8629  2.1002 -1.1889
 5551TIP3   OH238211   2.335   6.457   7.359 -0.1735 -0.1683  0.1247
 5551TIP3    H138212   2.333   6.541   7.313  1.8708  0.3396  0.8507
 5551TIP3    H238213   2.249   6.452   7.402 -1.2481  0.3862 -1.8251
 5552TIP3   OH238214   1.553   2.877   1.191  0.1379 -0.0158  0.5442
 5552TIP3    H138215   1.647   2.876   1.176 -0.0000 -0.3855 -0.3460
 5552TIP3    H238216   1.535   2.795   1.237  0.3529  0.4251  1.4351
 5553TIP3   OH238217   3.657   2.109   6.934  0.1142 -0.0029 -0.5859
 5553TIP3    H138218   3.668   2.024   6.893 -2.1829 -0.6726  0.0619
 5553TIP3    H238219   3.702   2.170   6.876 -1.0624 -1.2034 -2.8710
 5554TIP3   OH238220   1.865   5.375   0.485 -0.3111  0.7018  0.2987
 5554TIP3    H138221   1.868   5.383   0.389 -0.4585  2.3220  0.4092
 5554TIP3    H238222   1.955   5.354   0.511 -0.2705  0.2557 -0.1766
 5555TIP3   OH238223   1.963   5.479   7.912  0.0080 -0.3831  0.2767
 5555TIP3    H138224   1.980   5.388   7.886  2.6340  0.0934  0.0618
 5555TIP3    H238225   1.881   5.474   7.961  0.2599 -2.9290  0.6116
 5556TIP3   OH238226   3.009   2.192   1.702  0.1961 -0.1580 -0.4023
 5556TIP3    H138227   3.040   2.262   1.644  1.0398 -1.1113 -1.1379
 5556TIP3    H238228   3.088   2.143   1.724 -0.0522  0.3633  1.8644
 5557TIP3   OH238229   0.850   3.555   1.933  0.1732 -0.3284  0.1668
 5557TIP3    H138230   0.794   3.503   1.989 -0.3916 -0.6369 -0.6656
 5557TIP3    H238231   0.849   3.509   1.849 -1.3205  1.6136 -0.9675
 5558TIP3   OH238232   2.609   3.330   7.185  0.1942  0.2561  0.1744
 5558TIP3    H138233   2.659   3.262   7.140 -0.9297 -0.3995 -0.1383
 5558TIP3    H238234   2.620   3.408   7.132  0.7975  0.1011  0.0633
 5559TIP3   OH238235   4.224   2.225   1.894  0.2706 -0.6564 -0.3808
 5559TIP3    H138236   4.315   2.197   1.894  0.3780 -0.3187 -0.5897
 5559TIP3    H238237   4.225   2.308   1.846  0.0287 -0.0650  0.6078
 5560TIP3   OH238238   1.826   3.924   8.623 -0.7190  0.1487 -0.2171
 5560TIP3    H138239   1.798   3.867   8.551  2.0635 -1.5836 -0.0537
 5560TIP3    H238240   1.882   3.989   8.582  0.1771 -0.3199  0.2451
 5561TIP3   OH238241   4.699   6.577   1.257  0.1003  0.6913 -0.1604
 5561TIP3    H138242   4.733   6.526   1.330  0.0518  0.3498 -0.3747
 5561TIP3    H238243   4.604   6.567   1.262 -0.0105  1.9662  0.6729
 5562TIP3   OH238244   5.357   0.344   8.025  0.1765  0.2682 -0.4813
 5562TIP3    H138245   5.312   0.420   7.988 -1.1441  1.2769  2.8223
 5562TIP3    H238246   5.434   0.332   7.970 -1.7982  1.2483 -3.7041
 5563TIP3   OH238247   6.321   1.347   0.197 -0.0523  0.1403  0.4747
 5563TIP3    H138248   6.353   1.325   0.284  0.8853 -0.8581 -0.1001
 5563TIP3    H238249   6.238   1.301   0.190  0.8526 -1.5261  0.0998
 5564TIP3   OH238250   2.360   0.556   2.105  0.1748 -0.3211 -0.3456
 5564TIP3    H138251   2.428   0.489   2.113  0.9039  0.3456 -0.7628
 5564TIP3    H238252   2.353   0.573   2.011  0.0366  0.2175 -0.2442
 5565TIP3   OH238253   3.949   0.730   7.398 -0.7372 -0.0725  0.5587
 5565TIP3    H138254   4.036   0.745   7.434 -0.7245  0.7348  0.2119
 5565TIP3    H238255   3.899   0.693   7.472 -0.0147 -0.9104  0.6522
 5566TIP3   OH238256   3.165   0.742   0.652  0.0050  0.5613  0.0211
 5566TIP3    H138257   3.071   0.727   0.655  0.0199  0.5270  0.3481
 5566TIP3    H238258   3.203   0.662   0.690  0.1072  1.1749  1.2789
 5567TIP3   OH238259   1.716   4.693   1.651 -0.3166  0.1133 -0.8644
 5567TIP3    H138260   1.740   4.621   1.709  1.2540  0.1735 -1.4032
 5567TIP3    H238261   1.628   4.670   1.620 -0.6472 -0.5662  0.4875
 5568TIP3   OH238262   0.131   2.523   0.553  0.1079 -0.3187 -0.3868
 5568TIP3    H138263   0.093   2.570   0.628  0.3279 -1.1823  0.2765
 5568TIP3    H238264   0.146   2.591   0.488  1.2380  0.6891  0.8761
 5569TIP3   OH238265   0.525   5.312   1.641  0.7513  0.2604 -0.1752
 5569TIP3    H138266   0.495   5.329   1.730  1.8239  2.2948 -0.1338
 5569TIP3    H238267   0.595   5.248   1.650 -0.0423 -0.5675  0.2697
 5570TIP3   OH238268   0.026   0.731   8.404  0.3136  0.1373 -0.2099
 5570TIP3    H138269   0.078   0.651   8.417 -0.5650 -0.4586 -0.2293
 5570TIP3    H238270  -0.036   0.707   8.335 -0.8235  0.3971  0.6894
 5571TIP3   OH238271   6.782   1.194   0.256 -0.7451  0.0205  0.3704
 5571TIP3    H138272   6.749   1.109   0.227 -1.2761  0.7865 -1.3646
 5571TIP3    H238273   6.877   1.186   0.249 -0.8352  0.4260 -2.5546
 5572TIP3   OH238274   6.257   3.282   0.061 -0.0332 -0.0279  0.1521
 5572TIP3    H138275   6.311   3.299   0.138 -0.6619  0.2951  0.5260
 5572TIP3    H238276   6.309   3.317  -0.012 -0.7577  2.5130  0.7666
 5573TIP3   OH238277   4.546   0.199   7.526  0.3653 -0.1441 -0.0953
 5573TIP3    H138278   4.590   0.230   7.447  0.3839 -1.7879 -0.7648
 5573TIP3    H238279   4.455   0.187   7.499  0.2780 -0.2697  0.2538
 5574TIP3   OH238280   6.541   5.766   0.636 -0.0379  0.1871 -0.3402
 5574TIP3    H138281   6.601   5.790   0.564  1.4193  2.8365  1.5779
 5574TIP3    H238282   6.454   5.766   0.596  0.9493 -1.4813 -2.7198
 5575TIP3   OH238283   5.001   3.176   8.622 -0.0680 -0.1499  0.4261
 5575TIP3    H138284   4.986   3.253   8.567 -0.7715 -0.8995 -0.4524
 5575TIP3    H238285   5.061   3.207   8.690 -1.0916  1.4340  0.6604
 5576TIP3   OH238286   0.326   3.189   1.316  0.3187  1.2009  0.3163
 5576TIP3    H138287   0.289   3.122   1.258  1.1603 -0.0986  1.2263
 5576TIP3    H238288   0.274   3.268   1.298 -2.2693 -0.2633  0.8516
 5577TIP3   OH238289   5.146   1.833   8.212  0.2201 -0.4395 -0.0925
 5577TIP3    H138290   5.170   1.907   8.156  1.3170  0.0417  0.9760
 5577TIP3    H238291   5.119   1.765   8.151  3.5130 -0.7135 -1.3961
 5578TIP3   OH238292   6.205   1.332   1.597  0.1743  0.0701 -0.2293
 5578TIP3    H138293   6.157   1.377   1.666  3.6744  3.1798  0.5342
 5578TIP3    H238294   6.285   1.301   1.640  1.3614 -0.0499 -2.3495
 5579TIP3   OH238295   6.260   6.352   2.034 -0.5772 -0.2939 -0.1591
 5579TIP3    H138296   6.255   6.274   1.979 -1.5010 -0.2887 -0.0932
 5579TIP3    H238297   6.304   6.322   2.114  1.0025 -0.2489 -0.9603
 5580TIP3   OH238298   0.819   3.882   7.726 -0.1938  0.1095 -0.0628
 5580TIP3    H138299   0.805   3.816   7.793  0.2889  1.0888  1.0418
 5580TIP3    H238300   0.812   3.834   7.643  0.3111 -1.3438  0.6995
 5581TIP3   OH238301   4.223   6.180   7.502 -0.2107  0.3008 -0.2385
 5581TIP3    H138302   4.270   6.216   7.427  1.5020 -0.8604  0.2223
 5581TIP3    H238303   4.271   6.212   7.578  0.2082 -1.3300  0.2300
 5582TIP3   OH238304   0.614   0.795   1.625  0.5857 -0.5655  0.5484
 5582TIP3    H138305   0.608   0.876   1.574 -1.5496 -0.7776  0.3700
 5582TIP3    H238306   0.708   0.780   1.635  1.0765  0.4001 -1.8597
 5583TIP3   OH238307   0.835   4.997   2.908 -0.0076  0.1346  0.1625
 5583TIP3    H138308   0.831   4.982   2.814 -1.4343  2.8026 -0.3165
 5583TIP3    H238309   0.869   4.916   2.945 -0.0022 -1.2016 -2.5830
 5584TIP3   OH238310   0.066   6.185   0.657  0.0064  0.1988  0.3108
 5584TIP3    H138311   0.066   6.280   0.653  1.6296  0.4296  3.1674
 5584TIP3    H238312   0.034   6.164   0.745 -2.1223 -2.0252 -0.8614
 5585TIP3   OH238313   0.836   2.089   2.143  0.4834 -0.5971  0.1266
 5585TIP3    H138314   0.835   2.182   2.167 -3.0553 -0.5708  0.4310
 5585TIP3    H238315   0.824   2.042   2.226  2.1230 -1.3726 -0.0385
 5586TIP3   OH238316   2.537   5.556   1.176  0.0916  0.6784  0.4278
 5586TIP3    H138317   2.511   5.473   1.137  0.4496  0.0890  1.4379
 5586TIP3    H238318   2.632   5.558   1.170  0.0873  1.0271  0.4021
 5587TIP3   OH238319   2.955   3.460   8.472  0.0768  0.2131  0.2055
 5587TIP3    H138320   2.875   3.500   8.440  1.0491  1.1399 -1.2136
 5587TIP3    H238321   3.025   3.511   8.431  1.3758 -1.7899 -0.1980
 5588TIP3   OH238322   6.321   1.198   0.672  0.5095 -0.6288 -0.3526
 5588TIP3    H138323   6.252   1.265   0.670  0.4344 -0.6038  1.5269
 5588TIP3    H238324   6.308   1.148   0.592 -0.8563  0.2088 -0.6891
 5589TIP3   OH238325   4.657   1.967   7.545 -0.3684 -0.2312  0.1205
 5589TIP3    H138326   4.624   1.882   7.516 -1.7457  0.9092 -1.8989
 5589TIP3    H238327   4.580   2.024   7.545  0.7778  1.3809 -0.0118
 5590TIP3   OH238328   4.626   6.312   0.691 -0.7268 -0.0401  0.1421
 5590TIP3    H138329   4.657   6.224   0.669 -1.4929 -0.0886 -0.7983
 5590TIP3    H238330   4.679   6.370   0.637 -0.7553  0.0212  0.1799
 5591TIP3   OH238331   1.841   4.690   2.353 -0.1846  0.1400  0.4032
 5591TIP3    H138332   1.809   4.773   2.320  2.0180  0.2355 -1.7809
 5591TIP3    H238333   1.936   4.702   2.360  0.3713 -2.5103 -1.1797
 5592TIP3   OH238334   0.370   5.315   7.662  0.3178  0.3494  0.4628
 5592TIP3    H138335   0.323   5.347   7.740  0.5822  1.2802  0.2502
 5592TIP3    H238336   0.307   5.257   7.619 -1.1668  2.5443 -0.5001
 5593TIP3   OH238337   4.314   0.483   2.518  0.3932 -0.2151 -0.4592
 5593TIP3    H138338   4.278   0.416   2.575 -0.5635  0.8080  0.1786
 5593TIP3    H238339   4.254   0.557   2.527  0.2898  0.0390 -2.6858
 5594TIP3   OH238340   6.039   1.920   1.539  0.3191 -0.1347  0.4794
 5594TIP3    H138341   6.031   1.988   1.472  0.8748 -0.4974  0.0293
 5594TIP3    H238342   5.987   1.847   1.505  0.2608 -0.1723  0.6474
 5595TIP3   OH238343   1.768   0.037   7.226 -0.4124  0.6136 -0.5704
 5595TIP3    H138344   1.697  -0.028   7.227 -0.8765  1.1169 -0.1540
 5595TIP3    H238345   1.730   0.113   7.182  1.2252 -0.5756 -4.4579
 5596TIP3   OH238346   2.680   0.783   6.904 -0.4601  0.3606  0.0461
 5596TIP3    H138347   2.675   0.835   6.984  0.1183 -0.1484  0.4196
 5596TIP3    H238348   2.745   0.828   6.851  0.0931 -0.0204  0.3992
 5597TIP3   OH238349   2.890   2.247   0.803 -0.0025 -0.1014 -0.3380
 5597TIP3    H138350   2.919   2.295   0.726  1.2651  0.9642  0.7481
 5597TIP3    H238351   2.918   2.157   0.788 -0.9541 -0.2079 -1.6811
 5598TIP3   OH238352   3.868   4.716   8.390  0.3515  0.2142 -0.1104
 5598TIP3    H138353   3.906   4.628   8.393 -1.1433 -0.5243 -1.5998
 5598TIP3    H238354   3.907   4.755   8.312  0.6854  0.7497  0.3155
 5599TIP3   OH238355   1.484   0.531   7.706  0.6216 -0.0176  0.0248
 5599TIP3    H138356   1.529   0.448   7.722 -0.1160 -0.1626  1.4784
 5599TIP3    H238357   1.526   0.566   7.628  1.6806 -1.2406  0.0132
 5600TIP3   OH238358   4.124   6.559   0.268  0.0172  0.5373  0.3370
 5600TIP3    H138359   4.038   6.595   0.289  1.1282  2.1847  2.4250
 5600TIP3    H238360   4.152   6.515   0.348  0.7734 -0.7605 -0.5970
 5601TIP3   OH238361   6.777   1.046   2.656  0.0148 -0.0102 -0.1700
 5601TIP3    H138362   6.795   1.140   2.651  1.1048 -0.2666 -2.0273
 5601TIP3    H238363   6.833   1.007   2.589 -1.3101 -1.8543 -0.2841
 5602TIP3   OH238364   1.767   6.035   0.068 -0.5207 -0.0546  0.1177
 5602TIP3    H138365   1.710   6.084   0.127 -1.6919 -1.9902  0.6804
 5602TIP3    H238366   1.709   5.973   0.025  0.9705 -1.2450 -0.2433
 5603TIP3   OH238367   1.346   5.289   0.401 -0.3204  0.4875 -0.6682
 5603TIP3    H138368   1.258   5.270   0.434  0.1541 -1.3726 -0.3425
 5603TIP3    H238369   1.399   5.214   0.430  1.2870  1.3790 -1.1852
 5604TIP3   OH238370   1.750   3.257   8.386 -0.0702 -0.2323  0.1307
 5604TIP3    H138371   1.803   3.327   8.425  1.5179 -1.3684  0.0966
 5604TIP3    H238372   1.666   3.299   8.367  0.6540  1.5282  0.5948
 5605TIP3   OH238373   3.430   3.609   0.350 -0.1763 -0.3935 -0.2482
 5605TIP3    H138374   3.451   3.665   0.425 -1.7547 -0.2500  0.1133
 5605TIP3    H238375   3.335   3.607   0.347 -0.1579 -0.5412 -2.1517
 5606TIP3   OH238376   6.810   6.381   7.752  0.2678  0.1913 -0.0565
 5606TIP3    H138377   6.788   6.288   7.760  1.2680  0.0853  3.5597
 5606TIP3    H238378   6.880   6.384   7.687  0.7403 -1.7531  0.2967
 5607TIP3   OH238379   1.901   1.092   0.266  0.1916 -0.3015  0.3106
 5607TIP3    H138380   1.806   1.094   0.278  0.1430 -1.7695  0.3183
 5607TIP3    H238381   1.916   1.022   0.203  1.2770 -0.0767  0.3008
 5608TIP3   OH238382   0.856   3.701   7.449  0.0160  0.1378  0.4493
 5608TIP3    H138383   0.860   3.613   7.487 -0.8443 -0.6306 -1.1560
 5608TIP3    H238384   0.898   3.693   7.364 -1.5906  0.8625 -0.4501
 5609TIP3   OH238385   3.744   3.444   8.372  0.2811  1.0466 -0.0994
 5609TIP3    H138386   3.661   3.485   8.347 -0.7124 -1.5150 -1.2763
 5609TIP3    H238387   3.720   3.380   8.439  0.9782 -0.9108 -1.6421
 5610TIP3   OH238388   6.566   3.407   7.808  0.1156 -0.2312 -0.6760
 5610TIP3    H138389   6.529   3.493   7.792 -1.0543 -0.4435  0.6733
 5610TIP3    H238390   6.543   3.356   7.730 -0.9259  0.1298 -0.6185
 5611TIP3   OH238391   1.624   0.308   6.319 -0.2860  0.2485  0.4492
 5611TIP3    H138392   1.659   0.395   6.341 -1.2096  0.6527  0.3367
 5611TIP3    H238393   1.685   0.275   6.252 -0.6322  1.3419 -0.4402
 5612TIP3   OH238394   3.535   0.476   6.793  0.1517  0.0796  0.6670
 5612TIP3    H138395   3.617   0.505   6.754  1.3927 -1.5578  1.8852
 5612TIP3    H238396   3.467   0.513   6.737  1.6381  2.6974  0.4498
 5613TIP3   OH238397   0.080   5.541   0.125 -0.8981 -0.0736 -0.5834
 5613TIP3    H138398   0.043   5.622   0.089  0.6959  0.4268 -1.1926
 5613TIP3    H238399   0.062   5.546   0.218 -0.6806  1.1044 -0.5815
 5614TIP3   OH238400   1.029   5.132   8.492 -0.0290 -0.0100  0.0463
 5614TIP3    H138401   1.053   5.163   8.405 -1.0263 -0.6799 -0.4985
 5614TIP3    H238402   0.942   5.169   8.507  0.6455  1.1015  1.2931
 5615TIP3   OH238403   2.148   3.270   7.057 -0.2127 -0.0207  0.0089
 5615TIP3    H138404   2.220   3.216   7.088 -1.0530 -0.8888  0.5111
 5615TIP3    H238405   2.189   3.333   6.998  0.8878 -0.7814 -0.0697
 5616TIP3   OH238406   3.508   4.726   7.397 -0.3193 -0.2108 -0.1210
 5616TIP3    H138407   3.601   4.741   7.381 -0.6099  1.5142 -0.3472
 5616TIP3    H238408   3.463   4.774   7.328 -1.4275  1.0860  1.4075
 5617TIP3   OH238409   1.446   4.169   8.040  0.1244  0.2070  0.0271
 5617TIP3    H138410   1.359   4.194   8.070  0.3441  1.8605 -0.6493
 5617TIP3    H238411   1.501   4.175   8.118  0.2294  2.2393 -0.1512
 5618TIP3   OH238412   5.218   5.611   0.197 -0.1699 -1.0225 -0.2003
 5618TIP3    H138413   5.231   5.705   0.213 -1.5949 -0.9332  0.5754
 5618TIP3    H238414   5.193   5.606   0.104  2.4291 -0.9398 -0.9757
 5619TIP3   OH238415   4.515   1.361   1.319  0.7549  0.7904 -0.2076
 5619TIP3    H138416   4.454   1.425   1.356  1.4041  1.8415 -0.8790
 5619TIP3    H238417   4.467   1.319   1.248  0.5121  0.9430 -0.1339
 5620TIP3   OH238418   6.860   1.250   1.780 -0.0670 -0.5227 -0.4057
 5620TIP3    H138419   6.933   1.264   1.840 -1.8830  0.8424  1.6564
 5620TIP3    H238420   6.864   1.323   1.719 -1.0301  0.9227  1.1969
 5621TIP3   OH238421   2.516   4.306   6.363  0.2419  0.5496  0.5794
 5621TIP3    H138422   2.582   4.361   6.406  0.2521 -0.9396  2.5940
 5621TIP3    H238423   2.442   4.304   6.423  0.6503 -2.4245  1.1500
 5622TIP3   OH238424   2.861   4.527   8.276 -0.0402  1.0694  0.3360
 5622TIP3    H138425   2.902   4.463   8.219 -0.9032 -0.3299  1.2280
 5622TIP3    H238426   2.881   4.497   8.365  0.1279  2.4342  0.7928
 5623TIP3   OH238427   0.319   4.786   0.030 -0.3425  0.0480 -0.7288
 5623TIP3    H138428   0.334   4.719   0.097 -0.6543  0.6928 -0.0024
 5623TIP3    H238429   0.392   4.846   0.040 -2.2883  2.2472  1.6585
 5624TIP3   OH238430   0.929   5.658   7.663 -0.7351 -0.5328  0.1242
 5624TIP3    H138431   0.856   5.712   7.632 -0.5904 -0.4224 -0.0247
 5624TIP3    H238432   0.918   5.575   7.616  0.1580  0.0325 -1.1452
 5625TIP3   OH238433   5.040   2.664   7.183  0.1602  0.3869 -0.0934
 5625TIP3    H138434   5.057   2.574   7.157 -0.6105 -0.3354  1.7530
 5625TIP3    H238435   5.124   2.709   7.171  0.5058 -0.5110 -1.1956
 5626TIP3   OH238436   4.877   6.527   7.220  0.0195  0.4839  0.1131
 5626TIP3    H138437   4.843   6.520   7.309 -1.9027 -0.7754 -0.6714
 5626TIP3    H238438   4.855   6.444   7.179  0.9481  1.0064 -1.5427
 5627TIP3   OH238439   0.304   4.737   2.138  0.0750 -0.4980  0.3983
 5627TIP3    H138440   0.279   4.645   2.142  1.3077 -0.8667  0.1020
 5627TIP3    H238441   0.250   4.774   2.069 -0.2164 -1.0787  0.3149
 5628TIP3   OH238442   2.076   2.774   0.353 -0.2407  0.0387  0.7144
 5628TIP3    H138443   2.142   2.823   0.304 -1.3304  1.7032  0.8577
 5628TIP3    H238444   2.127   2.717   0.411  1.0582 -0.1187 -0.5177
 5629TIP3   OH238445   2.563   1.222   8.384  0.1694  0.4337  0.1124
 5629TIP3    H138446   2.636   1.259   8.335  0.0155  2.0547  1.0301
 5629TIP3    H238447   2.486   1.238   8.329  0.3665 -0.4031 -0.4186
 5630TIP3   OH238448   4.683   5.581   0.971  0.7002  0.1709  0.0164
 5630TIP3    H138449   4.778   5.580   0.956  0.7300  0.6805  0.1534
 5630TIP3    H238450   4.650   5.506   0.921  1.3776 -1.0597  1.3434
 5631TIP3   OH238451   3.103   2.760   7.727 -0.2969  0.0701  0.2899
 5631TIP3    H138452   3.022   2.738   7.773 -0.0933 -0.8113  0.2502
 5631TIP3    H238453   3.076   2.770   7.636 -0.5988  1.2202  0.4947
 5632TIP3   OH238454   0.302   3.531   7.308  0.1360  0.6477  0.3293
 5632TIP3    H138455   0.313   3.614   7.262 -0.3377  0.3523 -0.3399
 5632TIP3    H238456   0.320   3.465   7.241 -1.0712  0.2033  0.4253
 5633TIP3   OH238457   5.671   5.722   1.674  0.2115  0.2882 -0.0095
 5633TIP3    H138458   5.737   5.734   1.742 -0.7958  1.6628  0.7915
 5633TIP3    H238459   5.603   5.669   1.715  0.2449 -0.0837 -0.4259
 5634TIP3   OH238460   5.512   3.325   8.287 -0.1324  1.2324 -0.2202
 5634TIP3    H138461   5.550   3.390   8.228  1.0509 -1.1732 -2.3386
 5634TIP3    H238462   5.585   3.295   8.340 -0.2998  0.6042 -0.3301
 5635TIP3   OH238463   6.485   0.875   1.466  0.7544 -0.0989  0.3453
 5635TIP3    H138464   6.458   0.905   1.553  0.3234  1.3192 -0.2545
 5635TIP3    H238465   6.431   0.925   1.405  2.7322  0.7439 -0.8285
 5636TIP3   OH238466   5.186   3.338   1.787  0.2103 -0.7656 -0.9309
 5636TIP3    H138467   5.188   3.251   1.745 -0.1993 -0.6073 -1.2824
 5636TIP3    H238468   5.156   3.397   1.718  2.1730 -0.0361 -1.2442
 5637TIP3   OH238469   4.887   6.214   1.673  0.0013  0.3023 -0.1963
 5637TIP3    H138470   4.975   6.250   1.657 -0.1945  0.1518 -1.7212
 5637TIP3    H238471   4.894   6.174   1.760  1.4118  0.3768 -0.2427
 5638TIP3   OH238472   1.554   4.328   1.634 -0.1845  0.7355  0.3851
 5638TIP3    H138473   1.501   4.287   1.566  1.0367 -2.0291  0.9737
 5638TIP3    H238474   1.499   4.325   1.712 -0.5796  1.4459  0.1418
 5639TIP3   OH238475   2.515   0.231   8.554 -0.1146 -0.3556 -0.6914
 5639TIP3    H138476   2.536   0.323   8.566  2.0111 -0.9576  0.7892
 5639TIP3    H238477   2.597   0.191   8.523  0.2343 -2.3481  2.3632
 5640TIP3   OH238478   3.801   6.569   1.805 -0.1297 -0.0184 -0.3352
 5640TIP3    H138479   3.711   6.600   1.812  0.0988  0.4201  0.7636
 5640TIP3    H238480   3.800   6.482   1.844  0.1139  0.3867  0.5981
 5641TIP3   OH238481   5.069   6.627   0.772  0.5623  0.3569 -0.2537
 5641TIP3    H138482   5.047   6.700   0.829 -1.8354  0.5541 -1.3065
 5641TIP3    H238483   5.001   6.628   0.704 -0.0078 -3.2081  0.0554
 5642TIP3   OH238484   0.657   4.720   0.337 -0.2146 -0.1273 -0.3400
 5642TIP3    H138485   0.734   4.767   0.369 -0.8080  0.4771  0.2333
 5642TIP3    H238486   0.602   4.788   0.299 -0.3080 -0.6073 -1.0840
 5643TIP3   OH238487   2.597   6.633   0.668 -0.0956  0.0580  0.4490
 5643TIP3    H138488   2.523   6.627   0.607  0.4464 -1.8059 -0.0678
 5643TIP3    H238489   2.567   6.585   0.746  0.8977 -1.5897 -0.1446
 5644TIP3   OH238490   1.145   2.992   0.943  0.1786  0.2127  0.8144
 5644TIP3    H138491   1.090   2.984   1.021 -0.4413 -0.9140  0.2931
 5644TIP3    H238492   1.234   2.996   0.977 -0.0411 -0.8465  1.5801
 5645TIP3   OH238493   4.402   5.090   2.438  0.4930  0.6403 -0.3418
 5645TIP3    H138494   4.477   5.114   2.383  0.7893  0.2627 -0.1122
 5645TIP3    H238495   4.383   5.169   2.488  0.7955  0.7146 -0.3389
 5646TIP3   OH238496   4.356   1.954   8.191 -0.4045 -0.1525 -0.5291
 5646TIP3    H138497   4.388   1.917   8.273 -1.3570  0.3458  0.0853
 5646TIP3    H238498   4.344   1.878   8.134 -1.3419 -0.7084  0.3721
 5647TIP3   OH238499   0.375   3.147   2.971 -0.3534  0.2312 -0.0931
 5647TIP3    H138500   0.349   3.239   2.968  0.9720  0.7424  1.9910
 5647TIP3    H238501   0.437   3.137   2.898  0.6592  1.4145  0.5712
 5648TIP3   OH238502   4.406   4.604   8.296  0.5591 -0.2688 -0.2456
 5648TIP3    H138503   4.377   4.529   8.243 -4.2495 -0.9711  2.7894
 5648TIP3    H238504   4.480   4.570   8.346  0.2170 -2.1133 -0.8911
 5649TIP3   OH238505   5.692   1.663   7.400 -0.2205  0.2426 -0.1490
 5649TIP3    H138506   5.755   1.661   7.329 -1.4932 -2.1591 -1.3099
 5649TIP3    H238507   5.657   1.752   7.398 -0.1131  0.2874 -2.4470
 5650TIP3   OH238508   5.244   4.070   7.108  0.0990 -0.0791  0.6726
 5650TIP3    H138509   5.284   4.046   7.025 -1.5178 -1.9435  0.3583
 5650TIP3    H238510   5.221   4.162   7.098  1.3597  0.1514 -0.3182
 5651TIP3   OH238511   0.478   1.579   1.566 -0.1996 -0.1300 -1.0465
 5651TIP3    H138512   0.405   1.634   1.591  0.8721  0.1150  1.9265
 5651TIP3    H238513   0.438   1.497   1.537 -1.6482  0.3903 -0.5684
 5652TIP3   OH238514   3.109   0.313   7.788  0.1059 -0.1661  0.9464
 5652TIP3    H138515   3.192   0.361   7.788  0.2731 -0.4497  0.4456
 5652TIP3    H238516   3.078   0.319   7.698  1.0827 -2.6422  0.3692
 5653TIP3   OH238517   3.924   2.735   1.426 -0.0412 -0.3736 -0.3575
 5653TIP3    H138518   3.925   2.663   1.488 -1.0174 -1.4483 -1.5326
 5653TIP3    H238519   3.988   2.711   1.360 -0.0863  0.0255 -0.5517
 5654TIP3   OH238520   0.565   4.727   7.564 -0.3281 -0.1539 -0.6758
 5654TIP3    H138521   0.581   4.821   7.549 -0.2850 -0.0747 -0.1769
 5654TIP3    H238522   0.569   4.718   7.659  0.7294 -0.8495 -0.7694
 5655TIP3   OH238523   4.812   6.849   1.361 -0.8261 -0.2128  0.2726
 5655TIP3    H138524   4.793   6.921   1.301 -1.7343 -1.8293 -1.4719
 5655TIP3    H238525   4.729   6.803   1.370 -0.0419 -1.6171  0.5416
 5656TIP3   OH238526   3.816   5.195   1.394  0.0632 -0.3279  0.9745
 5656TIP3    H138527   3.906   5.181   1.365  0.1008 -0.6560  1.2453
 5656TIP3    H238528   3.770   5.222   1.314  0.4810  0.2312  0.9183
 5657TIP3   OH238529   6.644   1.434   2.383  0.0238 -0.0423  0.8207
 5657TIP3    H138530   6.736   1.447   2.360 -0.1796  0.2185  0.1249
 5657TIP3    H238531   6.630   1.491   2.459  0.0993  0.9595  0.1021
 5658TIP3   OH238532   1.259   4.889   1.282 -0.0615 -0.0196 -0.4250
 5658TIP3    H138533   1.319   4.907   1.355  0.3409  1.6605 -1.1133
 5658TIP3    H238534   1.308   4.831   1.224  0.7604  0.9981 -0.7731
 5659TIP3   OH238535   5.762   2.176   7.722  0.0710  0.2689  0.2308
 5659TIP3    H138536   5.742   2.204   7.811 -1.6072  1.6892 -0.5278
 5659TIP3    H238537   5.706   2.099   7.708 -1.8472  1.7090 -0.4649
 5660TIP3   OH238538   5.749   5.716   8.155  0.0472  1.0379  0.2677
 5660TIP3    H138539   5.757   5.624   8.182 -0.4508  1.3956  1.7288
 5660TIP3    H238540   5.702   5.712   8.072  0.8974 -0.0743 -0.1850
 5661TIP3   OH238541   6.534   0.573   7.147  0.3136  0.0637  0.0630
 5661TIP3    H138542   6.510   0.605   7.234 -1.7784  1.4220 -0.9140
 5661TIP3    H238543   6.516   0.479   7.150  0.3458  0.0787  1.1165
 5662TIP3   OH238544   0.754   4.277   7.625  0.5475 -0.0762  0.5546
 5662TIP3    H138545   0.728   4.321   7.544  0.5332  1.1285  1.1913
 5662TIP3    H238546   0.689   4.306   7.689 -0.1787 -1.9758  0.7494
 5663TIP3   OH238547   2.345   0.961   8.258  0.0103  0.3448  0.2614
 5663TIP3    H138548   2.252   0.976   8.243  0.2894  1.1529 -0.8443
 5663TIP3    H238549   2.364   0.880   8.212  0.3892  1.6416 -2.0566
 5664TIP3   OH238550   2.727   3.284   7.447  0.2946 -0.5918  0.0501
 5664TIP3    H138551   2.691   3.301   7.360 -0.8228 -2.6655  0.0599
 5664TIP3    H238552   2.651   3.275   7.504  1.0078  0.6673  1.2682
 5665TIP3   OH238553   1.172   5.770   2.084  0.4136  0.8216  0.7986
 5665TIP3    H138554   1.229   5.807   2.152  1.2990  0.6772  0.1628
 5665TIP3    H238555   1.227   5.769   2.005 -0.9610  2.1263 -0.2335
 5666TIP3   OH238556   4.430   4.632   1.375 -0.7300 -0.8788 -0.3130
 5666TIP3    H138557   4.478   4.703   1.331  1.6544 -2.1817  0.0191
 5666TIP3    H238558   4.353   4.618   1.320  0.2182  0.0678 -1.9931
 5667TIP3   OH238559   3.175   0.966   7.210  0.7223 -0.6304 -0.5844
 5667TIP3    H138560   3.171   0.872   7.228  0.2100 -0.7011 -1.0350
 5667TIP3    H238561   3.260   0.993   7.242  1.1243 -1.3721 -1.0050
 5668TIP3   OH238562   5.661   4.641   2.451  0.9862 -0.0809 -0.0921
 5668TIP3    H138563   5.671   4.735   2.471 -0.2270 -0.1215  0.8061
 5668TIP3    H238564   5.568   4.630   2.431  0.8817 -1.2778  0.9285
 5669TIP3   OH238565   4.211   1.088   0.274  0.0356 -0.1671 -0.1433
 5669TIP3    H138566   4.248   1.173   0.249 -0.4259 -0.0594 -0.4599
 5669TIP3    H238567   4.258   1.064   0.354 -0.6054  0.8963  0.5630
 5670TIP3   OH238568   5.974   3.935   7.848  1.0345 -0.3651 -0.0813
 5670TIP3    H138569   6.050   3.982   7.813 -0.5856  2.5314  0.0481
 5670TIP3    H238570   5.982   3.942   7.943 -0.3180  1.7094 -0.0622
 5671TIP3   OH238571   1.455   3.243   0.770 -0.2784  0.1683  0.5946
 5671TIP3    H138572   1.375   3.239   0.821 -0.7368 -0.5079 -0.1592
 5671TIP3    H238573   1.520   3.196   0.822 -1.2135 -2.1833 -0.2464
 5672TIP3   OH238574   2.169   6.464   7.994 -0.2585  0.0224 -0.2491
 5672TIP3    H138575   2.087   6.506   8.020 -0.5720 -0.2824 -0.7247
 5672TIP3    H238576   2.163   6.458   7.898 -0.3504 -1.3815 -0.1686
 5673TIP3   OH238577   2.513   2.253   1.429 -0.2641  0.2799  0.0101
 5673TIP3    H138578   2.454   2.185   1.460  0.7715 -1.0923 -0.8803
 5673TIP3    H238579   2.533   2.306   1.507 -1.7458  0.1058  0.5367
 5674TIP3   OH238580   4.724   3.958   1.615 -0.0771  0.3497 -0.1275
 5674TIP3    H138581   4.640   4.005   1.611  0.0744  0.6215 -0.1749
 5674TIP3    H238582   4.784   4.021   1.655 -0.4829 -0.7251  2.3400
 5675TIP3   OH238583   5.946   5.206   8.065  0.0123 -0.3064  0.3457
 5675TIP3    H138584   6.025   5.260   8.068 -0.0530 -0.1461 -0.7317
 5675TIP3    H238585   5.874   5.268   8.056 -0.3349 -0.3998  2.0190
 5676TIP3   OH238586   6.629   5.407   0.501 -0.3140 -0.0945 -0.3184
 5676TIP3    H138587   6.621   5.472   0.571  0.1975  1.3413 -1.5528
 5676TIP3    H238588   6.654   5.327   0.547  1.3974  1.1385  1.0468
 5677TIP3   OH238589   1.964   0.222   2.640 -0.2055  0.1335 -0.5340
 5677TIP3    H138590   1.977   0.146   2.583  0.5222 -0.6510  0.6034
 5677TIP3    H238591   1.880   0.206   2.683 -0.0947  0.0070 -0.3614
 5678TIP3   OH238592   6.171   4.601   1.733  0.3427 -0.5065 -0.2389
 5678TIP3    H138593   6.116   4.637   1.663 -0.3866  1.6790  1.3798
 5678TIP3    H238594   6.247   4.659   1.736 -0.1787  0.1355  1.4931
 5679TIP3   OH238595   1.762   2.570   1.306 -0.1880 -0.5721 -0.2851
 5679TIP3    H138596   1.711   2.552   1.385  1.6923 -2.0240  0.6942
 5679TIP3    H238597   1.853   2.552   1.332  0.7621  1.1807 -2.1431
 5680TIP3   OH238598   4.591   6.607   7.222 -0.4753  0.4022  0.5122
 5680TIP3    H138599   4.674   6.653   7.232 -0.2140  0.0033  0.2240
 5680TIP3    H238600   4.531   6.653   7.280  0.3511 -0.2893  1.9947
 5681TIP3   OH238601   4.896   5.840   8.352  0.9831  0.6713 -0.2495
 5681TIP3    H138602   4.866   5.923   8.315 -0.2318  0.6554  0.6479
 5681TIP3    H238603   4.908   5.782   8.277 -1.6781  0.5498 -0.6831
 5682TIP3   OH238604   5.873   1.207   0.635 -0.5613  0.0329 -0.5554
 5682TIP3    H138605   5.810   1.279   0.636 -0.3837  0.2594 -2.1334
 5682TIP3    H238606   5.820   1.128   0.649 -1.2119  0.2391 -1.6994
 5683TIP3   OH238607   4.179   5.218   0.125 -0.0331  0.0806  0.0241
 5683TIP3    H138608   4.135   5.216   0.041 -0.9137  0.3876  0.4677
 5683TIP3    H238609   4.208   5.308   0.136 -1.5569  0.5018  0.8577
 5684TIP3   OH238610   1.121   6.041   7.616  0.4370  0.0702 -0.0023
 5684TIP3    H138611   1.130   5.952   7.581  1.4700 -0.5821  1.7677
 5684TIP3    H238612   1.049   6.035   7.679 -0.0649  0.7208 -0.4980
 5685TIP3   OH238613   5.028   4.327   1.111 -0.2303  0.8647  0.4666
 5685TIP3    H138614   4.967   4.325   1.185  0.5407  1.4290  1.1285
 5685TIP3    H238615   4.999   4.402   1.058 -1.6759 -0.3785 -0.6202
 5686TIP3   OH238616   5.013   0.361   7.251  0.0063  0.5923  0.4245
 5686TIP3    H138617   5.104   0.357   7.223  0.1633  0.6167  0.9147
 5686TIP3    H238618   4.963   0.334   7.175  0.4539  0.0527  0.3152
 5687TIP3   OH238619   1.147   6.454   8.253 -0.6632 -0.2071  0.6139
 5687TIP3    H138620   1.083   6.517   8.287  1.0257  1.1690  1.3995
 5687TIP3    H238621   1.155   6.477   8.160 -0.5347  0.3086  0.7508
 5688TIP3   OH238622   1.375   1.812   8.482  0.0113 -0.1226 -0.8322
 5688TIP3    H138623   1.426   1.893   8.476  1.4532 -1.0263 -1.2040
 5688TIP3    H238624   1.335   1.803   8.395 -2.3989  1.5483 -0.0022
 5689TIP3   OH238625   5.591   4.156   1.795 -0.2423  0.0551  0.1402
 5689TIP3    H138626   5.672   4.110   1.772 -1.5709 -3.0913  1.2198
 5689TIP3    H238627   5.586   4.151   1.890 -1.3719  0.8167  0.1420
 5690TIP3   OH238628   0.838   4.423   1.358  0.1003 -0.1876  0.2402
 5690TIP3    H138629   0.887   4.343   1.380 -0.3607 -0.6564 -0.3888
 5690TIP3    H238630   0.890   4.494   1.395 -0.5225 -0.9086  2.6829
 5691TIP3   OH238631   0.183   2.242   7.255 -0.2484 -0.3246  0.2722
 5691TIP3    H138632   0.209   2.218   7.165 -1.1860  2.2659 -0.7595
 5691TIP3    H238633   0.266   2.242   7.304  0.2060 -2.3216 -0.4018
 5692TIP3   OH238634   6.786   1.460   7.014  0.6087  0.3484 -0.6263
 5692TIP3    H138635   6.714   1.456   6.950 -0.2099  2.1256  0.1110
 5692TIP3    H238636   6.865   1.459   6.960  0.0048  0.0384 -1.5527
 5693TIP3   OH238637   2.213   4.616   7.979  0.1426 -0.2789 -0.1717
 5693TIP3    H138638   2.196   4.699   7.935  0.8387 -0.6080 -1.0906
 5693TIP3    H238639   2.139   4.605   8.039  0.3063  1.2396  0.3421
 5694TIP3   OH238640   4.271   3.957   1.803  0.1365  0.5119 -0.6445
 5694TIP3    H138641   4.313   3.876   1.831  0.4775  1.4767  1.8981
 5694TIP3    H238642   4.178   3.935   1.797  0.1442  0.0448  0.6276
 5695TIP3   OH238643   4.376   0.151   2.664  0.4805  0.6899  0.6987
 5695TIP3    H138644   4.370   0.071   2.613 -0.0173 -0.0038  1.8197
 5695TIP3    H238645   4.291   0.194   2.652  0.8465  1.2099 -0.1290
 5696TIP3   OH238646   1.757   6.389   0.617  0.2896  0.5216 -0.0793
 5696TIP3    H138647   1.677   6.369   0.568 -0.0786 -2.2235  1.4056
 5696TIP3    H238648   1.822   6.328   0.582  0.8335  0.5658  0.8306
 5697TIP3   OH238649   6.737   6.582   1.953 -0.2564  0.3120 -0.1378
 5697TIP3    H138650   6.711   6.495   1.983  0.7877  0.3934  1.1090
 5697TIP3    H238651   6.657   6.634   1.956 -0.6810 -0.3442  0.0865
 5698TIP3   OH238652   2.946   0.462   0.531  0.5844  0.0927 -0.1472
 5698TIP3    H138653   2.872   0.519   0.511  0.7729  0.1198 -0.7957
 5698TIP3    H238654   2.991   0.451   0.447  1.6137  0.5012  0.3408
 5699TIP3   OH238655   0.858   2.578   7.205  0.3514 -0.2523 -0.7391
 5699TIP3    H138656   0.839   2.669   7.182  1.6000  0.1032 -0.4717
 5699TIP3    H238657   0.789   2.527   7.163 -0.3277  0.8098 -0.9488
 5700TIP3   OH238658   1.786   2.383   7.789  0.1883 -0.2954  0.1231
 5700TIP3    H138659   1.856   2.448   7.801 -1.1358  1.5978 -1.8468
 5700TIP3    H238660   1.725   2.400   7.861  0.6118 -0.4746  0.5385
 5701TIP3   OH238661   0.809   2.843   7.113  0.2280  0.0153 -0.1027
 5701TIP3    H138662   0.732   2.880   7.157 -1.0675 -2.8655  0.2805
 5701TIP3    H238663   0.814   2.889   7.030 -1.8651  0.3979 -0.0795
 5702TIP3   OH238664   4.690   4.931   2.473  0.3270 -0.0734  0.0920
 5702TIP3    H138665   4.643   4.974   2.402 -2.6326 -2.6312  0.2771
 5702TIP3    H238666   4.750   4.998   2.506 -1.7636  2.8430 -1.5299
 5703TIP3   OH238667   0.088   6.063   7.334  0.4639  0.2582  0.1996
 5703TIP3    H138668   0.080   6.155   7.308 -3.5625 -0.2225 -1.1013
 5703TIP3    H238669   0.126   6.020   7.257 -0.7740  0.4589 -0.5663
 5704TIP3   OH238670   4.567   4.613   7.983 -0.6685  0.7671  0.0643
 5704TIP3    H138671   4.538   4.524   8.006 -0.6672  1.0859  1.3845
 5704TIP3    H238672   4.489   4.654   7.947 -0.6453  0.2061 -0.6516
 5705TIP3   OH238673   1.994   2.272   7.993 -0.2679 -0.0109  0.3029
 5705TIP3    H138674   2.055   2.279   7.920 -0.7161 -2.0207 -0.3272
 5705TIP3    H238675   1.962   2.361   8.006  2.5271  1.0726  0.4829
 5706TIP3   OH238676   1.571   0.974   6.738  0.1569  0.7082  0.3398
 5706TIP3    H138677   1.645   1.018   6.698  0.2112  0.7683  0.5098
 5706TIP3    H238678   1.540   1.034   6.805  0.4244  0.3559  0.7815
 5707TIP3   OH238679   5.910   3.610   1.031  0.1118 -0.0153 -0.6811
 5707TIP3    H138680   5.940   3.520   1.045  0.2234 -0.0538 -1.1409
 5707TIP3    H238681   5.855   3.605   0.952 -1.7551 -0.0830  0.5623
 5708TIP3   OH238682   6.744   0.013   0.946 -0.1285 -0.3264  0.3522
 5708TIP3    H138683   6.827  -0.022   0.978  0.0082  0.9286  1.4532
 5708TIP3    H238684   6.769   0.066   0.870  0.4350  1.7905  1.9164
 5709TIP3   OH238685   3.052   2.088   6.500 -0.2263  0.6265 -0.4661
 5709TIP3    H138686   3.048   2.039   6.418  0.4187 -1.6007  0.7480
 5709TIP3    H238687   3.144   2.086   6.525 -0.7543 -1.4029  1.7462
 5710TIP3   OH238688   4.056   2.432   7.985 -0.7560 -0.4777  0.5299
 5710TIP3    H138689   3.977   2.486   7.994  1.0202  2.2160  1.3245
 5710TIP3    H238690   4.109   2.476   7.919  0.8150 -1.1928  1.2373
 5711TIP3   OH238691   1.595   2.025   0.770 -0.6903  0.1702 -0.0940
 5711TIP3    H138692   1.613   1.961   0.701 -0.3489  0.4758 -0.2883
 5711TIP3    H238693   1.575   2.106   0.723 -0.4930  0.3692  0.1609
 5712TIP3   OH238694   2.495   2.417   1.188 -0.1157 -0.1551 -0.0322
 5712TIP3    H138695   2.588   2.426   1.169 -0.0340  0.3236  0.5683
 5712TIP3    H238696   2.491   2.390   1.279 -0.5530 -0.7800 -0.2322
 5713TIP3   OH238697   1.481   3.731   1.663  0.5098  0.0807  0.0882
 5713TIP3    H138698   1.472   3.797   1.732 -1.6169 -0.3209  0.2506
 5713TIP3    H238699   1.491   3.649   1.710  0.7160 -0.0088 -0.1096
 5714TIP3   OH238700   5.458   5.380   8.506 -0.2778 -0.7105  0.4528
 5714TIP3    H138701   5.524   5.333   8.557 -0.9663 -2.3466 -0.1126
 5714TIP3    H238702   5.505   5.414   8.430  0.7243  1.6158  1.9918
 5715TIP3   OH238703   1.415   5.659   1.907 -0.6472  0.7586  0.2732
 5715TIP3    H138704   1.468   5.678   1.984  1.2520 -1.3549 -0.3960
 5715TIP3    H238705   1.422   5.738   1.853  3.3373  0.1203 -0.5100
 5716TIP3   OH238706   4.070   4.013   7.334 -0.7045  0.7218 -0.5388
 5716TIP3    H138707   4.150   3.983   7.377 -0.5019 -0.4259 -1.6334
 5716TIP3    H238708   4.101   4.072   7.265 -0.6496 -0.7225 -1.8049
 5717TIP3   OH238709   0.034   1.048   7.863  0.0781  0.7110 -0.1806
 5717TIP3    H138710   0.066   1.045   7.953  0.1494 -0.5959 -0.2350
 5717TIP3    H238711  -0.053   1.087   7.870  0.2532  1.0102  0.3953
 5718TIP3   OH238712   1.705   2.292   7.360 -0.1778  0.1783 -0.4522
 5718TIP3    H138713   1.739   2.370   7.404  0.2045 -0.5084  0.5028
 5718TIP3    H238714   1.783   2.252   7.321 -0.1436 -0.4699  0.2634
 5719TIP3   OH238715   0.491   5.107   7.853 -0.2992  0.1011 -0.4631
 5719TIP3    H138716   0.425   5.167   7.818  1.2089  1.0319 -1.8674
 5719TIP3    H238717   0.453   5.020   7.843 -1.0057  0.5462 -2.0037
 5720TIP3   OH238718   6.577   1.956   1.273  1.1210  0.8540 -0.0302
 5720TIP3    H138719   6.648   1.894   1.288 -0.5297 -0.7367  1.8415
 5720TIP3    H238720   6.498   1.902   1.272 -0.4966  2.9097  2.4884
 5721TIP3   OH238721   4.361   5.414   7.687 -0.8882 -0.3323 -0.0613
 5721TIP3    H138722   4.375   5.367   7.769 -3.4851 -1.6484 -0.2656
 5721TIP3    H238723   4.351   5.506   7.714 -0.8219 -0.6190  0.9908
 5722TIP3   OH238724   4.166   6.390   0.913  0.3631  0.4467 -0.1098
 5722TIP3    H138725   4.087   6.384   0.967  0.3035 -0.2800 -0.2745
 5722TIP3    H238726   4.230   6.433   0.971 -0.0721  0.8078  0.1094
 5723TIP3   OH238727   6.356   2.577   8.300  0.2350  0.1880 -1.0233
 5723TIP3    H138728   6.342   2.667   8.270  1.5655  0.9872  0.5482
 5723TIP3    H238729   6.440   2.552   8.262  0.0619 -0.2525 -1.1242
 5724TIP3   OH238730   5.775   0.812   7.679 -0.6048 -0.1645 -0.1524
 5724TIP3    H138731   5.775   0.898   7.639  1.5285  0.4281  0.9533
 5724TIP3    H238732   5.741   0.753   7.611  1.1160  1.0502 -2.1978
 5725TIP3   OH238733   0.050   3.932   0.232  0.1135 -0.6260  0.1094
 5725TIP3    H138734  -0.005   3.861   0.199  0.0452 -1.0774  1.1386
 5725TIP3    H238735   0.139   3.906   0.209  0.0205 -0.6368 -0.2419
 5726TIP3   OH238736   2.275   2.116   0.194 -0.1917  0.0354  0.5082
 5726TIP3    H138737   2.311   2.069   0.269  0.3443  0.7384  0.6958
 5726TIP3    H238738   2.350   2.132   0.136 -0.2002  1.3817  0.8368
 5727TIP3   OH238739   1.771   2.016   1.934 -0.3016 -0.0021  0.3459
 5727TIP3    H138740   1.797   2.058   2.016  1.9344 -0.4666 -0.0409
 5727TIP3    H238741   1.752   2.088   1.875 -1.2835  0.3454  1.0635
 5728TIP3   OH238742   5.689   0.700   0.765  0.2430 -0.0475  0.6085
 5728TIP3    H138743   5.764   0.731   0.714  1.7778 -0.4666  2.4803
 5728TIP3    H238744   5.711   0.721   0.856 -2.3814  0.6888  1.1576
 5729TIP3   OH238745   3.695   3.746   1.002  0.6958 -0.0966 -0.2396
 5729TIP3    H138746   3.721   3.655   0.984 -1.2781 -1.1517  1.7265
 5729TIP3    H238747   3.679   3.748   1.097  2.2874  2.7968  0.0903
 5730TIP3   OH238748   5.261   2.546   7.400  0.4261 -0.3417 -0.0516
 5730TIP3    H138749   5.242   2.520   7.490 -0.3295  1.0629  0.2205
 5730TIP3    H238750   5.236   2.470   7.348 -0.9405 -0.4848  0.7645
 5731TIP3   OH238751   3.607   0.111   8.315 -0.0367 -0.2973 -0.1035
 5731TIP3    H138752   3.527   0.099   8.263 -1.5154  0.7764  1.7864
 5731TIP3    H238753   3.661   0.170   8.263 -0.4782 -1.0154 -1.4063
 5732TIP3   OH238754   3.772   6.345   2.333  0.4991  0.5438 -0.2093
 5732TIP3    H138755   3.735   6.403   2.399 -1.1028  1.2256 -1.6105
 5732TIP3    H238756   3.781   6.261   2.377 -1.7181  0.6527  0.5900
 5733TIP3   OH238757   3.736   0.126   1.125 -0.0159 -0.6435  0.2187
 5733TIP3    H138758   3.783   0.096   1.047  1.0049 -0.7702  0.8710
 5733TIP3    H238759   3.707   0.215   1.102  1.5901 -0.0840  0.2218
 5734TIP3   OH238760   0.253   1.000   2.698  0.1008  0.1355  0.3137
 5734TIP3    H138761   0.303   0.984   2.778 -1.8703  0.0402  1.6101
 5734TIP3    H238762   0.207   0.918   2.681 -2.5931  1.2752  1.4696
 5735TIP3   OH238763   4.431   4.774   1.614  0.0575 -0.3532 -0.1660
 5735TIP3    H138764   4.375   4.849   1.595 -1.0999 -1.0575  0.3892
 5735TIP3    H238765   4.438   4.727   1.531 -0.6212 -0.5427 -0.1219
 5736TIP3   OH238766   5.898   6.310   7.912 -0.8209 -0.0268  1.1389
 5736TIP3    H138767   5.904   6.214   7.907  0.5251  0.0284  1.3329
 5736TIP3    H238768   5.953   6.333   7.987 -0.5825  0.9398  0.6797
 5737TIP3   OH238769   2.739   0.627   0.447  0.0645 -0.2768  0.0068
 5737TIP3    H138770   2.712   0.676   0.369 -0.1629 -1.1105 -0.4515
 5737TIP3    H238771   2.780   0.692   0.504 -0.5651  0.5124 -0.4285
 5738TIP3   OH238772   3.749   1.103   7.125  0.0327  0.5773  0.0619
 5738TIP3    H138773   3.701   1.030   7.084  0.0996  1.3768 -1.5230
 5738TIP3    H238774   3.804   1.061   7.191 -0.9061 -0.6589  0.0938
 5739TIP3   OH238775   0.040   6.830   7.644  0.5878 -0.2660  0.7966
 5739TIP3    H138776   0.044   6.805   7.736  1.0211 -1.8450  0.3877
 5739TIP3    H238777  -0.044   6.794   7.613  0.6978 -0.2331  0.4524
 5740TIP3   OH238778   2.563   3.306   8.496  0.0438 -0.5971  0.1389
 5740TIP3    H138779   2.544   3.231   8.439  1.0546 -0.3345 -0.5657
 5740TIP3    H238780   2.484   3.360   8.493  0.7158  0.3780 -2.5482
 5741TIP3   OH238781   1.191   2.799   7.430 -0.0683  0.2934  0.2802
 5741TIP3    H138782   1.201   2.706   7.410 -0.3344  0.2092  0.5299
 5741TIP3    H238783   1.144   2.835   7.355 -0.3725  0.1349  0.3936
 5742TIP3   OH238784   6.234   6.725   0.023 -0.5236 -0.0642  0.0512
 5742TIP3    H138785   6.267   6.765  -0.057 -1.6915 -0.1667 -0.5158
 5742TIP3    H238786   6.187   6.796   0.068 -0.8108 -0.2755  0.0903
 5743TIP3   OH238787   5.022   1.802   0.240 -0.0195  0.4719  0.3300
 5743TIP3    H138788   5.033   1.766   0.152  0.4690  0.0430  0.5620
 5743TIP3    H238789   4.960   1.874   0.228  0.1245  0.4928 -0.3848
 5744TIP3   OH238790   2.671   5.675   0.615  0.0758 -0.0162 -0.3190
 5744TIP3    H138791   2.587   5.687   0.572 -0.0329 -0.6715 -0.3040
 5744TIP3    H238792   2.732   5.653   0.544  0.5116  1.6444 -0.4926
 5745TIP3   OH238793   5.324   4.388   0.818 -0.2125  0.5567 -0.2300
 5745TIP3    H138794   5.401   4.394   0.875  1.2095 -0.0290 -1.9629
 5745TIP3    H238795   5.291   4.299   0.831  0.4713  0.2202 -0.7313
 5746TIP3   OH238796   2.376   4.062   6.302  0.8221 -0.2870 -0.4666
 5746TIP3    H138797   2.373   4.016   6.386  0.3866  0.4627 -0.0738
 5746TIP3    H238798   2.440   4.132   6.315 -1.3932  1.7227  0.2142
 5747TIP3   OH238799   0.351   0.961   8.349 -0.6248  0.1450  0.0672
 5747TIP3    H138800   0.314   0.885   8.394  0.6534  0.2820  1.4297
 5747TIP3    H238801   0.393   0.925   8.272 -0.4727 -0.4764  0.4326
 5748TIP3   OH238802   1.006   6.639   2.527 -0.5610  0.0002  0.1911
 5748TIP3    H138803   1.038   6.549   2.517  0.6944  0.5430 -1.0195
 5748TIP3    H238804   0.928   6.642   2.472 -0.3558 -0.2269 -0.1171
 5749TIP3   OH238805   1.107   4.954   6.920  0.2479  0.2781 -0.0995
 5749TIP3    H138806   1.070   4.867   6.907  1.1774 -0.3006  0.9418
 5749TIP3    H238807   1.184   4.956   6.864 -0.0220  0.6124 -0.4676
 5750TIP3   OH238808   0.167   0.519   7.569  0.0694  0.0118 -0.1456
 5750TIP3    H138809   0.100   0.515   7.501  0.6657  0.8182 -0.8107
 5750TIP3    H238810   0.132   0.580   7.634 -0.1941 -0.2106 -0.0771
 5751TIP3   OH238811   0.578   1.719   0.855 -0.0913 -0.2469 -0.3998
 5751TIP3    H138812   0.645   1.681   0.912 -0.4071 -1.2255 -0.6561
 5751TIP3    H238813   0.573   1.658   0.781 -2.2445 -0.9601  0.2669
 5752TIP3   OH238814   4.286   1.243   8.506 -0.1189 -0.1549  0.4015
 5752TIP3    H138815   4.311   1.172   8.564  0.7556 -0.1372  0.0573
 5752TIP3    H238816   4.361   1.304   8.509  0.6790 -0.9300 -1.9886
 5753TIP3   OH238817   5.676   6.273   2.070  0.2797 -0.3897  0.2089
 5753TIP3    H138818   5.736   6.348   2.067 -0.4017  0.1413 -0.6381
 5753TIP3    H238819   5.732   6.198   2.049  0.9169 -0.0964  0.7923
 5754TIP3   OH238820   6.025   1.267   1.871  0.0715  0.2549 -0.0522
 5754TIP3    H138821   5.980   1.278   1.955 -0.4029  0.0881 -0.2824
 5754TIP3    H238822   6.019   1.352   1.829  0.4854  0.3951  0.1653
 5755TIP3   OH238823   3.255   0.544   8.350 -0.4480  0.5122  0.2128
 5755TIP3    H138824   3.211   0.587   8.424 -1.1164 -0.4290  0.3806
 5755TIP3    H238825   3.247   0.605   8.278 -2.3306  0.2604  0.1545
 5756TIP3   OH238826   4.058   5.992   0.580 -0.5360  0.1039 -0.2566
 5756TIP3    H138827   4.139   5.944   0.596 -0.8549 -0.3751 -0.0346
 5756TIP3    H238828   4.066   6.072   0.631  1.0752  1.5129 -2.5731
 5757TIP3   OH238829   2.908   0.042   0.059 -0.2250 -0.0143  0.1100
 5757TIP3    H138830   2.930   0.008   0.146  1.6331 -0.5627 -0.5328
 5757TIP3    H238831   2.992   0.070   0.022 -0.7203 -1.2425 -2.1295
 5758TIP3   OH238832   2.299   1.750   1.416  0.2393 -0.1294  0.0462
 5758TIP3    H138833   2.351   1.782   1.342 -1.5214  0.4849 -0.9866
 5758TIP3    H238834   2.225   1.704   1.376 -0.2984 -0.5490  1.4463
 5759TIP3   OH238835   2.859   1.683   7.630 -0.3688 -0.0691 -0.1921
 5759TIP3    H138836   2.799   1.654   7.699  0.6610  0.1844  0.8448
 5759TIP3    H238837   2.857   1.612   7.566 -2.9520  0.6088 -1.0040
 5760TIP3   OH238838   3.754   5.105   7.790 -0.3657  1.0030  0.4214
 5760TIP3    H138839   3.729   5.169   7.723 -0.3062  1.1412  0.5297
 5760TIP3    H238840   3.768   5.158   7.869  0.2841  0.9273  0.3563
 5761TIP3   OH238841   6.748   1.529   0.460 -0.0605  0.0103  0.3062
 5761TIP3    H138842   6.842   1.545   0.473  0.0617 -1.1903  0.9657
 5761TIP3    H238843   6.727   1.456   0.518 -0.6184 -2.1937 -2.4965
 5762TIP3   OH238844   0.172   0.859   7.141  0.1503  0.2495  0.6162
 5762TIP3    H138845   0.209   0.896   7.061  0.4026  1.1270  1.1265
 5762TIP3    H238846   0.187   0.765   7.133 -0.7167  0.2019 -0.8175
 5763TIP3   OH238847   5.648   4.395   2.243  0.3946 -0.3268  0.2370
 5763TIP3    H138848   5.636   4.357   2.330 -1.6852  0.1671  0.2024
 5763TIP3    H238849   5.656   4.319   2.185 -0.1524 -0.6793  0.6161
 5764TIP3   OH238850   6.811   1.792   1.304 -0.2427 -0.1667  0.4280
 5764TIP3    H138851   6.834   1.714   1.254  3.3570 -1.0776  3.0877
 5764TIP3    H238852   6.845   1.865   1.253  0.0359 -0.7124 -0.1753
 5765TIP3   OH238853   1.411   4.228   6.991 -0.4337  0.2340 -0.7415
 5765TIP3    H138854   1.402   4.281   6.912  0.2812  0.5789 -0.6057
 5765TIP3    H238855   1.462   4.151   6.963 -0.1763  0.3580 -0.6204
 5766TIP3   OH238856   6.407   0.930   7.681 -0.5948 -0.3258 -0.5430
 5766TIP3    H138857   6.339   0.864   7.672 -2.1243  1.0714  0.3516
 5766TIP3    H238858   6.383   0.998   7.619  0.9600 -0.5472 -1.4506
 5767TIP3   OH238859   2.744   6.546   7.255  0.0448  0.1784 -0.0286
 5767TIP3    H138860   2.684   6.478   7.224  1.4799 -0.7087 -0.9846
 5767TIP3    H238861   2.719   6.625   7.206  1.3601 -0.8473 -2.5708
 5768TIP3   OH238862   2.568   5.959   0.030 -0.0432 -0.2371 -0.3127
 5768TIP3    H138863   2.539   6.017  -0.040  1.0837  2.4752  1.3243
 5768TIP3    H238864   2.658   5.986   0.049  0.1736 -1.8365  1.2211
 5769TIP3   OH238865   3.246   0.169   1.778 -0.0426 -0.5561 -0.1390
 5769TIP3    H138866   3.202   0.113   1.841  1.6069 -1.0732  0.6117
 5769TIP3    H238867   3.328   0.193   1.821 -0.8555  2.8920 -0.1740
 5770TIP3   OH238868   1.144   2.551   7.308 -0.2850  0.2372  0.2507
 5770TIP3    H138869   1.065   2.567   7.257 -0.2450 -0.5925 -0.0837
 5770TIP3    H238870   1.117   2.489   7.375 -0.2885  1.1674  1.1447
 5771TIP3   OH238871   0.485   6.605   7.867 -0.4036  0.5483  0.3804
 5771TIP3    H138872   0.455   6.696   7.861  1.1875  1.0175 -1.8794
 5771TIP3    H238873   0.498   6.590   7.961 -0.3304  2.7971  0.7854
 5772TIP3   OH238874   1.972   5.091   1.481 -0.0177  0.2160 -0.0056
 5772TIP3    H138875   2.032   5.154   1.519  1.0342 -1.5043  1.3136
 5772TIP3    H238876   1.894   5.095   1.536  0.1361  0.2032  0.2134
 5773TIP3   OH238877   1.164   3.684   1.177 -0.5853 -0.1468  0.4383
 5773TIP3    H138878   1.151   3.591   1.157  3.2709 -0.4761 -1.5174
 5773TIP3    H238879   1.189   3.685   1.269 -0.5951 -1.0802  0.4685
 5774TIP3   OH238880   0.610   1.384   1.756  0.0455  0.0326 -0.3161
 5774TIP3    H138881   0.684   1.379   1.696 -1.4147 -2.9912 -2.1767
 5774TIP3    H238882   0.550   1.446   1.715  0.3944  0.4276 -0.2380
 5775TIP3   OH238883   0.363   3.061   6.639  0.5128 -0.0893 -0.1718
 5775TIP3    H138884   0.395   3.033   6.554  0.2504 -4.0299  0.8118
 5775TIP3    H238885   0.442   3.077   6.691  0.7134 -0.2050 -0.4412
 5776TIP3   OH238886   4.322   1.709   8.089  0.2958 -0.0673  0.0249
 5776TIP3    H138887   4.257   1.659   8.140  2.0233 -0.3177  2.1422
 5776TIP3    H238888   4.306   1.684   7.998 -1.1179 -1.8115  0.6955
 5777TIP3   OH238889   4.211   6.807   1.257 -0.2536  0.2483  0.2449
 5777TIP3    H138890   4.128   6.789   1.301 -0.1723 -0.5496  0.0871
 5777TIP3    H238891   4.188   6.819   1.165 -0.4070  1.7913  0.4591
 5778TIP3   OH238892   0.845   5.425   7.564 -1.3935  0.3918 -0.2659
 5778TIP3    H138893   0.897   5.367   7.509 -2.1302 -0.4210 -0.1393
 5778TIP3    H238894   0.808   5.367   7.632 -0.9380  1.2745  0.7663
 5779TIP3   OH238895   3.292   6.850   7.589  0.4997  0.3610 -0.1094
 5779TIP3    H138896   3.256   6.770   7.627 -2.0633  0.4194 -2.1337
 5779TIP3    H238897   3.281   6.838   7.494  0.2408  2.9829 -0.4769
 5780TIP3   OH238898   6.438   4.997   8.250  0.1859 -0.2835 -0.2046
 5780TIP3    H138899   6.480   4.924   8.205  0.1686 -0.2741 -0.2352
 5780TIP3    H238900   6.345   4.986   8.231 -0.0034 -1.1686  1.0885
 5781TIP3   OH238901   1.732   1.083   1.765 -1.2374  0.2692 -0.2073
 5781TIP3    H138902   1.666   1.030   1.810 -0.2984 -1.9723 -1.3458
 5781TIP3    H238903   1.816   1.048   1.796 -0.5750 -0.5154 -2.6984
 5782TIP3   OH238904   3.626   0.426   2.240 -0.0977 -0.2632 -0.0549
 5782TIP3    H138905   3.618   0.388   2.152 -0.1307  0.2466 -0.2810
 5782TIP3    H238906   3.700   0.381   2.280  0.4199  0.0528 -0.6404
 5783TIP3   OH238907   1.205   3.914   0.119  0.0724  0.4602  0.3631
 5783TIP3    H138908   1.280   3.913   0.059  0.9646 -1.6078  1.4111
 5783TIP3    H238909   1.136   3.868   0.072 -0.4442  2.0348 -0.4576
 5784TIP3   OH238910   5.621   1.161   0.213  0.1232 -0.0821  0.2089
 5784TIP3    H138911   5.628   1.250   0.177 -1.8503 -0.2401 -0.7016
 5784TIP3    H238912   5.532   1.133   0.190  0.7387 -2.3454  0.3588
 5785TIP3   OH238913   5.514   4.895   0.088 -0.1004  0.8605  0.7537
 5785TIP3    H138914   5.606   4.885   0.110 -0.3640  0.6433  1.7931
 5785TIP3    H238915   5.501   4.840   0.011  0.0861 -1.1457  2.1050
 5786TIP3   OH238916   1.837   2.639   1.069 -0.4639 -0.0141 -0.0582
 5786TIP3    H138917   1.784   2.598   1.137 -0.9313  2.2756  1.0759
 5786TIP3    H238918   1.792   2.619   0.987 -0.2135 -2.3220  0.2926
 5787TIP3   OH238919   1.435   1.070   7.030 -0.3875  0.3129 -0.2490
 5787TIP3    H138920   1.489   1.146   7.008 -2.9013  2.1264 -0.6006
 5787TIP3    H238921   1.497   1.006   7.063  1.8310  2.6975  0.5773
 5788TIP3   OH238922   6.434   1.851   8.147  0.3848 -0.0208  0.2797
 5788TIP3    H138923   6.339   1.848   8.136  0.5632  1.0342 -2.0864
 5788TIP3    H238924   6.467   1.776   8.097  0.8230 -0.5999  1.3846
 5789TIP3   OH238925   6.034   4.112   0.012 -0.2311  0.3281  0.2712
 5789TIP3    H138926   6.084   4.192  -0.005  1.2828 -0.2844  1.5235
 5789TIP3    H238927   5.988   4.129   0.093 -0.2332  0.0752  0.3236
 5790TIP3   OH238928   2.244   6.744   8.453 -0.2203  0.9734 -0.4959
 5790TIP3    H138929   2.222   6.836   8.437  1.6021  1.5443 -0.0043
 5790TIP3    H238930   2.301   6.746   8.529 -1.1221 -0.7221  0.2787
 5791TIP3   OH238931   2.889   6.373   6.908  0.0157  0.7749 -0.3253
 5791TIP3    H138932   2.821   6.306   6.899  1.9759 -1.2489 -0.8904
 5791TIP3    H238933   2.934   6.373   6.824  0.0408  2.8989 -0.3558
 5792TIP3   OH238934   3.469   0.713   0.162 -0.6052 -0.0571  0.1742
 5792TIP3    H138935   3.447   0.675   0.247 -1.0936  0.7467  0.4215
 5792TIP3    H238936   3.427   0.655   0.099  1.7263 -2.0226  0.3189
 5793TIP3   OH238937   3.089   5.360   8.523 -0.2102 -0.1282  0.2277
 5793TIP3    H138938   3.041   5.280   8.545 -2.1730  0.1581 -2.5402
 5793TIP3    H238939   3.156   5.331   8.460 -0.6796  0.3233 -0.4906
 5794TIP3   OH238940   3.954   6.064   0.322  0.2830 -0.0433 -0.6568
 5794TIP3    H138941   3.998   6.057   0.407 -0.8248  0.7022  0.0105
 5794TIP3    H238942   3.963   5.977   0.283  2.3779  0.1117 -0.5991
 5795TIP3   OH238943   1.399   1.886   0.407  0.2694  0.1765 -0.1248
 5795TIP3    H138944   1.328   1.823   0.397 -0.5150  0.8444  0.9675
 5795TIP3    H238945   1.364   1.968   0.375  0.4539  0.5625  0.6254
 5796TIP3   OH238946   2.632   1.599   7.463  0.0497 -0.4073  0.3538
 5796TIP3    H138947   2.648   1.538   7.391  0.4298  0.0500  0.0435
 5796TIP3    H238948   2.629   1.544   7.541  2.5159 -0.6233  0.3641
 5797TIP3   OH238949   5.095   4.329   1.586 -0.0397 -1.5214  0.1514
 5797TIP3    H138950   5.159   4.267   1.549  0.8012 -0.9717  0.6379
 5797TIP3    H238951   5.146   4.380   1.649 -0.9193 -0.8949  0.3682
 5798TIP3   OH238952   4.121   3.432   7.746 -0.4591 -0.0266 -0.3084
 5798TIP3    H138953   4.131   3.526   7.734  0.5464 -0.1285 -0.3500
 5798TIP3    H238954   4.209   3.396   7.732 -0.8530 -0.9859 -0.4294
 5799TIP3   OH238955   3.088   0.200   8.028 -0.1576 -0.1717  0.0166
 5799TIP3    H138956   3.017   0.259   8.051  1.1313  0.9231  1.3726
 5799TIP3    H238957   3.114   0.226   7.940 -0.5665  0.3089  0.0358
 5800TIP3   OH238958   3.137   2.162   0.562  0.4516  0.0243 -0.4208
 5800TIP3    H138959   3.207   2.126   0.617 -0.5901 -0.6814  0.4849
 5800TIP3    H238960   3.083   2.086   0.539 -0.1909  0.6025 -0.8643
 5801TIP3   OH238961   5.481   1.475   1.536  0.1547  0.0037 -0.4103
 5801TIP3    H138962   5.483   1.450   1.628 -0.5463 -1.0851 -0.6677
 5801TIP3    H238963   5.416   1.544   1.530  1.1985  1.0604  0.1197
 5802TIP3   OH238964   6.212   0.751   7.704 -0.0866  0.1505  0.2260
 5802TIP3    H138965   6.227   0.680   7.642 -1.0194  1.1911 -1.2715
 5802TIP3    H238966   6.149   0.715   7.767 -0.6067 -0.3510 -0.5610
 5803TIP3   OH238967   2.784   4.341   8.020  0.3248  0.0148  0.0492
 5803TIP3    H138968   2.844   4.385   7.960  0.9424 -0.7457  0.1036
 5803TIP3    H238969   2.826   4.258   8.041 -0.1002  0.0606  1.1749
 5804TIP3   OH238970   6.407   3.340   0.323  0.5211  0.1199 -0.3716
 5804TIP3    H138971   6.379   3.431   0.323  0.8377  0.2238 -1.1739
 5804TIP3    H238972   6.501   3.343   0.302  0.4746 -0.4069 -0.6868
 5805TIP3   OH238973   4.908   1.962   0.474  0.0989 -0.2448  0.0096
 5805TIP3    H138974   4.895   1.906   0.550  2.2417 -0.4263  0.2916
 5805TIP3    H238975   4.850   1.925   0.407 -1.1491 -0.6182  1.2550
 5806TIP3   OH238976   2.230   1.187   8.379 -0.0280  0.1793 -0.4699
 5806TIP3    H138977   2.267   1.099   8.374  1.3349  0.6563  0.5357
 5806TIP3    H238978   2.194   1.192   8.468 -0.2408  0.5907 -0.5802
 5807TIP3   OH238979   3.989   4.863   7.271 -0.5382  0.3434  0.1865
 5807TIP3    H138980   4.028   4.847   7.186 -0.9042  0.5625 -0.0234
 5807TIP3    H238981   3.979   4.958   7.276 -0.6020  0.3252  0.4339
 5808TIP3   OH238982   0.562   1.449   8.657  0.2657 -0.3503 -0.3701
 5808TIP3    H138983   0.515   1.510   8.601  0.0415 -0.6652 -0.5310
 5808TIP3    H238984   0.564   1.492   8.743  0.8758  0.2607 -0.6909
 5809TIP3   OH238985   3.953   6.640   7.496  0.2554 -0.2260 -0.4333
 5809TIP3    H138986   3.863   6.619   7.470 -0.5950  0.7217  1.4606
 5809TIP3    H238987   3.996   6.556   7.503 -0.9817 -0.8401  0.1792
 5810TIP3   OH238988   1.326   1.155   2.085 -0.2143  0.5106 -0.2359
 5810TIP3    H138989   1.355   1.245   2.098 -1.8745  1.2606 -1.3141
 5810TIP3    H238990   1.381   1.103   2.143  1.4239  2.0993 -0.2878
 5811TIP3   OH238991   6.093   5.425   0.869  0.3525 -0.2390  0.0707
 5811TIP3    H138992   6.041   5.344   0.874 -1.8012  1.1327  1.5563
 5811TIP3    H238993   6.150   5.421   0.946  0.3131 -0.4012  0.0929
 5812TIP3   OH238994   4.547   5.530   6.773  0.5908  0.9303  0.3149
 5812TIP3    H138995   4.511   5.494   6.854  2.2351  0.3096  0.8092
 5812TIP3    H238996   4.484   5.597   6.747  0.3334  1.6057  2.4563
 5813TIP3   OH238997   2.807   6.343   7.656  0.7100  0.1049 -0.3329
 5813TIP3    H138998   2.893   6.311   7.630  0.7197 -2.3830  2.3023
 5813TIP3    H238999   2.749   6.268   7.644 -0.7585  1.1818 -0.3078
 5814TIP3   OH239000   4.804   6.453   0.550  0.1145 -0.2317  0.2163
 5814TIP3    H139001   4.825   6.488   0.463  0.2053 -0.3590  0.1856
 5814TIP3    H239002   4.877   6.393   0.570 -1.1134 -2.1394 -0.6972
 5815TIP3   OH239003   6.662   3.336   6.465 -0.4417 -0.0199 -0.1781
 5815TIP3    H139004   6.574   3.298   6.458 -1.0788  1.1212  1.0206
 5815TIP3    H239005   6.710   3.274   6.520 -0.8954 -0.0459  0.2022
 5816TIP3   OH239006   5.109   1.617   7.105  0.2445  0.0778  0.1779
 5816TIP3    H139007   5.142   1.656   7.023 -0.8287  1.5531  0.4018
 5816TIP3    H239008   5.180   1.561   7.135  0.8040 -0.2082 -1.5791
 5817TIP3   OH239009   6.034   2.989   0.952  0.2819 -0.1032  0.3625
 5817TIP3    H139010   5.982   3.043   1.012  0.0800  0.3553 -0.2181
 5817TIP3    H239011   6.005   2.899   0.970 -1.2214  0.1932 -0.4180
 5818TIP3   OH239012   2.570   4.000   1.379  0.2533 -0.0829  0.2562
 5818TIP3    H139013   2.505   3.938   1.415  0.2368 -0.1944  0.0328
 5818TIP3    H239014   2.620   3.949   1.316  0.6065 -0.0128  0.4780
 5819TIP3   OH239015   4.610   6.010   1.729 -0.0807 -0.1070 -0.1167
 5819TIP3    H139016   4.545   5.940   1.727 -0.4579  0.2503 -0.8743
 5819TIP3    H239017   4.662   5.993   1.807 -0.8881 -0.5803  0.3303
 5820TIP3   OH239018   6.660   3.795   0.464 -0.2171 -0.5024 -0.2207
 5820TIP3    H139019   6.633   3.854   0.535  2.3482  0.3050  0.1747
 5820TIP3    H239020   6.659   3.851   0.386 -1.1947 -0.9064 -0.5189
 5821TIP3   OH239021   3.386   3.286   7.443  0.2978  0.3459  0.1814
 5821TIP3    H139022   3.404   3.244   7.527 -0.3814 -1.5691 -0.5698
 5821TIP3    H239023   3.452   3.251   7.384  0.0839  0.7983 -0.3367
 5822TIP3   OH239024   6.451   3.999   8.517 -0.4928  0.3016  0.0984
 5822TIP3    H139025   6.451   4.081   8.568 -1.7076 -0.1682  0.9005
 5822TIP3    H239026   6.541   3.968   8.523 -0.4560  0.5826  1.4649
 5823TIP3   OH239027   3.290   2.036   0.952 -0.0220  0.1059 -0.2648
 5823TIP3    H139028   3.211   2.052   1.003 -0.4002  0.0550 -0.8328
 5823TIP3    H239029   3.268   1.962   0.895  1.2168 -1.5251  1.2688
 5824TIP3   OH239030   0.132   1.793   0.265  0.0403 -0.5661  0.1939
 5824TIP3    H139031   0.132   1.769   0.358  1.2815 -2.2780 -0.2054
 5824TIP3    H239032   0.216   1.838   0.252 -0.7824  1.0412  0.1839
 5825TIP3   OH239033   4.891   4.779   1.989  0.3732  0.0058 -0.7031
 5825TIP3    H139034   4.977   4.740   1.971  0.9438 -0.4463  2.4390
 5825TIP3    H239035   4.841   4.708   2.029 -0.3251  1.0978  0.4242
 5826TIP3   OH239036   6.211   3.364   1.826  0.0692  0.0147  0.6940
 5826TIP3    H139037   6.202   3.437   1.889  0.6872  0.3460  0.4009
 5826TIP3    H239038   6.253   3.403   1.750  1.7010 -0.9555  1.0616
 5827TIP3   OH239039   3.125   5.631   8.603 -0.1242 -0.1715  0.3231
 5827TIP3    H139040   3.087   5.618   8.690  0.3942  0.5836  0.6705
 5827TIP3    H239041   3.106   5.550   8.557  0.0085 -0.7711  1.2923
 5828TIP3   OH239042   5.060   3.297   8.029 -0.4098  0.4129  0.2454
 5828TIP3    H139043   5.121   3.348   8.082  0.2418  0.2904 -0.3770
 5828TIP3    H239044   4.976   3.306   8.074  0.0081  0.7992  0.9663
 5829TIP3   OH239045   4.507   3.496   1.667 -0.0121  0.2041 -0.7355
 5829TIP3    H139046   4.469   3.408   1.670 -0.3144  0.3389 -0.5297
 5829TIP3    H239047   4.557   3.503   1.749 -2.1996  1.1948  0.6015
 5830TIP3   OH239048   2.469   2.888   0.370 -0.5646 -0.0587 -0.5037
 5830TIP3    H139049   2.512   2.863   0.289 -0.7810  2.3170 -1.4391
 5830TIP3    H239050   2.540   2.894   0.434  0.0119  0.4942 -1.1730
 5831TIP3   OH239051   5.489   0.305   1.431 -0.1397  0.0634  0.5721
 5831TIP3    H139052   5.483   0.214   1.460 -0.6817  0.3667  1.4427
 5831TIP3    H239053   5.525   0.300   1.343  0.3909 -0.9585  0.8395
 5832TIP3   OH239054   6.413   4.509   7.279  0.6260  0.2007 -0.5867
 5832TIP3    H139055   6.415   4.484   7.371 -0.7138  0.3929 -0.4766
 5832TIP3    H239056   6.475   4.450   7.236 -0.5139 -1.5599  0.0713
 5833TIP3   OH239057   4.077   3.268   8.317 -0.4427  0.3043  0.6225
 5833TIP3    H139058   4.122   3.244   8.236  0.9177  1.1793  1.0836
 5833TIP3    H239059   4.138   3.242   8.387 -0.9266  0.9498  1.3028
 5834TIP3   OH239060   6.543   5.324   7.654  0.4239 -0.4160  0.3870
 5834TIP3    H139061   6.469   5.380   7.632 -0.0747 -0.7262  1.2429
 5834TIP3    H239062   6.579   5.297   7.569  0.1411  0.4843 -0.0306
 5835TIP3   OH239063   1.676   2.125   7.729 -0.0348  0.0513 -0.4053
 5835TIP3    H139064   1.595   2.175   7.727  0.3437  0.7359  0.5708
 5835TIP3    H239065   1.744   2.188   7.705  0.3383 -0.2400 -0.1338
 5836TIP3   OH239066   6.170   4.250   2.112 -0.5253  0.1645  0.4893
 5836TIP3    H139067   6.116   4.216   2.183 -0.5617  1.2441  0.9973
 5836TIP3    H239068   6.258   4.216   2.130 -0.9667 -1.4128 -0.2160
 5837TIP3   OH239069   3.033   4.665   8.119 -0.4942 -0.0080  0.9237
 5837TIP3    H139070   2.970   4.621   8.176 -1.2797  1.7581  1.5162
 5837TIP3    H239071   3.118   4.635   8.149 -0.9879 -0.8994  1.4673
 5838TIP3   OH239072   0.346   6.257   0.304 -0.4238  0.4848  0.4625
 5838TIP3    H139073   0.278   6.303   0.353  0.1124  0.5423  1.1693
 5838TIP3    H239074   0.428   6.289   0.343 -0.0236 -2.2436  2.0938
 5839TIP3   OH239075   6.775   4.945   1.181  0.2390  0.4011 -0.5722
 5839TIP3    H139076   6.760   4.861   1.138  0.2899  1.1478 -2.1565
 5839TIP3    H239077   6.735   5.009   1.121 -0.6936  1.4357  1.0751
 5840TIP3   OH239078   2.840   0.562   1.899 -0.0402 -0.0548 -0.4148
 5840TIP3    H139079   2.831   0.503   1.974 -1.3547  0.0561 -0.4620
 5840TIP3    H239080   2.913   0.618   1.922 -1.0826  0.6838  1.3101
 5841TIP3   OH239081   3.518   4.762   8.145  0.0268  0.3903 -0.3546
 5841TIP3    H139082   3.541   4.692   8.206 -0.0943 -0.0691 -0.8279
 5841TIP3    H239083   3.567   4.740   8.065  1.0432  1.5741 -0.0733
 5842TIP3   OH239084   4.655   6.707   0.179  0.1858 -0.3103 -0.0357
 5842TIP3    H139085   4.584   6.762   0.146  0.4397  0.5785  0.8311
 5842TIP3    H239086   4.634   6.619   0.148 -0.4338  0.2070 -1.1433
 5843TIP3   OH239087   3.335   3.728   2.583 -0.1140  0.0851 -0.2848
 5843TIP3    H139088   3.319   3.709   2.491  0.2085  0.4337 -0.4141
 5843TIP3    H239089   3.409   3.672   2.607 -0.1919  0.0011 -0.2398
 5844TIP3   OH239090   2.869   2.603   8.145  0.0087  0.1121  0.6580
 5844TIP3    H139091   2.794   2.646   8.186 -0.3715  0.0238  0.0782
 5844TIP3    H239092   2.921   2.674   8.108 -1.9297  0.0714 -2.5451
 5845TIP3   OH239093   2.243   3.609   1.841 -0.2866  0.3322 -0.4631
 5845TIP3    H139094   2.216   3.580   1.754  1.0644  0.2180 -0.8690
 5845TIP3    H239095   2.326   3.564   1.856 -0.2644  0.7295  0.6827
 5846TIP3   OH239096   5.131   4.915   7.337  0.0515  0.4984  0.2533
 5846TIP3    H139097   5.218   4.891   7.308  0.1395  0.0938  0.8182
 5846TIP3    H239098   5.132   5.010   7.343  0.2801  0.5289 -0.2739
 5847TIP3   OH239099   1.221   6.199   8.147  0.3102  0.0168 -0.1263
 5847TIP3    H139100   1.240   6.173   8.057 -2.0515 -2.0740 -0.1295
 5847TIP3    H239101   1.185   6.287   8.140  0.6997  0.1095 -1.1319
 5848TIP3   OH239102   0.666   4.446   0.317 -0.4809  0.2090 -0.5274
 5848TIP3    H139103   0.681   4.540   0.323  1.1203  0.1060 -2.0711
 5848TIP3    H239104   0.740   4.413   0.266 -0.6996 -1.9815  0.4454
 5849TIP3   OH239105   6.586   4.997   0.257  0.7322  0.2896 -0.1320
 5849TIP3    H139106   6.499   5.022   0.226  1.3556  2.1223 -0.4959
 5849TIP3    H239107   6.575   4.984   0.351 -0.2082 -0.9174 -0.3718
 5850TIP3   OH239108   3.726   4.738   2.029  0.4439 -0.6939  0.2391
 5850TIP3    H139109   3.718   4.650   2.064 -1.5251 -0.4102  0.6171
 5850TIP3    H239110   3.644   4.781   2.052  1.0290  1.0042 -0.6220
 5851TIP3   OH239111   3.697   2.153   0.385  0.4515  0.0516  0.3048
 5851TIP3    H139112   3.735   2.230   0.426  1.0780 -1.1219  2.0534
 5851TIP3    H239113   3.765   2.086   0.393  0.5842 -0.3117 -2.6252
 5852TIP3   OH239114   2.623   6.772   1.908  0.1924  0.6239 -0.4707
 5852TIP3    H139115   2.593   6.694   1.861  1.1602 -1.0281  1.4676
 5852TIP3    H239116   2.550   6.796   1.965  0.3673  0.2944 -0.1023
 5853TIP3   OH239117   1.137   6.812   1.533  0.1226  0.4582 -1.0863
 5853TIP3    H139118   1.165   6.786   1.621 -0.9545  0.3356 -0.7732
 5853TIP3    H239119   1.158   6.736   1.478  1.4208  0.7859 -1.0816
 5854TIP3   OH239120   6.214   3.760   0.756 -0.4409  0.3235 -0.3910
 5854TIP3    H139121   6.292   3.730   0.803 -1.5099 -0.5928  0.8692
 5854TIP3    H239122   6.247   3.828   0.697  1.2713  0.1337  0.2782
 5855TIP3   OH239123   5.005   5.696   8.091  0.1345  0.1881  0.2293
 5855TIP3    H139124   4.999   5.639   8.015 -0.7670  2.7213 -1.7581
 5855TIP3    H239125   4.984   5.640   8.166 -1.5607 -1.8625 -1.6477
 5856TIP3   OH239126   6.874   0.810   6.693  0.3272  0.3715  0.6197
 5856TIP3    H139127   6.940   0.742   6.682  0.4598  0.5436  0.3218
 5856TIP3    H239128   6.924   0.891   6.706  0.1719  0.4043  1.0328
 5857TIP3   OH239129   2.373   0.280   7.834 -0.4403  0.3625 -0.2376
 5857TIP3    H139130   2.282   0.300   7.810 -0.3582  0.5233 -0.4203
 5857TIP3    H239131   2.370   0.190   7.865 -0.7488  0.5262  0.2191
 5858TIP3   OH239132   0.394   5.515   0.111  0.4529  0.2381 -0.8769
 5858TIP3    H139133   0.447   5.569   0.170 -0.3091 -0.3354  0.3672
 5858TIP3    H239134   0.304   5.537   0.133  0.0006 -2.9103  1.1533
 5859TIP3   OH239135   2.344   5.448   1.763 -0.4641  0.0168  0.2144
 5859TIP3    H139136   2.319   5.399   1.685  0.2692  0.3258 -0.2142
 5859TIP3    H239137   2.320   5.539   1.744 -0.3167  0.0889  0.3646
 5860TIP3   OH239138   0.866   0.055   7.990  0.3237  0.0997 -0.5637
 5860TIP3    H139139   0.817   0.091   7.917  0.3716  1.7487  0.1673
 5860TIP3    H239140   0.937   0.118   8.005  0.0405  0.0648  1.1842
 5861TIP3   OH239141   1.171   0.542   1.702 -0.1275 -0.0074  0.0659
 5861TIP3    H139142   1.231   0.599   1.750  0.9522 -0.6430 -0.4973
 5861TIP3    H239143   1.210   0.535   1.615 -1.4091  0.1412 -0.5445
 5862TIP3   OH239144   6.317   1.030   7.282  0.6006 -0.0725  0.3384
 5862TIP3    H139145   6.239   1.021   7.227  1.1794 -2.9160 -0.1291
 5862TIP3    H239146   6.390   1.013   7.223  1.5259  0.9853  1.1270
 5863TIP3   OH239147   5.705   5.328   3.123  0.1342 -0.3285  0.6451
 5863TIP3    H139148   5.651   5.331   3.044  1.0851  3.1513 -0.0326
 5863TIP3    H239149   5.791   5.298   3.092 -0.0779 -1.1864  0.8448
 5864TIP3   OH239150   5.588   6.661   0.758  0.1029 -0.4534  0.0761
 5864TIP3    H139151   5.535   6.692   0.831 -0.5164 -1.1142 -0.0860
 5864TIP3    H239152   5.525   6.627   0.694  0.5833  0.6372 -1.0312
 5865TIP3   OH239153   0.785   6.322   8.582 -0.3181 -0.0148 -0.4927
 5865TIP3    H139154   0.742   6.244   8.618  0.0555  0.8830  2.1414
 5865TIP3    H239155   0.873   6.293   8.561 -0.1751 -0.3382  0.4856
 5866TIP3   OH239156   4.591   0.785   2.437  0.1547  0.3211 -0.5560
 5866TIP3    H139157   4.554   0.753   2.355 -1.5240  2.6214 -0.7742
 5866TIP3    H239158   4.517   0.795   2.496  1.2467 -0.6403  1.0920
 5867TIP3   OH239159   1.235   3.223   1.221  0.3948  0.0518  0.3273
 5867TIP3    H139160   1.194   3.265   1.297  2.5854 -1.1144  2.2719
 5867TIP3    H239161   1.327   3.214   1.244  1.4176  0.5725 -2.9485
 5868TIP3   OH239162   4.752   1.709   7.835 -0.5517  0.0105  0.4856
 5868TIP3    H139163   4.740   1.695   7.741 -0.6561 -3.2488  0.8610
 5868TIP3    H239164   4.758   1.804   7.845  0.2934  0.4344 -2.8917
 5869TIP3   OH239165   3.338   2.961   8.074 -0.1312  0.1326  0.8417
 5869TIP3    H139166   3.253   3.004   8.087 -0.4565 -0.9239  2.6710
 5869TIP3    H239167   3.397   3.004   8.136 -0.4504 -1.8673  2.6635
 5870TIP3   OH239168   1.873   5.343   1.296 -0.3434  0.5821  0.1237
 5870TIP3    H139169   1.845   5.366   1.208  0.9332 -0.2736 -0.5510
 5870TIP3    H239170   1.926   5.417   1.325  2.1739 -0.5396 -1.2839
 5871TIP3   OH239171   4.273   0.736   1.002  0.4549 -0.2217 -0.2031
 5871TIP3    H139172   4.321   0.685   1.067 -0.0784  0.5331  0.8096
 5871TIP3    H239173   4.239   0.811   1.051  0.8697  0.8941 -1.5599
 5872TIP3   OH239174   0.528   5.928   0.904  0.3848 -0.4973 -0.3683
 5872TIP3    H139175   0.518   5.985   0.827 -0.0051  1.3541  0.9737
 5872TIP3    H239176   0.471   5.853   0.886  0.2263 -0.0527 -1.8331
 5873TIP3   OH239177   1.822   2.764   8.147  0.4022 -0.4719  0.3010
 5873TIP3    H139178   1.727   2.766   8.134  0.6867  0.1080 -2.2720
 5873TIP3    H239179   1.851   2.854   8.131  1.2913 -0.3587  2.2903
 5874TIP3   OH239180   0.082   5.873   2.382  0.1400 -0.4865  0.2896
 5874TIP3    H139181   0.096   5.954   2.333  1.0806 -1.2606 -0.7641
 5874TIP3    H239182   0.126   5.888   2.466  0.6764 -0.0598 -0.0642
 5875TIP3   OH239183   5.427   0.420   1.716  0.3038  0.2111 -0.6554
 5875TIP3    H139184   5.337   0.441   1.692  0.8635  1.8362 -1.4223
 5875TIP3    H239185   5.436   0.327   1.694 -1.2107 -0.0213 -0.4309
 5876TIP3   OH239186   3.663   5.025   1.121 -0.7024 -0.0002  0.3570
 5876TIP3    H139187   3.597   5.093   1.116 -0.1904  0.4976  0.2310
 5876TIP3    H239188   3.656   4.990   1.210 -0.7295  0.4583  0.5352
 5877TIP3   OH239189   2.409   6.870   0.479 -0.0803 -0.0840 -0.3162
 5877TIP3    H139190   2.335   6.837   0.427  0.3299  1.4877 -1.9964
 5877TIP3    H239191   2.379   6.863   0.570 -0.7823 -3.0482 -0.6685
 5878TIP3   OH239192   1.049   2.670   1.906 -0.8102  0.2450  0.1693
 5878TIP3    H139193   0.960   2.637   1.895 -1.0465  0.3425  1.6839
 5878TIP3    H239194   1.056   2.690   1.999  0.6951  0.5453  0.0077
 5879TIP3   OH239195   6.539   4.707   2.241 -0.4649 -0.1750  0.3579
 5879TIP3    H139196   6.465   4.647   2.230 -1.2499  0.6622  0.8955
 5879TIP3    H239197   6.603   4.658   2.292 -0.7935 -0.8014  0.1675
 5880TIP3   OH239198   3.683   0.231   8.032  0.6882 -0.1615 -0.0154
 5880TIP3    H139199   3.601   0.264   7.996 -0.0416 -0.9200  0.9014
 5880TIP3    H239200   3.747   0.244   7.962 -0.0925  0.9181 -0.5533
 5881TIP3   OH239201   2.799   4.814   0.268 -0.1051  0.7280  0.7049
 5881TIP3    H139202   2.739   4.800   0.195  0.3905 -0.1268  0.4520
 5881TIP3    H239203   2.799   4.731   0.316  0.8332  0.7331  0.7319
 5882TIP3   OH239204   3.027   2.423   8.294 -0.5731 -0.2283  0.1648
 5882TIP3    H139205   3.070   2.491   8.243  0.5615 -0.9504  0.1169
 5882TIP3    H239206   3.071   2.426   8.379 -0.8733 -0.5515  0.3357
 5883TIP3   OH239207   2.997   4.839   7.733 -0.4398  0.4650 -0.2367
 5883TIP3    H139208   3.048   4.834   7.814 -0.9943 -1.1508  0.0377
 5883TIP3    H239209   3.063   4.841   7.664  0.0534 -1.1958  0.1370
 5884TIP3   OH239210   3.424   2.904   8.572 -0.0438 -0.5912  0.0224
 5884TIP3    H139211   3.415   2.822   8.522  2.1021 -0.6053 -0.4231
 5884TIP3    H239212   3.436   2.876   8.662  0.7287 -0.7874 -0.1360
 5885TIP3   OH239213   4.171   2.102   8.324  0.2209  0.7263 -0.1368
 5885TIP3    H139214   4.145   2.185   8.285 -0.9271  0.6099  0.3712
 5885TIP3    H239215   4.223   2.059   8.255 -0.4974  1.1851 -0.9769
 5886TIP3   OH239216   5.076   6.496   0.112 -0.3497  0.1689 -1.0708
 5886TIP3    H139217   5.009   6.557   0.141  0.7779  1.1062 -0.3669
 5886TIP3    H239218   5.050   6.412   0.151 -1.4999  0.3481 -1.4273
 5887TIP3   OH239219   0.219   0.709   0.072 -0.3608 -0.1558  0.1963
 5887TIP3    H139220   0.259   0.717   0.158  1.1844 -0.3000 -0.4741
 5887TIP3    H239221   0.252   0.784   0.023  0.5212 -1.2392 -0.9145
 5888TIP3   OH239222   4.875   0.533   1.540  0.2602  0.8146 -0.1305
 5888TIP3    H139223   4.794   0.572   1.507 -0.9593 -1.8937 -0.6456
 5888TIP3    H239224   4.928   0.519   1.461 -0.5870 -1.1898 -0.3976
 5889TIP3   OH239225   3.136   0.690   8.552  0.0590 -0.1607  0.0586
 5889TIP3    H139226   3.134   0.735   8.636 -1.2640 -0.9389  0.4731
 5889TIP3    H239227   3.045   0.666   8.535  0.1015  0.9295 -2.1290
 5890TIP3   OH239228   4.777   0.931   1.477  0.5125  0.4130  0.4107
 5890TIP3    H139229   4.832   0.938   1.555  1.8941  2.0680 -0.6179
 5890TIP3    H239230   4.839   0.911   1.406 -0.7455 -1.3651 -0.2643
 5891TIP3   OH239231   6.764   2.920   8.274  0.1620  0.1275 -0.1619
 5891TIP3    H139232   6.807   2.962   8.200  0.4421 -0.3758 -0.2909
 5891TIP3    H239233   6.749   2.830   8.245  0.1804 -0.0435  0.3507
 5892TIP3   OH239234   5.908   6.038   7.952  0.0078 -0.6489  0.5868
 5892TIP3    H139235   5.822   6.040   7.994  0.3699 -1.4471  1.3957
 5892TIP3    H239236   5.912   5.952   7.910 -0.4172  0.1978 -1.2824
 5893TIP3   OH239237   5.281   1.205   2.347  0.4607  0.1806 -0.0057
 5893TIP3    H139238   5.304   1.284   2.298  1.8371 -0.5188 -0.5033
 5893TIP3    H239239   5.336   1.208   2.425 -0.3197  0.2790  0.5642
 5894TIP3   OH239240   2.384   3.467   7.303  0.2783 -0.1180  0.2364
 5894TIP3    H139241   2.459   3.418   7.270  0.0867  0.6278 -1.4268
 5894TIP3    H239242   2.360   3.525   7.231  0.0520  1.9313  1.8820
 5895TIP3   OH239243   1.181   1.328   6.966  0.1934 -0.5061  0.0718
 5895TIP3    H139244   1.094   1.368   6.963  1.5639  2.6900 -0.5676
 5895TIP3    H239245   1.240   1.394   6.930  2.9728 -2.4459  0.6998
 5896TIP3   OH239246   6.266   1.851   1.682  0.0714 -0.3177 -0.0220
 5896TIP3    H139247   6.197   1.841   1.748  1.0323  0.2023  1.1018
 5896TIP3    H239248   6.222   1.890   1.607 -0.7798  0.4198  0.8284
 5897TIP3   OH239249   0.389   3.685   0.198  0.2103  0.3349 -0.2236
 5897TIP3    H139250   0.482   3.676   0.176 -0.0795 -2.5152 -0.6625
 5897TIP3    H239251   0.354   3.743   0.130  1.2348 -0.4587 -1.4831
 5898TIP3   OH239252   5.970   6.089   0.283 -0.5798 -0.4478  0.4224
 5898TIP3    H139253   5.947   6.063   0.372 -0.2371 -0.8596  0.3943
 5898TIP3    H239254   5.980   6.006   0.235  1.9520 -0.3662  0.6893
 5899TIP3   OH239255   2.769   6.208   0.241  0.7608 -0.1804 -0.3146
 5899TIP3    H139256   2.822   6.185   0.318  0.5775 -1.5179 -0.5557
 5899TIP3    H239257   2.808   6.288   0.207 -0.2717  1.5649  2.2437
 5900TIP3   OH239258   4.499   0.896   1.448  0.3871 -0.0222  0.8150
 5900TIP3    H139259   4.469   0.974   1.493  0.1643  0.7134 -0.5630
 5900TIP3    H239260   4.591   0.915   1.426  0.0422  0.2991 -0.4222
 5901TIP3   OH239261   1.600   4.269   2.582  0.5987 -0.1068 -0.3016
 5901TIP3    H139262   1.680   4.322   2.572  1.0938 -0.9857 -1.1504
 5901TIP3    H239263   1.614   4.194   2.525 -0.5429 -0.6385  0.0957
 5902TIP3   OH239264   2.339   0.125   8.281 -0.0429  0.2494 -0.1361
 5902TIP3    H139265   2.291   0.084   8.209  0.8404  1.1531 -1.2800
 5902TIP3    H239266   2.431   0.110   8.260  0.2688  1.7387  0.0353
 5903TIP3   OH239267   0.159   4.113   1.703  0.2301  0.3537  0.5378
 5903TIP3    H139268   0.249   4.083   1.707  0.3805  0.8494  1.2407
 5903TIP3    H239269   0.142   4.130   1.611  0.7247 -0.1161  0.3587
 5904TIP3   OH239270   0.795   3.041   1.028 -0.1230  0.2301  0.3698
 5904TIP3    H139271   0.785   2.946   1.032 -2.6139  0.4211  0.4590
 5904TIP3    H239272   0.732   3.069   0.961  0.7354  1.7956  0.1731
 5905TIP3   OH239273   2.104   3.687   0.931  0.0356  0.3010  0.2150
 5905TIP3    H139274   2.101   3.778   0.961  1.2825  0.4404  0.0009
 5905TIP3    H239275   2.023   3.675   0.881 -0.4705  1.0779  0.8258
 5906TIP3   OH239276   0.795   3.384   0.365  0.0922 -0.1162  0.2329
 5906TIP3    H139277   0.705   3.363   0.392  0.2928  0.2139  1.2033
 5906TIP3    H239278   0.849   3.320   0.411  0.4208  0.2105  0.3012
 5907TIP3   OH239279   0.127   4.122   0.420 -0.8170 -0.2390 -0.5302
 5907TIP3    H139280   0.091   4.067   0.350 -0.0165  0.1319 -1.2437
 5907TIP3    H239281   0.220   4.128   0.400  0.1521 -2.8426  2.3637
 5908TIP3   OH239282   5.257   3.071   7.691  0.1431 -0.8349 -0.3273
 5908TIP3    H139283   5.294   3.139   7.634  2.2822 -0.8745  0.8947
 5908TIP3    H239284   5.224   3.005   7.630 -0.6525  0.5974 -1.5307
 5909TIP3   OH239285   3.183   5.071   0.927 -0.6660  0.4201 -0.9888
 5909TIP3    H139286   3.156   5.044   0.839 -1.1673  2.9402 -1.6973
 5909TIP3    H239287   3.107   5.117   0.962 -1.0798 -1.9790  1.5181
 5910TIP3   OH239288   1.429   6.172   8.590  0.2229 -0.4603  0.0931
 5910TIP3    H139289   1.359   6.194   8.651 -1.2488 -0.0489 -1.6819
 5910TIP3    H239290   1.457   6.084   8.617  0.5990  0.2451  2.1929
 5911TIP3   OH239291   0.514   1.910   2.567 -0.3240 -0.4838  0.5093
 5911TIP3    H139292   0.456   1.977   2.530  0.7415 -0.3721 -1.0069
 5911TIP3    H239293   0.463   1.829   2.561 -0.5977 -0.2702 -0.1657
 5912TIP3   OH239294   6.376   1.380   2.954 -0.4329  0.5068 -0.5948
 5912TIP3    H139295   6.294   1.340   2.983 -1.2258  1.8833 -0.8645
 5912TIP3    H239296   6.349   1.459   2.908  1.0711  1.2124 -0.3212
 5913TIP3   OH239297   0.709   5.775   7.453  0.2762  0.3994 -0.8601
 5913TIP3    H139298   0.651   5.806   7.522  3.3114  0.6341  1.8116
 5913TIP3    H239299   0.739   5.855   7.409 -0.4759  0.3690 -1.4325
 5914TIP3   OH239300   4.490   4.349   1.489 -0.0097 -0.2598  0.4554
 5914TIP3    H139301   4.452   4.424   1.442  1.2064 -0.6308 -1.2217
 5914TIP3    H239302   4.446   4.349   1.574 -1.1434  1.4304 -0.0785
 5915TIP3   OH239303   5.626   4.776   8.306  0.7470  0.0490  0.1502
 5915TIP3    H139304   5.661   4.688   8.293  2.7170  0.5688  1.5658
 5915TIP3    H239305   5.640   4.820   8.222  0.0963 -0.8281 -0.4443
 5916TIP3   OH239306   3.727   5.746   0.275  0.3997 -0.1704 -0.0506
 5916TIP3    H139307   3.684   5.668   0.310 -0.1702  0.0579 -0.2287
 5916TIP3    H239308   3.656   5.799   0.239  0.6398  0.9889  1.1221
 5917TIP3   OH239309   1.327   2.998   6.453 -0.4262  0.4860 -0.9226
 5917TIP3    H139310   1.252   3.041   6.413 -0.5972  0.4653 -0.6275
 5917TIP3    H239311   1.345   3.050   6.532 -1.8619 -1.0897  0.5258
 5918TIP3   OH239312   3.280   1.734   1.523  0.4164 -0.2143  0.5940
 5918TIP3    H139313   3.307   1.789   1.596 -1.4147 -0.4550  1.5080
 5918TIP3    H239314   3.270   1.647   1.561 -0.3704 -0.3861  0.0235
 5919TIP3   OH239315   4.989   6.202   0.500  0.0927 -0.1778  0.1585
 5919TIP3    H139316   5.042   6.180   0.577  0.3440 -0.1424 -0.0051
 5919TIP3    H239317   5.047   6.251   0.443  0.4199 -1.6207 -0.8035
 5920TIP3   OH239318   1.264   5.437   2.347  0.0863 -1.1274  0.3827
 5920TIP3    H139319   1.200   5.506   2.330 -0.9701 -2.2975 -0.5673
 5920TIP3    H239320   1.334   5.481   2.394 -0.1988  0.7593 -0.8465
 5921TIP3   OH239321   6.567   5.146   2.941  0.1559  0.0285 -0.0901
 5921TIP3    H139322   6.494   5.107   2.989 -0.7006  0.1924 -1.2194
 5921TIP3    H239323   6.561   5.240   2.960 -0.6387  0.1922 -1.0781
 5922TIP3   OH239324   4.458   0.337   1.343  0.0329 -0.4858  0.1919
 5922TIP3    H139325   4.393   0.268   1.359  0.4832 -1.2722 -1.2206
 5922TIP3    H239326   4.535   0.291   1.310 -0.5060  0.7891 -3.2956
 5923TIP3   OH239327   0.066   0.251   0.011  0.1249  0.2699  0.4336
 5923TIP3    H139328   0.047   0.158   0.025  0.6792  0.1815  0.6198
 5923TIP3    H239329   0.134   0.271   0.074 -1.3692  1.3158  1.7863
 5924TIP3   OH239330   3.089   6.691   7.894  0.4138 -0.7414  0.0252
 5924TIP3    H139331   3.004   6.648   7.881 -0.4847  1.1318 -0.6140
 5924TIP3    H239332   3.147   6.645   7.833 -0.5384 -0.9865 -0.7410
 5925TIP3   OH239333   0.713   5.677   1.463  0.0404  1.0765  0.4553
 5925TIP3    H139334   0.686   5.725   1.542  1.1973 -1.3819  2.5183
 5925TIP3    H239335   0.639   5.619   1.444  0.2640  0.7508  0.5598
 5926TIP3   OH239336   4.409   3.324   1.084 -0.6076 -0.2185 -0.1656
 5926TIP3    H139337   4.390   3.417   1.091 -1.0837 -0.3571  0.5930
 5926TIP3    H239338   4.323   3.284   1.066 -0.2012 -0.3938 -1.8662
 5927TIP3   OH239339   3.484   5.640   1.980  0.0352  0.3801  0.1265
 5927TIP3    H139340   3.473   5.583   1.904  1.7016  1.9167 -1.3545
 5927TIP3    H239341   3.433   5.598   2.049 -1.0729 -1.3840 -1.6646
 5928TIP3   OH239342   2.947   0.087   7.563  0.5007  0.3096  0.0451
 5928TIP3    H139343   2.898   0.016   7.520  0.4159  1.6362 -2.1776
 5928TIP3    H239344   3.027   0.095   7.511  1.4006  0.6001  1.4397
 5929TIP3   OH239345   3.106   3.020   0.034 -0.4564  0.4389  0.1228
 5929TIP3    H139346   3.069   3.075  -0.035  1.2851 -0.2421 -1.4540
 5929TIP3    H239347   3.197   3.048   0.041 -0.2739 -0.3510  1.3038
 5930TIP3   OH239348   2.761   3.141   7.072 -0.4647 -0.0485  0.5637
 5930TIP3    H139349   2.682   3.093   7.048 -0.0407  0.6005 -2.5506
 5930TIP3    H239350   2.830   3.074   7.073 -0.4646 -0.0736 -0.3389
 5931TIP3   OH239351   1.119   6.841   8.222 -0.2104 -0.0125  0.3289
 5931TIP3    H139352   1.067   6.761   8.229  0.5614 -0.7228 -1.2692
 5931TIP3    H239353   1.144   6.844   8.129 -0.4585  2.2519  0.2884
 5932TIP3   OH239354   5.692   5.271   0.507 -0.1794  0.2927  0.1447
 5932TIP3    H139355   5.707   5.188   0.463  0.8643  0.3605  0.3352
 5932TIP3    H239356   5.647   5.325   0.443  0.4422  0.0599 -0.5030
 5933TIP3   OH239357   5.239   4.290   7.850  0.3881 -0.4883  0.1061
 5933TIP3    H139358   5.165   4.260   7.797 -0.6965 -0.4860  1.5433
 5933TIP3    H239359   5.314   4.286   7.791 -0.3715 -2.4531 -0.8294
 5934TIP3   OH239360   2.603   3.718   0.862 -0.2361 -0.0137 -0.4082
 5934TIP3    H139361   2.672   3.683   0.806 -0.1415  2.2012 -1.7663
 5934TIP3    H239362   2.523   3.711   0.810 -0.1483  2.0482 -0.9157
 5935TIP3   OH239363   1.807   6.154   2.698  0.2560 -0.2205 -0.5581
 5935TIP3    H139364   1.890   6.112   2.675  0.1118 -0.5125 -0.5450
 5935TIP3    H239365   1.777   6.108   2.777  0.3083  0.1898 -0.2924
 5936TIP3   OH239366   2.660   6.704   7.700  0.1233 -0.4397 -0.5387
 5936TIP3    H139367   2.732   6.709   7.763 -1.2653  0.5474  1.0128
 5936TIP3    H239368   2.608   6.629   7.728 -0.1476 -0.4072 -0.9433
 5937TIP3   OH239369   1.164   1.152   8.263 -0.6237 -0.1528 -0.1047
 5937TIP3    H139370   1.123   1.226   8.308 -0.8124 -0.1794 -0.2343
 5937TIP3    H239371   1.258   1.164   8.279 -0.7582 -0.7687  1.2249
 5938TIP3   OH239372   0.316   6.670   0.928  1.2454  0.2239 -0.6632
 5938TIP3    H139373   0.408   6.645   0.929  0.9479 -0.9113 -0.4777
 5938TIP3    H239374   0.302   6.704   0.839  1.7262 -0.0313 -0.8424
 5939TIP3   OH239375   6.752   1.196   6.682 -0.2246 -0.3326  0.0834
 5939TIP3    H139376   6.669   1.198   6.729 -0.0185  0.4584  0.4132
 5939TIP3    H239377   6.733   1.239   6.598 -0.3201 -0.7922 -0.1378
 5940TIP3   OH239378   1.611   5.295   1.440 -0.0509 -0.1549  0.1232
 5940TIP3    H139379   1.539   5.237   1.415 -0.4049  0.1995  0.3079
 5940TIP3    H239380   1.688   5.259   1.396 -0.3063 -0.6447  0.0741
 5941TIP3   OH239381   3.161   5.037   1.558  0.2920 -0.0354  0.5722
 5941TIP3    H139382   3.194   5.075   1.477 -1.5784 -0.3187 -0.3872
 5941TIP3    H239383   3.067   5.059   1.558  0.3683  0.6060  3.0412
 5942TIP3   OH239384   3.256   3.680   1.477  0.2440 -0.2700  0.1918
 5942TIP3    H139385   3.316   3.753   1.488  1.0030 -0.7733 -0.5386
 5942TIP3    H239386   3.184   3.716   1.425  0.3705  0.0799  0.2573
 5943TIP3   OH239387   6.237   1.974   6.601 -0.3144 -0.1124 -0.3134
 5943TIP3    H139388   6.306   1.928   6.554 -1.4521 -1.8887 -0.3076
 5943TIP3    H239389   6.273   1.987   6.689 -0.0660 -1.2526 -0.2280
 5944TIP3   OH239390   2.802   5.891   1.322  0.1186 -0.4877 -0.9863
 5944TIP3    H139391   2.733   5.878   1.257 -1.2091 -1.1229  0.4683
 5944TIP3    H239392   2.787   5.822   1.387  1.1274  0.3688  0.2116
 5945TIP3   OH239393   1.977   0.099   8.228 -0.2840 -0.1988  0.1589
 5945TIP3    H139394   2.003   0.096   8.320  1.5299 -2.1186 -0.3379
 5945TIP3    H239395   2.059   0.114   8.181 -1.3886  2.3384 -1.1431
 5946TIP3   OH239396   3.730   1.661   8.536 -0.5736  0.0373  0.0536
 5946TIP3    H139397   3.796   1.646   8.468 -0.9334  0.0058 -0.2869
 5946TIP3    H239398   3.661   1.712   8.493  0.0782  1.7266  0.8791
 5947TIP3   OH239399   2.899   5.449   2.511  0.3273  0.4993  0.3477
 5947TIP3    H139400   2.930   5.490   2.591  2.2664 -0.7790  0.3307
 5947TIP3    H239401   2.936   5.502   2.441 -0.1050  0.7394  0.2982
 5948TIP3   OH239402   3.274   4.613   0.989 -0.6223  0.3973 -0.1610
 5948TIP3    H139403   3.249   4.706   0.990 -0.6246  0.4189  1.9449
 5948TIP3    H239404   3.357   4.611   0.942 -0.5384  1.4999 -0.0931
 5949TIP3   OH239405   5.197   3.187   6.816 -0.6383  0.4116  0.0397
 5949TIP3    H139406   5.182   3.219   6.727  2.3032 -0.1165 -0.7544
 5949TIP3    H239407   5.227   3.265   6.863  2.0466 -0.0852 -0.6797
 5950TIP3   OH239408   2.088   5.700   6.760  0.2605  0.1667 -0.3692
 5950TIP3    H139409   2.013   5.725   6.705  0.7969 -0.1266 -1.2502
 5950TIP3    H239410   2.110   5.779   6.808  1.2962  1.1601 -2.3714
 5951TIP3   OH239411   4.473   2.586   1.555  0.7890 -0.1601  0.5419
 5951TIP3    H139412   4.481   2.666   1.502  0.4784 -0.7066 -0.3631
 5951TIP3    H239413   4.382   2.559   1.543  0.5876 -0.0640  1.7260
 5952TIP3   OH239414   5.867   6.095   2.034 -0.4715  0.2330 -0.1696
 5952TIP3    H139415   5.895   6.091   1.943 -1.9078 -0.6799 -0.5991
 5952TIP3    H239416   5.838   6.006   2.055 -1.9024  0.8344  0.5793
 5953TIP3   OH239417   5.247   2.036   8.024 -0.4490 -0.1655 -0.6733
 5953TIP3    H139418   5.217   2.070   7.939  1.4657  1.3685 -0.8063
 5953TIP3    H239419   5.342   2.051   8.023 -0.5843  1.7475  2.4713
 5954TIP3   OH239420   4.551   3.978   8.264 -0.0905 -0.1037  0.2030
 5954TIP3    H139421   4.504   3.907   8.308  0.2062 -1.3279 -1.3402
 5954TIP3    H239422   4.512   4.058   8.298 -1.6828 -1.0505  0.6921
 5955TIP3   OH239423   4.270   0.370   7.270  0.8680  0.3301 -0.4209
 5955TIP3    H139424   4.235   0.384   7.183  0.7674  0.0866 -0.4192
 5955TIP3    H239425   4.347   0.315   7.257  1.4669  1.1493 -0.4617
 5956TIP3   OH239426   3.936   6.029   1.505 -0.2334 -0.0088 -0.1611
 5956TIP3    H139427   3.941   6.018   1.410 -0.4825 -0.1710 -0.1560
 5956TIP3    H239428   4.026   6.046   1.532  0.0961 -1.4582 -0.2450
 5957TIP3   OH239429   0.142   5.117   7.890 -0.4664  0.1136 -0.2916
 5957TIP3    H139430   0.134   5.051   7.959  0.6427  0.9761  0.7001
 5957TIP3    H239431   0.057   5.117   7.846 -0.4506 -2.0763 -0.4374
 5958TIP3   OH239432   2.032   0.525   0.461  0.2184  0.6235 -0.1343
 5958TIP3    H139433   2.106   0.481   0.422  1.1971 -0.0755  2.3141
 5958TIP3    H239434   2.024   0.608   0.413  0.4353 -0.7108 -2.5969
 5959TIP3   OH239435   0.852   6.404   2.221  0.4724  0.5008  0.0272
 5959TIP3    H139436   0.817   6.477   2.271  0.1541  0.5710 -0.2998
 5959TIP3    H239437   0.857   6.332   2.284  0.6931  0.7726  0.3247
 5960TIP3   OH239438   2.804   1.305   8.271 -0.6125 -0.6335 -0.2146
 5960TIP3    H139439   2.824   1.317   8.179  2.0531 -0.3832  0.3058
 5960TIP3    H239440   2.862   1.234   8.299 -0.6427 -0.0401  1.4619
 5961TIP3   OH239441   2.351   2.464   0.370  0.3396 -0.1121  0.6910
 5961TIP3    H139442   2.302   2.533   0.415 -0.3197 -0.5798  0.7089
 5961TIP3    H239443   2.348   2.389   0.429 -0.6995 -0.7966 -0.1821
 5962TIP3   OH239444   5.923   3.905   7.147  0.1340  0.1723 -0.1028
 5962TIP3    H139445   5.978   3.951   7.084  1.9276 -0.2494  1.0786
 5962TIP3    H239446   5.899   3.823   7.103 -2.5443  1.7813 -1.9630
 5963TIP3   OH239447   3.583   1.931   7.905 -0.3536 -0.1222  0.1119
 5963TIP3    H139448   3.647   1.957   7.972  0.0068  0.7997 -0.5589
 5963TIP3    H239449   3.499   1.935   7.950 -0.1171  0.4966  0.5216
 5964TIP3   OH239450   5.708   4.562   0.351  0.0374 -0.3109 -0.3516
 5964TIP3    H139451   5.724   4.645   0.307  0.9051  0.1326  0.7540
 5964TIP3    H239452   5.619   4.571   0.387 -0.7392 -0.7350 -2.0596
 5965TIP3   OH239453   0.274   5.081   0.432  0.2390 -0.3006 -0.0238
 5965TIP3    H139454   0.209   5.024   0.474  2.9748 -2.4980  1.5774
 5965TIP3    H239455   0.299   5.143   0.500  0.9505 -0.5225 -0.0708
 5966TIP3   OH239456   2.835   4.066   8.523  0.0594 -0.4897  0.1953
 5966TIP3    H139457   2.796   4.150   8.548  1.2065 -0.2917  1.4085
 5966TIP3    H239458   2.891   4.086   8.449  1.4761  0.1323  1.3931
 5967TIP3   OH239459   5.470   3.280   1.809  0.1649  0.1126  0.5213
 5967TIP3    H139460   5.384   3.309   1.840  0.2896  0.5085  0.5061
 5967TIP3    H239461   5.526   3.285   1.887  0.5425  1.3613  0.1975
 5968TIP3   OH239462   6.159   4.971   1.430  0.1981 -0.4529 -0.1417
 5968TIP3    H139463   6.125   4.883   1.445 -0.6247 -0.2740 -0.8792
 5968TIP3    H239464   6.169   5.008   1.518 -1.1550 -0.6485  0.1135
 5969TIP3   OH239465   3.022   2.172   8.533  0.1442 -0.0099  0.3532
 5969TIP3    H139466   2.989   2.226   8.605  0.6891  1.2637 -0.3186
 5969TIP3    H239467   2.993   2.083   8.554 -3.9625  0.9778 -0.2701
 5970TIP3   OH239468   3.200   5.154   1.832  0.2941 -0.3927 -0.2213
 5970TIP3    H139469   3.292   5.144   1.808  0.1286  1.3061 -1.7567
 5970TIP3    H239470   3.153   5.092   1.777  0.3498  0.1321 -0.8636
 5971TIP3   OH239471   2.789   5.558   1.221  0.2617  0.3542  0.1155
 5971TIP3    H139472   2.816   5.571   1.312 -0.2295 -2.1558  0.7235
 5971TIP3    H239473   2.861   5.591   1.169  0.5810  1.7935  1.4083
 5972TIP3   OH239474   3.228   5.854   1.573  0.2635  0.1727 -0.0393
 5972TIP3    H139475   3.247   5.787   1.507  1.4601  2.0173 -1.6839
 5972TIP3    H239476   3.134   5.871   1.564  0.3656  0.2266 -1.1508
 5973TIP3   OH239477   4.311   5.957   6.721 -0.4654  0.3281 -0.3957
 5973TIP3    H139478   4.301   6.033   6.664 -0.1883  0.2975 -0.4873
 5973TIP3    H239479   4.396   5.920   6.697  0.5449  1.3915  1.3231
 5974TIP3   OH239480   0.055   4.013   8.354  0.0817 -1.2792 -0.6810
 5974TIP3    H139481   0.069   4.108   8.358  1.8416 -1.5514  1.6362
 5974TIP3    H239482   0.131   3.979   8.307 -0.4321 -1.5969 -1.3061
 5975TIP3   OH239483   6.348   5.103   0.156  0.4384 -0.7579  0.4409
 5975TIP3    H139484   6.318   5.103   0.065 -1.4117 -0.3960  1.0249
 5975TIP3    H239485   6.277   5.062   0.205  0.2572  1.3649  2.0759
 5976TIP3   OH239486   1.491   4.773   1.158 -0.1075  0.5856  0.2269
 5976TIP3    H139487   1.531   4.754   1.073 -0.9797  0.8141 -0.2577
 5976TIP3    H239488   1.564   4.794   1.216  0.5959 -0.8708 -0.1119
 5977TIP3   OH239489   2.300   4.476   7.367 -0.0601  0.0064  1.1909
 5977TIP3    H139490   2.393   4.497   7.373 -0.4084  2.1617  0.0522
 5977TIP3    H239491   2.289   4.445   7.277 -0.3434 -0.8896  1.5285
 5978TIP3   OH239492   4.320   4.336   0.480  0.0785  0.0591 -0.3852
 5978TIP3    H139493   4.375   4.306   0.408  2.4646 -0.8045  1.6672
 5978TIP3    H239494   4.374   4.397   0.529 -1.1811  0.0483  1.1139
 5979TIP3   OH239495   1.603   0.654   7.480 -0.4421  0.2668  0.4580
 5979TIP3    H139496   1.534   0.704   7.436 -0.0455  0.8626  0.4955
 5979TIP3    H239497   1.683   0.680   7.435 -0.3742 -1.4326 -0.4820
 5980TIP3   OH239498   4.318   6.009   8.264 -0.1673  0.5499  0.2749
 5980TIP3    H139499   4.377   5.986   8.336  0.2748  1.1240  0.1009
 5980TIP3    H239500   4.343   5.950   8.193 -0.2129  0.3779  0.4013
 5981TIP3   OH239501   2.945   5.874   1.630 -0.0464 -0.0423 -0.2507
 5981TIP3    H139502   2.965   5.894   1.722  1.6111  0.2425 -0.6350
 5981TIP3    H239503   2.917   5.783   1.631  0.1019 -0.0892  0.5283
 5982TIP3   OH239504   4.772   5.974   1.953 -0.0010 -0.8565  0.3991
 5982TIP3    H139505   4.844   6.034   1.971 -0.5168  0.1669 -0.7935
 5982TIP3    H239506   4.755   5.930   2.037  0.7998  0.2183  1.1444
 5983TIP3   OH239507   3.171   2.389   8.559 -0.0332 -0.5249 -0.0999
 5983TIP3    H139508   3.263   2.366   8.548 -0.2445 -1.3305 -0.1952
 5983TIP3    H239509   3.125   2.306   8.558 -1.2030  0.0047 -3.8460
 5984TIP3   OH239510   3.956   4.926   1.489 -0.1440  0.3236  0.4826
 5984TIP3    H139511   3.898   4.870   1.437  0.4928 -0.2554  0.3854
 5984TIP3    H239512   3.917   5.013   1.482  0.6077  0.5422 -2.0821
 5985TIP3   OH239513   0.565   1.061   8.167  0.2245  0.2667  0.1342
 5985TIP3    H139514   0.526   1.084   8.252  0.9712  0.1657  0.5088
 5985TIP3    H239515   0.652   1.101   8.168 -0.4527  1.9268 -1.3846
 5986TIP3   OH239516   4.810   5.379   6.719 -0.1388 -0.5635 -0.1306
 5986TIP3    H139517   4.736   5.438   6.708 -0.9579 -1.6248 -0.5329
 5986TIP3    H239518   4.773   5.291   6.709  0.6739 -1.2676  2.2208
 5987TIP3   OH239519   3.074   1.562   1.325  0.2663  0.5524 -0.2745
 5987TIP3    H139520   3.064   1.489   1.387  0.1661  0.3678 -0.5081
 5987TIP3    H239521   3.159   1.600   1.348 -0.1482  1.0098  0.5266
 5988TIP3   OH239522   0.087   6.468   0.618  0.4606 -0.2623  0.5551
 5988TIP3    H139523   0.183   6.473   0.614  0.4588 -0.1789  0.6058
 5988TIP3    H239524   0.057   6.546   0.571  0.4321  0.2281  1.3695
 5989TIP3   OH239525   3.965   0.793   7.131 -0.4067 -0.3380 -0.1195
 5989TIP3    H139526   3.952   0.773   7.224  0.2052 -1.4406 -0.2619
 5989TIP3    H239527   4.054   0.828   7.127 -0.6398  0.2613 -0.2199
 5990TIP3   OH239528   5.314   1.750   2.848  0.3938  0.3316 -0.0398
 5990TIP3    H139529   5.320   1.759   2.753  0.6877  0.2006 -0.0341
 5990TIP3    H239530   5.318   1.656   2.864  3.0029  0.4138  0.2581
 5991TIP3   OH239531   5.798   4.861   1.279  0.5614  0.1426 -0.1806
 5991TIP3    H139532   5.816   4.941   1.328 -2.1909  0.0131  1.2430
 5991TIP3    H239533   5.719   4.880   1.229  0.3819 -1.3835 -0.5447
 5992TIP3   OH239534   6.757   6.088   2.206  0.4662 -0.1146  0.4878
 5992TIP3    H139535   6.737   6.058   2.118  1.8141  0.3869 -0.0204
 5992TIP3    H239536   6.675   6.081   2.254  0.1875 -2.3506 -0.2269
 5993TIP3   OH239537   2.184   2.388   5.993  0.1893 -0.7323 -0.2642
 5993TIP3    H139538   2.108   2.393   5.935 -1.4722 -1.1462  1.7493
 5993TIP3    H239539   2.148   2.393   6.081  2.6422  0.2970  0.7884
 5994TIP3   OH239540   4.762   1.020   0.334 -0.1902  0.5915  0.0625
 5994TIP3    H139541   4.693   1.015   0.268  0.3208  1.3815 -0.5515
 5994TIP3    H239542   4.715   1.017   0.418 -0.8707 -0.0171 -0.3334
 5995TIP3   OH239543   5.714   6.549   8.260 -0.4819  0.0999 -0.4723
 5995TIP3    H139544   5.692   6.487   8.190 -0.6554 -0.4811  0.0907
 5995TIP3    H239545   5.704   6.499   8.341  0.6806  0.4820 -0.0757
 5996TIP3   OH239546   2.942   1.537   7.212  0.0754  0.5928 -0.2816
 5996TIP3    H139547   2.985   1.459   7.176 -0.3977 -0.0565  0.5307
 5996TIP3    H239548   3.014   1.599   7.228  0.3745  0.6454 -1.6582
 5997TIP3   OH239549   0.854   5.344   6.571 -0.2515  0.5187  0.4195
 5997TIP3    H139550   0.935   5.395   6.569 -0.6660  1.1981  0.7174
 5997TIP3    H239551   0.785   5.409   6.570 -0.7989 -0.0556  0.3741
 5998TIP3   OH239552   5.398   3.452   0.223  1.0588  0.1826  0.1787
 5998TIP3    H139553   5.415   3.462   0.317  0.5936  1.3177  0.1538
 5998TIP3    H239554   5.422   3.537   0.185  0.3886  0.0361 -0.5946
 5999TIP3   OH239555   6.866   5.243   2.278 -0.3222 -0.0469 -0.0325
 5999TIP3    H139556   6.809   5.168   2.297  0.4093 -0.5295  0.2778
 5999TIP3    H239557   6.906   5.265   2.362 -0.0390  0.2830 -0.2511
 6000TIP3   OH239558   4.160   0.094   6.932  0.1599  0.1127  0.2799
 6000TIP3    H139559   4.199   0.177   6.961  0.1102 -0.2339  1.4091
 6000TIP3    H239560   4.088   0.119   6.875  1.1847  0.8000 -0.7620
 6001TIP3   OH239561   2.432   4.674   1.080  0.4226  0.3169  0.6353
 6001TIP3    H139562   2.384   4.671   1.163 -0.6666  1.2426  0.0664
 6001TIP3    H239563   2.505   4.614   1.093  0.0118  0.0828  2.0991
 6002TIP3   OH239564   3.667   5.603   7.942  0.3167 -0.1807 -0.2082
 6002TIP3    H139565   3.719   5.545   7.886 -0.6034  1.1080 -2.4979
 6002TIP3    H239566   3.588   5.620   7.892  0.0774  2.2002  0.8639
 6003TIP3   OH239567   0.467   4.385   0.127 -0.5640 -0.0302 -0.0768
 6003TIP3    H139568   0.550   4.432   0.139  0.0066 -0.7968 -0.9163
 6003TIP3    H239569   0.403   4.441   0.170  0.4693  0.2863  1.1261
 6004TIP3   OH239570   4.871   0.871   7.999 -0.4281 -0.5131  0.4975
 6004TIP3    H139571   4.777   0.867   7.977 -0.5056  0.1063  0.6794
 6004TIP3    H239572   4.915   0.843   7.920 -0.7592 -0.1409  0.1716
 6005TIP3   OH239573   5.241   1.810   1.067 -0.9469  0.2486 -0.0652
 6005TIP3    H139574   5.240   1.849   0.980  1.1506  1.6937  0.4842
 6005TIP3    H239575   5.160   1.759   1.071 -0.6543 -0.6777 -3.1871
 6006TIP3   OH239576   1.529   6.857   8.410  0.6622  0.2880  0.0290
 6006TIP3    H139577   1.610   6.813   8.386  1.3321  1.0449  0.8371
 6006TIP3    H239578   1.473   6.787   8.445  0.9083 -0.2526 -0.6284
 6007TIP3   OH239579   5.700   2.206   0.212 -0.3660  0.5172  0.1452
 6007TIP3    H139580   5.682   2.296   0.185 -2.4713 -0.2016 -1.1178
 6007TIP3    H239581   5.742   2.166   0.135 -2.6053 -0.4376 -0.6668
 6008TIP3   OH239582   3.343   2.655   8.495 -0.7655 -0.4001 -0.2390
 6008TIP3    H139583   3.395   2.585   8.534  1.1183  0.5025 -1.0309
 6008TIP3    H239584   3.293   2.611   8.425 -1.2038 -1.3006  0.6183
 6009TIP3   OH239585   5.841   1.540   1.989 -0.3548  0.1770  0.3801
 6009TIP3    H139586   5.811   1.482   2.059 -0.7680  0.7453  0.6885
 6009TIP3    H239587   5.780   1.526   1.917  1.8713 -2.7869 -1.1759
 6010TIP3   OH239588   0.350   2.212   7.009  0.0742  0.5913 -0.2092
 6010TIP3    H139589   0.433   2.213   7.057  0.3250  3.1835 -0.5641
 6010TIP3    H239590   0.368   2.156   6.933  1.3517  0.6950 -0.0171
 6011TIP3   OH239591   0.527   3.380   7.415 -0.2988 -0.2054 -0.3076
 6011TIP3    H139592   0.531   3.472   7.387 -0.0221 -0.6161 -1.6878
 6011TIP3    H239593   0.455   3.378   7.478 -2.0165  0.5014 -2.1472
 6012TIP3   OH239594   4.855   4.209   1.670  0.1185  0.4247  0.1226
 6012TIP3    H139595   4.824   4.299   1.685 -1.3938  0.1481 -1.0189
 6012TIP3    H239596   4.939   4.219   1.625 -0.4048  1.3094 -0.7137
 6013TIP3   OH239597   2.562   5.770   0.843 -0.2797  0.6157 -0.0035
 6013TIP3    H139598   2.487   5.715   0.823 -0.5943  0.6492  1.0290
 6013TIP3    H239599   2.634   5.733   0.791 -0.1945 -1.4650  1.4944
 6014TIP3   OH239600   5.093   6.777   1.341 -0.0677 -0.1313 -0.0817
 6014TIP3    H139601   5.097   6.697   1.394  0.6218  1.2088  1.9868
 6014TIP3    H239602   5.003   6.807   1.349 -0.5868 -1.1750 -1.6605
 6015TIP3   OH239603   6.474   3.284   8.033  0.4021 -0.4216 -0.0039
 6015TIP3    H139604   6.477   3.189   8.024  0.0434 -0.5504  1.0465
 6015TIP3    H239605   6.492   3.318   7.945 -1.0120 -1.4847 -0.7441
 6016TIP3   OH239606   3.919   3.900   6.464  0.2453 -0.3171  0.0793
 6016TIP3    H139607   3.955   3.841   6.398  1.4234 -0.0712  0.4888
 6016TIP3    H239608   3.991   3.959   6.486 -0.2156 -0.2191  1.3823
 6017TIP3   OH239609   4.385   6.530   1.278 -0.7641  0.0445 -0.2469
 6017TIP3    H139610   4.367   6.623   1.265  0.9862  0.2110 -1.9512
 6017TIP3    H239611   4.364   6.515   1.370 -1.4393  2.0292 -0.0121
 6018TIP3   OH239612   4.862   3.962   6.965 -0.1925 -0.0450  0.3441
 6018TIP3    H139613   4.776   3.921   6.958  0.0163 -0.3904 -0.2149
 6018TIP3    H239614   4.918   3.895   7.006 -0.1490  0.1244  0.5670
 6019TIP3   OH239615   2.638   3.991   2.719 -0.3326  0.2517 -0.1505
 6019TIP3    H139616   2.635   4.055   2.789 -0.0484 -0.2116  0.2913
 6019TIP3    H239617   2.561   4.010   2.665 -0.2846  0.9132  0.0100
 6020TIP3   OH239618   1.010   0.092   7.201 -0.0510  0.2697 -0.1575
 6020TIP3    H139619   1.060   0.100   7.120  1.2230  0.1548  0.5916
 6020TIP3    H239620   0.979   0.002   7.201 -0.1429  0.2987 -0.5616
 6021TIP3   OH239621   2.741   6.622   8.055 -0.4515  0.5471  0.2700
 6021TIP3    H139622   2.655   6.581   8.065 -0.3193  0.5219  1.3427
 6021TIP3    H239623   2.781   6.576   7.981 -0.7296 -0.5315  0.7775
 6022TIP3   OH239624   3.060   2.422   0.237  0.1642  0.2331 -0.3089
 6022TIP3    H139625   3.023   2.502   0.200 -1.5817 -0.6558 -0.5705
 6022TIP3    H239626   3.033   2.353   0.177  0.4654 -0.7476  0.6531
 6023TIP3   OH239627   4.142   1.558   0.685 -0.4550 -0.3057 -0.2046
 6023TIP3    H139628   4.048   1.541   0.690 -0.0993 -3.1506 -1.5385
 6023TIP3    H239629   4.174   1.544   0.774 -1.4809  2.7749  0.7756
 6024TIP3   OH239630   1.145   3.141   0.080 -0.3974  0.2605 -0.1022
 6024TIP3    H139631   1.145   3.201   0.155 -3.0489  0.7107 -0.3875
 6024TIP3    H239632   1.233   3.149   0.043  0.6319  0.8459  2.2856
 6025TIP3   OH239633   1.084   5.528   0.232  0.2258 -0.4218  0.1949
 6025TIP3    H139634   1.019   5.587   0.195 -0.7648 -0.9079  1.1014
 6025TIP3    H239635   1.102   5.464   0.163  0.3041  0.1431 -0.3152
 6026TIP3   OH239636   3.712   4.376   7.684 -0.4474 -0.4031  1.1704
 6026TIP3    H139637   3.761   4.299   7.657 -2.7686 -1.6212  0.0776
 6026TIP3    H239638   3.726   4.440   7.614 -1.3416 -1.2080  0.2142
 6027TIP3   OH239639   0.212   5.916   7.149  0.2202 -0.2547  0.4211
 6027TIP3    H139640   0.168   5.836   7.177  0.7610 -0.9287 -0.5931
 6027TIP3    H239641   0.199   5.919   7.054 -0.0121  1.0000  0.4825
 6028TIP3   OH239642   5.931   4.678   7.365  0.0370  0.3430  0.1164
 6028TIP3    H139643   5.845   4.677   7.323 -0.0779 -1.6378  0.2666
 6028TIP3    H239644   5.912   4.679   7.459  0.2683  2.7462  0.1979
 6029TIP3   OH239645   6.727   4.873   7.659 -0.1611  0.3911 -0.1772
 6029TIP3    H139646   6.674   4.870   7.580  0.2964 -1.9031 -0.4666
 6029TIP3    H239647   6.736   4.966   7.679 -3.4441  0.9005 -0.6558
 6030TIP3   OH239648   4.412   4.455   0.226  0.1268 -0.2135  0.3147
 6030TIP3    H139649   4.456   4.521   0.279 -0.5084  0.9697 -0.5874
 6030TIP3    H239650   4.330   4.496   0.199  0.5364 -0.6493 -1.7719
 6031TIP3   OH239651   5.658   3.739   7.452  0.6131 -0.2382  0.5911
 6031TIP3    H139652   5.716   3.780   7.516 -0.7094  0.5232  1.3373
 6031TIP3    H239653   5.623   3.662   7.498  0.1625 -0.0521  0.5651
 6032TIP3   OH239654   0.427   6.030   0.157  0.4949 -0.1316 -0.0236
 6032TIP3    H139655   0.416   6.114   0.203  0.8513 -0.0855 -0.0186
 6032TIP3    H239656   0.455   6.055   0.069  3.8513 -0.2706  0.8608
 6033TIP3   OH239657   6.149   2.662   0.287  0.0136  0.1995 -0.0897
 6033TIP3    H139658   6.211   2.603   0.329 -0.1112  1.7555  2.4823
 6033TIP3    H239659   6.137   2.734   0.350 -1.5507  1.8289 -2.0931
 6034TIP3   OH239660   2.710   1.705   0.831  0.1221 -0.0981 -0.2125
 6034TIP3    H139661   2.736   1.735   0.744 -0.7504 -0.7408 -0.7132
 6034TIP3    H239662   2.791   1.706   0.882  1.0907 -1.6377 -1.6011
 6035TIP3   OH239663   3.347   6.239   2.168 -0.2804 -0.5959  0.4071
 6035TIP3    H139664   3.351   6.206   2.257 -0.5370  1.6273  1.3088
 6035TIP3    H239665   3.438   6.238   2.138 -0.1164 -0.7772  0.9060
 6036TIP3   OH239666   6.326   3.457   1.613 -0.2063  0.1879  0.1103
 6036TIP3    H139667   6.291   3.545   1.627  1.0890  0.6304  0.7298
 6036TIP3    H239668   6.354   3.457   1.521  1.2375  0.9739  0.5299
 6037TIP3   OH239669   5.198   5.296   0.921  0.1013 -0.7212 -0.0234
 6037TIP3    H139670   5.207   5.346   0.840 -2.9577 -2.1979 -1.4706
 6037TIP3    H239671   5.204   5.361   0.990  3.6826  0.4901 -1.2367
 6038TIP3   OH239672   3.272   2.341   8.006  0.2167 -0.1081 -0.5491
 6038TIP3    H139673   3.194   2.371   7.959 -0.3566 -2.2636 -1.0744
 6038TIP3    H239674   3.303   2.266   7.955 -0.5533 -2.7335  2.5404
 6039TIP3   OH239675   5.263   0.851   7.842 -0.7075  0.1715  0.5883
 6039TIP3    H139676   5.265   0.941   7.875 -0.6483  0.5523 -0.4177
 6039TIP3    H239677   5.355   0.830   7.829 -0.5520 -0.8098  2.7700
 6040TIP3   OH239678   2.519   6.251   1.564 -0.1562 -0.4801 -0.1189
 6040TIP3    H139679   2.491   6.194   1.493 -1.5352 -0.8491  0.6958
 6040TIP3    H239680   2.606   6.219   1.588  0.3032 -0.3989 -1.5470
 6041TIP3   OH239681   4.091   2.666   1.239 -0.3134 -0.2225 -0.1439
 6041TIP3    H139682   4.053   2.631   1.158  0.4928  2.3116 -1.7109
 6041TIP3    H239683   4.186   2.652   1.229 -0.1318  0.8919 -0.0445
 6042TIP3   OH239684   5.653   5.817   8.667  0.0422 -0.0049  0.0344
 6042TIP3    H139685   5.638   5.861   8.584 -1.3419 -1.3170 -0.4558
 6042TIP3    H239686   5.603   5.735   8.661  0.0270 -0.2151  2.0904
 6043TIP3   OH239687   0.965   6.306   1.630 -0.1203  0.3599  0.1694
 6043TIP3    H139688   0.960   6.214   1.606  0.4406  0.3686  0.0088
 6043TIP3    H239689   0.924   6.352   1.557  0.4565  0.2982 -0.2038
 6044TIP3   OH239690   6.062   2.974   1.867  0.4476  0.1843 -0.3751
 6044TIP3    H139691   6.060   2.878   1.868 -1.3612  0.1791 -1.1496
 6044TIP3    H239692   6.127   2.997   1.934  0.6186 -1.5594  0.1146
 6045TIP3   OH239693   5.252   4.020   2.284 -0.1763 -0.2221  0.6105
 6045TIP3    H139694   5.333   4.057   2.252 -1.1294  0.4052 -1.1971
 6045TIP3    H239695   5.256   3.927   2.259  0.2764 -0.3598  1.1733
 6046TIP3   OH239696   4.731   1.459   1.186 -0.4882 -0.1585 -0.7110
 6046TIP3    H139697   4.727   1.447   1.091 -0.7033 -0.3204 -0.6832
 6046TIP3    H239698   4.644   1.433   1.217 -0.3700 -0.2544 -0.4536
 6047TIP3   OH239699   5.682   1.243   7.362  0.2132 -0.4999 -0.2466
 6047TIP3    H139700   5.720   1.271   7.278  1.8102  1.3525  0.9980
 6047TIP3    H239701   5.605   1.299   7.373  1.4598  1.1311  0.6420
 6048TIP3   OH239702   1.991   6.842   1.239  0.3180 -0.0387  0.4024
 6048TIP3    H139703   1.948   6.801   1.164  0.3427  1.4096 -0.4422
 6048TIP3    H239704   1.922   6.849   1.305  0.4894 -2.0323  0.8497
 6049TIP3   OH239705   4.177   6.237   1.440 -0.5518  0.8520  0.0560
 6049TIP3    H139706   4.235   6.206   1.370 -2.0451 -0.7455 -0.5572
 6049TIP3    H239707   4.214   6.200   1.520 -1.3263 -1.1758 -0.4679
 6050TIP3   OH239708   3.071   0.211   0.339  0.5065  0.3010  0.6296
 6050TIP3    H139709   3.118   0.162   0.271 -0.3420 -0.9362  0.8916
 6050TIP3    H239710   3.139   0.254   0.389  1.3470 -0.9778  0.6445
 6051TIP3   OH239711   3.234   1.336   0.061 -0.3148  0.9876 -0.4283
 6051TIP3    H139712   3.206   1.353   0.150  2.0074  2.8310  0.0436
 6051TIP3    H239713   3.328   1.318   0.068  0.0784  1.9076 -2.5375
 6052TIP3   OH239714   1.011   5.952   1.233 -0.5459  0.5814 -0.1071
 6052TIP3    H139715   1.051   5.901   1.304  0.9519 -0.6868 -1.7708
 6052TIP3    H239716   0.918   5.954   1.255 -0.6332 -2.5479  0.3029
 6053TIP3   OH239717   4.855   5.123   2.556  0.5179  0.0603  0.2720
 6053TIP3    H139718   4.838   5.188   2.488  0.1233  1.8861  2.0033
 6053TIP3    H239719   4.946   5.097   2.542  0.0905 -0.5428 -1.6528
 6054TIP3   OH239720   1.756   6.743   8.304 -0.4035 -0.2003  0.8311
 6054TIP3    H139721   1.845   6.764   8.276 -0.2165  1.2146  2.3486
 6054TIP3    H239722   1.755   6.648   8.312  0.2587 -0.4618 -1.4007
 6055TIP3   OH239723   3.696   5.985   0.520  0.4691  0.8158  0.4827
 6055TIP3    H139724   3.722   6.074   0.496  2.4617  0.6244  1.7197
 6055TIP3    H239725   3.734   5.929   0.451 -0.8790  0.8900 -0.3575
 6056TIP3   OH239726   5.104   2.403   7.144  0.7198  0.3570  0.2754
 6056TIP3    H139727   5.197   2.389   7.130  0.4748 -1.1920 -0.0628
 6056TIP3    H239728   5.072   2.318   7.176 -1.0630 -0.1281 -2.4365
 6057TIP3   OH239729   3.066   6.307   1.126 -0.5256  0.9920  0.9195
 6057TIP3    H139730   3.067   6.311   1.222  0.0679 -1.7401  1.1270
 6057TIP3    H239731   2.998   6.243   1.105  2.1984 -1.8038 -0.1342
 6058TIP3   OH239732   1.915   4.915   2.501 -0.2489 -0.2502  0.0859
 6058TIP3    H139733   1.993   4.860   2.503 -0.3999 -0.4579  0.3146
 6058TIP3    H239734   1.910   4.953   2.588  1.5038  2.4839 -0.8758
 6059TIP3   OH239735   1.663   0.160   6.997 -0.1020 -0.2234 -0.0232
 6059TIP3    H139736   1.572   0.164   6.968  0.2012 -0.3169 -1.0489
 6059TIP3    H239737   1.711   0.212   6.932  0.4057  1.0197  1.3003
 6060TIP3   OH239738   1.148   5.082   0.857 -0.3695 -0.0256  0.2809
 6060TIP3    H139739   1.193   5.158   0.894 -1.1883  1.6749 -1.9624
 6060TIP3    H239740   1.132   5.025   0.932 -0.0220  2.1678  2.1445
 6061TIP3   OH239741   3.031   1.740   0.341  0.4409  0.0326 -0.3287
 6061TIP3    H139742   3.126   1.731   0.337  0.3431 -0.7924 -1.0874
 6061TIP3    H239743   3.016   1.805   0.410  1.5779  0.6339 -0.6230
 6062TIP3   OH239744   0.168   1.190   0.472 -0.4934  0.5398  0.2951
 6062TIP3    H139745   0.186   1.196   0.378 -1.3210  1.4232  0.1663
 6062TIP3    H239746   0.100   1.123   0.479 -0.7561  0.7876  0.1922
 6063TIP3   OH239747   3.222   1.149   2.690 -0.5989  0.2131 -0.4170
 6063TIP3    H139748   3.272   1.110   2.761  0.7723  0.2157 -1.3416
 6063TIP3    H239749   3.210   1.077   2.628 -1.4890  0.2957 -0.3448
 6064TIP3   OH239750   5.557   5.442   0.772 -0.2551  0.1362  0.5520
 6064TIP3    H139751   5.622   5.499   0.734 -0.5902 -1.1904 -2.2481
 6064TIP3    H239752   5.473   5.480   0.746 -0.5390  0.0245  1.2814
 6065TIP3   OH239753   2.351   3.154   7.174  0.1581 -0.1157 -0.4813
 6065TIP3    H139754   2.393   3.240   7.178  0.1297 -0.1007 -0.5051
 6065TIP3    H239755   2.423   3.091   7.184  0.0007 -0.0786  1.2467
 6066TIP3   OH239756   5.108   2.218   7.829  0.0600  0.2486  0.7495
 6066TIP3    H139757   5.193   2.200   7.790 -0.8579 -3.7610  0.1656
 6066TIP3    H239758   5.128   2.250   7.916  2.1198  1.9666 -0.2754
 6067TIP3   OH239759   2.680   1.508   7.745 -0.4127 -0.4268  0.0811
 6067TIP3    H139760   2.658   1.487   7.836  1.5048  0.0884  0.7040
 6067TIP3    H239761   2.752   1.449   7.723  0.6471  0.9698 -0.3374
 6068TIP3   OH239762   3.306   0.483   7.697 -0.5371 -0.1920 -0.0326
 6068TIP3    H139763   3.393   0.510   7.669 -0.5610  0.3652  0.4070
 6068TIP3    H239764   3.257   0.471   7.616 -0.3413  0.4835 -0.2551
 6069TIP3   OH239765   2.588   0.377   0.537 -0.4053 -0.5390  0.3758
 6069TIP3    H139766   2.569   0.309   0.473 -0.4317  0.2052 -0.4269
 6069TIP3    H239767   2.648   0.436   0.492  0.9453 -0.8989  1.6198
 6070TIP3   OH239768   5.625   3.812   0.758  0.0930 -0.1855  0.3971
 6070TIP3    H139769   5.705   3.783   0.715  0.7606  0.8463  0.8964
 6070TIP3    H239770   5.604   3.895   0.714 -1.7221 -1.2816 -0.9585
 6071TIP3   OH239771   2.225   0.112   1.302 -0.0763 -0.5002  0.5180
 6071TIP3    H139772   2.273   0.117   1.219 -0.0476 -0.0472  0.5626
 6071TIP3    H239773   2.138   0.080   1.277 -0.2816  0.2688  0.2310
 6072TIP3   OH239774   3.987   5.228   1.068 -0.5420  0.5157 -0.5758
 6072TIP3    H139775   3.920   5.188   1.013  0.4219 -0.4999 -1.0544
 6072TIP3    H239776   4.063   5.237   1.010  0.4850 -0.5305  0.5531
 6073TIP3   OH239777   5.983   0.461   7.738 -0.1614  0.3080  0.0576
 6073TIP3    H139778   6.019   0.479   7.651  0.4096  0.1325  0.2580
 6073TIP3    H239779   5.945   0.373   7.731 -0.3398  0.3936 -0.0794
 6074TIP3   OH239780   3.067   1.395   1.548 -0.5190  0.0100  0.4651
 6074TIP3    H139781   3.014   1.319   1.572 -2.2970  1.7400  2.4715
 6074TIP3    H239782   3.068   1.449   1.627 -1.5330  3.2892 -1.5450
 6075TIP3   OH239783   1.763   6.807   7.738  0.4759  0.1984 -0.2595
 6075TIP3    H139784   1.770   6.717   7.771 -1.1859  0.0939 -0.1356
 6075TIP3    H239785   1.708   6.852   7.802  0.6265  1.0925 -0.7514
 6076TIP3   OH239786   0.421   3.591   7.919 -0.2667 -0.1970  0.0977
 6076TIP3    H139787   0.502   3.550   7.890  0.6599  1.9416 -0.5675
 6076TIP3    H239788   0.398   3.545   7.999  0.4900 -2.1777 -0.7654
 6077TIP3   OH239789   2.492   1.771   8.588 -0.0396 -0.1909  0.2301
 6077TIP3    H139790   2.504   1.807   8.676  1.2356  0.0116  0.0008
 6077TIP3    H239791   2.407   1.804   8.559  0.3963  1.3624  0.6346
 6078TIP3   OH239792   5.174   0.711   0.662 -0.2540  0.3938  0.0702
 6078TIP3    H139793   5.106   0.759   0.616  0.5086  0.6989 -0.7711
 6078TIP3    H239794   5.228   0.778   0.703 -0.5495  0.1483  0.8748
 6079TIP3   OH239795   0.656   3.994   1.713  0.2425 -0.4039 -0.2645
 6079TIP3    H139796   0.675   4.063   1.776  1.6995 -0.5141 -0.5555
 6079TIP3    H239797   0.576   4.024   1.669  0.0473  0.3894  0.6009
 6080TIP3   OH239798   2.926   6.521   0.843 -0.1557 -0.1336  0.2800
 6080TIP3    H139799   2.972   6.594   0.802 -0.7235 -0.5214 -1.1454
 6080TIP3    H239800   2.912   6.459   0.771  1.0666 -2.0546  1.6054
 6081TIP3   OH239801   5.437   6.120   7.873  0.3520 -0.3590  0.4984
 6081TIP3    H139802   5.386   6.181   7.926 -0.7331 -1.1894  0.4256
 6081TIP3    H239803   5.499   6.176   7.825 -1.0257  0.7583 -0.0379
 6082TIP3   OH239804   1.275   2.264   1.238 -0.1918 -0.1385 -0.8340
 6082TIP3    H139805   1.262   2.190   1.179  1.8958 -1.1458 -0.1226
 6082TIP3    H239806   1.320   2.330   1.184 -0.5640 -0.0483 -1.0340
 6083TIP3   OH239807   1.884   0.175   7.663  0.0080 -0.3605 -0.3535
 6083TIP3    H139808   1.912   0.165   7.572 -2.3255  2.3594 -1.5308
 6083TIP3    H239809   1.848   0.090   7.687 -0.4150 -0.8198 -2.4384
 6084TIP3   OH239810   3.115   1.106   7.951 -0.4933 -0.4377 -0.1394
 6084TIP3    H139811   3.193   1.152   7.921 -0.6705 -0.4603 -0.6497
 6084TIP3    H239812   3.106   1.033   7.890 -0.6837 -0.6669  0.1628
 6085TIP3   OH239813   3.891   3.019   8.034 -0.5529 -0.4256  0.0275
 6085TIP3    H139814   3.804   2.985   8.014 -0.3217 -0.3672 -1.1720
 6085TIP3    H239815   3.875   3.098   8.086 -1.1963 -0.6261  0.1452
 6086TIP3   OH239816   6.084   5.598   6.464 -0.5241  0.1826 -0.7779
 6086TIP3    H139817   6.015   5.605   6.529  0.4595 -0.7042  0.3956
 6086TIP3    H239818   6.128   5.683   6.467 -0.3714  0.0852 -0.1409
 6087TIP3   OH239819   4.879   4.391   6.698 -0.5347 -0.5117 -0.1945
 6087TIP3    H139820   4.933   4.316   6.724  1.7610  1.1046  0.0865
 6087TIP3    H239821   4.861   4.437   6.780  0.7770  0.8493 -0.6024
 6088TIP3   OH239822   5.365   2.989   1.867 -0.0555  0.3812 -0.1452
 6088TIP3    H139823   5.322   3.048   1.805  0.4559  0.6592 -0.2371
 6088TIP3    H239824   5.333   3.018   1.953  1.0399  1.5318 -0.0958
 6089TIP3   OH239825   3.644   1.766   1.344  0.8554  0.4465 -0.3947
 6089TIP3    H139826   3.702   1.691   1.331 -2.0462 -1.6694 -2.2431
 6089TIP3    H239827   3.647   1.812   1.260  1.0851  1.2914  0.0684
 6090TIP3   OH239828   6.041   6.370   1.294  0.1629 -0.2297  0.0269
 6090TIP3    H139829   6.114   6.323   1.254  1.5766  2.6392 -1.0554
 6090TIP3    H239830   5.968   6.356   1.234  1.0903  0.4967 -1.3283
 6091TIP3   OH239831   5.804   4.818   0.242  0.3249  0.1899  0.0932
 6091TIP3    H139832   5.898   4.816   0.222  0.7503 -1.6042  1.8758
 6091TIP3    H239833   5.789   4.906   0.277  1.7006  0.0312  1.1780
 6092TIP3   OH239834   2.165   0.145   0.580 -0.0269  0.5568  0.1574
 6092TIP3    H139835   2.112   0.128   0.658  1.4174 -1.5098  0.7369
 6092TIP3    H239836   2.227   0.212   0.608 -0.6991  1.1892  0.1900
 6093TIP3   OH239837   4.236   6.131   7.988  0.6094  0.0397  0.2337
 6093TIP3    H139838   4.319   6.107   8.030  1.1792 -0.7516 -1.3081
 6093TIP3    H239839   4.234   6.081   7.907 -0.6160  1.2994 -0.5568
 6094TIP3   OH239840   4.762   2.927   0.821  0.2002  0.2842  0.2366
 6094TIP3    H139841   4.800   2.956   0.738  0.1209 -0.9570 -0.2555
 6094TIP3    H239842   4.834   2.935   0.884  1.9639 -3.4174 -0.9529
 6095TIP3   OH239843   5.745   3.827   7.689 -0.6100  0.3685 -0.0782
 6095TIP3    H139844   5.735   3.755   7.752 -1.6897  0.3809 -0.2174
 6095TIP3    H239845   5.824   3.872   7.717 -1.3392  0.6849  1.6308
 6096TIP3   OH239846   2.143   0.462   7.377 -0.3243  0.3644 -0.2342
 6096TIP3    H139847   2.160   0.377   7.335  0.4976  0.5637 -0.3221
 6096TIP3    H239848   2.048   0.467   7.383 -0.3650 -1.0867  0.8386
 6097TIP3   OH239849   5.069   3.520   0.391 -0.6257 -0.0784 -0.2108
 6097TIP3    H139850   5.028   3.475   0.465 -0.9122 -0.6150 -0.6837
 6097TIP3    H239851   5.000   3.577   0.357 -0.8345 -0.6198 -0.7086
 6098TIP3   OH239852   0.598   1.919   1.566 -0.7156 -0.2850 -0.2062
 6098TIP3    H139853   0.598   1.968   1.648 -0.7331  0.5988 -0.7283
 6098TIP3    H239854   0.637   1.978   1.502 -2.8352 -0.0450 -1.3707
 6099TIP3   OH239855   4.614   0.123   2.452  0.0318 -0.1919 -0.5075
 6099TIP3    H139856   4.568   0.172   2.520 -0.2129  0.6290 -1.2424
 6099TIP3    H239857   4.687   0.180   2.427  2.2584 -2.0036  1.5110
 6100TIP3   OH239858   0.881   4.408   7.868 -0.4066  0.0939 -1.1136
 6100TIP3    H139859   0.785   4.410   7.878 -0.9599 -0.8842 -4.6086
 6100TIP3    H239860   0.901   4.316   7.852  1.5778 -0.1281  1.9387
 6101TIP3   OH239861   4.933   4.235   0.725  0.4433  0.0984  0.2806
 6101TIP3    H139862   4.953   4.300   0.792 -0.2781  1.7980 -1.0701
 6101TIP3    H239863   4.857   4.187   0.759 -0.9413  2.0193  0.0590
 6102TIP3   OH239864   4.405   1.659   8.461  0.2820  0.4509 -0.2360
 6102TIP3    H139865   4.412   1.649   8.556 -0.2551 -1.4766 -0.3518
 6102TIP3    H239866   4.448   1.581   8.426 -1.5741 -0.0452 -1.5059
 6103TIP3   OH239867   2.868   3.710   1.561 -0.2912  0.3597 -0.2709
 6103TIP3    H139868   2.877   3.692   1.468  4.0367 -0.1316  0.0481
 6103TIP3    H239869   2.891   3.627   1.604  0.0646  1.1886  1.2056
 6104TIP3   OH239870   5.685   1.517   7.945  0.4813  0.6172 -0.0807
 6104TIP3    H139871   5.672   1.526   7.850  0.4669 -0.2336 -0.1683
 6104TIP3    H239872   5.614   1.458   7.973 -0.4915  2.1195  0.7303
 6105TIP3   OH239873   4.988   1.432   0.885 -0.0048 -0.1660  0.0439
 6105TIP3    H139874   4.953   1.348   0.916  1.2261 -0.9005 -0.4860
 6105TIP3    H239875   4.917   1.471   0.834 -0.3468 -1.2260 -0.3128
 6106TIP3   OH239876   1.594   5.296   0.590 -0.1339 -0.2156 -0.5770
 6106TIP3    H139877   1.641   5.274   0.510  1.2183  0.2113  0.0725
 6106TIP3    H239878   1.568   5.211   0.626  3.5465 -0.8678  1.0281
 6107TIP3   OH239879   4.347   5.309   2.117  0.1827 -0.3263  0.1017
 6107TIP3    H139880   4.416   5.287   2.054 -1.1588 -0.1354 -1.5207
 6107TIP3    H239881   4.386   5.378   2.171  2.3212 -2.3325  1.3316
 6108TIP3   OH239882   6.539   6.552   7.953 -0.0568  0.2695  0.0231
 6108TIP3    H139883   6.503   6.465   7.970  0.4195  0.3797  1.7553
 6108TIP3    H239884   6.468   6.599   7.910 -1.4232 -0.0596  1.7928
 6109TIP3   OH239885   5.859   1.837   7.527 -0.2525 -0.6669 -0.3377
 6109TIP3    H139886   5.890   1.924   7.502 -1.2245 -0.6146 -1.4692
 6109TIP3    H239887   5.790   1.854   7.591 -0.1466 -0.6275 -0.2338
 6110TIP3   OH239888   5.753   0.798   1.057 -0.1659 -0.3963  0.0251
 6110TIP3    H139889   5.847   0.803   1.076 -0.0356 -1.0083 -0.4062
 6110TIP3    H239890   5.713   0.767   1.138 -0.1720  1.1005  0.6290
 6111TIP3   OH239891   2.069   2.171   8.236  0.1791  0.3275  0.3799
 6111TIP3    H139892   1.991   2.148   8.286  0.2288 -1.4069 -0.2886
 6111TIP3    H239893   2.037   2.222   8.162 -0.4425 -0.9919 -0.2927
 6112TIP3   OH239894   5.579   6.274   7.435  0.3130 -0.0787  0.0210
 6112TIP3    H139895   5.552   6.307   7.349  0.6290  0.5825  0.1656
 6112TIP3    H239896   5.590   6.180   7.422  1.1932  0.1295 -0.8965
 6113TIP3   OH239897   1.188   4.167   8.169  0.0164  0.8083 -0.3913
 6113TIP3    H139898   1.242   4.104   8.217 -1.6485 -0.2725  0.1109
 6113TIP3    H239899   1.101   4.128   8.165 -0.7580  2.4854 -1.2274
 6114TIP3   OH239900   1.556   5.824   0.722 -0.1874 -0.4675 -0.1677
 6114TIP3    H139901   1.599   5.774   0.653 -0.7901 -0.0614 -0.8526
 6114TIP3    H239902   1.468   5.787   0.728  0.6801 -2.4200  2.3747
 6115TIP3   OH239903   0.546   3.167   2.725 -0.4706 -0.1287 -0.2785
 6115TIP3    H139904   0.628   3.195   2.765 -0.3407 -0.7389 -0.1168
 6115TIP3    H239905   0.494   3.248   2.717  0.3563  0.3599 -0.8924
 6116TIP3   OH239906   4.489   4.204   8.389 -0.2425  0.5291  0.0212
 6116TIP3    H139907   4.474   4.250   8.307  2.5702 -1.0046 -1.5107
 6116TIP3    H239908   4.528   4.270   8.447  0.3774  0.9638 -0.8747
 6117TIP3   OH239909   1.736   6.056   0.729 -0.1028 -0.0754 -0.2648
 6117TIP3    H139910   1.706   6.069   0.639 -1.2807 -1.9378 -0.1932
 6117TIP3    H239911   1.691   5.977   0.758  0.9292 -0.0064  1.6807
 6118TIP3   OH239912   3.638   1.805   7.216  0.4851  0.1201  0.2303
 6118TIP3    H139913   3.720   1.811   7.166 -0.3650 -1.7795 -1.5343
 6118TIP3    H239914   3.570   1.830   7.154 -0.5069 -1.2096  0.7270
 6119TIP3   OH239915   0.966   4.992   1.714  0.6053  0.1935  0.3238
 6119TIP3    H139916   0.976   5.004   1.808 -1.5757  0.1270  0.6227
 6119TIP3    H239917   0.934   4.902   1.705 -0.8987  0.7572 -0.2907
 6120TIP3   OH239918   1.828   1.898   8.146  0.1625  0.5936 -0.6377
 6120TIP3    H139919   1.738   1.870   8.128 -0.5315  2.6898 -0.7126
 6120TIP3    H239920   1.860   1.930   8.062  0.6997  0.6005 -0.4347
 6121TIP3   OH239921   0.495   5.050   1.244  0.3162 -0.1013 -0.0332
 6121TIP3    H139922   0.571   5.106   1.231  0.3419  0.5810  2.5692
 6121TIP3    H239923   0.475   5.057   1.337 -2.8699 -0.3715 -0.5840
 6122TIP3   OH239924   2.648   5.617   7.212  0.5991 -0.0052  0.2513
 6122TIP3    H139925   2.710   5.675   7.167 -0.2450 -0.4562 -1.5634
 6122TIP3    H239926   2.693   5.533   7.218 -0.1620 -0.6521 -2.0715
 6123TIP3   OH239927   4.706   2.387   0.967  0.1173  0.5178 -0.7124
 6123TIP3    H139928   4.734   2.475   0.943  1.8443  0.4076  0.7454
 6123TIP3    H239929   4.746   2.330   0.901 -1.4458  0.8122 -1.9823
 6124TIP3   OH239930   0.364   6.664   7.144  0.5049  0.2182 -0.0021
 6124TIP3    H139931   0.386   6.658   7.051 -1.6648  1.1075 -0.6350
 6124TIP3    H239932   0.276   6.627   7.150  0.7900 -0.2526  1.8069
 6125TIP3   OH239933   4.726   0.506   8.267  0.1426 -0.0565  0.1126
 6125TIP3    H139934   4.719   0.593   8.308  0.3028  0.4526 -0.9134
 6125TIP3    H239935   4.674   0.513   8.187  1.1494 -0.5147 -0.6014
 6126TIP3   OH239936   4.892   4.530   7.786 -0.4234  0.3350 -0.1404
 6126TIP3    H139937   4.898   4.435   7.779  2.5545  0.4041  0.3932
 6126TIP3    H239938   4.862   4.559   7.700  2.1688 -0.9174 -1.5841
 6127TIP3   OH239939   3.945   6.753   1.332  0.4629 -0.2094 -0.5300
 6127TIP3    H139940   3.853   6.736   1.313  0.6757 -0.2365 -1.6105
 6127TIP3    H239941   3.959   6.714   1.419 -0.2782 -1.1856 -0.8226
 6128TIP3   OH239942   4.956   5.040   1.501  0.5891  0.1816 -0.0531
 6128TIP3    H139943   4.965   5.001   1.588  1.6577 -0.7317 -0.5459
 6128TIP3    H239944   5.044   5.069   1.478  0.1437  1.2934 -0.4549
 6129TIP3   OH239945   4.874   4.180   7.155 -0.5292 -0.3526  0.4374
 6129TIP3    H139946   4.931   4.250   7.122  0.2273 -0.9897  0.3466
 6129TIP3    H239947   4.902   4.102   7.106  0.0922 -1.1553  2.0021
 6130TIP3   OH239948   2.119   1.301   0.575 -0.1952 -0.6441  0.9302
 6130TIP3    H139949   2.165   1.352   0.641  3.3894 -2.3819  0.0440
 6130TIP3    H239950   2.157   1.214   0.581 -2.1926 -1.7884 -1.1907
 6131TIP3   OH239951   3.543   5.626   7.549 -0.0275 -0.0151  0.1779
 6131TIP3    H139952   3.501   5.542   7.535 -2.1270  0.9496  0.3658
 6131TIP3    H239953   3.535   5.642   7.643 -0.3583  0.7467  0.0257
 6132TIP3   OH239954   6.002   3.361   1.083  0.6166 -0.4767 -0.4934
 6132TIP3    H139955   5.940   3.306   1.036  0.6583  0.0093 -1.1404
 6132TIP3    H239956   6.084   3.312   1.082  0.6740 -0.3719 -1.1384
 6133TIP3   OH239957   4.925   4.092   8.175  0.0546 -0.3291 -0.5225
 6133TIP3    H139958   4.926   4.162   8.239 -0.4095 -2.0660  1.4821
 6133TIP3    H239959   5.016   4.085   8.145  0.8568 -1.0925  1.8563
 6134TIP3   OH239960   5.221   2.311   1.120  0.1620 -0.2796 -0.1772
 6134TIP3    H139961   5.219   2.383   1.057  0.1160  0.5194  0.7197
 6134TIP3    H239962   5.144   2.259   1.099  1.2146 -1.1713 -2.0708
 6135TIP3   OH239963   3.838   2.946   7.067 -0.3773 -0.1144 -0.7880
 6135TIP3    H139964   3.842   3.041   7.057 -2.4859  0.1174  0.1580
 6135TIP3    H239965   3.893   2.912   6.995  0.8495  1.7841 -0.8121
 6136TIP3   OH239966   0.656   3.199   1.626 -0.0242 -0.1529 -0.0247
 6136TIP3    H139967   0.561   3.188   1.624 -0.4243  2.4592  0.9842
 6136TIP3    H239968   0.689   3.128   1.571 -2.5910 -0.6690 -1.0526
 6137TIP3   OH239969   3.142   1.436   7.810 -0.0958 -0.4996 -0.2319
 6137TIP3    H139970   3.172   1.471   7.726 -1.4833 -1.1213 -1.0205
 6137TIP3    H239971   3.213   1.378   7.838  0.0091 -1.0105 -1.4549
 6138TIP3   OH239972   3.957   3.227   1.577 -0.3141 -0.0578  0.5618
 6138TIP3    H139973   3.939   3.262   1.490  1.0896  2.3457  1.1352
 6138TIP3    H239974   3.923   3.138   1.575 -1.4999  0.3699 -2.0000
 6139TIP3   OH239975   0.685   1.048   0.829  0.1057 -0.7115  0.1333
 6139TIP3    H139976   0.657   0.996   0.753  0.4498 -1.3489  0.4375
 6139TIP3    H239977   0.655   0.998   0.905  1.6184 -1.1706  0.4591
 6140TIP3   OH239978   3.522   2.870   0.777 -0.5065 -0.0132 -0.4400
 6140TIP3    H139979   3.473   2.856   0.858  0.0443 -1.5618 -0.3445
 6140TIP3    H239980   3.520   2.786   0.732  0.3160  0.4626 -1.4157
 6141TIP3   OH239981   4.576   4.651   0.387  0.2330 -0.2328 -0.2706
 6141TIP3    H139982   4.539   4.735   0.413  1.0886 -0.8958  3.8386
 6141TIP3    H239983   4.671   4.666   0.388  0.3496 -0.7895 -1.5375
 6142TIP3   OH239984   2.632   3.285   1.921  0.1170  0.7317 -0.3565
 6142TIP3    H139985   2.605   3.202   1.882 -1.3286  0.7798  0.4571
 6142TIP3    H239986   2.570   3.299   1.992  0.6864  2.2331 -0.1199
 6143TIP3   OH239987   6.486   6.437   0.513  0.4328  0.5109  0.2147
 6143TIP3    H139988   6.532   6.503   0.462  1.2493 -0.1950 -0.0007
 6143TIP3    H239989   6.402   6.476   0.534  0.7995  1.5093 -0.1283
 6144TIP3   OH239990   3.154   4.614   7.302  0.0645  0.0720 -0.6765
 6144TIP3    H139991   3.169   4.699   7.262 -0.4909  0.3348 -0.3313
 6144TIP3    H239992   3.131   4.633   7.393 -5.7838  0.0814 -1.7713
 6145TIP3   OH239993   5.660   0.065   8.061 -0.5441  0.0750 -0.1475
 6145TIP3    H139994   5.742   0.093   8.101  0.7663 -1.0013 -1.9199
 6145TIP3    H239995   5.602   0.045   8.134  0.6039  1.3022  1.1457
 6146TIP3   OH239996   2.673   2.457   0.049 -0.0059  0.0640 -0.0877
 6146TIP3    H139997   2.655   2.482   0.140 -0.4958  1.8978 -0.6375
 6146TIP3    H239998   2.611   2.386   0.031  0.4389 -0.6638  1.1418
 6147TIP3   OH239999   2.291   4.240   1.303 -0.0777 -0.4381 -0.8568
 6147TIP3    H140000   2.251   4.168   1.255 -1.6290 -1.1608  1.3659
 6147TIP3    H240001   2.267   4.225   1.394  0.2356  2.4485 -0.1964
 6148TIP3   OH240002   2.535   3.397   0.608  0.1028  0.2114  0.3156
 6148TIP3    H140003   2.497   3.411   0.695 -2.9637 -0.5239 -0.7899
 6148TIP3    H240004   2.467   3.425   0.547  1.5643 -0.7331 -1.8760
 6149TIP3   OH240005   4.366   5.848   2.027  0.2971 -0.3273 -0.8873
 6149TIP3    H140006   4.421   5.918   2.062  0.5674 -0.4429 -1.0834
 6149TIP3    H240007   4.341   5.796   2.104 -1.3731  0.9931 -0.4679
 6150TIP3   OH240008   6.268   6.335   7.311  0.3643 -0.2485  0.0359
 6150TIP3    H140009   6.282   6.378   7.226 -0.5265 -0.4381 -0.2148
 6150TIP3    H240010   6.356   6.330   7.349  0.5623  1.3736 -0.1210
 6151TIP3   OH240011   6.367   5.715   2.261 -0.2718  0.5051  0.6560
 6151TIP3    H140012   6.352   5.621   2.255  0.7711  0.3107  1.0480
 6151TIP3    H240013   6.380   5.732   2.354 -1.1445  1.1603  0.6754
 6152TIP3   OH240014   0.860   1.556   7.285 -0.0519 -0.0449  0.0241
 6152TIP3    H140015   0.835   1.474   7.328 -0.6290  0.1302  0.0283
 6152TIP3    H240016   0.858   1.534   7.191  0.6724 -0.2772  0.0585
 6153TIP3   OH240017   4.026   2.882   0.084 -0.0866  0.3245  0.1538
 6153TIP3    H140018   4.068   2.959   0.123  1.2977 -0.3351  0.0584
 6153TIP3    H240019   3.939   2.912   0.058 -0.5679  1.1630  2.4945
 6154TIP3   OH240020   2.287   2.828   1.735 -0.2404  0.2523  0.3227
 6154TIP3    H140021   2.328   2.877   1.807 -0.0017 -0.9482  1.0383
 6154TIP3    H240022   2.206   2.793   1.773 -1.1366  1.2534 -0.6046
 6155TIP3   OH240023   6.670   6.328   0.701  0.3690 -0.2708  0.1303
 6155TIP3    H140024   6.722   6.364   0.773 -1.8752  3.4887  0.1346
 6155TIP3    H240025   6.650   6.404   0.646 -0.0577 -2.5913 -3.2053
 6156TIP3   OH240026   1.187   2.370   6.860  0.1085  0.0614  0.4486
 6156TIP3    H140027   1.124   2.392   6.791  0.2040 -1.3093 -0.0970
 6156TIP3    H240028   1.231   2.291   6.829 -0.3678 -1.0315  2.3850
 6157TIP3   OH240029   5.176   6.250   8.599  0.1320  0.1364 -0.0757
 6157TIP3    H140030   5.195   6.344   8.601 -0.5077  0.2982 -0.9057
 6157TIP3    H240031   5.146   6.234   8.510  0.0398 -0.8194  0.1203
 6158TIP3   OH240032   5.264   0.535   1.327 -0.0375 -0.2362 -0.0111
 6158TIP3    H140033   5.321   0.612   1.335  0.4722 -0.6626  0.5308
 6158TIP3    H240034   5.306   0.480   1.262 -0.4349 -0.0450 -0.4425
 6159TIP3   OH240035   5.298   5.517   1.050  0.0590  0.1678 -0.3149
 6159TIP3    H140036   5.381   5.486   1.085  0.8948  1.2224 -1.2813
 6159TIP3    H240037   5.282   5.600   1.095  0.4551  0.8521 -1.3938
 6160TIP3   OH240038   0.910   3.738   8.380 -0.3386 -0.0479  0.7049
 6160TIP3    H140039   0.837   3.718   8.321 -0.6454 -0.5099  1.2280
 6160TIP3    H240040   0.870   3.742   8.467  0.0559  0.9244  0.8554
 6161TIP3   OH240041   5.806   2.592   7.469  0.7379 -0.4912  0.0889
 6161TIP3    H140042   5.885   2.646   7.476  0.0645  0.5142  0.2884
 6161TIP3    H240043   5.786   2.565   7.558  0.3869 -0.0178  0.1605
 6162TIP3   OH240044   1.724   4.012   1.561  0.2923 -0.1161  0.0019
 6162TIP3    H140045   1.768   4.062   1.630  1.3589  0.5214 -1.0971
 6162TIP3    H240046   1.649   4.066   1.537 -1.1685 -1.2133  1.8944
 6163TIP3   OH240047   6.785   0.570   1.080  0.2511 -0.2604  0.2327
 6163TIP3    H140048   6.778   0.664   1.093  0.8269 -0.0792 -0.6550
 6163TIP3    H240049   6.770   0.532   1.166 -1.2603  0.5682  0.3681
 6164TIP3   OH240050   2.260   1.262   1.789 -0.2229 -0.3043  0.6663
 6164TIP3    H140051   2.300   1.219   1.865  0.4446 -1.6693 -0.4184
 6164TIP3    H240052   2.269   1.198   1.718 -0.1909  1.2146 -0.7423
 6165TIP3   OH240053   4.687   6.467   2.089 -0.1630  0.4386  0.9721
 6165TIP3    H140054   4.726   6.390   2.128  0.4538  0.8013  1.0867
 6165TIP3    H240055   4.698   6.454   1.994 -0.6376  0.0910  0.9628
 6166TIP3   OH240056   2.227   6.707   7.301  0.8620 -0.4041 -0.2949
 6166TIP3    H140057   2.136   6.708   7.328  0.2404  0.4025 -2.2314
 6166TIP3    H240058   2.232   6.770   7.229  2.6885 -1.2959 -1.0305
 6167TIP3   OH240059   3.897   5.169   2.839 -0.6365 -0.2172 -0.9011
 6167TIP3    H140060   3.909   5.076   2.858  1.7875  0.3080  0.6315
 6167TIP3    H240061   3.986   5.203   2.829 -1.4000  2.0980 -0.5000
 6168TIP3   OH240062   3.803   6.454   0.127  0.3224  0.1279  0.6095
 6168TIP3    H140063   3.751   6.374   0.132 -0.3479  0.6036  1.7043
 6168TIP3    H240064   3.820   6.477   0.219 -1.2288  2.3105  0.4184
 6169TIP3   OH240065   5.201   1.068   7.445 -0.1087  0.2430 -0.3825
 6169TIP3    H140066   5.106   1.072   7.447 -0.1877  0.3761 -2.2390
 6169TIP3    H240067   5.230   1.152   7.480 -0.6257 -0.2668  1.3154
 6170TIP3   OH240068   6.507   6.254   2.893 -0.1426 -0.3271 -0.0618
 6170TIP3    H140069   6.575   6.197   2.929 -1.7166 -1.0439  1.9657
 6170TIP3    H240070   6.466   6.202   2.824 -0.7782 -1.2294  0.9656
 6171TIP3   OH240071   0.385   0.548   8.522 -0.0940 -0.3782  0.5098
 6171TIP3    H140072   0.390   0.523   8.615  0.5594  1.0482  0.8862
 6171TIP3    H240073   0.418   0.638   8.520  1.4915 -0.9286 -1.3387
 6172TIP3   OH240074   3.077   3.953   2.328  0.0203  0.1905  0.0278
 6172TIP3    H140075   3.008   3.922   2.269  0.0155 -0.3255  0.3004
 6172TIP3    H240076   3.037   3.951   2.415  0.7585 -1.3103  0.3541
 6173TIP3   OH240077   4.854   4.289   1.345  0.1066  0.4227  0.1848
 6173TIP3    H140078   4.762   4.308   1.327 -0.1251  0.4102  1.2975
 6173TIP3    H240079   4.863   4.301   1.440  0.3755 -3.0819  0.7335
 6174TIP3   OH240080   4.450   2.800   1.383  0.5948  0.0683  0.2437
 6174TIP3    H140081   4.536   2.832   1.359 -0.4664  0.9952 -2.8597
 6174TIP3    H240082   4.420   2.751   1.306 -1.6251 -0.2763  1.2278
 6175TIP3   OH240083   5.427   6.718   8.545  0.0641 -0.3284 -0.0886
 6175TIP3    H140084   5.387   6.798   8.512 -1.0896 -0.5701  0.6638
 6175TIP3    H240085   5.469   6.678   8.469  0.5352  0.9027 -0.4987
 6176TIP3   OH240086   5.860   0.372   8.375 -0.4073  0.2028 -0.7256
 6176TIP3    H140087   5.775   0.330   8.362 -0.2226  0.2523 -2.2564
 6176TIP3    H240088   5.913   0.306   8.421 -1.4800  0.4572  0.9620
 6177TIP3   OH240089   6.839   0.993   0.480 -0.2897 -0.5886  0.3318
 6177TIP3    H140090   6.814   0.947   0.400 -1.1879 -0.7727  0.7121
 6177TIP3    H240091   6.906   0.937   0.519 -0.6493 -1.0615  0.2784
 6178TIP3   OH240092   3.397   6.036   8.621  0.2028  0.0465 -0.1308
 6178TIP3    H140093   3.483   6.011   8.586  0.1203  0.6563 -0.7774
 6178TIP3    H240094   3.345   5.956   8.616 -1.1300  0.8708 -5.2923
 6179TIP3   OH240095   1.229   3.267   0.923  0.1457 -0.0003 -0.1115
 6179TIP3    H140096   1.182   3.183   0.921 -1.4072  0.8398 -0.9046
 6179TIP3    H240097   1.188   3.315   0.995 -0.1401  0.6956 -0.7273
 6180TIP3   OH240098   0.007   5.877   7.518 -0.4348 -0.1940 -0.2343
 6180TIP3    H140099   0.043   5.952   7.469  1.1540 -0.9986 -0.3489
 6180TIP3    H240100  -0.074   5.856   7.473 -0.1672  0.5543 -1.0988
 6181TIP3   OH240101   4.874   6.119   6.990  0.0581  0.0681 -0.6078
 6181TIP3    H140102   4.965   6.127   7.021 -0.7115  0.1371  1.8325
 6181TIP3    H240103   4.860   6.197   6.936  0.9846  0.9240  0.3302
 6182TIP3   OH240104   0.287   4.878   7.824  0.0233  0.3229  0.1485
 6182TIP3    H140105   0.236   4.958   7.819  1.6709  1.3378 -1.3429
 6182TIP3    H240106   0.267   4.831   7.743  1.2103  0.6381 -0.3613
 6183TIP3   OH240107   0.400   4.875   0.298 -0.5814 -0.0759 -0.2908
 6183TIP3    H140108   0.365   4.946   0.352  1.0522  1.2316 -0.8823
 6183TIP3    H240109   0.451   4.919   0.230  0.5109 -1.8167 -0.6582
 6184TIP3   OH240110   5.095   6.288   8.312  1.0372 -0.2094  0.0864
 6184TIP3    H140111   5.152   6.260   8.241  1.2034  0.9070 -0.2240
 6184TIP3    H240112   5.006   6.274   8.278  1.0844  2.0687 -1.0864
 6185TIP3   OH240113   5.726   2.741   0.839 -0.6761  0.2688 -0.5197
 6185TIP3    H140114   5.811   2.700   0.827  0.1506  1.2227  1.5120
 6185TIP3    H240115   5.711   2.791   0.759 -0.2947 -1.4838 -1.7391
 6186TIP3   OH240116   2.659   0.752   0.226  0.1326 -0.3089  0.5455
 6186TIP3    H140117   2.702   0.837   0.214 -0.6288  0.2767  1.7459
 6186TIP3    H240118   2.568   0.767   0.203  0.3427 -1.3081 -1.0671
 6187TIP3   OH240119   5.292   6.150   1.181  0.0181  0.3261 -0.2516
 6187TIP3    H140120   5.365   6.115   1.231  0.5508  0.3790 -0.9868
 6187TIP3    H240121   5.273   6.234   1.223 -1.3469 -0.8180  1.5971
 6188TIP3   OH240122   5.601   3.624   8.279  0.3388  0.4534 -0.6293
 6188TIP3    H140123   5.633   3.687   8.344 -2.1289  1.5900 -0.4115
 6188TIP3    H240124   5.533   3.575   8.324  1.7928 -2.0533 -0.9957
 6189TIP3   OH240125   0.734   2.228   1.495 -0.4696 -0.5344 -0.2735
 6189TIP3    H140126   0.793   2.298   1.466 -0.9838  0.0568  0.0805
 6189TIP3    H240127   0.647   2.256   1.465 -0.6444 -1.1388 -0.3321
 6190TIP3   OH240128   5.420   3.676   7.156 -0.1095 -0.2701 -0.2844
 6190TIP3    H140129   5.404   3.761   7.115  1.8326  0.2686 -0.0105
 6190TIP3    H240130   5.514   3.661   7.144 -0.2350 -1.9383  0.5356
 6191TIP3   OH240131   3.355   2.616   0.303 -0.1108 -0.0090 -0.1461
 6191TIP3    H140132   3.290   2.573   0.358 -1.2215  0.0351 -1.3687
 6191TIP3    H240133   3.357   2.563   0.223 -0.1344  1.1276 -0.9243
 6192TIP3   OH240134   2.516   6.490   2.743  0.6110 -0.3695 -0.2199
 6192TIP3    H140135   2.536   6.467   2.652  0.3312  0.8722 -0.6037
 6192TIP3    H240136   2.596   6.531   2.776  0.9262 -1.3573  0.3056
 6193TIP3   OH240137   0.562   5.008   7.468  0.1552  0.2028 -0.2786
 6193TIP3    H140138   0.474   5.031   7.440  0.0151  0.9355  0.7101
 6193TIP3    H240139   0.619   5.044   7.400 -0.2739  0.2492 -0.6151
 6194TIP3   OH240140   0.042   4.464   0.406 -0.2446 -0.8714  0.0008
 6194TIP3    H140141   0.017   4.556   0.410  1.1389 -0.3422 -2.0727
 6194TIP3    H240142   0.050   4.438   0.498 -2.6449  0.4505  0.6857
 6195TIP3   OH240143   1.971   2.152   0.048 -0.0382  0.2085  0.2458
 6195TIP3    H140144   1.919   2.225   0.083  0.4781  0.6006  0.2108
 6195TIP3    H240145   2.053   2.156   0.096 -0.3203 -0.8892  0.8508
 6196TIP3   OH240146   2.782   2.416   8.451  0.2165 -0.3744  0.2606
 6196TIP3    H140147   2.727   2.429   8.528 -0.4055  0.8216 -0.3617
 6196TIP3    H240148   2.854   2.479   8.463  0.3991 -0.5549  0.1118
 6197TIP3   OH240149   1.558   1.861   8.094 -0.2790  0.1095 -0.2599
 6197TIP3    H140150   1.543   1.947   8.055 -0.2354 -0.0187 -0.5605
 6197TIP3    H240151   1.475   1.838   8.136  0.1828  1.0085  1.2162
 6198TIP3   OH240152   1.293   5.542   8.282  0.0661  0.0773 -0.1451
 6198TIP3    H140153   1.353   5.568   8.351  1.6973 -1.9941 -0.6774
 6198TIP3    H240154   1.312   5.601   8.209 -0.3161  1.0143  0.4900
 6199TIP3   OH240155   0.054   6.711   0.514  0.0061  0.5685  0.3515
 6199TIP3    H140156  -0.019   6.756   0.557  0.0890  0.2250  0.8677
 6199TIP3    H240157   0.132   6.743   0.559  0.1048  0.3081  0.3712
 6200TIP3   OH240158   3.241   4.863   1.094 -0.0141 -0.5362  0.4041
 6200TIP3    H140159   3.174   4.861   1.163 -1.9970 -2.6505 -1.3769
 6200TIP3    H240160   3.216   4.937   1.039  1.1017  0.6644  1.4549
 6201TIP3   OH240161   0.342   3.875   1.827 -0.1959  0.3867 -0.2728
 6201TIP3    H140162   0.249   3.856   1.838 -0.0512 -0.1638  0.0260
 6201TIP3    H240163   0.356   3.875   1.732 -0.6025  0.9857 -0.3333
 6202TIP3   OH240164   4.342   1.555   0.372 -0.5989  0.0125  0.2806
 6202TIP3    H140165   4.352   1.629   0.432 -0.9334  1.1161 -0.9723
 6202TIP3    H240166   4.251   1.527   0.383 -0.6280  0.1444  0.3832
 6203TIP3   OH240167   3.988   1.038   2.115  0.4367  0.3303 -0.8804
 6203TIP3    H140168   4.059   1.084   2.160 -0.0444 -1.1061  1.4899
 6203TIP3    H240169   3.913   1.045   2.174 -0.4266 -1.1122 -1.7472
 6204TIP3   OH240170   3.495   3.127   8.212 -0.4937 -0.2105 -0.5785
 6204TIP3    H140171   3.537   3.112   8.297 -0.8863 -1.4209 -0.5619
 6204TIP3    H240172   3.476   3.220   8.210  1.8660  0.3166 -0.4610
 6205TIP3   OH240173   4.774   4.877   7.957 -0.7386  0.3475 -0.1763
 6205TIP3    H140174   4.752   4.784   7.951  0.1487  0.1950 -4.2351
 6205TIP3    H240175   4.724   4.909   8.032 -2.6333 -2.9869  0.1848
 6206TIP3   OH240176   1.384   0.639   8.249  0.3484 -0.0630  0.1621
 6206TIP3    H140177   1.472   0.639   8.210  0.1863 -2.6445 -0.4112
 6206TIP3    H240178   1.363   0.546   8.258 -1.8162  0.5045  1.5142
 6207TIP3   OH240179   4.911   4.712   0.741  0.2541 -0.1445 -0.6487
 6207TIP3    H140180   4.825   4.672   0.754  0.1865  0.7107  2.0675
 6207TIP3    H240181   4.966   4.673   0.808  0.5490  3.0832  1.1846
 6208TIP3   OH240182   5.338   0.093   2.564  0.2758  0.0890 -0.1990
 6208TIP3    H140183   5.251   0.108   2.601  0.8271  0.2162  1.1081
 6208TIP3    H240184   5.367   0.180   2.535 -0.5280 -0.1512 -1.8672
 6209TIP3   OH240185   5.206   0.355   0.773 -0.8210 -0.5420 -0.4540
 6209TIP3    H140186   5.217   0.322   0.862 -0.8803 -2.1515 -1.0061
 6209TIP3    H240187   5.289   0.335   0.729 -1.1054 -0.5642 -0.9918
 6210TIP3   OH240188   3.880   2.684   7.829  0.1981 -0.3442 -0.0778
 6210TIP3    H140189   3.803   2.651   7.875  0.3242 -0.3829  0.1076
 6210TIP3    H240190   3.846   2.749   7.768 -0.1019 -1.0996 -0.7343
 6211TIP3   OH240191   3.206   0.498   8.027  0.0723 -0.5259  0.4622
 6211TIP3    H140192   3.132   0.481   8.085 -1.4051 -0.6013 -1.3439
 6211TIP3    H240193   3.215   0.593   8.028 -0.9541 -0.3953 -0.3001
 6212TIP3   OH240194   5.332   3.514   6.564  0.1324 -0.1795 -0.1664
 6212TIP3    H140195   5.413   3.512   6.615 -0.1885 -1.0940  0.3284
 6212TIP3    H240196   5.345   3.584   6.500  1.4491 -0.5324 -0.3107
 6213TIP3   OH240197   4.663   2.535   0.239  0.3098 -0.0423  0.3756
 6213TIP3    H140198   4.570   2.538   0.213  0.8625  0.0397 -1.8087
 6213TIP3    H240199   4.693   2.625   0.229  1.0047 -0.3632 -0.6254
 6214TIP3   OH240200   6.266   1.086   8.350 -1.1351 -0.1867  0.1439
 6214TIP3    H140201   6.184   1.097   8.301 -0.4445  0.1354 -0.9702
 6214TIP3    H240202   6.253   1.138   8.430 -0.8517  2.5483 -1.4739
 6215TIP3   OH240203   5.980   1.126   1.150 -0.5599  0.1390 -0.4251
 6215TIP3    H140204   5.970   1.190   1.080  1.7878 -0.8624 -1.8008
 6215TIP3    H240205   6.020   1.175   1.221  0.7877  0.3463 -1.2915
 6216TIP3   OH240206   1.802   2.609   2.289 -0.1972  0.4248  0.5709
 6216TIP3    H140207   1.819   2.515   2.288 -1.5001  0.1593  0.6185
 6216TIP3    H240208   1.887   2.650   2.274  0.0900 -0.8012 -1.5637
 6217TIP3   OH240209   3.389   1.806   7.372  0.1380 -0.1248 -0.6069
 6217TIP3    H140210   3.385   1.899   7.349  0.5653 -0.3601 -1.6613
 6217TIP3    H240211   3.448   1.767   7.308 -1.1695 -1.4022 -1.1118
 6218TIP3   OH240212   2.663   2.523   2.349 -0.5113  0.5047 -1.0788
 6218TIP3    H140213   2.660   2.446   2.406 -1.1525  0.7969 -0.7141
 6218TIP3    H240214   2.607   2.587   2.392 -0.5729  0.9165 -1.7631
 6219TIP3   OH240215   0.560   6.557   2.748 -0.5486  0.1488  0.6882
 6219TIP3    H140216   0.654   6.538   2.737 -0.8486  0.0850 -2.8882
 6219TIP3    H240217   0.516   6.475   2.725 -1.5232  0.7916  0.1980
 6220TIP3   OH240218   2.091   3.575   7.113  0.2336 -0.2100 -0.4860
 6220TIP3    H140219   2.025   3.600   7.049 -0.5401 -0.2994  0.2574
 6220TIP3    H240220   2.148   3.514   7.067 -0.0837  0.0204 -1.1961
 6221TIP3   OH240221   5.805   2.700   2.440 -0.3967 -0.0319  0.0474
 6221TIP3    H140222   5.811   2.728   2.349 -0.4547 -1.1742 -0.3160
 6221TIP3    H240223   5.846   2.771   2.489 -0.2671  0.5474 -0.8683
 6222TIP3   OH240224   6.041   4.378   1.664  0.2051 -0.4135  0.3184
 6222TIP3    H140225   6.107   4.444   1.684 -1.0124  0.4046  1.8311
 6222TIP3    H240226   6.040   4.321   1.741 -0.8283 -0.4197  0.3119
 6223TIP3   OH240227   0.484   4.302   7.070 -0.1908  0.4698 -0.3152
 6223TIP3    H140228   0.553   4.343   7.017 -1.4771  0.9085 -1.7504
 6223TIP3    H240229   0.406   4.355   7.051 -0.7241  0.6415  2.0801
 6224TIP3   OH240230   1.773   3.140   1.197 -0.1532  0.2222  0.8078
 6224TIP3    H140231   1.791   3.048   1.218  1.4884  0.1051 -0.8769
 6224TIP3    H240232   1.859   3.179   1.185 -0.8659  1.4118 -0.8118
 6225TIP3   OH240233   1.906   3.383   8.583 -0.7726 -0.3825 -0.1466
 6225TIP3    H140234   1.992   3.380   8.540 -1.2221  0.6229 -1.1675
 6225TIP3    H240235   1.912   3.456   8.645 -0.8185 -0.4535 -0.0580
 6226TIP3   OH240236   0.442   2.632   8.408  0.2288 -0.2101  0.0584
 6226TIP3    H140237   0.356   2.656   8.373  0.4479  1.0105  0.3023
 6226TIP3    H240238   0.482   2.715   8.431  1.8777 -0.6709 -0.9666
 6227TIP3   OH240239   0.799   6.370   7.451 -0.5104  0.3051 -0.5628
 6227TIP3    H140240   0.789   6.328   7.366 -3.3365 -0.0644 -0.1702
 6227TIP3    H240241   0.840   6.454   7.433 -1.2984  0.3425 -2.3553
 6228TIP3   OH240242   6.369   5.651   8.473  0.2912 -0.2506  0.2322
 6228TIP3    H140243   6.295   5.627   8.529  0.4950 -0.6035  0.3566
 6228TIP3    H240244   6.441   5.598   8.506  0.5682 -0.0006  0.0294
 6229TIP3   OH240245   2.417   3.256   0.189  0.3608 -0.3108 -0.0852
 6229TIP3    H140246   2.353   3.300   0.244 -0.3697  0.1815 -1.2862
 6229TIP3    H240247   2.502   3.290   0.217 -0.0983  0.9257 -0.1418
 6230TIP3   OH240248   3.890   3.465   8.064 -0.4349 -0.2314 -0.1494
 6230TIP3    H140249   3.918   3.420   8.144  0.8160  0.9299  0.0845
 6230TIP3    H240250   3.838   3.539   8.095  1.7386  1.4236 -0.2555
 6231TIP3   OH240251   6.160   0.628   0.305  0.0057 -0.2678  0.2233
 6231TIP3    H140252   6.136   0.623   0.398  0.3278 -1.6709  0.2603
 6231TIP3    H240253   6.080   0.603   0.259 -0.3398  1.0520  0.0819
 6232TIP3   OH240254   3.147   0.098   7.359  0.3511  0.0256  0.3825
 6232TIP3    H140255   3.154   0.155   7.282 -1.1560  0.7749  0.7622
 6232TIP3    H240256   3.195   0.145   7.428 -0.0691  0.3795  0.4391
 6233TIP3   OH240257   2.235   3.049   0.358 -0.1991  0.0849  0.6434
 6233TIP3    H140258   2.314   2.999   0.378 -0.4508 -0.6876 -0.2107
 6233TIP3    H240259   2.219   3.103   0.436 -0.0737 -1.3710  1.7019
 6234TIP3   OH240260   4.636   5.729   1.412 -0.3329 -0.2354  0.0153
 6234TIP3    H140261   4.681   5.803   1.372 -1.8835  1.8787  1.9449
 6234TIP3    H240262   4.696   5.699   1.481  0.5576 -1.2252 -1.1574
 6235TIP3   OH240263   3.232   3.886   1.074  0.3976 -0.1842 -0.6379
 6235TIP3    H140264   3.311   3.838   1.048  0.2604 -0.4367 -0.6012
 6235TIP3    H240265   3.262   3.975   1.092  0.8937 -0.5758  0.5803
 6236TIP3   OH240266   2.190   4.066   6.791  0.3108  0.0537 -0.4518
 6236TIP3    H140267   2.282   4.083   6.772  0.7170 -1.6590 -0.1988
 6236TIP3    H240268   2.145   4.077   6.707  0.5492  1.8262 -0.3930
 6237TIP3   OH240269   2.088   2.658   2.380 -0.8606  0.4341 -0.0827
 6237TIP3    H140270   2.095   2.736   2.436  0.0559  0.4231 -0.1670
 6237TIP3    H240271   2.161   2.603   2.407 -0.5142  0.3472 -1.1576
 6238TIP3   OH240272   1.966   0.473   0.015 -0.5306 -0.0333  0.4599
 6238TIP3    H140273   1.966   0.424  -0.068 -2.4118 -0.7607  0.8329
 6238TIP3    H240274   2.058   0.473   0.043  0.0419 -0.3085 -1.3050
 6239TIP3   OH240275   5.535   3.664   2.016  0.5706  0.5731  0.0089
 6239TIP3    H140276   5.625   3.651   2.047  0.3722 -2.2672 -0.2997
 6239TIP3    H240277   5.487   3.695   2.093  1.8473  2.6399  0.0513
 6240TIP3   OH240278   1.144   6.143   1.805 -0.1832  0.0169 -0.6768
 6240TIP3    H140279   1.200   6.215   1.776  0.0019 -0.8078 -2.5767
 6240TIP3    H240280   1.055   6.172   1.784 -0.2223  0.1762 -0.2995
 6241TIP3   OH240281   6.711   4.075   7.234 -0.6439 -0.5273 -0.2571
 6241TIP3    H140282   6.801   4.070   7.203 -0.7967 -1.2914 -0.6052
 6241TIP3    H240283   6.718   4.112   7.322 -0.2055  1.6473 -1.1494
 6242TIP3   OH240284   2.835   3.038   7.589  0.2849  0.0856 -0.7020
 6242TIP3    H140285   2.872   3.111   7.639  1.2134  0.9758 -2.5757
 6242TIP3    H240286   2.796   3.080   7.513  0.9422 -1.3748 -1.8824
 6243TIP3   OH240287   3.169   2.832   1.487 -0.5921  0.6413  0.1912
 6243TIP3    H140288   3.233   2.772   1.526 -1.6800  0.0201  1.0971
 6243TIP3    H240289   3.222   2.900   1.446  0.7142 -1.2026 -1.3536
 6244TIP3   OH240290   0.441   2.170   0.878 -0.4432  0.3820 -0.3353
 6244TIP3    H140291   0.371   2.185   0.942  0.4204  2.7374  0.1337
 6244TIP3    H240292   0.433   2.243   0.817  2.1527  1.2625  0.2742
 6245TIP3   OH240293   0.541   2.903   1.079 -0.6135 -0.5114  0.6590
 6245TIP3    H140294   0.463   2.888   1.133 -1.5075  5.1129  1.5813
 6245TIP3    H240295   0.613   2.905   1.142 -0.4568 -1.1505  0.5034
 6246TIP3   OH240296   4.879   3.654   8.131  0.3642 -0.1532 -0.0019
 6246TIP3    H140297   4.806   3.715   8.116  1.3341  0.4857 -2.7544
 6246TIP3    H240298   4.841   3.567   8.117 -0.0888  0.1098 -0.4501
 6247TIP3   OH240299   1.807   0.918   1.337  0.3686  0.5034  0.4901
 6247TIP3    H140300   1.781   0.886   1.424  0.1915 -0.1745  0.1887
 6247TIP3    H240301   1.783   0.848   1.277 -0.4106  1.3620 -0.2363
 6248TIP3   OH240302   3.769   3.128   2.293  0.2916 -1.3505 -0.6238
 6248TIP3    H140303   3.714   3.059   2.256  0.9054 -0.8427 -2.5812
 6248TIP3    H240304   3.838   3.081   2.341 -0.6619 -2.0180  0.1387
 6249TIP3   OH240305   6.728   5.787   2.069  0.5659  0.7195  0.5577
 6249TIP3    H140306   6.701   5.871   2.034  0.1214 -0.0116 -0.9519
 6249TIP3    H240307   6.815   5.772   2.031 -0.2630 -0.4586 -1.0493
 6250TIP3   OH240308   1.077   5.598   0.915 -0.7763 -0.1268  0.7694
 6250TIP3    H140309   1.166   5.591   0.952 -0.5238  0.2059  0.2282
 6250TIP3    H240310   1.020   5.571   0.987 -0.2479 -0.1829  1.1789
 6251TIP3   OH240311   4.027   1.689   1.200  0.2423  0.0553 -0.5159
 6251TIP3    H140312   4.090   1.618   1.212 -0.7846 -0.6808  0.8727
 6251TIP3    H240313   3.963   1.655   1.138 -1.2545 -1.0363  1.4913
 6252TIP3   OH240314   5.293   2.188   2.017  0.0294  0.8398  0.2714
 6252TIP3    H140315   5.261   2.138   2.092  0.5580  1.0794  0.6661
 6252TIP3    H240316   5.214   2.206   1.965 -0.1557 -0.5368  0.0206
 6253TIP3   OH240317   3.030   4.046   2.033  0.2629 -0.0238  0.0850
 6253TIP3    H140318   3.015   3.961   2.074  0.8190  0.4295  1.3053
 6253TIP3    H240319   3.040   4.106   2.107  1.0289  0.8938 -0.7386
 6254TIP3   OH240320   4.119   2.879   7.961  0.5676 -0.7751 -0.1740
 6254TIP3    H140321   4.089   2.806   7.906  0.6749 -0.4631 -0.6496
 6254TIP3    H240322   4.039   2.927   7.982  0.6419 -0.3601 -0.8362
 6255TIP3   OH240323   0.473   5.286   8.086 -0.2774  0.0369 -0.3473
 6255TIP3    H140324   0.412   5.217   8.111 -0.4723  0.6601  0.9344
 6255TIP3    H240325   0.520   5.250   8.010 -0.4879 -1.4318  0.1979
 6256TIP3   OH240326   0.486   6.466   7.623  0.6203 -0.1855 -0.1836
 6256TIP3    H140327   0.524   6.378   7.629 -0.6099 -0.6872  0.7330
 6256TIP3    H240328   0.478   6.494   7.714 -1.2613 -0.1632 -0.3125
 6257TIP3   OH240329   0.290   1.354   1.680  0.3309  0.3259  0.1266
 6257TIP3    H140330   0.295   1.337   1.774  0.0357  1.1814  0.3068
 6257TIP3    H240331   0.199   1.377   1.664  0.6150  1.3250 -0.1508
 6258TIP3   OH240332   3.949   3.778   2.513 -0.0036 -0.7831 -0.5339
 6258TIP3    H140333   3.917   3.692   2.542 -0.7276 -0.2199  0.4159
 6258TIP3    H240334   3.985   3.762   2.426  0.3209 -2.1448 -0.1859
 6259TIP3   OH240335   1.122   0.877   7.028 -0.2309  0.1438 -0.4350
 6259TIP3    H140336   1.117   0.841   7.116 -1.2490  0.2067 -0.4522
 6259TIP3    H240337   1.075   0.814   6.973 -2.7006  1.7671 -0.3413
 6260TIP3   OH240338   6.624   4.037   0.298 -0.0143  0.0135 -0.5168
 6260TIP3    H140339   6.586   4.092   0.367  0.8350 -0.6281  0.4839
 6260TIP3    H240340   6.695   4.091   0.262 -0.9662  0.6744 -1.4768
 6261TIP3   OH240341   5.302   4.969   7.597  0.3660  0.3953  0.2356
 6261TIP3    H140342   5.227   4.998   7.649  0.4783  0.7843  0.1815
 6261TIP3    H240343   5.334   5.049   7.555  0.8385  0.2357  0.2929
 6262TIP3   OH240344   0.329   0.430   7.165  0.4231  0.2524  0.5526
 6262TIP3    H140345   0.266   0.366   7.132  0.0571  1.0190 -0.2953
 6262TIP3    H240346   0.295   0.454   7.252 -1.3582  1.7372 -0.4537
 6263TIP3   OH240347   4.741   6.767   7.791  0.0021  0.7000  0.6409
 6263TIP3    H140348   4.769   6.857   7.772 -0.2083  0.6092 -0.1572
 6263TIP3    H240349   4.653   6.761   7.753  0.5993 -0.2817 -0.6991
 6264TIP3   OH240350   1.291   4.426   7.491 -0.5205  0.1370  0.0608
 6264TIP3    H140351   1.353   4.364   7.530  0.6888  0.7843 -0.7560
 6264TIP3    H240352   1.305   4.418   7.396 -0.7467  1.2257 -0.0829
 6265TIP3   OH240353   2.925   3.173   2.299 -0.3900  0.1534  0.2846
 6265TIP3    H140354   2.834   3.166   2.268  0.4491 -1.1660 -2.1778
 6265TIP3    H240355   2.962   3.086   2.285  1.6926  1.0637 -0.2903
 6266TIP3   OH240356   4.338   0.566   1.226 -0.3322 -0.4937 -0.3255
 6266TIP3    H140357   4.338   0.500   1.295  0.8041  0.4177  0.5760
 6266TIP3    H240358   4.428   0.568   1.194 -0.6495 -0.2926 -1.2547
 6267TIP3   OH240359   3.347   3.323   0.847  0.1955  0.6848  0.0948
 6267TIP3    H140360   3.340   3.249   0.786 -1.3822  0.6766  0.2463
 6267TIP3    H240361   3.441   3.334   0.861  0.4790 -2.4018  1.3805
 6268TIP3   OH240362   5.450   1.556   0.357  0.5831  0.1507  0.1669
 6268TIP3    H140363   5.481   1.604   0.434  3.5999  1.1798 -1.5075
 6268TIP3    H240364   5.442   1.623   0.289 -0.0826 -1.0108 -0.9496
 6269TIP3   OH240365   5.790   5.993   1.434 -0.2912  0.6757 -0.0616
 6269TIP3    H140366   5.831   5.916   1.471 -1.9071 -0.5255 -0.6235
 6269TIP3    H240367   5.816   5.993   1.342 -0.3848  0.7309 -0.0892
 6270TIP3   OH240368   3.408   0.209   1.433 -0.1126  0.0425  0.4250
 6270TIP3    H140369   3.440   0.295   1.405 -1.6549  0.5642  0.2129
 6270TIP3    H240370   3.360   0.175   1.358 -0.4624 -0.5274  0.9006
 6271TIP3   OH240371   2.636   3.839   7.677  0.7182  0.6240 -0.2193
 6271TIP3    H140372   2.672   3.841   7.588  2.2954  0.3047  0.3814
 6271TIP3    H240373   2.616   3.747   7.693  0.2812  0.7034 -0.2918
 6272TIP3   OH240374   5.824   4.347   1.898 -0.0835  0.6147 -0.0755
 6272TIP3    H140375   5.760   4.297   1.949  0.8148  1.3117  1.8508
 6272TIP3    H240376   5.780   4.430   1.880 -0.9441 -0.1730 -1.7800
 6273TIP3   OH240377   1.887   5.980   1.517 -0.3028  0.2671 -0.1376
 6273TIP3    H140378   1.883   5.939   1.431  0.8194  1.1530 -0.6339
 6273TIP3    H240379   1.907   5.909   1.578  1.0439 -0.0281 -0.9022
 6274TIP3   OH240380   4.467   5.754   7.163  0.5540  0.3663  0.4021
 6274TIP3    H140381   4.447   5.846   7.146  1.8816  0.7914  1.0016
 6274TIP3    H240382   4.467   5.746   7.258 -1.4347 -0.7257  0.3607
 6275TIP3   OH240383   5.111   6.578   1.532  0.1451 -0.2857  0.4488
 6275TIP3    H140384   5.190   6.626   1.558 -0.2324 -0.0773  1.2375
 6275TIP3    H240385   5.053   6.584   1.607 -0.6408 -0.4178 -0.1305
 6276TIP3   OH240386   5.619   2.979   1.135 -0.0084 -0.0801  0.1738
 6276TIP3    H140387   5.533   2.964   1.173 -0.8276  2.3652 -0.5485
 6276TIP3    H240388   5.608   2.958   1.042 -0.3442  1.8223 -0.2520
 6277TIP3   OH240389   0.278   2.458   7.661 -0.4892  0.5017  0.0604
 6277TIP3    H140390   0.344   2.524   7.684  0.5774 -0.6736  0.4756
 6277TIP3    H240391   0.201   2.509   7.634  1.0875  1.9508 -2.0227
 6278TIP3   OH240392   3.228   0.986   1.649  0.1210 -0.1029 -0.1922
 6278TIP3    H140393   3.249   1.038   1.572 -0.7871 -0.2957 -0.5854
 6278TIP3    H240394   3.187   1.048   1.709 -0.9390 -0.3475 -0.6509
 6279TIP3   OH240395   4.947   0.940   7.270 -0.3457  0.2793  0.1975
 6279TIP3    H140396   4.925   1.024   7.310  0.3377 -0.5144  2.4014
 6279TIP3    H240397   4.879   0.927   7.203  0.2916  3.1359 -1.1606
 6280TIP3   OH240398   0.606   5.654   7.943 -0.6328 -0.5132 -0.3147
 6280TIP3    H140399   0.512   5.646   7.960 -0.3398 -0.3689  1.5752
 6280TIP3    H240400   0.614   5.644   7.848 -2.6940  0.8618 -0.7043
 6281TIP3   OH240401   4.145   0.375   1.427 -0.2907  0.1068 -0.2506
 6281TIP3    H140402   4.184   0.292   1.454  0.1953  0.5719  0.5028
 6281TIP3    H240403   4.088   0.352   1.354 -1.3772 -1.1550  0.9396
 6282TIP3   OH240404   0.026   5.561   0.399  0.2139  0.2664 -0.2794
 6282TIP3    H140405  -0.041   5.493   0.407  3.7323 -3.5961 -0.2871
 6282TIP3    H240406   0.034   5.597   0.487 -0.0989 -1.1209  0.3405
 6283TIP3   OH240407   2.883   6.194   0.777  0.0109 -0.0465  0.1818
 6283TIP3    H140408   2.892   6.182   0.871  1.6042 -0.7900 -0.0277
 6283TIP3    H240409   2.953   6.256   0.754 -1.0759  1.0106 -0.3667
 6284TIP3   OH240410   3.723   6.695   7.965  0.6278 -0.0164 -0.2964
 6284TIP3    H140411   3.642   6.711   8.012  1.4687 -0.2420  1.3166
 6284TIP3    H240412   3.788   6.750   8.010  1.5826 -0.6431 -0.8689
 6285TIP3   OH240413   0.635   6.511   8.461  0.0866  0.2200  0.2278
 6285TIP3    H140414   0.684   6.429   8.469  1.5426  0.8794 -1.2281
 6285TIP3    H240415   0.686   6.575   8.511 -0.5629  0.4321  0.6276
 6286TIP3   OH240416   4.126   2.935   6.415  0.0997 -0.5434 -0.0630
 6286TIP3    H140417   4.046   2.975   6.448  0.0383 -1.7448  1.3422
 6286TIP3    H240418   4.188   3.008   6.410 -0.1188 -0.1203  2.0435
 6287TIP3   OH240419   3.171   4.850   7.524  0.0059  0.2098  0.0587
 6287TIP3    H140420   3.243   4.903   7.559 -0.2724  2.0417 -1.8925
 6287TIP3    H240421   3.152   4.889   7.439 -0.7538 -2.6210 -1.2040
 6288TIP3   OH240422   4.617   5.837   1.038 -0.2301  1.1515 -0.9841
 6288TIP3    H140423   4.658   5.751   1.036 -2.5514 -0.0323 -2.5867
 6288TIP3    H240424   4.679   5.893   1.084  1.4693 -1.3031 -0.1282
 6289TIP3   OH240425   5.210   5.184   7.363  0.4237 -0.0358  0.8732
 6289TIP3    H140426   5.214   5.244   7.438  0.4824  0.3446  0.5733
 6289TIP3    H240427   5.216   5.242   7.287  1.5612 -0.5056  0.5909
 6290TIP3   OH240428   2.568   0.715   6.632  0.4891  0.1748 -0.2383
 6290TIP3    H140429   2.567   0.762   6.716  3.2249 -1.0540  0.6113
 6290TIP3    H240430   2.515   0.769   6.574  0.2013  2.1783  1.7286
 6291TIP3   OH240431   1.615   4.543   1.422 -0.1264  0.1524  0.2342
 6291TIP3    H140432   1.664   4.497   1.490 -0.2665  0.0054  0.2338
 6291TIP3    H240433   1.530   4.562   1.461 -0.4923 -0.6270 -0.1657
 6292TIP3   OH240434   3.931   4.330   1.653 -0.0067  0.1575 -0.0816
 6292TIP3    H140435   3.853   4.384   1.638  0.6228  0.6453 -1.8776
 6292TIP3    H240436   3.971   4.367   1.732 -1.7525 -0.3482  1.1057
 6293TIP3   OH240437   0.367   2.884   1.716 -0.1152  0.0038  0.4234
 6293TIP3    H140438   0.286   2.838   1.742 -0.3076  1.0482  1.8187
 6293TIP3    H240439   0.429   2.862   1.786  0.1738  0.8315  0.4293
 6294TIP3   OH240440   2.884   2.772   0.665  0.0808 -0.2711  0.4294
 6294TIP3    H140441   2.962   2.821   0.690 -0.4357  1.1425 -0.5668
 6294TIP3    H240442   2.893   2.761   0.570 -0.2563 -1.3580  0.5109
 6295TIP3   OH240443   5.929   2.536   0.204 -0.3273  0.4615  0.6467
 6295TIP3    H140444   5.853   2.587   0.231 -1.2172 -0.9111  0.7857
 6295TIP3    H240445   6.003   2.581   0.246 -1.0017  1.9446  0.3216
 6296TIP3   OH240446   4.731   4.508   0.122  0.2158  0.3287 -0.0910
 6296TIP3    H140447   4.664   4.576   0.113  0.3370  0.2672 -1.7497
 6296TIP3    H240448   4.702   4.456   0.198 -0.8761  1.1124  0.0536
 6297TIP3   OH240449   1.529   1.896   5.998 -0.3580  0.0542 -0.1350
 6297TIP3    H140450   1.615   1.895   5.956 -0.2850  1.2068 -0.0355
 6297TIP3    H240451   1.490   1.979   5.972 -0.7719  0.2976  1.1749
 6298TIP3   OH240452   6.064   3.119   0.443  0.8357  0.1728 -0.0388
 6298TIP3    H140453   6.006   3.194   0.430 -0.6165 -1.0031 -0.5764
 6298TIP3    H240454   6.143   3.157   0.482  0.7254  2.1907 -1.5872
 6299TIP3   OH240455   2.291   4.527   7.638 -0.2265  0.3541  0.0514
 6299TIP3    H140456   2.375   4.497   7.675 -0.3259  1.2024  1.0188
 6299TIP3    H240457   2.291   4.494   7.548  0.0432 -1.7880  0.7884
 6300TIP3   OH240458   0.921   3.425   8.184  0.4372 -0.3580 -0.1390
 6300TIP3    H140459   0.840   3.476   8.183  0.5706 -0.0801  1.3009
 6300TIP3    H240460   0.907   3.358   8.117  0.8555  2.3683 -3.1637
 6301TIP3   OH240461   6.852   4.118   0.040  0.2504  0.7489  0.6775
 6301TIP3    H140462   6.863   4.195   0.095 -0.7235  1.4664 -0.1006
 6301TIP3    H240463   6.864   4.044   0.100 -0.6923  1.5037  1.8511
 6302TIP3   OH240464   5.686   2.535   7.153 -0.1185 -0.4550  0.6089
 6302TIP3    H140465   5.756   2.597   7.129 -0.0005 -1.3796 -1.6531
 6302TIP3    H240466   5.608   2.569   7.109 -0.4904 -0.8750  0.9374
 6303TIP3   OH240467   2.563   0.361   7.012 -0.4582  0.1349 -0.2727
 6303TIP3    H140468   2.606   0.434   6.966  0.1086 -0.7459 -1.1858
 6303TIP3    H240469   2.484   0.344   6.961 -0.5185  0.0137 -0.1390
 6304TIP3   OH240470   6.591   1.092   2.857 -0.2160 -1.0650  0.6139
 6304TIP3    H140471   6.657   1.093   2.788 -0.8504 -2.0895 -0.0396
 6304TIP3    H240472   6.603   1.175   2.904 -0.6641  0.3417 -1.5997
 6305TIP3   OH240473   5.804   1.016   7.484  0.0259 -0.0496 -0.7520
 6305TIP3    H140474   5.893   1.052   7.484 -0.0343  0.1178 -1.9781
 6305TIP3    H240475   5.750   1.086   7.447 -0.7504  0.1240  0.6496
 6306TIP3   OH240476   0.852   2.329   1.109  0.4170  0.1096  0.0953
 6306TIP3    H140477   0.887   2.248   1.146  1.0010  0.0915 -0.4683
 6306TIP3    H240478   0.865   2.320   1.014 -0.6496  0.3388 -0.0803
 6307TIP3   OH240479   0.480   6.607   2.433 -0.2730  0.3215 -0.4568
 6307TIP3    H140480   0.474   6.533   2.493  0.8312 -0.8141 -1.6708
 6307TIP3    H240481   0.465   6.684   2.488 -3.3485 -0.8378  0.5164
 6308TIP3   OH240482   6.559   4.772   7.463  0.2111 -0.2725  0.0068
 6308TIP3    H140483   6.496   4.842   7.477  0.1398 -0.4275  0.4654
 6308TIP3    H240484   6.553   4.753   7.369  0.8381  0.9066 -0.2915
 6309TIP3   OH240485   6.227   0.392   7.314  0.1334  0.4252  0.5797
 6309TIP3    H140486   6.258   0.303   7.299 -0.1807 -0.2312  3.4231
 6309TIP3    H240487   6.287   0.428   7.380 -1.2368  1.4200  1.3324
 6310TIP3   OH240488   3.230   4.501   1.926  0.6074 -0.5648  0.3793
 6310TIP3    H140489   3.305   4.557   1.948 -1.1822  2.2667 -0.1381
 6310TIP3    H240490   3.190   4.480   2.010  1.1801 -0.9434  0.5649
 6311TIP3   OH240491   3.920   3.506   1.683 -0.0597 -0.4219  0.2023
 6311TIP3    H140492   3.948   3.415   1.670 -1.6255 -0.7702 -1.0188
 6311TIP3    H240493   3.988   3.544   1.739  0.4202 -2.4426  1.0865
 6312TIP3   OH240494   5.565   4.515   2.795  0.3640  0.5967 -0.5956
 6312TIP3    H140495   5.527   4.427   2.791 -0.7710  1.0099  0.3769
 6312TIP3    H240496   5.520   4.563   2.725  0.9369  0.4372 -1.0840
 6313TIP3   OH240497   5.278   1.941   1.458  0.1552 -0.4855 -0.0188
 6313TIP3    H140498   5.275   1.866   1.399 -1.6221 -0.8072  0.4190
 6313TIP3    H240499   5.312   1.906   1.540 -3.8168 -1.7855  1.3191
 6314TIP3   OH240500   2.653   6.827   1.118  0.3097 -0.5987 -0.7390
 6314TIP3    H140501   2.694   6.741   1.115  0.1500 -0.6703 -0.9171
 6314TIP3    H240502   2.712   6.884   1.070  0.0430 -0.7708 -1.2845
 6315TIP3   OH240503   0.876   4.897   0.761 -0.0189 -0.2429  0.6232
 6315TIP3    H140504   0.841   4.810   0.738  2.0278 -0.5427 -1.7301
 6315TIP3    H240505   0.942   4.878   0.828 -1.1242 -0.1818  1.7741
 6316TIP3   OH240506   2.206   4.111   7.977  0.0894  0.4903 -0.2279
 6316TIP3    H140507   2.197   4.206   7.971  2.7004  0.7249 -2.0112
 6316TIP3    H240508   2.260   4.097   8.055  0.3512  0.5656 -0.3909
 6317TIP3   OH240509   0.539   1.625   7.366  0.0667 -0.5720 -0.5639
 6317TIP3    H140510   0.593   1.623   7.286  1.1446  1.2282  0.0467
 6317TIP3    H240511   0.568   1.549   7.416  0.8650 -0.5760 -1.0085
 6318TIP3   OH240512   6.360   6.168   7.678 -0.4539  0.2336 -0.5472
 6318TIP3    H140513   6.382   6.080   7.707  0.6135  0.9631  0.9810
 6318TIP3    H240514   6.346   6.217   7.759 -3.6031  0.9084 -1.3433
 6319TIP3   OH240515   0.235   0.164   8.341  0.4132  0.4419 -0.0450
 6319TIP3    H140516   0.189   0.238   8.380  1.3844  0.7644  0.5183
 6319TIP3    H240517   0.327   0.180   8.361  0.9238  0.4478 -2.1549
 6320TIP3   OH240518   1.694   3.523   1.726  1.0085 -0.2851 -0.0798
 6320TIP3    H140519   1.755   3.453   1.703  1.9171  0.0501  1.1809
 6320TIP3    H240520   1.745   3.603   1.719  0.4120  0.1121 -0.0052
 6321TIP3   OH240521   5.334   1.654   8.305  0.2880  0.1404  0.3367
 6321TIP3    H140522   5.395   1.713   8.348 -1.4522  0.8582  1.9981
 6321TIP3    H240523   5.261   1.711   8.278 -0.4696 -0.9206  0.0558
 6322TIP3   OH240524   5.153   2.332   0.565 -0.4039  0.0152  0.2169
 6322TIP3    H140525   5.149   2.237   0.558 -2.2583 -0.2296  3.1728
 6322TIP3    H240526   5.063   2.361   0.551 -0.0834  1.2476  0.5744
 6323TIP3   OH240527   3.399   0.181   2.965  0.4332  0.1659  0.4183
 6323TIP3    H140528   3.466   0.122   3.000  0.6558  0.3719  0.3422
 6323TIP3    H240529   3.448   0.246   2.915  0.3655  1.4307  1.9066
 6324TIP3   OH240530   2.774   0.535   6.931  0.9887 -0.0114 -0.2342
 6324TIP3    H140531   2.737   0.623   6.922  0.9735 -0.0827 -0.8658
 6324TIP3    H240532   2.774   0.499   6.843  1.6024 -0.4024 -0.0836
 6325TIP3   OH240533   1.611   4.165   1.050  0.5356  0.4688 -0.3376
 6325TIP3    H140534   1.544   4.102   1.023  3.2205 -3.1153  0.6418
 6325TIP3    H240535   1.643   4.203   0.969 -1.0449  0.5207 -0.9758
 6326TIP3   OH240536   3.282   1.634   8.058  0.0687  0.3103  0.0813
 6326TIP3    H140537   3.338   1.617   7.982 -0.6447  0.0974 -0.4044
 6326TIP3    H240538   3.200   1.588   8.038  0.4949 -1.3364  1.7939
 6327TIP3   OH240539   3.810   5.931   2.825  0.1055 -0.2853  0.0954
 6327TIP3    H140540   3.737   5.922   2.763 -0.7163  1.4123  0.7497
 6327TIP3    H240541   3.782   5.881   2.902 -1.4458  2.1079  1.1979
 6328TIP3   OH240542   0.486   2.782   8.067 -0.2126 -0.2344  0.4108
 6328TIP3    H140543   0.566   2.731   8.083 -0.7452 -0.6859  1.7753
 6328TIP3    H240544   0.516   2.860   8.021  1.1793  0.0895  1.7746
 6329TIP3   OH240545   5.684   2.230   1.297  0.3972 -0.2836 -0.4564
 6329TIP3    H140546   5.670   2.310   1.349  0.7440  0.1436 -1.0070
 6329TIP3    H240547   5.609   2.175   1.318  0.2669  0.0933  0.1081
 6330TIP3   OH240548   6.163   5.088   0.795 -0.3845  0.0511 -0.6365
 6330TIP3    H140549   6.219   5.070   0.871 -0.3664  1.1971 -0.3620
 6330TIP3    H240550   6.079   5.113   0.833 -0.0887  1.5942 -0.9525
 6331TIP3   OH240551   4.735   0.509   2.872  0.0161  0.1075 -0.0006
 6331TIP3    H140552   4.725   0.576   2.803  1.1806  1.1352  0.7820
 6331TIP3    H240553   4.690   0.432   2.837 -0.3201  0.9215 -1.4602
 6332TIP3   OH240554   1.012   1.851   0.499  0.1602  0.3355  0.1198
 6332TIP3    H140555   1.073   1.790   0.542 -0.1014  0.2050  0.3085
 6332TIP3    H240556   0.955   1.796   0.446  0.1005  0.4429  0.0705
 6333TIP3   OH240557   5.957   2.724   8.647  0.4967  0.6763  0.2465
 6333TIP3    H140558   5.896   2.683   8.708 -0.7235  2.2026  0.1024
 6333TIP3    H240559   5.910   2.724   8.563  0.6978  1.8103  0.1225
 6334TIP3   OH240560   1.942   2.354   1.629  0.4450  0.2921 -0.0045
 6334TIP3    H140561   1.994   2.320   1.702  0.0538 -0.6418 -0.1457
 6334TIP3    H240562   1.978   2.312   1.552  0.5433  0.9062 -0.2943
 6335TIP3   OH240563   6.678   5.422   8.044 -0.3635  0.1952  0.1889
 6335TIP3    H140564   6.663   5.335   8.082 -2.1712  0.9070  1.1944
 6335TIP3    H240565   6.592   5.450   8.013  0.0228  1.9609  0.5998
 6336TIP3   OH240566   1.100   4.172   6.890 -0.1980 -0.2864 -0.1144
 6336TIP3    H140567   1.187   4.186   6.927 -0.8617 -0.0948  1.4365
 6336TIP3    H240568   1.060   4.259   6.887 -0.3785 -0.3789 -0.7595
 6337TIP3   OH240569   5.309   4.429   1.867  0.0438  0.3337 -0.2194
 6337TIP3    H140570   5.352   4.422   1.952  2.0059  0.4691 -1.1437
 6337TIP3    H240571   5.281   4.340   1.846 -0.3346  0.2808  0.4957
 6338TIP3   OH240572   5.374   1.134   0.496 -0.2625 -0.1328  0.1715
 6338TIP3    H140573   5.321   1.193   0.443 -1.7520  0.2994  2.0160
 6338TIP3    H240574   5.437   1.190   0.540 -0.4635 -0.1571  0.4993
 6339TIP3   OH240575   3.449   1.877   7.676  0.3825 -0.0096 -0.4281
 6339TIP3    H140576   3.462   1.927   7.595 -0.5097  1.9611  0.5672
 6339TIP3    H240577   3.503   1.922   7.741  1.3250 -1.7503  0.0440
 6340TIP3   OH240578   2.161   3.580   1.561  0.3563 -0.3562 -0.3288
 6340TIP3    H140579   2.109   3.518   1.509  0.7920 -0.4205 -0.6987
 6340TIP3    H240580   2.140   3.665   1.524 -1.9120  0.0194  1.5662
 6341TIP3   OH240581   0.262   4.218   1.081 -0.2605 -0.2105  0.2365
 6341TIP3    H140582   0.328   4.175   1.026 -0.8846  0.1543 -0.8236
 6341TIP3    H240583   0.292   4.309   1.088 -1.0918  0.1736 -0.9870
 6342TIP3   OH240584   0.614   6.730   7.570 -0.0266  0.2084 -0.1677
 6342TIP3    H140585   0.566   6.796   7.620  1.2082  0.4132  0.7875
 6342TIP3    H240586   0.571   6.647   7.593 -1.0514  0.5607 -0.7323
 6343TIP3   OH240587   2.285   1.380   6.747 -0.0188 -0.1297  0.3465
 6343TIP3    H140588   2.208   1.325   6.762  0.3536 -1.3992 -1.9468
 6343TIP3    H240589   2.353   1.319   6.716  0.9928  1.3380 -0.4641
 6344TIP3   OH240590   4.208   4.767   1.019 -0.4949  0.1440 -0.0400
 6344TIP3    H140591   4.191   4.792   1.110  2.1987 -1.0107  0.8959
 6344TIP3    H240592   4.242   4.677   1.025  0.5604  0.3464 -2.0777
 6345TIP3   OH240593   6.858   2.052   6.276 -0.3060  0.0954  0.4742
 6345TIP3    H140594   6.953   2.058   6.270 -0.4324  1.3028 -0.6803
 6345TIP3    H240595   6.840   1.959   6.288  0.9529 -0.2922 -0.5172
 6346TIP3   OH240596   3.442   5.198   1.020 -0.6831  0.3417  0.4522
 6346TIP3    H140597   3.377   5.134   0.991 -1.2946  0.6653  1.0473
 6346TIP3    H240598   3.390   5.277   1.037  0.2039  1.3534 -1.3493
 6347TIP3   OH240599   4.928   0.316   0.417 -0.7903 -0.6204  0.0815
 6347TIP3    H140600   4.989   0.368   0.469 -2.2334  0.0069  1.2286
 6347TIP3    H240601   4.980   0.242   0.386  0.2277 -0.8439  2.1650
 6348TIP3   OH240602   3.982   6.700   6.820 -0.1375  0.3303  0.3841
 6348TIP3    H140603   3.985   6.671   6.729  0.2016 -0.2613  0.5785
 6348TIP3    H240604   3.891   6.727   6.834 -0.6478 -1.2454  0.3652
 6349TIP3   OH240605   1.149   2.893   6.956  0.2012  0.0093 -0.2140
 6349TIP3    H140606   1.082   2.886   6.888  0.4440 -0.0767 -0.4476
 6349TIP3    H240607   1.230   2.866   6.912  0.6204  1.3082 -0.3010
 6350TIP3   OH240608   6.738   4.427   6.974 -0.1774  0.1931  0.3763
 6350TIP3    H140609   6.692   4.463   6.897  0.0291  0.2092  0.2589
 6350TIP3    H240610   6.825   4.468   6.971  0.7101 -1.6114 -0.7523
 6351TIP3   OH240611   0.935   4.778   2.090  0.5748  0.3222  0.6087
 6351TIP3    H140612   0.968   4.862   2.056  1.5925  1.2625  3.5563
 6351TIP3    H240613   1.012   4.737   2.129 -0.5374 -0.4805  2.0330
 6352TIP3   OH240614   3.326   6.277   1.433  0.1916  0.2281  0.2277
 6352TIP3    H140615   3.332   6.357   1.485 -1.5921 -0.9337  2.3725
 6352TIP3    H240616   3.310   6.208   1.496 -0.7531 -1.4932 -1.7627
 6353TIP3   OH240617   6.020   4.700   1.516 -0.9543 -0.2873  0.2768
 6353TIP3    H140618   5.932   4.729   1.541 -1.4286 -1.0224 -0.4667
 6353TIP3    H240619   6.008   4.661   1.429  0.0468 -0.7254  0.3249
 6354TIP3   OH240620   6.252   1.660   0.652 -0.0720 -0.1572 -0.3151
 6354TIP3    H140621   6.287   1.642   0.739 -0.5220 -0.4629 -0.1932
 6354TIP3    H240622   6.283   1.748   0.631  1.2950 -0.6475 -0.4770
 6355TIP3   OH240623   4.825   3.375   1.616 -0.4389 -0.1347  0.1984
 6355TIP3    H140624   4.810   3.468   1.632  0.8070  0.2394 -0.6298
 6355TIP3    H240625   4.878   3.372   1.536  0.2172 -1.5093  0.6394
 6356TIP3   OH240626   3.150   4.544   7.590  0.5246 -0.4961 -0.2201
 6356TIP3    H140627   3.224   4.483   7.600  0.2340 -0.6280  1.6882
 6356TIP3    H240628   3.169   4.614   7.652 -0.9287 -0.5445  0.3252
 6357TIP3   OH240629   4.115   1.108   2.443 -0.1877  0.0810 -0.2402
 6357TIP3    H140630   4.166   1.189   2.437  0.1448 -0.1458 -0.5723
 6357TIP3    H240631   4.168   1.043   2.395 -0.5854 -0.2618 -0.2221
 6358TIP3   OH240632   1.139   0.327   7.526 -0.1202 -0.3099  0.0007
 6358TIP3    H140633   1.143   0.369   7.439  1.7146  2.6181  1.3442
 6358TIP3    H240634   1.060   0.365   7.566  0.3942  0.2773  0.4713
 6359TIP3   OH240635   0.079   1.086   8.158 -0.4469 -0.2816 -0.5235
 6359TIP3    H140636   0.095   1.143   8.234 -0.4883 -2.0901  0.8954
 6359TIP3    H240637  -0.017   1.085   8.149 -0.5750 -1.5467  0.6390
 6360TIP3   OH240638   4.823   3.959   7.312 -0.1652 -0.1893 -0.2337
 6360TIP3    H140639   4.810   4.029   7.248 -2.0397 -1.0125 -0.8256
 6360TIP3    H240640   4.786   3.881   7.270 -0.1724 -1.0442  1.2978
 6361TIP3   OH240641   3.435   6.762   8.451 -0.0948  1.2082 -0.3211
 6361TIP3    H140642   3.479   6.733   8.531 -0.5028  2.8221  0.5430
 6361TIP3    H240643   3.504   6.766   8.385  0.4947  1.0320  0.2819
 6362TIP3   OH240644   2.713   0.229   1.066 -0.0997 -0.6369 -0.2140
 6362TIP3    H140645   2.793   0.177   1.070  0.0073 -0.6763 -2.2803
 6362TIP3    H240646   2.709   0.272   1.152  3.5699  1.4936 -0.9227
 6363TIP3   OH240647   4.077   4.878   7.846 -0.4104  0.3967  0.0836
 6363TIP3    H140648   4.052   4.937   7.917 -1.1306 -1.1124  1.1452
 6363TIP3    H240649   4.167   4.853   7.866 -0.4383  0.3743  0.1803
 6364TIP3   OH240650   4.153   5.354   0.512 -0.0305  0.2316 -0.0367
 6364TIP3    H140651   4.080   5.373   0.453  0.5391  1.7513 -0.2992
 6364TIP3    H240652   4.115   5.359   0.600 -0.6835 -1.1348 -0.2110
 6365TIP3   OH240653   1.689   3.786   0.161 -0.3724 -0.3768 -0.0548
 6365TIP3    H140654   1.720   3.864   0.114 -1.1254  0.0142  0.0882
 6365TIP3    H240655   1.682   3.719   0.093  0.6583 -0.4460 -0.1153
 6366TIP3   OH240656   4.985   3.773   7.123  0.2514 -0.3543  0.5448
 6366TIP3    H140657   5.060   3.729   7.084  2.1114  1.3250  2.0285
 6366TIP3    H240658   5.012   3.795   7.211 -2.0747  0.1800  1.2126
 6367TIP3   OH240659   1.399   5.622   0.431 -0.4049  0.0257  0.6839
 6367TIP3    H140660   1.352   5.553   0.385 -1.4514 -0.2085  2.0297
 6367TIP3    H240661   1.468   5.576   0.480 -0.6037  0.0270  0.9652
 6368TIP3   OH240662   2.612   1.658   7.028  0.4891 -0.3511  0.6845
 6368TIP3    H140663   2.651   1.638   6.943  0.0899  0.2958  0.3426
 6368TIP3    H240664   2.521   1.681   7.008  0.3498 -0.3303  1.3033
 6369TIP3   OH240665   3.998   5.772   8.594 -0.0447  0.5631  0.0073
 6369TIP3    H140666   3.910   5.781   8.557 -0.5198 -1.1441  0.6329
 6369TIP3    H240667   4.022   5.681   8.577  1.4363  0.8922  0.2240
 6370TIP3   OH240668   6.653   5.153   8.147 -0.6959  0.1658 -0.0183
 6370TIP3    H140669   6.711   5.173   8.220  0.4175 -2.1185 -0.1664
 6370TIP3    H240670   6.608   5.073   8.173 -0.5270 -0.5156 -1.6579
 6371TIP3   OH240671   3.444   4.158   0.098 -0.3551  0.1121  0.0487
 6371TIP3    H140672   3.491   4.207   0.165  1.7633  0.2755 -1.4725
 6371TIP3    H240673   3.384   4.221   0.059  0.0877  0.6492  0.2299
 6372TIP3   OH240674   0.505   6.640   1.264 -0.1902 -0.1814  0.4302
 6372TIP3    H140675   0.420   6.680   1.283  0.5894  0.9576  1.6102
 6372TIP3    H240676   0.523   6.584   1.339 -0.6963 -1.8816 -0.6472
 6373TIP3   OH240677   5.406   6.630   8.270 -0.5604 -0.4229  0.1026
 6373TIP3    H140678   5.330   6.573   8.258 -0.5120 -0.5082  0.2017
 6373TIP3    H240679   5.481   6.573   8.252 -0.5566  0.0347 -1.5025
 6374TIP3   OH240680   2.644   2.390   7.681 -0.4984 -0.4364 -0.1987
 6374TIP3    H140681   2.699   2.464   7.654 -1.6819  0.0786 -1.2787
 6374TIP3    H240682   2.601   2.361   7.601  0.3182 -2.6689  0.1069
 6375TIP3   OH240683   3.757   1.936   8.659 -0.0460  0.4492 -0.1621
 6375TIP3    H140684   3.757   1.847   8.623 -0.3343 -0.5244  2.0903
 6375TIP3    H240685   3.724   1.990   8.587 -1.6518 -1.5167 -1.0211
 6376TIP3   OH240686   4.075   3.815   8.607  0.0842 -0.0129  0.1616
 6376TIP3    H140687   4.002   3.842   8.663 -0.7095 -2.4643  0.4205
 6376TIP3    H240688   4.036   3.754   8.544  1.4722  0.5606 -1.3282
 6377TIP3   OH240689   6.510   5.747   1.775  0.1434 -0.3553 -0.1389
 6377TIP3    H140690   6.424   5.725   1.809 -0.6148  1.0323 -1.0682
 6377TIP3    H240691   6.509   5.842   1.766  1.0773 -0.4632 -1.9009
 6378TIP3   OH240692   3.340   2.168   7.353 -0.2000  0.1786  0.1215
 6378TIP3    H140693   3.373   2.181   7.264  0.1854 -4.6820 -0.7703
 6378TIP3    H240694   3.417   2.139   7.403 -0.7094  1.4072  1.7180
 6379TIP3   OH240695   0.839   2.818   1.768 -0.4496  0.3197 -0.0363
 6379TIP3    H140696   0.926   2.781   1.785 -0.6849  0.8438  2.7062
 6379TIP3    H240697   0.783   2.781   1.836 -2.4601 -0.0646 -1.7827
 6380TIP3   OH240698   0.243   0.037   0.215  0.3808 -0.0533  0.5513
 6380TIP3    H140699   0.268   0.111   0.159  0.7962 -0.6827 -0.1147
 6380TIP3    H240700   0.314   0.030   0.279  0.8063 -0.4552  0.0372
 6381TIP3   OH240701   6.554   2.618   0.175  0.2834 -0.0422  0.7338
 6381TIP3    H140702   6.565   2.562   0.252  4.0898  0.6677  0.8719
 6381TIP3    H240703   6.629   2.676   0.176  0.1936  0.4231 -3.2249
 6382TIP3   OH240704   0.798   2.262   2.450  0.2529  0.2191  0.4302
 6382TIP3    H140705   0.746   2.288   2.527 -1.0493 -1.4271  0.1500
 6382TIP3    H240706   0.802   2.341   2.397 -1.8571  0.4711  0.5545
 6383TIP3   OH240707   4.016   0.832   1.683  0.4194 -0.2432 -0.5885
 6383TIP3    H140708   4.031   0.830   1.778 -0.9133  0.8952 -0.3102
 6383TIP3    H240709   3.940   0.890   1.673  0.0536 -0.9700 -2.2937
 6384TIP3   OH240710   0.416   2.106   8.072 -0.1065 -0.4194  0.2268
 6384TIP3    H140711   0.368   2.054   8.136 -0.0675  0.1614  0.7356
 6384TIP3    H240712   0.348   2.149   8.020 -0.1646 -1.9329 -1.0280
 6385TIP3   OH240713   1.873   2.997   8.355  0.0467  0.2648 -0.2635
 6385TIP3    H140714   1.821   3.073   8.381  1.5459  1.1215  0.3903
 6385TIP3    H240715   1.839   2.925   8.407  0.2482  1.0617  1.0140
 6386TIP3   OH240716   4.545   2.283   0.492 -0.5197  0.3869  0.3806
 6386TIP3    H140717   4.509   2.194   0.491  0.1600 -0.0919  3.9920
 6386TIP3    H240718   4.639   2.270   0.502 -0.3470  1.5168  0.2826
 6387TIP3   OH240719   3.985   5.621   0.830 -0.3415  0.0305  0.7433
 6387TIP3    H140720   4.071   5.641   0.792 -0.7817  0.7184  0.0585
 6387TIP3    H240721   3.944   5.564   0.765 -0.9170  0.8266  0.3854
 6388TIP3   OH240722   3.508   5.295   1.889  0.6166  0.0962 -0.4883
 6388TIP3    H140723   3.436   5.263   1.943  0.4360 -1.6881 -1.7017
 6388TIP3    H240724   3.576   5.228   1.897  1.3448  0.7558 -0.9574
 6389TIP3   OH240725   5.596   3.833   1.760 -0.0820  0.1065 -0.1711
 6389TIP3    H140726   5.515   3.843   1.811 -1.1316 -3.4025 -0.8819
 6389TIP3    H240727   5.662   3.806   1.823 -1.0373 -2.8651 -0.3097
 6390TIP3   OH240728   3.591   2.360   7.342  0.3012  0.0572 -0.1157
 6390TIP3    H140729   3.686   2.347   7.349  0.2466  0.0475  0.7311
 6390TIP3    H240730   3.577   2.449   7.374 -0.1287 -0.4766  1.2711
 6391TIP3   OH240731   3.123   0.262   2.576  0.1849  0.3031  0.1086
 6391TIP3    H140732   3.066   0.245   2.501 -0.0787  0.0108  0.3727
 6391TIP3    H240733   3.198   0.309   2.539 -0.1472  0.5443 -0.2696
 6392TIP3   OH240734   0.091   5.449   1.473 -0.1559  0.3880 -0.2777
 6392TIP3    H140735   0.110   5.360   1.443 -0.6820  0.3583 -0.5400
 6392TIP3    H240736   0.150   5.463   1.547 -1.0171 -0.6956  0.6584
 6393TIP3   OH240737   3.106   1.230   7.373  0.0914 -0.0532 -0.1405
 6393TIP3    H140738   3.189   1.272   7.352 -0.3062  0.5100 -0.6115
 6393TIP3    H240739   3.122   1.137   7.354  0.8438 -0.0678  0.5152
 6394TIP3   OH240740   0.345   6.643   0.245  0.1739  0.3138  0.3698
 6394TIP3    H140741   0.287   6.716   0.226  2.1588  1.9070  0.0004
 6394TIP3    H240742   0.344   6.589   0.165 -2.1397 -0.7577  1.0398
 6395TIP3   OH240743   1.277   6.854   7.598  0.1162  0.1174  0.4844
 6395TIP3    H140744   1.190   6.880   7.565  0.3230  0.8708  0.5246
 6395TIP3    H240745   1.319   6.937   7.623  0.4128 -0.3369  1.5495
 6396TIP3   OH240746   0.810   5.113   0.303  0.2384  0.9666  0.6807
 6396TIP3    H140747   0.748   5.180   0.331 -0.3621  1.1302 -0.8969
 6396TIP3    H240748   0.807   5.117   0.207  0.4278 -1.0887  0.5506
 6397TIP3   OH240749   2.021   4.196   2.368  0.1076  0.2004  0.5749
 6397TIP3    H140750   2.036   4.118   2.420 -0.8420 -0.4648 -0.1146
 6397TIP3    H240751   2.106   4.217   2.329  0.3740 -0.4657  0.7934
 6398TIP3   OH240752   5.099   1.205   7.724  0.6056  0.3369  0.0340
 6398TIP3    H140753   5.051   1.258   7.788 -0.2665  0.1813 -0.4798
 6398TIP3    H240754   5.184   1.191   7.765  1.0020  2.4425  0.0156
 6399TIP3   OH240755   6.445   6.219   7.058 -0.4300 -0.1371  0.1808
 6399TIP3    H140756   6.515   6.233   6.993  2.5050 -1.2902  2.8499
 6399TIP3    H240757   6.394   6.300   7.055  1.0608  0.8284 -1.8417
 6400TIP3   OH240758   2.050   1.727   8.269 -0.6021 -0.2298 -0.6030
 6400TIP3    H140759   2.074   1.815   8.239 -0.0962  0.1054  0.6921
 6400TIP3    H240760   1.957   1.733   8.289 -0.5077  0.1108 -0.2378
 6401TIP3   OH240761   6.535   0.821   2.094  0.0631  0.7620 -0.1744
 6401TIP3    H140762   6.608   0.851   2.040 -0.3137 -0.4274 -1.3911
 6401TIP3    H240763   6.461   0.817   2.034 -0.6855  0.6496  0.7334
 6402TIP3   OH240764   2.960   5.214   1.005  0.4379  0.2766 -0.2438
 6402TIP3    H140765   2.916   5.141   0.961  0.3807  0.5882 -0.7089
 6402TIP3    H240766   2.902   5.235   1.079 -0.1870  0.6652 -0.8346
 6403TIP3   OH240767   6.588   3.603   1.112  0.2603 -0.1872  0.2825
 6403TIP3    H140768   6.657   3.666   1.134  1.0993 -1.4448  1.4074
 6403TIP3    H240769   6.635   3.529   1.073 -0.6241 -0.4638 -0.2852
 6404TIP3   OH240770   2.826   4.577   1.354  0.3223  0.1638  0.1426
 6404TIP3    H140771   2.872   4.531   1.284  0.1659  0.2428 -0.0120
 6404TIP3    H240772   2.890   4.641   1.387  0.0361  0.8826 -0.6617
 6405TIP3   OH240773   0.716   5.177   8.322 -0.1990  0.2786 -0.0063
 6405TIP3    H140774   0.729   5.268   8.297 -1.2540  0.7666  1.1256
 6405TIP3    H240775   0.662   5.140   8.251 -0.2768  0.6983 -0.1699
 6406TIP3   OH240776   1.508   2.787   6.581  0.1417 -1.0130 -0.3612
 6406TIP3    H140777   1.447   2.713   6.584 -0.3225 -0.5928  1.2570
 6406TIP3    H240778   1.465   2.851   6.523 -2.2628  0.3154  2.6210
 6407TIP3   OH240779   5.075   6.401   2.558 -0.6062  0.2701 -0.1204
 6407TIP3    H140780   5.155   6.361   2.592 -0.8821  0.4761  0.8146
 6407TIP3    H240781   5.034   6.332   2.505  1.1238  0.7739 -2.2163
 6408TIP3   OH240782   3.214   2.194   2.321 -0.0462  0.0875  0.2794
 6408TIP3    H140783   3.194   2.286   2.305  0.2435  0.8305  3.5442
 6408TIP3    H240784   3.272   2.195   2.397 -2.8680 -2.8610  2.7587
 6409TIP3   OH240785   5.181   2.783   1.725  0.0035 -0.2130  0.0106
 6409TIP3    H140786   5.248   2.845   1.754  0.8827 -1.4280  0.6583
 6409TIP3    H240787   5.126   2.768   1.802 -0.6246  0.2768 -0.3359
 6410TIP3   OH240788   5.478   6.501   1.043 -0.6868  0.6475 -0.0435
 6410TIP3    H140789   5.483   6.445   0.965 -0.8742  0.1584  0.2956
 6410TIP3    H240790   5.491   6.590   1.009  2.8618  0.2070 -0.2617
 6411TIP3   OH240791   5.761   5.098   6.936 -1.2179 -0.5206 -0.2303
 6411TIP3    H140792   5.828   5.032   6.953 -2.8731 -2.9315 -2.4882
 6411TIP3    H240793   5.808   5.181   6.944  1.6291 -2.0196 -0.0814
 6412TIP3   OH240794   0.045   1.162   7.467 -0.1528 -0.0501 -0.7271
 6412TIP3    H140795  -0.033   1.150   7.521 -0.0984 -0.8566 -0.8156
 6412TIP3    H240796   0.014   1.210   7.390 -0.5847 -0.4662 -0.8151
 6413TIP3   OH240797   3.196   1.406   0.317  1.0146  0.0746  0.4978
 6413TIP3    H140798   3.235   1.346   0.381  2.2183  0.8295  0.5101
 6413TIP3    H240799   3.217   1.493   0.350  1.5964  0.4855 -0.8628
 6414TIP3   OH240800   5.789   2.769   0.304 -0.5726  0.0268 -0.1292
 6414TIP3    H140801   5.752   2.715   0.374 -0.4017 -0.1595 -0.1818
 6414TIP3    H240802   5.731   2.845   0.300 -0.3943  0.2002  0.4388
 6415TIP3   OH240803   3.659   0.979   2.792 -0.2466  0.1719 -0.5078
 6415TIP3    H140804   3.752   0.994   2.778 -0.5097  0.8389 -1.6693
 6415TIP3    H240805   3.625   1.063   2.821 -0.7532  0.3989 -1.6843
 6416TIP3   OH240806   1.035   6.001   8.182 -0.2503 -0.2999  0.0576
 6416TIP3    H140807   1.096   6.071   8.204  0.1748 -0.9562  1.0344
 6416TIP3    H240808   1.076   5.956   8.108  0.3106 -0.5496  0.5158
 6417TIP3   OH240809   3.357   3.523   7.684  0.3562  0.1812  0.1120
 6417TIP3    H140810   3.278   3.572   7.704  0.1339 -0.3598  0.5712
 6417TIP3    H240811   3.341   3.486   7.597 -0.6173 -1.3397  0.8977
 6418TIP3   OH240812   5.799   6.801   0.490  0.0530 -0.0942 -0.0672
 6418TIP3    H140813   5.829   6.810   0.400  0.3605 -3.8742 -0.5031
 6418TIP3    H240814   5.716   6.849   0.492 -0.4859 -0.7566 -2.6632
 6419TIP3   OH240815   4.399   4.678   7.291 -0.0020 -0.0258  0.1974
 6419TIP3    H140816   4.351   4.598   7.268 -0.9468  0.1776  1.3776
 6419TIP3    H240817   4.332   4.739   7.320  0.5765  1.6157 -1.6674
 6420TIP3   OH240818   0.595   6.792   0.251  0.2265 -0.4222 -0.2666
 6420TIP3    H140819   0.543   6.711   0.254 -0.9276  0.1968 -1.8264
 6420TIP3    H240820   0.532   6.862   0.268  0.3114  0.4054 -2.9066
 6421TIP3   OH240821   1.719   6.045   2.404 -0.4517 -0.0557 -0.2861
 6421TIP3    H140822   1.813   6.031   2.415 -0.5715 -0.4646  0.2773
 6421TIP3    H240823   1.680   5.959   2.416 -1.0391  0.3854  1.2447
 6422TIP3   OH240824   1.837   4.117   7.157  0.9351  0.0442  0.2448
 6422TIP3    H140825   1.903   4.184   7.175  0.0736  0.8450  0.4987
 6422TIP3    H240826   1.873   4.066   7.085  1.1798  1.3895 -0.6151
 6423TIP3   OH240827   5.165   3.857   0.303 -0.4865  0.0238 -0.5338
 6423TIP3    H140828   5.108   3.873   0.378 -1.1583  1.6634 -1.3443
 6423TIP3    H240829   5.125   3.784   0.257  0.1347 -1.2438  0.8684
 6424TIP3   OH240830   6.319   1.790   2.083  0.5482 -0.3817  0.1500
 6424TIP3    H140831   6.363   1.819   2.163  0.1004 -0.3249  0.3764
 6424TIP3    H240832   6.230   1.768   2.110  0.5890 -1.0287 -0.2015
 6425TIP3   OH240833   3.664   5.260   7.586  0.0899 -0.3111 -0.3239
 6425TIP3    H140834   3.679   5.204   7.511  1.0406  0.9101 -1.0895
 6425TIP3    H240835   3.583   5.307   7.566  0.7810  0.6222 -0.9968
 6426TIP3   OH240836   3.211   4.740   6.382 -0.1790 -0.9760  0.2172
 6426TIP3    H140837   3.181   4.814   6.436  0.2518 -1.6872  1.4720
 6426TIP3    H240838   3.305   4.753   6.374  0.0198 -1.8030  1.1105
 6427TIP3   OH240839   3.335   1.239   7.854 -0.1470 -0.0045 -0.0120
 6427TIP3    H140840   3.396   1.280   7.915  0.5689 -1.0272 -0.0059
 6427TIP3    H240841   3.384   1.230   7.772 -1.1286  1.4468 -0.8052
 6428TIP3   OH240842   0.584   6.266   1.315 -0.5443 -0.2623  0.5964
 6428TIP3    H140843   0.496   6.297   1.339 -0.3769  1.5477 -0.8457
 6428TIP3    H240844   0.587   6.274   1.219  1.5181  0.7559  0.6809
 6429TIP3   OH240845   3.209   0.749   8.165  0.5127 -0.2512  0.3796
 6429TIP3    H140846   3.120   0.779   8.150  0.6748  0.5350  0.8999
 6429TIP3    H240847   3.258   0.828   8.186  1.4570 -0.6007 -0.4179
 6430TIP3   OH240848   6.620   0.241   8.423  0.1117 -0.4095 -0.3154
 6430TIP3    H140849   6.579   0.195   8.350  0.8008 -0.3203 -0.7656
 6430TIP3    H240850   6.713   0.243   8.401  0.8221 -2.8836  1.8594
 6431TIP3   OH240851   3.151   0.335   2.123  0.6212  0.4039 -0.6009
 6431TIP3    H140852   3.240   0.302   2.131  0.5736  0.7437  2.5849
 6431TIP3    H240853   3.104   0.297   2.198 -1.4611  1.5977 -1.2035
 6432TIP3   OH240854   2.344   0.221   2.109  0.0429  0.3524 -0.3622
 6432TIP3    H140855   2.413   0.286   2.117 -0.6354  1.0856 -0.2905
 6432TIP3    H240856   2.288   0.254   2.039 -0.5326  0.0520 -0.0536
 6433TIP3   OH240857   1.935   0.955   7.569  0.3419 -1.0043 -0.2901
 6433TIP3    H140858   1.965   0.978   7.657 -1.2145  0.9905 -0.2197
 6433TIP3    H240859   1.840   0.963   7.573  0.2850 -0.0040 -2.3714
 6434TIP3   OH240860   6.500   6.841   7.488 -0.8206  0.5131  0.5755
 6434TIP3    H140861   6.465   6.889   7.413 -0.6451 -1.1147 -0.5972
 6434TIP3    H240862   6.429   6.781   7.513  0.1088 -0.9071 -0.0949
 6435TIP3   OH240863   1.975   2.556   8.111  0.3268  0.7167  0.3458
 6435TIP3    H140864   2.015   2.531   8.194 -0.2137  0.5183  0.5482
 6435TIP3    H240865   1.915   2.627   8.133  0.9956  1.4098 -0.0463
 6436TIP3   OH240866   5.743   0.199   2.580  0.2421 -0.0793 -0.2098
 6436TIP3    H140867   5.689   0.126   2.609  1.9121 -1.0979  0.4444
 6436TIP3    H240868   5.717   0.213   2.489 -0.4494 -1.1544 -0.1968
 6437TIP3   OH240869   6.752   5.669   6.911 -0.1286  0.1871 -0.3423
 6437TIP3    H140870   6.721   5.581   6.891 -2.1651  0.5998  0.7032
 6437TIP3    H240871   6.808   5.659   6.987 -0.5081 -0.1840 -0.1130
 6438TIP3   OH240872   4.474   4.951   6.776 -0.4590 -0.1044  0.3173
 6438TIP3    H140873   4.389   4.907   6.772 -0.3700 -0.3843  1.2760
 6438TIP3    H240874   4.522   4.904   6.845  0.0337  0.8069  0.6069
 6439TIP3   OH240875   1.931   4.399   2.185  0.7068 -0.0719 -0.6053
 6439TIP3    H140876   1.988   4.458   2.234  1.7608 -0.4254 -1.3700
 6439TIP3    H240877   1.932   4.318   2.235  0.2259  0.1671 -0.1980
 6440TIP3   OH240878   0.037   6.548   1.288 -0.1044  0.1616  0.0724
 6440TIP3    H140879   0.006   6.502   1.366 -0.6219  0.9363  0.3336
 6440TIP3    H240880  -0.015   6.628   1.285  1.5979  1.3300  0.3066
 6441TIP3   OH240881   1.023   1.814   1.641 -0.1330  0.2729  0.5088
 6441TIP3    H140882   1.052   1.847   1.725 -0.2170  1.0031  0.2613
 6441TIP3    H240883   0.957   1.877   1.611 -1.0400 -0.6457  0.4683
 6442TIP3   OH240884   0.048   5.865   1.335 -0.0723 -0.2715  0.3565
 6442TIP3    H140885   0.116   5.829   1.392  1.2277  0.8328 -0.4303
 6442TIP3    H240886   0.060   5.821   1.251 -0.0015  0.2724  0.0741
 6443TIP3   OH240887   4.671   0.615   8.663  0.2590 -0.5638 -0.2028
 6443TIP3    H140888   4.758   0.584   8.636  0.4980 -0.4650  0.4300
 6443TIP3    H240889   4.662   0.584   8.753  0.1212  0.3942  0.1274
 6444TIP3   OH240890   1.493   3.096   8.070 -0.0001 -0.4681  0.1833
 6444TIP3    H140891   1.569   3.153   8.060 -0.3257 -0.0749 -0.0502
 6444TIP3    H240892   1.418   3.148   8.041 -0.4225 -0.7025  0.8099
 6445TIP3   OH240893   2.669   0.266   8.251  0.3063 -0.1865  0.2869
 6445TIP3    H140894   2.708   0.240   8.168  1.9934 -0.1775  1.0176
 6445TIP3    H240895   2.630   0.186   8.286 -0.3829 -0.1936 -0.4884
 6446TIP3   OH240896   6.020   1.669   7.378 -0.0747 -0.3012  0.0821
 6446TIP3    H140897   5.971   1.747   7.404 -0.4472  0.1396 -1.8310
 6446TIP3    H240898   5.956   1.614   7.334  0.3898 -1.3322  0.6564
 6447TIP3   OH240899   0.607   3.735   0.691  0.1130 -0.2633 -0.2198
 6447TIP3    H140900   0.672   3.770   0.630  0.9645  0.0351  0.8444
 6447TIP3    H240901   0.529   3.789   0.676  1.2142  1.7853  0.9935
 6448TIP3   OH240902   1.976   5.414   1.014 -0.6680 -0.3549  0.4358
 6448TIP3    H140903   1.904   5.360   0.982 -0.1879 -0.9515  0.3523
 6448TIP3    H240904   2.055   5.371   0.981 -0.3107  1.0582 -0.6432
 6449TIP3   OH240905   3.174   1.449   7.052  0.3503  0.1383 -0.0752
 6449TIP3    H140906   3.253   1.500   7.065  0.0677  0.3187  1.0456
 6449TIP3    H240907   3.198   1.383   6.988  2.2133 -1.4364  2.0666
 6450TIP3   OH240908   2.944   5.710   2.028 -0.1319 -0.5307 -0.4505
 6450TIP3    H140909   2.988   5.639   1.983 -0.2717 -0.8216 -0.1303
 6450TIP3    H240910   3.013   5.776   2.042  0.6622 -1.6875  1.5554
 6451TIP3   OH240911   2.346   1.442   0.421 -0.1684  0.0634 -0.2530
 6451TIP3    H140912   2.377   1.377   0.357  1.3578  1.6789 -1.2494
 6451TIP3    H240913   2.349   1.397   0.505 -0.1530 -1.4672 -1.0427
 6452TIP3   OH240914   3.318   1.079   1.403 -0.1148 -0.5868  0.4257
 6452TIP3    H140915   3.298   1.009   1.341 -1.5121 -0.2171  0.4228
 6452TIP3    H240916   3.290   1.159   1.357  0.5563 -0.1210  0.8118
 6453TIP3   OH240917   5.618   4.774   0.508 -0.2146  0.3178  0.3944
 6453TIP3    H140918   5.559   4.832   0.461 -0.4104 -0.3814 -0.2467
 6453TIP3    H240919   5.570   4.691   0.515  0.6499 -0.2383 -0.0600
 6454TIP3   OH240920   5.445   6.752   7.593 -1.1750 -0.2916 -0.4220
 6454TIP3    H140921   5.488   6.769   7.509 -1.8746 -0.8422 -0.9129
 6454TIP3    H240922   5.379   6.821   7.601 -1.3588 -0.4524 -0.5164
 6455TIP3   OH240923   3.986   6.161   7.886 -0.3594  0.2796 -0.0995
 6455TIP3    H140924   3.954   6.247   7.857  0.7632  0.8562  0.3097
 6455TIP3    H240925   4.054   6.182   7.950 -2.1681 -0.9071  2.3735
 6456TIP3   OH240926   0.338   1.254   6.950 -0.1960  0.5952  0.6898
 6456TIP3    H140927   0.298   1.282   6.868  1.3831  1.0236  0.0446
 6456TIP3    H240928   0.423   1.297   6.952  1.1557 -1.9127  1.0080
 6457TIP3   OH240929   0.969   0.960   1.389 -0.4811  0.0399 -0.4499
 6457TIP3    H140930   1.005   1.038   1.346  0.8958  1.0360  2.2508
 6457TIP3    H240931   1.036   0.893   1.378 -0.7569 -0.1465 -1.0251
 6458TIP3   OH240932   1.143   3.862   0.858  0.3876 -0.2371  0.5793
 6458TIP3    H140933   1.218   3.904   0.899 -0.4053  1.6066  0.2171
 6458TIP3    H240934   1.177   3.828   0.775  0.9818 -0.0993  0.7656
 6459TIP3   OH240935   6.575   4.313   7.154 -0.2165 -0.8891  0.3177
 6459TIP3    H140936   6.617   4.363   7.084 -1.2781  0.6491  0.7246
 6459TIP3    H240937   6.644   4.254   7.186  0.9217 -0.0797 -0.5460
 6460TIP3   OH240938   0.693   6.133   6.446  0.6069 -0.4731 -0.0569
 6460TIP3    H140939   0.715   6.198   6.378 -0.0035 -0.5651 -0.3456
 6460TIP3    H240940   0.765   6.140   6.509  0.2855  0.8775  0.2022
 6461TIP3   OH240941   5.642   0.376   8.654 -0.3144 -0.5526  0.0367
 6461TIP3    H140942   5.688   0.452   8.618 -1.0877  0.1595  0.5200
 6461TIP3    H240943   5.695   0.301   8.626  1.2558  0.2395  0.7439
 6462TIP3   OH240944   5.714   2.540   0.415  0.3602  0.3079 -0.3412
 6462TIP3    H140945   5.620   2.558   0.426  0.1240 -0.7040 -0.6526
 6462TIP3    H240946   5.724   2.448   0.437  1.0848  0.0954 -1.5103
 6463TIP3   OH240947   6.178   5.868   0.178 -0.1052  0.5170 -0.3880
 6463TIP3    H140948   6.221   5.953   0.174  1.5767 -0.3268 -3.5222
 6463TIP3    H240949   6.218   5.824   0.252  0.3590  1.7424  0.1204
 6464TIP3   OH240950   2.860   6.601   0.382  0.2712  0.2514  0.4993
 6464TIP3    H140951   2.788   6.663   0.369  0.0829  0.0504  0.5606
 6464TIP3    H240952   2.939   6.654   0.382  0.3646  0.2313 -2.0648
 6465TIP3   OH240953   4.839   0.266   1.564 -0.4941  1.1437 -0.1866
 6465TIP3    H140954   4.847   0.252   1.470 -1.5852  0.3320 -0.1734
 6465TIP3    H240955   4.830   0.361   1.573 -0.7199  1.1968 -0.9271
 6466TIP3   OH240956   3.251   0.380   0.503  0.0452  0.3731 -0.3150
 6466TIP3    H140957   3.250   0.447   0.572  0.3139  0.4746 -0.4055
 6466TIP3    H240958   3.286   0.302   0.545  0.2778  0.4553 -0.3498
 6467TIP3   OH240959   6.551   3.124   0.988 -0.4041  0.0349 -0.2605
 6467TIP3    H140960   6.617   3.146   1.054 -0.0781  0.5138 -0.7352
 6467TIP3    H240961   6.467   3.132   1.035 -0.1072 -1.5903  0.6257
 6468TIP3   OH240962   0.041   6.203   1.357 -0.0332  0.2407  0.0463
 6468TIP3    H140963   0.047   6.276   1.418 -3.5684 -1.1789  2.4586
 6468TIP3    H240964   0.092   6.133   1.398 -1.3468 -0.3081  0.8321
 6469TIP3   OH240965   3.432   2.372   8.423 -0.6003  0.3036  0.0447
 6469TIP3    H140966   3.444   2.408   8.335  3.3393  0.2261  0.3581
 6469TIP3    H240967   3.496   2.418   8.477 -3.7343  1.2647  3.2984
 6470TIP3   OH240968   5.892   1.594   0.913 -0.3428 -0.3327  0.4021
 6470TIP3    H140969   5.824   1.623   0.853  0.5595  0.9905 -0.0264
 6470TIP3    H240970   5.946   1.535   0.860 -0.8590 -0.9831  0.5947
 6471TIP3   OH240971   5.279   3.414   1.076 -0.2382  0.0673 -0.4238
 6471TIP3    H140972   5.297   3.372   0.992 -0.8525 -1.4999  0.1968
 6471TIP3    H240973   5.357   3.396   1.129 -0.8107 -1.0102  0.0924
 6472TIP3   OH240974   2.061   3.113   0.145  0.6019 -0.0603 -0.0278
 6472TIP3    H140975   2.133   3.080   0.198 -0.8628 -0.7009  1.6478
 6472TIP3    H240976   2.020   3.181   0.199 -0.6618 -0.4084 -0.5107
 6473TIP3   OH240977   5.190   3.004   0.681 -0.5109  0.2898 -0.4973
 6473TIP3    H140978   5.097   3.000   0.658 -0.4368  1.3287 -1.0072
 6473TIP3    H240979   5.210   3.098   0.686  0.0739  0.1214  1.4169
 6474TIP3   OH240980   1.007   5.288   1.933 -0.3469 -0.1500 -0.0200
 6474TIP3    H140981   0.975   5.343   2.005  0.3039 -0.1434  0.2657
 6474TIP3    H240982   0.934   5.228   1.915  0.1224 -1.3823  1.8804
 6475TIP3   OH240983   5.296   6.268   0.476  0.6564 -0.2058  0.2448
 6475TIP3    H140984   5.252   6.188   0.504  0.0919 -0.8568 -2.3049
 6475TIP3    H240985   5.378   6.238   0.436  0.8115  0.5478 -0.0165
 6476TIP3   OH240986   4.146   1.396   7.555  0.7407  0.0184 -0.3883
 6476TIP3    H140987   4.153   1.315   7.505  0.2041  0.2113 -0.7842
 6476TIP3    H240988   4.237   1.427   7.563  1.0184 -0.9386  0.3105
 6477TIP3   OH240989   2.139   5.014   0.050  0.3862 -0.6648  0.5261
 6477TIP3    H140990   2.233   5.005   0.034  0.0426 -1.8564 -1.1108
 6477TIP3    H240991   2.125   5.109   0.058  1.4712 -0.3296 -1.0849
 6478TIP3   OH240992   1.629   5.007   6.630 -0.1720 -0.4204 -0.0745
 6478TIP3    H140993   1.638   5.101   6.645  0.2189 -0.4197 -0.3032
 6478TIP3    H240994   1.714   4.980   6.595 -0.5008 -0.7339 -0.6507
 6479TIP3   OH240995   5.843   0.847   2.112 -0.5292  0.5327  0.0513
 6479TIP3    H140996   5.933   0.878   2.099  0.0016 -1.1612 -0.7376
 6479TIP3    H240997   5.790   0.926   2.114  0.9000  1.5446 -0.1667
 6480TIP3   OH240998   0.046   4.257   8.486  0.8679  0.4889  0.5450
 6480TIP3    H140999   0.096   4.321   8.537  0.6708 -0.1574  1.5709
 6480TIP3    H241000   0.023   4.189   8.549 -0.8291  0.4948 -0.0195
 6481TIP3   OH241001   0.633   5.622   2.649  0.1553  0.2939 -0.0775
 6481TIP3    H141002   0.683   5.701   2.630  1.2574 -0.8018 -2.1336
 6481TIP3    H241003   0.693   5.566   2.697 -0.5907  0.6264  1.2900
 6482TIP3   OH241004   2.820   3.267   0.870  0.4791 -0.9722  0.3968
 6482TIP3    H141005   2.873   3.227   0.940  1.4406 -1.4927 -0.6076
 6482TIP3    H241006   2.846   3.220   0.791  1.1510  1.1914 -0.7168
 6483TIP3   OH241007   4.845   1.543   7.005  0.2921 -0.6192  0.5005
 6483TIP3    H141008   4.840   1.619   6.947  1.9377 -1.5371 -0.9432
 6483TIP3    H241009   4.931   1.551   7.047  1.1479 -2.4071 -0.7987
 6484TIP3   OH241010   3.625   3.068   8.438  0.1450  0.5352 -0.4342
 6484TIP3    H141011   3.657   3.119   8.512 -0.5188  1.6480 -0.8837
 6484TIP3    H241012   3.561   3.008   8.476  0.2446  0.6806 -0.0311
 6485TIP3   OH241013   5.122   2.548   1.972  0.0651 -0.1739  0.0973
 6485TIP3    H141014   5.063   2.623   1.966 -0.4782 -0.7041 -1.7160
 6485TIP3    H241015   5.065   2.474   1.993  0.4399 -0.2890  0.7372
 6486TIP3   OH241016   5.188   6.010   1.610 -0.4486 -0.1540 -0.5085
 6486TIP3    H141017   5.179   6.086   1.553 -0.4421  0.0361 -0.2533
 6486TIP3    H241018   5.098   5.983   1.628 -0.4497 -0.2792 -0.6927
 6487TIP3   OH241019   3.274   6.634   0.130  0.2155 -0.6733  0.1208
 6487TIP3    H141020   3.356   6.627   0.081 -0.4762  1.8132 -1.5915
 6487TIP3    H241021   3.288   6.704   0.193 -0.2012 -1.0816  0.6790
 6488TIP3   OH241022   2.661   2.151   7.829  0.3233  0.1176 -0.5553
 6488TIP3    H141023   2.663   2.236   7.785  0.0444  0.4737  0.1050
 6488TIP3    H241024   2.704   2.092   7.768 -0.4946  0.4953 -1.5352
 6489TIP3   OH241025   3.056   2.857   8.383 -0.1799  0.3730 -0.6405
 6489TIP3    H141026   3.121   2.793   8.355  0.3156 -0.1663  1.5035
 6489TIP3    H241027   2.984   2.804   8.418 -0.6270  0.9767 -0.6317
 6490TIP3   OH241028   6.762   0.118   7.857 -0.0932  0.4627 -0.4507
 6490TIP3    H141029   6.783   0.123   7.764  1.1997 -0.9551 -0.2683
 6490TIP3    H241030   6.817   0.185   7.898  1.9222 -1.1372 -0.3593
 6491TIP3   OH241031   5.150   0.216   0.032 -0.1699 -0.1531  0.1680
 6491TIP3    H141032   5.103   0.245   0.111  0.0483 -1.0802  0.6510
 6491TIP3    H241033   5.203   0.292   0.007 -1.5756  0.7785 -0.1445
 6492TIP3   OH241034   3.838   2.330   8.180  0.1412  0.2084  0.1226
 6492TIP3    H141035   3.922   2.356   8.217 -0.8673  1.2353  1.8357
 6492TIP3    H241036   3.789   2.412   8.174 -0.6545 -0.3304 -1.1255
 6493TIP3   OH241037   4.599   4.297   7.064 -0.2938  0.3143  0.1282
 6493TIP3    H141038   4.689   4.292   7.096  0.3576  1.5360 -1.3524
 6493TIP3    H241039   4.605   4.267   6.973 -1.2020  1.2083 -0.2513
 6494TIP3   OH241040   1.638   6.326   2.929  0.6575 -0.1506 -0.0664
 6494TIP3    H141041   1.664   6.234   2.917 -0.2831 -0.3209 -0.9296
 6494TIP3    H241042   1.613   6.355   2.842 -3.1081 -0.3644  0.7551
 6495TIP3   OH241043   3.262   4.684   2.681  0.0721  0.4555 -0.0259
 6495TIP3    H141044   3.323   4.618   2.648 -0.6798  0.4383 -1.4423
 6495TIP3    H241045   3.224   4.723   2.603 -2.1147  0.1059  0.7996
 6496TIP3   OH241046   5.038   4.602   7.233 -0.0290 -0.4380 -0.2492
 6496TIP3    H141047   4.956   4.598   7.282 -0.5064  0.4740 -0.9311
 6496TIP3    H241048   5.080   4.682   7.264 -0.5886  0.4439 -1.6623
 6497TIP3   OH241049   1.162   3.959   1.529 -0.7999  0.0486 -0.1794
 6497TIP3    H141050   1.067   3.958   1.524 -0.7886 -0.6687 -0.3172
 6497TIP3    H241051   1.187   3.868   1.544 -0.2086  0.4660  1.6450
 6498TIP3   OH241052   6.746   3.987   1.328 -0.2263 -0.2231 -0.0456
 6498TIP3    H141053   6.673   3.986   1.266 -2.1132 -0.3624  2.0768
 6498TIP3    H241054   6.815   4.035   1.282 -1.6571 -0.0085 -2.0989
 6499TIP3   OH241055   6.629   0.190   0.725 -1.0339 -0.4412  0.3472
 6499TIP3    H141056   6.707   0.228   0.684 -0.8498  0.4384  1.4596
 6499TIP3    H241057   6.596   0.259   0.782 -2.7938 -0.7067 -0.2924
 6500TIP3   OH241058   3.509   6.281   0.593 -0.0642  0.1634  0.0856
 6500TIP3    H141059   3.524   6.241   0.508 -0.3170  3.6972 -1.7719
 6500TIP3    H241060   3.421   6.317   0.589  0.1061  0.8811  1.6304
 6501TIP3   OH241061   5.901   3.813   0.161 -0.1202 -0.4918  0.0064
 6501TIP3    H141062   5.835   3.747   0.142  0.3127 -0.2864 -2.5792
 6501TIP3    H241063   5.956   3.816   0.082  2.4494 -0.0341  1.6819
 6502TIP3   OH241064   2.023   0.901   2.217 -0.0479  0.2074 -0.3301
 6502TIP3    H141065   2.000   0.809   2.220 -0.8754  0.3957 -0.6631
 6502TIP3    H241066   2.022   0.929   2.309 -0.1661 -0.0300 -0.2603
 6503TIP3   OH241067   6.199   6.329   0.620  0.0311 -0.2250 -0.5350
 6503TIP3    H141068   6.273   6.276   0.589 -2.3065 -3.3241 -1.3085
 6503TIP3    H241069   6.148   6.347   0.541 -0.2338  1.7101  0.0167
 6504TIP3   OH241070   6.259   5.680   1.833 -0.3004  0.1331  0.1446
 6504TIP3    H141071   6.190   5.742   1.808  0.2871  0.2677 -1.2319
 6504TIP3    H241072   6.242   5.603   1.780  0.5119  0.1061 -0.0862
 6505TIP3   OH241073   0.811   1.650   0.979  0.2094  0.4027  0.1864
 6505TIP3    H141074   0.903   1.671   0.995  0.9164 -0.8297 -1.8381
 6505TIP3    H241075   0.804   1.556   0.998 -0.2408  0.1647 -1.0217
 6506TIP3   OH241076   3.964   3.198   0.421  0.1396  0.1627 -0.6086
 6506TIP3    H141077   3.876   3.168   0.442  0.7702 -1.4065 -0.0127
 6506TIP3    H241078   3.968   3.288   0.454 -1.2464  0.2837 -0.7335
 6507TIP3   OH241079   6.186   4.315   7.688 -0.3162 -0.3043  0.2126
 6507TIP3    H141080   6.243   4.359   7.625  1.1118 -2.6543 -0.2648
 6507TIP3    H241081   6.230   4.326   7.772 -0.4897  0.0331  0.2595
 6508TIP3   OH241082   2.644   2.243   0.236 -0.1997  0.0965  0.3590
 6508TIP3    H141083   2.554   2.228   0.265 -0.7665  3.0542  0.4660
 6508TIP3    H241084   2.685   2.287   0.311  0.4780  1.2567 -0.6602
 6509TIP3   OH241085   6.140   4.477   0.174  0.0889 -0.2676  0.1287
 6509TIP3    H141086   6.157   4.570   0.162  0.7882 -0.2298  1.2264
 6509TIP3    H241087   6.147   4.439   0.087  0.5968  0.5854 -0.2090
 6510TIP3   OH241088   3.639   4.103   1.210  0.0253 -0.3096  0.0569
 6510TIP3    H141089   3.639   4.007   1.206 -0.7929 -0.3063 -0.3130
 6510TIP3    H241090   3.548   4.128   1.190 -0.0831  0.4976  1.4324
 6511TIP3   OH241091   6.176   1.883   7.047 -0.5294  0.3461  0.1135
 6511TIP3    H141092   6.114   1.940   7.001 -2.0408 -1.4224 -0.1512
 6511TIP3    H241093   6.231   1.848   6.977 -0.9183 -0.0682  0.0101
 6512TIP3   OH241094   1.701   0.042   2.259 -0.2390 -0.2439 -0.5349
 6512TIP3    H141095   1.708  -0.045   2.298 -0.2445 -0.0062  0.0061
 6512TIP3    H241096   1.668   0.026   2.170  0.9195 -0.8854 -0.8775
 6513TIP3   OH241097   3.871   0.999   7.351  0.0562 -0.3474  0.3630
 6513TIP3    H141098   3.864   0.905   7.362 -1.8039 -0.1397  1.3442
 6513TIP3    H241099   3.909   1.031   7.433  1.7287 -0.2937 -0.3783
 6514TIP3   OH241100   5.403   5.926   1.379 -0.4735  0.3831 -0.2384
 6514TIP3    H141101   5.467   5.997   1.375  2.3001 -1.9116 -0.0509
 6514TIP3    H241102   5.385   5.914   1.473 -1.7491  1.4362 -0.3242
 6515TIP3   OH241103   0.552   1.758   1.289 -0.2115  0.2506 -0.3543
 6515TIP3    H141104   0.525   1.834   1.238  1.8714  0.9014 -0.5717
 6515TIP3    H241105   0.489   1.690   1.265 -1.1394  1.4335 -1.4017
 6516TIP3   OH241106   6.225   0.660   8.083  0.4266  0.1639 -0.0934
 6516TIP3    H141107   6.150   0.636   8.137 -0.6633 -1.0234 -2.0149
 6516TIP3    H241108   6.191   0.726   8.023  0.9502 -0.2099 -0.8188
 6517TIP3   OH241109   2.402   2.293   7.513 -0.2803 -0.4868  0.2332
 6517TIP3    H141110   2.364   2.355   7.451  0.9177  1.1622  1.0846
 6517TIP3    H241111   2.359   2.314   7.596 -0.1462 -1.0760  0.4569
 6518TIP3   OH241112   5.723   6.266   0.832  0.3035  0.0286  0.6253
 6518TIP3    H141113   5.696   6.225   0.749 -1.0664  0.5274  0.8006
 6518TIP3    H241114   5.645   6.313   0.861  0.2609 -1.3488  2.9655
 6519TIP3   OH241115   0.452   0.606   1.088 -0.1543 -0.2850 -0.0912
 6519TIP3    H141116   0.479   0.545   1.019  0.8236  0.3598 -0.2878
 6519TIP3    H241117   0.357   0.593   1.095 -0.2836 -0.3169 -1.6003
 6520TIP3   OH241118   2.698   4.987   7.462  0.0535 -0.0753  0.2777
 6520TIP3    H141119   2.788   4.987   7.431  0.0926 -0.3161  0.3868
 6520TIP3    H241120   2.660   4.906   7.427 -0.0301 -0.1286  0.4859
 6521TIP3   OH241121   0.293   0.696   1.502  0.1028  0.0409  0.0948
 6521TIP3    H141122   0.364   0.683   1.439  1.0921  0.3992  1.1055
 6521TIP3    H241123   0.220   0.730   1.449 -0.1438 -2.5336 -1.3595
 6522TIP3   OH241124   6.825   1.771   2.017 -0.4949 -0.5630  0.0900
 6522TIP3    H141125   6.750   1.723   2.052 -0.2421 -1.8194 -1.0097
 6522TIP3    H241126   6.856   1.717   1.945  1.9051 -0.4246  0.9314
 6523TIP3   OH241127   6.826   1.998   1.635 -0.1599  0.1150  0.6715
 6523TIP3    H141128   6.836   1.903   1.627  1.1446  0.2706  0.2689
 6523TIP3    H241129   6.862   2.019   1.721  0.6643  0.3792  0.2706
 6524TIP3   OH241130   6.458   0.110   7.863 -0.5020  0.4257  0.1083
 6524TIP3    H141131   6.542   0.067   7.855 -1.5381 -1.6450 -0.2699
 6524TIP3    H241132   6.441   0.146   7.776 -0.0919  0.6973  0.1410
 6525TIP3   OH241133   4.263   1.440   1.128  0.0189 -0.5940  0.2466
 6525TIP3    H141134   4.297   1.350   1.133 -2.7166 -1.8428 -1.1005
 6525TIP3    H241135   4.271   1.463   1.035  2.1440  1.2967  0.8037
 6526TIP3   OH241136   5.945   2.597   0.556  0.0672 -0.2291 -0.0262
 6526TIP3    H141137   5.966   2.681   0.515 -1.2806 -0.1304 -0.5798
 6526TIP3    H241138   5.860   2.573   0.518 -0.0797 -1.3147  0.9443
 6527TIP3   OH241139   3.758   1.125   0.261  0.0502  0.3636  0.6078
 6527TIP3    H141140   3.714   1.196   0.307  0.3519  0.4873  0.7059
 6527TIP3    H241141   3.819   1.169   0.201 -1.0602  0.2438 -0.6760
 6528TIP3   OH241142   5.162   1.887   1.966  0.4255 -0.3913  0.0141
 6528TIP3    H141143   5.182   1.947   1.894  1.7876 -2.1353 -1.1658
 6528TIP3    H241144   5.222   1.912   2.036 -1.0556  1.4601  0.7040
 6529TIP3   OH241145   4.917   0.553   1.248  0.0614  0.0578 -0.2202
 6529TIP3    H141146   4.874   0.469   1.231 -0.6390  0.5009 -0.6730
 6529TIP3    H241147   5.004   0.543   1.209  0.6284 -1.0595  1.2279
 6530TIP3   OH241148   6.531   5.437   8.604  0.1076  0.1484 -0.4872
 6530TIP3    H141149   6.486   5.368   8.556  1.1846  0.0171 -1.3561
 6530TIP3    H241150   6.514   5.417   8.697 -0.7304 -0.4724 -0.7631
 6531TIP3   OH241151   5.326   6.588   0.630  0.3858 -0.4232 -0.1981
 6531TIP3    H141152   5.248   6.592   0.686  0.8255  0.5802  0.3810
 6531TIP3    H241153   5.295   6.548   0.549 -0.2450 -2.0358  0.7923
 6532TIP3   OH241154   5.294   1.346   0.257  0.0448 -0.0835  0.0131
 6532TIP3    H141155   5.364   1.393   0.302 -0.4355 -0.8512  1.6552
 6532TIP3    H241156   5.222   1.410   0.252  0.5018  0.3884 -0.7903
 6533TIP3   OH241157   2.238   0.410   0.328  0.1557  0.3597 -0.1983
 6533TIP3    H141158   2.315   0.356   0.342  1.1674  1.4578 -1.3451
 6533TIP3    H241159   2.198   0.375   0.248  0.8213  1.2829 -0.9512
 6534TIP3   OH241160   0.111   3.115   0.892  0.3179 -1.0314  0.0246
 6534TIP3    H141161   0.057   3.129   0.815  2.2313  0.3080 -1.1693
 6534TIP3    H241162   0.082   3.181   0.955  1.1345  0.3243 -0.9659
 6535TIP3   OH241163   3.702   5.259   0.092 -0.0832 -0.3252 -0.0212
 6535TIP3    H141164   3.623   5.247   0.144 -0.6935 -1.0325 -1.0939
 6535TIP3    H241165   3.758   5.185   0.116 -0.0916 -0.2886  0.1117
 6536TIP3   OH241166   5.762   1.241   8.406 -0.5280  0.2383  0.1950
 6536TIP3    H141167   5.700   1.179   8.444 -0.5933  0.6504  0.7646
 6536TIP3    H241168   5.714   1.324   8.402  0.1361  0.6813  1.0939
 6537TIP3   OH241169   4.880   3.102   0.205  0.2558  0.3592  0.6616
 6537TIP3    H141170   4.950   3.054   0.249  1.6535  0.1362 -1.6745
 6537TIP3    H241171   4.918   3.131   0.122 -0.9021  4.4184  1.3073
 6538TIP3   OH241172   2.386   5.028   7.888 -0.2505 -0.4581 -0.5476
 6538TIP3    H141173   2.346   4.954   7.842  1.2021 -0.7202 -1.4757
 6538TIP3    H241174   2.463   4.990   7.930 -1.8854 -0.3889  2.7969
 6539TIP3   OH241175   6.114   0.487   1.623 -0.1465  0.5413  0.4504
 6539TIP3    H141176   6.209   0.480   1.636 -0.4204 -0.2851  2.3662
 6539TIP3    H241177   6.103   0.566   1.571  1.5903  0.6731  0.2087
 6540TIP3   OH241178   0.013   4.403   0.705  0.6274 -0.5987 -0.2953
 6540TIP3    H141179  -0.038   4.415   0.785  2.7219 -2.7356  1.5085
 6540TIP3    H241180   0.065   4.483   0.697  0.7394 -0.5499  0.7835
 6541TIP3   OH241181   4.081   6.627   8.322  0.1899 -0.0481  0.0147
 6541TIP3    H141182   4.020   6.607   8.393  0.2377 -0.1317  0.0333
 6541TIP3    H241183   4.165   6.590   8.351  0.5692  1.2040  0.5837
 6542TIP3   OH241184   2.882   4.538   7.487 -0.4717  0.5848 -0.2330
 6542TIP3    H141185   2.976   4.556   7.495 -0.4184  2.4272 -3.4026
 6542TIP3    H241186   2.840   4.618   7.520 -0.7311  1.2629 -2.1049
 6543TIP3   OH241187   0.037   5.161   1.332 -0.8823 -0.4645 -0.2126
 6543TIP3    H141188   0.029   5.066   1.317 -0.3097 -0.3310 -1.4612
 6543TIP3    H241189  -0.047   5.197   1.304 -1.0711 -0.5891  0.1874
 6544TIP3   OH241190   6.382   4.079   0.995 -0.3845 -0.2854 -0.4464
 6544TIP3    H141191   6.381   4.161   0.946 -1.2350 -1.0431 -1.7517
 6544TIP3    H241192   6.296   4.040   0.978 -0.4082 -0.9455  1.0499
 6545TIP3   OH241193   5.620   6.341   1.532 -0.2847  0.0035  0.3618
 6545TIP3    H141194   5.685   6.290   1.581  1.0827  1.8972  0.5895
 6545TIP3    H241195   5.537   6.320   1.575  0.3087 -1.4793  0.8724
 6546TIP3   OH241196   4.711   2.876   1.368  0.4559 -0.3070 -0.0917
 6546TIP3    H141197   4.778   2.859   1.434 -0.5127 -0.3444  0.9086
 6546TIP3    H241198   4.690   2.969   1.380 -1.0083 -0.7259  0.9258
 6547TIP3   OH241199   5.435   3.099   7.916 -0.8122 -0.4990  0.3063
 6547TIP3    H141200   5.352   3.110   7.962 -1.1904 -0.0344 -0.4529
 6547TIP3    H241201   5.410   3.063   7.831 -0.2712 -0.0392 -0.0508
 6548TIP3   OH241202   6.728   2.495   1.820  0.4687 -0.0140  0.2376
 6548TIP3    H141203   6.667   2.569   1.825  0.1375 -0.3210  0.7473
 6548TIP3    H241204   6.673   2.417   1.824  0.8789 -0.2943  0.5067
 6549TIP3   OH241205   2.804   4.751   8.518  0.3583  0.0919 -0.0525
 6549TIP3    H141206   2.775   4.787   8.602  0.1544 -0.4886  0.1313
 6549TIP3    H241207   2.728   4.701   8.486  1.0467 -1.2413  0.3098
 6550TIP3   OH241208   1.098   3.514   6.678 -0.4990 -0.8330  0.0581
 6550TIP3    H141209   1.015   3.512   6.630 -1.8174  0.6535  2.0832
 6550TIP3    H241210   1.127   3.423   6.679 -1.9140 -1.3337 -1.0053
 6551TIP3   OH241211   0.126   4.145   0.696  0.1734 -0.5313  0.0631
 6551TIP3    H141212   0.113   4.238   0.682 -2.4125 -0.8629 -0.1130
 6551TIP3    H241213   0.113   4.106   0.609  1.8779 -1.0484 -0.0014
 6552TIP3   OH241214   2.081   1.873   0.199 -0.5979 -0.0577 -0.2832
 6552TIP3    H141215   2.111   1.957   0.234 -1.7464  0.0335  0.5357
 6552TIP3    H241216   2.119   1.807   0.258 -2.5509  0.0960  1.3013
 6553TIP3   OH241217   1.950   6.766   8.660  0.6185  0.2483  0.3308
 6553TIP3    H141218   1.933   6.771   8.754  2.2540 -0.9929  0.7164
 6553TIP3    H241219   1.897   6.692   8.630  0.1196  0.6261  0.2511
 6554TIP3   OH241220   6.429   4.229   2.186 -0.0857  0.2335 -0.6799
 6554TIP3    H141221   6.440   4.270   2.271 -0.3858 -2.8434  0.9786
 6554TIP3    H241222   6.476   4.146   2.192  0.7410  0.2914 -3.9164
 6555TIP3   OH241223   0.491   3.346   1.884 -0.1768 -0.1968  0.1269
 6555TIP3    H141224   0.585   3.364   1.883  0.1906 -1.8946 -1.8185
 6555TIP3    H241225   0.450   3.433   1.881  1.3126  0.5475  0.4305
 6556TIP3   OH241226   5.755   4.345   1.329  0.0455  0.2797 -0.1509
 6556TIP3    H141227   5.790   4.403   1.397  0.4591  0.4537 -0.5082
 6556TIP3    H241228   5.684   4.298   1.373  0.9297 -0.3263  0.6902
 6557TIP3   OH241229   5.751   2.220   0.462 -0.0018 -0.2094  0.0617
 6557TIP3    H141230   5.843   2.242   0.472  0.0275 -0.9313  1.7580
 6557TIP3    H241231   5.740   2.201   0.369  2.5635 -4.2802  0.3613
 6558TIP3   OH241232   0.521   2.454   7.305 -0.2083  0.6689  0.0895
 6558TIP3    H141233   0.578   2.439   7.230  1.3400 -0.4938  1.4271
 6558TIP3    H241234   0.509   2.367   7.345 -1.4055  1.1724  0.9104
 6559TIP3   OH241235   6.152   1.520   7.861  0.1741 -0.3355  0.2613
 6559TIP3    H141236   6.061   1.546   7.851  0.0755 -0.7387  0.0878
 6559TIP3    H241237   6.201   1.580   7.805  0.4308  2.2223  2.9511
 6560TIP3   OH241238   3.884   1.637   1.684 -0.0519 -0.2435 -0.0161
 6560TIP3    H141239   3.837   1.629   1.767 -0.9080 -0.2558 -0.4895
 6560TIP3    H241240   3.977   1.638   1.709 -0.1894 -2.1700  0.8096
 6561TIP3   OH241241   5.903   1.905   8.585 -0.2937  0.0176 -0.4791
 6561TIP3    H141242   5.955   1.871   8.512 -1.3773 -1.0543 -0.7844
 6561TIP3    H241243   5.870   1.827   8.630 -0.2940  0.6679  0.6848
 6562TIP3   OH241244   1.817   4.490   8.642 -0.3858 -0.1907 -0.0665
 6562TIP3    H141245   1.777   4.517   8.725  1.2611  0.7846  0.4594
 6562TIP3    H241246   1.774   4.543   8.576  0.0080  0.8330  0.4819
 6563TIP3   OH241247   6.236   4.274   1.439 -0.1732  0.7068 -0.4059
 6563TIP3    H141248   6.298   4.291   1.510 -0.2596  1.2487 -0.4595
 6563TIP3    H241249   6.158   4.240   1.484  0.1730 -0.0389 -0.3441
 6564TIP3   OH241250   4.256   5.941   7.753 -0.7422  0.0329  0.4201
 6564TIP3    H141251   4.188   5.968   7.691 -0.2559  1.0758  0.3082
 6564TIP3    H241252   4.221   5.863   7.796 -0.8173 -1.1273 -1.6240
 6565TIP3   OH241253   6.684   4.603   1.335 -0.5259  0.7042  1.1724
 6565TIP3    H141254   6.763   4.622   1.385  1.1140  0.1322 -1.0223
 6565TIP3    H241255   6.665   4.511   1.352  0.9943  0.0480 -0.4068
 6566TIP3   OH241256   0.013   4.498   8.112  0.2045 -0.4879 -0.0765
 6566TIP3    H141257  -0.058   4.558   8.091  0.6399 -0.0064 -0.1877
 6566TIP3    H241258   0.092   4.552   8.110  0.4287 -0.7199  1.3547
 6567TIP3   OH241259   1.841   5.304   8.456 -0.2482 -0.2915  0.1434
 6567TIP3    H141260   1.794   5.290   8.374 -1.0286 -3.9513  1.0438
 6567TIP3    H241261   1.932   5.315   8.431 -0.7465  0.9498 -1.2690
 6568TIP3   OH241262   3.938   1.252   7.804 -0.0362  0.0915  0.2388
 6568TIP3    H141263   4.017   1.304   7.821 -0.3179  0.4355  0.5223
 6568TIP3    H241264   3.873   1.317   7.776 -0.8506  0.1281  2.0801
 6569TIP3   OH241265   1.160   4.735   7.745  0.7662  0.6181 -0.4876
 6569TIP3    H141266   1.080   4.723   7.694  0.3464 -1.7087  0.5907
 6569TIP3    H241267   1.231   4.711   7.685  0.3660 -0.8707 -0.4002
 6570TIP3   OH241268   3.829   0.912   8.631  0.2056  0.4765  0.1776
 6570TIP3    H141269   3.878   0.947   8.556  0.7915  0.7979  0.7038
 6570TIP3    H241270   3.895   0.900   8.699 -0.2818 -0.0728  0.5570
 6571TIP3   OH241271   4.216   4.954   0.225 -0.2659  0.2398  0.1324
 6571TIP3    H141272   4.210   5.046   0.202  1.8574  0.2676 -0.4477
 6571TIP3    H241273   4.215   4.953   0.321  0.6608  0.9582  0.1609
 6572TIP3   OH241274   2.853   5.224   8.257 -0.1585  0.1952 -0.1431
 6572TIP3    H141275   2.913   5.252   8.189  2.3704 -1.3561  1.2783
 6572TIP3    H241276   2.909   5.187   8.325 -2.7228 -1.0042  1.4976
 6573TIP3   OH241277   2.782   5.730   8.612 -0.7078 -0.4814 -0.0710
 6573TIP3    H141278   2.743   5.791   8.549  0.4022  0.0479 -0.2569
 6573TIP3    H241279   2.851   5.686   8.563 -0.0157 -0.2670  0.6956
 6574TIP3   OH241280   6.603   4.539   7.579 -0.0437  0.5625 -0.5300
 6574TIP3    H141281   6.690   4.537   7.617 -0.6050 -0.5762  0.7664
 6574TIP3    H241282   6.577   4.631   7.582  0.2521  0.6174  1.1378
 6575TIP3   OH241283   5.105   0.256   1.700 -0.0987 -0.5876  0.0682
 6575TIP3    H141284   5.119   0.343   1.662  0.5265  0.6511  2.9226
 6575TIP3    H241285   5.022   0.227   1.661 -0.6964  1.5731 -0.4470
 6576TIP3   OH241286   4.699   1.980   0.082 -0.1155  0.3758 -0.1104
 6576TIP3    H141287   4.707   1.906   0.142  0.5505 -0.1197 -0.7859
 6576TIP3    H241288   4.677   2.055   0.138 -0.6474 -0.2957  0.6001
 6577TIP3   OH241289   6.767   5.479   8.459  0.9270  0.1134  0.1851
 6577TIP3    H141290   6.824   5.407   8.487  0.0457 -0.3655  0.8042
 6577TIP3    H241291   6.690   5.472   8.516 -0.1928  0.1399 -1.2576
 6578TIP3   OH241292   1.179   2.007   1.181 -0.1754  0.5179 -0.1070
 6578TIP3    H141293   1.175   1.975   1.091 -1.5089 -0.4083  0.2535
 6578TIP3    H241294   1.265   1.978   1.212  0.1928  0.6181 -0.9820
 6579TIP3   OH241295   0.426   2.610   1.249 -0.1163  0.0969  0.1723
 6579TIP3    H141296   0.492   2.669   1.285  0.4697 -1.6532  2.0950
 6579TIP3    H241297   0.456   2.594   1.159 -0.3297  2.6863 -0.4556
 6580TIP3   OH241298   4.680   6.603   8.000  0.0359  0.1141  0.0375
 6580TIP3    H141299   4.697   6.662   7.926 -1.8387  0.1479 -0.4169
 6580TIP3    H241300   4.676   6.660   8.076 -0.5282  0.4290 -0.2195
 6581TIP3   OH241301   5.447   2.161   1.434 -0.1956 -0.6528  0.1459
 6581TIP3    H141302   5.373   2.104   1.412  0.4547 -0.8816 -1.5651
 6581TIP3    H241303   5.427   2.244   1.391  2.1800 -1.7937 -3.6573
 6582TIP3   OH241304   5.872   2.731   7.108 -0.0583  0.0311 -0.0253
 6582TIP3    H141305   5.909   2.796   7.167 -1.8180  1.4807 -0.4208
 6582TIP3    H241306   5.944   2.670   7.090  0.6064 -0.3488  3.3597
 6583TIP3   OH241307   1.302   6.315   1.424 -0.6408  0.2487 -0.2560
 6583TIP3    H141308   1.384   6.319   1.474  1.1674  0.5799 -2.9855
 6583TIP3    H241309   1.280   6.222   1.422 -0.6986  0.2197  1.0252
 6584TIP3   OH241310   1.848   1.106   0.571  0.1270 -0.1806  0.4458
 6584TIP3    H141311   1.893   1.031   0.609 -0.1012 -0.3081  0.4644
 6584TIP3    H241312   1.873   1.106   0.479  1.0057  0.3626  0.6660
 6585TIP3   OH241313   1.973   1.142   1.339  0.2811 -0.0965  0.1424
 6585TIP3    H141314   1.909   1.209   1.360 -0.0672 -0.7807  1.3141
 6585TIP3    H241315   1.922   1.063   1.322  0.7955 -1.1106  2.7686
 6586TIP3   OH241316   4.693   5.722   7.019  0.3638 -0.1787  0.1704
 6586TIP3    H141317   4.682   5.635   6.980  0.9403  0.3078 -1.1213
 6586TIP3    H241318   4.619   5.730   7.079 -2.0869 -0.0055 -2.6321
 6587TIP3   OH241319   1.364   1.645   7.870  0.2543 -0.1999  0.0838
 6587TIP3    H141320   1.417   1.724   7.879 -0.1109  0.2130 -1.1372
 6587TIP3    H241321   1.291   1.671   7.814  1.6156 -2.0154 -2.8437
 6588TIP3   OH241322   4.842   2.360   8.035 -0.2803 -0.8247 -0.1250
 6588TIP3    H141323   4.866   2.349   7.944 -1.9049 -1.7737 -0.4683
 6588TIP3    H241324   4.755   2.400   8.032 -0.4495 -1.0762  1.0037
 6589TIP3   OH241325   3.721   2.898   6.686  0.2720  0.1746 -0.7316
 6589TIP3    H141326   3.727   2.858   6.600 -0.1465  1.5837 -1.4448
 6589TIP3    H241327   3.794   2.860   6.736  1.0893  0.0377 -1.9962
 6590TIP3   OH241328   0.784   1.126   1.151 -0.7675 -0.1992  0.2601
 6590TIP3    H141329   0.738   1.194   1.200 -0.7762  1.5826 -2.0002
 6590TIP3    H241330   0.715   1.068   1.119 -1.0931  0.3442 -0.0511
 6591TIP3   OH241331   6.838   2.036   7.356  0.4857 -0.5749 -0.5639
 6591TIP3    H141332   6.914   1.984   7.384  0.6028  0.4345  1.1311
 6591TIP3    H241333   6.865   2.127   7.370 -0.4841 -0.1300 -1.4445
 6592TIP3   OH241334   6.232   4.427   1.056  0.1592 -0.5061  0.0645
 6592TIP3    H141335   6.281   4.387   0.985 -0.3483 -2.2639  0.6580
 6592TIP3    H241336   6.175   4.492   1.013  1.6346  0.2646 -0.8155
 6593TIP3   OH241337   5.327   4.585   1.427  0.4872 -1.0239  0.6656
 6593TIP3    H141338   5.418   4.579   1.458  1.0395 -2.7654 -1.0681
 6593TIP3    H241339   5.274   4.565   1.504  1.4474  1.0317  1.9834
 6594TIP3   OH241340   6.689   5.005   2.305  0.0375  0.0401  0.3163
 6594TIP3    H141341   6.647   4.927   2.268 -2.7428  1.6497 -0.2336
 6594TIP3    H241342   6.721   4.976   2.391 -1.7154 -1.5135  0.5224
 6595TIP3   OH241343   4.309   4.389   2.037 -0.5981 -0.4549 -0.0265
 6595TIP3    H141344   4.342   4.467   1.993 -2.0455  1.1693  1.6395
 6595TIP3    H241345   4.381   4.360   2.093 -0.6163  0.6894  0.6027
 6596TIP3   OH241346   5.754   5.656   0.640  0.1842  0.1883 -0.7851
 6596TIP3    H141347   5.796   5.600   0.575  0.4126  0.3057 -0.7403
 6596TIP3    H241348   5.827   5.695   0.689  0.0009 -0.3310 -0.0908
 6597TIP3   OH241349   0.269   4.747   7.376 -0.1544  0.3212 -0.1377
 6597TIP3    H141350   0.307   4.765   7.462  0.0441  0.1298 -0.1850
 6597TIP3    H241351   0.191   4.694   7.395  1.0886 -1.6459 -0.1896
 6598TIP3   OH241352   1.181   0.018   0.828  0.3223 -0.0567  0.0422
 6598TIP3    H141353   1.111   0.001   0.766 -0.2505  0.8997  0.4000
 6598TIP3    H241354   1.136   0.041   0.909  1.0537 -0.1563  0.4889
 6599TIP3   OH241355   3.996   2.314   0.220  0.2761 -0.7087  0.0969
 6599TIP3    H141356   4.081   2.316   0.263 -0.2124  0.6031  1.0623
 6599TIP3    H241357   3.986   2.224   0.190  2.6920 -0.5636 -1.4721
 6600TIP3   OH241358   4.367   4.072   7.375  0.2039  0.2581 -0.0592
 6600TIP3    H141359   4.399   4.117   7.453  2.1402 -0.8385 -0.1564
 6600TIP3    H241360   4.335   4.142   7.318  1.5951  1.3728  0.4815
 6601TIP3   OH241361   4.523   0.341   6.997 -0.1491  0.6210  0.2390
 6601TIP3    H141362   4.616   0.350   7.016 -0.0257  0.0041 -0.0588
 6601TIP3    H241363   4.506   0.405   6.928  0.1249  0.5051  0.0650
 6602TIP3   OH241364   1.772   3.318   2.483 -0.4279  0.4478 -0.2055
 6602TIP3    H141365   1.680   3.333   2.504  0.3880  2.4688  2.3808
 6602TIP3    H241366   1.790   3.376   2.409 -1.1262  0.2362 -0.5560
 6603TIP3   OH241367   0.437   5.297   1.388 -0.2849  0.4058  0.3314
 6603TIP3    H141368   0.382   5.220   1.403  0.5876 -0.3580 -0.2890
 6603TIP3    H241369   0.481   5.311   1.472 -0.0486 -0.1023  0.2978
 6604TIP3   OH241370   4.989   2.343   8.311  1.0348  0.2653  0.4552
 6604TIP3    H141371   5.059   2.282   8.332 -0.7338 -1.7050  0.8734
 6604TIP3    H241372   5.013   2.377   8.224  2.3230 -0.5974  0.4444
 6605TIP3   OH241373   2.905   1.379   7.707 -0.3345  0.2494 -0.2168
 6605TIP3    H141374   2.918   1.390   7.613 -0.1267 -0.1176 -0.2335
 6605TIP3    H241375   2.992   1.395   7.746 -0.2707 -0.2453 -0.1491
 6606TIP3   OH241376   0.140   0.276   2.554 -0.3148 -0.0380  0.2864
 6606TIP3    H141377   0.234   0.276   2.572 -0.0758  1.0077 -0.7717
 6606TIP3    H241378   0.127   0.203   2.493  0.3703  1.5311 -1.8786
 6607TIP3   OH241379   6.785   0.859   1.157  0.1461 -0.2370 -0.5880
 6607TIP3    H141380   6.872   0.899   1.159  0.3597 -0.7043  0.6515
 6607TIP3    H241381   6.736   0.905   1.226 -0.2140 -0.7743 -0.4779
 6608TIP3   OH241382   0.217   1.106   7.249 -0.0063 -0.3244 -0.0391
 6608TIP3    H141383   0.212   1.016   7.215  2.0349 -0.0380 -1.3066
 6608TIP3    H241384   0.160   1.106   7.326 -0.4557 -2.5594 -0.2904
 6609TIP3   OH241385   0.339   4.543   8.323  0.7137 -0.3179  0.2473
 6609TIP3    H141386   0.357   4.505   8.410  1.7823 -1.1870 -0.3295
 6609TIP3    H241387   0.338   4.468   8.264 -0.8295  0.1758 -0.3971
 6610TIP3   OH241388   4.588   5.329   0.840 -0.0629  0.7250  0.7626
 6610TIP3    H141389   4.603   5.342   0.746 -0.7623  2.2006  0.8208
 6610TIP3    H241390   4.570   5.236   0.849  0.6356  0.4495 -0.4750
 6611TIP3   OH241391   5.397   2.275   8.174  0.1750  0.3579 -0.0943
 6611TIP3    H141392   5.426   2.337   8.107  0.0265 -0.1881 -0.6720
 6611TIP3    H241393   5.474   2.221   8.192  0.1774  0.4196  0.0807
 6612TIP3   OH241394   1.592   1.182   0.537 -0.0559  0.0738 -0.0267
 6612TIP3    H141395   1.567   1.248   0.603  0.3568  3.5265 -3.0116
 6612TIP3    H241396   1.679   1.154   0.563 -0.3939  0.3841  1.5447
 6613TIP3   OH241397   2.075   0.777   1.271  0.1230  0.2459 -0.0471
 6613TIP3    H141398   2.079   0.853   1.329 -1.1433  0.3152 -0.0192
 6613TIP3    H241399   2.052   0.705   1.330  0.6402 -0.0315 -0.1825
 6614TIP3   OH241400   3.150   1.252   6.552  0.4561 -0.5044 -0.1180
 6614TIP3    H141401   3.072   1.305   6.536  0.3863 -0.6167 -0.1556
 6614TIP3    H241402   3.160   1.200   6.472  0.2884 -0.8412  0.0755
 6615TIP3   OH241403   6.032   2.911   7.215 -0.1849 -0.4090 -0.1878
 6615TIP3    H141404   6.019   2.984   7.275  2.1074 -1.4720  1.7592
 6615TIP3    H241405   6.087   2.946   7.145 -2.5605  0.7368 -1.6037
 6616TIP3   OH241406   3.634   4.551   1.208 -0.8341 -0.1040 -1.2027
 6616TIP3    H141407   3.639   4.545   1.303 -0.3203  1.7129 -1.0814
 6616TIP3    H241408   3.583   4.630   1.191  2.1479  1.7116 -2.3699
 6617TIP3   OH241409   1.033   6.182   8.545 -0.1314  0.4685 -0.3086
 6617TIP3    H141410   1.080   6.099   8.549  1.0523  1.0307 -1.7240
 6617TIP3    H241411   1.101   6.248   8.531 -1.0048  1.7622  1.2401
 6618TIP3   OH241412   4.724   3.792   0.529  0.5208 -0.1268 -0.3616
 6618TIP3    H141413   4.739   3.886   0.520  0.4934 -0.0528  0.2930
 6618TIP3    H241414   4.646   3.786   0.584  1.3840 -0.5264  0.8746
 6619TIP3   OH241415   3.744   5.457   1.251 -0.0781  0.1108  0.4721
 6619TIP3    H141416   3.698   5.465   1.167  1.0640 -1.0425 -0.2929
 6619TIP3    H241417   3.837   5.465   1.229  0.2092  0.5503  1.7411
 6620TIP3   OH241418   0.799   3.054   2.272 -0.3724  0.2183  0.7042
 6620TIP3    H141419   0.857   2.980   2.289  2.5129  2.3210  0.7917
 6620TIP3    H241420   0.803   3.106   2.352  1.3793  2.6643 -0.8235
 6621TIP3   OH241421   4.280   1.299   0.614 -0.4215  0.5219  0.3061
 6621TIP3    H141422   4.227   1.257   0.681 -0.0885  0.6091  0.6268
 6621TIP3    H241423   4.227   1.372   0.583 -1.4009 -0.6411 -0.9022
 6622TIP3   OH241424   0.717   6.741   8.605 -0.3445  0.4422 -0.1837
 6622TIP3    H141425   0.713   6.806   8.534  0.4408  0.9680  0.2417
 6622TIP3    H241426   0.803   6.755   8.644 -0.3866 -0.5116  0.2496
 6623TIP3   OH241427   2.629   2.732   7.989 -0.2197 -0.0011  0.1322
 6623TIP3    H141428   2.588   2.658   7.943  0.0502 -0.2358  0.2622
 6623TIP3    H241429   2.593   2.727   8.078 -0.4980  0.2604  0.0370
 6624TIP3   OH241430   4.907   1.109   8.121  0.6681  0.5312 -0.1471
 6624TIP3    H141431   4.865   1.146   8.043  0.2946  1.3766  0.4359
 6624TIP3    H241432   4.893   1.015   8.113  0.7122  0.5934 -1.1421
 6625TIP3   OH241433   5.014   1.794   1.637  0.3220  0.2451 -0.2727
 6625TIP3    H141434   4.972   1.870   1.597  1.0031 -0.0070 -1.5081
 6625TIP3    H241435   5.084   1.832   1.691 -0.2616  0.5603  0.2752
 6626TIP3   OH241436   4.061   3.767   2.271  0.5156  0.5325 -0.6441
 6626TIP3    H141437   4.016   3.808   2.198 -0.3490 -1.5079 -1.3394
 6626TIP3    H241438   4.124   3.707   2.230 -1.2893 -2.0882  0.1270
 6627TIP3   OH241439   3.684   3.354   7.569 -0.0973 -0.6500 -0.3103
 6627TIP3    H141440   3.632   3.304   7.632 -0.3591 -1.7710 -1.3797
 6627TIP3    H241441   3.761   3.381   7.618  0.1099 -2.2166  0.3017
 6628TIP3   OH241442   3.618   0.349   1.056  0.1450 -0.4353  0.2150
 6628TIP3    H141443   3.673   0.410   1.006  1.8786 -2.2968 -0.3049
 6628TIP3    H241444   3.636   0.371   1.148  0.4875  0.0422  0.0379
 6629TIP3   OH241445   1.476   0.403   8.501 -0.0325 -0.3457 -0.1984
 6629TIP3    H141446   1.394   0.353   8.495 -1.4233  1.8202 -0.6168
 6629TIP3    H241447   1.530   0.369   8.430 -1.1096 -0.9349 -0.7731
 6630TIP3   OH241448   6.444   5.726   8.215 -0.4194  0.8765 -0.2231
 6630TIP3    H141449   6.399   5.702   8.296 -2.1669 -2.6494 -1.9881
 6630TIP3    H241450   6.536   5.703   8.231 -0.7466  0.1792  0.7702
 6631TIP3   OH241451   1.257   0.567   0.502 -1.0121 -0.2150  0.7113
 6631TIP3    H141452   1.330   0.628   0.501 -0.7529 -0.4763 -1.4248
 6631TIP3    H241453   1.197   0.602   0.568 -0.0060  1.2748  0.8775
 6632TIP3   OH241454   1.795   6.815   1.454  0.3496 -0.6903  0.2837
 6632TIP3    H141455   1.701   6.829   1.458  0.2518 -1.5499  1.2599
 6632TIP3    H241456   1.805   6.723   1.431  0.9643 -0.3756 -0.7894
 6633TIP3   OH241457   0.494   3.563   1.248  0.4998 -0.6679 -0.5545
 6633TIP3    H141458   0.452   3.594   1.328  0.9977 -0.3780 -0.4047
 6633TIP3    H241459   0.439   3.597   1.177 -0.3050 -1.4598 -0.3319
 6634TIP3   OH241460   1.769   0.490   1.022  0.6921  0.1168 -0.3437
 6634TIP3    H141461   1.818   0.572   1.020  0.3947  0.2942 -0.3612
 6634TIP3    H241462   1.830   0.425   0.986  1.5544 -0.0040  1.2092
 6635TIP3   OH241463   1.959   4.605   1.867 -0.6459 -0.1629 -0.0378
 6635TIP3    H141464   1.870   4.583   1.893 -0.6012 -1.3670 -0.8090
 6635TIP3    H241465   1.985   4.534   1.808  0.0352  1.2613 -1.5613
 6636TIP3   OH241466   5.615   0.482   0.621 -0.2404 -0.5479 -0.3959
 6636TIP3    H141467   5.682   0.473   0.553  1.0995 -0.5839  0.8795
 6636TIP3    H241468   5.649   0.550   0.679 -0.0131 -2.3456  1.7063
 6637TIP3   OH241469   1.159   0.745   1.363  0.4291  0.5210  0.4339
 6637TIP3    H141470   1.122   0.664   1.398 -0.6350  0.8520  0.1288
 6637TIP3    H241471   1.253   0.738   1.381  0.2235 -0.3161  1.3222
 6638TIP3   OH241472   0.954   3.159   0.434  0.0552 -0.1644 -0.0289
 6638TIP3    H141473   0.910   3.085   0.393 -0.1795 -0.1529  0.1973
 6638TIP3    H241474   0.987   3.124   0.517  0.2857 -0.1189 -0.1021
 6639TIP3   OH241475   0.950   1.509   7.818 -0.3876 -0.4111 -0.0856
 6639TIP3    H141476   0.886   1.438   7.814 -2.0533  0.8125  2.4293
 6639TIP3    H241477   0.936   1.559   7.738  0.5185 -2.5608 -1.6850
 6640TIP3   OH241478   2.097   5.463   1.437 -0.5075 -0.0757  0.2628
 6640TIP3    H141479   2.081   5.407   1.512  0.7562  0.8933  1.2973
 6640TIP3    H241480   2.179   5.431   1.400  0.7709  1.6301  1.4625
 6641TIP3   OH241481   3.104   3.498   7.450 -0.0602 -0.3939 -0.1701
 6641TIP3    H141482   3.103   3.413   7.406 -0.4111 -0.7930  0.5866
 6641TIP3    H241483   3.028   3.496   7.508  0.0847  0.3279  0.0577
 6642TIP3   OH241484   1.338   0.412   2.548  0.0605 -1.0792 -0.2457
 6642TIP3    H141485   1.390   0.400   2.627 -0.9304  0.5430  0.6990
 6642TIP3    H241486   1.360   0.337   2.493 -0.4258 -3.1118  2.2083
 6643TIP3   OH241487   4.183   1.091   6.773  0.0208 -0.2475  0.0353
 6643TIP3    H141488   4.199   1.128   6.686  1.1396  0.2924  0.4512
 6643TIP3    H241489   4.191   0.997   6.761  0.7604 -0.1428 -0.3440
 6644TIP3   OH241490   0.147   1.828   2.232  0.1066 -0.1879  0.0546
 6644TIP3    H141491   0.056   1.827   2.201 -0.0790  0.7984  0.5304
 6644TIP3    H241492   0.199   1.832   2.151  0.0141 -5.2593 -0.5826
 6645TIP3   OH241493   4.771   1.988   7.804  0.5029 -0.1786  0.2805
 6645TIP3    H141494   4.753   2.080   7.823 -1.9359 -0.9662  2.4826
 6645TIP3    H241495   4.719   1.969   7.726  1.7075  0.4558 -0.7137
 6646TIP3   OH241496   3.673   1.780   0.431 -0.2344  0.7527 -0.4892
 6646TIP3    H141497   3.700   1.691   0.410  0.1513  0.6587  0.3883
 6646TIP3    H241498   3.604   1.799   0.367  0.1694  0.0886 -1.1354
 6647TIP3   OH241499   5.167   5.769   1.364  0.0839  0.0622 -0.0693
 6647TIP3    H141500   5.262   5.778   1.365  0.1996 -0.6494 -1.6607
 6647TIP3    H241501   5.134   5.859   1.373  0.9154  0.3796 -0.1129
 6648TIP3   OH241502   5.777   0.199   0.439  0.6650  0.5022  0.3854
 6648TIP3    H141503   5.695   0.150   0.428  0.5083  0.8686 -0.1613
 6648TIP3    H241504   5.762   0.281   0.391  1.8002  0.0512 -0.8152
 6649TIP3   OH241505   5.637   6.417   8.037 -0.0535 -0.0038  0.3436
 6649TIP3    H141506   5.564   6.355   8.035 -1.4059  1.5201 -1.4315
 6649TIP3    H241507   5.711   6.368   8.002 -0.8910 -0.8228 -0.3272
 6650TIP3   OH241508   3.179   5.497   0.305  0.4144  0.5878 -0.3783
 6650TIP3    H141509   3.225   5.415   0.284 -1.4092 -0.3147 -1.1389
 6650TIP3    H241510   3.223   5.563   0.252  1.3323 -0.0806 -0.4796
 6651TIP3   OH241511   5.456   0.884   7.145 -0.1271 -0.2531 -0.0252
 6651TIP3    H141512   5.483   0.943   7.076 -0.1483 -0.4933 -0.2405
 6651TIP3    H241513   5.390   0.827   7.104 -0.7460  0.1324  0.4054
 6652TIP3   OH241514   6.625   3.357   8.256 -0.1610 -0.1363  0.3182
 6652TIP3    H141515   6.571   3.328   8.183  1.1538 -0.9021 -0.3756
 6652TIP3    H241516   6.657   3.276   8.296  0.2567  0.2993  0.8856
 6653TIP3   OH241517   4.843   4.787   0.375  0.2753 -0.5632  0.0220
 6653TIP3    H141518   4.888   4.705   0.354 -1.9884 -2.2656  1.4370
 6653TIP3    H241519   4.835   4.787   0.470 -0.0545  1.1819  0.0310
 6654TIP3   OH241520   4.711   2.832   2.359  0.1162 -0.3587  0.6058
 6654TIP3    H141521   4.728   2.913   2.407  0.5218  1.4769 -2.3537
 6654TIP3    H241522   4.798   2.796   2.342  0.3205  1.0636 -1.8354
 6655TIP3   OH241523   2.417   6.358   0.605  0.1323  0.1879  0.1603
 6655TIP3    H141524   2.437   6.287   0.544 -3.3943  0.6822 -1.8707
 6655TIP3    H241525   2.414   6.437   0.550  0.2065  1.2563  1.6363
 6656TIP3   OH241526   3.834   2.694   7.522  0.7009  0.0406 -0.2450
 6656TIP3    H141527   3.783   2.625   7.564  1.4266 -0.2495  0.1997
 6656TIP3    H241528   3.911   2.648   7.487  0.5200  0.4207 -1.1430
 6657TIP3   OH241529   1.958   3.128   2.566 -0.1121 -0.5800 -0.0141
 6657TIP3    H141530   2.019   3.172   2.507  0.3528 -0.1623  0.7716
 6657TIP3    H241531   1.885   3.188   2.574 -0.0315 -0.4976  0.0940
 6658TIP3   OH241532   5.773   2.285   6.844  0.2692 -0.1613 -0.6465
 6658TIP3    H141533   5.746   2.337   6.769  1.7382 -0.0918 -1.1558
 6658TIP3    H241534   5.834   2.341   6.892  1.5728 -1.2234 -0.9969
 6659TIP3   OH241535   5.902   5.559   2.542 -0.9501 -0.1024  0.1092
 6659TIP3    H141536   5.972   5.622   2.528  0.2211 -1.3872 -0.0694
 6659TIP3    H241537   5.903   5.541   2.636 -0.5576 -0.6229  0.0145
 6660TIP3   OH241538   2.460   1.042   6.763 -0.4882  0.0460  0.3241
 6660TIP3    H141539   2.380   0.989   6.769  1.5661 -3.5666 -1.1743
 6660TIP3    H241540   2.457   1.080   6.675 -1.5578  1.9510  1.1070
 6661TIP3   OH241541   6.371   5.124   1.176 -0.2630 -0.1505  0.2254
 6661TIP3    H141542   6.323   5.205   1.193  0.7258  0.2390  1.2916
 6661TIP3    H241543   6.305   5.055   1.177 -1.0293  0.5726 -0.0921
 6662TIP3   OH241544   3.565   1.813   2.058  0.0686  0.2590 -0.1559
 6662TIP3    H141545   3.655   1.806   2.091  0.2496 -1.9240 -0.9267
 6662TIP3    H241546   3.519   1.740   2.101 -0.7794  0.0754 -1.3404
 6663TIP3   OH241547   6.319   1.508   2.327 -0.1789  0.0056 -1.0029
 6663TIP3    H141548   6.320   1.560   2.407  0.3984  1.2828 -1.8125
 6663TIP3    H241549   6.292   1.570   2.258  1.8183 -0.3898 -2.2136
 6664TIP3   OH241550   0.789   3.583   1.509  0.0699  0.3469 -0.1439
 6664TIP3    H141551   0.761   3.627   1.589 -0.2637 -0.7874  0.3798
 6664TIP3    H241552   0.711   3.537   1.478  0.7110 -0.8926  0.0188
 6665TIP3   OH241553   1.249   2.685   0.406  0.2140  0.1009 -0.3416
 6665TIP3    H141554   1.219   2.729   0.327  0.2231  1.0001  0.1377
 6665TIP3    H241555   1.298   2.752   0.453  0.2531 -0.4347  0.3993
 6666TIP3   OH241556   4.521   0.753   0.362 -0.1111  0.0878 -0.1174
 6666TIP3    H141557   4.579   0.685   0.395 -0.6504  0.1163  0.9269
 6666TIP3    H241558   4.448   0.755   0.424  0.6128  2.6727  0.8286
 6667TIP3   OH241559   1.481   3.247   1.602  0.0756  0.0031  0.0870
 6667TIP3    H141560   1.472   3.166   1.654  0.9503  0.8428  1.6358
 6667TIP3    H241561   1.391   3.278   1.591 -0.1159  0.2090  1.8513
 6668TIP3   OH241562   5.605   2.825   0.581  0.3532 -0.2653 -0.3101
 6668TIP3    H141563   5.535   2.767   0.550  0.0225 -0.3470  0.5719
 6668TIP3    H241564   5.598   2.903   0.526 -0.1915 -0.4212 -0.4637
 6669TIP3   OH241565   1.452   2.517   0.450 -0.1995 -0.3873  0.4713
 6669TIP3    H141566   1.385   2.559   0.397  1.3352  1.7400  0.0875
 6669TIP3    H241567   1.512   2.478   0.387  0.3175  0.0156  0.7020
 6670TIP3   OH241568   3.644   6.012   2.284 -0.4185 -0.2801 -0.0005
 6670TIP3    H141569   3.683   6.058   2.358 -0.2670  0.6845 -0.6646
 6670TIP3    H241570   3.575   5.957   2.323  1.5164 -2.0095  1.1979
 6671TIP3   OH241571   6.090   6.114   7.277 -0.0241  0.3534 -0.4100
 6671TIP3    H141572   6.072   6.087   7.187  0.1160  1.1825 -0.6999
 6671TIP3    H241573   6.172   6.164   7.271 -0.9313  1.9256 -0.1101
 6672TIP3   OH241574   2.733   1.939   7.651 -0.3031  0.3877 -0.2274
 6672TIP3    H141575   2.772   1.854   7.630 -1.5922 -0.6164  1.1942
 6672TIP3    H241576   2.670   1.955   7.580 -0.3539 -0.0451 -0.2824
 6673TIP3   OH241577   0.690   4.761   7.808  0.5405 -0.0842  0.0383
 6673TIP3    H141578   0.732   4.688   7.854  0.3077  0.0735  0.5080
 6673TIP3    H241579   0.730   4.839   7.846  0.4382  0.0470 -0.1202
 6674TIP3   OH241580   2.137   5.600   7.662  0.2007 -0.0600 -0.3679
 6674TIP3    H141581   2.132   5.695   7.675  3.2046  0.2611 -0.7546
 6674TIP3    H241582   2.161   5.565   7.747  1.2461 -0.1699 -0.6873
 6675TIP3   OH241583   0.285   2.307   6.350  0.1812  0.2164  0.7870
 6675TIP3    H141584   0.287   2.230   6.294 -2.3915  0.0403  0.8022
 6675TIP3    H241585   0.314   2.276   6.436  0.4499 -0.4073  0.4729
 6676TIP3   OH241586   1.789   0.339   1.273 -0.1368 -0.4818  0.3448
 6676TIP3    H141587   1.795   0.391   1.192  0.9476  0.6488  1.1205
 6676TIP3    H241588   1.695   0.325   1.284 -0.4835  1.2781  0.0492
 6677TIP3   OH241589   6.372   4.489   2.074  0.0015  0.2021 -0.0144
 6677TIP3    H141590   6.328   4.403   2.075  0.7624 -0.1992 -0.2084
 6677TIP3    H241591   6.339   4.532   1.995 -0.9535  0.4027  0.4750
 6678TIP3   OH241592   1.571   0.544   0.236  0.1313  0.0508  0.1001
 6678TIP3    H141593   1.612   0.503   0.160  0.8741 -0.8006  0.9385
 6678TIP3    H241594   1.640   0.545   0.303 -0.5139  0.7612  0.7766
 6679TIP3   OH241595   3.340   0.097   2.050  0.1237 -0.0815 -0.3266
 6679TIP3    H141596   3.362   0.048   2.129  1.5962  0.7531 -0.1886
 6679TIP3    H241597   3.272   0.044   2.007 -0.3948 -0.7614  1.2522
 6680TIP3   OH241598   1.443   4.989   1.471  0.6281 -0.3134  0.3227
 6680TIP3    H141599   1.528   4.947   1.456  2.3039  2.4135  1.3493
 6680TIP3    H241600   1.435   4.993   1.567 -1.7145 -2.2731  0.3244
 6681TIP3   OH241601   3.068   6.253   7.612  0.0470  0.1368 -0.3410
 6681TIP3    H141602   3.132   6.182   7.608  2.4377  1.8662  2.4811
 6681TIP3    H241603   3.104   6.321   7.555 -1.4577 -0.2960 -1.8745
 6682TIP3   OH241604   6.453   5.096   7.902  0.4459  0.3673  0.0403
 6682TIP3    H141605   6.497   5.106   7.986  2.3801 -0.0387 -0.8575
 6682TIP3    H241606   6.456   5.183   7.862  1.0124  0.2075 -0.2763
 6683TIP3   OH241607   0.177   0.999   7.628  0.0395 -0.3332 -0.1866
 6683TIP3    H141608   0.143   1.073   7.577  0.0079 -2.7131 -3.9825
 6683TIP3    H241609   0.133   1.007   7.713 -0.3541  3.5923 -0.5433
 6684TIP3   OH241610   5.562   3.305   0.490  0.1721 -0.2312  0.0422
 6684TIP3    H141611   5.493   3.353   0.535 -0.8167 -0.7789 -0.8581
 6684TIP3    H241612   5.620   3.374   0.455  0.9662  0.2071  2.0743
 6685TIP3   OH241613   2.198   4.070   0.639 -0.3065 -0.1141  0.1141
 6685TIP3    H141614   2.215   4.080   0.545 -3.7542  0.3957 -0.6018
 6685TIP3    H241615   2.176   4.158   0.669  2.9590  0.1808  2.0655
 6686TIP3   OH241616   4.883   1.553   8.445 -0.1412  0.3602 -0.3192
 6686TIP3    H141617   4.863   1.645   8.429  0.1408  0.5160  0.2187
 6686TIP3    H241618   4.802   1.507   8.426 -1.1385  1.0053  2.0795
 6687TIP3   OH241619   0.131   2.906   0.533 -0.1062  0.3415  0.0562
 6687TIP3    H141620   0.206   2.918   0.591 -0.8831  2.1449  0.7508
 6687TIP3    H241621   0.054   2.908   0.590 -0.8075  0.6186 -0.8553
 6688TIP3   OH241622   2.314   5.198   7.457  0.0156 -0.0667  0.2293
 6688TIP3    H141623   2.240   5.259   7.450 -0.4740 -0.6348  0.4243
 6688TIP3    H241624   2.301   5.154   7.541  1.8075  1.4065  1.3561
 6689TIP3   OH241625   0.563   0.227   0.225 -0.1748 -0.0289  0.1313
 6689TIP3    H141626   0.591   0.237   0.316  1.5557 -2.0246 -0.1037
 6689TIP3    H241627   0.638   0.188   0.181 -1.4766 -0.4641 -1.8355
 6690TIP3   OH241628   5.457   6.628   1.859 -0.3918 -0.1551  0.7470
 6690TIP3    H141629   5.537   6.607   1.810  0.1721  2.2356  0.4659
 6690TIP3    H241630   5.479   6.607   1.950  1.5303  2.5437  1.0422
 6691TIP3   OH241631   5.915   5.343   1.996 -0.2342 -0.1548  0.1973
 6691TIP3    H141632   5.869   5.299   2.067 -1.5187  0.3425 -0.2883
 6691TIP3    H241633   5.952   5.422   2.037 -2.6974  1.2148 -0.0324
 6692TIP3   OH241634   2.538   3.893   8.602 -0.1959 -0.1867  0.2972
 6692TIP3    H141635   2.466   3.830   8.603  0.4445 -0.9439  1.4832
 6692TIP3    H241636   2.612   3.845   8.566 -0.1890  0.4904 -0.6181
 6693TIP3   OH241637   4.354   4.527   1.065  0.2882 -0.2565 -0.5146
 6693TIP3    H141638   4.446   4.550   1.061  0.1749  0.4254  0.5115
 6693TIP3    H241639   4.329   4.511   0.974  1.0812  0.8631 -0.9399
 6694TIP3   OH241640   3.841   4.615   0.994 -0.0473 -0.3470  0.3210
 6694TIP3    H141641   3.798   4.551   1.051 -0.5911 -1.0839 -0.8751
 6694TIP3    H241642   3.773   4.679   0.975 -0.6592 -1.4737 -1.5145
 6695TIP3   OH241643   1.908   3.859   2.414  0.0042  0.0827 -0.6127
 6695TIP3    H141644   1.989   3.910   2.414  0.9152 -1.2933 -0.4989
 6695TIP3    H241645   1.929   3.781   2.362 -0.2873 -1.6802  1.7374
 6696TIP3   OH241646   6.696   1.075   8.107 -0.2958  0.3926  0.0884
 6696TIP3    H141647   6.633   1.019   8.061 -0.0756 -0.3168  0.6295
 6696TIP3    H241648   6.652   1.097   8.190  0.1328 -0.0691  0.4490
 6697TIP3   OH241649   2.042   1.511   2.162 -0.3297 -0.0942  0.1667
 6697TIP3    H141650   2.120   1.455   2.163  0.3622  0.6973 -2.0155
 6697TIP3    H241651   2.032   1.540   2.252  1.2052 -1.1591  0.7218
 6698TIP3   OH241652   5.683   4.718   7.255  0.3284  0.0688 -0.0649
 6698TIP3    H141653   5.649   4.765   7.331  1.0724 -0.0586  0.3576
 6698TIP3    H241654   5.666   4.777   7.182  0.1182  0.4487  0.2822
 6699TIP3   OH241655   3.421   1.046   7.130  0.1284  0.0156  0.1395
 6699TIP3    H141656   3.463   1.042   7.216 -0.9139  1.1212  0.7254
 6699TIP3    H241657   3.426   1.139   7.106 -0.0856 -0.1954 -0.7501
 6700TIP3   OH241658   6.152   0.626   0.594 -0.0969  0.2101 -0.1069
 6700TIP3    H141659   6.170   0.547   0.645  0.7084 -0.1279 -0.8881
 6700TIP3    H241660   6.237   0.669   0.585 -0.5023  1.1034  0.1968
 6701TIP3   OH241661   2.472   4.466   8.646  0.5804  0.1715 -0.2329
 6701TIP3    H141662   2.459   4.402   8.576 -0.4843  1.9056 -1.6873
 6701TIP3    H241663   2.555   4.440   8.686 -0.0788 -2.4353 -0.3669
 6702TIP3   OH241664   4.310   5.087   8.286 -0.6069  0.1551 -0.3682
 6702TIP3    H141665   4.393   5.132   8.306 -1.0970  1.9966 -2.1382
 6702TIP3    H241666   4.327   4.996   8.308  1.7359  0.5686 -0.1488
 6703TIP3   OH241667   1.192   5.774   7.577 -0.3766  0.1068 -0.0345
 6703TIP3    H141668   1.124   5.733   7.630 -0.0753 -0.3072  0.0370
 6703TIP3    H241669   1.200   5.716   7.501 -1.6138  1.2925 -1.1293
 6704TIP3   OH241670   2.399   0.738   2.310  0.1340  0.1097  0.3176
 6704TIP3    H141671   2.332   0.709   2.371  1.1658 -0.8598  1.0424
 6704TIP3    H241672   2.384   0.687   2.231 -0.3244  0.3067  0.2783
 6705TIP3   OH241673   4.261   2.482   1.788 -0.5200  0.2155 -0.7373
 6705TIP3    H141674   4.348   2.516   1.812 -0.0969 -1.8878  0.9807
 6705TIP3    H241675   4.254   2.500   1.694  1.1040  1.8184 -0.6152
 6706TIP3   OH241676   2.763   6.251   8.479  0.2017  0.1779 -0.1430
 6706TIP3    H141677   2.839   6.269   8.423 -0.5680  0.3643 -1.1564
 6706TIP3    H241678   2.695   6.221   8.418 -0.8206  0.8698  0.6267
 6707TIP3   OH241679   6.728   2.844   8.554  0.1282 -0.3451 -0.2724
 6707TIP3    H141680   6.773   2.760   8.566 -0.8048 -1.1497 -1.8951
 6707TIP3    H241681   6.737   2.862   8.460  0.2238  1.3336  0.0390
 6708TIP3   OH241682   3.585   0.202   0.345 -0.4569 -0.0637  0.6397
 6708TIP3    H141683   3.636   0.216   0.266 -0.3603 -1.5095  0.4048
 6708TIP3    H241684   3.495   0.193   0.315 -0.2417 -2.1659  0.4420
 6709TIP3   OH241685   1.820   3.551   2.300 -0.8309 -0.5859  0.2337
 6709TIP3    H141686   1.878   3.598   2.241  1.1760 -1.9002  1.0352
 6709TIP3    H241687   1.732   3.579   2.275  0.0594  0.5871 -1.8409
 6710TIP3   OH241688   1.005   0.074   8.487  0.3652  0.2660  0.0389
 6710TIP3    H141689   1.036   0.052   8.399 -0.3311  0.3440 -0.2311
 6710TIP3    H241690   1.009  -0.009   8.535 -0.7679 -0.1435 -0.5315
 6711TIP3   OH241691   1.306   2.346   8.022  0.1692  0.2771  0.0379
 6711TIP3    H141692   1.333   2.370   7.933 -0.2614 -0.9237 -0.4414
 6711TIP3    H241693   1.298   2.429   8.068 -3.8687  1.4323 -2.2435
 6712TIP3   OH241694   0.335   1.351   7.265 -0.4620 -0.3691  0.3193
 6712TIP3    H141695   0.299   1.271   7.227  0.3126 -0.6519  0.1545
 6712TIP3    H241696   0.419   1.363   7.220 -1.7998  2.1492 -1.8247
 6713TIP3   OH241697   2.187   5.637   7.931  0.1275  0.0600  0.9959
 6713TIP3    H141698   2.114   5.576   7.925 -1.2350  1.5761  1.5361
 6713TIP3    H241699   2.148   5.723   7.918  1.9121  0.8859  0.7398
 6714TIP3   OH241700   1.064   6.209   0.851 -0.6264  0.5333 -0.9187
 6714TIP3    H141701   1.076   6.173   0.939 -0.3056 -1.0273 -1.5630
 6714TIP3    H241702   1.122   6.285   0.848  0.0129  0.0959 -0.0575
 6715TIP3   OH241703   0.750   1.777   0.087  0.0074 -0.1988 -0.2533
 6715TIP3    H141704   0.677   1.821   0.043  0.1440 -0.6259 -0.9288
 6715TIP3    H241705   0.751   1.813   0.175 -2.0244 -1.3048  0.2953
 6716TIP3   OH241706   6.501   4.046   8.147  0.4183 -0.0636 -0.5031
 6716TIP3    H141707   6.592   4.017   8.152  0.5348  0.4116  0.1688
 6716TIP3    H241708   6.504   4.140   8.165 -0.2159 -0.0554 -0.4029
 6717TIP3   OH241709   2.730   1.430   1.581  0.4064 -0.2822 -0.1109
 6717TIP3    H141710   2.679   1.350   1.567  0.7437 -0.4486 -0.4062
 6717TIP3    H241711   2.817   1.399   1.605  1.3138 -0.0853 -2.7691
 6718TIP3   OH241712   4.650   2.869   8.361 -0.0079 -0.0054  0.1652
 6718TIP3    H141713   4.668   2.783   8.399 -3.3464 -0.6112  0.7606
 6718TIP3    H241714   4.731   2.918   8.371  2.1601 -3.1668 -0.5929
 6719TIP3   OH241715   4.582   4.150   0.577  0.5253  0.2816  0.3157
 6719TIP3    H141716   4.553   4.240   0.590  1.6830  0.3752  2.9564
 6719TIP3    H241717   4.506   4.104   0.541 -0.1998  2.2047 -0.7089
 6720TIP3   OH241718   5.202   0.475   1.597 -0.2315  0.4929  0.4266
 6720TIP3    H141719   5.181   0.568   1.596  0.3849  0.6380  0.0394
 6720TIP3    H241720   5.225   0.454   1.506  0.5073  0.1843  0.6693
 6721TIP3   OH241721   6.187   3.150   1.622 -0.2766 -0.2972 -0.0391
 6721TIP3    H141722   6.261   3.162   1.681 -0.6659  0.4695  0.3038
 6721TIP3    H241723   6.110   3.154   1.678 -0.5827 -1.2803 -0.3672
 6722TIP3   OH241724   1.545   2.259   1.067 -0.3043  0.2044 -0.1163
 6722TIP3    H141725   1.560   2.262   1.162  0.8765 -0.7971 -0.2312
 6722TIP3    H241726   1.538   2.350   1.041 -0.0945  0.5197  0.8675
 6723TIP3   OH241727   3.333   0.195   1.138 -0.0084 -0.2782  0.1676
 6723TIP3    H141728   3.413   0.236   1.108  1.5048 -2.5561  0.8336
 6723TIP3    H241729   3.300   0.147   1.061  0.9662 -1.7869  0.6507
 6724TIP3   OH241730   4.721   6.758   1.044 -0.7024  0.6071 -0.0473
 6724TIP3    H141731   4.734   6.702   1.121  1.1552  1.3281  0.2160
 6724TIP3    H241732   4.804   6.753   0.997 -1.1774  1.6265 -1.0253
 6725TIP3   OH241733   0.149   5.396   8.217  0.7527  0.3537 -0.0252
 6725TIP3    H141734   0.235   5.424   8.185  0.2044  3.4099  0.7869
 6725TIP3    H241735   0.092   5.471   8.200 -2.0051 -1.8494 -1.2314
 6726TIP3   OH241736   1.666   1.521   7.045  0.1684  0.5643  0.4837
 6726TIP3    H141737   1.665   1.563   7.132 -1.1188 -0.4230  0.9871
 6726TIP3    H241738   1.675   1.594   6.984  1.8785  1.2307  1.4477
 6727TIP3   OH241739   0.309   1.491   6.397  0.3261  0.3007  0.1828
 6727TIP3    H141740   0.355   1.501   6.480 -0.9202 -0.6766  1.0268
 6727TIP3    H241741   0.362   1.428   6.348  0.7962  0.4886  0.4474
 6728TIP3   OH241742   0.395   5.765   7.518 -0.0631 -0.1866  0.3239
 6728TIP3    H141743   0.320   5.735   7.570  0.5264 -1.0080  0.7130
 6728TIP3    H241744   0.379   5.859   7.505 -1.5319 -0.4834 -0.2311
 6729TIP3   OH241745   2.424   5.742   1.347  0.1094  0.3015 -0.3009
 6729TIP3    H141746   2.471   5.700   1.275 -0.2405  1.6280 -1.3282
 6729TIP3    H241747   2.474   5.822   1.365 -1.2219  1.2929 -0.8283
 6730TIP3   OH241748   2.379   3.627   1.212 -0.7538  0.9781  0.7567
 6730TIP3    H141749   2.337   3.713   1.212 -2.3133  0.2602  2.0060
 6730TIP3    H241750   2.441   3.630   1.285 -0.4191  1.2104  0.4654
 6731TIP3   OH241751   5.843   3.843   1.910  0.5593 -0.1809  0.0694
 6731TIP3    H141752   5.920   3.864   1.857  1.0582 -2.0914 -0.0730
 6731TIP3    H241753   5.880   3.804   1.990 -0.2343  0.2615  0.6528
 6732TIP3   OH241754   4.377   1.994   8.482 -0.2582  0.1157 -0.3118
 6732TIP3    H141755   4.357   2.007   8.574  0.8150  0.9264 -0.1738
 6732TIP3    H241756   4.294   2.009   8.436 -0.2069  2.5718  0.2806
 6733TIP3   OH241757   6.554   4.243   6.574  0.3347  0.4510 -0.5853
 6733TIP3    H141758   6.468   4.286   6.567 -0.4711 -0.5049  2.2491
 6733TIP3    H241759   6.543   4.161   6.526 -0.5439  0.0564  0.2744
 6734TIP3   OH241760   2.225   2.643   0.540  0.0699  0.5363  0.2329
 6734TIP3    H141761   2.166   2.625   0.614  2.2809  0.3099  2.0369
 6734TIP3    H241762   2.306   2.673   0.581  1.2525  0.7748 -2.1516
 6735TIP3   OH241763   5.099   5.886   8.536 -0.1381 -1.1250  0.2804
 6735TIP3    H141764   5.029   5.878   8.471  0.0920  0.8859 -0.2993
 6735TIP3    H241765   5.053   5.897   8.619 -0.4937 -0.9653  0.0664
 6736TIP3   OH241766   5.766   1.269   2.824  0.0714  0.2072 -0.3440
 6736TIP3    H141767   5.750   1.264   2.729  0.0471 -1.2850 -0.2785
 6736TIP3    H241768   5.692   1.223   2.863  1.7427 -2.1930  0.2120
 6737TIP3   OH241769   1.011   1.470   1.304 -0.9323 -0.2126 -0.8133
 6737TIP3    H141770   1.060   1.509   1.377  1.1429 -1.8842 -1.2190
 6737TIP3    H241771   0.995   1.544   1.245  1.5724  0.3890 -0.8787
 6738TIP3   OH241772   4.575   2.981   6.748 -0.1546 -0.0997  0.0195
 6738TIP3    H141773   4.520   3.040   6.697 -1.6013 -0.9059  0.5992
 6738TIP3    H241774   4.650   2.963   6.691 -1.3942 -0.4647 -1.5717
 6739TIP3   OH241775   6.358   5.349   1.634  0.1223  0.1220 -0.0803
 6739TIP3    H141776   6.355   5.255   1.653  0.1330  0.1662  0.1415
 6739TIP3    H241777   6.411   5.386   1.705 -1.2350  0.5237  0.7623
 6740TIP3   OH241778   1.897   0.875   8.106 -0.1261  0.1707  0.0834
 6740TIP3    H141779   1.981   0.855   8.065 -0.8929  0.6769 -1.9049
 6740TIP3    H241780   1.841   0.800   8.083 -0.8496  0.9262 -0.7334
 6741TIP3   OH241781   2.093   2.363   2.258  0.5138 -0.6212  0.1225
 6741TIP3    H141782   2.117   2.290   2.316  1.8649  0.9862  1.6961
 6741TIP3    H241783   2.006   2.388   2.286  0.9707 -0.1624  1.1762
 6742TIP3   OH241784   2.496   3.549   2.005 -0.0521 -0.0997  0.0529
 6742TIP3    H141785   2.446   3.553   2.086 -0.7507  1.4024 -0.4171
 6742TIP3    H241786   2.566   3.614   2.017 -0.5816  0.6484 -0.7913
 6743TIP3   OH241787   0.198   6.487   1.071  0.1369 -1.0488 -0.2646
 6743TIP3    H141788   0.244   6.556   1.022 -0.2499 -1.0093 -0.5790
 6743TIP3    H241789   0.154   6.532   1.142 -0.1413 -0.9697 -0.4888
 6744TIP3   OH241790   4.928   3.012   0.618 -0.0359 -0.3812  0.5714
 6744TIP3    H141791   4.936   2.950   0.546 -1.4206 -1.2578  1.1405
 6744TIP3    H241792   4.884   3.088   0.580 -0.0703 -0.5250  0.3228
 6745TIP3   OH241793   0.643   2.262   8.218  0.7052  0.0860  0.3456
 6745TIP3    H141794   0.711   2.215   8.170  0.1717  0.2864 -0.6255
 6745TIP3    H241795   0.562   2.214   8.197  0.5280 -0.1168  1.4402
 6746TIP3   OH241796   1.966   1.576   7.186  0.1285  0.2342  1.2118
 6746TIP3    H141797   2.036   1.542   7.241  0.3260  0.8214  1.3348
 6746TIP3    H241798   1.963   1.518   7.110 -0.4249 -0.8358  2.0311
 6747TIP3   OH241799   0.152   3.086   6.822 -0.1642 -0.1888  0.3668
 6747TIP3    H141800   0.205   3.050   6.751 -1.9211  0.2189 -1.2263
 6747TIP3    H241801   0.183   3.176   6.833 -0.1755 -0.1115 -0.2112
 6748TIP3   OH241802   1.911   3.752   0.303  0.2517 -0.3437  0.2564
 6748TIP3    H141803   1.954   3.837   0.294 -0.0532 -0.2619 -0.6130
 6748TIP3    H241804   1.825   3.765   0.263  0.5890 -1.3309 -0.8480
 6749TIP3   OH241805   5.608   0.775   1.303 -0.0487 -0.4163 -0.2518
 6749TIP3    H141806   5.698   0.804   1.318 -0.4899  0.5424  0.6573
 6749TIP3    H241807   5.595   0.703   1.365  0.4220 -1.3126 -1.1561
 6750TIP3   OH241808   2.496   4.927   1.598  0.1381  0.1540 -0.1075
 6750TIP3    H141809   2.497   4.978   1.517  0.7967  0.4714  0.0882
 6750TIP3    H241810   2.449   4.981   1.661 -1.3716 -0.5735 -0.5554
 6751TIP3   OH241811   3.455   0.874   1.741 -0.5639 -0.5087 -0.1877
 6751TIP3    H141812   3.362   0.891   1.723 -0.4768  0.9412  0.5999
 6751TIP3    H241813   3.453   0.800   1.803 -1.1409 -0.9590 -0.7198
 6752TIP3   OH241814   6.421   5.363   0.871 -0.0868  0.2025  0.3995
 6752TIP3    H141815   6.426   5.271   0.894  0.5641  0.2640  0.5081
 6752TIP3    H241816   6.440   5.409   0.953 -1.1378  0.4497  0.5294
 6753TIP3   OH241817   2.233   0.075   8.031  0.2395  0.6214 -0.6732
 6753TIP3    H141818   2.195   0.143   7.976  0.0468  0.0180 -1.2968
 6753TIP3    H241819   2.217  -0.006   7.984  1.3711  0.2394 -0.4347
 6754TIP3   OH241820   4.233   6.370   8.537  0.4902 -0.2392 -0.1409
 6754TIP3    H141821   4.296   6.306   8.569 -1.4939 -1.9620  0.5905
 6754TIP3    H241822   4.222   6.348   8.444  2.5385  1.5241 -0.8746
 6755TIP3   OH241823   4.670   1.652   7.584 -0.3374 -0.0109  0.0066
 6755TIP3    H141824   4.594   1.601   7.614 -0.0454 -2.0270 -2.3417
 6755TIP3    H241825   4.639   1.694   7.504  0.5191  0.6478  0.0160
 6756TIP3   OH241826   4.499   0.636   8.106 -0.2164  0.2583  0.5108
 6756TIP3    H141827   4.477   0.712   8.161 -1.7173  1.1678 -1.2261
 6756TIP3    H241828   4.433   0.637   8.037  1.6034 -0.7802 -1.3530
 6757TIP3   OH241829   2.726   4.488   7.036 -0.6863  0.0848 -0.0989
 6757TIP3    H141830   2.718   4.476   6.941 -1.6491  1.7997 -0.2732
 6757TIP3    H241831   2.811   4.530   7.047 -1.6643  2.3525 -0.5356
 6758TIP3   OH241832   4.130   5.413   1.381 -0.2833 -0.2699  0.1177
 6758TIP3    H141833   4.096   5.500   1.362  0.4007  0.0130  0.1343
 6758TIP3    H241834   4.173   5.421   1.466 -0.7529 -0.7855  0.4121
 6759TIP3   OH241835   0.510   6.612   1.559  0.4606 -0.1868  0.3477
 6759TIP3    H141836   0.512   6.673   1.633 -1.6508 -1.1121  1.2483
 6759TIP3    H241837   0.423   6.624   1.521  0.7089 -1.3028 -0.6284
 6760TIP3   OH241838   1.827   4.332   0.378  0.1554  0.2101  0.4637
 6760TIP3    H141839   1.895   4.319   0.444  1.2214  1.4864 -0.3406
 6760TIP3    H241840   1.831   4.254   0.324  0.7389  0.1072  0.6440
 6761TIP3   OH241841   0.795   3.626   7.863  0.4519 -0.3660 -0.2526
 6761TIP3    H141842   0.788   3.663   7.951 -0.1235 -1.6512  0.2642
 6761TIP3    H241843   0.886   3.597   7.856 -0.0752 -2.4796  0.8768
 6762TIP3   OH241844   2.629   0.407   7.832  0.5410 -0.2490  0.5391
 6762TIP3    H141845   2.547   0.357   7.831 -0.1109  0.7823  0.5179
 6762TIP3    H241846   2.641   0.436   7.742  1.2282 -0.8448  0.4298
 6763TIP3   OH241847   6.841   0.324   0.573  0.3163  0.2903  0.9323
 6763TIP3    H141848   6.900   0.392   0.540 -0.8279  0.5472 -0.6610
 6763TIP3    H241849   6.843   0.256   0.506  1.1358 -1.1242  2.3141
 6764TIP3   OH241850   3.124   0.241   3.039 -0.3700 -0.4963 -0.0019
 6764TIP3    H141851   3.207   0.201   3.014  0.6215 -0.1095  2.4531
 6764TIP3    H241852   3.108   0.307   2.971  2.7034  1.2607  0.8218
 6765TIP3   OH241853   3.441   4.970   2.043  0.1391 -0.0837 -0.0447
 6765TIP3    H141854   3.462   4.985   1.951 -2.5716 -1.5687 -0.9914
 6765TIP3    H241855   3.347   4.952   2.045 -0.2089  1.3005  3.2205
 6766TIP3   OH241856   4.646   6.010   7.618 -0.1289 -0.3912 -0.0642
 6766TIP3    H141857   4.596   6.031   7.539 -1.3296  0.9175  0.9953
 6766TIP3    H241858   4.695   6.089   7.638 -0.2403 -0.5219  0.7875
 6767TIP3   OH241859   1.729   3.788   1.004  0.3214  0.2761  0.0705
 6767TIP3    H141860   1.739   3.762   0.913 -1.4538 -1.6939  0.3649
 6767TIP3    H241861   1.636   3.773   1.024  0.3833  1.8315  1.8731
 6768TIP3   OH241862   1.923   3.539   0.128 -0.0045  0.6263  0.1953
 6768TIP3    H141863   1.943   3.629   0.155  0.8685  0.4467  0.1509
 6768TIP3    H241864   1.989   3.486   0.171  0.8945  0.2365 -1.6120
 6769TIP3   OH241865   5.349   2.832   8.515  0.2536  0.5556  0.4177
 6769TIP3    H141866   5.338   2.759   8.454 -0.5400  0.2744  0.8734
 6769TIP3    H241867   5.327   2.910   8.464  0.2480  0.3888  0.1647
 6770TIP3   OH241868   3.997   1.032   8.182 -0.6799 -0.1442 -0.3505
 6770TIP3    H141869   4.040   0.954   8.149  2.1111  1.2163 -0.2117
 6770TIP3    H241870   3.958   1.005   8.265 -0.3260 -1.5143 -0.6125
 6771TIP3   OH241871   3.579   1.053   0.595 -0.1908 -0.2938 -0.4853
 6771TIP3    H141872   3.654   0.994   0.596  0.3713  0.4139  0.0507
 6771TIP3    H241873   3.508   1.003   0.634  0.4835 -0.3675  0.6794
 6772TIP3   OH241874   1.706   1.955   7.253  0.4146 -0.5804 -0.0063
 6772TIP3    H141875   1.615   1.972   7.229  0.3812 -1.1677 -0.3125
 6772TIP3    H241876   1.710   1.973   7.346  0.1530  0.1329 -0.1264
 6773TIP3   OH241877   6.367   2.210   0.434 -0.0730 -0.2733  0.0055
 6773TIP3    H141878   6.314   2.159   0.494  0.1102  0.9214  1.2237
 6773TIP3    H241879   6.305   2.267   0.389 -0.0469 -0.2383  0.0141
 6774TIP3   OH241880   4.905   6.853   2.753  0.0382 -0.0506  0.0329
 6774TIP3    H141881   4.957   6.924   2.792 -0.6620  0.0639  0.7853
 6774TIP3    H241882   4.940   6.773   2.792  0.5599 -0.0893 -0.5084
 6775TIP3   OH241883   4.066   5.970   7.565 -0.5993  0.2715 -0.7388
 6775TIP3    H141884   4.123   6.035   7.524  0.4730  0.9852  1.7342
 6775TIP3    H241885   3.978   5.997   7.539 -0.0414  1.4465 -1.5139
 6776TIP3   OH241886   6.200   3.596   1.966  0.7170 -0.3158  0.0198
 6776TIP3    H141887   6.124   3.600   2.024 -0.0617  0.0603 -1.0102
 6776TIP3    H241888   6.273   3.625   2.021  0.0806 -0.4335  0.9492
 6777TIP3   OH241889   4.012   5.827   0.191 -0.5527 -0.4095 -0.1765
 6777TIP3    H141890   3.938   5.773   0.219 -0.0453 -0.6100  0.8689
 6777TIP3    H241891   4.016   5.817   0.096  0.9531 -4.2037  0.0912
 6778TIP3   OH241892   0.256   3.840   1.564 -0.0155  0.0209  0.1923
 6778TIP3    H141893   0.303   3.758   1.549 -0.3517 -0.0473 -0.5789
 6778TIP3    H241894   0.164   3.816   1.551 -0.1487  0.4305  0.3836
 6779TIP3   OH241895   4.217   6.508   6.993  0.1505 -0.2254 -0.0258
 6779TIP3    H141896   4.307   6.487   6.970  1.2285  2.1526  1.6306
 6779TIP3    H241897   4.199   6.451   7.069 -0.2062 -1.5197 -1.0406
 6780TIP3   OH241898   4.228   1.358   2.348 -0.0922  0.2218 -0.2265
 6780TIP3    H141899   4.322   1.364   2.330  0.1472  0.5122  0.9785
 6780TIP3    H241900   4.188   1.336   2.264  0.9681  0.8902 -0.9243
 6781TIP3   OH241901   2.910   3.409   1.602 -0.2146  0.2561  0.1205
 6781TIP3    H141902   2.865   3.329   1.575  0.5391 -0.5944  1.2642
 6781TIP3    H241903   2.853   3.448   1.668 -1.9291  2.1963 -2.3020
 6782TIP3   OH241904   0.039   3.314   1.070 -0.3241  0.5643  0.2648
 6782TIP3    H141905   0.010   3.239   1.120  0.3874 -0.4282 -0.7684
 6782TIP3    H241906   0.088   3.367   1.132  1.2227 -1.0364  0.4865
 6783TIP3   OH241907   2.996   6.833   2.293  0.0837 -0.0519 -0.2535
 6783TIP3    H141908   2.963   6.802   2.208  1.2412 -0.8866 -0.4314
 6783TIP3    H241909   2.987   6.758   2.351  2.2222 -0.5652 -0.4897
 6784TIP3   OH241910   5.372   5.435   2.470 -0.0723 -0.3132  0.7608
 6784TIP3    H141911   5.358   5.340   2.465 -1.5411 -0.0908 -0.0128
 6784TIP3    H241912   5.400   5.459   2.382 -0.0897  0.0229  0.8477
 6785TIP3   OH241913   4.606   0.877   1.736 -0.1632 -0.2029  0.0835
 6785TIP3    H141914   4.648   0.945   1.788 -1.3253  0.6668 -0.0652
 6785TIP3    H241915   4.592   0.917   1.650  0.5183 -1.1628 -0.5020
 6786TIP3   OH241916   6.087   0.262   2.280 -0.2079  0.5530 -0.0658
 6786TIP3    H141917   6.026   0.332   2.254  0.1062  0.6967 -0.4231
 6786TIP3    H241918   6.074   0.194   2.214  1.1428  1.2352 -1.0811
 6787TIP3   OH241919   0.019   0.442   0.870  0.6370  0.4426  0.1253
 6787TIP3    H141920  -0.020   0.479   0.790 -0.1943 -1.7972 -0.5836
 6787TIP3    H241921  -0.021   0.492   0.941 -1.8909 -0.2182 -0.7023
 6788TIP3   OH241922   0.230   5.835   0.087  0.0098 -0.1636  0.2081
 6788TIP3    H141923   0.282   5.790   0.020 -0.7987  1.2631 -1.4459
 6788TIP3    H241924   0.292   5.896   0.127  0.2799 -0.3694  0.1099
 6789TIP3   OH241925   0.789   0.512   1.000  0.4831 -0.0272  0.3876
 6789TIP3    H141926   0.704   0.526   0.959  0.5130  0.7433  0.5786
 6789TIP3    H241927   0.845   0.480   0.929  0.0281 -0.5696  0.2691
 6790TIP3   OH241928   3.698   6.826   2.022  0.4058 -0.3344 -0.1828
 6790TIP3    H141929   3.636   6.775   1.970 -0.3873 -0.6126  0.9975
 6790TIP3    H241930   3.734   6.763   2.085  1.8970 -0.1722 -0.8373
 6791TIP3   OH241931   0.154   3.016   1.517  0.1700 -0.3100  0.5497
 6791TIP3    H141932   0.082   2.979   1.569  0.2842 -1.4684 -0.0732
 6791TIP3    H241933   0.167   2.952   1.446  0.9889  0.5054 -0.0518
 6792TIP3   OH241934   4.474   6.401   8.266 -0.3838  0.0043  0.0611
 6792TIP3    H141935   4.385   6.366   8.277 -0.8618  0.4074 -2.0679
 6792TIP3    H241936   4.485   6.461   8.340 -1.6933 -0.4117  0.6350
 6793TIP3   OH241937   6.218   0.737   1.487 -0.2739  0.2536 -0.2034
 6793TIP3    H141938   6.172   0.801   1.541  0.0157  1.0693 -0.8916
 6793TIP3    H241939   6.305   0.729   1.528 -1.2522 -2.0262  1.6818
 6794TIP3   OH241940   0.841   3.106   8.234  0.0039 -0.2338  0.7077
 6794TIP3    H141941   0.857   3.136   8.145 -1.3559 -0.1133  0.4906
 6794TIP3    H241942   0.758   3.147   8.260 -0.0077 -0.8577  1.7513
 6795TIP3   OH241943   1.659   2.118   6.938  0.5515  0.6422  0.4770
 6795TIP3    H141944   1.652   2.025   6.959 -1.9459  0.6406  0.0135
 6795TIP3    H241945   1.660   2.121   6.842  0.5727  1.1027  0.4876
 6796TIP3   OH241946   3.992   4.141   8.304  0.2034 -0.2880  0.2138
 6796TIP3    H141947   4.043   4.220   8.320  0.1876 -0.3136  0.3905
 6796TIP3    H241948   4.053   4.081   8.261  0.4769 -0.5201  0.9208
 6797TIP3   OH241949   6.049   1.150   7.626 -0.3721 -0.1486 -0.0232
 6797TIP3    H141950   5.999   1.225   7.592 -0.9145  0.1260  1.3085
 6797TIP3    H241951   6.136   1.186   7.646  0.0365 -0.3757 -1.3394
 6798TIP3   OH241952   1.417   0.781   0.531 -0.2204 -0.1905  0.2907
 6798TIP3    H141953   1.431   0.777   0.437  2.0641 -0.4463  0.5609
 6798TIP3    H241954   1.393   0.872   0.548  1.0801  0.3180 -0.3990
 6799TIP3   OH241955   5.078   0.453   0.568 -0.4738  0.4641 -0.1371
 6799TIP3    H141956   5.091   0.419   0.656 -0.5600  1.3401  0.2250
 6799TIP3    H241957   5.096   0.547   0.576 -1.6434  0.7595 -0.7940
 6800TIP3   OH241958   0.828   3.950   7.185  0.2471 -0.0661 -0.0532
 6800TIP3    H141959   0.850   3.857   7.183 -0.4442 -0.2381  0.3627
 6800TIP3    H241960   0.892   3.989   7.245 -0.3514 -0.5079  0.8863
 6801TIP3   OH241961   4.109   2.747   0.927 -0.2550  0.2783  0.4563
 6801TIP3    H141962   4.082   2.795   0.849  0.5920  1.9189  1.1371
 6801TIP3    H241963   4.101   2.810   0.998  1.3605 -0.4310  1.3146
 6802TIP3   OH241964   1.883   5.875   1.271  0.0106  0.6503  0.2325
 6802TIP3    H141965   1.909   5.816   1.200 -0.4599  1.1896 -0.3988
 6802TIP3    H241966   1.789   5.858   1.283 -0.2229  1.5630 -0.2464
 6803TIP3   OH241967   0.933   6.616   8.274  0.2534 -0.7132  0.7874
 6803TIP3    H141968   0.906   6.559   8.202  1.0207 -0.2952  0.1507
 6803TIP3    H241969   0.852   6.660   8.301  0.2638  0.7467 -1.2877
 6804TIP3   OH241970   0.776   4.447   8.323  0.1079 -0.3898  0.5713
 6804TIP3    H141971   0.857   4.397   8.316  0.6246  0.0924  2.4228
 6804TIP3    H241972   0.806   4.537   8.338 -0.7945  0.0236 -0.0538
 6805TIP3   OH241973   5.856   6.846   7.062  0.5504 -0.1110  0.0226
 6805TIP3    H141974   5.903   6.826   6.981  1.5427  2.3957 -0.0994
 6805TIP3    H241975   5.925   6.866   7.125 -0.2263  2.5615  0.1459
 6806TIP3   OH241976   2.716   2.150   1.213  0.1090  0.3668 -0.9927
 6806TIP3    H141977   2.665   2.189   1.285  0.2228 -0.1556 -0.6215
 6806TIP3    H241978   2.673   2.180   1.134 -1.4454 -0.9292 -0.6817
 6807TIP3   OH241979   5.772   2.862   1.338  0.5951 -0.2266 -0.5106
 6807TIP3    H141980   5.753   2.778   1.296 -1.7206 -0.6365  1.1523
 6807TIP3    H241981   5.712   2.923   1.296 -2.0456 -0.7208  2.1941
 6808TIP3   OH241982   0.390   5.665   1.739  0.8627  0.0543  0.3801
 6808TIP3    H141983   0.473   5.702   1.709  0.8902 -0.8711 -0.7381
 6808TIP3    H241984   0.326   5.692   1.673  0.1240  1.2175  1.5075
 6809TIP3   OH241985   6.685   4.167   0.818  0.0742 -0.3936 -0.0574
 6809TIP3    H141986   6.737   4.218   0.881 -1.9892  0.5829  0.9661
 6809TIP3    H241987   6.664   4.229   0.748  0.9742 -1.0153 -0.8861
 6810TIP3   OH241988   1.536   1.429   0.678  0.6788  0.5556 -0.3692
 6810TIP3    H141989   1.538   1.466   0.766 -0.8228 -1.6361  0.6561
 6810TIP3    H241990   1.622   1.451   0.641  0.9867  2.3374  1.2349
 6811TIP3   OH241991   1.234   2.035   0.608  0.2129  0.1650 -0.2451
 6811TIP3    H141992   1.317   1.990   0.591 -0.1716 -0.6599  0.0171
 6811TIP3    H241993   1.174   1.965   0.632 -0.1396  0.9386  1.2005
 6812TIP3   OH241994   0.271   6.765   7.414 -0.0188 -0.5343 -0.9024
 6812TIP3    H141995   0.315   6.693   7.369 -1.1631 -0.7776 -1.6783
 6812TIP3    H241996   0.224   6.812   7.345  0.8904  1.1183 -0.4496
 6813TIP3   OH241997   5.499   2.680   1.865  0.1076  0.0953  0.0065
 6813TIP3    H141998   5.497   2.664   1.960 -0.5614  0.2323  0.0204
 6813TIP3    H241999   5.425   2.738   1.849 -0.1962 -0.4710 -0.6981
 6814TIP3   OH242000   3.796   6.116   2.495  0.2228  0.9144 -0.0676
 6814TIP3    H142001   3.743   6.063   2.554 -0.2746 -1.6676 -2.5773
 6814TIP3    H242002   3.878   6.130   2.542 -0.9862  1.0533  2.1124
 6815TIP3   OH242003   2.237   1.959   8.207  0.1742 -0.0788  0.3388
 6815TIP3    H142004   2.295   1.980   8.134 -1.5603 -0.1229 -1.1146
 6815TIP3    H242005   2.174   2.031   8.209  0.3678  0.1048  2.0524
 6816TIP3   OH242006   6.744   2.881   0.658 -0.5453  0.2605 -0.0130
 6816TIP3    H142007   6.657   2.844   0.643 -0.6267  0.6956 -0.6483
 6816TIP3    H242008   6.727   2.959   0.711 -0.6786  1.0331 -1.1602
 6817TIP3   OH242009   0.124   2.682   1.612  0.0015 -0.0243 -0.8032
 6817TIP3    H142010   0.153   2.715   1.527  0.5182 -0.9700 -1.0134
 6817TIP3    H242011   0.077   2.755   1.651  1.5521  1.1597 -1.0106
 6818TIP3   OH242012   5.360   1.179   6.524  0.2200 -0.2102  0.2805
 6818TIP3    H142013   5.371   1.274   6.526 -0.4098 -0.0440 -1.8773
 6818TIP3    H242014   5.418   1.150   6.453 -0.7978 -1.2247 -0.1727
 6819TIP3   OH242015   3.478   2.532   1.200 -0.0218  0.0325  0.0933
 6819TIP3    H142016   3.485   2.627   1.206  2.2024 -0.1089  0.4134
 6819TIP3    H242017   3.543   2.498   1.261 -1.4387 -1.7370  0.7236
 6820TIP3   OH242018   1.590   5.199   7.515 -0.5642  0.3958  0.6758
 6820TIP3    H142019   1.527   5.202   7.442  0.1881 -0.1859 -0.0149
 6820TIP3    H242020   1.558   5.128   7.571  0.6127 -1.3885 -0.7895
 6821TIP3   OH242021   5.975   5.432   8.444  0.7070  0.0158 -0.1662
 6821TIP3    H142022   6.057   5.441   8.395  1.1296 -0.1883  0.4909
 6821TIP3    H242023   5.978   5.343   8.480 -0.1710 -0.2762 -0.7815
 6822TIP3   OH242024   4.382   5.761   1.329  0.4435 -0.0924 -0.0806
 6822TIP3    H142025   4.327   5.742   1.405 -0.6831 -0.0647 -0.8713
 6822TIP3    H242026   4.471   5.742   1.360  0.0888  0.5072  1.4264
 6823TIP3   OH242027   4.640   0.915   2.158 -0.2877 -0.0456 -0.8844
 6823TIP3    H142028   4.661   0.964   2.079  0.8749  3.2216  1.2254
 6823TIP3    H242029   4.597   0.979   2.215 -0.3706 -2.0154  1.4400
 6824TIP3   OH242030   3.414   5.585   0.154  0.3233  0.1002  0.0706
 6824TIP3    H142031   3.434   5.677   0.139  0.2618  0.4099  1.7102
 6824TIP3    H242032   3.458   5.564   0.236 -1.1305 -0.8334  0.6583
 6825TIP3   OH242033   2.731   3.249   1.257 -1.0090 -0.0428  0.1446
 6825TIP3    H142034   2.681   3.321   1.219  0.4988  0.0770 -1.8157
 6825TIP3    H242035   2.804   3.236   1.195  0.6983 -0.9691  2.2223
 6826TIP3   OH242036   0.879   5.582   1.106 -0.1935 -0.8465 -0.1042
 6826TIP3    H142037   0.843   5.670   1.116 -0.1155 -1.0406  2.7694
 6826TIP3    H242038   0.813   5.535   1.055  0.3496  1.1076 -2.8313
 6827TIP3   OH242039   2.580   2.705   1.054  0.9433 -0.4304 -0.2750
 6827TIP3    H142040   2.612   2.661   1.132  2.4563  1.4903  0.2513
 6827TIP3    H242041   2.627   2.788   1.051 -0.3563  0.3273 -2.2823
 6828TIP3   OH242042   5.070   3.350   7.757  0.3769 -0.0576 -0.7005
 6828TIP3    H142043   5.069   3.344   7.853 -0.3708 -0.4588 -0.7325
 6828TIP3    H242044   5.149   3.401   7.738 -0.2524  1.3158  0.1953
 6829TIP3   OH242045   0.478   0.084   2.128  0.3878  0.3365 -0.2654
 6829TIP3    H142046   0.542   0.138   2.081  0.7725  0.3460  0.2668
 6829TIP3    H242047   0.513  -0.005   2.124 -0.0907  0.1670 -0.8717
 6830TIP3   OH242048   5.585   6.847   2.603 -0.4157  0.4461 -0.6099
 6830TIP3    H142049   5.497   6.884   2.612 -0.3610  0.5337 -0.4416
 6830TIP3    H242050   5.576   6.783   2.532 -0.6169  0.4476 -0.5880
 6831TIP3   OH242051   3.658   6.324   0.813 -0.5611  0.3322 -0.1363
 6831TIP3    H142052   3.601   6.358   0.882 -1.5527 -0.9584 -0.2669
 6831TIP3    H242053   3.601   6.323   0.735  0.8518  2.8537 -1.3208
 6832TIP3   OH242054   2.140   0.445   1.163  0.0507 -0.6070 -0.0404
 6832TIP3    H142055   2.204   0.514   1.145 -1.3587  0.0682 -2.9660
 6832TIP3    H242056   2.118   0.408   1.077 -3.4019 -0.8474  0.7869
 6833TIP3   OH242057   0.031   4.799   2.158  0.2035 -0.7277 -0.4482
 6833TIP3    H142058  -0.017   4.818   2.238  1.1691  1.4786 -0.3306
 6833TIP3    H242059   0.051   4.884   2.121  0.5145 -1.6727 -2.6305
 6834TIP3   OH242060   2.094   3.138   8.180 -0.2243 -0.4018 -0.0384
 6834TIP3    H142061   2.157   3.077   8.143  1.7476  0.9546  0.9057
 6834TIP3    H242062   2.009   3.101   8.158  0.8683 -1.7666 -2.2653
 6835TIP3   OH242063   0.389   0.049   0.447  0.5845  0.3138  0.0803
 6835TIP3    H142064   0.473   0.092   0.463  0.9016 -0.3587  0.2787
 6835TIP3    H242065   0.336   0.072   0.524 -0.1961  2.5171 -1.0195
 6836TIP3   OH242066   3.316   1.666   8.357 -0.0162 -0.0748 -0.0583
 6836TIP3    H142067   3.230   1.690   8.324  0.9767  2.6677 -0.9500
 6836TIP3    H242068   3.357   1.618   8.285  1.2358  3.7541 -2.1510
 6837TIP3   OH242069   0.610   1.455   8.222  0.4797  0.0175 -0.2085
 6837TIP3    H142070   0.542   1.400   8.183  1.3197 -0.2638 -1.3201
 6837TIP3    H242071   0.562   1.517   8.277 -0.6309 -0.5078 -0.5515
 6838TIP3   OH242072   5.945   5.791   2.713  0.4679 -0.5382  0.0916
 6838TIP3    H142073   6.008   5.776   2.784 -1.0240 -0.8291  1.4223
 6838TIP3    H242074   5.860   5.774   2.753 -0.8177  3.2628 -0.5391
 6839TIP3   OH242075   4.093   5.630   0.457 -0.3766  0.1013  0.4662
 6839TIP3    H142076   4.177   5.595   0.487  0.0213  1.5342  1.1094
 6839TIP3    H242077   4.094   5.618   0.362  0.7172  0.4562  0.4256
 6840TIP3   OH242078   3.042   5.184   8.049  0.5866  0.2493  0.1003
 6840TIP3    H142079   3.040   5.099   8.093 -0.7871  0.1266 -0.1697
 6840TIP3    H242080   3.057   5.163   7.956  1.0450  0.3551  0.1489
 6841TIP3   OH242081   2.702   4.400   2.267 -0.5713 -0.2914  0.5392
 6841TIP3    H142082   2.757   4.477   2.263  0.8021 -1.1780  1.4267
 6841TIP3    H242083   2.763   4.327   2.274 -1.7388 -1.6664 -1.9989
 6842TIP3   OH242084   6.735   5.945   7.002 -0.6945  0.2266  0.2831
 6842TIP3    H142085   6.824   5.966   6.972 -0.1608 -1.7515  0.3690
 6842TIP3    H242086   6.721   5.855   6.973 -1.7795 -0.3022  2.3038
 6843TIP3   OH242087   2.712   4.880   7.137  0.7534 -0.2169 -0.6784
 6843TIP3    H142088   2.681   4.829   7.211 -0.5872  0.7886 -0.5186
 6843TIP3    H242089   2.679   4.833   7.060  0.4823 -0.2009 -0.5710
 6844TIP3   OH242090   3.488   3.785   7.647  0.7739 -0.0365  0.0791
 6844TIP3    H142091   3.405   3.812   7.686  1.7453  1.9233  0.8870
 6844TIP3    H242092   3.498   3.694   7.675 -1.3688 -0.5407 -0.5754
 6845TIP3   OH242093   6.377   0.414   1.581 -0.4013 -0.5490 -0.2887
 6845TIP3    H142094   6.397   0.330   1.622  0.8720  0.9107  2.3114
 6845TIP3    H242095   6.405   0.403   1.490 -0.2868 -2.9238 -0.0282
 6846TIP3   OH242096   1.056   1.725   1.170 -0.2397  0.2827  0.3400
 6846TIP3    H142097   1.104   1.790   1.222  0.0782 -0.3941  0.9181
 6846TIP3    H242098   1.102   1.725   1.086  0.3324  0.1651  0.6413
 6847TIP3   OH242099   4.841   2.981   7.504 -0.5808 -0.0903 -0.1866
 6847TIP3    H142100   4.755   2.990   7.545  0.7507  0.8175  2.6722
 6847TIP3    H242101   4.886   3.063   7.524  0.8140 -0.2935 -2.1213
 6848TIP3   OH242102   0.200   3.279   8.089  0.1044  0.2055 -0.0779
 6848TIP3    H142103   0.213   3.218   8.016 -0.5614 -0.1303  0.0750
 6848TIP3    H242104   0.105   3.294   8.091  0.0578 -0.1299  0.9742
 6849TIP3   OH242105   5.487   1.219   2.522 -0.1903  0.3150 -0.1030
 6849TIP3    H142106   5.581   1.210   2.537 -0.2271 -0.1551 -0.1497
 6849TIP3    H242107   5.471   1.314   2.524  0.5180  0.4896 -1.4937
 6850TIP3   OH242108   5.866   1.558   8.517 -0.2375  0.1674  0.4020
 6850TIP3    H142109   5.823   1.603   8.444  0.4042 -0.8939 -0.6659
 6850TIP3    H242110   5.807   1.485   8.537  0.4900 -0.6506 -0.3436
 6851TIP3   OH242111   1.891   3.994   7.936  0.0675 -0.5973  0.2650
 6851TIP3    H142112   1.884   3.960   8.025  2.5261 -1.6070  0.1651
 6851TIP3    H242113   1.985   4.011   7.924 -0.0418 -1.3259 -2.3976
 6852TIP3   OH242114   2.518   2.245   0.538  0.1745  0.0377 -0.3482
 6852TIP3    H142115   2.589   2.308   0.550 -1.0461  1.5461 -0.7367
 6852TIP3    H242116   2.491   2.223   0.628  1.7468 -1.3257 -0.1711
 6853TIP3   OH242117   3.068   2.439   2.157 -0.1140  0.4707 -0.2300
 6853TIP3    H142118   3.085   2.502   2.227 -0.3287  1.4345 -1.0289
 6853TIP3    H242119   2.981   2.404   2.177  0.3988 -0.3110  0.7461
 6854TIP3   OH242120   2.694   5.275   0.193  0.2137  0.5540  0.1233
 6854TIP3    H142121   2.683   5.367   0.169  0.5288 -0.0466 -2.5564
 6854TIP3    H242122   2.622   5.258   0.255 -0.4582  2.3288 -0.1098
 6855TIP3   OH242123   3.471   6.332   8.628  0.0666  0.5112  0.3796
 6855TIP3    H142124   3.423   6.272   8.685 -0.8601  0.5834 -0.2854
 6855TIP3    H242125   3.541   6.280   8.590  1.1291  0.6474  2.1106
 6856TIP3   OH242126   1.001   4.222   0.017 -0.0874 -0.6551 -0.5712
 6856TIP3    H142127   1.055   4.198  -0.058 -1.0845 -2.5493 -0.7527
 6856TIP3    H242128   1.053   4.199   0.093  0.9005  1.2085 -0.6232
 6857TIP3   OH242129   5.587   3.744   1.032  0.1624  0.5770  0.3538
 6857TIP3    H142130   5.605   3.818   1.090 -2.8253  1.4714  0.3093
 6857TIP3    H242131   5.623   3.771   0.947 -0.0308  1.5625  0.5706
 6858TIP3   OH242132   3.778   2.122   1.136  0.2547  0.2380 -0.3504
 6858TIP3    H142133   3.702   2.113   1.078 -0.2464 -0.8266  0.4377
 6858TIP3    H242134   3.742   2.111   1.224  1.4661 -1.3562 -0.0211
 6859TIP3   OH242135   3.154   5.092   7.793 -0.0126  0.0151 -0.2290
 6859TIP3    H142136   3.234   5.059   7.752 -0.4782 -2.2081  0.5332
 6859TIP3    H242137   3.087   5.083   7.725 -0.5225 -2.5008  0.5056
 6860TIP3   OH242138   5.993   6.385   8.365 -0.0096 -0.1248 -0.1508
 6860TIP3    H142139   6.041   6.440   8.427 -1.3527 -1.0722  1.8388
 6860TIP3    H242140   5.911   6.364   8.410 -2.1552  1.0557 -3.2070
 6861TIP3   OH242141   6.467   0.236   1.166 -0.2061 -0.6420 -0.0870
 6861TIP3    H142142   6.446   0.177   1.093 -0.5366  1.4034 -1.7558
 6861TIP3    H242143   6.427   0.195   1.242 -0.1113 -2.7359 -1.0792
 6862TIP3   OH242144   1.837   0.061   0.258 -0.4921  0.2868  0.2287
 6862TIP3    H142145   1.825  -0.024   0.216  0.0767  0.7285 -0.8557
 6862TIP3    H242146   1.758   0.111   0.236  0.7453  1.3048 -2.3195
 6863TIP3   OH242147   4.117   1.750   6.868 -0.3351  0.2900  0.0811
 6863TIP3    H142148   4.031   1.713   6.850 -0.3223  0.5759 -0.6074
 6863TIP3    H242149   4.178   1.677   6.859 -0.3694  0.3572 -0.7283
 6864TIP3   OH242150   4.933   1.998   7.513  0.3620  0.2306  0.0059
 6864TIP3    H142151   4.952   1.955   7.597 -0.0619 -0.4864 -0.2551
 6864TIP3    H242152   4.837   2.002   7.509  0.3896  1.9120  0.3656
 6865TIP3   OH242153   1.164   1.768   6.412 -0.0399 -0.3516 -0.0971
 6865TIP3    H142154   1.242   1.788   6.361 -1.3608  1.6133 -1.5254
 6865TIP3    H242155   1.194   1.767   6.503  1.7186 -0.1717 -0.6348
 6866TIP3   OH242156   5.752   4.765   1.567 -0.1025 -0.2576 -0.3491
 6866TIP3    H142157   5.695   4.717   1.628  0.8778 -1.7448 -0.5561
 6866TIP3    H242158   5.694   4.788   1.494 -0.7697 -0.4652  0.1024
 6867TIP3   OH242159   3.332   4.415   7.314 -0.5752 -0.9006  0.1230
 6867TIP3    H142160   3.418   4.443   7.281 -1.3192 -1.3561 -2.4150
 6867TIP3    H242161   3.278   4.494   7.306 -0.3685 -0.5221  2.0290
 6868TIP3   OH242162   0.784   2.564   1.895 -0.1771  0.3150  0.2459
 6868TIP3    H142163   0.730   2.509   1.838  0.7710 -0.8712  0.4294
 6868TIP3    H242164   0.772   2.527   1.983 -0.7751  1.4381  0.6554
 6869TIP3   OH242165   2.210   3.208   0.621  0.1556  0.0452 -0.4128
 6869TIP3    H142166   2.264   3.265   0.565 -0.1039  0.2539 -0.4527
 6869TIP3    H242167   2.145   3.267   0.660  1.1803  0.1796  1.1963
 6870TIP3   OH242168   1.025   4.805   0.972  0.6709 -0.0157  0.1979
 6870TIP3    H142169   1.041   4.878   1.032  0.3834  0.1692  0.0538
 6870TIP3    H242170   0.998   4.733   1.028 -0.1467  0.3191  0.2484
 6871TIP3   OH242171   4.306   0.134   8.352  0.3916 -0.5902  0.2013
 6871TIP3    H142172   4.270   0.094   8.431  0.0339  0.0871  0.3945
 6871TIP3    H242173   4.388   0.088   8.337 -0.0522 -1.4563  0.3508
 6872TIP3   OH242174   3.299   4.194   8.393  0.0644 -0.3621  0.6330
 6872TIP3    H142175   3.354   4.245   8.335  0.2494  1.9030  2.6399
 6872TIP3    H242176   3.309   4.235   8.479 -3.5786 -0.7219  1.4219
 6873TIP3   OH242177   5.429   3.207   0.118 -0.7248  0.7128 -0.6225
 6873TIP3    H142178   5.438   3.281   0.178  1.0144  0.0132  0.0662
 6873TIP3    H242179   5.518   3.193   0.084 -1.4415  0.3111 -2.4475
 6874TIP3   OH242180   3.766   1.762   7.781  0.7537  0.6383 -0.5331
 6874TIP3    H142181   3.685   1.807   7.804  0.1484 -0.8965  0.5541
 6874TIP3    H242182   3.765   1.756   7.686 -1.6321 -1.4044 -0.4616
 6875TIP3   OH242183   5.262   3.777   8.144 -0.5123  0.0124  0.4801
 6875TIP3    H142184   5.277   3.726   8.224  0.5597 -1.7513 -0.7771
 6875TIP3    H242185   5.172   3.758   8.119 -0.0587 -1.5288 -0.0976
 6876TIP3   OH242186   0.623   3.950   1.155 -0.0689 -0.0679  0.0997
 6876TIP3    H142187   0.650   3.913   1.239  0.7748 -0.2426 -0.2380
 6876TIP3    H242188   0.587   3.875   1.107 -0.3473 -0.0112  0.2152
 6877TIP3   OH242189   3.183   4.455   0.537 -0.1926  0.0474  0.2510
 6877TIP3    H142190   3.126   4.381   0.556 -0.4361 -0.7251 -2.8559
 6877TIP3    H242191   3.261   4.416   0.498  1.7863  1.2174  2.7542
 6878TIP3   OH242192   5.878   0.218   7.691 -0.5289  0.1818 -0.5742
 6878TIP3    H142193   5.871   0.194   7.599  0.1182 -3.0168  0.0929
 6878TIP3    H242194   5.818   0.158   7.736  1.9875 -1.0492  1.3822
 6879TIP3   OH242195   2.917   1.055   1.118  0.4024  0.1498  0.1929
 6879TIP3    H142196   3.012   1.059   1.102  0.6924  0.2419  1.8395
 6879TIP3    H242197   2.892   0.967   1.088  0.8592  0.3560 -0.8695
 6880TIP3   OH242198   3.895   6.419   1.013  0.2770  0.3726 -0.0205
 6880TIP3    H142199   3.841   6.360   1.065 -0.7666 -0.1779 -1.6435
 6880TIP3    H242200   3.854   6.505   1.022  0.8492  0.5517  1.0447
 6881TIP3   OH242201   3.547   6.375   7.434  0.5266  1.1867  0.0090
 6881TIP3    H142202   3.516   6.459   7.398 -1.4084  0.2294 -0.6878
 6881TIP3    H242203   3.515   6.375   7.524 -0.7954  0.6166 -0.4252
 6882TIP3   OH242204   6.628   2.401   7.390 -0.4829 -0.4518 -0.5411
 6882TIP3    H142205   6.717   2.432   7.409 -0.2949 -1.5781  0.4905
 6882TIP3    H242206   6.574   2.437   7.460 -0.5501 -1.1278 -0.2466
 6883TIP3   OH242207   6.781   4.048   7.851 -0.1545 -0.1859 -0.2641
 6883TIP3    H142208   6.751   3.995   7.925 -0.7672  1.3561  0.6380
 6883TIP3    H242209   6.785   3.987   7.777 -0.3564 -1.5762  0.8446
 6884TIP3   OH242210   5.453   1.285   2.797 -0.2227 -0.4009  0.3038
 6884TIP3    H142211   5.469   1.198   2.760  0.2658 -0.2902  0.2561
 6884TIP3    H242212   5.472   1.345   2.725  0.0530 -0.2207  0.5253
 6885TIP3   OH242213   6.504   0.323   0.280  0.0394  0.1577  0.1086
 6885TIP3    H142214   6.430   0.372   0.243 -0.1395 -0.6963 -0.7103
 6885TIP3    H242215   6.568   0.322   0.209 -0.0764 -1.0236  0.0144
 6886TIP3   OH242216   5.206   6.269   7.844 -0.0960  1.0382 -0.7118
 6886TIP3    H142217   5.147   6.238   7.914  0.8417  0.9874  0.0763
 6886TIP3    H242218   5.216   6.363   7.862  1.6600  0.6806  0.4092
 6887TIP3   OH242219   2.747   0.077   8.470  0.3545 -0.1487 -0.2698
 6887TIP3    H142220   2.785   0.034   8.394  0.8727 -0.4602  0.1583
 6887TIP3    H242221   2.796   0.042   8.544  2.0449  2.4866 -0.0074
 6888TIP3   OH242222   4.745   0.941   7.100  0.2585 -0.3664 -0.0383
 6888TIP3    H142223   4.717   0.850   7.109  1.1724 -0.7936 -1.1511
 6888TIP3    H242224   4.777   0.947   7.009 -0.2735  1.2019 -0.1501
 6889TIP3   OH242225   4.518   1.384   7.924 -0.1004 -0.4526  0.2932
 6889TIP3    H142226   4.473   1.389   8.009 -0.0474  0.5907  0.2748
 6889TIP3    H242227   4.596   1.438   7.935 -0.0787 -0.3278 -0.4100
 6890TIP3   OH242228   2.339   6.400   1.704  0.0791 -0.5297 -0.5162
 6890TIP3    H142229   2.386   6.345   1.640  1.9004 -1.8172  1.7598
 6890TIP3    H242230   2.255   6.356   1.715  0.4473 -1.3053 -0.7162
 6891TIP3   OH242231   5.990   6.084   7.030 -0.7444 -0.4594  0.6019
 6891TIP3    H142232   5.903   6.075   7.069 -0.8406 -2.6952 -0.0057
 6891TIP3    H242233   5.977   6.061   6.938  0.4212 -0.4184  0.4190
 6892TIP3   OH242234   6.429   5.986   2.323 -0.4425 -0.1641  0.1024
 6892TIP3    H142235   6.404   5.962   2.412 -0.2860 -3.3086 -0.5846
 6892TIP3    H242236   6.411   5.907   2.271  1.7745  0.7195 -2.1953
 6893TIP3   OH242237   4.275   2.011   6.295  0.0983 -0.3157  0.1392
 6893TIP3    H142238   4.264   1.985   6.387  1.1636 -0.4502  0.2409
 6893TIP3    H242239   4.220   2.089   6.285  0.0702 -0.2292  0.9225
 6894TIP3   OH242240   5.710   4.624   1.835 -0.0017 -0.5153 -0.5204
 6894TIP3    H142241   5.760   4.705   1.826 -0.2029 -0.2724  0.4490
 6894TIP3    H242242   5.674   4.627   1.923 -1.1424 -1.0251 -0.9488
 6895TIP3   OH242243   4.072   4.429   8.614 -0.4250  0.0306 -0.3392
 6895TIP3    H142244   4.051   4.513   8.655 -0.3292  0.4182 -1.0692
 6895TIP3    H242245   4.089   4.370   8.688  0.5776  0.9228  0.1871
 6896TIP3   OH242246   1.602   0.500   0.765 -0.6006 -0.3574  0.1191
 6896TIP3    H142247   1.651   0.458   0.835  0.3986 -0.8857 -0.8537
 6896TIP3    H242248   1.652   0.579   0.744 -1.3349  0.2325  0.5312
 6897TIP3   OH242249   2.575   2.103   7.423  0.1123 -0.6962  0.0710
 6897TIP3    H142250   2.654   2.155   7.408 -1.5360  1.4763 -1.7702
 6897TIP3    H242251   2.511   2.165   7.456 -1.9682 -1.4553 -2.2392
 6898TIP3   OH242252   1.444   2.950   2.093  0.3624  0.8087  0.2264
 6898TIP3    H142253   1.350   2.958   2.083  0.3896  0.7380 -0.0863
 6898TIP3    H242254   1.462   2.984   2.181 -0.1003 -0.3649  0.7937
 6899TIP3   OH242255   0.496   0.511   0.100  0.0529  0.1762 -0.5571
 6899TIP3    H142256   0.511   0.454   0.176 -0.2277  1.6958  0.6882
 6899TIP3    H242257   0.584   0.532   0.068  0.1949 -0.0064 -0.2891
 6900TIP3   OH242258   1.627   4.701   0.939 -0.8717  0.0887 -0.2813
 6900TIP3    H142259   1.607   4.787   0.902 -0.0493 -0.7896 -2.9700
 6900TIP3    H242260   1.673   4.655   0.870  1.6714 -1.4266  2.2122
 6901TIP3   OH242261   1.036   1.846   1.903  1.1275  0.2964  0.0880
 6901TIP3    H142262   1.084   1.879   1.980  2.4171 -1.3100  0.0383
 6901TIP3    H242263   0.951   1.890   1.907  1.5994  1.1585  1.7672
 6902TIP3   OH242264   3.077   3.398   6.818 -0.1157 -0.4239  0.4420
 6902TIP3    H142265   3.167   3.376   6.843 -0.4855 -0.1534  2.0759
 6902TIP3    H242266   3.050   3.325   6.762  1.2516 -0.2904 -0.4384
 6903TIP3   OH242267   0.425   5.583   1.380 -0.1157 -0.1067  0.1193
 6903TIP3    H142268   0.403   5.490   1.376 -0.8920  0.0959 -0.5726
 6903TIP3    H242269   0.442   5.607   1.289 -1.7862  0.8583  0.0243
 6904TIP3   OH242270   1.595   6.676   0.835  0.0526  0.2925 -0.3407
 6904TIP3    H142271   1.665   6.706   0.892  0.1009 -1.2270  0.4811
 6904TIP3    H242272   1.519   6.728   0.861  0.5421  0.9922 -0.2824
 6905TIP3   OH242273   5.215   3.688   8.430 -0.3169 -0.2673  0.2983
 6905TIP3    H142274   5.243   3.739   8.506  1.3044 -0.0801 -0.3967
 6905TIP3    H242275   5.269   3.609   8.433  0.5861  0.2516 -1.2615
 6906TIP3   OH242276   2.951   6.246   8.264 -0.4931 -0.3821 -0.3615
 6906TIP3    H142277   3.016   6.316   8.258 -0.3313 -0.6164 -1.7183
 6906TIP3    H242278   2.940   6.216   8.174  0.1348 -2.7199  0.2669
 6907TIP3   OH242279   6.222   0.979   1.640 -0.5156 -0.3253  0.3416
 6907TIP3    H142280   6.239   1.073   1.640 -2.2026  0.0770  2.3789
 6907TIP3    H242281   6.162   0.966   1.714 -0.8866 -2.9081 -0.3114
 6908TIP3   OH242282   4.541   4.687   0.057 -0.0603 -0.0776 -0.5155
 6908TIP3    H142283   4.533   4.770   0.103 -0.0619 -0.7448  0.7211
 6908TIP3    H242284   4.460   4.679   0.007  0.0074  0.7211 -0.7717
 6909TIP3   OH242285   5.718   5.059   0.332 -0.3964 -0.2760 -0.2481
 6909TIP3    H142286   5.638   5.022   0.368 -0.4330 -0.0690 -0.1175
 6909TIP3    H242287   5.689   5.111   0.257 -0.4661  0.4310  0.2657
 6910TIP3   OH242288   4.044   4.019   2.737  0.3067  0.3207  0.2082
 6910TIP3    H142289   3.975   3.962   2.702 -0.7392  2.6529 -1.8408
 6910TIP3    H242290   3.998   4.097   2.767  1.7929  0.5866  2.0319
 6911TIP3   OH242291   3.710   3.435   6.626 -0.2131  0.5053 -1.0538
 6911TIP3    H142292   3.630   3.487   6.637 -0.6430 -0.2209 -0.6566
 6911TIP3    H242293   3.688   3.350   6.664  1.5983  1.0749  1.4642
 6912TIP3   OH242294   2.841   3.522   0.882  0.3013 -0.1821 -0.1234
 6912TIP3    H142295   2.762   3.542   0.933  0.8348  0.2812  0.5515
 6912TIP3    H242296   2.838   3.428   0.869  0.0499 -0.2894  0.6264
 6913TIP3   OH242297   5.709   1.804   1.977 -0.2588  0.0876  0.1547
 6913TIP3    H142298   5.690   1.719   2.018 -1.2379  1.1147  1.9370
 6913TIP3    H242299   5.787   1.835   2.023 -0.2205  0.3893 -0.1184
 6914TIP3   OH242300   3.852   6.787   0.201 -0.6234  0.1802  0.2760
 6914TIP3    H142301   3.938   6.789   0.157 -1.0231 -0.3722 -0.5587
 6914TIP3    H242302   3.853   6.704   0.249  0.2925  1.3370  2.3540
 6915TIP3   OH242303   4.309   4.088   2.835 -0.8568  0.1970  0.5489
 6915TIP3    H142304   4.221   4.054   2.847 -0.6255 -1.2798 -1.4479
 6915TIP3    H242305   4.298   4.168   2.783 -1.0611  0.5669  1.1483
 6916TIP3   OH242306   4.956   4.984   0.708  0.5137 -0.1683  0.4743
 6916TIP3    H142307   5.025   5.004   0.645 -1.6783  1.5640 -1.5860
 6916TIP3    H242308   4.955   4.888   0.714  1.1845 -0.3681 -1.7540
 6917TIP3   OH242309   6.686   2.165   6.453 -0.2749  0.0497 -0.1838
 6917TIP3    H142310   6.734   2.145   6.373  0.5615  1.2063  0.0050
 6917TIP3    H242311   6.702   2.258   6.468 -0.2630 -0.1925  1.4358
 6918TIP3   OH242312   6.187   6.781   2.707 -0.6248  0.0748 -0.0493
 6918TIP3    H142313   6.118   6.729   2.748 -0.7712  0.7962  0.6381
 6918TIP3    H242314   6.157   6.794   2.617 -1.1393 -0.0482  0.1027
 6919TIP3   OH242315   3.713   2.856   1.282  0.0987  0.3205 -0.3285
 6919TIP3    H142316   3.778   2.812   1.337  1.3883  0.1690 -1.9217
 6919TIP3    H242317   3.747   2.945   1.271 -0.9021  0.8051  0.2744
 6920TIP3   OH242318   3.629   6.719   7.502  0.2561  0.6236 -0.1827
 6920TIP3    H142319   3.643   6.783   7.432 -1.4667  2.5734  1.1600
 6920TIP3    H242320   3.547   6.676   7.479 -0.4548  1.4627  0.7540
 6921TIP3   OH242321   6.039   2.008   1.095  0.3735  0.6835 -0.3697
 6921TIP3    H142322   5.968   1.998   1.032  2.5772  1.0190 -3.0770
 6921TIP3    H242323   6.057   1.919   1.126 -0.4472  0.4604 -0.5077
 6922TIP3   OH242324   2.545   5.957   8.247  0.3600  0.1795  0.1756
 6922TIP3    H142325   2.640   5.947   8.259  0.3690 -0.0823 -0.1080
 6922TIP3    H242326   2.532   5.956   8.153  0.0123 -0.3915  0.2248
 6923TIP3   OH242327   0.520   4.402   1.753 -0.0728 -0.1449 -0.0746
 6923TIP3    H142328   0.461   4.444   1.691 -0.9580 -1.0022  0.1591
 6923TIP3    H242329   0.465   4.383   1.829  0.5468 -0.7716  0.2276
 6924TIP3   OH242330   3.668   4.823   0.935 -0.2358 -0.0692 -0.2429
 6924TIP3    H142331   3.639   4.867   0.855  0.3584  1.0030  0.1104
 6924TIP3    H242332   3.660   4.890   1.003  1.0753 -0.3762  0.2420
 6925TIP3   OH242333   3.000   2.852   7.490 -0.1660  0.5263 -0.3104
 6925TIP3    H142334   2.947   2.777   7.463 -0.3497 -0.6092  2.7997
 6925TIP3    H242335   2.937   2.924   7.498 -0.3546  0.4830 -1.2953
 6926TIP3   OH242336   6.107   2.576   8.193  0.0478  0.2121 -0.2862
 6926TIP3    H142337   6.163   2.574   8.271 -1.2389  0.3891  0.6762
 6926TIP3    H242338   6.168   2.568   8.119  1.1176 -2.6174  0.7797
 6927TIP3   OH242339   1.696   3.556   1.328  0.5316  0.3090  0.5236
 6927TIP3    H142340   1.775   3.523   1.284  0.2430  0.9345 -0.4988
 6927TIP3    H242341   1.728   3.625   1.386  0.7618  0.3841  0.3091
 6928TIP3   OH242342   2.084   2.908   1.495 -0.3404  0.3498  0.4950
 6928TIP3    H142343   2.114   2.851   1.424 -0.0906  0.1901  0.7317
 6928TIP3    H242344   2.150   2.899   1.564 -0.8512  0.1139  0.9563
 6929TIP3   OH242345   3.394   5.902   8.291  0.1358 -0.0208 -0.1744
 6929TIP3    H142346   3.369   5.994   8.287  0.5668  0.0758 -0.7791
 6929TIP3    H242347   3.369   5.874   8.379 -0.5459  0.5130 -0.1932
 6930TIP3   OH242348   5.865   0.912   1.312 -0.1570  0.2472 -0.3596
 6930TIP3    H142349   5.903   0.947   1.393 -1.1320  2.1504 -0.6707
 6930TIP3    H242350   5.866   0.986   1.252 -3.3256  0.1356 -0.7243
 6931TIP3   OH242351   0.544   4.180   1.020  0.1900 -0.0048  0.3039
 6931TIP3    H142352   0.544   4.108   1.083 -0.9387 -1.0643 -0.8451
 6931TIP3    H242353   0.504   4.143   0.941  1.1334  1.4026 -0.9006
 6932TIP3   OH242354   4.564   1.666   0.778  0.1801 -0.8440  0.0937
 6932TIP3    H142355   4.585   1.726   0.706 -0.0112  0.2187  0.9015
 6932TIP3    H242356   4.477   1.694   0.806 -0.8398 -2.8640 -0.8659
 6933TIP3   OH242357   5.862   6.375   1.808  0.2325  0.6202 -0.2330
 6933TIP3    H142358   5.781   6.406   1.767  2.1949  2.1807 -3.3381
 6933TIP3    H242359   5.863   6.418   1.893 -2.1798  0.5414 -0.0933
 6934TIP3   OH242360   6.509   4.942   1.662 -0.3453  0.2797 -0.2321
 6934TIP3    H142361   6.427   4.992   1.662 -2.1337 -2.3876  1.0570
 6934TIP3    H242362   6.526   4.924   1.570 -2.1682 -0.4788 -0.4614
 6935TIP3   OH242363   6.480   6.872   1.001 -0.3815  0.3805  0.4005
 6935TIP3    H142364   6.560   6.878   0.949 -0.1826 -0.7099  0.5693
 6935TIP3    H242365   6.414   6.842   0.938 -0.0080 -1.5340  0.8769
 6936TIP3   OH242366   4.251   4.874   2.363 -0.5973 -0.4773 -0.1730
 6936TIP3    H142367   4.260   4.963   2.398 -1.3105 -0.7010  0.5794
 6936TIP3    H242368   4.332   4.830   2.390  0.2657  0.2219 -1.4596
 6937TIP3   OH242369   3.712   5.014   7.443 -0.3411  0.1849  0.3192
 6937TIP3    H142370   3.628   5.011   7.398 -0.7979  0.7678  1.1024
 6937TIP3    H242371   3.774   5.046   7.377 -0.9706  0.9251  0.0686
 6938TIP3   OH242372   1.017   0.981   1.015 -0.0509 -0.1400  0.4130
 6938TIP3    H142373   0.949   0.994   1.081  0.2492  0.9618  0.5326
 6938TIP3    H242374   1.015   1.061   0.963  1.5337  0.1841  0.7950
 6939TIP3   OH242375   3.809   4.251   2.492 -0.4698  0.1325 -0.3751
 6939TIP3    H142376   3.735   4.272   2.549 -1.4949  0.2539 -1.7298
 6939TIP3    H242377   3.853   4.335   2.479 -0.7293  0.2528 -0.4677
 6940TIP3   OH242378   3.423   4.323   8.186 -0.1746  0.6417  0.2451
 6940TIP3    H142379   3.502   4.378   8.184 -1.2443  2.2761  0.3713
 6940TIP3    H242380   3.389   4.326   8.097  0.1151 -0.3830  0.0996
 6941TIP3   OH242381   6.618   1.389   0.163 -0.2944  1.1067 -0.0672
 6941TIP3    H142382   6.529   1.354   0.152 -0.7782  1.8893  1.1445
 6941TIP3    H242383   6.669   1.315   0.194 -0.7942  0.9142  0.3235
 6942TIP3   OH242384   3.817   2.390   8.549  0.0260  0.0726  0.3800
 6942TIP3    H142385   3.816   2.396   8.644 -0.1673 -0.5393  0.4195
 6942TIP3    H242386   3.740   2.439   8.521 -1.0761 -1.4363  0.6554
 6943TIP3   OH242387   3.798   1.297   1.731  0.2711  0.2157  0.3484
 6943TIP3    H142388   3.806   1.375   1.787  0.1163  1.3796 -1.1833
 6943TIP3    H242389   3.720   1.252   1.763  1.0201  0.0076  2.0205
 6944TIP3   OH242390   4.775   2.012   1.297 -0.9464 -0.0475  0.0395
 6944TIP3    H142391   4.779   1.968   1.382  0.5233 -0.7793 -0.3794
 6944TIP3    H242392   4.760   2.104   1.319 -1.6153 -0.3772  1.0384
 6945TIP3   OH242393   5.302   1.451   7.224  0.5524  0.2554  0.1784
 6945TIP3    H142394   5.305   1.382   7.157  3.0293  1.3752 -1.0032
 6945TIP3    H242395   5.376   1.431   7.281 -0.5625  0.2464  1.6661
 6946TIP3   OH242396   6.744   2.114   8.658 -0.4449 -0.1251  0.4200
 6946TIP3    H142397   6.801   2.143   8.729  0.0866 -0.3613  0.1008
 6946TIP3    H242398   6.791   2.040   8.619 -0.8231 -0.1249 -0.0440
 6947TIP3   OH242399   3.622   4.150   0.585 -0.3636  0.1114 -0.1554
 6947TIP3    H142400   3.599   4.136   0.676  0.5677 -1.0924 -0.0680
 6947TIP3    H242401   3.633   4.061   0.549  1.2045  0.5571 -0.9001
 6948TIP3   OH242402   5.588   2.709   2.143  0.3466 -0.6349 -0.3747
 6948TIP3    H142403   5.628   2.774   2.200 -0.5364  0.7840 -1.2909
 6948TIP3    H242404   5.649   2.700   2.070  1.5605 -2.5769  0.7797
 6949TIP3   OH242405   6.379   6.250   2.282  0.1839 -0.1914 -0.1741
 6949TIP3    H142406   6.324   6.254   2.360 -0.4378 -1.8296 -0.4838
 6949TIP3    H242407   6.428   6.169   2.291  0.7600  0.0442 -1.0665
 6950TIP3   OH242408   3.243   2.761   7.423 -0.4206 -0.2332 -0.1183
 6950TIP3    H142409   3.160   2.807   7.437 -0.7796 -0.3699 -1.6734
 6950TIP3    H242410   3.290   2.815   7.360  1.0170  0.2195  1.2697
 6951TIP3   OH242411   1.803   2.947   0.188  0.0087 -0.0851  0.4438
 6951TIP3    H142412   1.853   2.983   0.261  0.7104  1.1137 -0.5842
 6951TIP3    H242413   1.831   2.998   0.113  0.7492 -2.5114 -1.0552
 6952TIP3   OH242414   4.355   4.407   7.478 -0.2795  0.2067  0.0854
 6952TIP3    H142415   4.363   4.393   7.384  0.4477  0.3419  0.1175
 6952TIP3    H242416   4.417   4.344   7.516 -1.7145 -0.9651  0.5595
 6953TIP3   OH242417   5.130   2.372   8.074 -0.1884  0.1772 -0.0346
 6953TIP3    H142418   5.206   2.343   8.123 -0.1568 -1.2666 -0.8804
 6953TIP3    H242419   5.159   2.450   8.028  0.3505  0.4341  0.7287
 6954TIP3   OH242420   0.113   6.835   1.032 -0.1306 -0.0254 -0.5752
 6954TIP3    H142421   0.188   6.808   0.980 -0.3003 -0.7754 -0.4411
 6954TIP3    H242422   0.150   6.864   1.115 -0.0506 -1.3185 -0.1445
 6955TIP3   OH242423   2.949   4.924   8.148  0.3588 -0.4783 -0.3968
 6955TIP3    H142424   2.968   4.837   8.113 -1.2580 -0.8146 -0.5269
 6955TIP3    H242425   2.970   4.917   8.241 -1.1663 -1.4977 -0.1010
 6956TIP3   OH242426   3.234   1.593   8.604 -0.1579  0.0701  0.3934
 6956TIP3    H142427   3.244   1.501   8.628  0.6919  0.0267 -0.0773
 6956TIP3    H242428   3.290   1.604   8.527  3.4744  1.9746  2.9908
 6957TIP3   OH242429   5.892   2.400   8.171 -0.5680  0.2144 -0.2928
 6957TIP3    H142430   5.828   2.459   8.133 -0.3908 -0.6661 -2.0768
 6957TIP3    H242431   5.968   2.455   8.189 -0.5704  0.6176 -1.4814
 6958TIP3   OH242432   2.029   5.932   0.097  0.3875  0.4386  0.4179
 6958TIP3    H142433   1.939   5.947   0.070  0.4655  0.7349  0.3154
 6958TIP3    H242434   2.053   5.848   0.056 -0.7199 -1.1081  2.7085
 6959TIP3   OH242435   0.781   1.250   8.376  0.0604 -0.2149 -0.6923
 6959TIP3    H142436   0.839   1.186   8.334  0.9502  0.6853 -0.8790
 6959TIP3    H242437   0.759   1.311   8.306  0.5073  0.5698 -0.1555
 6960TIP3   OH242438   3.025   6.832   0.396  0.2386  0.4229  0.0715
 6960TIP3    H142439   3.012   6.925   0.416 -1.9632  0.3634 -0.7806
 6960TIP3    H242440   3.118   6.824   0.375  0.1910  2.7964 -1.4449
 6961TIP3   OH242441   2.715   4.295   8.649  0.1516 -0.1131 -0.3030
 6961TIP3    H142442   2.752   4.366   8.597  0.7904 -0.6034 -0.5261
 6961TIP3    H242443   2.718   4.327   8.740  0.8057 -0.0088 -0.3560
 6962TIP3   OH242444   1.041   4.438   8.424 -0.8985  0.1867  0.4291
 6962TIP3    H142445   1.090   4.407   8.501 -0.7374  1.0997  0.7066
 6962TIP3    H242446   1.018   4.529   8.445  0.4508  0.9633 -1.1962
 6963TIP3   OH242447   2.987   3.825   7.152  0.1259 -0.0783 -0.4268
 6963TIP3    H142448   3.012   3.895   7.092 -0.8316 -1.1102 -2.1253
 6963TIP3    H242449   2.899   3.849   7.181  0.6944  0.5659  0.8698
 6964TIP3   OH242450   1.686   1.463   0.273  0.4004  0.0550 -0.4230
 6964TIP3    H142451   1.763   1.473   0.217  1.6846 -0.8368  1.0934
 6964TIP3    H242452   1.706   1.514   0.352 -0.4128 -0.4286  0.1182
 6965TIP3   OH242453   4.970   0.627   7.271 -0.1126  0.2458  0.1515
 6965TIP3    H142454   4.957   0.542   7.314  1.7698 -0.5365 -0.7097
 6965TIP3    H242455   5.063   0.646   7.284 -0.1197  1.3272 -1.1683
 6966TIP3   OH242456   2.144   6.195   8.155  0.0025  0.4787  0.5627
 6966TIP3    H142457   2.216   6.255   8.176 -0.5921  1.3529  0.1578
 6966TIP3    H242458   2.127   6.209   8.062  0.8270 -1.4081  0.0671
 6967TIP3   OH242459   1.243   4.669   2.977  0.5725  0.0999  0.3411
 6967TIP3    H142460   1.218   4.654   2.886  1.7788 -1.3706  0.2208
 6967TIP3    H242461   1.335   4.644   2.982  1.2831  2.6217  1.4148
 6968TIP3   OH242462   6.702   1.155   1.125  0.2595 -0.2114 -0.3918
 6968TIP3    H142463   6.681   1.107   1.045 -0.3811  1.7730 -1.4928
 6968TIP3    H242464   6.636   1.127   1.188  1.3315 -2.5140 -0.1679
 6969TIP3   OH242465   6.466   2.576   7.005  0.7479  0.9389  0.0191
 6969TIP3    H142466   6.411   2.514   6.957  1.5261  0.4554 -0.2585
 6969TIP3    H242467   6.527   2.521   7.053  2.5957  1.4899 -1.5787
 6970TIP3   OH242468   2.502   3.571   8.596  0.3407  0.1888 -0.3566
 6970TIP3    H142469   2.433   3.610   8.650  1.0178  1.5814 -0.4514
 6970TIP3    H242470   2.469   3.579   8.506  0.3048  0.1599 -0.3466
 6971TIP3   OH242471   6.753   0.593   0.681  0.2246  0.1075  0.1945
 6971TIP3    H142472   6.717   0.564   0.597  1.0179 -1.4333  0.3396
 6971TIP3    H242473   6.679   0.589   0.742  0.3021 -1.8860  0.2378
 6972TIP3   OH242474   5.276   5.110   1.740 -0.4923  0.0594  0.2775
 6972TIP3    H142475   5.225   5.105   1.821 -1.2994 -0.8365 -0.2640
 6972TIP3    H242476   5.261   5.200   1.709  1.0977  0.9415  1.8913
 6973TIP3   OH242477   0.798   5.033   1.945  0.0048  0.0656  0.7620
 6973TIP3    H142478   0.714   5.039   1.992  0.4576 -1.6876  1.8944
 6973TIP3    H242479   0.861   5.073   2.005  0.3580 -0.9143  1.0729
 6974TIP3   OH242480   4.997   0.881   0.542  0.0370  0.0317 -0.3337
 6974TIP3    H142481   4.978   0.819   0.471  0.8499 -1.1043  0.3982
 6974TIP3    H242482   4.911   0.907   0.575 -0.5234  2.8478 -3.5248
 6975TIP3   OH242483   6.743   3.487   0.894 -0.3576  0.1005  0.7706
 6975TIP3    H142484   6.704   3.505   0.808 -0.9883  1.9750  1.4018
 6975TIP3    H242485   6.779   3.398   0.885  0.1383  0.4568 -1.6141
 6976TIP3   OH242486   1.045   6.735   7.958 -0.0628 -0.3517 -0.0516
 6976TIP3    H142487   0.965   6.774   7.992 -0.3679 -1.3707  0.4224
 6976TIP3    H242488   1.108   6.807   7.956 -1.2242  0.6708 -1.2775
 6977TIP3   OH242489   0.296   2.022   0.167  0.1182 -0.2645 -0.0352
 6977TIP3    H142490   0.209   2.060   0.160 -0.5107 -1.4311  1.0211
 6977TIP3    H242491   0.313   2.017   0.261  1.1589 -0.4225 -0.2113
 6978TIP3   OH242492   2.856   1.579   1.164  0.0751  0.4985  0.4243
 6978TIP3    H142493   2.786   1.555   1.224  1.0047 -2.1067  0.6228
 6978TIP3    H242494   2.936   1.571   1.217  0.7609 -0.0668 -0.6503
 6979TIP3   OH242495   2.679   6.534   1.434  0.2731  0.0461 -0.7767
 6979TIP3    H142496   2.605   6.486   1.396 -1.9707  2.2742  0.4818
 6979TIP3    H242497   2.699   6.602   1.370  1.5200 -0.7469 -1.2630
 6980TIP3   OH242498   1.689   4.881   1.456  1.0021  0.4012 -0.2808
 6980TIP3    H142499   1.688   4.789   1.483 -0.7788  0.2079 -0.8701
 6980TIP3    H242500   1.728   4.927   1.530  0.7429 -0.6926  0.5679
 6981TIP3   OH242501   3.833   2.046   7.135 -0.0115  0.2598  0.3606
 6981TIP3    H142502   3.770   2.087   7.076  0.5094 -0.9779 -1.1435
 6981TIP3    H242503   3.831   1.953   7.111  2.3552  0.1731  0.2662
 6982TIP3   OH242504   5.077   3.880   0.570  0.0539 -0.3677 -0.1473
 6982TIP3    H142505   4.998   3.932   0.556  0.6677  0.6596  0.1116
 6982TIP3    H242506   5.045   3.798   0.608 -0.7888  0.5669  1.2777
 6983TIP3   OH242507   3.864   6.061   1.769 -0.2310 -0.3193  0.2737
 6983TIP3    H142508   3.877   6.054   1.674 -0.9432 -2.2897  0.2834
 6983TIP3    H242509   3.769   6.055   1.780 -0.0326 -2.8961  1.2377
 6984TIP3   OH242510   6.705   2.826   0.340 -0.3748  0.0222  0.1274
 6984TIP3    H142511   6.634   2.869   0.387 -1.0815 -1.0195  0.0496
 6984TIP3    H242512   6.716   2.742   0.384  0.5056 -0.0178 -0.1490
 6985TIP3   OH242513   0.750   1.600   6.514 -0.0908 -0.4370 -0.5370
 6985TIP3    H142514   0.729   1.612   6.606 -0.2467  3.8282 -0.9500
 6985TIP3    H242515   0.682   1.649   6.467  1.2412 -0.6216 -2.8199
 6986TIP3   OH242516   2.151   5.857   0.847  0.1258 -0.0703  0.4595
 6986TIP3    H142517   2.174   5.817   0.763 -0.0095  1.6023 -0.4275
 6986TIP3    H242518   2.078   5.805   0.880 -0.1688 -0.4294 -0.7298
 6987TIP3   OH242519   5.408   6.099   8.631 -0.7501  0.3084  0.5515
 6987TIP3    H142520   5.463   6.136   8.562  1.3717  0.3142  2.1533
 6987TIP3    H242521   5.324   6.144   8.621 -1.3948 -1.4126 -3.4915
 6988TIP3   OH242522   5.125   6.657   8.134  0.7068 -0.1947  0.4575
 6988TIP3    H142523   5.202   6.616   8.095  0.0288 -0.1433 -1.0124
 6988TIP3    H242524   5.118   6.743   8.092  0.5612  0.3306  1.5090
 6989TIP3   OH242525   4.063   2.506   7.521 -0.2489  0.2200  0.2156
 6989TIP3    H142526   4.097   2.471   7.439  1.2861  0.0164  0.8988
 6989TIP3    H242527   4.057   2.430   7.579  0.1883  0.5989  0.7678
 6990TIP3   OH242528   0.843   4.780   7.513 -0.8255 -0.4956  0.4498
 6990TIP3    H142529   0.867   4.709   7.573  0.9594  0.2149  0.6338
 6990TIP3    H242530   0.856   4.859   7.565  2.2812  0.2398 -1.2723
 6991TIP3   OH242531   4.642   4.774   7.233  0.2118  0.3670  0.4686
 6991TIP3    H142532   4.618   4.810   7.147 -0.2979 -0.0512  0.4274
 6991TIP3    H242533   4.558   4.758   7.276  0.4284 -0.5616  0.5730
 6992TIP3   OH242534   4.764   4.256   7.433 -0.1854 -0.1111  0.4930
 6992TIP3    H142535   4.853   4.264   7.467 -0.2348 -3.5105  1.8112
 6992TIP3    H242536   4.775   4.261   7.338  1.3592 -0.0765  0.6424
 6993TIP3   OH242537   6.722   6.293   2.382 -0.0478  0.3050 -0.1636
 6993TIP3    H142538   6.732   6.229   2.312  3.6054  1.4201 -0.8566
 6993TIP3    H242539   6.803   6.287   2.432 -1.1910  1.8137  2.0354
 6994TIP3   OH242540   4.964   2.148   6.749 -0.5427 -0.3954 -0.0754
 6994TIP3    H142541   5.033   2.214   6.755 -2.1458  1.3058  0.9041
 6994TIP3    H242542   5.001   2.069   6.788  0.8617  0.4422  0.3204
 6995TIP3   OH242543   1.940   6.714   8.036  0.3746  0.7099  0.1078
 6995TIP3    H142544   1.890   6.778   8.086 -0.0025  0.3164  0.2383
 6995TIP3    H242545   1.874   6.656   7.997  0.7423 -0.2279  0.8405
 6996TIP3   OH242546   2.459   5.764   1.752  0.0547 -0.0903  0.2297
 6996TIP3    H142547   2.444   5.847   1.708 -1.8332 -0.0884  0.7872
 6996TIP3    H242548   2.546   5.737   1.724  1.2811  2.6914  1.0615
 6997TIP3   OH242549   5.739   5.175   1.245  0.7027  0.1606  0.3636
 6997TIP3    H142550   5.663   5.158   1.300  0.0660 -1.1292 -0.8428
 6997TIP3    H242551   5.703   5.184   1.156  1.5604  3.2109  0.1956
 6998TIP3   OH242552   1.870   0.722   8.611 -0.5851 -0.0241  0.0116
 6998TIP3    H142553   1.892   0.635   8.644 -1.2011  0.8829  3.1702
 6998TIP3    H242554   1.776   0.718   8.596 -0.7321  0.2649  0.8208
 6999TIP3   OH242555   5.280   5.498   0.436 -0.1972 -0.1290  0.3806
 6999TIP3    H142556   5.360   5.455   0.405 -0.2569 -0.7495  1.0497
 6999TIP3    H242557   5.237   5.530   0.357  0.0023 -1.0453 -0.1076
 7000TIP3   OH242558   3.978   2.720   6.273 -0.2976  0.0982 -0.3227
 7000TIP3    H142559   4.039   2.672   6.217 -1.5287  0.5984 -2.1774
 7000TIP3    H242560   4.034   2.784   6.318  1.2606 -2.4706  1.6929
 7001TIP3   OH242561   2.315   4.216   0.435  0.2286  0.8984 -0.0975
 7001TIP3    H142562   2.265   4.264   0.501 -0.3439 -0.8594  0.8213
 7001TIP3    H242563   2.319   4.275   0.360 -1.3533  1.9465  0.5858
 7002TIP3   OH242564   6.772   0.882   1.956 -0.7228  0.3104  0.1604
 7002TIP3    H142565   6.786   0.963   2.006  1.9386 -0.5905  1.0340
 7002TIP3    H242566   6.805   0.902   1.868  0.8184 -0.0646  0.6318
 7003TIP3   OH242567   2.852   4.954   0.615  0.2561  0.0701  0.5402
 7003TIP3    H142568   2.789   4.971   0.545  0.9914 -0.8563 -0.3850
 7003TIP3    H242569   2.844   4.861   0.632 -0.1799  0.3510  1.9859
 7004TIP3   OH242570   2.425   3.346   1.461  0.2006 -0.1376 -0.0223
 7004TIP3    H142571   2.404   3.361   1.553  1.1748 -0.9937  0.3456
 7004TIP3    H242572   2.447   3.433   1.428 -1.5484  0.4296  0.1538
 7005TIP3   OH242573   2.425   4.487   2.231  0.2228  0.2092  0.0956
 7005TIP3    H142574   2.501   4.443   2.268 -0.6797 -1.4702  0.0469
 7005TIP3    H242575   2.363   4.416   2.213 -2.0897  1.6374  1.8158
 7006TIP3   OH242576   2.974   3.364   0.070 -0.2663  0.0677  0.0698
 7006TIP3    H142577   2.952   3.428   0.003 -0.1690  0.6832  0.6166
 7006TIP3    H242578   3.058   3.393   0.105 -0.5803  0.0853  0.8452
 7007TIP3   OH242579   6.640   0.496   1.850 -0.0754 -0.0203 -0.4186
 7007TIP3    H142580   6.663   0.540   1.933  1.4906  2.8553 -2.2055
 7007TIP3    H242581   6.722   0.457   1.820 -0.0288  0.9486 -1.6453
 7008TIP3   OH242582   2.619   0.915   1.336 -0.1156  0.2457  0.2314
 7008TIP3    H142583   2.569   0.990   1.368 -1.1023 -0.0433 -0.5769
 7008TIP3    H242584   2.644   0.939   1.247 -1.2674 -0.7488 -0.3864
 7009TIP3   OH242585   1.225   3.186   7.092  0.1733 -0.3342  0.2830
 7009TIP3    H142586   1.234   3.101   7.048  1.2782 -0.4564  0.7368
 7009TIP3    H242587   1.276   3.246   7.038 -0.0238 -0.1013  0.3555
 7010TIP3   OH242588   3.823   2.634   8.153  0.2831  0.1852  0.1943
 7010TIP3    H142589   3.910   2.653   8.188  0.2218  0.8627 -0.0152
 7010TIP3    H242590   3.775   2.715   8.163 -0.0937  0.0379 -0.3929
 7011TIP3   OH242591   2.820   1.065   7.354  0.1363 -0.6607  0.0009
 7011TIP3    H142592   2.807   1.041   7.446  1.3257  0.3518  0.4641
 7011TIP3    H242593   2.891   1.130   7.356  0.7961 -1.2676 -1.7044
 7012TIP3   OH242594   1.309   5.176   2.442  0.2313 -0.0616 -0.4324
 7012TIP3    H142595   1.388   5.149   2.395 -0.0338 -1.3751 -0.1550
 7012TIP3    H242596   1.291   5.264   2.409  2.4630  0.7823  0.3294
 7013TIP3   OH242597   0.174   1.189   0.196 -0.7220  0.1450  0.7985
 7013TIP3    H142598   0.224   1.121   0.152 -1.2361  0.5291 -0.4268
 7013TIP3    H242599   0.174   1.262   0.135  0.4538  1.5486  2.4061
 7014TIP3   OH242600   4.388   6.455   1.855 -0.4181 -0.1549  0.2221
 7014TIP3    H142601   4.354   6.366   1.863 -0.1106 -0.3978 -0.9698
 7014TIP3    H242602   4.317   6.504   1.813  0.3209 -0.4603 -1.4722
 7015TIP3   OH242603   5.276   0.021   1.170  0.2701  0.4602 -0.0688
 7015TIP3    H142604   5.204  -0.028   1.210 -0.5618 -0.3923 -2.4670
 7015TIP3    H242605   5.253   0.113   1.183 -1.3866  0.2066 -0.9429
 7016TIP3   OH242606   2.203   6.287   1.407 -0.0664  0.0979  0.6595
 7016TIP3    H142607   2.143   6.233   1.355  0.0177 -0.9883  1.6517
 7016TIP3    H242608   2.146   6.336   1.467 -0.0318 -0.1928  0.9319
 7017TIP3   OH242609   1.983   6.684   7.206  0.2773 -0.0317  0.3022
 7017TIP3    H142610   1.916   6.740   7.245  0.3793  1.0941 -1.0502
 7017TIP3    H242611   1.997   6.721   7.119  0.7420 -1.8712 -0.4403
 7018TIP3   OH242612   2.483   1.544   0.796  0.8340  0.5106 -0.7995
 7018TIP3    H142613   2.561   1.598   0.792  0.5493  0.9334 -0.7129
 7018TIP3    H242614   2.514   1.455   0.781  1.2101  0.7781 -1.6497
 7019TIP3   OH242615   6.259   4.538   1.303  0.2046  0.0035  0.4698
 7019TIP3    H142616   6.276   4.480   1.378  0.7463 -0.4727 -0.0168
 7019TIP3    H242617   6.239   4.478   1.231  0.8523  0.4140 -0.0611
 7020TIP3   OH242618   2.827   3.995   2.539  0.1670 -0.2843 -0.1250
 7020TIP3    H142619   2.733   3.981   2.550  0.0560  0.2902 -0.3429
 7020TIP3    H242620   2.865   3.968   2.623 -0.1613 -0.7604 -0.1255
 7021TIP3   OH242621   2.634   1.061   1.094 -0.2062 -0.4681 -0.1384
 7021TIP3    H142622   2.661   0.993   1.033 -0.1805 -0.5628 -0.0221
 7021TIP3    H242623   2.680   1.140   1.064  0.7280 -0.7707  0.4339
 7022TIP3   OH242624   4.749   3.891   8.061  0.0717 -0.0544  0.1866
 7022TIP3    H142625   4.665   3.894   8.107  0.6842  0.4406  1.3217
 7022TIP3    H242626   4.804   3.954   8.108  0.8418  0.2121 -1.0243
 7023TIP3   OH242627   1.050   5.922   2.407 -0.3869  0.1018  0.6901
 7023TIP3    H142628   1.059   6.009   2.445  0.1268  0.9634 -1.2611
 7023TIP3    H242629   0.983   5.932   2.339  0.3492 -0.7709 -0.2018
 7024TIP3   OH242630   4.525   4.205   7.559  0.1484 -0.0793 -0.1658
 7024TIP3    H142631   4.539   4.227   7.651 -1.0499  2.1033 -0.4512
 7024TIP3    H242632   4.613   4.195   7.523  0.7031 -3.4628  1.6532
 7025TIP3   OH242633   2.888   5.313   7.829  0.3260  0.3732 -0.3448
 7025TIP3    H142634   2.826   5.343   7.762 -0.9167 -1.1555  0.0574
 7025TIP3    H242635   2.833   5.297   7.906  1.0662 -1.8108 -0.2123
 7026TIP3   OH242636   3.532   3.701   8.365 -0.1350 -0.0179 -0.5526
 7026TIP3    H142637   3.487   3.637   8.310  0.1439 -0.7716  0.0828
 7026TIP3    H242638   3.496   3.785   8.338 -0.6825 -0.4608 -1.2318
 7027TIP3   OH242639   1.220   3.566   2.334  0.2029  0.0323  0.3924
 7027TIP3    H142640   1.286   3.608   2.279  0.3327  1.4099  1.5406
 7027TIP3    H242641   1.189   3.636   2.391  0.7856 -1.5063  2.7428
 7028TIP3   OH242642   3.945   0.673   0.165 -0.3226  0.7619  0.6640
 7028TIP3    H142643   3.879   0.742   0.174 -1.1122  0.4778 -1.9383
 7028TIP3    H242644   3.908   0.613   0.100  1.5590 -0.6118  0.7691
 7029TIP3   OH242645   5.869   4.932   8.465 -0.1537  1.0622 -0.1860
 7029TIP3    H142646   5.774   4.941   8.454 -0.0986  0.0316 -1.6545
 7029TIP3    H242647   5.883   4.838   8.477  0.8447  0.9674 -1.8703
 7030TIP3   OH242648   0.373   4.957   1.003  0.0500 -0.1387 -0.3607
 7030TIP3    H142649   0.456   4.926   0.967  1.0941 -0.8808  2.4098
 7030TIP3    H242650   0.395   4.988   1.091 -2.2611  1.7451 -0.3319
 7031TIP3   OH242651   6.190   4.925   8.146 -0.3196  0.1027 -0.4966
 7031TIP3    H142652   6.096   4.909   8.157 -0.4007  0.2756 -0.8966
 7031TIP3    H242653   6.217   4.861   8.080  0.3584 -1.5907  1.3602
 7032TIP3   OH242654   0.748   6.811   1.211  0.3841 -0.6768 -0.5765
 7032TIP3    H142655   0.755   6.885   1.271  0.0705 -1.3877  0.3836
 7032TIP3    H242656   0.668   6.766   1.239  0.2523 -1.0389 -1.5211
 7033TIP3   OH242657   5.083   0.123   0.302 -0.5162 -0.0034 -0.0877
 7033TIP3    H142658   5.163   0.097   0.255  0.6886  0.2916  1.6720
 7033TIP3    H242659   5.038   0.041   0.319  1.3037 -0.6561  2.0516
 7034TIP3   OH242660   0.844   6.573   2.006 -0.7404 -0.0600 -0.1569
 7034TIP3    H142661   0.915   6.562   1.944  0.0123 -2.0833  0.9897
 7034TIP3    H242662   0.862   6.510   2.076 -3.8593 -0.9789 -0.0111
 7035TIP3   OH242663   0.195   3.439   1.285 -0.2019  0.3410  0.2309
 7035TIP3    H142664   0.260   3.486   1.338 -0.5431  0.3868  0.6106
 7035TIP3    H242665   0.135   3.400   1.348 -0.6401  0.4340 -0.1175
 7036TIP3   OH242666   6.271   2.825   1.238 -0.2656 -0.9016 -0.2277
 7036TIP3    H142667   6.213   2.897   1.262  2.1868  1.1738 -0.0931
 7036TIP3    H242668   6.213   2.750   1.224 -2.8545  0.8679  0.4654
 7037TIP3   OH242669   4.736   3.460   2.158 -0.0762  0.7439  0.3378
 7037TIP3    H142670   4.697   3.373   2.169  1.2045 -0.0667 -1.1288
 7037TIP3    H242671   4.826   3.450   2.188  0.5695  1.0872 -1.3937
 7038TIP3   OH242672   3.631   2.566   8.436 -0.6883 -0.2096 -0.1841
 7038TIP3    H142673   3.649   2.598   8.348  1.5131 -2.0225 -0.4828
 7038TIP3    H242674   3.659   2.637   8.494 -0.7652  0.4100 -0.8906
 7039TIP3   OH242675   1.718   3.757   1.526  0.5982 -0.1331  0.3513
 7039TIP3    H142676   1.728   3.851   1.543  0.0908 -0.0434  0.1767
 7039TIP3    H242677   1.626   3.739   1.546 -0.3742  0.1951 -3.2486
 7040TIP3   OH242678   0.275   4.160   7.486  0.0931  0.0287 -0.2557
 7040TIP3    H142679   0.214   4.112   7.542  0.0788 -0.1999 -0.4691
 7040TIP3    H242680   0.350   4.178   7.543  0.0494 -0.1438 -0.1421
 7041TIP3   OH242681   2.196   5.147   0.747 -0.6222 -0.0732 -0.3099
 7041TIP3    H142682   2.260   5.076   0.750  0.1504  0.6158 -0.0733
 7041TIP3    H242683   2.208   5.195   0.829 -3.0595 -1.2654  0.8614
 7042TIP3   OH242684   2.510   5.585   2.166  0.6488  0.3748  0.5502
 7042TIP3    H142685   2.582   5.523   2.154  1.4605  1.1619  1.2625
 7042TIP3    H242686   2.496   5.589   2.260  0.5502  1.2055  0.5114
 7043TIP3   OH242687   3.604   0.197   2.029  0.4132  0.0857  0.2316
 7043TIP3    H142688   3.516   0.171   2.003 -0.2980  1.1103  1.4774
 7043TIP3    H242689   3.653   0.116   2.033 -0.7529 -0.6225  0.5287
 7044TIP3   OH242690   5.137   4.626   8.132  0.2204  0.4188  0.3229
 7044TIP3    H142691   5.166   4.619   8.041  0.6715  0.2241  0.4824
 7044TIP3    H242692   5.046   4.597   8.131 -0.1918  1.6516 -0.2953
 7045TIP3   OH242693   4.199   2.460   7.044 -0.5490 -0.2502 -0.3834
 7045TIP3    H142694   4.289   2.470   7.013 -0.1822 -1.2783  0.2740
 7045TIP3    H242695   4.167   2.549   7.055  0.3830  0.1329 -0.6608
 7046TIP3   OH242696   1.717   0.860   7.869  0.5798 -0.2759  0.1542
 7046TIP3    H142697   1.803   0.901   7.857 -0.0457  1.6094  1.7065
 7046TIP3    H242698   1.660   0.908   7.809  0.2241 -0.2011  0.5513
 7047TIP3   OH242699   4.463   0.160   6.736  0.0439  0.1868  0.3790
 7047TIP3    H142700   4.398   0.117   6.792  2.7364 -0.6736  3.1075
 7047TIP3    H242701   4.452   0.253   6.755  0.2263 -0.0256  1.6128
 7048TIP3   OH242702   4.717   2.641   0.536  0.5913 -0.0258 -0.2570
 7048TIP3    H142703   4.661   2.585   0.483  2.4475 -3.5736  1.2101
 7048TIP3    H242704   4.657   2.692   0.590 -1.2123  0.0743 -2.2440
 7049TIP3   OH242705   3.896   0.142   7.702 -0.4706  0.5611 -0.1750
 7049TIP3    H142706   3.945   0.103   7.630 -0.4669 -0.8387  0.5506
 7049TIP3    H242707   3.823   0.082   7.717  0.1223  0.2049  1.6697
 7050TIP3   OH242708   2.026   1.879   0.813 -0.4932  0.2040 -0.3167
 7050TIP3    H142709   1.991   1.923   0.735 -0.3018  0.3155 -0.3395
 7050TIP3    H242710   1.998   1.935   0.886 -1.2163 -0.2386 -0.2520
 7051TIP3   OH242711   0.212   4.063   8.057 -0.2254 -0.0460 -0.7875
 7051TIP3    H142712   0.148   4.106   8.001 -2.3664 -1.2896  0.5219
 7051TIP3    H242713   0.257   4.001   8.000 -0.6215  0.4490 -1.6477
 7052TIP3   OH242714   3.492   3.820   1.546  0.0391 -0.0945  0.5198
 7052TIP3    H142715   3.536   3.743   1.582  0.6859 -0.0598 -0.1594
 7052TIP3    H242716   3.539   3.839   1.465  0.2444  1.3468  0.9439
 7053TIP3   OH242717   4.721   6.118   0.434  0.5899  0.4597  0.3596
 7053TIP3    H142718   4.805   6.153   0.463  0.4086  0.3353  1.0784
 7053TIP3    H242719   4.736   6.023   0.426  0.0311  0.1290  2.4605
 7054TIP3   OH242720   2.902   6.824   1.698 -0.1572  0.1359 -0.4036
 7054TIP3    H142721   2.853   6.767   1.758  0.0425  2.0244  1.6618
 7054TIP3    H242722   2.982   6.775   1.680 -1.1860 -1.4394 -0.9810
 7055TIP3   OH242723   5.608   6.044   2.223 -0.2974  0.5776 -0.4625
 7055TIP3    H142724   5.624   6.072   2.313  1.2496  0.1359 -0.5678
 7055TIP3    H242725   5.621   6.123   2.171 -0.1899  0.6158 -0.3805
 7056TIP3   OH242726   1.495   2.149   7.969 -0.0586 -0.4176  0.0176
 7056TIP3    H142727   1.433   2.218   7.992 -0.9059 -1.4432  0.9243
 7056TIP3    H242728   1.578   2.179   8.004 -0.6294 -0.3142  1.3502
 7057TIP3   OH242729   5.649   0.305   1.211 -0.3214 -0.1589 -0.5530
 7057TIP3    H142730   5.643   0.213   1.186 -1.8684 -0.1487 -0.3309
 7057TIP3    H242731   5.742   0.320   1.225 -0.0852 -1.7998 -0.1579
 7058TIP3   OH242732   1.905   1.927   7.044  0.2981 -0.2522 -0.0153
 7058TIP3    H142733   1.828   1.948   7.096 -0.3469  0.9632 -1.3757
 7058TIP3    H242734   1.974   1.910   7.108 -1.2324 -2.0417  1.2531
 7059TIP3   OH242735   3.619   5.689   0.525 -0.1333 -0.3943  0.3309
 7059TIP3    H142736   3.711   5.714   0.519  0.5409 -2.5762  0.9219
 7059TIP3    H242737   3.577   5.765   0.566  1.2468  0.9100 -0.5521
 7060TIP3   OH242738   0.081   2.732   0.307 -0.0356 -0.3492 -0.0211
 7060TIP3    H142739   0.136   2.777   0.371  0.8747  1.2023 -1.7982
 7060TIP3    H242740  -0.006   2.769   0.319  0.2805  0.4374 -0.1340
 7061TIP3   OH242741   2.759   1.261   0.339  0.5437 -0.9439  0.3945
 7061TIP3    H142742   2.792   1.350   0.335  1.7403 -1.4107 -1.3620
 7061TIP3    H242743   2.813   1.218   0.405  0.7744 -0.6566  0.3938
 7062TIP3   OH242744   0.244   0.831   7.435 -0.3960  0.3186 -0.3888
 7062TIP3    H142745   0.226   0.882   7.514 -0.5581  2.0992 -1.5147
 7062TIP3    H242746   0.159   0.823   7.392  0.0675  1.6770 -1.6542
 7063TIP3   OH242747   3.178   3.291   0.358 -0.8101  0.0210  0.1156
 7063TIP3    H142748   3.203   3.381   0.380 -2.5159  0.2055  1.6131
 7063TIP3    H242749   3.259   3.241   0.362  0.7066  1.8619 -3.4020
 7064TIP3   OH242750   1.206   2.589   1.448  0.6920 -0.2781 -0.2249
 7064TIP3    H142751   1.255   2.605   1.367  0.4463  0.3245 -0.2658
 7064TIP3    H242752   1.205   2.675   1.491 -1.0750 -0.0446 -0.6515
 7065TIP3   OH242753   2.032   3.338   7.292 -0.2364  0.1200  0.3461
 7065TIP3    H142754   2.050   3.432   7.290 -3.4513  0.9047 -2.5245
 7065TIP3    H242755   2.061   3.306   7.207 -1.6340 -0.8185  0.1792
 7066TIP3   OH242756   3.841   3.932   8.255  0.3266 -0.3754  0.1147
 7066TIP3    H142757   3.910   3.986   8.293  0.1665 -0.7463  0.9435
 7066TIP3    H242758   3.784   3.994   8.209  0.3994  0.0982  0.6580
 7067LIG     C142759   5.727   1.803   3.801 -0.4773 -0.5214 -0.4087
 7067LIG     N142760   5.691   1.764   3.934  0.2065 -0.4419 -0.2405
 7067LIG     C242761   5.602   1.669   3.973  0.4722 -0.5137  0.3560
 7067LIG     N242762   5.592   1.667   4.111  0.1805 -0.3648  0.0868
 7067LIG     C342763   5.689   1.755   4.157 -0.6967  0.5205  0.0603
 7067LIG     C442764   5.752   1.817   4.051 -0.2860  0.4162 -0.1000
 7067LIG     C542765   5.847   1.922   4.073  0.5567 -0.8263  0.1521
 7067LIG     O142766   5.901   1.988   3.983 -0.1778  0.2552  0.1893
 7067LIG     N342767   5.877   1.945   4.211 -0.2900 -0.4904  0.3132
 7067LIG     C642768   5.813   1.882   4.319  0.0363 -0.0756  0.4281
 7067LIG     O242769   5.836   1.910   4.434 -0.1071 -0.4722  0.0648
 7067LIG     N442770   5.715   1.789   4.289  0.5542  0.3784  1.1760
 7067LIG     C742771   5.665   1.723   4.411 -0.7110 -0.2616 -0.4367
 7067LIG     C842772   5.980   2.046   4.240 -0.5261 -0.0793  0.3494
 7067LIG     H142773   5.686   1.905   3.788 -0.1290  0.0881  2.5982
 7067LIG     H242774   5.674   1.752   3.717  0.5453  0.7631 -1.9038
 7067LIG     H342775   5.838   1.808   3.791 -0.5554 -0.1433 -1.2012
 7067LIG     H442776   5.540   1.611   3.905  0.3204  0.3662 -0.2679
 7067LIG     H542777   5.630   1.791   4.492  2.9696 -1.6735  2.6477
 7067LIG     H642778   5.745   1.664   4.461 -1.8198 -1.5762 -0.1649
 7067LIG     H742779   5.579   1.659   4.381 -2.3326  1.8934 -0.6309
 7067LIG     H842780   6.085   2.016   4.221 -1.6350 -1.9837 -4.0032
 7067LIG     H942781   5.981   2.080   4.346 -0.0308  2.3869 -0.3981
 7067LIG    H1042782   5.965   2.142   4.187  2.4034  0.2416 -0.0579
   6.88534   6.88534   8.66966
