Title
42773
    1SAPS     N    1   4.510   5.602   7.194  0.4558 -0.2823  0.2697
    1SAPS   HN1    2   4.604   5.617   7.152  0.0675  1.4979 -0.0396
    1SAPS   HN2    3   4.522   5.534   7.272  0.6238 -0.1628  0.3489
    1SAPS   HN3    4   4.446   5.553   7.130  0.8211 -1.7001  0.9508
    1SAPS   C12    5   4.461   5.729   7.253  0.1508 -0.0710 -0.3547
    1SAPS  H12A    6   4.399   5.774   7.177  0.2224  0.8217  0.1110
    1SAPS   C13    7   4.377   5.711   7.384  0.2641  0.6762 -1.0031
    1SAPS  O13A    8   4.355   5.601   7.431 -0.2997 -0.5743 -0.3209
    1SAPS  O13B    9   4.336   5.818   7.444 -0.5170  0.1981  0.5215
    1SAPS   C11   10   4.581   5.832   7.278  0.4191  0.3098 -0.0699
    1SAPS  H11A   11   4.657   5.785   7.344 -0.4412 -0.8829  0.0931
    1SAPS  H11B   12   4.530   5.915   7.332 -2.5480 -1.1387 -0.4561
    1SAPS     P   13   4.758   5.969   7.148  0.1807 -0.4569 -0.1344
    1SAPS   O13   14   4.835   5.973   7.278 -0.3781 -0.5266  0.4463
    1SAPS   O14   15   4.841   5.934   7.027  0.3558  0.2658 -1.2218
    1SAPS   O12   16   4.635   5.874   7.157 -0.1322 -0.8014  0.0039
    1SAPS   O11   17   4.707   6.114   7.113 -0.3043 -0.6687  0.0256
    1SAPS    C1   18   4.570   6.134   7.083  0.5449 -0.0241  0.0009
    1SAPS    HA   19   4.497   6.062   7.126  1.2666 -0.2005  0.9663
    1SAPS    HB   20   4.545   6.229   7.136  0.5172  0.2039 -0.4149
    1SAPS    C2   21   4.555   6.165   6.932  0.4671  0.5910 -0.1912
    1SAPS    HS   22   4.458   6.213   6.911 -0.1301 -0.0412  1.0192
    1SAPS   O21   23   4.569   6.045   6.848  0.8333 -0.1192 -0.5479
    1SAPS   C21   24   4.468   5.954   6.861 -0.0630  0.0028  0.3395
    1SAPS   O22   25   4.371   5.974   6.925  0.0670 -0.2064 -0.3691
    1SAPS   C22   26   4.500   5.823   6.796 -0.1160  0.0412 -0.4910
    1SAPS   H2R   27   4.535   5.837   6.691 -0.4519  0.3874 -0.5575
    1SAPS   H2S   28   4.586   5.777   6.850 -0.1948  1.5453  0.9962
    1SAPS    C3   29   4.653   6.281   6.878 -0.5078  0.4817 -0.6540
    1SAPS    HX   30   4.753   6.247   6.913 -0.5345 -0.5271 -1.5211
    1SAPS    HY   31   4.619   6.363   6.945 -0.0342 -1.6334  2.3605
    1SAPS   O31   32   4.628   6.301   6.739  0.0253  0.2093 -0.6059
    1SAPS   C31   33   4.713   6.381   6.676  0.2122 -0.2936  0.0327
    1SAPS   O32   34   4.799   6.438   6.737 -0.4677 -0.0104  0.4342
    1SAPS   C32   35   4.679   6.368   6.528 -0.7157  0.3780 -0.0510
    1SAPS   H2X   36   4.579   6.323   6.508 -0.7944  0.7688 -0.5483
    1SAPS   H2Y   37   4.748   6.294   6.482  0.1340  1.0930  0.0466
    1SAPS   C23   38   4.384   5.717   6.792  0.3358  0.3527  0.8148
    1SAPS   H3R   39   4.344   5.714   6.895  1.8701  0.3247  1.4256
    1SAPS   H3S   40   4.431   5.619   6.772 -0.1089  0.4371 -0.7931
    1SAPS   C24   41   4.275   5.748   6.685 -0.3092 -0.4812 -0.1121
    1SAPS   H4R   42   4.317   5.740   6.583 -1.5820 -2.6168 -0.5356
    1SAPS   H4S   43   4.227   5.848   6.693 -1.0102 -0.8793  0.8756
    1SAPS   C25   44   4.175   5.636   6.708  0.2039  0.3228 -0.1131
    1SAPS   H5R   45   4.169   5.600   6.812  0.5773 -0.9653 -0.5070
    1SAPS   C26   46   4.098   5.571   6.617 -0.6812  0.3666  0.2637
    1SAPS   H6R   47   4.044   5.482   6.652  1.2991 -0.9446  0.1523
    1SAPS   C27   48   4.111   5.594   6.467 -0.4552  0.1202 -0.6643
    1SAPS   H7R   49   4.128   5.500   6.411  0.8766  0.0988 -0.2621
    1SAPS   H7S   50   4.211   5.639   6.451  0.5465 -1.1452  1.6558
    1SAPS   C28   51   4.003   5.674   6.408  0.3145 -0.6437  0.1408
    1SAPS   H8R   52   3.909   5.677   6.465  1.0325  1.3351  1.3057
    1SAPS   C29   53   4.008   5.727   6.281  0.2351 -0.0304  0.0061
    1SAPS   H9R   54   3.931   5.802   6.259  0.9159  0.3900 -1.0119
    1SAPS  C210   55   4.118   5.717   6.181 -0.2244  0.1878 -0.0879
    1SAPS  H10R   56   4.110   5.639   6.103 -0.1822 -1.1300  1.1696
    1SAPS  H10S   57   4.213   5.689   6.231 -0.6732 -0.7478  0.2720
    1SAPS  C211   58   4.139   5.848   6.110 -0.3769 -0.0251  0.7156
    1SAPS  H11R   59   4.212   5.917   6.154  0.2681  1.5022 -2.4551
    1SAPS  C212   60   4.092   5.888   5.990 -0.3418  0.1088 -0.2730
    1SAPS  H12R   61   4.116   5.989   5.954  0.8017  0.6260  1.7873
    1SAPS  C213   62   3.996   5.811   5.904  0.1599 -0.2384 -0.5742
    1SAPS  H13R   63   3.914   5.880   5.873 -0.2726  0.0237  1.0640
    1SAPS  H13S   64   3.951   5.725   5.958 -0.5192  0.0791 -0.6210
    1SAPS  C214   65   4.058   5.732   5.789  0.1975 -0.9381 -0.3146
    1SAPS  H14R   66   4.110   5.641   5.821 -1.3081 -1.3407  1.0940
    1SAPS  C215   67   4.055   5.764   5.655 -0.0976  0.0945  0.2585
    1SAPS  H15R   68   4.112   5.697   5.589  1.9097  0.1155  1.8460
    1SAPS  C216   69   3.982   5.880   5.595 -0.0513  0.4963 -0.5755
    1SAPS  H16R   70   3.939   5.947   5.673 -1.0003 -2.7086  1.8881
    1SAPS  H16S   71   3.894   5.838   5.541 -0.5652 -0.3735  0.8818
    1SAPS  C217   72   4.044   5.953   5.482 -0.5741  0.6044 -0.0913
    1SAPS  H17R   73   4.146   5.979   5.518 -0.9995  1.0932  0.8098
    1SAPS  H17S   74   3.992   6.049   5.463 -1.0113  0.5473  0.7595
    1SAPS  C218   75   4.067   5.870   5.354  0.2011  0.2769 -0.3467
    1SAPS  H18R   76   3.967   5.841   5.316  0.0906  1.0957 -0.6916
    1SAPS  H18S   77   4.134   5.784   5.376 -0.1085 -0.2545 -1.3980
    1SAPS  C219   78   4.141   5.958   5.255 -0.0572  0.2098  0.7687
    1SAPS  H19R   79   4.239   5.990   5.296  1.2877  1.7201 -3.1048
    1SAPS  H19S   80   4.087   6.055   5.252  0.4734  0.4978  0.1733
    1SAPS  C220   81   4.178   5.876   5.128  0.2346  0.1499 -0.1811
    1SAPS  H20R   82   4.230   5.945   5.059  0.4949 -1.5766 -1.8071
    1SAPS  H20S   83   4.080   5.853   5.080 -1.3459  1.4018  2.2720
    1SAPS  H20T   84   4.244   5.789   5.150  1.2583  0.8822 -0.3340
    1SAPS   C33   85   4.716   6.503   6.463 -0.1731 -0.6100  0.4446
    1SAPS   H3X   86   4.823   6.523   6.486 -0.0609 -0.2672 -0.3131
    1SAPS   H3Y   87   4.651   6.579   6.512 -0.3883  1.3311 -2.5565
    1SAPS   C34   88   4.694   6.520   6.315  0.2167  0.0597 -0.2981
    1SAPS   H4X   89   4.708   6.627   6.289 -3.0166  0.6027 -0.2300
    1SAPS   H4Y   90   4.594   6.475   6.304  0.5930 -1.0904  0.7050
    1SAPS   C35   91   4.786   6.445   6.212 -0.0869  0.7908  0.2912
    1SAPS   H5X   92   4.779   6.334   6.223  2.1604  0.7682  2.5698
    1SAPS   H5Y   93   4.893   6.474   6.220  0.6411 -0.1762 -3.8036
    1SAPS   C36   94   4.738   6.474   6.066 -0.7200  0.1374  0.4418
    1SAPS   H6X   95   4.737   6.582   6.039 -2.6547 -0.0556 -0.4429
    1SAPS   H6Y   96   4.635   6.434   6.056 -0.3739 -1.1102  1.4897
    1SAPS   C37   97   4.828   6.405   5.960 -0.9140  0.1374 -0.3029
    1SAPS   H7X   98   4.829   6.300   5.994  1.5166 -0.0298 -0.6852
    1SAPS   H7Y   99   4.932   6.445   5.964 -0.4087 -1.2562  2.0289
    1SAPS   C38  100   4.776   6.401   5.815 -0.2524  0.2531 -0.0548
    1SAPS   H8X  101   4.736   6.502   5.795 -0.8285  0.3591  1.5376
    1SAPS   H8Y  102   4.695   6.327   5.798  1.0505 -0.9646 -1.2958
    1SAPS   C39  103   4.879   6.362   5.709  0.1780  0.2394  0.0906
    1SAPS   H9X  104   4.922   6.266   5.745 -0.1604 -0.1097 -0.4212
    1SAPS   H9Y  105   4.953   6.443   5.721 -1.3944  1.7290  0.1214
    1SAPS  C310  106   4.822   6.360   5.568 -0.0125 -0.8716  0.2457
    1SAPS  H10X  107   4.762   6.452   5.547  2.7277  1.1071  0.4767
    1SAPS  H10Y  108   4.767   6.266   5.548  0.0172 -0.8026 -0.1766
    1SAPS  C311  109   4.943   6.376   5.473 -0.1193  0.1799  0.0046
    1SAPS  H11X  110   5.027   6.305   5.487  1.4350  1.7142 -1.0982
    1SAPS  H11Y  111   4.995   6.473   5.488  1.0229 -0.5040  0.6011
    1SAPS  C312  112   4.914   6.365   5.321 -0.0468  0.6886 -0.1519
    1SAPS  H12X  113   4.834   6.435   5.287  1.1027  1.6440 -0.9551
    1SAPS  H12Y  114   4.861   6.267   5.316 -3.2930  2.2822  0.2958
    1SAPS  C313  115   5.038   6.374   5.232  0.2633 -0.1917 -0.5672
    1SAPS  H13X  116   5.108   6.296   5.268  0.5106  0.3882  0.2384
    1SAPS  H13Y  117   5.082   6.476   5.242  0.3197 -0.4131  2.2700
    1SAPS  C314  118   4.998   6.364   5.081 -0.3600 -0.3381  0.0329
    1SAPS  H14X  119   4.962   6.260   5.070  2.4238 -1.6107  1.6191
    1SAPS  H14Y  120   5.088   6.382   5.018  0.8367 -1.3766  1.3568
    1SAPS  C315  121   4.894   6.475   5.047 -0.3750  0.2878 -0.4651
    1SAPS  H15X  122   4.921   6.571   5.096 -1.6718  0.0877  0.6925
    1SAPS  H15Y  123   4.788   6.460   5.075 -0.7176  0.0172 -1.8211
    1SAPS  C316  124   4.889   6.504   4.894  0.3037  0.1007  0.2518
    1SAPS  H16X  125   4.838   6.426   4.834 -1.6758  1.2579  0.3381
    1SAPS  H16Y  126   4.992   6.502   4.852 -0.6529 -1.8341 -2.2436
    1SAPS  C317  127   4.824   6.630   4.842 -0.5554  0.2490  0.0024
    1SAPS  H17X  128   4.876   6.652   4.746  0.9589  1.0425  0.9553
    1SAPS  H17Y  129   4.840   6.710   4.917 -1.7623 -0.6692  1.2944
    1SAPS  C318  130   4.681   6.614   4.798  0.6847 -0.0349  0.3984
    1SAPS  H18X  131   4.658   6.710   4.747  1.7493  0.2894  0.5043
    1SAPS  H18Y  132   4.611   6.594   4.882 -0.5302 -0.0772 -0.6043
    1SAPS  H18Z  133   4.679   6.532   4.723  1.4586  1.0779 -0.9004
    2SAPS     N  134   4.434   6.823   7.285  0.3432  0.9896 -0.7538
    2SAPS   HN1  135   4.429   6.722   7.258 -0.5466  0.6079  0.7157
    2SAPS   HN2  136   4.382   6.881   7.217 -0.4329  0.6577 -0.4562
    2SAPS   HN3  137   4.534   6.852   7.281  1.3259 -1.2219  2.6262
    2SAPS   C12  138   4.391   6.846   7.427  0.2540 -0.3011 -0.0643
    2SAPS  H12A  139   4.286   6.821   7.432  0.4617 -1.0524  1.2648
    2SAPS   C13  140   4.466   6.763   7.536  0.0730  0.8028  0.3013
    2SAPS  O13A  141   4.551   6.676   7.489 -0.5190  0.2816  0.6968
    2SAPS  O13B  142   4.425   6.754   7.651  0.3610  0.0072  0.1656
    2SAPS   C11  143   4.420   6.994   7.463 -0.0491  0.3403 -0.7515
    2SAPS  H11A  144   4.529   7.005   7.479 -0.3936  1.8687  0.8179
    2SAPS  H11B  145   4.362   7.009   7.557  0.9820 -0.3953  0.0232
    2SAPS     P  146   4.353   7.238   7.389  0.2083 -0.0052  0.0650
    2SAPS   O13  147   4.313   7.264   7.531  0.5396 -0.3812 -0.2168
    2SAPS   O14  148   4.465   7.313   7.338  0.1892 -0.0770  0.3958
    2SAPS   O12  149   4.372   7.082   7.365  0.3143 -0.1919 -0.2995
    2SAPS   O11  150   4.230   7.267   7.291 -0.1116 -0.4180  0.1379
    2SAPS    C1  151   4.217   7.200   7.166 -0.0417 -0.0978 -0.0922
    2SAPS    HA  152   4.315   7.179   7.118 -0.0314 -0.0692 -0.0831
    2SAPS    HB  153   4.170   7.100   7.174 -0.8826  0.2876 -0.1602
    2SAPS    C2  154   4.138   7.291   7.073 -0.2798 -0.2843  0.6967
    2SAPS    HS  155   4.037   7.307   7.117  0.4278  2.0712  1.6134
    2SAPS   O21  156   4.139   7.213   6.948  0.3408  0.2692  0.2286
    2SAPS   C21  157   4.039   7.230   6.865  0.3924 -0.0818 -0.0785
    2SAPS   O22  158   3.935   7.295   6.889 -0.1797  0.1436 -0.1649
    2SAPS   C22  159   4.070   7.164   6.733 -0.2033  0.0398 -0.4082
    2SAPS   H2R  160   4.180   7.163   6.719 -0.0968  1.7290  0.1244
    2SAPS   H2S  161   4.060   7.054   6.746  0.1980 -0.1486 -1.6044
    2SAPS    C3  162   4.197   7.434   7.043  0.3594  0.0731 -0.4528
    2SAPS    HX  163   4.305   7.419   7.020  0.4456 -0.5695  0.3050
    2SAPS    HY  164   4.191   7.488   7.140  1.3634  0.8984 -0.8306
    2SAPS   O31  165   4.123   7.502   6.939  0.1172 -0.4579 -0.0698
    2SAPS   C31  166   4.155   7.620   6.916 -0.3655 -0.0158  0.0449
    2SAPS   O32  167   4.256   7.678   6.960  0.0976  0.1880 -0.2413
    2SAPS   C32  168   4.068   7.689   6.809 -0.1047 -0.1618  0.3079
    2SAPS   H2X  169   4.116   7.789   6.799  0.2344 -0.2806  0.7287
    2SAPS   H2Y  170   3.966   7.709   6.850  0.1246  0.5702  0.5500
    2SAPS   C23  171   4.002   7.212   6.602 -0.8722  0.2051 -0.1450
    2SAPS   H3R  172   4.051   7.309   6.582  0.9857  0.1488  3.2952
    2SAPS   H3S  173   3.891   7.219   6.607 -0.7885  2.1764 -0.2581
    2SAPS   C24  174   4.034   7.118   6.482 -0.0225 -0.0968  0.3716
    2SAPS   H4R  175   4.141   7.089   6.484 -0.6003 -2.3847  1.1655
    2SAPS   H4S  176   4.018   7.183   6.393 -0.9538  0.4991  0.9562
    2SAPS   C25  177   3.951   6.992   6.501  0.0263 -0.1854 -1.1001
    2SAPS   H5R  178   3.912   6.965   6.600 -0.5049 -1.1169 -1.5537
    2SAPS   C26  179   3.909   6.926   6.393  0.7530 -0.8827  0.1424
    2SAPS   H6R  180   3.840   6.843   6.415 -0.0015  0.2734  2.5709
    2SAPS   C27  181   3.934   6.959   6.246  0.1002  0.3356  0.2356
    2SAPS   H7R  182   4.028   7.017   6.236 -0.4102  1.2536  0.6653
    2SAPS   H7S  183   3.849   7.018   6.205  0.0720 -1.0977 -1.9742
    2SAPS   C28  184   3.948   6.838   6.164  0.0247  0.4008  0.2367
    2SAPS   H8R  185   3.956   6.743   6.219 -2.6155 -0.5196 -0.8160
    2SAPS   C29  186   3.940   6.828   6.030  0.1627  0.2068  0.0658
    2SAPS   H9R  187   3.967   6.734   5.980  1.1215  0.3802  0.2318
    2SAPS  C210  188   3.907   6.938   5.930 -0.0088  0.3306 -0.1637
    2SAPS  H10R  189   3.878   7.028   5.989  0.3143  0.4015 -0.1099
    2SAPS  H10S  190   3.809   6.908   5.886 -0.3788 -1.1647  1.5978
    2SAPS  C211  191   4.018   6.962   5.829  0.2361 -1.0860  0.0924
    2SAPS  H11R  192   4.122   6.932   5.849  1.4156  1.3754 -1.7235
    2SAPS  C212  193   3.985   7.021   5.710 -0.1679  0.9336  0.1964
    2SAPS  H12R  194   4.065   7.035   5.636  0.3867  0.0156  0.6048
    2SAPS  C213  195   3.846   7.073   5.677  0.0077  0.4111 -0.4898
    2SAPS  H13R  196   3.798   7.100   5.774 -0.4258 -2.8611  0.3060
    2SAPS  H13S  197   3.784   6.991   5.636  0.9646 -0.1844 -0.7723
    2SAPS  C214  198   3.847   7.188   5.589 -0.9451 -0.2441 -0.0750
    2SAPS  H14R  199   3.833   7.282   5.644  1.7131  0.2906 -0.1778
    2SAPS  C215  200   3.856   7.180   5.460  0.3499 -0.3307 -0.2470
    2SAPS  H15R  201   3.857   7.274   5.403  1.6194  0.5859  1.1989
    2SAPS  C216  202   3.868   7.058   5.385 -0.1489  0.5309  0.8096
    2SAPS  H16R  203   3.773   7.004   5.370  1.3148 -1.7128 -1.2715
    2SAPS  H16S  204   3.938   6.989   5.438  1.0536  0.6853 -0.5081
    2SAPS  C217  205   3.930   7.076   5.248 -0.1129 -0.3067 -0.3030
    2SAPS  H17R  206   3.960   6.977   5.208  0.8531 -1.5594  3.1712
    2SAPS  H17S  207   4.021   7.139   5.258  1.5716 -2.5793 -0.6386
    2SAPS  C218  208   3.844   7.147   5.137 -0.1976  0.3583  0.3202
    2SAPS  H18R  209   3.831   7.255   5.160  3.7668  1.7339 -2.7338
    2SAPS  H18S  210   3.743   7.102   5.129 -0.3261  0.3201  1.8457
    2SAPS  C219  211   3.917   7.130   5.001  0.2802 -0.2807 -0.2580
    2SAPS  H19R  212   3.929   7.021   4.984  0.5132 -0.6622  2.0227
    2SAPS  H19S  213   4.012   7.180   5.026 -0.4177 -0.4918  3.4337
    2SAPS  C220  214   3.851   7.192   4.874 -0.3940  0.0448 -0.0993
    2SAPS  H20R  215   3.890   7.152   4.778 -0.2163  1.2913 -0.5654
    2SAPS  H20S  216   3.874   7.300   4.871 -2.2696  0.4642 -0.2237
    2SAPS  H20T  217   3.741   7.180   4.874 -0.4790  0.3266 -2.6657
    2SAPS   C33  218   4.067   7.620   6.676  0.8864  0.0104  1.0958
    2SAPS   H3X  219   4.030   7.516   6.684  0.9892 -0.5385 -3.4029
    2SAPS   H3Y  220   4.172   7.604   6.644  0.3052 -0.4687 -0.6813
    2SAPS   C34  221   3.985   7.685   6.568 -0.1829 -0.1093  0.2684
    2SAPS   H4X  222   4.042   7.762   6.512  0.5001 -0.4823  0.4385
    2SAPS   H4Y  223   3.891   7.725   6.611 -0.1877  0.9555 -0.6791
    2SAPS   C35  224   3.951   7.575   6.466  0.0457  0.2610  0.0995
    2SAPS   H5X  225   3.885   7.628   6.394  1.5814  2.6325  0.3317
    2SAPS   H5Y  226   3.890   7.490   6.506 -1.8748  2.1136  1.3100
    2SAPS   C36  227   4.077   7.528   6.390  0.3431  0.0664 -0.3058
    2SAPS   H6X  228   4.140   7.458   6.450  2.3925  1.1460 -1.1063
    2SAPS   H6Y  229   4.140   7.619   6.389 -0.8880  1.0057  1.4769
    2SAPS   C37  230   4.077   7.483   6.243 -0.3600  0.3769  0.0286
    2SAPS   H7X  231   3.994   7.409   6.241  0.0505 -0.1641  1.4596
    2SAPS   H7Y  232   4.171   7.430   6.217 -0.1859  1.7936 -2.5282
    2SAPS   C38  233   4.049   7.587   6.135  0.4819 -0.8990 -0.0655
    2SAPS   H8X  234   4.138   7.653   6.124 -0.8913  0.7893 -1.7250
    2SAPS   H8Y  235   3.968   7.653   6.172  0.4655  0.3014 -2.0792
    2SAPS   C39  236   4.018   7.533   6.001 -0.3381  0.6612  0.6424
    2SAPS   H9X  237   3.996   7.606   5.920 -1.8720  0.8873  1.2336
    2SAPS   H9Y  238   3.934   7.461   6.012 -0.3094  0.4195 -0.5987
    2SAPS  C310  239   4.133   7.449   5.949 -0.0207 -0.4161  0.6415
    2SAPS  H10X  240   4.145   7.356   6.010  0.5743 -1.6213 -1.2299
    2SAPS  H10Y  241   4.234   7.495   5.951  0.9126 -2.3236 -0.0512
    2SAPS  C311  242   4.130   7.392   5.803  0.5582  0.0595 -0.2142
    2SAPS  H11X  243   4.026   7.388   5.763 -0.6216  1.4756  2.4551
    2SAPS  H11Y  244   4.162   7.286   5.812  2.2732  0.2426 -2.9967
    2SAPS  C312  245   4.237   7.450   5.708  0.5042 -0.2108 -0.1722
    2SAPS  H12X  246   4.335   7.454   5.762 -0.1561  2.1369  1.0227
    2SAPS  H12Y  247   4.206   7.552   5.677 -2.7228 -0.7969  0.7514
    2SAPS  C313  248   4.259   7.354   5.590 -0.1950  0.1326  0.1296
    2SAPS  H13X  249   4.167   7.301   5.558  0.1872 -2.9617  3.5285
    2SAPS  H13Y  250   4.338   7.279   5.611  1.0189  1.7823  1.7816
    2SAPS  C314  251   4.322   7.429   5.476  0.2885  0.4361  0.0271
    2SAPS  H14X  252   4.425   7.459   5.507  0.3823  0.8301 -0.6487
    2SAPS  H14Y  253   4.272   7.526   5.453  0.2565  0.5930  0.7500
    2SAPS  C315  254   4.329   7.337   5.353  0.1435 -0.3974  0.0184
    2SAPS  H15X  255   4.225   7.303   5.334  0.2719 -1.1114  0.5357
    2SAPS  H15Y  256   4.383   7.240   5.363 -0.5348 -0.7429  0.3617
    2SAPS  C316  257   4.401   7.405   5.241  0.0385 -0.0156 -0.7453
    2SAPS  H16X  258   4.500   7.437   5.280  0.2673  1.3740 -2.3275
    2SAPS  H16Y  259   4.350   7.503   5.225 -0.6515 -0.1089  0.7203
    2SAPS  C317  260   4.414   7.321   5.111 -0.1060  0.7076  0.0716
    2SAPS  H17X  261   4.313   7.304   5.068 -0.9510  2.7222  1.0897
    2SAPS  H17Y  262   4.464   7.224   5.130 -0.4661  0.2249 -1.3073
    2SAPS  C318  263   4.497   7.400   5.010 -1.3535 -0.3216  0.6497
    2SAPS  H18X  264   4.511   7.347   4.913 -0.6592 -0.0583  0.5971
    2SAPS  H18Y  265   4.597   7.440   5.040 -1.1372 -1.1608  1.0805
    2SAPS  H18Z  266   4.435   7.489   4.987 -0.4074  0.4736  1.0862
    3SAPS     N  267   3.257   6.268   7.019 -0.3151  0.5404 -0.2988
    3SAPS   HN1  268   3.337   6.202   7.016 -2.4334 -2.1852 -0.9573
    3SAPS   HN2  269   3.176   6.206   6.999  0.7080 -0.6728 -0.7740
    3SAPS   HN3  270   3.269   6.353   6.960 -1.1758  1.3655  0.6631
    3SAPS   C12  271   3.247   6.320   7.160 -0.2875  0.0339  0.0263
    3SAPS  H12A  272   3.224   6.231   7.217 -0.0067 -0.0527  0.0039
    3SAPS   C13  273   3.374   6.370   7.227  0.6144  0.4636 -0.2386
    3SAPS  O13A  274   3.468   6.410   7.151 -0.3778 -0.2031 -0.4354
    3SAPS  O13B  275   3.364   6.384   7.354 -0.5982 -0.3067  0.0988
    3SAPS   C11  276   3.129   6.428   7.168 -0.0675 -0.1226 -0.4061
    3SAPS  H11A  277   3.168   6.512   7.106  2.7298 -1.1665 -0.1829
    3SAPS  H11B  278   3.124   6.461   7.274 -0.2370 -0.3383 -0.3462
    3SAPS     P  279   2.897   6.469   7.072 -0.1436  0.4890 -0.0189
    3SAPS   O13  280   2.785   6.384   7.040 -0.6781  0.5046 -0.1631
    3SAPS   O14  281   2.879   6.576   7.172  0.0754 -0.5077 -0.3905
    3SAPS   O12  282   3.005   6.372   7.127  1.2502 -0.7214 -0.0993
    3SAPS   O11  283   2.961   6.518   6.944  0.6997 -0.7895 -0.2530
    3SAPS    C1  284   2.928   6.473   6.807 -0.3543 -0.1346  0.3232
    3SAPS    HA  285   2.838   6.408   6.812 -1.6412  1.4695 -0.6627
    3SAPS    HB  286   2.882   6.557   6.750 -0.5470  0.2869  1.0916
    3SAPS    C2  287   3.046   6.412   6.719  0.4556  1.2745  0.0131
    3SAPS    HS  288   3.101   6.352   6.795 -0.3552  1.6456  0.9075
    3SAPS   O21  289   3.136   6.512   6.670  0.1984  0.5465  0.0813
    3SAPS   C21  290   3.240   6.535   6.742  0.5952 -0.0491  0.0875
    3SAPS   O22  291   3.287   6.474   6.837  0.1430 -0.4051 -0.1700
    3SAPS   C22  292   3.325   6.648   6.681  1.2781 -0.8997  0.6445
    3SAPS   H2R  293   3.283   6.742   6.722  2.7490  1.0141 -1.9121
    3SAPS   H2S  294   3.428   6.645   6.724  0.6383 -0.6524  2.2505
    3SAPS    C3  295   2.993   6.320   6.605 -0.1144  0.1914 -0.1495
    3SAPS    HX  296   2.931   6.392   6.547 -1.7198 -0.1209  1.1196
    3SAPS    HY  297   2.929   6.237   6.643  0.9440 -0.6318 -0.1266
    3SAPS   O31  298   3.095   6.275   6.512  0.0618  0.1500  0.4452
    3SAPS   C31  299   3.112   6.148   6.484 -0.5489  0.4551  0.3732
    3SAPS   O32  300   3.049   6.060   6.541  0.2344  0.2197  0.0452
    3SAPS   C32  301   3.213   6.134   6.374 -0.2970  0.5341 -0.0091
    3SAPS   H2X  302   3.295   6.075   6.420 -0.3207 -0.1725 -0.8515
    3SAPS   H2Y  303   3.260   6.234   6.358  0.3373  0.6149  2.0118
    3SAPS   C23  304   3.315   6.662   6.522 -0.1515  0.1822  1.0471
    3SAPS   H3R  305   3.207   6.658   6.494  0.7491  0.6518 -3.0675
    3SAPS   H3S  306   3.353   6.575   6.464  1.0428  0.5625  1.2320
    3SAPS   C24  307   3.370   6.794   6.463  0.5113  0.0748  0.1574
    3SAPS   H4R  308   3.337   6.870   6.536 -2.6953 -0.1367 -0.9465
    3SAPS   H4S  309   3.317   6.822   6.370 -0.0109  1.6371  0.8981
    3SAPS   C25  310   3.519   6.792   6.436 -0.3732  0.1105 -0.4954
    3SAPS   H5R  311   3.581   6.819   6.523  0.0729  0.1703 -0.8308
    3SAPS   C26  312   3.588   6.775   6.322  0.7896 -0.5330  0.2054
    3SAPS   H6R  313   3.697   6.758   6.329  1.1242  1.5032  0.6999
    3SAPS   C27  314   3.534   6.747   6.183  0.6411  0.4555  0.5986
    3SAPS   H7R  315   3.582   6.796   6.096  0.1699 -1.4680 -0.8335
    3SAPS   H7S  316   3.423   6.758   6.179  0.4869 -1.0364 -0.1466
    3SAPS   C28  317   3.548   6.605   6.149 -0.2396  0.7288  0.8278
    3SAPS   H8R  318   3.496   6.534   6.216 -0.6433  0.1068 -0.1142
    3SAPS   C29  319   3.597   6.556   6.039 -0.6385  0.7051  0.9865
    3SAPS   H9R  320   3.574   6.450   6.020  0.4672  0.5572  0.3692
    3SAPS  C210  321   3.667   6.635   5.923 -0.6951  0.1904 -0.4143
    3SAPS  H10R  322   3.736   6.555   5.888  0.2603  0.9016 -0.2121
    3SAPS  H10S  323   3.734   6.716   5.958  2.2617 -2.8377  1.6867
    3SAPS  C211  324   3.570   6.684   5.818 -0.4625  0.7797  0.2835
    3SAPS  H11R  325   3.486   6.734   5.868 -1.5806  0.3005 -1.0702
    3SAPS  C212  326   3.568   6.681   5.687 -0.4382  0.6445  1.2282
    3SAPS  H12R  327   3.475   6.719   5.642  0.0375 -0.2101 -0.5602
    3SAPS  C213  328   3.657   6.604   5.596  0.7578 -0.5564 -0.4177
    3SAPS  H13R  329   3.592   6.560   5.518 -0.0283 -0.6763  0.2974
    3SAPS  H13S  330   3.710   6.516   5.639  1.0613 -0.3449 -0.3534
    3SAPS  C214  331   3.759   6.702   5.532  0.4356  0.2606  0.3746
    3SAPS  H14R  332   3.751   6.810   5.550  1.1286  0.9433 -2.8196
    3SAPS  C215  333   3.873   6.661   5.475 -0.0836 -0.1236 -0.2428
    3SAPS  H15R  334   3.939   6.743   5.442 -2.7002  2.4626  0.5180
    3SAPS  C216  335   3.898   6.517   5.429  0.1518  0.1191 -0.3503
    3SAPS  H16R  336   3.818   6.441   5.443  0.4568 -0.1711 -0.1859
    3SAPS  H16S  337   3.994   6.477   5.469 -0.4466  0.0195  1.0438
    3SAPS  C217  338   3.939   6.497   5.280 -0.1423  0.3392 -0.3803
    3SAPS  H17R  339   4.043   6.537   5.280  0.1439 -0.2910  1.5316
    3SAPS  H17S  340   3.874   6.570   5.227 -0.8877  1.9217  2.5162
    3SAPS  C218  341   3.924   6.362   5.212  0.3050 -0.5241  0.2130
    3SAPS  H18R  342   3.815   6.341   5.214  0.3652 -1.7358 -2.7792
    3SAPS  H18S  343   3.975   6.284   5.273  3.3162  0.4012 -0.9091
    3SAPS  C219  344   3.997   6.345   5.075  0.2305 -0.8680 -0.4058
    3SAPS  H19R  345   4.104   6.331   5.100 -0.1299 -4.1724 -0.2599
    3SAPS  H19S  346   3.973   6.247   5.028  1.0005 -0.4620 -1.6813
    3SAPS  C220  347   3.974   6.466   4.978 -0.3499 -0.5107 -0.9565
    3SAPS  H20R  348   3.866   6.471   4.954 -0.4952 -1.1102 -0.4572
    3SAPS  H20S  349   4.033   6.456   4.884 -0.0051 -0.2214 -0.7731
    3SAPS  H20T  350   4.013   6.552   5.036 -0.6909 -1.3951  0.6601
    3SAPS   C33  351   3.155   6.057   6.253  0.1255 -0.2990  0.3834
    3SAPS   H3X  352   3.082   6.126   6.206 -1.1624  0.7439  3.6602
    3SAPS   H3Y  353   3.095   5.972   6.292  1.2706 -1.2059  0.2355
    3SAPS   C34  354   3.263   6.002   6.153 -0.0202  0.2055 -0.4672
    3SAPS   H4X  355   3.319   5.923   6.207  1.1133  0.9879 -0.4689
    3SAPS   H4Y  356   3.328   6.091   6.137 -1.1705  1.3175  0.8410
    3SAPS   C35  357   3.188   5.955   6.026  0.5704  1.1195 -0.2873
    3SAPS   H5X  358   3.256   5.882   5.977 -1.4629 -1.7540  0.8945
    3SAPS   H5Y  359   3.090   5.904   6.040  0.5576  1.3712  0.6094
    3SAPS   C36  360   3.172   6.075   5.933 -0.1110 -0.1533 -0.9120
    3SAPS   H6X  361   3.266   6.131   5.913  0.0578  0.3047  1.0104
    3SAPS   H6Y  362   3.098   6.152   5.964 -0.9716 -0.2367 -2.6158
    3SAPS   C37  363   3.134   6.022   5.795 -0.4524  0.5038  0.1039
    3SAPS   H7X  364   3.085   6.111   5.751 -4.0284 -0.9065  0.8816
    3SAPS   H7Y  365   3.053   5.950   5.819 -0.7885  0.5347 -0.8847
    3SAPS   C38  366   3.238   5.967   5.688  0.2875 -0.5098 -0.1116
    3SAPS   H8X  367   3.288   5.874   5.723 -0.3996 -0.8323  0.0352
    3SAPS   H8Y  368   3.326   6.034   5.682 -0.6071  0.8808  1.3338
    3SAPS   C39  369   3.180   5.955   5.551  0.5898  0.3987  0.4925
    3SAPS   H9X  370   3.171   6.056   5.506  0.7167  0.0908 -0.2300
    3SAPS   H9Y  371   3.086   5.897   5.564  0.4382  0.7314  0.9057
    3SAPS  C310  372   3.274   5.877   5.465 -0.3004  0.0733 -0.4020
    3SAPS  H10X  373   3.296   5.775   5.504 -2.1768 -0.4876 -0.7436
    3SAPS  H10Y  374   3.369   5.934   5.454 -0.4239  0.1956 -0.8109
    3SAPS  C311  375   3.221   5.862   5.325  0.3815 -0.1741 -0.0832
    3SAPS  H11X  376   3.164   5.957   5.312  0.1910 -0.4821 -1.7601
    3SAPS  H11Y  377   3.142   5.784   5.324  0.4428 -0.3329 -2.9527
    3SAPS  C312  378   3.313   5.840   5.208 -0.7236 -0.7188 -0.5297
    3SAPS  H12X  379   3.374   5.929   5.183 -0.2614 -0.9211 -0.1650
    3SAPS  H12Y  380   3.253   5.813   5.119 -0.7327 -1.3995 -0.3237
    3SAPS  C313  381   3.406   5.723   5.239  0.2668 -0.6551 -0.8680
    3SAPS  H13X  382   3.356   5.640   5.293  0.3306 -1.1656 -1.5772
    3SAPS  H13Y  383   3.487   5.757   5.307 -0.0111 -2.6080  0.4986
    3SAPS  C314  384   3.463   5.675   5.104  0.0090  0.2715  0.2902
    3SAPS  H14X  385   3.506   5.753   5.038 -0.3992 -1.1818 -1.8182
    3SAPS  H14Y  386   3.376   5.636   5.047  0.3301 -0.8852  0.5558
    3SAPS  C315  387   3.565   5.565   5.115  0.5424  0.0108 -0.5531
    3SAPS  H15X  388   3.523   5.479   5.171 -1.3115  0.9857 -0.3482
    3SAPS  H15Y  389   3.641   5.620   5.175 -0.2831  0.1906  0.3467
    3SAPS  C316  390   3.614   5.520   4.977  0.7775 -0.6182  0.4383
    3SAPS  H16X  391   3.663   5.607   4.928  1.9287  0.2602  2.9802
    3SAPS  H16Y  392   3.538   5.484   4.904 -0.1061  1.1494  0.4363
    3SAPS  C317  393   3.717   5.412   4.983 -0.6063  0.6796 -0.0741
    3SAPS  H17X  394   3.726   5.366   4.883 -2.3370 -1.7127  0.7569
    3SAPS  H17Y  395   3.684   5.334   5.055 -0.6366  3.2723  2.9610
    3SAPS  C318  396   3.852   5.460   5.033 -0.1332  0.6783 -0.2880
    3SAPS  H18X  397   3.902   5.524   4.956 -0.9304 -0.2795 -1.6504
    3SAPS  H18Y  398   3.910   5.370   5.064 -0.3313  0.7714  0.3649
    3SAPS  H18Z  399   3.841   5.522   5.124  1.9765  1.8359 -0.7356
    4SAPS     N  400   5.330   3.500   7.340 -0.4709 -0.2516  0.2049
    4SAPS   HN1  401   5.339   3.397   7.324 -0.2327 -0.5559  2.0363
    4SAPS   HN2  402   5.400   3.527   7.412 -0.3251  0.0398 -0.0422
    4SAPS   HN3  403   5.232   3.508   7.374 -1.0993  1.6253 -1.8193
    4SAPS   C12  404   5.342   3.575   7.214  0.4319 -0.2039  0.3464
    4SAPS  H12A  405   5.261   3.537   7.154 -0.0382  1.8987 -0.4382
    4SAPS   C13  406   5.319   3.726   7.221 -0.3427  0.1604  0.0836
    4SAPS  O13A  407   5.325   3.788   7.327 -0.4249 -0.4027  0.3556
    4SAPS  O13B  408   5.307   3.789   7.110  0.1829 -0.0696 -0.0868
    4SAPS   C11  409   5.484   3.545   7.147  0.2534 -0.0364  0.6322
    4SAPS  H11A  410   5.564   3.610   7.190 -0.7589  0.6697  1.4999
    4SAPS  H11B  411   5.479   3.592   7.046 -0.3755  1.2612  1.2523
    4SAPS     P  412   5.656   3.385   7.047 -0.2092 -0.4458 -0.1803
    4SAPS   O13  413   5.706   3.511   6.988  0.2238  0.8435 -0.6055
    4SAPS   O14  414   5.755   3.312   7.137 -0.5752 -0.6833  0.7653
    4SAPS   O12  415   5.524   3.411   7.131 -0.0656  0.0069  0.1294
    4SAPS   O11  416   5.608   3.300   6.926 -0.0770  0.0538 -0.0997
    4SAPS    C1  417   5.503   3.349   6.837  0.1730 -0.0306 -0.0402
    4SAPS    HA  418   5.447   3.426   6.894  0.4804  0.3773 -0.2757
    4SAPS    HB  419   5.536   3.391   6.739 -1.1015  2.3601  0.4859
    4SAPS    C2  420   5.405   3.225   6.826 -0.0787  0.5094  0.1402
    4SAPS    HS  421   5.458   3.128   6.817 -3.2401 -1.2625 -1.1009
    4SAPS   O21  422   5.312   3.235   6.715  0.0589  0.4450 -0.0219
    4SAPS   C21  423   5.353   3.183   6.603 -0.0236 -0.0214  0.0908
    4SAPS   O22  424   5.464   3.131   6.585  0.3747  0.4042  0.0755
    4SAPS   C22  425   5.244   3.187   6.500  0.3165  0.2249 -0.3093
    4SAPS   H2R  426   5.191   3.090   6.517  0.4776  0.3816  1.2510
    4SAPS   H2S  427   5.173   3.269   6.523  0.6677  0.7037 -0.9210
    4SAPS    C3  428   5.325   3.210   6.957 -0.2319 -0.2005 -0.5325
    4SAPS    HX  429   5.246   3.288   6.961  0.1702  0.1693  1.2875
    4SAPS    HY  430   5.387   3.231   7.047  1.0498 -0.5063 -1.3202
    4SAPS   O31  431   5.273   3.073   6.965 -0.2211  0.7015  0.3478
    4SAPS   C31  432   5.355   2.978   7.007 -0.7017 -0.4067  0.6928
    4SAPS   O32  433   5.464   2.996   7.057  0.2109  0.2932 -0.1640
    4SAPS   C32  434   5.308   2.834   6.968  0.5338  0.2159 -0.3701
    4SAPS   H2X  435   5.197   2.830   6.979  0.5744  0.3615  0.1031
    4SAPS   H2Y  436   5.352   2.770   7.047 -2.6307 -1.3244  0.3159
    4SAPS   C23  437   5.302   3.187   6.357  0.0132  0.4946 -0.1792
    4SAPS   H3R  438   5.213   3.164   6.293  0.0722 -2.5189  0.6650
    4SAPS   H3S  439   5.359   3.093   6.341 -2.4281 -1.5685  2.3599
    4SAPS   C24  440   5.371   3.317   6.317  0.4311 -0.6816  0.5218
    4SAPS   H4R  441   5.415   3.303   6.215 -0.5848  0.1103 -0.0415
    4SAPS   H4S  442   5.462   3.320   6.380  1.7994 -0.7474 -1.3594
    4SAPS   C25  443   5.276   3.435   6.329  0.1948  0.1969 -0.1607
    4SAPS   H5R  444   5.193   3.426   6.401  0.1556  0.8706 -0.1191
    4SAPS   C26  445   5.264   3.531   6.241 -0.6194 -0.7128  0.2592
    4SAPS   H6R  446   5.201   3.616   6.271 -0.7950 -1.1591  1.1955
    4SAPS   C27  447   5.349   3.552   6.118 -0.1407 -0.7233 -0.3688
    4SAPS   H7R  448   5.352   3.452   6.070 -0.9592 -0.0263 -1.9581
    4SAPS   H7S  449   5.455   3.568   6.146 -0.2717  1.3380 -0.8989
    4SAPS   C28  450   5.302   3.662   6.028  0.4242 -0.2794 -0.1839
    4SAPS   H8R  451   5.207   3.715   6.044  0.2440  0.4420 -3.0521
    4SAPS   C29  452   5.367   3.702   5.919 -0.1344 -0.2533  0.1280
    4SAPS   H9R  453   5.328   3.780   5.853 -0.6933 -1.0167 -0.4625
    4SAPS  C210  454   5.502   3.645   5.876  0.0030  0.2229  0.0090
    4SAPS  H10R  455   5.477   3.601   5.777 -0.3678  0.6618 -0.0989
    4SAPS  H10S  456   5.533   3.558   5.936 -2.0446 -1.2975 -0.9913
    4SAPS  C211  457   5.603   3.751   5.870 -0.4784 -0.3668  0.6511
    4SAPS  H11R  458   5.663   3.767   5.961  1.5476  1.0127 -0.8310
    4SAPS  C212  459   5.644   3.814   5.758  0.1396 -0.1892 -0.0722
    4SAPS  H12R  460   5.710   3.901   5.777 -0.3896  0.3099 -0.4805
    4SAPS  C213  461   5.597   3.811   5.615 -0.8400  0.1998  0.4638
    4SAPS  H13R  462   5.568   3.913   5.582 -2.5021 -0.5749 -0.6182
    4SAPS  H13S  463   5.510   3.744   5.598 -0.9002  0.2206  0.6754
    4SAPS  C214  464   5.722   3.766   5.537  0.0537  0.2522 -0.1046
    4SAPS  H14R  465   5.807   3.829   5.568 -0.4297  0.1740  1.5109
    4SAPS  C215  466   5.733   3.667   5.445 -0.3452  0.1782  0.1773
    4SAPS  H15R  467   5.826   3.650   5.389 -1.1854 -0.4481 -1.0927
    4SAPS  C216  468   5.612   3.583   5.406  0.5337  0.3618  0.6572
    4SAPS  H16R  469   5.537   3.574   5.488 -0.6778  2.5623 -0.1215
    4SAPS  H16S  470   5.649   3.484   5.372  0.3457  1.5370 -3.4107
    4SAPS  C217  471   5.539   3.636   5.284 -0.1757  0.2431 -0.3745
    4SAPS  H17R  472   5.545   3.747   5.291  1.0251  0.1495  0.5031
    4SAPS  H17S  473   5.433   3.604   5.281 -0.3001  0.6928 -1.0520
    4SAPS  C218  474   5.611   3.604   5.151 -0.3733 -0.2972 -0.2351
    4SAPS  H18R  475   5.719   3.627   5.162 -0.6474  0.3280  1.6398
    4SAPS  H18S  476   5.570   3.669   5.071 -3.4847 -0.5584  1.0031
    4SAPS  C219  477   5.597   3.451   5.121  0.4435  0.1486 -0.1302
    4SAPS  H19R  478   5.491   3.424   5.103  0.3853  1.8566 -3.0480
    4SAPS  H19S  479   5.635   3.389   5.205 -0.3948 -0.7825 -0.4231
    4SAPS  C220  480   5.673   3.386   5.010  0.0759 -0.3284 -0.3740
    4SAPS  H20R  481   5.784   3.384   5.019  0.1992  1.3020 -1.1956
    4SAPS  H20S  482   5.655   3.435   4.912  0.3696  2.3121  0.8105
    4SAPS  H20T  483   5.650   3.278   4.998  0.8924 -0.4360 -1.1022
    4SAPS   C33  484   5.346   2.784   6.830  0.4965 -0.2153  0.4990
    4SAPS   H3X  485   5.378   2.678   6.837 -0.0749 -0.3198  1.8210
    4SAPS   H3Y  486   5.429   2.842   6.784 -0.5840  1.1061  0.1547
    4SAPS   C34  487   5.237   2.812   6.725  0.2478 -0.8530 -0.2753
    4SAPS   H4X  488   5.218   2.921   6.729  1.7403 -0.5798  0.3118
    4SAPS   H4Y  489   5.151   2.752   6.761  1.3660 -1.7977  0.9866
    4SAPS   C35  490   5.279   2.768   6.587 -0.1133  0.6301 -0.0670
    4SAPS   H5X  491   5.298   2.660   6.605 -1.2674  0.9222  3.9195
    4SAPS   H5Y  492   5.373   2.808   6.543  1.5678 -2.4129  0.5036
    4SAPS   C36  493   5.168   2.786   6.484  0.4592  0.5557 -0.6685
    4SAPS   H6X  494   5.127   2.888   6.495 -2.2816 -0.5028 -0.4133
    4SAPS   H6Y  495   5.085   2.719   6.515  0.3531  1.1564  0.3571
    4SAPS   C37  496   5.217   2.759   6.341  0.2401  0.4598  0.3118
    4SAPS   H7X  497   5.278   2.667   6.352  2.5760  2.1465  3.1446
    4SAPS   H7Y  498   5.284   2.843   6.312  0.1460  0.1963 -0.7041
    4SAPS   C38  499   5.096   2.756   6.248 -0.1728 -0.0085 -0.1089
    4SAPS   H8X  500   5.026   2.840   6.268  1.2986  1.2829 -0.1638
    4SAPS   H8Y  501   5.044   2.658   6.243 -0.5701  0.2057 -0.2221
    4SAPS   C39  502   5.150   2.792   6.106 -0.2277  0.1164 -0.4630
    4SAPS   H9X  503   5.224   2.711   6.087 -0.4553 -0.8550  2.3153
    4SAPS   H9Y  504   5.203   2.889   6.109 -1.1700  0.6564 -1.0320
    4SAPS  C310  505   5.064   2.787   5.978  0.3841  0.2453 -0.2201
    4SAPS  H10X  506   4.969   2.838   6.004 -2.0807 -4.4523  1.1575
    4SAPS  H10Y  507   5.039   2.680   5.962  0.0050  0.3914 -0.6056
    4SAPS  C311  508   5.136   2.847   5.852  0.5661  0.6234  0.1054
    4SAPS  H11X  509   5.234   2.800   5.833  0.9391  1.8087 -1.0630
    4SAPS  H11Y  510   5.149   2.954   5.880  1.0523  1.3614 -2.6542
    4SAPS  C312  511   5.050   2.825   5.727  0.6890  0.4664 -0.2200
    4SAPS  H12X  512   5.049   2.715   5.715  0.4028  0.2882  1.2662
    4SAPS  H12Y  513   5.108   2.865   5.640  3.3952  1.8069  2.0455
    4SAPS  C313  514   4.907   2.883   5.727  0.7135 -0.2812 -0.0904
    4SAPS  H13X  515   4.910   2.992   5.748 -0.3766  1.1291 -5.5174
    4SAPS  H13Y  516   4.856   2.822   5.804  1.7124  0.1171  0.9173
    4SAPS  C314  517   4.831   2.872   5.597  0.2646  0.5775 -0.1919
    4SAPS  H14X  518   4.773   2.964   5.575  0.6656  0.6013 -1.2147
    4SAPS  H14Y  519   4.761   2.785   5.603  1.8754 -0.6441  2.6882
    4SAPS  C315  520   4.906   2.849   5.466  0.2845  0.4082  0.7499
    4SAPS  H15X  521   4.969   2.760   5.486 -1.8904 -1.2480  0.6255
    4SAPS  H15Y  522   4.968   2.937   5.442 -1.5785  1.1919 -1.6849
    4SAPS  C316  523   4.824   2.816   5.339  0.5786 -0.1556 -0.0199
    4SAPS  H16X  524   4.796   2.912   5.291 -1.7383 -1.0640 -0.6473
    4SAPS  H16Y  525   4.728   2.761   5.354  0.5952 -0.2572 -0.2741
    4SAPS  C317  526   4.905   2.730   5.236  0.0839 -0.3891 -0.1615
    4SAPS  H17X  527   4.929   2.631   5.280 -0.5990 -0.1689  0.7443
    4SAPS  H17Y  528   4.998   2.789   5.226 -0.8229  1.5581  1.8265
    4SAPS  C318  529   4.833   2.717   5.103 -1.0689  0.1442  0.5464
    4SAPS  H18X  530   4.756   2.638   5.118 -1.6372  0.5138 -0.3483
    4SAPS  H18Y  531   4.904   2.682   5.025  0.6075 -1.3990  2.6633
    4SAPS  H18Z  532   4.789   2.818   5.086 -0.6409  0.3782  0.8215
    5SAPS     N  533   3.111   5.368   6.901 -0.3618  0.0452  0.1090
    5SAPS   HN1  534   3.175   5.286   6.908  0.1479  0.4956  0.8621
    5SAPS   HN2  535   3.018   5.332   6.874  0.4737 -0.9550 -1.6321
    5SAPS   HN3  536   3.146   5.433   6.827  0.9388 -1.2258 -0.4492
    5SAPS   C12  537   3.107   5.433   7.030  0.7661  0.0288 -0.8810
    5SAPS  H12A  538   3.041   5.518   7.014  3.9200  2.8313 -0.2473
    5SAPS   C13  539   3.068   5.362   7.157  0.0276  0.7647 -1.0383
    5SAPS  O13A  540   3.011   5.251   7.150  0.5581 -0.7382  0.4850
    5SAPS  O13B  541   3.049   5.433   7.265  0.0680 -0.0776  0.2564
    5SAPS   C11  542   3.248   5.500   7.052 -0.2963  0.0021  0.1369
    5SAPS  H11A  543   3.324   5.421   7.068 -2.5169 -2.2412  0.0955
    5SAPS  H11B  544   3.244   5.562   7.145 -1.5199 -0.6125  0.5074
    5SAPS     P  545   3.288   5.732   6.921 -0.0481  0.1187  0.1821
    5SAPS   O13  546   3.155   5.794   6.934  0.0281 -0.0224  0.1008
    5SAPS   O14  547   3.393   5.785   7.007 -0.4955 -0.3878 -0.1142
    5SAPS   O12  548   3.282   5.570   6.930  0.4696  0.2993 -0.0937
    5SAPS   O11  549   3.322   5.753   6.771  0.5139 -0.3803 -0.2125
    5SAPS    C1  550   3.386   5.654   6.692 -0.5603 -0.2631  0.6261
    5SAPS    HA  551   3.332   5.557   6.690  0.5769 -0.9019 -0.3648
    5SAPS    HB  552   3.365   5.704   6.595 -0.8890  1.2451  1.4321
    5SAPS    C2  553   3.541   5.632   6.711  0.4267 -0.5092  0.8207
    5SAPS    HS  554   3.548   5.586   6.812 -2.0371  0.2849  1.4293
    5SAPS   O21  555   3.600   5.762   6.708 -0.3231  0.7354  0.0160
    5SAPS   C21  556   3.736   5.759   6.734  0.2461 -0.0836 -0.1461
    5SAPS   O22  557   3.793   5.658   6.761 -0.5894 -1.1433 -0.3855
    5SAPS   C22  558   3.790   5.901   6.722 -0.1742  0.7282 -0.3651
    5SAPS   H2R  559   3.698   5.960   6.703 -2.0737 -0.1153  4.6091
    5SAPS   H2S  560   3.827   5.940   6.819 -0.9563  0.2921  0.1243
    5SAPS    C3  561   3.581   5.540   6.594  0.2095  0.1679 -0.0106
    5SAPS    HX  562   3.509   5.457   6.606  2.4433 -2.1934 -1.7256
    5SAPS    HY  563   3.685   5.500   6.604  0.3502  1.0704  3.0503
    5SAPS   O31  564   3.572   5.606   6.471  0.1498  0.2261  0.5532
    5SAPS   C31  565   3.555   5.525   6.367  0.3101  0.1825  0.1092
    5SAPS   O32  566   3.532   5.404   6.375  0.7497  0.4150  0.7693
    5SAPS   C32  567   3.546   5.614   6.248  0.3593 -0.3975 -0.5350
    5SAPS   H2X  568   3.631   5.685   6.243  0.2864 -0.3905 -2.3568
    5SAPS   H2Y  569   3.451   5.671   6.245 -0.5064 -1.6396  1.6166
    5SAPS   C23  570   3.898   5.923   6.612  0.4794 -0.1918 -0.1150
    5SAPS   H3R  571   3.836   5.919   6.519  0.1821  2.1006 -0.0779
    5SAPS   H3S  572   3.978   5.845   6.613 -0.6197 -1.3377  0.7446
    5SAPS   C24  573   3.951   6.067   6.602 -0.1082 -0.0170 -0.1541
    5SAPS   H4R  574   3.871   6.137   6.632  2.0204  1.3745  2.8202
    5SAPS   H4S  575   3.977   6.092   6.497  0.6576 -0.4958 -0.0854
    5SAPS   C25  576   4.068   6.095   6.689  0.3482 -0.5404 -0.0098
    5SAPS   H5R  577   4.045   6.081   6.796  1.0802  0.3697  0.2820
    5SAPS   C26  578   4.198   6.119   6.657  0.0487 -0.2500  0.1325
    5SAPS   H6R  579   4.275   6.129   6.734  1.2497  0.6225 -1.1360
    5SAPS   C27  580   4.246   6.138   6.518 -0.4661  0.3600  0.8995
    5SAPS   H7R  581   4.344   6.190   6.512  0.4908 -1.2625  1.4900
    5SAPS   H7S  582   4.174   6.194   6.455 -2.7973 -0.4091  2.7460
    5SAPS   C28  583   4.265   6.000   6.446 -0.4622  0.2822 -0.4199
    5SAPS   H8R  584   4.171   5.947   6.421  0.1164 -0.0370 -2.0265
    5SAPS   C29  585   4.369   5.944   6.388 -0.2603  0.1908  0.0792
    5SAPS   H9R  586   4.354   5.844   6.344 -0.7224  0.2450  0.0999
    5SAPS  C210  587   4.506   6.002   6.386  0.9268  0.1762  0.8521
    5SAPS  H10R  588   4.583   5.923   6.374 -0.6023 -1.4745  1.3637
    5SAPS  H10S  589   4.531   6.054   6.481 -0.7177  1.5304  0.5984
    5SAPS  C211  590   4.533   6.107   6.281  0.5012 -0.0049  0.2860
    5SAPS  H11R  591   4.562   6.207   6.316 -1.1915  0.6441 -0.0558
    5SAPS  C212  592   4.509   6.090   6.147 -0.7006 -0.0186  0.1651
    5SAPS  H12R  593   4.512   6.179   6.083 -1.3594 -0.3527 -0.3406
    5SAPS  C213  594   4.478   5.973   6.058  0.2290  0.2327  1.2333
    5SAPS  H13R  595   4.384   5.999   6.004  1.0016 -1.6079 -1.1767
    5SAPS  H13S  596   4.452   5.880   6.112 -1.9107  0.4784  0.7242
    5SAPS  C214  597   4.603   5.937   5.966 -0.0059  0.3399 -0.1432
    5SAPS  H14R  598   4.699   5.917   6.016  1.9628  1.4441 -3.1817
    5SAPS  C215  599   4.603   5.930   5.831  0.6764  0.1921  0.0557
    5SAPS  H15R  600   4.697   5.907   5.778  1.0554  0.8172  0.4463
    5SAPS  C216  601   4.482   5.940   5.745 -0.2948  0.0785 -0.4106
    5SAPS  H16R  602   4.501   6.015   5.665 -1.4161  0.6100 -0.1936
    5SAPS  H16S  603   4.392   5.973   5.802 -1.4478 -0.0257 -2.0987
    5SAPS  C217  604   4.442   5.811   5.674 -0.4105 -0.1600 -0.1497
    5SAPS  H17R  605   4.353   5.834   5.612 -0.4378 -1.8746 -0.8020
    5SAPS  H17S  606   4.409   5.737   5.749 -0.4638  0.3109  0.3028
    5SAPS  C218  607   4.546   5.752   5.581  0.0687  0.4899  0.7995
    5SAPS  H18R  608   4.631   5.734   5.650 -1.9359 -0.4393  3.2143
    5SAPS  H18S  609   4.574   5.820   5.499 -0.3183 -2.6644 -2.1835
    5SAPS  C219  610   4.494   5.623   5.521  0.0202 -0.9690 -0.6891
    5SAPS  H19R  611   4.391   5.637   5.483 -0.8642  0.1265  1.9059
    5SAPS  H19S  612   4.489   5.549   5.604  0.6276  0.7139  0.9077
    5SAPS  C220  613   4.594   5.573   5.421 -0.4066  0.9086 -0.1095
    5SAPS  H20R  614   4.556   5.487   5.362  1.8307 -0.3589  0.1787
    5SAPS  H20S  615   4.677   5.542   5.488 -1.5309  0.6702  1.2186
    5SAPS  H20T  616   4.626   5.650   5.348  0.5979 -0.6094 -1.3439
    5SAPS   C33  617   3.554   5.517   6.127  0.7357  0.3096 -0.3583
    5SAPS   H3X  618   3.502   5.420   6.141 -0.0416  0.9844  1.8200
    5SAPS   H3Y  619   3.660   5.485   6.120  0.3021 -2.0423  2.3144
    5SAPS   C34  620   3.501   5.587   6.001 -0.1270  0.4477 -0.5469
    5SAPS   H4X  621   3.403   5.634   6.026  0.3069  1.1441 -0.1156
    5SAPS   H4Y  622   3.492   5.510   5.922  0.6520 -1.0541  0.7662
    5SAPS   C35  623   3.586   5.705   5.946  0.1255 -0.8474  0.8211
    5SAPS   H5X  624   3.691   5.678   5.925  0.3759 -0.0289  0.9899
    5SAPS   H5Y  625   3.603   5.780   6.026  2.6260  0.7490 -1.0765
    5SAPS   C36  626   3.538   5.778   5.821 -0.0041 -0.3336 -0.2044
    5SAPS   H6X  627   3.598   5.870   5.803 -1.2714  1.1289  2.5687
    5SAPS   H6Y  628   3.432   5.802   5.844 -0.5500 -0.8426 -2.0290
    5SAPS   C37  629   3.536   5.690   5.687  0.5293 -0.2550  0.3328
    5SAPS   H7X  630   3.492   5.753   5.606 -0.6047 -0.7724  0.5306
    5SAPS   H7Y  631   3.472   5.601   5.698 -0.8012  0.8256  1.7417
    5SAPS   C38  632   3.677   5.636   5.638  0.0737 -0.9445  0.5556
    5SAPS   H8X  633   3.686   5.533   5.679 -1.8756 -1.6278 -0.6102
    5SAPS   H8Y  634   3.758   5.704   5.672  0.6441 -1.4044  0.1418
    5SAPS   C39  635   3.683   5.612   5.483 -0.0379 -0.8609 -0.0142
    5SAPS   H9X  636   3.644   5.705   5.435 -0.8010 -1.8474 -1.3559
    5SAPS   H9Y  637   3.621   5.520   5.478 -0.9638 -0.3819  1.8601
    5SAPS  C310  638   3.814   5.571   5.422  0.1957 -0.0726  0.0369
    5SAPS  H10X  639   3.882   5.659   5.419 -2.5498  2.3725  2.4731
    5SAPS  H10Y  640   3.806   5.537   5.317 -0.1160  1.2842 -0.4014
    5SAPS  C311  641   3.870   5.451   5.495  0.1409 -0.9077  0.1088
    5SAPS  H11X  642   3.788   5.380   5.517 -0.0461 -0.8056 -0.2520
    5SAPS  H11Y  643   3.904   5.476   5.598 -1.2333 -0.9325  0.5766
    5SAPS  C312  644   3.980   5.393   5.406  0.4517 -0.1471 -0.6148
    5SAPS  H12X  645   3.931   5.346   5.318 -2.6693  2.1351 -0.2410
    5SAPS  H12Y  646   4.034   5.311   5.459  0.3509 -0.9560 -1.7373
    5SAPS  C313  647   4.095   5.486   5.379  0.5352 -0.0276 -0.5720
    5SAPS  H13X  648   4.136   5.512   5.479 -0.0460  1.5063 -0.7034
    5SAPS  H13Y  649   4.074   5.579   5.322  0.2922  0.7694  0.7947
    5SAPS  C314  650   4.201   5.408   5.304  0.1366 -0.1604  0.0225
    5SAPS  H14X  651   4.266   5.476   5.245  1.5952 -0.1739  1.5282
    5SAPS  H14Y  652   4.151   5.355   5.220  1.1885  0.3952 -0.9797
    5SAPS  C315  653   4.281   5.308   5.390  0.2718 -0.1489 -0.0502
    5SAPS  H15X  654   4.231   5.232   5.453  0.4901  0.1050  0.4313
    5SAPS  H15Y  655   4.348   5.363   5.460  1.9879 -0.7348 -1.1782
    5SAPS  C316  656   4.381   5.233   5.307 -0.0983 -0.3452  0.2063
    5SAPS  H16X  657   4.429   5.156   5.372 -0.6478 -1.2329 -0.4069
    5SAPS  H16Y  658   4.460   5.298   5.264  0.5865 -1.0925  0.2933
    5SAPS  C317  659   4.314   5.159   5.184  0.8358  0.1568 -0.8415
    5SAPS  H17X  660   4.273   5.236   5.115  1.7986  0.3317 -1.2344
    5SAPS  H17Y  661   4.233   5.108   5.240  0.0914  3.1216  1.0104
    5SAPS  C318  662   4.408   5.053   5.125 -0.4658 -0.2459 -0.1757
    5SAPS  H18X  663   4.355   4.975   5.066  1.2986 -0.6177 -1.3415
    5SAPS  H18Y  664   4.461   5.005   5.210  1.4587 -0.0042 -1.2058
    5SAPS  H18Z  665   4.477   5.107   5.057 -0.3737 -0.4949 -0.2804
    6SAPS     N  666   2.651   0.367   7.196  0.2960 -0.6946  0.3935
    6SAPS   HN1  667   2.582   0.332   7.127  0.1571 -4.8111  2.3685
    6SAPS   HN2  668   2.610   0.456   7.230 -3.0084 -2.0078  0.2237
    6SAPS   HN3  669   2.735   0.396   7.142 -0.5530 -0.6289 -0.9355
    6SAPS   C12  670   2.671   0.266   7.299 -0.0811  0.3273 -0.3316
    6SAPS  H12A  671   2.736   0.195   7.250  0.7797  0.4827  0.5423
    6SAPS   C13  672   2.741   0.316   7.426  0.3418 -1.0067 -0.1832
    6SAPS  O13A  673   2.789   0.438   7.426  0.2272  0.6361  0.8773
    6SAPS  O13B  674   2.766   0.236   7.518  0.0521 -0.6568 -0.2889
    6SAPS   C11  675   2.534   0.219   7.350 -0.3297 -0.2427 -0.2073
    6SAPS  H11A  676   2.488   0.306   7.401  0.8710  0.2608  0.0541
    6SAPS  H11B  677   2.547   0.137   7.424 -2.1443 -0.8547 -0.5226
    6SAPS     P  678   2.429   0.016   7.225 -0.0385  0.3688 -0.2931
    6SAPS   O13  679   2.561  -0.051   7.249  0.6992 -0.0388  0.0177
    6SAPS   O14  680   2.312  -0.032   7.309 -0.4309 -0.1316 -0.6702
    6SAPS   O12  681   2.458   0.165   7.239 -0.5581 -0.5052  0.4472
    6SAPS   O11  682   2.397   0.016   7.069 -0.2306  0.2970 -0.3001
    6SAPS    C1  683   2.257  -0.011   7.030  0.1549 -0.6008 -0.3493
    6SAPS    HA  684   2.188   0.030   7.106  0.2300 -1.6162  0.2747
    6SAPS    HB  685   2.234   0.033   6.930 -3.6447 -0.9900  0.2099
    6SAPS    C2  686   2.217  -0.160   7.001  0.2325 -0.5132 -0.1582
    6SAPS    HS  687   2.219  -0.226   7.090 -1.7418 -0.6491 -0.1686
    6SAPS   O21  688   2.311  -0.215   6.905  0.5195  0.2067 -0.4714
    6SAPS   C21  689   2.294  -0.335   6.880 -0.5323  0.1768  0.4057
    6SAPS   O22  690   2.228  -0.417   6.938  0.0383 -0.2320  0.4405
    6SAPS   C22  691   2.373  -0.377   6.750  0.1945 -0.3239 -0.1258
    6SAPS   H2R  692   2.438  -0.462   6.781 -0.2112 -0.5489  0.1175
    6SAPS   H2S  693   2.302  -0.402   6.668  0.2542 -1.3185  0.1176
    6SAPS    C3  694   2.068  -0.159   6.955  0.3373  0.0182 -0.0851
    6SAPS    HX  695   2.012  -0.112   7.038  0.1212  1.3465 -0.9417
    6SAPS    HY  696   2.039  -0.265   6.941  0.9089 -0.1057 -0.3819
    6SAPS   O31  697   2.052  -0.095   6.829  0.1960 -0.1684  0.5594
    6SAPS   C31  698   1.937  -0.027   6.816 -0.3280  0.4143 -0.1931
    6SAPS   O32  699   1.849  -0.020   6.899 -0.2464  0.9019 -0.1985
    6SAPS   C32  700   1.915   0.031   6.676 -0.4524  0.6578  0.3133
    6SAPS   H2X  701   1.810   0.065   6.686 -0.0663  1.6058  1.3470
    6SAPS   H2Y  702   1.902  -0.049   6.600 -0.2931  0.0362  0.9366
    6SAPS   C23  703   2.455  -0.260   6.691  0.3363 -0.2026  0.1543
    6SAPS   H3R  704   2.533  -0.234   6.765  0.3103  0.5372 -0.0713
    6SAPS   H3S  705   2.385  -0.173   6.688  1.7318  0.9836  0.8963
    6SAPS   C24  706   2.496  -0.282   6.547  0.1685  0.0666 -0.1596
    6SAPS   H4R  707   2.401  -0.283   6.489  0.1652  0.2385 -0.1580
    6SAPS   H4S  708   2.543  -0.382   6.541  2.3479  0.8237  2.4047
    6SAPS   C25  709   2.594  -0.178   6.495 -0.1838  0.6366 -0.4599
    6SAPS   H5R  710   2.589  -0.082   6.549  0.7702 -0.5823  1.9291
    6SAPS   C26  711   2.681  -0.196   6.395  0.3325  0.1484  0.4689
    6SAPS   H6R  712   2.755  -0.116   6.382  2.3860 -2.0646 -2.9892
    6SAPS   C27  713   2.704  -0.312   6.306  0.1013  0.3411 -0.2506
    6SAPS   H7R  714   2.619  -0.384   6.308 -0.0589  0.5191  1.6663
    6SAPS   H7S  715   2.796  -0.364   6.342  1.7981  2.1184 -1.7898
    6SAPS   C28  716   2.741  -0.266   6.174 -0.4239  0.4941 -0.0778
    6SAPS   H8R  717   2.671  -0.195   6.128 -1.3057 -0.1116  0.2902
    6SAPS   C29  718   2.848  -0.301   6.099  0.2032 -0.0720 -0.1679
    6SAPS   H9R  719   2.858  -0.252   6.001  2.4204 -1.3590 -0.6645
    6SAPS  C210  720   2.954  -0.407   6.126 -0.2272  0.8107 -0.3300
    6SAPS  H10R  721   2.948  -0.487   6.049 -0.4916  0.4496  0.0610
    6SAPS  H10S  722   2.939  -0.459   6.222 -1.7734  1.6895 -0.0659
    6SAPS  C211  723   3.088  -0.342   6.151 -0.1685 -0.2909  0.2624
    6SAPS  H11R  724   3.092  -0.280   6.241  0.2956  1.2264 -0.7771
    6SAPS  C212  725   3.194  -0.344   6.071  0.0243 -0.0712 -0.1647
    6SAPS  H12R  726   3.289  -0.293   6.094 -0.3505  1.1281 -1.1999
    6SAPS  C213  727   3.198  -0.416   5.941 -0.7174 -0.3391  0.1634
    6SAPS  H13R  728   3.174  -0.522   5.963 -0.3143 -0.2123  1.2886
    6SAPS  H13S  729   3.304  -0.422   5.907  0.0316 -1.1120  2.4760
    6SAPS  C214  730   3.108  -0.353   5.832  0.1556 -0.3709  0.2779
    6SAPS  H14R  731   3.025  -0.293   5.871 -0.1182 -0.3101 -0.3888
    6SAPS  C215  732   3.128  -0.366   5.699 -0.3655  0.8668  0.0423
    6SAPS  H15R  733   3.049  -0.319   5.639 -1.0320 -1.4589 -1.0381
    6SAPS  C216  734   3.245  -0.428   5.622  0.2841  0.0469 -0.7916
    6SAPS  H16R  735   3.320  -0.470   5.692 -0.3262  0.7722  0.3303
    6SAPS  H16S  736   3.296  -0.341   5.576 -0.2512  1.4059  1.0889
    6SAPS  C217  737   3.209  -0.527   5.512 -0.1743  0.1276  0.3545
    6SAPS  H17R  738   3.126  -0.475   5.460 -2.3300 -1.8826  1.5703
    6SAPS  H17S  739   3.180  -0.632   5.536  1.3238 -0.2316  0.6721
    6SAPS  C218  740   3.313  -0.541   5.398  0.1613 -0.1443 -0.6990
    6SAPS  H18R  741   3.406  -0.591   5.432 -1.1323 -1.7564  0.5957
    6SAPS  H18S  742   3.359  -0.446   5.364 -0.5414  0.6441  0.4801
    6SAPS  C219  743   3.270  -0.629   5.277 -0.0940  0.4602 -0.6292
    6SAPS  H19R  744   3.245  -0.721   5.334 -1.7294  1.5219  0.4617
    6SAPS  H19S  745   3.355  -0.647   5.207 -1.4038  0.5728 -2.2996
    6SAPS  C220  746   3.150  -0.581   5.188 -0.5506 -0.1742  0.4161
    6SAPS  H20R  747   3.058  -0.558   5.245 -0.9840  1.7825 -0.9712
    6SAPS  H20S  748   3.126  -0.665   5.120 -2.1862  0.6544 -0.0902
    6SAPS  H20T  749   3.195  -0.500   5.125  0.4473  0.6692  2.1356
    6SAPS   C33  750   2.000   0.156   6.655 -0.3670  0.1978  0.4249
    6SAPS   H3X  751   2.006   0.213   6.751 -1.6498  0.8044  0.1693
    6SAPS   H3Y  752   1.942   0.213   6.580 -2.0691 -2.4638 -0.4341
    6SAPS   C34  753   2.144   0.117   6.607  0.2541 -0.2470 -0.7846
    6SAPS   H4X  754   2.191   0.054   6.686  0.2051 -0.1534 -0.6800
    6SAPS   H4Y  755   2.204   0.210   6.599 -1.2566  0.7696 -0.7151
    6SAPS   C35  756   2.155   0.051   6.469  0.1865  0.4675  0.1665
    6SAPS   H5X  757   2.091   0.106   6.397  1.4429 -0.1945 -1.5276
    6SAPS   H5Y  758   2.112  -0.051   6.468  1.5320 -0.1359 -1.8682
    6SAPS   C36  759   2.299   0.048   6.417  0.0292 -0.3832  0.8601
    6SAPS   H6X  760   2.321  -0.043   6.357 -3.4759 -0.8100  0.0027
    6SAPS   H6Y  761   2.368   0.036   6.503  1.9145  0.9246 -0.3963
    6SAPS   C37  762   2.340   0.175   6.339  0.0462 -0.3017  0.3208
    6SAPS   H7X  763   2.332   0.270   6.396 -1.5217  0.3382 -0.8746
    6SAPS   H7Y  764   2.284   0.193   6.245  0.4237 -0.5454  0.0510
    6SAPS   C38  765   2.486   0.170   6.293  0.2371  0.4224 -0.8363
    6SAPS   H8X  766   2.494   0.063   6.262 -0.6312  0.1473 -0.1605
    6SAPS   H8Y  767   2.547   0.179   6.385 -0.0546 -1.4659 -0.4027
    6SAPS   C39  768   2.525   0.262   6.181 -0.4361  0.4863 -0.0960
    6SAPS   H9X  769   2.539   0.363   6.225 -0.8229  1.0936 -1.3349
    6SAPS   H9Y  770   2.439   0.270   6.111  0.4587 -0.5442 -1.3693
    6SAPS  C310  771   2.651   0.251   6.098 -1.1242  0.3175  0.1152
    6SAPS  H10X  772   2.742   0.240   6.161 -0.4892  2.4577 -0.3606
    6SAPS  H10Y  773   2.661   0.339   6.032  0.4917  0.3071  0.2930
    6SAPS  C311  774   2.631   0.130   6.001  0.5241  0.5682 -0.4902
    6SAPS  H11X  775   2.536   0.133   5.944  1.4559  1.3200 -2.0847
    6SAPS  H11Y  776   2.627   0.039   6.065 -0.4126  1.8066  1.3023
    6SAPS  C312  777   2.740   0.134   5.901 -0.4036  0.2814 -0.3317
    6SAPS  H12X  778   2.833   0.107   5.956 -0.2001 -1.1564 -1.3303
    6SAPS  H12Y  779   2.754   0.233   5.853  0.3508  1.6027  2.4055
    6SAPS  C313  780   2.716   0.026   5.799 -0.3575 -0.2115  0.6231
    6SAPS  H13X  781   2.627   0.046   5.737  1.5910 -0.1704 -2.3534
    6SAPS  H13Y  782   2.706  -0.061   5.867  0.6077 -0.5135  0.4031
    6SAPS  C314  783   2.833   0.002   5.701 -0.2985  0.5177 -0.2151
    6SAPS  H14X  784   2.895  -0.081   5.743 -0.3943  0.5678  0.0272
    6SAPS  H14Y  785   2.879   0.103   5.699 -0.2927  0.5157 -0.1784
    6SAPS  C315  786   2.786  -0.046   5.556  0.6611 -0.0667 -0.2084
    6SAPS  H15X  787   2.689  -0.098   5.576  0.9537 -0.5924 -0.1519
    6SAPS  H15Y  788   2.865  -0.117   5.523  0.7857 -0.1674  0.3032
    6SAPS  C316  789   2.764   0.061   5.457 -0.1105 -0.7439 -0.1484
    6SAPS  H16X  790   2.836   0.144   5.470 -2.9002  2.0152 -0.9114
    6SAPS  H16Y  791   2.665   0.101   5.487  0.9179 -0.0823  2.6413
    6SAPS  C317  792   2.754   0.005   5.319 -0.1754  0.0390 -0.1561
    6SAPS  H17X  793   2.719   0.082   5.248  0.2283 -0.1442 -0.5548
    6SAPS  H17Y  794   2.674  -0.072   5.326  0.4053 -0.7343 -1.5847
    6SAPS  C318  795   2.876  -0.072   5.264 -0.2534 -0.3036  0.5418
    6SAPS  H18X  796   2.970  -0.020   5.292  2.1470 -3.4327 -1.1170
    6SAPS  H18Y  797   2.876  -0.076   5.153 -2.0786  1.2754  0.4339
    6SAPS  H18Z  798   2.891  -0.175   5.303  0.7979 -0.7429 -0.9267
    7SAPS     N  799   1.737   2.581   7.516 -0.0678  0.6806 -0.3325
    7SAPS   HN1  800   1.657   2.518   7.535 -1.1434  0.4600 -4.4663
    7SAPS   HN2  801   1.780   2.550   7.426  0.5732  0.5615  0.0118
    7SAPS   HN3  802   1.815   2.580   7.585 -0.8939  1.4776  0.6416
    7SAPS   C12  803   1.685   2.722   7.507  0.1460 -1.0921  0.1976
    7SAPS  H12A  804   1.624   2.720   7.417  1.8091 -1.2058 -0.9739
    7SAPS   C13  805   1.592   2.765   7.619  0.0070 -0.4122  0.6196
    7SAPS  O13A  806   1.577   2.698   7.725 -0.1861 -0.3844  0.4410
    7SAPS  O13B  807   1.531   2.873   7.596  0.1871  0.0851  0.0983
    7SAPS   C11  808   1.798   2.819   7.464  0.0626 -0.0536 -0.3627
    7SAPS  H11A  809   1.876   2.828   7.542  1.0843 -0.3581 -1.3184
    7SAPS  H11B  810   1.759   2.922   7.449 -0.2598  0.1789  1.8207
    7SAPS     P  811   1.995   2.834   7.293  0.4836  0.1524 -0.3644
    7SAPS   O13  812   2.003   2.979   7.318 -0.1680 -0.2175 -0.0075
    7SAPS   O14  813   2.110   2.757   7.355  0.0643  0.6058  0.6825
    7SAPS   O12  814   1.862   2.770   7.347  0.7599  0.1374  0.1668
    7SAPS   O11  815   1.980   2.803   7.141  0.6690 -0.3744  0.2458
    7SAPS    C1  816   1.859   2.807   7.059  0.2751 -0.0270  0.4526
    7SAPS    HA  817   1.846   2.715   6.999  0.0469  0.1456  0.2390
    7SAPS    HB  818   1.764   2.815   7.116 -0.0037  1.5112 -0.1825
    7SAPS    C2  819   1.848   2.930   6.961  0.7273 -0.0352 -0.2564
    7SAPS    HS  820   1.912   2.915   6.872  0.6281 -0.8198 -0.2027
    7SAPS   O21  821   1.885   3.058   7.026  0.4526  0.2223 -0.6114
    7SAPS   C21  822   2.014   3.090   7.005 -0.2574 -0.9718  0.8718
    7SAPS   O22  823   2.097   3.019   6.951  0.0683  0.3609 -0.1761
    7SAPS   C22  824   2.048   3.228   7.068  0.1226 -0.7127  0.1809
    7SAPS   H2R  825   1.953   3.282   7.085 -0.8561 -1.3111 -2.8574
    7SAPS   H2S  826   2.103   3.216   7.164 -0.6662 -3.9975  0.3369
    7SAPS    C3  827   1.706   2.942   6.908 -0.0059 -0.4119 -0.1757
    7SAPS    HX  828   1.699   3.013   6.823  1.0226 -1.6227 -1.3173
    7SAPS    HY  829   1.628   2.981   6.977 -0.5878  2.0048 -2.0790
    7SAPS   O31  830   1.649   2.814   6.871  0.6142 -0.3964 -0.5834
    7SAPS   C31  831   1.650   2.786   6.743  0.2163 -0.0348  0.7350
    7SAPS   O32  832   1.685   2.865   6.657 -0.2957  0.5201 -0.2837
    7SAPS   C32  833   1.598   2.648   6.709  0.5518  0.0844 -0.1392
    7SAPS   H2X  834   1.495   2.656   6.669  1.3600  0.9206 -2.1695
    7SAPS   H2Y  835   1.592   2.586   6.801 -0.4759 -0.9860 -0.9006
    7SAPS   C23  836   2.136   3.318   6.982  0.1888 -0.6873 -0.1083
    7SAPS   H3R  837   2.225   3.257   6.956  1.3967  1.5832 -1.6369
    7SAPS   H3S  838   2.167   3.412   7.031  1.6119 -0.2680 -1.7128
    7SAPS   C24  839   2.057   3.353   6.856 -0.6005 -0.1171 -0.3658
    7SAPS   H4R  840   1.953   3.383   6.883 -1.2173 -2.6804  0.4011
    7SAPS   H4S  841   2.034   3.267   6.791  0.3602  0.6188 -1.7111
    7SAPS   C25  842   2.130   3.454   6.781  0.2033 -0.6273 -0.0232
    7SAPS   H5R  843   2.106   3.557   6.813  0.4056 -0.7196  0.4375
    7SAPS   C26  844   2.228   3.438   6.695  0.6068  0.0792  0.1810
    7SAPS   H6R  845   2.285   3.522   6.652  0.7840 -0.0824  0.0951
    7SAPS   C27  846   2.287   3.300   6.655  0.3425 -0.1695  0.3345
    7SAPS   H7R  847   2.225   3.250   6.577  2.9010 -1.6973 -0.8290
    7SAPS   H7S  848   2.296   3.223   6.735 -1.5823 -1.0596 -0.2358
    7SAPS   C28  849   2.426   3.314   6.596 -0.3029  0.1081 -0.0487
    7SAPS   H8R  850   2.504   3.359   6.658  1.8578 -2.2085 -0.9316
    7SAPS   C29  851   2.470   3.286   6.466  0.4211 -0.1085 -0.6291
    7SAPS   H9R  852   2.570   3.316   6.434  1.0397 -0.1081  1.1809
    7SAPS  C210  853   2.373   3.221   6.364 -0.5131  0.3528  0.8177
    7SAPS  H10R  854   2.281   3.182   6.413 -0.2799 -1.1414  0.1016
    7SAPS  H10S  855   2.423   3.140   6.307 -3.2763 -2.0026  1.5073
    7SAPS  C211  856   2.314   3.328   6.269 -0.3510  0.0742 -0.1063
    7SAPS  H11R  857   2.211   3.366   6.276 -0.2939  0.3275 -0.6249
    7SAPS  C212  858   2.367   3.347   6.152  0.0224  0.2776 -0.3342
    7SAPS  H12R  859   2.312   3.420   6.091  0.6873  1.3899  0.3643
    7SAPS  C213  860   2.486   3.273   6.086  0.6516  0.0091 -0.2942
    7SAPS  H13R  861   2.555   3.228   6.160  0.0715 -1.0901 -0.4174
    7SAPS  H13S  862   2.539   3.349   6.024  0.3992 -0.2490 -0.8320
    7SAPS  C214  863   2.425   3.155   6.010 -0.5174  0.5136  0.0667
    7SAPS  H14R  864   2.380   3.082   6.079  1.2573 -0.2361  0.4656
    7SAPS  C215  865   2.437   3.132   5.876  0.4163  0.2867  0.4625
    7SAPS  H15R  866   2.396   3.037   5.840  2.0666 -1.6881  3.3732
    7SAPS  C216  867   2.491   3.220   5.763 -0.3641  0.2547 -0.2475
    7SAPS  H16R  868   2.550   3.149   5.701  0.6241 -1.9464  2.9249
    7SAPS  H16S  869   2.554   3.306   5.797  1.1735 -0.0364 -2.2066
    7SAPS  C217  870   2.371   3.295   5.695 -0.2780  0.1959 -0.2395
    7SAPS  H17R  871   2.337   3.378   5.761 -2.1600  1.1907 -2.3405
    7SAPS  H17S  872   2.284   3.228   5.681 -1.4056  1.7536 -1.0457
    7SAPS  C218  873   2.407   3.361   5.566 -0.2852 -0.1908 -0.5505
    7SAPS  H18R  874   2.487   3.436   5.585 -1.4167  1.2089 -1.1005
    7SAPS  H18S  875   2.321   3.420   5.528 -0.3486 -0.0979 -0.2597
    7SAPS  C219  876   2.446   3.256   5.452 -0.2039  0.8496 -0.7365
    7SAPS  H19R  877   2.379   3.168   5.454  0.0021  0.6942  0.9154
    7SAPS  H19S  878   2.536   3.201   5.490 -1.3484  0.7108  2.0599
    7SAPS  C220  879   2.476   3.314   5.319 -0.3584 -0.4941  0.4628
    7SAPS  H20R  880   2.544   3.402   5.320 -0.8567  0.0769 -2.9361
    7SAPS  H20S  881   2.377   3.356   5.290  0.0993  1.3803  1.4205
    7SAPS  H20T  882   2.524   3.244   5.248  1.0771  0.8100  0.0928
    7SAPS   C33  883   1.676   2.575   6.598  0.2138  0.4783 -0.1781
    7SAPS   H3X  884   1.662   2.469   6.628  3.2043  0.4152  1.3783
    7SAPS   H3Y  885   1.785   2.579   6.616  0.0318 -3.4177  3.3513
    7SAPS   C34  886   1.647   2.614   6.460  1.3688  0.0276  0.4422
    7SAPS   H4X  887   1.721   2.694   6.436  1.0079 -0.2586 -1.8337
    7SAPS   H4Y  888   1.548   2.663   6.448  0.8078 -0.8448  1.3372
    7SAPS   C35  889   1.653   2.495   6.364  0.0895 -0.4475 -0.6829
    7SAPS   H5X  890   1.558   2.438   6.373  0.0482 -0.5305 -1.5960
    7SAPS   H5Y  891   1.740   2.429   6.385  0.1268  0.1059  1.0339
    7SAPS   C36  892   1.671   2.538   6.222  0.0766 -0.3726  0.3371
    7SAPS   H6X  893   1.770   2.582   6.200 -0.0249  0.8852  2.2043
    7SAPS   H6Y  894   1.596   2.616   6.200  1.6847  1.3735  0.8030
    7SAPS   C37  895   1.620   2.429   6.127 -0.3222 -0.6090 -0.9007
    7SAPS   H7X  896   1.518   2.399   6.161 -0.0243  1.8215  2.7200
    7SAPS   H7Y  897   1.676   2.336   6.148 -0.2745 -0.3746  0.0576
    7SAPS   C38  898   1.614   2.474   5.980 -0.8681  0.1081  0.1731
    7SAPS   H8X  899   1.713   2.517   5.953 -0.6395 -0.8628 -0.5863
    7SAPS   H8Y  900   1.563   2.572   5.971  1.1880  1.1014 -1.7304
    7SAPS   C39  901   1.568   2.371   5.875  0.2664 -0.0880 -0.1913
    7SAPS   H9X  902   1.465   2.338   5.902  0.7118 -0.0437  1.6931
    7SAPS   H9Y  903   1.639   2.287   5.885 -2.1068 -2.0882  0.8681
    7SAPS  C310  904   1.559   2.429   5.732 -0.0926  0.0941  0.4767
    7SAPS  H10X  905   1.664   2.442   5.699 -0.2129 -1.4152 -0.6133
    7SAPS  H10Y  906   1.507   2.527   5.732  0.0590  0.1972 -1.1146
    7SAPS  C311  907   1.505   2.324   5.628 -0.1397  0.3521 -0.3535
    7SAPS  H11X  908   1.400   2.295   5.648 -0.2565 -0.0959 -1.5627
    7SAPS  H11Y  909   1.564   2.230   5.628 -1.6307 -0.6372 -1.6815
    7SAPS  C312  910   1.513   2.383   5.486 -0.6177  0.1657 -0.2010
    7SAPS  H12X  911   1.610   2.437   5.493 -0.6480  0.4625 -1.7540
    7SAPS  H12Y  912   1.435   2.461   5.476 -0.4348  0.4791  0.6738
    7SAPS  C313  913   1.516   2.279   5.372 -0.2777 -0.1686  0.2649
    7SAPS  H13X  914   1.443   2.196   5.380  2.7526 -2.8401  3.9493
    7SAPS  H13Y  915   1.618   2.235   5.371 -0.6047 -0.9415 -0.5951
    7SAPS  C314  916   1.502   2.342   5.232  0.1175 -0.2793 -0.0005
    7SAPS  H14X  917   1.590   2.407   5.214 -0.9569  0.8076 -1.6667
    7SAPS  H14Y  918   1.413   2.409   5.235 -1.1394 -1.9043  2.2588
    7SAPS  C315  919   1.499   2.240   5.110  0.7816 -0.6390 -0.9138
    7SAPS  H15X  920   1.480   2.289   5.012 -2.2649  1.1792  0.3976
    7SAPS  H15Y  921   1.407   2.179   5.121  0.5356 -0.0383  0.6672
    7SAPS  C316  922   1.618   2.146   5.112  0.1301 -0.4425 -0.4949
    7SAPS  H16X  923   1.606   2.084   5.204  0.7343  0.4585  0.2118
    7SAPS  H16Y  924   1.706   2.210   5.134  1.1414 -1.3490 -1.7820
    7SAPS  C317  925   1.646   2.084   4.985 -0.0935 -0.2757  0.9599
    7SAPS  H17X  926   1.747   2.038   4.988  0.3823  0.3976 -1.6526
    7SAPS  H17Y  927   1.645   2.171   4.915 -0.6027 -0.2382  1.0069
    7SAPS  C318  928   1.554   1.978   4.921 -0.4641  0.2546 -0.3808
    7SAPS  H18X  929   1.445   1.996   4.917 -0.6685 -0.8413  0.0565
    7SAPS  H18Y  930   1.571   1.877   4.964 -2.6102 -2.0143 -4.2432
    7SAPS  H18Z  931   1.579   1.974   4.812 -1.1132  1.8059 -0.6178
    8SAPS     N  932   2.898   2.285   6.918  0.6087  0.3749  0.4673
    8SAPS   HN1  933   2.850   2.267   6.828 -1.5531 -1.2860  1.8392
    8SAPS   HN2  934   2.851   2.368   6.960 -2.0117 -1.0392  0.5652
    8SAPS   HN3  935   3.000   2.299   6.907  0.8024  1.0962  2.6125
    8SAPS   C12  936   2.885   2.174   7.017  0.6812  0.2711  0.3016
    8SAPS  H12A  937   2.840   2.094   6.960 -2.7448  1.6922  0.7430
    8SAPS   C13  938   3.013   2.123   7.086  0.0756  0.3069  0.3941
    8SAPS  O13A  939   3.132   2.149   7.040 -0.3739 -0.1323 -0.3486
    8SAPS  O13B  940   2.997   2.041   7.178  0.2416  0.8191 -0.0218
    8SAPS   C11  941   2.774   2.211   7.127 -0.3939  0.1057  0.5623
    8SAPS  H11A  942   2.797   2.307   7.178 -0.7279  1.2294 -1.2959
    8SAPS  H11B  943   2.776   2.127   7.199  1.0957  0.6086  1.1611
    8SAPS     P  944   2.546   2.100   7.064 -0.1685  0.1144  0.1615
    8SAPS   O13  945   2.500   2.078   7.200 -0.3516  0.0755 -0.1050
    8SAPS   O14  946   2.446   2.104   6.956  0.3753 -0.0295  0.6911
    8SAPS   O12  947   2.642   2.226   7.061 -0.0248  0.5057  0.0896
    8SAPS   O11  948   2.645   1.988   7.028 -0.1994  0.0027  0.3968
    8SAPS    C1  949   2.630   1.893   6.923  0.4373  0.7405  0.4784
    8SAPS    HA  950   2.661   1.790   6.949  0.3124  0.5017 -0.2960
    8SAPS    HB  951   2.520   1.882   6.910  0.4106 -0.1281  1.3045
    8SAPS    C2  952   2.699   1.936   6.788 -0.0865  0.1905  0.1800
    8SAPS    HS  953   2.671   1.851   6.722 -0.0086 -1.1871  1.8491
    8SAPS   O21  954   2.841   1.937   6.797 -0.0444  0.3818  0.5901
    8SAPS   C21  955   2.910   1.820   6.801 -0.7118  0.2651 -0.4781
    8SAPS   O22  956   2.860   1.710   6.812  0.2440  0.2283  0.2786
    8SAPS   C22  957   3.062   1.853   6.809  0.0602  0.4066 -1.1435
    8SAPS   H2R  958   3.085   1.899   6.908  0.7320 -1.6669 -0.2948
    8SAPS   H2S  959   3.123   1.760   6.812  0.7540  0.7596  3.5003
    8SAPS    C3  960   2.646   2.068   6.733  0.2862 -0.3717 -0.1489
    8SAPS    HX  961   2.664   2.160   6.792  0.6067  0.2198 -1.1361
    8SAPS    HY  962   2.536   2.057   6.738  0.3118 -0.6582 -0.1489
    8SAPS   O31  963   2.688   2.084   6.593  0.0277 -0.0363 -0.3437
    8SAPS   C31  964   2.807   2.122   6.576 -0.5104  0.3614 -0.0837
    8SAPS   O32  965   2.875   2.177   6.659 -0.3915 -0.4626  0.0062
    8SAPS   C32  966   2.843   2.112   6.424 -0.5371  0.2400  0.2108
    8SAPS   H2X  967   2.954   2.116   6.430 -0.6163  2.8215  1.2688
    8SAPS   H2Y  968   2.807   2.201   6.368 -3.8344 -2.3186 -2.1640
    8SAPS   C23  969   3.117   1.927   6.688 -0.2268 -0.2877  0.4700
    8SAPS   H3R  970   3.213   1.972   6.724 -0.2462 -1.4894  2.1740
    8SAPS   H3S  971   3.055   2.013   6.657  1.3813  0.8253  0.2170
    8SAPS   C24  972   3.137   1.833   6.568 -0.4216  0.4676  0.4308
    8SAPS   H4R  973   3.040   1.790   6.535 -1.1717  2.7873 -0.6389
    8SAPS   H4S  974   3.201   1.744   6.584  1.4876  1.3211 -1.8278
    8SAPS   C25  975   3.200   1.914   6.457 -0.2421 -1.1954  0.0116
    8SAPS   H5R  976   3.129   1.985   6.413 -0.8818 -1.7473  0.1384
    8SAPS   C26  977   3.327   1.921   6.415  0.9815 -0.2613  0.3351
    8SAPS   H6R  978   3.343   2.000   6.340  0.0498  0.6177  1.0405
    8SAPS   C27  979   3.438   1.826   6.451 -0.1887 -0.2181  0.0002
    8SAPS   H7R  980   3.408   1.760   6.535 -0.6505  1.3356  1.1264
    8SAPS   H7S  981   3.520   1.891   6.490 -1.0795  1.0907 -0.2224
    8SAPS   C28  982   3.493   1.739   6.342  0.6302  0.1535 -0.1831
    8SAPS   H8R  983   3.602   1.740   6.328  0.5249 -0.9377 -1.2660
    8SAPS   C29  984   3.425   1.646   6.275 -0.2283  0.4953  0.5353
    8SAPS   H9R  985   3.484   1.590   6.201 -1.3895  0.4905 -0.4070
    8SAPS  C210  986   3.286   1.582   6.296  0.3383  0.5389  0.0523
    8SAPS  H10R  987   3.213   1.656   6.258 -0.3312  0.3384  0.9256
    8SAPS  H10S  988   3.258   1.579   6.403 -1.9457  1.3540 -0.4681
    8SAPS  C211  989   3.266   1.442   6.241 -0.2858 -0.3221 -0.2949
    8SAPS  H11R  990   3.288   1.361   6.312  0.6250 -0.9597 -1.2539
    8SAPS  C212  991   3.246   1.415   6.109  0.0932  0.2188 -0.2552
    8SAPS  H12R  992   3.233   1.314   6.067  1.9967 -0.4024  0.5191
    8SAPS  C213  993   3.217   1.529   6.013 -0.4689 -0.1041 -1.0786
    8SAPS  H13R  994   3.300   1.602   6.015  0.1947 -0.8497  1.4398
    8SAPS  H13S  995   3.132   1.585   6.057  0.4058 -0.1079  0.7023
    8SAPS  C214  996   3.179   1.497   5.869 -0.6428 -0.4417 -0.3549
    8SAPS  H14R  997   3.070   1.481   5.861 -0.6150 -0.4420 -0.7098
    8SAPS  C215  998   3.265   1.485   5.769 -0.1703 -0.0110  1.3680
    8SAPS  H15R  999   3.219   1.469   5.671 -0.9477 -2.0200  2.0158
    8SAPS  C216 1000   3.415   1.493   5.786  0.1311 -0.0308  0.8979
    8SAPS  H16R 1001   3.456   1.421   5.860  1.9416  0.1610  0.1375
    8SAPS  H16S 1002   3.456   1.595   5.800  1.9340 -0.4834 -0.6523
    8SAPS  C217 1003   3.477   1.422   5.660  0.5778  0.1454  0.7059
    8SAPS  H17R 1004   3.586   1.439   5.677  0.5219  1.9189 -0.4717
    8SAPS  H17S 1005   3.453   1.475   5.566  2.7680  0.0537  0.0281
    8SAPS  C218 1006   3.434   1.276   5.642  0.5841  0.6742  0.1235
    8SAPS  H18R 1007   3.326   1.263   5.661  0.7734 -0.8508  0.2782
    8SAPS  H18S 1008   3.487   1.212   5.716  2.4735 -1.0504 -2.5151
    8SAPS  C219 1009   3.470   1.216   5.501  0.3805 -0.0123  0.1654
    8SAPS  H19R 1010   3.432   1.279   5.418  1.3838 -1.8288 -1.7575
    8SAPS  H19S 1011   3.430   1.112   5.498  0.5698 -0.0630 -0.7992
    8SAPS  C220 1012   3.623   1.199   5.466  0.3052  0.4229 -0.0708
    8SAPS  H20R 1013   3.642   1.150   5.368 -1.3120 -1.2151  0.3783
    8SAPS  H20S 1014   3.671   1.139   5.546 -2.2633 -0.6306  0.7655
    8SAPS  H20T 1015   3.678   1.296   5.464  1.4739 -0.2244 -0.6357
    8SAPS   C33 1016   2.786   1.982   6.348 -0.3946 -0.3824 -0.5523
    8SAPS   H3X 1017   2.676   1.986   6.343 -0.5850  0.7114  2.3878
    8SAPS   H3Y 1018   2.809   1.898   6.418  0.0429  0.4877  0.3780
    8SAPS   C34 1019   2.863   1.953   6.220  0.2612  0.3828 -0.7822
    8SAPS   H4X 1020   2.962   1.920   6.259  0.3521  2.7077  1.1244
    8SAPS   H4Y 1021   2.877   2.051   6.171  0.2095  1.9986  2.2091
    8SAPS   C35 1022   2.804   1.849   6.127 -0.3976 -0.3121 -0.3653
    8SAPS   H5X 1023   2.881   1.837   6.047  0.7576  1.0233  0.4936
    8SAPS   H5Y 1024   2.714   1.899   6.084 -0.9318 -0.4314  0.6015
    8SAPS   C36 1025   2.775   1.711   6.187 -0.0526 -0.6405  0.2449
    8SAPS   H6X 1026   2.696   1.723   6.264  0.3364 -0.2469  0.5955
    8SAPS   H6Y 1027   2.863   1.679   6.246  1.1202 -0.1220 -1.1574
    8SAPS   C37 1028   2.734   1.596   6.089 -0.1009  0.1080 -0.6165
    8SAPS   H7X 1029   2.639   1.626   6.041  0.1116 -2.4164 -2.8733
    8SAPS   H7Y 1030   2.691   1.505   6.136 -3.2756  2.3682  1.1931
    8SAPS   C38 1031   2.826   1.558   5.971  0.5999 -0.3577 -0.2284
    8SAPS   H8X 1032   2.835   1.447   5.970  0.7742 -0.3653  0.9136
    8SAPS   H8Y 1033   2.920   1.616   5.960 -1.0759  2.1731 -2.7074
    8SAPS   C39 1034   2.756   1.591   5.833 -0.4342  0.3818  0.1179
    8SAPS   H9X 1035   2.717   1.695   5.832 -2.6858 -0.4106  0.2098
    8SAPS   H9Y 1036   2.678   1.516   5.809 -1.4688  1.6122 -0.5453
    8SAPS  C310 1037   2.856   1.580   5.719  0.3566  0.0559 -0.1287
    8SAPS  H10X 1038   2.890   1.475   5.708  3.4027  0.6686  2.1161
    8SAPS  H10Y 1039   2.942   1.643   5.750  0.1801 -0.4345  1.4716
    8SAPS  C311 1040   2.804   1.639   5.590  0.8894  0.1450  0.2643
    8SAPS  H11X 1041   2.878   1.621   5.509  1.0184  1.2849  0.1082
    8SAPS  H11Y 1042   2.788   1.749   5.589 -1.1716 -0.1263 -0.1828
    8SAPS  C312 1043   2.668   1.569   5.555  0.1705 -0.3087 -0.0218
    8SAPS  H12X 1044   2.588   1.603   5.624 -1.0069  0.3488 -1.6464
    8SAPS  H12Y 1045   2.688   1.462   5.579  1.6667 -0.1042 -0.2400
    8SAPS  C313 1046   2.627   1.599   5.412 -0.0071  0.5173  0.3086
    8SAPS  H13X 1047   2.703   1.564   5.339  0.1294 -0.7589  1.0405
    8SAPS  H13Y 1048   2.616   1.708   5.396  1.0794  0.4796 -0.8624
    8SAPS  C314 1049   2.490   1.536   5.373 -0.1455 -0.4760 -0.3581
    8SAPS  H14X 1050   2.422   1.568   5.455  0.0682  1.0370 -0.7368
    8SAPS  H14Y 1051   2.508   1.426   5.375  2.8991 -0.0904  1.7872
    8SAPS  C315 1052   2.448   1.571   5.237  0.2420 -1.4111  1.0730
    8SAPS  H15X 1053   2.529   1.551   5.164 -2.4534  0.0442 -2.6883
    8SAPS  H15Y 1054   2.424   1.679   5.226  1.6344 -0.9961  1.8882
    8SAPS  C316 1055   2.336   1.492   5.175  0.0969 -0.6684 -0.2325
    8SAPS  H16X 1056   2.261   1.497   5.257  3.9324  2.7985  3.5323
    8SAPS  H16Y 1057   2.378   1.390   5.164  1.7210 -0.0611  0.0049
    8SAPS  C317 1058   2.300   1.550   5.032 -0.1311  0.0167 -0.0864
    8SAPS  H17X 1059   2.301   1.660   5.017 -1.6922 -0.2952 -3.3788
    8SAPS  H17Y 1060   2.190   1.535   5.025 -0.1154 -0.7781  1.0430
    8SAPS  C318 1061   2.363   1.481   4.911  0.0381 -0.0584  0.1872
    8SAPS  H18X 1062   2.317   1.380   4.902 -1.7537  0.7936 -0.9739
    8SAPS  H18Y 1063   2.472   1.480   4.928 -0.1123 -2.4782  1.3521
    8SAPS  H18Z 1064   2.343   1.536   4.816  1.6256  0.7640  0.2940
    9SAPS     N 1065   3.571   2.391   7.289  0.1903 -0.2472 -0.0691
    9SAPS   HN1 1066   3.579   2.325   7.369 -0.3801  0.3133  0.4578
    9SAPS   HN2 1067   3.527   2.477   7.328  1.3787 -0.8070  2.7314
    9SAPS   HN3 1068   3.503   2.354   7.219 -1.3848  0.8231  0.8346
    9SAPS   C12 1069   3.701   2.418   7.226 -0.2867 -0.7061  0.2699
    9SAPS  H12A 1070   3.687   2.459   7.127 -2.2223 -1.4171  0.1966
    9SAPS   C13 1071   3.780   2.526   7.311 -0.3386 -0.1024 -0.6591
    9SAPS  O13A 1072   3.718   2.581   7.411 -0.5883  0.2153  0.5457
    9SAPS  O13B 1073   3.878   2.584   7.257 -0.1436  0.1068  0.2233
    9SAPS   C11 1074   3.788   2.289   7.212 -0.2854 -0.2097  0.8940
    9SAPS  H11A 1075   3.797   2.244   7.313  0.9871  2.2436  1.9644
    9SAPS  H11B 1076   3.889   2.324   7.179 -0.9157  2.2459  1.3569
    9SAPS     P 1077   3.665   2.073   7.137  0.0197  0.3347  0.0107
    9SAPS   O13 1078   3.744   2.006   7.245 -0.1906 -0.6514 -0.0697
    9SAPS   O14 1079   3.522   2.100   7.163 -0.1586  0.5678 -0.1255
    9SAPS   O12 1080   3.735   2.215   7.111 -0.2910  0.5520 -0.5265
    9SAPS   O11 1081   3.699   2.000   7.002 -0.0418  0.1456  0.3190
    9SAPS    C1 1082   3.804   2.035   6.908 -0.4881  0.4713 -0.1804
    9SAPS    HA 1083   3.768   2.116   6.841  0.0898  1.3315  0.5242
    9SAPS    HB 1084   3.888   2.080   6.965 -0.0357 -0.0391 -0.4322
    9SAPS    C2 1085   3.868   1.914   6.834  0.3491  0.3916  0.2958
    9SAPS    HS 1086   3.979   1.924   6.829  0.5145  0.4294  2.9047
    9SAPS   O21 1087   3.815   1.917   6.703 -0.4656 -0.0253 -0.2927
    9SAPS   C21 1088   3.875   1.989   6.609 -0.0879 -0.3508  0.0955
    9SAPS   O22 1089   3.966   2.066   6.633  0.3619 -0.2334  0.0169
    9SAPS   C22 1090   3.813   1.965   6.472 -0.4990  0.1438 -0.3383
    9SAPS   H2R 1091   3.882   1.894   6.424  0.3699  0.8964 -0.2208
    9SAPS   H2S 1092   3.715   1.914   6.483 -0.3160 -0.3941 -1.1674
    9SAPS    C3 1093   3.826   1.780   6.901 -1.2362  0.4904 -0.4154
    9SAPS    HX 1094   3.720   1.778   6.934 -1.4074 -2.1518 -0.9276
    9SAPS    HY 1095   3.888   1.775   6.994  1.3732  0.6408 -2.0545
    9SAPS   O31 1096   3.865   1.661   6.828  0.5288  0.1432 -0.0107
    9SAPS   C31 1097   3.772   1.604   6.753  0.6958  0.3516  0.1291
    9SAPS   O32 1098   3.656   1.639   6.738 -0.1693 -0.1622 -0.1948
    9SAPS   C32 1099   3.834   1.478   6.698 -0.7470 -0.4385 -0.1790
    9SAPS   H2X 1100   3.756   1.407   6.661  1.3808 -2.2870 -1.3695
    9SAPS   H2Y 1101   3.894   1.426   6.775 -1.4239 -0.7148  0.1726
    9SAPS   C23 1102   3.805   2.086   6.373  0.3468 -0.2670  0.1805
    9SAPS   H3R 1103   3.837   2.176   6.429  0.1537 -0.4730  0.6216
    9SAPS   H3S 1104   3.699   2.097   6.344  0.4695  4.3956  0.7665
    9SAPS   C24 1105   3.908   2.083   6.254  0.3787  0.2127 -0.2543
    9SAPS   H4R 1106   3.890   1.981   6.213  0.8629  0.1266 -0.2581
    9SAPS   H4S 1107   4.015   2.085   6.282  1.0402 -1.5252 -2.3667
    9SAPS   C25 1108   3.898   2.184   6.146  0.0974 -0.6308  0.7405
    9SAPS   H5R 1109   3.963   2.271   6.160  0.9075 -0.5915 -2.6405
    9SAPS   C26 1110   3.812   2.181   6.040 -0.6834 -0.0045  0.4361
    9SAPS   H6R 1111   3.828   2.257   5.962  2.2953  0.8411  1.7265
    9SAPS   C27 1112   3.717   2.080   5.996  0.0426 -0.1056  0.4939
    9SAPS   H7R 1113   3.756   1.986   6.041 -0.6450  0.0213  1.3908
    9SAPS   H7S 1114   3.710   2.065   5.886 -1.3494 -0.6487  0.6274
    9SAPS   C28 1115   3.576   2.109   6.031  0.5888 -0.1206  0.7191
    9SAPS   H8R 1116   3.572   2.188   6.107  1.6114  0.6168  0.0383
    9SAPS   C29 1117   3.471   2.038   5.985  0.7029  0.6434 -0.2677
    9SAPS   H9R 1118   3.377   2.052   6.039 -0.0695 -1.4631 -0.9542
    9SAPS  C210 1119   3.478   1.913   5.909 -0.1255 -0.0018  0.1143
    9SAPS  H10R 1120   3.469   1.829   5.981 -0.2844  0.9296  1.2168
    9SAPS  H10S 1121   3.573   1.888   5.859 -0.7756  0.1898 -1.2557
    9SAPS  C211 1122   3.372   1.882   5.809  0.0775  0.1449  0.2825
    9SAPS  H11R 1123   3.301   1.810   5.853  1.0683 -2.5887 -2.2714
    9SAPS  C212 1124   3.353   1.933   5.688  0.9542 -0.5989 -0.5370
    9SAPS  H12R 1125   3.279   1.885   5.621  1.5479 -0.5246 -1.2568
    9SAPS  C213 1126   3.432   2.048   5.627  0.3295  0.9326  0.4893
    9SAPS  H13R 1127   3.536   2.055   5.665 -0.0973  0.9137  1.7027
    9SAPS  H13S 1128   3.391   2.146   5.660 -2.0240 -0.2925  1.4102
    9SAPS  C214 1129   3.417   2.027   5.484 -0.0332 -0.1696  0.2424
    9SAPS  H14R 1130   3.332   2.082   5.442 -0.0859 -0.4712 -0.0533
    9SAPS  C215 1131   3.502   1.966   5.399  0.1629 -0.8492 -0.2544
    9SAPS  H15R 1132   3.485   1.964   5.290  0.3969 -0.1627 -0.3073
    9SAPS  C216 1133   3.622   1.890   5.445  0.4202  0.0720  0.3217
    9SAPS  H16R 1134   3.646   1.905   5.552  2.5932  0.6141 -0.1838
    9SAPS  H16S 1135   3.718   1.918   5.397 -0.1958  0.5412 -0.6803
    9SAPS  C217 1136   3.602   1.737   5.430 -1.0521 -0.0750 -0.1647
    9SAPS  H17R 1137   3.521   1.707   5.500 -0.4219 -0.7532  0.2918
    9SAPS  H17S 1138   3.695   1.686   5.463  0.4651  0.7037 -2.9225
    9SAPS  C218 1139   3.575   1.695   5.283  0.8449  0.1697 -0.3328
    9SAPS  H18R 1140   3.637   1.740   5.203 -0.8217 -1.4339 -2.6272
    9SAPS  H18S 1141   3.467   1.720   5.272  0.7109  0.0537  0.5942
    9SAPS  C219 1142   3.589   1.543   5.262 -0.6720  0.1863  0.0314
    9SAPS  H19R 1143   3.551   1.498   5.356 -3.2002  2.4925  0.2490
    9SAPS  H19S 1144   3.699   1.529   5.265 -0.3412  2.4880  1.6133
    9SAPS  C220 1145   3.531   1.473   5.139 -0.0321 -0.2216  0.5527
    9SAPS  H20R 1146   3.426   1.441   5.158 -0.9653  1.5255 -1.2504
    9SAPS  H20S 1147   3.591   1.384   5.113 -0.0152 -0.2207  0.5882
    9SAPS  H20T 1148   3.522   1.553   5.063 -1.4162 -1.6189 -0.8302
    9SAPS   C33 1149   3.912   1.503   6.565 -0.1550  0.3882  0.5684
    9SAPS   H3X 1150   3.956   1.405   6.535 -1.4857  0.0679 -0.4216
    9SAPS   H3Y 1151   4.002   1.568   6.576 -0.0495  0.5789 -1.1042
    9SAPS   C34 1152   3.832   1.558   6.436 -0.7019  0.6948 -0.2089
    9SAPS   H4X 1153   3.780   1.650   6.470  2.4299  2.3080  0.6790
    9SAPS   H4Y 1154   3.761   1.477   6.412 -1.2949  1.1880 -0.1443
    9SAPS   C35 1155   3.919   1.580   6.310  0.1286 -0.0055 -0.1073
    9SAPS   H5X 1156   3.965   1.480   6.290  1.1824  0.2086  1.1042
    9SAPS   H5Y 1157   3.993   1.658   6.338  0.1018  0.1886 -0.5726
    9SAPS   C36 1158   3.848   1.627   6.181 -0.2952 -0.1312  0.7062
    9SAPS   H6X 1159   3.910   1.687   6.111 -3.1365  1.1279 -0.9169
    9SAPS   H6Y 1160   3.765   1.697   6.204  0.9962  1.9688 -0.6598
    9SAPS   C37 1161   3.796   1.508   6.096  0.4652  0.0139  1.0142
    9SAPS   H7X 1162   3.740   1.435   6.158 -2.3794  1.6986  0.6100
    9SAPS   H7Y 1163   3.883   1.448   6.061  0.1665 -0.4852  1.1245
    9SAPS   C38 1164   3.710   1.557   5.976 -0.6118  0.0751 -0.3617
    9SAPS   H8X 1165   3.624   1.618   6.011 -2.0983 -1.2873 -1.4707
    9SAPS   H8Y 1166   3.667   1.464   5.932 -0.2188 -0.0206 -0.5484
    9SAPS   C39 1167   3.783   1.640   5.867 -0.3371  0.0210  0.3484
    9SAPS   H9X 1168   3.808   1.736   5.917 -0.9765 -1.0604  2.8889
    9SAPS   H9Y 1169   3.711   1.664   5.787 -1.1911  0.8869  1.3468
    9SAPS  C310 1170   3.917   1.578   5.813  0.1442  0.1923  0.1462
    9SAPS  H10X 1171   3.984   1.584   5.901 -1.3603  0.5150  1.2959
    9SAPS  H10Y 1172   3.954   1.643   5.731  0.1202 -1.5492 -1.3118
    9SAPS  C311 1173   3.895   1.433   5.771  0.0867 -0.1966 -0.3469
    9SAPS  H11X 1174   3.801   1.420   5.712 -1.4463  2.0593  1.4089
    9SAPS  H11Y 1175   3.880   1.369   5.860  1.1314 -0.8222 -0.6105
    9SAPS  C312 1176   4.016   1.388   5.697 -0.0856 -0.0430  1.0805
    9SAPS  H12X 1177   4.054   1.293   5.741  2.7249 -0.2794 -1.5297
    9SAPS  H12Y 1178   4.099   1.461   5.710 -1.0885  1.1513  0.9387
    9SAPS  C313 1179   3.992   1.361   5.545 -0.3535 -0.1531 -0.5387
    9SAPS  H13X 1180   3.903   1.296   5.537 -0.0594 -0.4715 -1.2873
    9SAPS  H13Y 1181   4.090   1.319   5.512 -0.5660 -1.3573  0.3108
    9SAPS  C314 1182   3.960   1.480   5.451 -0.1554  0.4405  0.0218
    9SAPS  H14X 1183   4.009   1.573   5.486  0.0392  1.8104 -3.4343
    9SAPS  H14Y 1184   3.851   1.500   5.450 -0.6691 -1.8473  1.9145
    9SAPS  C315 1185   4.021   1.456   5.309  0.0293 -0.4422  0.1362
    9SAPS  H15X 1186   4.126   1.478   5.337 -0.5416  0.3149  1.8379
    9SAPS  H15Y 1187   3.993   1.540   5.241  0.2838  1.0000  1.7255
    9SAPS  C316 1188   4.002   1.317   5.244 -0.4409  0.5518 -0.5034
    9SAPS  H16X 1189   3.893   1.318   5.220 -0.3344  1.7343 -0.9879
    9SAPS  H16Y 1190   4.028   1.223   5.298 -0.9333 -0.5846 -2.1561
    9SAPS  C317 1191   4.077   1.302   5.114 -0.6428 -0.2279 -0.1744
    9SAPS  H17X 1192   4.186   1.282   5.126 -0.7658 -2.4385 -1.9742
    9SAPS  H17Y 1193   4.066   1.385   5.041 -2.2789 -1.4160 -1.3581
    9SAPS  C318 1194   4.024   1.181   5.041 -0.1510 -0.4244 -0.2848
    9SAPS  H18X 1195   4.094   1.167   4.955 -2.2126 -0.7848 -1.9946
    9SAPS  H18Y 1196   3.925   1.195   4.994 -1.3920  0.1649  2.3370
    9SAPS  H18Z 1197   4.018   1.095   5.110 -0.7132 -0.8348 -0.8276
   10SAPS     N 1198   2.857   6.831   7.262 -0.2002  0.1513  0.3445
   10SAPS   HN1 1199   2.753   6.832   7.272 -0.4932  1.4740 -1.9704
   10SAPS   HN2 1200   2.881   6.896   7.184  0.4412  1.8672  1.8976
   10SAPS   HN3 1201   2.885   6.737   7.228  0.5517  1.4494 -3.0224
   10SAPS   C12 1202   2.943   6.867   7.378  0.4965 -0.0710  0.6804
   10SAPS  H12A 1203   2.929   6.974   7.379 -0.8524 -0.1638 -1.3444
   10SAPS   C13 1204   2.904   6.797   7.517  0.1872  0.0522 -0.4032
   10SAPS  O13A 1205   2.802   6.717   7.520 -0.2973  0.1697  0.3828
   10SAPS  O13B 1206   2.985   6.800   7.613 -0.2748  0.3398  0.1505
   10SAPS   C11 1207   3.087   6.829   7.352  0.2043 -0.0319 -0.2879
   10SAPS  H11A 1208   3.099   6.720   7.334  0.3321 -0.2857  1.2263
   10SAPS  H11B 1209   3.147   6.846   7.444  1.7267  0.5515 -1.3538
   10SAPS     P 1210   3.266   6.889   7.171 -0.1496  0.2578 -0.1211
   10SAPS   O13 1211   3.371   6.882   7.278 -0.0347  0.4459  0.0904
   10SAPS   O14 1212   3.251   6.777   7.072  0.7291 -0.6566 -0.3409
   10SAPS   O12 1213   3.130   6.914   7.249  0.1679 -0.3939 -0.3312
   10SAPS   O11 1214   3.286   7.025   7.086 -0.1268 -0.0135 -0.1775
   10SAPS    C1 1215   3.240   7.148   7.135 -0.6811  0.1013  0.4125
   10SAPS    HA 1216   3.130   7.153   7.148 -0.7712  2.3145 -0.8497
   10SAPS    HB 1217   3.289   7.164   7.234 -1.6404  0.4847  0.8341
   10SAPS    C2 1218   3.279   7.264   7.036 -0.4287  0.7646 -0.6400
   10SAPS    HS 1219   3.218   7.354   7.060 -0.0447  0.5643  1.2851
   10SAPS   O21 1220   3.267   7.234   6.895 -0.1129 -0.0385 -0.3181
   10SAPS   C21 1221   3.138   7.229   6.859 -0.6042 -0.8405 -0.1046
   10SAPS   O22 1222   3.042   7.244   6.934  0.0014 -0.0920  0.2569
   10SAPS   C22 1223   3.128   7.214   6.709 -0.3886  0.0177 -0.3042
   10SAPS   H2R 1224   3.067   7.301   6.676 -0.5050 -0.7018 -2.0881
   10SAPS   H2S 1225   3.228   7.237   6.668 -0.6760  1.7553 -0.1233
   10SAPS    C3 1226   3.425   7.304   7.074 -0.1152  0.3670 -0.2052
   10SAPS    HX 1227   3.485   7.212   7.093  0.7065  0.6773 -1.1945
   10SAPS    HY 1228   3.414   7.346   7.176 -0.5918 -2.1155  0.8342
   10SAPS   O31 1229   3.494   7.391   6.985 -0.0894  0.2123 -0.1725
   10SAPS   C31 1230   3.571   7.337   6.881 -0.2708 -0.5258 -0.4588
   10SAPS   O32 1231   3.575   7.216   6.867 -0.0528 -0.0482  0.1188
   10SAPS   C32 1232   3.646   7.446   6.812  0.8444 -0.3414  0.4118
   10SAPS   H2X 1233   3.742   7.405   6.774  0.7957 -0.5277  0.4857
   10SAPS   H2Y 1234   3.677   7.516   6.892  0.3468 -0.4608  0.7192
   10SAPS   C23 1235   3.075   7.076   6.657 -0.3895 -0.0393 -0.1768
   10SAPS   H3R 1236   2.998   7.046   6.731  0.7137 -0.0554  0.9935
   10SAPS   H3S 1237   3.157   7.001   6.660 -0.2280  0.1625  0.7811
   10SAPS   C24 1238   3.018   7.069   6.514 -0.5197 -0.8725  0.5217
   10SAPS   H4R 1239   3.079   7.139   6.453 -2.3865 -0.3244 -0.8085
   10SAPS   H4S 1240   2.918   7.116   6.529 -0.4006  0.7559 -2.9911
   10SAPS   C25 1241   3.000   6.946   6.434 -0.2983  0.5613 -0.3278
   10SAPS   H5R 1242   2.994   6.854   6.493  0.8140  1.3713  1.1221
   10SAPS   C26 1243   3.023   6.923   6.301 -0.0555 -0.0696  0.1919
   10SAPS   H6R 1244   3.008   6.822   6.260 -0.1576  0.2000 -0.4614
   10SAPS   C27 1245   3.070   7.021   6.195  0.6095 -0.1951  0.3357
   10SAPS   H7R 1246   3.074   7.119   6.249 -1.0545 -2.2914  4.7077
   10SAPS   H7S 1247   2.989   7.027   6.119  2.7668 -0.6294 -2.1638
   10SAPS   C28 1248   3.207   6.985   6.144 -0.2614  0.0338  1.2108
   10SAPS   H8R 1249   3.288   6.962   6.215  0.9194 -1.9909 -0.6313
   10SAPS   C29 1250   3.245   6.985   6.011 -0.3572  0.3674  0.3490
   10SAPS   H9R 1251   3.352   6.977   5.989 -0.2627  2.6997 -0.3954
   10SAPS  C210 1252   3.157   7.000   5.887  0.0578  0.0186  0.5415
   10SAPS  H10R 1253   3.052   7.015   5.922  0.2572  1.8131  0.4512
   10SAPS  H10S 1254   3.156   6.909   5.823  0.4461 -0.4146  1.1529
   10SAPS  C211 1255   3.192   7.114   5.792  0.6636 -0.1105 -0.5122
   10SAPS  H11R 1256   3.144   7.208   5.824 -0.7543 -1.1054  0.3809
   10SAPS  C212 1257   3.263   7.111   5.681 -0.1284 -0.4539  0.2681
   10SAPS  H12R 1258   3.287   7.203   5.626  1.1544  0.0867  1.6684
   10SAPS  C213 1259   3.346   6.999   5.636 -0.4310 -0.2000 -0.8720
   10SAPS  H13R 1260   3.391   6.944   5.721 -0.5166 -1.4858 -1.6157
   10SAPS  H13S 1261   3.436   7.036   5.582 -0.6749  0.5301 -0.7880
   10SAPS  C214 1262   3.262   6.901   5.551 -0.3832  0.3850  0.0332
   10SAPS  H14R 1263   3.170   6.861   5.597  0.4246 -1.0915  0.4212
   10SAPS  C215 1264   3.293   6.869   5.425 -0.6825  0.2476  0.6033
   10SAPS  H15R 1265   3.234   6.801   5.363 -0.2643  2.3326 -2.2923
   10SAPS  C216 1266   3.405   6.925   5.340 -0.0879  0.1588  0.1122
   10SAPS  H16R 1267   3.476   6.987   5.398  0.8696  1.5043 -2.3277
   10SAPS  H16S 1268   3.362   6.988   5.259 -0.6030  0.1608  0.3869
   10SAPS  C217 1269   3.474   6.809   5.263  0.6312  1.1345 -0.2494
   10SAPS  H17R 1270   3.397   6.743   5.217  2.2213 -1.3049  0.4603
   10SAPS  H17S 1271   3.532   6.744   5.331 -1.3464 -1.6762 -1.0442
   10SAPS  C218 1272   3.557   6.862   5.149 -0.1906 -0.1826  0.5955
   10SAPS  H18R 1273   3.636   6.935   5.178  0.8806 -0.3655 -1.6649
   10SAPS  H18S 1274   3.492   6.918   5.078 -0.3815  0.9054  1.5901
   10SAPS  C219 1275   3.629   6.754   5.073  0.1125 -0.2069 -0.3616
   10SAPS  H19R 1276   3.549   6.733   4.998 -0.9270  2.9872 -0.3304
   10SAPS  H19S 1277   3.649   6.665   5.136 -0.4295  0.0566  0.1960
   10SAPS  C220 1278   3.755   6.803   5.010  0.2425  0.5165 -0.1693
   10SAPS  H20R 1279   3.787   6.739   4.925 -0.2988  2.1334 -1.6445
   10SAPS  H20S 1280   3.843   6.818   5.076  0.5914 -0.3611 -0.4192
   10SAPS  H20T 1281   3.748   6.906   4.970 -1.4078  0.0499 -1.2187
   10SAPS   C33 1282   3.563   7.520   6.701 -0.1312  0.4563  0.2282
   10SAPS   H3X 1283   3.638   7.583   6.648  2.0297 -2.6344 -0.6685
   10SAPS   H3Y 1284   3.486   7.584   6.749 -0.7364 -0.1096  0.0220
   10SAPS   C34 1285   3.491   7.435   6.594  0.4175 -0.4959 -0.0933
   10SAPS   H4X 1286   3.425   7.513   6.550  1.5890 -0.1832 -1.3696
   10SAPS   H4Y 1287   3.434   7.350   6.636 -1.5072  0.1376 -1.3276
   10SAPS   C35 1288   3.592   7.373   6.492  0.3247  0.1498  0.5062
   10SAPS   H5X 1289   3.668   7.322   6.555  1.3357 -0.8403 -1.4236
   10SAPS   H5Y 1290   3.644   7.455   6.437 -1.2372  1.3461  0.7558
   10SAPS   C36 1291   3.533   7.266   6.401 -1.0256 -0.0872 -0.3309
   10SAPS   H6X 1292   3.442   7.314   6.359  0.3951  1.5555 -1.6950
   10SAPS   H6Y 1293   3.496   7.186   6.469 -2.7028  1.0470  0.1575
   10SAPS   C37 1294   3.630   7.211   6.292 -0.2189 -0.5095  0.4457
   10SAPS   H7X 1295   3.623   7.100   6.288  1.5916 -0.6194 -0.3280
   10SAPS   H7Y 1296   3.735   7.235   6.318  0.1729  0.6927 -2.0355
   10SAPS   C38 1297   3.605   7.264   6.153 -0.0646  0.3943  0.0257
   10SAPS   H8X 1298   3.504   7.229   6.124  1.0663 -1.4970 -1.8938
   10SAPS   H8Y 1299   3.680   7.229   6.079 -0.0208 -0.4223  0.4474
   10SAPS   C39 1300   3.616   7.416   6.122  0.0330 -0.1836  0.2197
   10SAPS   H9X 1301   3.722   7.447   6.129 -0.0391 -0.1285  1.1669
   10SAPS   H9Y 1302   3.561   7.484   6.190  0.6305  1.5295 -0.9548
   10SAPS  C310 1303   3.577   7.455   5.984 -0.4631 -0.0138 -1.0296
   10SAPS  H10X 1304   3.624   7.386   5.910  0.6321  1.5689 -1.8711
   10SAPS  H10Y 1305   3.622   7.555   5.966  0.3014 -0.3743 -1.1884
   10SAPS  C311 1306   3.424   7.449   5.967 -0.0896 -0.9282 -0.1352
   10SAPS  H11X 1307   3.383   7.501   6.056  0.3790  1.3256 -1.1717
   10SAPS  H11Y 1308   3.382   7.346   5.966 -0.2773 -0.8527  0.0115
   10SAPS  C312 1309   3.382   7.517   5.834  0.1766  0.1003 -1.0587
   10SAPS  H12X 1310   3.389   7.625   5.859 -1.7618 -0.3238  1.8435
   10SAPS  H12Y 1311   3.274   7.496   5.818  0.2181 -3.6224  2.0857
   10SAPS  C313 1312   3.464   7.480   5.711 -0.0353 -0.3679 -0.3701
   10SAPS  H13X 1313   3.441   7.381   5.666  0.3710  0.3824 -2.3091
   10SAPS  H13Y 1314   3.574   7.481   5.732 -0.4058  0.3550  1.7917
   10SAPS  C314 1315   3.439   7.585   5.603 -0.3075 -0.1480 -0.2166
   10SAPS  H14X 1316   3.520   7.660   5.620 -0.6639 -0.2703  2.5580
   10SAPS  H14Y 1317   3.345   7.644   5.611 -0.3758 -0.3872  0.8340
   10SAPS  C315 1318   3.451   7.543   5.458  0.0998 -0.6272  0.3927
   10SAPS  H15X 1319   3.427   7.630   5.394 -1.0992 -1.0362  0.2514
   10SAPS  H15Y 1320   3.371   7.468   5.442 -1.0089  0.5849  0.1056
   10SAPS  C316 1321   3.576   7.474   5.425 -0.1257  0.4587  0.3647
   10SAPS  H16X 1322   3.579   7.377   5.480 -1.6741 -0.1793 -0.6179
   10SAPS  H16Y 1323   3.661   7.541   5.450 -0.0436  1.1071 -1.5080
   10SAPS  C317 1324   3.598   7.453   5.269 -0.2181 -0.2232  0.3259
   10SAPS  H17X 1325   3.707   7.455   5.250 -0.2536  0.4575  0.1527
   10SAPS  H17Y 1326   3.551   7.539   5.216 -0.9659 -1.0320 -0.3553
   10SAPS  C318 1327   3.526   7.328   5.217  0.4693 -0.5316  0.3759
   10SAPS  H18X 1328   3.422   7.329   5.256  0.9297  0.9443  1.6821
   10SAPS  H18Y 1329   3.580   7.238   5.252 -0.5057 -1.0333  0.5953
   10SAPS  H18Z 1330   3.531   7.314   5.107  2.4032 -0.0127  0.3592
   11SAPS     N 1331   4.067   2.019   2.658 -0.3925 -0.3992 -0.1127
   11SAPS   HN1 1332   4.135   1.942   2.640 -0.8803 -0.5531 -1.3510
   11SAPS   HN2 1333   4.111   2.112   2.645  0.4737 -0.4856  1.8128
   11SAPS   HN3 1334   4.039   2.013   2.759 -0.2993 -1.7571 -0.1471
   11SAPS   C12 1335   3.951   1.984   2.578  0.4323 -0.0918  0.0388
   11SAPS  H12A 1336   3.978   1.974   2.474  0.4155  0.6882 -0.0468
   11SAPS   C13 1337   3.876   1.855   2.623  0.7743  0.3432 -0.3896
   11SAPS  O13A 1338   3.912   1.799   2.730 -0.0740  0.2077  0.0128
   11SAPS  O13B 1339   3.775   1.810   2.558 -0.1365  0.0088  0.3585
   11SAPS   C11 1340   3.851   2.104   2.597 -0.2533  0.1812 -0.3746
   11SAPS  H11A 1341   3.815   2.107   2.702 -0.0139 -2.4850 -0.1479
   11SAPS  H11B 1342   3.767   2.080   2.528  0.6456 -0.8985 -1.1387
   11SAPS     P 1343   3.835   2.367   2.578  0.0042  0.1584 -0.6060
   11SAPS   O13 1344   3.929   2.475   2.522  0.8812  0.4482 -0.1514
   11SAPS   O14 1345   3.694   2.366   2.530 -0.3939 -0.0496  0.3164
   11SAPS   O12 1346   3.908   2.224   2.551  0.5463  0.0503 -0.6082
   11SAPS   O11 1347   3.838   2.364   2.739  0.2726  0.0782  0.3491
   11SAPS    C1 1348   3.966   2.376   2.797 -0.1686  0.2768 -0.4204
   11SAPS    HA 1349   4.039   2.306   2.753 -2.1615 -1.3266 -1.3481
   11SAPS    HB 1350   3.995   2.483   2.791 -0.5540  0.3375 -1.3608
   11SAPS    C2 1351   3.973   2.338   2.950 -0.2451  0.4793 -0.1915
   11SAPS    HS 1352   4.073   2.293   2.967 -0.3500 -0.1755 -1.1969
   11SAPS   O21 1353   3.874   2.239   2.982  0.0288 -0.0125  0.0531
   11SAPS   C21 1354   3.908   2.115   2.956  0.2402 -0.2036  0.0580
   11SAPS   O22 1355   4.005   2.073   2.898 -0.0850 -0.0423 -0.1792
   11SAPS   C22 1356   3.801   2.024   3.008 -0.5765 -0.3291  0.0682
   11SAPS   H2R 1357   3.703   2.065   2.975 -0.7443 -0.7296  0.0645
   11SAPS   H2S 1358   3.819   1.928   2.957 -0.2264 -0.2085 -0.0370
   11SAPS    C3 1359   3.945   2.458   3.037 -0.8405  0.5175  0.9888
   11SAPS    HX 1360   3.838   2.486   3.034 -0.3309  2.7892  1.7773
   11SAPS    HY 1361   4.011   2.536   2.994 -2.1780  0.5530 -1.1168
   11SAPS   O31 1362   3.989   2.417   3.164  0.0587  0.3247 -0.1662
   11SAPS   C31 1363   3.957   2.511   3.256 -0.4178  0.5763 -0.0916
   11SAPS   O32 1364   3.880   2.604   3.240  0.2059 -0.3485 -0.5865
   11SAPS   C32 1365   4.041   2.475   3.384  0.1078 -0.0396  0.5997
   11SAPS   H2X 1366   4.141   2.515   3.359  0.4538  0.1831  2.2040
   11SAPS   H2Y 1367   4.042   2.369   3.419  1.8017  0.5890  2.6746
   11SAPS   C23 1368   3.792   2.014   3.166 -1.3303  0.6462 -0.0651
   11SAPS   H3R 1369   3.695   1.979   3.207  0.3365 -1.5238  2.3974
   11SAPS   H3S 1370   3.802   2.119   3.201  2.7349  1.1025 -2.1010
   11SAPS   C24 1371   3.915   1.947   3.240 -0.1869 -0.0450 -0.7901
   11SAPS   H4R 1372   3.911   1.982   3.346  2.3669 -1.1293 -0.2597
   11SAPS   H4S 1373   4.010   1.985   3.198 -0.1115  1.2068  0.4391
   11SAPS   C25 1374   3.906   1.800   3.237  0.1534  0.4213  0.2439
   11SAPS   H5R 1375   3.970   1.753   3.161 -0.3895  2.2990 -1.4403
   11SAPS   C26 1376   3.860   1.712   3.335 -0.6871 -0.1152  0.3552
   11SAPS   H6R 1377   3.860   1.603   3.321 -4.8350 -0.1023 -1.2925
   11SAPS   C27 1378   3.798   1.766   3.466  0.4469  0.2515 -0.2872
   11SAPS   H7R 1379   3.736   1.855   3.443  1.0876  1.5369  2.4678
   11SAPS   H7S 1380   3.883   1.803   3.527  0.3262 -0.6197  0.4280
   11SAPS   C28 1381   3.699   1.670   3.538 -0.2284  1.0511  1.1716
   11SAPS   H8R 1382   3.651   1.594   3.475  0.8646 -0.6364  2.3203
   11SAPS   C29 1383   3.665   1.684   3.668 -0.4163  0.5891 -0.7058
   11SAPS   H9R 1384   3.600   1.606   3.712  2.9612 -1.9299  0.3203
   11SAPS  C210 1385   3.714   1.787   3.769 -0.2222 -0.2843 -0.4978
   11SAPS  H10R 1386   3.787   1.857   3.722  0.0283 -1.0329 -1.2538
   11SAPS  H10S 1387   3.778   1.729   3.839 -0.9221  0.7612  1.0864
   11SAPS  C211 1388   3.609   1.874   3.836  0.2862  0.5652 -0.6480
   11SAPS  H11R 1389   3.589   1.966   3.781 -2.9542 -0.6430 -1.7125
   11SAPS  C212 1390   3.554   1.847   3.958 -0.5105  0.1451 -0.5768
   11SAPS  H12R 1391   3.475   1.913   3.996 -1.5793 -1.1682 -0.4642
   11SAPS  C213 1392   3.567   1.724   4.049 -0.0910  0.1599  0.3810
   11SAPS  H13R 1393   3.590   1.640   3.980 -2.0318  0.4094 -0.6551
   11SAPS  H13S 1394   3.472   1.696   4.100 -0.5060  0.9873  0.0824
   11SAPS  C214 1395   3.688   1.735   4.144  0.4779 -0.2813 -0.0669
   11SAPS  H14R 1396   3.785   1.713   4.097  1.3185 -0.0591  1.5178
   11SAPS  C215 1397   3.680   1.778   4.270 -0.1869 -0.7453 -0.3935
   11SAPS  H15R 1398   3.772   1.795   4.328 -1.8218  0.5653  2.0000
   11SAPS  C216 1399   3.550   1.821   4.348 -0.3753  0.1076  0.2879
   11SAPS  H16R 1400   3.454   1.809   4.293 -0.4829  1.9694  0.0184
   11SAPS  H16S 1401   3.558   1.932   4.355 -1.3136  0.0844  2.2742
   11SAPS  C217 1402   3.537   1.751   4.483 -0.0381 -0.1873  0.2985
   11SAPS  H17R 1403   3.630   1.777   4.538 -0.1583 -0.7568  0.7834
   11SAPS  H17S 1404   3.532   1.641   4.468 -1.3300 -0.3591  1.7310
   11SAPS  C218 1405   3.428   1.812   4.569  0.4958 -0.0379  0.0440
   11SAPS  H18R 1406   3.444   1.922   4.569  0.1537  0.0137  0.1627
   11SAPS  H18S 1407   3.425   1.771   4.673 -2.3099 -3.2291 -1.0900
   11SAPS  C219 1408   3.275   1.788   4.529 -0.2784 -0.0309 -0.0139
   11SAPS  H19R 1409   3.262   1.678   4.536 -1.9418  0.2385  2.4100
   11SAPS  H19S 1410   3.252   1.829   4.429 -0.2492 -1.4856 -0.6411
   11SAPS  C220 1411   3.177   1.845   4.635  0.7126 -0.1304  0.3466
   11SAPS  H20R 1412   3.202   1.799   4.733  0.8963  1.9460  1.3039
   11SAPS  H20S 1413   3.069   1.830   4.613  1.1700 -1.3873 -1.2561
   11SAPS  H20T 1414   3.194   1.954   4.647  0.3053 -0.1472  1.1176
   11SAPS   C33 1415   3.988   2.558   3.505 -0.0064 -0.5567 -1.4213
   11SAPS   H3X 1416   4.004   2.505   3.601 -0.5758 -0.2270 -1.1396
   11SAPS   H3Y 1417   3.877   2.557   3.502 -0.1035 -0.0439  0.5900
   11SAPS   C34 1418   4.037   2.700   3.504  0.6769  0.3666  0.3096
   11SAPS   H4X 1419   4.049   2.726   3.396 -2.7116  3.2255  0.4410
   11SAPS   H4Y 1420   4.146   2.707   3.525  1.2029  0.0588 -2.0132
   11SAPS   C35 1421   3.949   2.799   3.567  0.6810  0.2389  0.8861
   11SAPS   H5X 1422   3.842   2.783   3.543  0.0238  2.9661  1.7219
   11SAPS   H5Y 1423   3.979   2.901   3.536 -0.4489  1.1327  2.6178
   11SAPS   C36 1424   3.967   2.808   3.718 -0.5793 -0.5584 -0.0906
   11SAPS   H6X 1425   4.074   2.831   3.737 -1.2014 -0.4730  4.2993
   11SAPS   H6Y 1426   3.953   2.710   3.768 -1.1585 -2.0924 -3.0425
   11SAPS   C37 1427   3.867   2.911   3.773  0.2924 -0.3975 -0.3275
   11SAPS   H7X 1428   3.769   2.859   3.773 -0.1274  0.3570  0.7025
   11SAPS   H7Y 1429   3.881   3.002   3.711 -0.4860 -0.7044 -0.9635
   11SAPS   C38 1430   3.885   2.949   3.922 -0.6249 -0.2302 -0.3442
   11SAPS   H8X 1431   3.832   3.045   3.942  1.8994  1.4432 -1.1076
   11SAPS   H8Y 1432   3.992   2.974   3.940 -0.6669  0.3244 -0.8145
   11SAPS   C39 1433   3.848   2.843   4.021  0.4098  0.0627  0.1043
   11SAPS   H9X 1434   3.931   2.769   4.015  1.8547  1.4765  1.7078
   11SAPS   H9Y 1435   3.753   2.795   3.990 -0.5133  1.2300  1.0493
   11SAPS  C310 1436   3.827   2.885   4.170  0.8147  0.7653  0.5769
   11SAPS  H10X 1437   3.807   2.792   4.226 -1.1227  1.2638  0.7698
   11SAPS  H10Y 1438   3.730   2.937   4.185  0.2540  0.3377 -1.2985
   11SAPS  C311 1439   3.942   2.954   4.242 -0.2687  0.1055 -0.8073
   11SAPS  H11X 1440   3.961   3.051   4.191  1.7224 -0.7285 -1.7974
   11SAPS  H11Y 1441   4.038   2.898   4.236  0.6235  0.8604  3.5062
   11SAPS  C312 1442   3.920   2.979   4.387 -0.2045 -0.6000  0.0235
   11SAPS  H12X 1443   3.953   2.896   4.452  1.3841  0.0615  0.0862
   11SAPS  H12Y 1444   3.809   2.977   4.398 -0.2981 -0.5587 -0.7986
   11SAPS  C313 1445   3.982   3.116   4.423  0.5291  0.5292 -0.1117
   11SAPS  H13X 1446   3.911   3.185   4.374  0.5439  1.0995  0.6449
   11SAPS  H13Y 1447   4.085   3.126   4.382 -0.3622  0.0671 -2.5835
   11SAPS  C314 1448   3.981   3.105   4.579 -0.1480  0.0917 -0.1810
   11SAPS  H14X 1449   4.027   3.009   4.610 -0.5022 -0.0256 -0.0186
   11SAPS  H14Y 1450   3.872   3.093   4.597 -0.5114  2.0613 -0.7961
   11SAPS  C315 1451   4.019   3.227   4.663 -0.2726 -0.3561 -0.1227
   11SAPS  H15X 1452   3.954   3.302   4.613 -0.0502 -0.5607 -0.7338
   11SAPS  H15Y 1453   4.127   3.249   4.647  0.0044 -1.0825  0.7197
   11SAPS  C316 1454   4.006   3.214   4.818  0.1331  0.8641 -0.2593
   11SAPS  H16X 1455   3.906   3.170   4.841  0.8128 -0.5784  0.0418
   11SAPS  H16Y 1456   4.020   3.317   4.858 -1.0548  0.4052  1.4841
   11SAPS  C317 1457   4.112   3.127   4.890 -0.3430 -0.5706  0.1408
   11SAPS  H17X 1458   4.204   3.152   4.833  0.7232 -0.5096  1.8113
   11SAPS  H17Y 1459   4.080   3.027   4.855  2.3311 -1.0372 -1.1804
   11SAPS  C318 1460   4.121   3.125   5.044  0.1038 -0.6419  0.3097
   11SAPS  H18X 1461   4.157   3.028   5.084  0.5661 -0.2664  0.8189
   11SAPS  H18Y 1462   4.023   3.141   5.093 -0.5621 -0.6618 -0.9864
   11SAPS  H18Z 1463   4.167   3.222   5.074 -0.8023  0.2030 -0.9564
   12SAPS     N 1464   3.493   0.658   2.810 -0.2101  0.1519  0.0976
   12SAPS   HN1 1465   3.414   0.626   2.749  1.9508 -1.4696 -2.0178
   12SAPS   HN2 1466   3.476   0.627   2.907 -1.0315  1.4302  0.3942
   12SAPS   HN3 1467   3.507   0.761   2.813  0.5998  0.0700 -0.4617
   12SAPS   C12 1468   3.619   0.593   2.764  0.2429  0.4928 -0.0885
   12SAPS  H12A 1469   3.604   0.486   2.771 -1.1441  0.5654 -1.4347
   12SAPS   C13 1470   3.645   0.611   2.610  0.1365 -0.3369  0.4727
   12SAPS  O13A 1471   3.576   0.687   2.539 -0.4942 -0.2152  0.1056
   12SAPS  O13B 1472   3.755   0.559   2.562 -0.0151 -0.2740 -0.1441
   12SAPS   C11 1473   3.741   0.638   2.844  0.7187 -0.5440 -0.2261
   12SAPS  H11A 1474   3.757   0.744   2.813 -1.7665  0.3013  1.1521
   12SAPS  H11B 1475   3.834   0.585   2.815  1.8532  1.2093  0.0365
   12SAPS     P 1476   3.809   0.704   3.085 -0.3465 -0.0204 -0.2226
   12SAPS   O13 1477   3.723   0.791   3.175 -0.5982  0.1710  0.0519
   12SAPS   O14 1478   3.893   0.601   3.142 -0.2664 -0.4342 -0.0888
   12SAPS   O12 1479   3.718   0.635   2.986  0.5397 -0.2053  0.7161
   12SAPS   O11 1480   3.899   0.799   2.992  0.3330 -0.3531 -0.4338
   12SAPS    C1 1481   3.867   0.933   2.963  0.1178 -0.5129  0.3958
   12SAPS    HA 1482   3.896   0.952   2.857  0.8100  0.7069  0.7902
   12SAPS    HB 1483   3.759   0.954   2.980  0.5455  2.2471  0.1125
   12SAPS    C2 1484   3.952   1.034   3.040 -0.0255  0.8997  0.1789
   12SAPS    HS 1485   4.055   0.992   3.053  0.5123  2.6035  1.8976
   12SAPS   O21 1486   3.887   1.042   3.164  0.2424  0.4734 -0.1808
   12SAPS   C21 1487   3.952   1.017   3.265 -0.0979  0.0307  0.2313
   12SAPS   O22 1488   4.070   0.983   3.270  0.1804  0.0670  0.2909
   12SAPS   C22 1489   3.871   1.051   3.385  0.3729 -0.0061 -0.1650
   12SAPS   H2R 1490   3.764   1.065   3.359 -0.5167  0.8561  3.4022
   12SAPS   H2S 1491   3.862   0.964   3.453 -1.3262 -0.4067 -0.8493
   12SAPS    C3 1492   3.946   1.176   2.975 -0.0932  0.1726 -0.3365
   12SAPS    HX 1493   3.841   1.203   2.952 -0.5172  0.5601  1.8141
   12SAPS    HY 1494   4.010   1.172   2.884  0.2216 -1.2746 -0.0912
   12SAPS   O31 1495   3.983   1.264   3.075  0.3374  0.0185 -0.7493
   12SAPS   C31 1496   4.102   1.324   3.069  0.4419 -0.0687 -0.4747
   12SAPS   O32 1497   4.175   1.325   2.975 -0.5393 -0.0119  0.1326
   12SAPS   C32 1498   4.132   1.376   3.216 -0.4490  0.1078 -0.2428
   12SAPS   H2X 1499   4.136   1.301   3.298  0.7293 -0.9669 -1.2409
   12SAPS   H2Y 1500   4.039   1.433   3.241 -0.6132 -0.6236  0.9042
   12SAPS   C23 1501   3.919   1.172   3.470  0.3623 -0.0521 -0.4034
   12SAPS   H3R 1502   3.930   1.259   3.401 -0.9758 -0.5721 -1.3331
   12SAPS   H3S 1503   4.021   1.156   3.509  0.3429  0.6111 -0.0581
   12SAPS   C24 1504   3.834   1.210   3.590 -1.0046  0.3741 -0.3545
   12SAPS   H4R 1505   3.732   1.221   3.548 -1.1612 -0.0593 -0.1046
   12SAPS   H4S 1506   3.867   1.303   3.642 -0.5810 -0.4311  0.8739
   12SAPS   C25 1507   3.840   1.100   3.695  0.6278 -0.0010 -0.6342
   12SAPS   H5R 1508   3.781   1.011   3.668  0.7267  0.3661 -2.1428
   12SAPS   C26 1509   3.914   1.095   3.808  0.0249  0.4457 -0.1733
   12SAPS   H6R 1510   3.915   0.997   3.856  1.5446  1.1035  1.2154
   12SAPS   C27 1511   4.008   1.191   3.861  0.3130 -0.4816 -0.5945
   12SAPS   H7R 1512   3.975   1.235   3.958  0.9742 -1.4221  0.0878
   12SAPS   H7S 1513   4.008   1.287   3.806 -1.0974 -0.6237 -0.8684
   12SAPS   C28 1514   4.152   1.148   3.878  0.0414  0.6710  0.6796
   12SAPS   H8R 1515   4.216   1.172   3.792 -0.6796  0.3854  0.0432
   12SAPS   C29 1516   4.220   1.110   3.986 -0.0951  0.4766 -0.7048
   12SAPS   H9R 1517   4.326   1.084   3.971 -0.7136 -2.8316 -0.0844
   12SAPS  C210 1518   4.166   1.086   4.122  0.4763  0.7280 -0.2242
   12SAPS  H10R 1519   4.149   0.977   4.136  0.7625  0.8351  1.0241
   12SAPS  H10S 1520   4.069   1.140   4.125  0.8780  1.8104 -3.2110
   12SAPS  C211 1521   4.259   1.135   4.223 -0.5592 -0.0862 -0.2587
   12SAPS  H11R 1522   4.305   1.234   4.204 -0.0453 -0.2786 -0.0440
   12SAPS  C212 1523   4.269   1.096   4.356 -0.4483 -1.6264 -0.3010
   12SAPS  H12R 1524   4.346   1.144   4.417 -0.8466  1.1071 -1.7811
   12SAPS  C213 1525   4.185   0.989   4.411 -0.2575 -0.3927 -0.2344
   12SAPS  H13R 1526   4.223   0.891   4.374 -2.5883 -2.1801  1.7634
   12SAPS  H13S 1527   4.085   0.983   4.365 -1.6155  0.7450  2.3580
   12SAPS  C214 1528   4.179   0.974   4.559  0.6337 -0.6837  0.1575
   12SAPS  H14R 1529   4.083   0.999   4.608  3.2140  1.6382  4.6485
   12SAPS  C215 1530   4.264   0.910   4.635  0.0071  0.1305  0.1579
   12SAPS  H15R 1531   4.256   0.910   4.744 -0.9666 -0.7879  0.1008
   12SAPS  C216 1532   4.402   0.852   4.593 -0.0953 -0.7678  0.1775
   12SAPS  H16R 1533   4.473   0.913   4.652  0.0939  0.0985 -0.9219
   12SAPS  H16S 1534   4.415   0.865   4.483 -0.0703 -3.6623 -0.2403
   12SAPS  C217 1535   4.422   0.706   4.620  0.1971 -0.3782 -0.0369
   12SAPS  H17R 1536   4.410   0.691   4.729 -2.4056  0.5439 -0.1180
   12SAPS  H17S 1537   4.516   0.656   4.586 -0.3054 -2.2922  1.2179
   12SAPS  C218 1538   4.303   0.634   4.559  0.0149 -0.0346  0.3678
   12SAPS  H18R 1539   4.280   0.678   4.459  0.0970 -0.1297  0.3071
   12SAPS  H18S 1540   4.208   0.640   4.617 -0.4206  0.2960 -0.3521
   12SAPS  C219 1541   4.327   0.484   4.547  0.3019  0.0444  0.2732
   12SAPS  H19R 1542   4.328   0.432   4.645 -2.1761 -0.2626  0.2000
   12SAPS  H19S 1543   4.413   0.458   4.482  1.2385  0.1592  1.4209
   12SAPS  C220 1544   4.209   0.416   4.470  0.3447 -0.4078 -0.5713
   12SAPS  H20R 1545   4.197   0.461   4.369  0.0905 -1.4255 -1.0056
   12SAPS  H20S 1546   4.118   0.436   4.530  1.3757 -0.8753  1.2335
   12SAPS  H20T 1547   4.218   0.305   4.464  1.0984 -0.6340  2.7682
   12SAPS   C33 1548   4.245   1.478   3.226 -0.1821  0.7749 -0.0437
   12SAPS   H3X 1549   4.241   1.538   3.133 -0.2948  1.5416  0.4472
   12SAPS   H3Y 1550   4.344   1.427   3.226 -0.1610  0.8145  0.2848
   12SAPS   C34 1551   4.226   1.575   3.347 -0.3870  0.1156  0.2463
   12SAPS   H4X 1552   4.132   1.633   3.331 -0.0963  0.1213 -1.7349
   12SAPS   H4Y 1553   4.301   1.657   3.354 -0.7585  0.5654 -0.7558
   12SAPS   C35 1554   4.205   1.503   3.480 -1.2544 -0.3565  0.2511
   12SAPS   H5X 1555   4.296   1.441   3.497 -0.1482  1.1034 -0.1170
   12SAPS   H5Y 1556   4.112   1.444   3.466 -2.3622  1.2973  0.3696
   12SAPS   C36 1557   4.187   1.592   3.603 -0.3737 -0.6530 -0.4834
   12SAPS   H6X 1558   4.090   1.644   3.587 -0.2088 -0.4042 -0.6732
   12SAPS   H6Y 1559   4.266   1.670   3.604 -0.1507 -0.8696  0.5249
   12SAPS   C37 1560   4.170   1.518   3.734  0.3806 -0.4473 -0.8135
   12SAPS   H7X 1561   4.269   1.469   3.743 -0.4995 -3.0274 -3.5247
   12SAPS   H7Y 1562   4.095   1.440   3.709  1.3296 -0.7387 -3.0454
   12SAPS   C38 1563   4.147   1.594   3.864  0.9273 -0.1144  0.8938
   12SAPS   H8X 1564   4.057   1.659   3.861  1.6469  0.8776 -1.0303
   12SAPS   H8Y 1565   4.239   1.656   3.872  0.2009  0.9964  0.8352
   12SAPS   C39 1566   4.147   1.515   3.994  0.1305  0.2107  0.8829
   12SAPS   H9X 1567   4.229   1.440   3.996 -1.4474 -1.7518 -1.2580
   12SAPS   H9Y 1568   4.058   1.449   3.984 -0.1452  0.6774  0.1198
   12SAPS  C310 1569   4.129   1.598   4.122  0.1055 -0.8287 -0.1953
   12SAPS  H10X 1570   4.028   1.642   4.113  0.6152  0.1743 -1.3236
   12SAPS  H10Y 1571   4.186   1.694   4.121 -1.3296  0.2275  3.3384
   12SAPS  C311 1572   4.150   1.518   4.250 -0.1747  0.6290 -0.4577
   12SAPS  H11X 1573   4.258   1.502   4.271 -0.0872  1.5205 -0.2192
   12SAPS  H11Y 1574   4.103   1.418   4.234  1.4418  0.1610 -2.7862
   12SAPS  C312 1575   4.096   1.594   4.377 -0.6787 -0.1062  0.7921
   12SAPS  H12X 1576   3.987   1.615   4.373 -0.4000  1.6977  1.5178
   12SAPS  H12Y 1577   4.136   1.697   4.361 -0.8065  0.0216  1.2645
   12SAPS  C313 1578   4.161   1.538   4.498  0.2432  0.3114  0.0563
   12SAPS  H13X 1579   4.271   1.538   4.481  0.2223 -1.1942 -0.2188
   12SAPS  H13Y 1580   4.125   1.432   4.497 -0.7196  0.6140 -1.2532
   12SAPS  C314 1581   4.136   1.609   4.634 -0.2424  0.0960  0.3507
   12SAPS  H14X 1582   4.166   1.527   4.703 -0.2428  0.9887  1.4414
   12SAPS  H14Y 1583   4.031   1.638   4.655 -1.0938 -0.9696 -2.0391
   12SAPS  C315 1584   4.229   1.730   4.659  0.3650  0.2218  0.6348
   12SAPS  H15X 1585   4.174   1.813   4.708 -1.6162  0.7297 -2.2023
   12SAPS  H15Y 1586   4.250   1.781   4.562  0.5643  1.4112  1.2936
   12SAPS  C316 1587   4.359   1.696   4.736  0.5721  0.7107 -0.5118
   12SAPS  H16X 1588   4.417   1.613   4.691 -0.6726 -1.7274  2.0174
   12SAPS  H16Y 1589   4.327   1.662   4.837  0.9701  2.0144  0.0818
   12SAPS  C317 1590   4.473   1.802   4.745  0.8417 -0.2087  0.0233
   12SAPS  H17X 1591   4.556   1.750   4.798 -0.7870 -2.3654  0.6020
   12SAPS  H17Y 1592   4.438   1.896   4.792 -1.5766  0.0474 -2.0616
   12SAPS  C318 1593   4.527   1.849   4.608 -0.5915 -0.5736  0.3003
   12SAPS  H18X 1594   4.442   1.855   4.537  0.3423  1.2411 -0.7230
   12SAPS  H18Y 1595   4.594   1.770   4.566 -0.4112 -0.0204 -0.4817
   12SAPS  H18Z 1596   4.575   1.949   4.613 -0.7443 -0.4137 -1.0220
   13SAPS     N 1597   5.261   0.247   2.139 -0.1963  0.2789  0.5046
   13SAPS   HN1 1598   5.269   0.174   2.065 -0.4211  0.9797 -0.2170
   13SAPS   HN2 1599   5.317   0.221   2.223 -0.4672 -0.0761  0.5795
   13SAPS   HN3 1600   5.165   0.277   2.163  0.1438  0.4498  1.7406
   13SAPS   C12 1601   5.332   0.361   2.077 -0.2515 -0.1872 -0.4821
   13SAPS  H12A 1602   5.378   0.422   2.154  0.8817  0.6380 -1.7544
   13SAPS   C13 1603   5.450   0.312   1.984  0.1483  0.4985 -0.4118
   13SAPS  O13A 1604   5.450   0.183   1.968  0.4741 -0.2592  0.0244
   13SAPS  O13B 1605   5.480   0.390   1.893 -0.1363 -0.6907 -0.1435
   13SAPS   C11 1606   5.230   0.457   2.006  0.3498  0.2108  0.4095
   13SAPS  H11A 1607   5.190   0.402   1.918 -1.1852 -0.6812  1.6257
   13SAPS  H11B 1608   5.293   0.543   1.973  2.3946 -1.3085  0.1630
   13SAPS     P 1609   5.150   0.624   2.196  0.5837 -0.3742  0.2245
   13SAPS   O13 1610   5.231   0.730   2.137 -0.0653 -0.4021  0.6979
   13SAPS   O14 1611   5.017   0.658   2.258  0.2070 -0.4064 -0.0326
   13SAPS   O12 1612   5.121   0.506   2.099 -0.3767  0.2473  0.0295
   13SAPS   O11 1613   5.240   0.558   2.303 -0.4682 -0.2171  0.0567
   13SAPS    C1 1614   5.183   0.461   2.393  0.0088 -0.3493  0.1097
   13SAPS    HA 1615   5.074   0.447   2.377 -0.7166  2.9828  1.2461
   13SAPS    HB 1616   5.239   0.366   2.388  0.7994  0.0918  0.5049
   13SAPS    C2 1617   5.167   0.509   2.537  0.4419  0.2019  0.3203
   13SAPS    HS 1618   5.102   0.599   2.533 -0.3997 -0.4409 -0.5955
   13SAPS   O21 1619   5.292   0.539   2.600 -0.3117  0.3162 -0.0605
   13SAPS   C21 1620   5.283   0.634   2.690  0.4021  0.1187  0.3275
   13SAPS   O22 1621   5.179   0.686   2.722  0.1355  0.3249  0.5892
   13SAPS   C22 1622   5.419   0.688   2.723  0.4721 -0.5492  0.7036
   13SAPS   H2R 1623   5.498   0.631   2.670  0.1876  0.3696 -0.7842
   13SAPS   H2S 1624   5.429   0.782   2.664 -1.1872 -1.9257 -1.9255
   13SAPS    C3 1625   5.089   0.384   2.600 -0.3461  0.0384 -0.5099
   13SAPS    HX 1626   5.153   0.293   2.605  0.4648  0.6541  2.2697
   13SAPS    HY 1627   4.998   0.370   2.538  0.0584  0.0908 -1.1264
   13SAPS   O31 1628   5.054   0.401   2.738 -0.5526 -0.3764 -0.4640
   13SAPS   C31 1629   4.939   0.474   2.756  0.0610  0.7856 -0.6209
   13SAPS   O32 1630   4.860   0.507   2.671  0.2352 -0.1468  0.3253
   13SAPS   C32 1631   4.919   0.487   2.908 -0.1618  0.1516  1.4512
   13SAPS   H2X 1632   4.915   0.380   2.938 -0.6726 -1.0862 -2.5134
   13SAPS   H2Y 1633   4.813   0.513   2.929 -0.5977  0.3914 -0.7745
   13SAPS   C23 1634   5.441   0.702   2.876  0.1424  0.7059  0.5188
   13SAPS   H3R 1635   5.453   0.598   2.912  1.8890  0.5425 -0.4105
   13SAPS   H3S 1636   5.355   0.751   2.927  0.5517  1.7203  0.2686
   13SAPS   C24 1637   5.574   0.776   2.907  0.3143  0.1211 -0.2210
   13SAPS   H4R 1638   5.561   0.884   2.887  0.4957  0.1685 -0.0850
   13SAPS   H4S 1639   5.666   0.742   2.854 -0.2763  0.4206 -1.4777
   13SAPS   C25 1640   5.586   0.766   3.062  0.1976  0.3294 -0.5757
   13SAPS   H5R 1641   5.529   0.834   3.127  3.3525  0.3755  2.4406
   13SAPS   C26 1642   5.656   0.670   3.127  0.8527  0.8755  0.3146
   13SAPS   H6R 1643   5.662   0.676   3.237  0.6908  2.1220  0.2790
   13SAPS   C27 1644   5.732   0.559   3.066 -0.5765  0.0548  0.5331
   13SAPS   H7R 1645   5.688   0.521   2.971 -2.1179  1.5191  0.6227
   13SAPS   H7S 1646   5.736   0.477   3.141  2.4490  1.0788  1.6470
   13SAPS   C28 1647   5.872   0.600   3.037 -0.6190  0.1729  0.2089
   13SAPS   H8R 1648   5.895   0.654   2.944  0.3590 -2.2253 -1.0339
   13SAPS   C29 1649   5.971   0.575   3.127  0.0651 -0.0256 -1.0341
   13SAPS   H9R 1650   6.070   0.617   3.105 -0.0243 -0.0514 -1.5161
   13SAPS  C210 1651   5.966   0.522   3.274 -0.2676  0.4737  0.5140
   13SAPS  H10R 1652   6.039   0.439   3.286 -1.5580 -0.9262 -0.8890
   13SAPS  H10S 1653   5.870   0.470   3.292 -0.2807  0.3912  0.2152
   13SAPS  C211 1654   5.992   0.635   3.374  0.0468 -0.8176 -0.3378
   13SAPS  H11R 1655   6.078   0.696   3.342  0.0081 -1.1436 -1.1002
   13SAPS  C212 1656   5.936   0.667   3.489  0.5021  0.3682  0.4950
   13SAPS  H12R 1657   5.966   0.751   3.553 -1.8700  1.3377  0.4550
   13SAPS  C213 1658   5.814   0.597   3.550  0.6885 -0.4026  0.1294
   13SAPS  H13R 1659   5.746   0.570   3.466 -0.0220  1.2337  0.1293
   13SAPS  H13S 1660   5.755   0.664   3.616 -0.2022 -0.8946 -0.1535
   13SAPS  C214 1661   5.838   0.466   3.620 -0.4139 -0.1127  0.6777
   13SAPS  H14R 1662   5.940   0.429   3.603 -0.8342 -0.3019 -1.8145
   13SAPS  C215 1663   5.746   0.374   3.667 -0.3127  0.5683 -0.3964
   13SAPS  H15R 1664   5.768   0.271   3.698 -0.9998  0.9350  1.4497
   13SAPS  C216 1665   5.599   0.397   3.682  0.0542  0.2607  0.0340
   13SAPS  H16R 1666   5.545   0.365   3.590  1.7425  0.7059 -1.1566
   13SAPS  H16S 1667   5.588   0.507   3.690  2.3537  0.5517 -0.2454
   13SAPS  C217 1668   5.544   0.334   3.808  0.3007  0.2934 -1.6803
   13SAPS  H17R 1669   5.596   0.239   3.835 -0.9145  0.0201 -0.1532
   13SAPS  H17S 1670   5.439   0.318   3.775 -0.6271  1.7826  0.4001
   13SAPS  C218 1671   5.558   0.425   3.924 -0.4955  0.0169 -0.3987
   13SAPS  H18R 1672   5.505   0.522   3.914  1.1076  0.8639 -1.0429
   13SAPS  H18S 1673   5.663   0.458   3.937 -1.9983  6.0668 -0.3560
   13SAPS  C219 1674   5.504   0.361   4.048  0.1349 -0.6844  0.1856
   13SAPS  H19R 1675   5.544   0.258   4.043  1.3480 -0.3765  2.2173
   13SAPS  H19S 1676   5.394   0.359   4.032 -0.1403  1.3347  1.3822
   13SAPS  C220 1677   5.524   0.429   4.188 -0.0998  0.3072 -1.0708
   13SAPS  H20R 1678   5.633   0.441   4.206 -0.1170  1.3801 -1.6075
   13SAPS  H20S 1679   5.485   0.365   4.270  2.9479  0.0485  0.3224
   13SAPS  H20T 1680   5.469   0.525   4.183  0.0248  0.5031  0.6953
   13SAPS   C33 1681   5.023   0.565   2.995  0.1793  0.2251 -0.8011
   13SAPS   H3X 1682   5.003   0.675   2.991 -0.9339  0.0139 -1.6184
   13SAPS   H3Y 1683   5.124   0.557   2.949  0.4546  1.4841 -0.4586
   13SAPS   C34 1684   5.034   0.533   3.143  0.1074  0.0929  0.3590
   13SAPS   H4X 1685   5.069   0.430   3.166  1.5522  0.6297  0.7073
   13SAPS   H4Y 1686   4.931   0.542   3.183  0.4778  2.6107  0.8974
   13SAPS   C35 1687   5.119   0.627   3.230 -0.3957 -0.1572  0.1529
   13SAPS   H5X 1688   5.095   0.735   3.222  1.0669  0.1465 -0.5304
   13SAPS   H5Y 1689   5.225   0.638   3.198 -0.5759  1.2105 -0.0330
   13SAPS   C36 1690   5.106   0.568   3.371  0.8064  0.4283  0.8252
   13SAPS   H6X 1691   5.130   0.460   3.384  1.5711  0.6546  1.4059
   13SAPS   H6Y 1692   4.998   0.572   3.396  0.8436 -0.0562  1.0767
   13SAPS   C37 1693   5.174   0.649   3.479  0.0967  0.4015  0.3408
   13SAPS   H7X 1694   5.155   0.757   3.462 -0.4169  0.2853  0.1682
   13SAPS   H7Y 1695   5.282   0.652   3.455 -0.3657  2.8204 -1.8894
   13SAPS   C38 1696   5.145   0.620   3.629 -0.0677  0.3241 -0.4235
   13SAPS   H8X 1697   5.160   0.513   3.656  0.2255  0.8251  1.5568
   13SAPS   H8Y 1698   5.040   0.647   3.653 -0.7478 -1.8278 -0.7857
   13SAPS   C39 1699   5.235   0.696   3.734 -0.2758  0.1662  0.0270
   13SAPS   H9X 1700   5.246   0.804   3.710  1.6110  0.6717  2.7089
   13SAPS   H9Y 1701   5.333   0.644   3.733 -0.3375  0.0665 -0.7588
   13SAPS  C310 1702   5.167   0.681   3.871 -0.2608 -0.6784 -0.4430
   13SAPS  H10X 1703   5.163   0.579   3.914  2.1611 -0.0927  1.3793
   13SAPS  H10Y 1704   5.069   0.733   3.867  1.1860  2.4531  1.3256
   13SAPS  C311 1705   5.250   0.754   3.975  0.1157  0.8316  0.1138
   13SAPS  H11X 1706   5.295   0.841   3.922 -0.9758 -0.2540 -2.8216
   13SAPS  H11Y 1707   5.330   0.683   4.002 -0.6095  0.4607  1.3515
   13SAPS  C312 1708   5.182   0.798   4.102  0.1924  0.0504 -0.7245
   13SAPS  H12X 1709   5.132   0.706   4.141  0.9185 -0.8296 -1.8374
   13SAPS  H12Y 1710   5.101   0.866   4.067 -0.5990 -0.7626 -0.5383
   13SAPS  C313 1711   5.281   0.842   4.207 -0.2010  0.1556  0.0756
   13SAPS  H13X 1712   5.341   0.923   4.161 -2.6249  0.7549 -2.2796
   13SAPS  H13Y 1713   5.342   0.753   4.232 -0.3838 -0.1402 -0.5053
   13SAPS  C314 1714   5.217   0.893   4.331  0.2224  0.1696  0.3009
   13SAPS  H14X 1715   5.150   0.823   4.386 -1.7591 -0.8428 -3.0429
   13SAPS  H14Y 1716   5.151   0.977   4.299  1.2560  0.3117 -1.6043
   13SAPS  C315 1717   5.316   0.957   4.428 -0.1473  0.5090 -0.9999
   13SAPS  H15X 1718   5.400   0.998   4.367  1.0230 -0.8865 -0.3731
   13SAPS  H15Y 1719   5.363   0.880   4.493  0.6464  1.6557 -0.1740
   13SAPS  C316 1720   5.253   1.059   4.526  0.4838  0.8948 -0.0398
   13SAPS  H16X 1721   5.172   1.037   4.599 -0.4626  2.6085 -0.5160
   13SAPS  H16Y 1722   5.223   1.152   4.474 -0.2590  0.1178 -1.0489
   13SAPS  C317 1723   5.362   1.117   4.619  0.3090 -0.0822 -0.1020
   13SAPS  H17X 1724   5.432   1.187   4.570  1.6763  0.0585  1.9329
   13SAPS  H17Y 1725   5.428   1.037   4.660 -1.5654 -1.2699  0.7542
   13SAPS  C318 1726   5.317   1.208   4.725  0.4141 -0.0225 -0.1177
   13SAPS  H18X 1727   5.226   1.258   4.685  1.0281  1.5326  0.3463
   13SAPS  H18Y 1728   5.392   1.289   4.742 -0.6884  2.3956 -4.8136
   13SAPS  H18Z 1729   5.300   1.143   4.812  2.7992 -1.3870 -0.5778
   14SAPS     N 1730   0.244   1.313   1.717  0.3796  0.0666  0.0686
   14SAPS   HN1 1731   0.151   1.358   1.733  0.1259 -0.3490 -0.2144
   14SAPS   HN2 1732   0.301   1.368   1.649 -1.0719  2.2472  0.4914
   14SAPS   HN3 1733   0.210   1.223   1.677 -0.8491  1.4752 -2.3651
   14SAPS   C12 1734   0.322   1.302   1.842  0.2735 -0.0118  0.5130
   14SAPS  H12A 1735   0.264   1.235   1.904 -3.5246  2.5395  0.0797
   14SAPS   C13 1736   0.459   1.235   1.819  0.4872 -0.0867 -0.3389
   14SAPS  O13A 1737   0.501   1.218   1.703  0.2380  0.2148 -0.1059
   14SAPS  O13B 1738   0.528   1.221   1.923  0.0005 -0.7028  0.1117
   14SAPS   C11 1739   0.337   1.433   1.914  0.0751 -1.2126 -0.9562
   14SAPS  H11A 1740   0.412   1.488   1.853  0.1910 -1.9053 -1.4489
   14SAPS  H11B 1741   0.389   1.429   2.013 -0.6738  0.8810 -0.4341
   14SAPS     P 1742   0.114   1.471   2.051  0.1191 -0.0574 -0.5859
   14SAPS   O13 1743  -0.006   1.558   2.032 -0.5951  0.3893  0.3992
   14SAPS   O14 1744   0.095   1.322   2.050 -0.3293  0.3487  0.1908
   14SAPS   O12 1745   0.214   1.500   1.935 -0.5762 -0.9045 -0.2664
   14SAPS   O11 1746   0.186   1.507   2.188 -0.5770  0.3025  0.3242
   14SAPS    C1 1747   0.244   1.644   2.204  0.5562 -0.1952 -0.3488
   14SAPS    HA 1748   0.349   1.631   2.172  0.2225 -1.6281 -0.9454
   14SAPS    HB 1749   0.207   1.718   2.129 -2.8527 -0.2782  1.0429
   14SAPS    C2 1750   0.233   1.712   2.344  0.1986 -0.1507 -0.0862
   14SAPS    HS 1751   0.288   1.808   2.347  2.7008 -1.5062  0.7962
   14SAPS   O21 1752   0.278   1.622   2.447  0.0307  0.9523  0.2910
   14SAPS   C21 1753   0.412   1.614   2.461  0.1525 -0.7138  0.0943
   14SAPS   O22 1754   0.494   1.682   2.401  0.0915 -0.1959  0.1041
   14SAPS   C22 1755   0.439   1.509   2.559  0.1491 -0.2898 -0.4065
   14SAPS   H2R 1756   0.390   1.550   2.650 -0.2552 -0.3849 -0.5766
   14SAPS   H2S 1757   0.376   1.420   2.537 -3.8948  2.2403 -0.1473
   14SAPS    C3 1758   0.083   1.747   2.369 -1.3370  0.7491  0.0081
   14SAPS    HX 1759   0.019   1.673   2.318 -0.5422 -1.3733  1.9248
   14SAPS    HY 1760   0.049   1.846   2.333 -0.5711  0.9377 -0.2202
   14SAPS   O31 1761   0.041   1.736   2.507 -0.3733  0.3148  0.5775
   14SAPS   C31 1762   0.089   1.822   2.595  0.1591  0.2213  0.3016
   14SAPS   O32 1763   0.160   1.918   2.573  0.6057 -0.0179  0.0946
   14SAPS   C32 1764   0.049   1.769   2.738  0.5019 -0.1496  0.6023
   14SAPS   H2X 1765  -0.048   1.718   2.720  0.9099 -0.5726 -0.4514
   14SAPS   H2Y 1766   0.025   1.861   2.795  0.2324  0.3174 -0.2529
   14SAPS   C23 1767   0.585   1.478   2.580  0.8570  0.8107  0.8285
   14SAPS   H3R 1768   0.641   1.566   2.618  1.3669  1.1264 -0.6037
   14SAPS   H3S 1769   0.627   1.449   2.482 -0.1201 -0.5780  0.7909
   14SAPS   C24 1770   0.599   1.357   2.676 -0.2474 -0.0792 -0.2756
   14SAPS   H4R 1771   0.529   1.277   2.646 -0.5504  0.0820 -0.0114
   14SAPS   H4S 1772   0.551   1.393   2.770 -0.2176 -2.3868  0.7002
   14SAPS   C25 1773   0.738   1.313   2.690 -0.3101  0.3793 -0.3673
   14SAPS   H5R 1774   0.788   1.279   2.598 -0.4772 -1.6880  0.2695
   14SAPS   C26 1775   0.810   1.314   2.805  0.3295 -0.3433 -0.4969
   14SAPS   H6R 1776   0.915   1.283   2.797  0.0548 -1.0340 -1.7307
   14SAPS   C27 1777   0.756   1.359   2.942  0.0702 -0.1743  0.8170
   14SAPS   H7R 1778   0.662   1.418   2.941  0.9926  1.3351  0.2161
   14SAPS   H7S 1779   0.832   1.424   2.991 -0.3060 -0.4246  1.7552
   14SAPS   C28 1780   0.725   1.241   3.033 -0.3113 -0.1877  0.5063
   14SAPS   H8R 1781   0.696   1.153   2.972  0.2419 -1.6922  2.3247
   14SAPS   C29 1782   0.733   1.223   3.165  1.2260 -0.6379  0.2570
   14SAPS   H9R 1783   0.700   1.128   3.208 -1.6898 -1.7457 -3.8450
   14SAPS  C210 1784   0.776   1.322   3.275 -0.1371 -0.2718 -0.2805
   14SAPS  H10R 1785   0.691   1.377   3.320 -0.2075 -0.0216 -0.7128
   14SAPS  H10S 1786   0.832   1.403   3.224 -0.3132  0.6235  0.8957
   14SAPS  C211 1787   0.859   1.260   3.390  0.4902  0.1329 -0.0631
   14SAPS  H11R 1788   0.802   1.217   3.473  1.8009  1.3863  1.5733
   14SAPS  C212 1789   0.994   1.230   3.380 -0.5146  0.1049 -0.5175
   14SAPS  H12R 1790   1.032   1.181   3.471  0.9767  1.1834 -0.5215
   14SAPS  C213 1791   1.104   1.260   3.276  0.4878  0.2224  0.1426
   14SAPS  H13R 1792   1.189   1.315   3.321  0.3629 -0.1684  0.8803
   14SAPS  H13S 1793   1.066   1.331   3.200  3.3964  2.0717  0.2597
   14SAPS  C214 1794   1.167   1.144   3.208 -0.3823 -0.4760 -0.0229
   14SAPS  H14R 1795   1.088   1.091   3.152  0.0716  0.7919 -1.9634
   14SAPS  C215 1796   1.294   1.106   3.199 -0.2285  0.2233 -0.0247
   14SAPS  H15R 1797   1.315   1.030   3.122 -1.7222 -0.1724 -0.0727
   14SAPS  C216 1798   1.411   1.162   3.277  0.8092 -0.1286 -0.3992
   14SAPS  H16R 1799   1.489   1.084   3.289  0.2756 -0.4055  1.6719
   14SAPS  H16S 1800   1.387   1.202   3.378  0.0692 -0.2712 -0.5084
   14SAPS  C217 1801   1.482   1.276   3.203 -0.2241 -0.2463  0.8600
   14SAPS  H17R 1802   1.417   1.332   3.132  1.6829 -0.8159 -1.4358
   14SAPS  H17S 1803   1.558   1.233   3.135  0.4551 -0.6344  1.8322
   14SAPS  C218 1804   1.551   1.379   3.290  0.1390  0.6763  0.0454
   14SAPS  H18R 1805   1.612   1.444   3.225  2.0986  0.1536  1.2655
   14SAPS  H18S 1806   1.605   1.329   3.373 -2.1171 -0.8769  0.7004
   14SAPS  C219 1807   1.460   1.474   3.369 -0.3984  0.2977  0.5579
   14SAPS  H19R 1808   1.371   1.416   3.401 -2.9063  2.1690 -2.3682
   14SAPS  H19S 1809   1.428   1.549   3.293  0.9895 -0.2250 -0.5890
   14SAPS  C220 1810   1.514   1.528   3.496  0.4417  0.5145  0.2327
   14SAPS  H20R 1811   1.555   1.438   3.548 -2.5835 -1.0811  0.0472
   14SAPS  H20S 1812   1.425   1.562   3.554 -0.4828 -0.4425 -0.5904
   14SAPS  H20T 1813   1.597   1.603   3.495  1.7788 -0.9269  0.1310
   14SAPS   C33 1814   0.152   1.676   2.809 -0.8111  0.1212  0.7835
   14SAPS   H3X 1815   0.235   1.748   2.822  0.5646 -0.9349 -1.4990
   14SAPS   H3Y 1816   0.186   1.595   2.742  0.0931 -0.7291  2.2090
   14SAPS   C34 1817   0.104   1.632   2.947 -0.0585  1.0021 -0.1329
   14SAPS   H4X 1818   0.067   1.528   2.936  1.0865  0.8230 -3.5858
   14SAPS   H4Y 1819   0.026   1.695   2.994 -1.1142 -0.2473 -0.1841
   14SAPS   C35 1820   0.222   1.642   3.051 -0.7901  0.1642 -0.2827
   14SAPS   H5X 1821   0.260   1.747   3.051  0.8467 -0.3987  0.3706
   14SAPS   H5Y 1822   0.313   1.583   3.027  0.2122 -0.3383  3.9638
   14SAPS   C36 1823   0.179   1.611   3.195 -0.3835  1.1099  0.2446
   14SAPS   H6X 1824   0.168   1.501   3.208 -0.6761  0.6692 -2.9454
   14SAPS   H6Y 1825   0.083   1.664   3.214 -0.8346  0.6414 -0.6883
   14SAPS   C37 1826   0.293   1.662   3.288 -0.6278  0.3568  0.5967
   14SAPS   H7X 1827   0.302   1.772   3.275 -0.9812  0.1761 -1.4882
   14SAPS   H7Y 1828   0.391   1.620   3.255 -0.9602  0.2321 -0.2524
   14SAPS   C38 1829   0.268   1.614   3.433 -0.1753 -0.2755 -0.0192
   14SAPS   H8X 1830   0.358   1.659   3.480 -0.0645 -0.6505  0.1351
   14SAPS   H8Y 1831   0.261   1.503   3.443  1.4685 -0.5489 -1.3972
   14SAPS   C39 1832   0.144   1.688   3.484 -0.6078  0.7027 -0.5999
   14SAPS   H9X 1833   0.058   1.623   3.459  1.4454 -2.8459  0.7697
   14SAPS   H9Y 1834   0.133   1.782   3.426 -1.5462 -0.4391 -2.3557
   14SAPS  C310 1835   0.141   1.717   3.633 -0.1923 -0.5484 -0.3366
   14SAPS  H10X 1836   0.037   1.748   3.658 -0.8439 -1.7035 -1.4525
   14SAPS  H10Y 1837   0.199   1.811   3.645 -0.4073 -0.3133 -1.0961
   14SAPS  C311 1838   0.203   1.607   3.722  0.2067  0.4973  0.1587
   14SAPS  H11X 1839   0.313   1.604   3.706 -0.0362 -3.1662 -2.0349
   14SAPS  H11Y 1840   0.159   1.508   3.693  0.5205  0.2065  0.6592
   14SAPS  C312 1841   0.169   1.625   3.868 -0.3892  0.9929  0.0526
   14SAPS  H12X 1842   0.203   1.544   3.935 -0.1737  0.7831 -0.3095
   14SAPS  H12Y 1843   0.058   1.630   3.875 -0.2762  1.3788  2.3925
   14SAPS  C313 1844   0.226   1.750   3.927  0.3949 -0.6800  0.0875
   14SAPS  H13X 1845   0.206   1.830   3.854  1.8334 -3.3911 -3.5763
   14SAPS  H13Y 1846   0.336   1.753   3.913  0.5029  1.2690  1.0014
   14SAPS  C314 1847   0.205   1.785   4.083 -0.1051 -0.5878  0.8215
   14SAPS  H14X 1848   0.234   1.689   4.132  0.7037 -1.6232 -1.5236
   14SAPS  H14Y 1849   0.102   1.807   4.115 -0.0223  0.1015  0.6296
   14SAPS  C315 1850   0.298   1.897   4.123 -0.1322  0.1947  0.2449
   14SAPS  H15X 1851   0.252   1.995   4.096 -3.1988 -0.6382  1.9656
   14SAPS  H15Y 1852   0.397   1.897   4.072  0.2548  1.3976  0.9488
   14SAPS  C316 1853   0.314   1.904   4.277 -0.3728  0.4967  0.1933
   14SAPS  H16X 1854   0.359   2.004   4.289 -1.3585  0.9854 -0.0797
   14SAPS  H16Y 1855   0.373   1.815   4.309 -1.9805 -0.6863  0.0641
   14SAPS  C317 1856   0.189   1.897   4.363 -0.1813 -0.2582  0.1425
   14SAPS  H17X 1857   0.217   1.905   4.470  1.1989  0.2221 -0.2334
   14SAPS  H17Y 1858   0.140   1.798   4.352  1.6651 -1.2651  0.5975
   14SAPS  C318 1859   0.089   2.014   4.324 -0.3739 -0.0625 -0.2746
   14SAPS  H18X 1860   0.059   2.032   4.219 -2.6810 -0.3069  0.2857
   14SAPS  H18Y 1861   0.133   2.109   4.361 -1.5613 -0.6848  3.1450
   14SAPS  H18Z 1862  -0.004   2.013   4.386 -0.2198  2.1755  0.0649
   15SAPS     N 1863   4.447   2.696   2.727  0.0263 -0.2683  0.9846
   15SAPS   HN1 1864   4.402   2.606   2.703  1.5305 -0.5016 -1.2721
   15SAPS   HN2 1865   4.538   2.680   2.775  1.3578 -2.3251 -1.9358
   15SAPS   HN3 1866   4.380   2.755   2.780  1.0068  1.3378  0.5187
   15SAPS   C12 1867   4.484   2.776   2.607  0.5211  0.2833  0.0205
   15SAPS  H12A 1868   4.569   2.725   2.564 -1.1840 -1.4524 -1.4905
   15SAPS   C13 1869   4.382   2.768   2.486 -0.5583 -0.6534 -0.3173
   15SAPS  O13A 1870   4.271   2.713   2.510 -0.4878  0.6529  0.2876
   15SAPS  O13B 1871   4.413   2.814   2.377 -0.1273  0.8553  0.0994
   15SAPS   C11 1872   4.524   2.916   2.646 -0.5597 -0.6485  0.2696
   15SAPS  H11A 1873   4.438   2.968   2.693 -0.8066 -1.3840  0.6373
   15SAPS  H11B 1874   4.558   2.965   2.552 -4.4606 -1.1933 -1.6223
   15SAPS     P 1875   4.690   3.039   2.817 -0.0870  0.2007  0.0645
   15SAPS   O13 1876   4.822   2.992   2.863  0.0190  0.2903 -0.2116
   15SAPS   O14 1877   4.689   3.167   2.748 -0.3401  0.5344 -0.1760
   15SAPS   O12 1878   4.639   2.917   2.727  0.2967 -0.7110 -0.3635
   15SAPS   O11 1879   4.591   3.037   2.947  0.1967 -0.0624  0.2348
   15SAPS    C1 1880   4.592   2.910   3.015  0.4893  0.3136 -0.7260
   15SAPS    HA 1881   4.490   2.868   3.003 -0.9685  3.8941 -2.6107
   15SAPS    HB 1882   4.662   2.832   2.978  0.9990  0.1661  0.5038
   15SAPS    C2 1883   4.628   2.918   3.161  0.0393 -0.0582  0.0208
   15SAPS    HS 1884   4.605   2.818   3.203  1.3456  1.1149  3.9970
   15SAPS   O21 1885   4.551   3.017   3.230  1.1192 -0.2335  0.0608
   15SAPS   C21 1886   4.429   2.975   3.276 -0.4919  0.2243  0.5888
   15SAPS   O22 1887   4.390   2.861   3.274 -1.0753 -0.2184 -0.7762
   15SAPS   C22 1888   4.362   3.091   3.352  0.0354 -0.6423 -0.0826
   15SAPS   H2R 1889   4.340   3.175   3.283 -0.3482 -0.8677 -0.2350
   15SAPS   H2S 1890   4.267   3.047   3.389  0.1364 -0.7575  0.0395
   15SAPS    C3 1891   4.773   2.948   3.192  0.3258  0.0276  0.1825
   15SAPS    HX 1892   4.783   3.055   3.166 -0.7513  0.2380  0.6122
   15SAPS    HY 1893   4.841   2.888   3.127  1.0348  2.0298 -1.0030
   15SAPS   O31 1894   4.800   2.936   3.334 -0.0369  0.7611 -0.3911
   15SAPS   C31 1895   4.841   2.816   3.368 -0.9766  0.2068 -0.1540
   15SAPS   O32 1896   4.855   2.719   3.300  0.1304  0.3495  0.6454
   15SAPS   C32 1897   4.874   2.814   3.518 -0.5997 -0.6003 -0.0051
   15SAPS   H2X 1898   4.904   2.917   3.549  0.6496 -0.7114 -0.7706
   15SAPS   H2Y 1899   4.961   2.750   3.542 -0.8233 -0.3374  1.6283
   15SAPS   C23 1900   4.425   3.154   3.478  0.2656  0.1335  0.3203
   15SAPS   H3R 1901   4.381   3.251   3.509  2.6314  0.9042  1.4947
   15SAPS   H3S 1902   4.525   3.181   3.438 -0.8061  2.6151 -0.8925
   15SAPS   C24 1903   4.440   3.049   3.597 -0.3853  0.1419  0.5782
   15SAPS   H4R 1904   4.519   3.085   3.667 -0.4322  1.3028  0.0627
   15SAPS   H4S 1905   4.477   2.960   3.544  1.2673  1.1343  0.0082
   15SAPS   C25 1906   4.308   3.011   3.662 -0.2239  0.4714  0.3146
   15SAPS   H5R 1907   4.245   2.954   3.593  2.5061 -1.3793 -0.8287
   15SAPS   C26 1908   4.264   3.033   3.788  0.3752 -0.6044  0.2290
   15SAPS   H6R 1909   4.160   3.010   3.817  1.0077 -3.1553  0.7852
   15SAPS   C27 1910   4.332   3.119   3.892  0.6044  0.2671 -0.2297
   15SAPS   H7R 1911   4.347   3.214   3.837 -1.2793  0.9642  0.3683
   15SAPS   H7S 1912   4.430   3.070   3.908  0.2778 -0.6100 -0.8151
   15SAPS   C28 1913   4.283   3.146   4.032  0.1356 -0.7898  0.3309
   15SAPS   H8R 1914   4.232   3.242   4.044 -0.8541 -1.0658 -1.4830
   15SAPS   C29 1915   4.290   3.057   4.130  0.5370  1.0839 -0.0263
   15SAPS   H9R 1916   4.254   3.081   4.231  2.7891 -0.6604  1.2888
   15SAPS  C210 1917   4.342   2.911   4.119  0.0627  0.5715 -0.9220
   15SAPS  H10R 1918   4.315   2.863   4.023  0.3555  0.6113 -1.0268
   15SAPS  H10S 1919   4.291   2.853   4.199 -0.1788  1.2043 -0.6026
   15SAPS  C211 1920   4.494   2.900   4.130  0.5752  0.6476  0.4737
   15SAPS  H11R 1921   4.553   2.935   4.044 -1.3576  0.7779 -0.8359
   15SAPS  C212 1922   4.557   2.848   4.240 -0.5919  0.7150  0.1782
   15SAPS  H12R 1923   4.664   2.824   4.248 -1.0396 -0.7747  2.5992
   15SAPS  C213 1924   4.491   2.819   4.373 -0.3119 -0.0256  0.6169
   15SAPS  H13R 1925   4.574   2.758   4.416 -0.3376 -0.6407 -0.1764
   15SAPS  H13S 1926   4.399   2.758   4.360  0.1728 -0.3064 -1.9203
   15SAPS  C214 1927   4.453   2.936   4.466 -0.0191  0.2873  0.4078
   15SAPS  H14R 1928   4.350   2.972   4.472 -0.3125 -0.6683  1.6916
   15SAPS  C215 1929   4.532   2.990   4.565 -0.2350  0.0693 -0.5410
   15SAPS  H15R 1930   4.492   3.078   4.618  3.5797  1.2636  0.6776
   15SAPS  C216 1931   4.677   2.966   4.586 -0.5116  0.7824  0.6254
   15SAPS  H16R 1932   4.737   2.981   4.494 -0.4969  1.2162  0.7025
   15SAPS  H16S 1933   4.679   2.858   4.611  0.9792  0.4414 -0.8212
   15SAPS  C217 1934   4.723   3.058   4.695 -0.3522 -0.1458 -0.2059
   15SAPS  H17R 1935   4.681   3.021   4.791 -2.7685  2.1539 -0.2721
   15SAPS  H17S 1936   4.679   3.159   4.683  0.3927  0.0188 -1.9148
   15SAPS  C218 1937   4.875   3.080   4.707 -0.3452  0.3449  0.2917
   15SAPS  H18R 1938   4.914   3.106   4.606 -2.3801 -1.6369 -1.1200
   15SAPS  H18S 1939   4.916   2.979   4.726 -3.5649 -1.1183  0.1840
   15SAPS  C219 1940   4.916   3.175   4.816  0.0755  0.1353  0.2157
   15SAPS  H19R 1941   4.854   3.267   4.813  0.3054  0.2864 -2.7979
   15SAPS  H19S 1942   5.021   3.210   4.803 -0.3680  0.9783 -1.2849
   15SAPS  C220 1943   4.894   3.103   4.951  0.2952 -0.0568  0.5708
   15SAPS  H20R 1944   4.789   3.069   4.954 -0.1890  1.3485  0.3661
   15SAPS  H20S 1945   4.899   3.168   5.041  0.0227 -2.4305  2.4118
   15SAPS  H20T 1946   4.961   3.014   4.956 -0.1194 -0.3644  0.6404
   15SAPS   C33 1947   4.758   2.758   3.607  0.1070  0.1314 -0.4797
   15SAPS   H3X 1948   4.761   2.647   3.597  0.1709 -0.0256  1.1453
   15SAPS   H3Y 1949   4.656   2.794   3.579  0.2771  2.3437  1.5142
   15SAPS   C34 1950   4.773   2.792   3.755  0.7997  0.0261 -0.1435
   15SAPS   H4X 1951   4.676   2.754   3.796 -0.4190  3.1956  0.1882
   15SAPS   H4Y 1952   4.775   2.902   3.768  3.6907  0.1595 -1.1019
   15SAPS   C35 1953   4.899   2.738   3.816  0.1578  0.6850 -0.7655
   15SAPS   H5X 1954   4.992   2.799   3.811  0.7347  0.1504  1.7210
   15SAPS   H5Y 1955   4.920   2.638   3.773  0.1681 -0.6362  2.0382
   15SAPS   C36 1956   4.889   2.706   3.970  0.1456 -0.1071 -0.0204
   15SAPS   H6X 1957   4.814   2.626   3.986  0.2068  0.1672  1.9448
   15SAPS   H6Y 1958   4.850   2.798   4.019  2.2756  1.2773 -0.7859
   15SAPS   C37 1959   5.023   2.669   4.036  0.5494 -0.3126  0.2130
   15SAPS   H7X 1960   5.102   2.746   4.032  1.9062 -1.6636  0.2295
   15SAPS   H7Y 1961   5.073   2.584   3.984  0.9136 -1.0849  1.7612
   15SAPS   C38 1962   5.022   2.632   4.183 -0.4196 -0.5731 -0.1617
   15SAPS   H8X 1963   4.995   2.718   4.248 -1.9493 -0.9116 -0.3236
   15SAPS   H8Y 1964   5.126   2.610   4.215  0.0704 -0.9148 -1.9005
   15SAPS   C39 1965   4.932   2.514   4.215 -0.0053 -0.6921 -0.5504
   15SAPS   H9X 1966   4.962   2.419   4.165  0.4933 -0.0748 -1.4596
   15SAPS   H9Y 1967   4.827   2.535   4.188 -0.1773 -1.1088 -0.2060
   15SAPS  C310 1968   4.917   2.468   4.367  0.4391 -0.1571  0.7795
   15SAPS  H10X 1969   5.006   2.408   4.393 -0.2982 -1.0169  1.4111
   15SAPS  H10Y 1970   4.835   2.393   4.366  0.8826 -0.8548  4.4169
   15SAPS  C311 1971   4.868   2.568   4.462  0.0507  0.3162 -0.2699
   15SAPS  H11X 1972   4.785   2.612   4.402  1.0037  0.5513 -1.4560
   15SAPS  H11Y 1973   4.941   2.650   4.481 -0.6241  0.9372 -0.3135
   15SAPS  C312 1974   4.805   2.505   4.589  0.3722  0.3330 -0.5019
   15SAPS  H12X 1975   4.723   2.435   4.561  0.3373  0.6903 -1.3278
   15SAPS  H12Y 1976   4.765   2.576   4.664  0.5419  0.1602 -0.2479
   15SAPS  C313 1977   4.901   2.420   4.671 -0.6194 -0.2611  0.0908
   15SAPS  H13X 1978   4.954   2.343   4.611 -0.2839 -1.6123  2.0099
   15SAPS  H13Y 1979   4.836   2.365   4.743  0.6751 -0.3578  1.2351
   15SAPS  C314 1980   5.001   2.508   4.742  0.5401  0.4414  0.0806
   15SAPS  H14X 1981   4.946   2.596   4.782  2.7015  2.4673 -1.1612
   15SAPS  H14Y 1982   5.073   2.537   4.663 -0.3104  0.2193 -0.8100
   15SAPS  C315 1983   5.075   2.432   4.856  0.8597 -0.3551  0.2781
   15SAPS  H15X 1984   5.005   2.397   4.934  1.2294 -2.2337 -0.1631
   15SAPS  H15Y 1985   5.140   2.507   4.905 -0.5987  1.4275 -0.4169
   15SAPS  C316 1986   5.151   2.312   4.810 -0.9730 -0.8485  0.3854
   15SAPS  H16X 1987   5.226   2.346   4.735  1.1260  1.5255  3.3198
   15SAPS  H16Y 1988   5.078   2.233   4.780 -0.0357 -1.3043 -0.7614
   15SAPS  C317 1989   5.235   2.247   4.927 -0.4666 -0.6589  0.0376
   15SAPS  H17X 1990   5.260   2.143   4.897 -0.7923 -1.2761  1.7628
   15SAPS  H17Y 1991   5.165   2.234   5.013 -1.2913  2.7593  0.0224
   15SAPS  C318 1992   5.367   2.313   4.971  0.2634 -0.0816 -0.7939
   15SAPS  H18X 1993   5.443   2.305   4.890  0.8228 -0.9746 -0.1955
   15SAPS  H18Y 1994   5.399   2.281   5.073 -0.4370  0.1903 -0.4835
   15SAPS  H18Z 1995   5.345   2.421   4.985  0.0163 -0.5060  3.0749
   16SAPS     N 1996   6.862   2.143   2.094 -0.4697 -0.2895  0.0600
   16SAPS   HN1 1997   6.857   2.126   2.196 -0.2585 -1.0614 -0.0501
   16SAPS   HN2 1998   6.945   2.097   2.052 -1.4518 -2.0232 -0.0686
   16SAPS   HN3 1999   6.867   2.246   2.084  0.8528 -0.1972  1.4248
   16SAPS   C12 2000   6.728   2.108   2.034  1.0061  0.2023  0.2183
   16SAPS  H12A 2001   6.738   2.122   1.927 -0.1453 -2.0092 -0.2267
   16SAPS   C13 2002   6.697   1.953   2.061 -0.2017  0.0507 -0.2118
   16SAPS  O13A 2003   6.773   1.879   2.128  0.1137 -0.4577 -0.3257
   16SAPS  O13B 2004   6.601   1.907   1.994 -0.0321 -0.5753 -0.6258
   16SAPS   C11 2005   6.613   2.203   2.093  0.9925 -0.1940  0.0005
   16SAPS  H11A 2006   6.570   2.160   2.186 -0.2433  2.6923  0.8695
   16SAPS  H11B 2007   6.533   2.213   2.016 -0.6620  1.9251  1.8753
   16SAPS     P 2008   6.562   2.447   2.162 -0.1608 -0.1182  0.2001
   16SAPS   O13 2009   6.646   2.568   2.181  0.1722 -0.4057  0.3329
   16SAPS   O14 2010   6.461   2.449   2.054  0.0090 -0.0983 -0.5738
   16SAPS   O12 2011   6.664   2.328   2.135  0.6094 -0.0700 -0.1189
   16SAPS   O11 2012   6.505   2.399   2.298  0.3710 -0.3703 -0.3644
   16SAPS    C1 2013   6.581   2.348   2.406 -0.4914  0.2982 -0.0582
   16SAPS    HA 2014   6.667   2.288   2.369  1.7049  1.2275  3.0747
   16SAPS    HB 2015   6.633   2.424   2.470  4.6363 -2.6953 -0.0730
   16SAPS    C2 2016   6.490   2.270   2.505  0.0047  0.5282  0.6815
   16SAPS    HS 2017   6.420   2.201   2.453 -1.0270  1.1441  1.2069
   16SAPS   O21 2018   6.422   2.365   2.582 -0.4059 -0.2539  0.4692
   16SAPS   C21 2019   6.306   2.318   2.628 -0.0227  0.6105  0.4333
   16SAPS   O22 2020   6.246   2.216   2.601 -0.2708 -0.6905 -0.5385
   16SAPS   C22 2021   6.246   2.431   2.716 -0.1581  0.3554 -0.2989
   16SAPS   H2R 2022   6.325   2.489   2.768  0.7582 -0.8730 -0.2779
   16SAPS   H2S 2023   6.211   2.512   2.648 -1.1182  0.5683  0.4345
   16SAPS    C3 2024   6.584   2.179   2.600  0.2220  0.1079  0.6041
   16SAPS    HX 2025   6.648   2.243   2.664 -1.1829 -0.3223  2.5236
   16SAPS    HY 2026   6.653   2.129   2.528 -0.2708  0.0681  0.1488
   16SAPS   O31 2027   6.500   2.084   2.671 -0.2664  0.3000  0.7975
   16SAPS   C31 2028   6.560   2.027   2.767  1.0702 -0.6210 -0.7582
   16SAPS   O32 2029   6.681   2.027   2.792  0.0230 -0.4632 -0.1079
   16SAPS   C32 2030   6.453   1.980   2.855  0.0395  0.0991  0.0746
   16SAPS   H2X 2031   6.378   1.937   2.785  1.5431  1.3861 -2.4521
   16SAPS   H2Y 2032   6.408   2.069   2.904  2.2095  1.7307 -0.7412
   16SAPS   C23 2033   6.134   2.386   2.818 -0.2893 -0.1602 -0.4927
   16SAPS   H3R 2034   6.107   2.282   2.791  1.2549 -0.6285 -0.3317
   16SAPS   H3S 2035   6.052   2.460   2.809 -0.0268  0.1280 -0.5561
   16SAPS   C24 2036   6.192   2.386   2.960  0.8819 -0.0278  0.2635
   16SAPS   H4R 2037   6.237   2.486   2.980 -0.9444  1.1442 -1.0878
   16SAPS   H4S 2038   6.275   2.312   2.956  2.0306  1.2585 -0.6369
   16SAPS   C25 2039   6.085   2.334   3.065 -1.1343  0.3856 -0.1606
   16SAPS   H5R 2040   6.029   2.242   3.043 -1.5854  0.0380  2.1753
   16SAPS   C26 2041   6.051   2.392   3.190 -0.1782  0.3384  0.2000
   16SAPS   H6R 2042   5.986   2.339   3.262  0.4539  1.5157  1.7088
   16SAPS   C27 2043   6.109   2.522   3.252  0.0420 -0.5584 -0.1027
   16SAPS   H7R 2044   6.030   2.599   3.263  1.0802  0.3604  1.2068
   16SAPS   H7S 2045   6.190   2.560   3.187  0.1858 -0.8444 -0.0924
   16SAPS   C28 2046   6.163   2.492   3.391  0.1223  0.0197  0.2849
   16SAPS   H8R 2047   6.227   2.403   3.388 -1.6848 -1.3304 -0.3533
   16SAPS   C29 2048   6.136   2.543   3.511  0.0648 -0.4129 -0.0200
   16SAPS   H9R 2049   6.196   2.503   3.594  0.1993 -2.2217 -0.9497
   16SAPS  C210 2050   6.056   2.667   3.539 -0.3428 -0.0022 -0.8877
   16SAPS  H10R 2051   5.949   2.641   3.528 -0.6488  1.2360 -1.0495
   16SAPS  H10S 2052   6.072   2.757   3.476 -1.1934  0.8444  0.0711
   16SAPS  C211 2053   6.087   2.727   3.676  0.6445  0.1304 -0.2856
   16SAPS  H11R 2054   6.162   2.807   3.670 -2.2651  3.3156  1.7867
   16SAPS  C212 2055   6.028   2.711   3.799  0.5491  0.1779  0.0116
   16SAPS  H12R 2056   6.086   2.754   3.883  2.9852 -0.0311 -1.4793
   16SAPS  C213 2057   5.903   2.631   3.829  0.2212  0.0479 -0.4187
   16SAPS  H13R 2058   5.930   2.523   3.833 -2.2895 -0.6935 -1.6081
   16SAPS  H13S 2059   5.825   2.641   3.750 -2.3425 -0.9031  1.8387
   16SAPS  C214 2060   5.847   2.686   3.958 -0.3384 -1.0192  0.1498
   16SAPS  H14R 2061   5.768   2.760   3.937  2.3722  1.6593 -1.2400
   16SAPS  C215 2062   5.882   2.667   4.086  0.3970 -0.3891  0.0300
   16SAPS  H15R 2063   5.838   2.728   4.167  1.4884  0.5676 -0.0580
   16SAPS  C216 2064   5.986   2.572   4.139 -0.4413  0.3547  0.8117
   16SAPS  H16R 2065   6.072   2.638   4.166  1.3477 -1.6784  0.3952
   16SAPS  H16S 2066   6.018   2.504   4.057 -0.0717 -0.6720  1.7912
   16SAPS  C217 2067   5.946   2.483   4.259 -0.0838  0.5974  0.4162
   16SAPS  H17R 2068   5.843   2.448   4.233 -1.3924  3.9767  0.5219
   16SAPS  H17S 2069   5.934   2.547   4.349  0.8661 -1.4429  2.0705
   16SAPS  C218 2070   6.031   2.356   4.283  0.5083 -0.0289  0.0091
   16SAPS  H18R 2071   6.015   2.282   4.203 -0.1940 -0.0659  0.1782
   16SAPS  H18S 2072   5.999   2.303   4.375 -1.8194  0.7969 -0.2571
   16SAPS  C219 2073   6.181   2.386   4.294  0.4946 -0.2457 -0.2171
   16SAPS  H19R 2074   6.211   2.446   4.205 -0.8584 -0.2618 -0.7021
   16SAPS  H19S 2075   6.243   2.294   4.297  2.6845  1.1772  1.4892
   16SAPS  C220 2076   6.222   2.461   4.421  0.5141 -0.5661  0.5550
   16SAPS  H20R 2077   6.328   2.488   4.405 -0.3231  0.8105 -4.1627
   16SAPS  H20S 2078   6.201   2.405   4.515  3.6125  0.4410  1.9936
   16SAPS  H20T 2079   6.169   2.559   4.426  1.6465  0.3924 -3.1886
   16SAPS   C33 2080   6.508   1.885   2.960 -0.3276  0.1924  0.2005
   16SAPS   H3X 2081   6.570   1.811   2.906 -1.7041 -1.0427  0.2608
   16SAPS   H3Y 2082   6.421   1.829   3.001 -1.6579  0.9744 -1.4016
   16SAPS   C34 2083   6.561   1.962   3.087 -0.1758  0.4939  0.0683
   16SAPS   H4X 2084   6.488   2.020   3.147  0.7769  0.5253  1.2334
   16SAPS   H4Y 2085   6.644   2.026   3.049  2.3630 -2.2276  0.6207
   16SAPS   C35 2086   6.624   1.873   3.194 -0.4426 -0.2823 -0.2090
   16SAPS   H5X 2087   6.704   1.823   3.136  1.9672  2.6458  0.3416
   16SAPS   H5Y 2088   6.559   1.798   3.246 -0.8981  0.3731  0.1834
   16SAPS   C36 2089   6.680   1.952   3.315 -0.5514 -0.4709 -0.5970
   16SAPS   H6X 2090   6.737   2.038   3.274 -1.8522  0.9170  0.3634
   16SAPS   H6Y 2091   6.743   1.884   3.377  0.7091  1.8594  0.8165
   16SAPS   C37 2092   6.576   1.999   3.420 -0.3780  0.2098 -0.1605
   16SAPS   H7X 2093   6.531   1.903   3.453 -0.6667 -0.5431 -2.5330
   16SAPS   H7Y 2094   6.504   2.066   3.368  1.3159  0.5531 -2.2160
   16SAPS   C38 2095   6.630   2.076   3.545  0.1153 -0.3704 -0.1681
   16SAPS   H8X 2096   6.544   2.128   3.591  0.0889  1.0215 -1.6629
   16SAPS   H8Y 2097   6.687   2.162   3.502  0.3458 -0.7505 -0.6315
   16SAPS   C39 2098   6.723   2.001   3.648  0.6325 -0.1016  0.2969
   16SAPS   H9X 2099   6.780   2.073   3.711  0.1822  0.7997 -0.2958
   16SAPS   H9Y 2100   6.792   1.929   3.600 -0.0362 -0.6546  0.1350
   16SAPS  C310 2101   6.627   1.919   3.744  0.4429  0.3076  0.2679
   16SAPS  H10X 2102   6.562   1.863   3.673  1.1604 -0.7476  0.4150
   16SAPS  H10Y 2103   6.571   1.986   3.812  0.0490 -0.8505  1.1244
   16SAPS  C311 2104   6.714   1.831   3.837 -0.8096  0.6747  0.1323
   16SAPS  H11X 2105   6.799   1.895   3.868 -1.2611  1.2862  0.1507
   16SAPS  H11Y 2106   6.753   1.743   3.782 -1.7876 -1.3334  2.4734
   16SAPS  C312 2107   6.640   1.772   3.955 -0.5183 -0.7414  0.5058
   16SAPS  H12X 2108   6.563   1.705   3.912  1.0346 -0.7372 -2.5548
   16SAPS  H12Y 2109   6.585   1.854   4.006 -0.4153 -0.2912 -0.0975
   16SAPS  C313 2110   6.726   1.689   4.048  0.5772 -0.2223 -0.4273
   16SAPS  H13X 2111   6.805   1.749   4.098  0.8183 -1.7185  1.0735
   16SAPS  H13Y 2112   6.770   1.602   3.994 -1.3399 -1.2111 -0.5003
   16SAPS  C314 2113   6.648   1.630   4.165  0.3182 -0.6233 -0.5029
   16SAPS  H14X 2114   6.609   1.704   4.237  2.4461  0.0407  0.0302
   16SAPS  H14Y 2115   6.719   1.565   4.220 -0.9902 -1.4002  0.3082
   16SAPS  C315 2116   6.530   1.533   4.125  0.2007 -0.2515 -0.7116
   16SAPS  H15X 2117   6.572   1.467   4.047  1.0176  0.5994 -1.0061
   16SAPS  H15Y 2118   6.440   1.584   4.086  0.1805 -0.5596 -1.0678
   16SAPS  C316 2119   6.475   1.441   4.237 -0.4563 -0.2584  0.0640
   16SAPS  H16X 2120   6.562   1.390   4.284 -0.4089  0.2576  0.5375
   16SAPS  H16Y 2121   6.416   1.364   4.183  0.6616 -0.1547 -1.3668
   16SAPS  C317 2122   6.384   1.506   4.350 -0.0674 -0.0273 -0.0082
   16SAPS  H17X 2123   6.442   1.582   4.406  0.6629  0.1829 -1.0131
   16SAPS  H17Y 2124   6.354   1.433   4.429 -0.9007 -0.0417 -0.3216
   16SAPS  C318 2125   6.262   1.573   4.295  0.0005 -0.9932 -0.2612
   16SAPS  H18X 2126   6.207   1.500   4.233 -1.1259 -0.1893 -0.2317
   16SAPS  H18Y 2127   6.288   1.667   4.242 -1.1152 -0.8977 -0.6743
   16SAPS  H18Z 2128   6.191   1.600   4.376 -0.1483  1.3251 -1.0899
   17SAPS     N 2129   2.024   3.821   2.538  0.8789 -0.0658 -0.3413
   17SAPS   HN1 2130   2.109   3.880   2.524  1.0583 -0.6156 -1.7663
   17SAPS   HN2 2131   1.987   3.840   2.633 -1.6178  0.7837 -1.4016
   17SAPS   HN3 2132   2.051   3.720   2.533  0.9752 -0.3052  2.9808
   17SAPS   C12 2133   1.922   3.863   2.446  0.1761 -0.0209 -0.6212
   17SAPS  H12A 2134   1.963   3.868   2.347 -1.6867 -2.5666 -1.6418
   17SAPS   C13 2135   1.803   3.768   2.439  0.1145 -0.5890  0.1022
   17SAPS  O13A 2136   1.806   3.652   2.486 -0.0868  0.2370  0.1132
   17SAPS  O13B 2137   1.708   3.803   2.364  0.4046 -0.2347 -0.5785
   17SAPS   C11 2138   1.859   3.994   2.489 -0.1107  0.3090  0.7988
   17SAPS  H11A 2139   1.802   3.967   2.580 -1.9399  0.4228 -0.2592
   17SAPS  H11B 2140   1.791   4.021   2.405  0.1328  1.1138  0.8558
   17SAPS     P 2141   1.907   4.240   2.539  0.1774 -0.2223  0.0506
   17SAPS   O13 2142   2.021   4.333   2.542 -0.3980  0.3170 -0.3093
   17SAPS   O14 2143   1.803   4.264   2.443  0.5010 -0.3532 -0.2782
   17SAPS   O12 2144   1.964   4.094   2.504  0.1752  0.3536 -0.3360
   17SAPS   O11 2145   1.847   4.221   2.684 -0.2974  0.0719  0.2807
   17SAPS    C1 2146   1.936   4.185   2.792  0.3911  0.5644  0.3705
   17SAPS    HA 2147   1.919   4.077   2.812 -1.5443  0.7865  0.0970
   17SAPS    HB 2148   2.039   4.196   2.750 -0.5221 -0.8533 -2.5237
   17SAPS    C2 2149   1.915   4.260   2.921 -0.0179  0.1729  0.6615
   17SAPS    HS 2150   1.990   4.217   2.990  1.4811  0.2742 -0.8336
   17SAPS   O21 2151   1.792   4.236   2.984  0.3011  0.2730  0.0256
   17SAPS   C21 2152   1.772   4.126   3.056  0.5222  0.9287  0.3698
   17SAPS   O22 2153   1.838   4.025   3.059  0.5576 -0.9123  0.4487
   17SAPS   C22 2154   1.640   4.146   3.127  0.5714  0.0254 -0.0705
   17SAPS   H2R 2155   1.637   4.242   3.183 -1.6090  0.9377 -1.6029
   17SAPS   H2S 2156   1.570   4.154   3.040 -0.7620 -1.0358  0.8673
   17SAPS    C3 2157   1.940   4.418   2.905  0.0362  0.5563 -0.3521
   17SAPS    HX 2158   1.871   4.457   2.826 -0.0022  2.0094  0.3601
   17SAPS    HY 2159   2.042   4.434   2.865 -0.8296  2.3256 -2.0544
   17SAPS   O31 2160   1.930   4.490   3.027  0.7652 -0.1716  0.3503
   17SAPS   C31 2161   1.817   4.513   3.083 -0.5073  0.1703  0.1166
   17SAPS   O32 2162   1.705   4.478   3.045  0.5303  0.1424 -0.2276
   17SAPS   C32 2163   1.845   4.573   3.216 -0.1248 -0.3739  0.3603
   17SAPS   H2X 2164   1.876   4.679   3.198  1.2355 -0.7816  0.1726
   17SAPS   H2Y 2165   1.931   4.526   3.268 -0.2775 -0.8326  0.2007
   17SAPS   C23 2166   1.593   4.028   3.220 -0.8143 -0.6406 -0.2818
   17SAPS   H3R 2167   1.624   3.929   3.182 -1.0746 -1.8100  2.3310
   17SAPS   H3S 2168   1.483   4.032   3.235 -0.6031 -0.5315  1.4556
   17SAPS   C24 2169   1.640   4.065   3.360  0.1304 -0.5161  0.4975
   17SAPS   H4R 2170   1.565   4.017   3.426  0.0372 -2.5481 -0.9937
   17SAPS   H4S 2171   1.619   4.172   3.379 -2.3918 -0.3019 -2.5620
   17SAPS   C25 2172   1.774   4.016   3.387  1.2106 -0.5006 -0.5033
   17SAPS   H5R 2173   1.824   3.955   3.310  0.2486 -1.0760 -0.6915
   17SAPS   C26 2174   1.841   4.030   3.503 -0.0948 -0.0317  0.5403
   17SAPS   H6R 2175   1.948   4.003   3.507 -0.1070  0.0251  1.3564
   17SAPS   C27 2176   1.794   4.099   3.628  0.3849 -0.9528  0.6139
   17SAPS   H7R 2177   1.871   4.073   3.703  1.5521  0.2269 -0.1342
   17SAPS   H7S 2178   1.697   4.054   3.658 -0.5316  2.4407  3.3379
   17SAPS   C28 2179   1.776   4.251   3.606  0.0167 -0.3062 -0.1150
   17SAPS   H8R 2180   1.730   4.279   3.511 -0.6992  1.8395  0.8022
   17SAPS   C29 2181   1.807   4.347   3.699 -0.2484  0.3827 -0.1067
   17SAPS   H9R 2182   1.774   4.448   3.669 -0.7104  0.6607  1.2672
   17SAPS  C210 2183   1.861   4.329   3.837  0.7602 -0.4951  0.0195
   17SAPS  H10R 2184   1.971   4.340   3.829  0.5342  2.3159 -0.4375
   17SAPS  H10S 2185   1.839   4.235   3.892  0.9085  0.4515  1.7616
   17SAPS  C211 2186   1.828   4.447   3.922  0.2123 -0.5001 -0.0247
   17SAPS  H11R 2187   1.821   4.546   3.873 -1.7106 -0.0873  0.9600
   17SAPS  C212 2188   1.790   4.446   4.056 -0.2858  0.3179  0.4767
   17SAPS  H12R 2189   1.752   4.541   4.097 -1.0505  0.5107 -0.6355
   17SAPS  C213 2190   1.793   4.327   4.152  0.8328 -0.4369 -0.4188
   17SAPS  H13R 2191   1.880   4.330   4.220  2.5646  2.0325 -2.5629
   17SAPS  H13S 2192   1.821   4.234   4.098 -0.8063 -0.9666 -0.4023
   17SAPS  C214 2193   1.661   4.305   4.221  0.5297  0.2325 -0.1129
   17SAPS  H14R 2194   1.584   4.270   4.151  0.6328  2.5616 -1.4845
   17SAPS  C215 2195   1.628   4.337   4.349 -0.0105  0.5595  0.8081
   17SAPS  H15R 2196   1.526   4.329   4.389  0.0272  0.1593  0.8307
   17SAPS  C216 2197   1.724   4.397   4.450  0.0572  0.3830 -0.1800
   17SAPS  H16R 2198   1.829   4.370   4.426  0.1290 -0.4149  0.9526
   17SAPS  H16S 2199   1.705   4.369   4.556 -0.5168  2.3760  0.2832
   17SAPS  C217 2200   1.703   4.550   4.448 -0.1895 -0.1796  0.2892
   17SAPS  H17R 2201   1.677   4.589   4.347  0.1296 -1.0170 -0.1292
   17SAPS  H17S 2202   1.805   4.592   4.466 -0.0233 -0.6344  0.4268
   17SAPS  C218 2203   1.594   4.600   4.543  0.1263 -0.7661 -0.2910
   17SAPS  H18R 2204   1.627   4.584   4.648  0.1120  3.2754  0.4893
   17SAPS  H18S 2205   1.494   4.552   4.531 -0.4897  0.2843  0.5312
   17SAPS  C219 2206   1.594   4.755   4.536  0.2691  0.1644  0.1199
   17SAPS  H19R 2207   1.593   4.776   4.427 -0.0374 -2.0283 -0.3399
   17SAPS  H19S 2208   1.688   4.781   4.589  0.8523 -3.8287  1.4237
   17SAPS  C220 2209   1.483   4.830   4.610  1.3194 -0.4377 -0.1440
   17SAPS  H20R 2210   1.384   4.821   4.560  0.6091 -1.3091  1.3493
   17SAPS  H20S 2211   1.521   4.934   4.610  4.1414 -1.3436 -1.7717
   17SAPS  H20T 2212   1.457   4.792   4.711 -4.0610  3.0680  0.1829
   17SAPS   C33 2213   1.716   4.562   3.304 -0.7041  0.3998  0.1808
   17SAPS   H3X 2214   1.691   4.454   3.300  0.6446  0.0855 -0.2919
   17SAPS   H3Y 2215   1.628   4.619   3.266 -1.3939  0.5741  1.9295
   17SAPS   C34 2216   1.736   4.617   3.449 -0.4515  0.2230  0.6856
   17SAPS   H4X 2217   1.820   4.567   3.501  0.9796  1.5937 -0.2298
   17SAPS   H4Y 2218   1.651   4.595   3.517 -0.4229 -0.6205  0.4546
   17SAPS   C35 2219   1.754   4.769   3.454 -0.6205 -0.3672  0.1465
   17SAPS   H5X 2220   1.660   4.812   3.411 -0.2782  0.3706  0.1096
   17SAPS   H5Y 2221   1.843   4.800   3.396  0.3543 -0.8061  1.3775
   17SAPS   C36 2222   1.780   4.832   3.597  0.0449  0.6452 -0.1315
   17SAPS   H6X 2223   1.870   4.779   3.636 -0.7664 -1.3002 -0.7847
   17SAPS   H6Y 2224   1.688   4.808   3.654 -1.0731 -0.6135 -2.3468
   17SAPS   C37 2225   1.795   4.983   3.586  0.5317 -0.1382  0.4305
   17SAPS   H7X 2226   1.701   5.021   3.539  0.3087 -1.8921 -0.6376
   17SAPS   H7Y 2227   1.880   5.009   3.520 -0.6401  1.7710 -0.3931
   17SAPS   C38 2228   1.819   5.050   3.720 -1.3612 -0.2445 -0.3419
   17SAPS   H8X 2229   1.725   5.037   3.777 -0.5704 -2.5820  0.5684
   17SAPS   H8Y 2230   1.850   5.156   3.712 -2.4990  0.0861 -0.5428
   17SAPS   C39 2231   1.934   4.983   3.803  0.1901  0.9110 -0.1019
   17SAPS   H9X 2232   2.029   4.976   3.746 -0.0978 -1.1012 -0.4148
   17SAPS   H9Y 2233   1.908   4.879   3.833 -1.3594  0.7280 -1.8492
   17SAPS  C310 2234   1.972   5.064   3.934 -0.0922 -0.2071  0.1760
   17SAPS  H10X 2235   1.974   5.173   3.910 -0.4564 -0.5913 -1.7539
   17SAPS  H10Y 2236   2.074   5.027   3.957  0.8097  1.5947 -0.7197
   17SAPS  C311 2237   1.871   5.027   4.046  0.0104 -0.0596 -0.1421
   17SAPS  H11X 2238   1.837   4.922   4.035  0.5334 -0.1835 -0.5952
   17SAPS  H11Y 2239   1.782   5.093   4.035 -0.6467 -1.0416 -0.9111
   17SAPS  C312 2240   1.922   5.039   4.186  0.1554  0.1447 -0.8369
   17SAPS  H12X 2241   1.969   5.139   4.195  1.6381 -0.6880  1.4363
   17SAPS  H12Y 2242   2.009   4.970   4.195  0.0497  0.2073  0.9160
   17SAPS  C313 2243   1.815   5.011   4.287  0.6091 -0.0771 -0.8368
   17SAPS  H13X 2244   1.782   4.905   4.274 -0.1012  0.2222 -1.5524
   17SAPS  H13Y 2245   1.721   5.067   4.273  0.0820  0.4010  3.4279
   17SAPS  C314 2246   1.860   5.024   4.432 -0.1924  0.1888 -0.2441
   17SAPS  H14X 2247   1.957   4.971   4.441 -0.2571  0.0648 -0.2722
   17SAPS  H14Y 2248   1.791   4.988   4.512  0.7399  0.0346  0.5150
   17SAPS  C315 2249   1.876   5.177   4.468  0.3314  0.0421 -0.8393
   17SAPS  H15X 2250   1.803   5.213   4.544  0.1057 -1.0402 -0.5295
   17SAPS  H15Y 2251   1.868   5.236   4.374  1.5915  1.0190 -0.3649
   17SAPS  C316 2252   2.010   5.198   4.538 -0.6381 -0.1168  0.3318
   17SAPS  H16X 2253   2.089   5.164   4.468 -0.9232  0.2791 -0.1900
   17SAPS  H16Y 2254   2.019   5.147   4.636 -1.7191  1.9182  1.5478
   17SAPS  C317 2255   2.035   5.348   4.555  1.4584  0.0239 -0.2652
   17SAPS  H17X 2256   1.945   5.385   4.609  1.6659 -1.8101  1.4704
   17SAPS  H17Y 2257   2.020   5.397   4.457  1.7729  0.1654 -0.2424
   17SAPS  C318 2258   2.154   5.384   4.626 -0.4248 -0.4049  0.0703
   17SAPS  H18X 2259   2.241   5.325   4.589 -0.8869 -0.9212 -0.2215
   17SAPS  H18Y 2260   2.151   5.358   4.734  2.2921  0.1514  0.3529
   17SAPS  H18Z 2261   2.177   5.492   4.616 -0.3235 -0.5408 -1.4043
   18SAPS     N 2262   0.635   6.737   2.292 -0.3519  0.3839 -0.1753
   18SAPS   HN1 2263   0.679   6.655   2.245  1.7353  0.6186  1.2702
   18SAPS   HN2 2264   0.673   6.728   2.388  0.0765  0.7539 -0.3098
   18SAPS   HN3 2265   0.532   6.725   2.281  0.0192 -0.7002 -3.5570
   18SAPS   C12 2266   0.694   6.853   2.227  0.4798 -0.3354  0.1285
   18SAPS  H12A 2267   0.793   6.864   2.267  1.1087 -0.7147 -1.2810
   18SAPS   C13 2268   0.702   6.846   2.076 -0.3382 -0.0406  0.1017
   18SAPS  O13A 2269   0.683   6.731   2.024  0.3234 -0.7075 -0.0016
   18SAPS  O13B 2270   0.756   6.941   2.016 -0.1105  0.0506 -0.2708
   18SAPS   C11 2271   0.620   6.978   2.267  0.0227 -0.0449  0.7864
   18SAPS  H11A 2272   0.511   6.959   2.267 -0.2345  0.5243 -3.2725
   18SAPS  H11B 2273   0.642   7.062   2.197  0.0229  1.2151  2.2377
   18SAPS     P 2274   0.730   7.160   2.431 -0.0920  0.1408  0.1820
   18SAPS   O13 2275   0.798   7.148   2.559  0.0385 -0.1164  0.1230
   18SAPS   O14 2276   0.819   7.203   2.317  0.0463 -0.0240  0.3240
   18SAPS   O12 2277   0.659   7.017   2.400 -0.6653  0.0201 -0.0458
   18SAPS   O11 2278   0.603   7.267   2.438  0.2783 -0.6099  0.6727
   18SAPS    C1 2279   0.483   7.225   2.501  0.2845  0.0964  0.3019
   18SAPS    HA 2280   0.397   7.253   2.436  1.6479 -1.3627 -2.2599
   18SAPS    HB 2281   0.469   7.116   2.515 -3.7660  0.3867 -0.1291
   18SAPS    C2 2282   0.471   7.287   2.643  0.2880  0.1581 -0.2130
   18SAPS    HS 2283   0.377   7.247   2.689 -1.3446  3.1190 -0.7178
   18SAPS   O21 2284   0.445   7.432   2.643 -0.0707 -0.1289  0.5971
   18SAPS   C21 2285   0.374   7.496   2.552  0.6149 -0.0788 -0.2799
   18SAPS   O22 2286   0.281   7.448   2.488 -0.7766 -0.1583 -0.2798
   18SAPS   C22 2287   0.418   7.640   2.538  0.1930  0.6149  0.1121
   18SAPS   H2R 2288   0.520   7.633   2.493  0.2978 -4.2438  0.5746
   18SAPS   H2S 2289   0.350   7.689   2.465 -0.4481  0.7236  0.7805
   18SAPS    C3 2290   0.585   7.255   2.736 -0.1038 -0.5899  0.0316
   18SAPS    HX 2291   0.662   7.332   2.713 -1.2128  0.7842  0.7750
   18SAPS    HY 2292   0.616   7.149   2.720 -2.7352 -1.6119  1.1122
   18SAPS   O31 2293   0.554   7.277   2.876  0.8267  0.4955 -0.4161
   18SAPS   C31 2294   0.648   7.235   2.959  0.5589 -0.5517 -0.0667
   18SAPS   O32 2295   0.753   7.189   2.933 -0.2203  0.2964  0.3187
   18SAPS   C32 2296   0.607   7.259   3.113 -0.8172  0.2015 -0.6705
   18SAPS   H2X 2297   0.501   7.230   3.129 -0.1911 -1.9677 -0.1834
   18SAPS   H2Y 2298   0.609   7.368   3.133  0.8751  0.0627  0.0424
   18SAPS   C23 2299   0.433   7.726   2.670  0.0097 -0.0906 -0.9336
   18SAPS   H3R 2300   0.343   7.705   2.732  0.4520  1.3140  0.2272
   18SAPS   H3S 2301   0.431   7.833   2.639  2.4108  0.3237  0.1035
   18SAPS   C24 2302   0.566   7.713   2.745  0.3928  0.4750  0.5095
   18SAPS   H4R 2303   0.650   7.723   2.673 -1.8089  0.6287 -2.2162
   18SAPS   H4S 2304   0.559   7.603   2.755 -1.9347  0.4675 -0.6644
   18SAPS   C25 2305   0.588   7.784   2.874  0.2129 -0.3286 -0.2586
   18SAPS   H5R 2306   0.546   7.886   2.881 -0.5058 -0.7102  1.6969
   18SAPS   C26 2307   0.639   7.727   2.986  0.0826 -0.1076 -0.3004
   18SAPS   H6R 2308   0.638   7.789   3.076  2.4912  1.2150 -1.0919
   18SAPS   C27 2309   0.695   7.588   3.003 -0.2677 -0.1087  0.1085
   18SAPS   H7R 2310   0.615   7.515   2.980 -1.1069  1.1551 -1.1102
   18SAPS   H7S 2311   0.715   7.568   3.111 -2.9811  0.1010  0.7070
   18SAPS   C28 2312   0.824   7.542   2.933  0.5746 -0.4419 -0.1013
   18SAPS   H8R 2313   0.807   7.482   2.842  0.9615  0.2722 -0.6603
   18SAPS   C29 2314   0.950   7.567   2.978 -0.0191  0.3151 -1.2672
   18SAPS   H9R 2315   1.039   7.518   2.936  0.5222 -0.2736  0.5036
   18SAPS  C210 2316   0.983   7.646   3.101  0.1460 -0.5036 -0.1496
   18SAPS  H10R 2317   0.904   7.721   3.123 -0.3943 -0.4562 -2.0576
   18SAPS  H10S 2318   1.069   7.714   3.087  0.1415 -0.4529  0.0654
   18SAPS  C211 2319   1.026   7.562   3.217 -0.8620 -0.0415  0.0185
   18SAPS  H11R 2320   1.044   7.455   3.198 -2.1133 -0.3664  0.5705
   18SAPS  C212 2321   1.039   7.606   3.346 -0.6214 -0.0329 -0.3442
   18SAPS  H12R 2322   1.074   7.531   3.419  1.9204  1.5569  0.2090
   18SAPS  C213 2323   1.020   7.746   3.404 -0.2020  0.2062 -0.2583
   18SAPS  H13R 2324   1.013   7.820   3.322 -0.6129  1.3404  0.7685
   18SAPS  H13S 2325   1.109   7.771   3.465 -1.4223 -0.2659  1.8003
   18SAPS  C214 2326   0.903   7.766   3.492 -0.4185 -0.2484  0.3590
   18SAPS  H14R 2327   0.807   7.755   3.440  0.3096 -1.0082 -0.8764
   18SAPS  C215 2328   0.899   7.767   3.625  0.4519  0.1337  0.4457
   18SAPS  H15R 2329   0.801   7.766   3.675 -0.1718 -0.4529 -0.7459
   18SAPS  C216 2330   1.016   7.756   3.720  0.2507 -0.1758 -0.5759
   18SAPS  H16R 2331   1.091   7.682   3.687 -0.3573 -0.7302 -0.7402
   18SAPS  H16S 2332   0.975   7.717   3.815 -2.2602 -1.7632 -2.1932
   18SAPS  C217 2333   1.085   7.888   3.742 -0.4366 -0.1373 -0.2882
   18SAPS  H17R 2334   1.014   7.967   3.773 -2.7484 -1.1720 -2.5476
   18SAPS  H17S 2335   1.112   7.920   3.639 -0.8661 -1.6133 -0.8913
   18SAPS  C218 2336   1.204   7.889   3.842 -0.0733  0.2616 -0.3827
   18SAPS  H18R 2337   1.284   7.818   3.810 -0.1499 -0.0682  0.1378
   18SAPS  H18S 2338   1.156   7.855   3.937  0.0720 -2.7706 -1.2716
   18SAPS  C219 2339   1.262   8.024   3.865 -0.6165 -0.3635  0.1491
   18SAPS  H19R 2340   1.331   8.032   3.952  1.1753 -1.4858 -1.1034
   18SAPS  H19S 2341   1.180   8.093   3.894 -1.5771 -1.3990 -0.0541
   18SAPS  C220 2342   1.330   8.077   3.739  1.0246  0.2712  0.2237
   18SAPS  H20R 2343   1.387   7.992   3.697 -0.9109 -1.9144  1.8067
   18SAPS  H20S 2344   1.387   8.173   3.743  1.8100 -0.2353  1.7450
   18SAPS  H20T 2345   1.256   8.093   3.657  2.4512  0.8165 -1.0062
   18SAPS   C33 2346   0.698   7.189   3.215 -0.4580  0.3997 -0.0514
   18SAPS   H3X 2347   0.803   7.220   3.196 -0.2954  0.4275  0.8705
   18SAPS   H3Y 2348   0.715   7.080   3.197 -0.0358  0.7882 -2.3340
   18SAPS   C34 2349   0.657   7.213   3.360 -0.0772 -0.0341  0.0710
   18SAPS   H4X 2350   0.643   7.323   3.368  2.3973  0.3102  0.2331
   18SAPS   H4Y 2351   0.729   7.181   3.438  1.1445  0.7749 -0.7063
   18SAPS   C35 2352   0.515   7.147   3.394  0.0551 -0.7943  0.2773
   18SAPS   H5X 2353   0.514   7.036   3.385  0.0471 -0.8681  1.1066
   18SAPS   H5Y 2354   0.430   7.185   3.334 -1.2008  1.4066  3.1834
   18SAPS   C36 2355   0.491   7.171   3.543  0.2034  0.4469  0.7505
   18SAPS   H6X 2356   0.524   7.277   3.549  0.1494  0.5756 -0.7338
   18SAPS   H6Y 2357   0.570   7.108   3.589 -0.3409 -1.5902 -0.9127
   18SAPS   C37 2358   0.344   7.150   3.583  0.0740 -0.2260  0.0096
   18SAPS   H7X 2359   0.293   7.071   3.525  1.8874 -1.3225 -0.1794
   18SAPS   H7Y 2360   0.295   7.244   3.550  0.8318  0.2846  0.2835
   18SAPS   C38 2361   0.325   7.117   3.736 -0.9477 -0.1097 -0.1022
   18SAPS   H8X 2362   0.360   7.201   3.800 -1.4415  2.3744 -2.8812
   18SAPS   H8Y 2363   0.392   7.034   3.765 -0.1512 -1.0873 -4.1974
   18SAPS   C39 2364   0.181   7.098   3.785  0.7215 -0.7486  0.2991
   18SAPS   H9X 2365   0.133   7.021   3.721 -1.3044  1.5361 -1.1019
   18SAPS   H9Y 2366   0.123   7.190   3.761 -0.0946 -0.9301  1.4644
   18SAPS  C310 2367   0.161   7.056   3.935 -0.8312 -0.0401 -0.0865
   18SAPS  H10X 2368   0.213   7.137   3.991 -0.9309 -0.2202  0.2640
   18SAPS  H10Y 2369   0.224   6.966   3.952 -0.1193  0.5448  0.4377
   18SAPS  C311 2370   0.012   7.032   3.981 -0.5451  0.1367  0.1262
   18SAPS  H11X 2371  -0.026   6.935   3.943  0.3587 -0.3914  0.5557
   18SAPS  H11Y 2372  -0.042   7.106   3.917  1.5508  0.1749 -1.7414
   18SAPS  C312 2373  -0.006   7.045   4.131 -0.1544 -0.1769 -0.5957
   18SAPS  H12X 2374  -0.115   7.044   4.152 -0.0949 -0.5704 -0.3016
   18SAPS  H12Y 2375   0.031   7.141   4.171 -1.9774 -0.3956  1.8245
   18SAPS  C313 2376   0.045   6.926   4.205 -0.2559 -0.4130 -0.0005
   18SAPS  H13X 2377   0.155   6.920   4.217 -0.1210  1.6381  0.0468
   18SAPS  H13Y 2378   0.017   6.832   4.153 -2.2790 -0.2859  0.7787
   18SAPS  C314 2379  -0.006   6.921   4.344  0.7129 -0.5880 -0.2478
   18SAPS  H14X 2380  -0.116   6.940   4.342  0.8970  0.4280 -2.3065
   18SAPS  H14Y 2381   0.038   7.008   4.397 -1.0683  0.0878  0.2057
   18SAPS  C315 2382   0.021   6.786   4.416 -0.1999 -0.0722  0.1197
   18SAPS  H15X 2383   0.033   6.820   4.521 -4.3686  0.3249  0.6528
   18SAPS  H15Y 2384   0.110   6.744   4.365 -1.5755 -1.6376 -1.1163
   18SAPS  C316 2385  -0.087   6.670   4.421 -0.8212  0.0932 -0.5291
   18SAPS  H16X 2386  -0.028   6.581   4.453  2.4824  2.1238 -0.5481
   18SAPS  H16Y 2387  -0.113   6.651   4.315  0.3852 -0.7295 -0.6984
   18SAPS  C317 2388  -0.203   6.705   4.509 -0.2189 -0.3720 -0.2390
   18SAPS  H17X 2389  -0.243   6.800   4.468  0.9794 -0.5247 -1.8471
   18SAPS  H17Y 2390  -0.167   6.724   4.612  2.0381 -2.1895 -0.6172
   18SAPS  C318 2391  -0.316   6.611   4.512  0.3620 -0.4392  0.0485
   18SAPS  H18X 2392  -0.409   6.656   4.551  1.5717  1.7236  0.6248
   18SAPS  H18Y 2393  -0.286   6.525   4.575  1.1951 -0.5683 -0.5047
   18SAPS  H18Z 2394  -0.347   6.575   4.411 -0.9724  0.6655  0.0414
   19SAPS     N 2395   5.280   5.085   2.243 -0.2063 -0.6158  0.5079
   19SAPS   HN1 2396   5.185   5.083   2.201  0.6381 -3.7712 -1.6297
   19SAPS   HN2 2397   5.275   5.020   2.324  1.1856  0.2512  1.3283
   19SAPS   HN3 2398   5.290   5.184   2.272  1.7085 -0.5332 -0.2512
   19SAPS   C12 2399   5.384   5.055   2.138  0.3119  0.7923  0.7770
   19SAPS  H12A 2400   5.367   4.950   2.121 -1.3921  1.3242 -1.2958
   19SAPS   C13 2401   5.359   5.138   2.007  0.1390 -0.6986 -0.6451
   19SAPS  O13A 2402   5.272   5.227   2.004 -0.2747 -0.1978  0.5079
   19SAPS  O13B 2403   5.446   5.131   1.920  0.0445 -0.1025 -0.7275
   19SAPS   C11 2404   5.530   5.067   2.186  0.2919 -0.2563 -0.4448
   19SAPS  H11A 2405   5.538   5.176   2.207 -1.1785 -0.0348 -0.8847
   19SAPS  H11B 2406   5.599   5.036   2.105  0.6358 -0.6749  0.0038
   19SAPS     P 2407   5.673   4.895   2.328 -0.2497  0.0475 -0.2674
   19SAPS   O13 2408   5.662   4.773   2.249  0.0372  0.2001  0.3131
   19SAPS   O14 2409   5.791   4.984   2.300  0.2704 -0.0616  0.2568
   19SAPS   O12 2410   5.540   4.979   2.305 -0.8249 -0.1994  0.2204
   19SAPS   O11 2411   5.673   4.858   2.478 -0.9918  0.4974 -0.5610
   19SAPS    C1 2412   5.581   4.903   2.579 -0.3765  0.0436 -0.0416
   19SAPS    HA 2413   5.476   4.877   2.556 -0.2540 -1.4591  0.9370
   19SAPS    HB 2414   5.609   4.857   2.677  1.3260 -1.3146 -1.1115
   19SAPS    C2 2415   5.581   5.057   2.604 -0.3442 -0.0629 -0.0661
   19SAPS    HS 2416   5.548   5.113   2.513 -0.2562  2.5241  1.3910
   19SAPS   O21 2417   5.713   5.101   2.649  0.3466  0.0408 -0.0669
   19SAPS   C21 2418   5.739   5.234   2.654  0.7714  0.1697  0.1887
   19SAPS   O22 2419   5.668   5.320   2.609 -0.6628 -0.0298 -0.6824
   19SAPS   C22 2420   5.871   5.258   2.735 -0.0731 -0.0852 -0.5208
   19SAPS   H2R 2421   5.889   5.176   2.807  2.4752 -0.7673 -1.7968
   19SAPS   H2S 2422   5.958   5.250   2.666  0.4494 -2.0058  0.2881
   19SAPS    C3 2423   5.469   5.084   2.717 -1.1048  0.0894 -0.1195
   19SAPS    HX 2424   5.383   5.030   2.673 -0.9568  1.3062 -2.0206
   19SAPS    HY 2425   5.449   5.194   2.717  1.1402  0.5495 -0.4720
   19SAPS   O31 2426   5.519   5.040   2.843 -0.7378  0.5419  0.0963
   19SAPS   C31 2427   5.561   5.130   2.932 -1.1085 -0.3772  0.1221
   19SAPS   O32 2428   5.547   5.250   2.921  0.7709 -0.1264 -0.2656
   19SAPS   C32 2429   5.649   5.058   3.034  0.2458 -0.2111  0.0775
   19SAPS   H2X 2430   5.746   5.038   2.983 -0.9344 -2.6438 -1.4102
   19SAPS   H2Y 2431   5.590   4.971   3.069 -1.0798  1.6194  2.7017
   19SAPS   C23 2432   5.863   5.392   2.812 -0.1721  0.4301 -0.1900
   19SAPS   H3R 2433   5.761   5.419   2.846  0.8088 -0.4622  4.1577
   19SAPS   H3S 2434   5.897   5.477   2.748 -2.2782  2.9063  1.7459
   19SAPS   C24 2435   5.972   5.383   2.929  1.2434  0.6182 -0.6287
   19SAPS   H4R 2436   5.919   5.321   3.004  1.3529  2.3092  0.9019
   19SAPS   H4S 2437   5.991   5.480   2.978  2.1173  1.1110 -1.8822
   19SAPS   C25 2438   6.106   5.338   2.876 -0.6165  0.1826 -0.3501
   19SAPS   H5R 2439   6.141   5.371   2.777  2.7994 -0.2248  0.5869
   19SAPS   C26 2440   6.183   5.250   2.934 -0.1596  0.1696 -0.1306
   19SAPS   H6R 2441   6.279   5.220   2.890  0.2001 -0.0355  0.7788
   19SAPS   C27 2442   6.155   5.181   3.063 -0.0778  1.0571 -0.6136
   19SAPS   H7R 2443   6.071   5.112   3.045 -0.8518  1.3040  1.6406
   19SAPS   H7S 2444   6.109   5.247   3.140  1.4407 -1.1637  2.4110
   19SAPS   C28 2445   6.267   5.110   3.131 -0.0589 -0.3223 -0.5966
   19SAPS   H8R 2446   6.338   5.056   3.065 -0.2487  0.3344 -1.3602
   19SAPS   C29 2447   6.282   5.090   3.263 -0.0977  0.4620 -0.0324
   19SAPS   H9R 2448   6.378   5.046   3.294 -1.4431 -0.1364  3.9383
   19SAPS  C210 2449   6.199   5.149   3.372 -0.0479 -0.3566  0.1371
   19SAPS  H10R 2450   6.156   5.079   3.447 -0.7506  0.1509  0.2160
   19SAPS  H10S 2451   6.105   5.199   3.342 -1.3904 -2.2122  1.0732
   19SAPS  C211 2452   6.273   5.263   3.435  0.5932  0.0900 -0.2611
   19SAPS  H11R 2453   6.308   5.339   3.363 -0.1703  0.0179 -0.7138
   19SAPS  C212 2454   6.298   5.285   3.566  0.3345  0.4339 -0.4827
   19SAPS  H12R 2455   6.365   5.366   3.598  0.8101 -0.0470 -0.2510
   19SAPS  C213 2456   6.252   5.200   3.679 -0.0282 -0.0566  0.0303
   19SAPS  H13R 2457   6.332   5.148   3.734 -0.3160  1.0240  1.5451
   19SAPS  H13S 2458   6.186   5.114   3.655 -0.9732  0.1350  1.7375
   19SAPS  C214 2459   6.175   5.281   3.782 -0.2079  0.0286  0.1891
   19SAPS  H14R 2460   6.092   5.338   3.738  0.8584  0.1018 -1.8451
   19SAPS  C215 2461   6.184   5.275   3.916  0.5254 -0.3606 -0.0717
   19SAPS  H15R 2462   6.127   5.341   3.983  1.5584  0.0788  0.3901
   19SAPS  C216 2463   6.280   5.189   3.994  0.2025 -0.2907  0.2937
   19SAPS  H16R 2464   6.350   5.135   3.926  0.4934  1.3278 -0.7366
   19SAPS  H16S 2465   6.231   5.101   4.042  0.5789  0.0245  1.2940
   19SAPS  C217 2466   6.383   5.258   4.091  0.1390  0.3868  0.5782
   19SAPS  H17R 2467   6.457   5.313   4.029 -1.7422  1.0682 -1.1810
   19SAPS  H17S 2468   6.440   5.178   4.144  1.0036  0.3968 -0.2941
   19SAPS  C218 2469   6.310   5.349   4.195 -0.1869 -0.2954  0.5314
   19SAPS  H18R 2470   6.243   5.422   4.143 -0.6219 -0.4607  0.8462
   19SAPS  H18S 2471   6.385   5.409   4.250  0.8353 -0.9710 -0.1065
   19SAPS  C219 2472   6.219   5.266   4.294 -0.2703  0.0792  0.4933
   19SAPS  H19R 2473   6.152   5.209   4.226 -0.7356  0.7756  0.3550
   19SAPS  H19S 2474   6.169   5.336   4.364 -0.8655 -2.8826  3.2938
   19SAPS  C220 2475   6.294   5.177   4.390 -0.0185 -0.1330  0.0208
   19SAPS  H20R 2476   6.212   5.118   4.436 -2.9840  3.0605 -0.7320
   19SAPS  H20S 2477   6.344   5.234   4.472 -0.6958  1.5863 -0.7085
   19SAPS  H20T 2478   6.359   5.101   4.343 -0.8398 -0.4319 -0.6638
   19SAPS   C33 2479   5.678   5.145   3.157  1.0973 -0.6704 -0.0303
   19SAPS   H3X 2480   5.590   5.190   3.209  0.0075  1.4426 -3.3992
   19SAPS   H3Y 2481   5.734   5.234   3.120  0.8186  0.0245  1.1427
   19SAPS   C34 2482   5.767   5.079   3.260  0.7105 -0.2171  0.2374
   19SAPS   H4X 2483   5.869   5.080   3.217 -0.2625 -0.5445 -2.2681
   19SAPS   H4Y 2484   5.739   4.971   3.270 -0.0668 -0.2985 -2.1356
   19SAPS   C35 2485   5.772   5.144   3.394 -0.8976 -0.1424 -0.6822
   19SAPS   H5X 2486   5.808   5.249   3.394 -1.9996  0.2687  0.6213
   19SAPS   H5Y 2487   5.859   5.097   3.444 -0.2563  0.9368 -0.7550
   19SAPS   C36 2488   5.644   5.133   3.480  0.0898  0.0355 -0.6275
   19SAPS   H6X 2489   5.611   5.027   3.482  1.5799 -0.4567 -0.3641
   19SAPS   H6Y 2490   5.565   5.196   3.435  1.1650  2.4490  0.6589
   19SAPS   C37 2491   5.664   5.200   3.617  0.1836 -0.3445  0.0224
   19SAPS   H7X 2492   5.569   5.190   3.674 -0.1720  0.8622 -0.3271
   19SAPS   H7Y 2493   5.666   5.310   3.599 -3.2813 -0.4140 -1.7704
   19SAPS   C38 2494   5.786   5.144   3.699  0.3123  0.6283  0.1382
   19SAPS   H8X 2495   5.875   5.179   3.642  1.3502 -1.2819  0.5159
   19SAPS   H8Y 2496   5.785   5.035   3.682  1.1013  0.1828  2.5786
   19SAPS   C39 2497   5.780   5.162   3.850 -1.0743  0.3718  0.3831
   19SAPS   H9X 2498   5.852   5.097   3.904 -1.4663  1.1104  1.8301
   19SAPS   H9Y 2499   5.678   5.126   3.871  0.1666 -3.5391  0.5120
   19SAPS  C310 2500   5.782   5.308   3.898 -1.2993 -0.0698  0.3617
   19SAPS  H10X 2501   5.706   5.363   3.838 -3.9136 -2.1427  1.5790
   19SAPS  H10Y 2502   5.883   5.354   3.899 -1.3918  0.1446  1.7228
   19SAPS  C311 2503   5.737   5.328   4.042  0.3072  0.3390 -0.9328
   19SAPS  H11X 2504   5.641   5.275   4.057  0.5928  0.2847  0.9474
   19SAPS  H11Y 2505   5.717   5.437   4.048 -2.8615 -0.1595 -0.8087
   19SAPS  C312 2506   5.845   5.285   4.138 -0.2816 -0.7435  0.5978
   19SAPS  H12X 2507   5.941   5.340   4.135 -0.8899  0.5050  2.2069
   19SAPS  H12Y 2508   5.888   5.184   4.124  2.1392  0.2481  0.3692
   19SAPS  C313 2509   5.785   5.305   4.284 -0.2986  0.0246  0.0562
   19SAPS  H13X 2510   5.678   5.273   4.279  0.2133 -1.5530 -2.4546
   19SAPS  H13Y 2511   5.779   5.414   4.305  1.3112  0.0201  0.6900
   19SAPS  C314 2512   5.868   5.221   4.386  0.0779 -0.0610 -0.0935
   19SAPS  H14X 2513   5.965   5.274   4.394  0.0518  0.1236 -0.9012
   19SAPS  H14Y 2514   5.893   5.119   4.351  0.4088 -0.7780  2.0927
   19SAPS  C315 2515   5.809   5.225   4.521  0.3470 -0.5665 -0.0551
   19SAPS  H15X 2516   5.850   5.136   4.574 -2.5603 -1.0718  1.5514
   19SAPS  H15Y 2517   5.700   5.205   4.514  0.6923 -3.4247  1.2328
   19SAPS  C316 2518   5.837   5.359   4.591 -0.2246  0.2767  0.6451
   19SAPS  H16X 2519   5.787   5.435   4.527 -0.7190 -0.2529  0.3929
   19SAPS  H16Y 2520   5.942   5.394   4.603  0.6607 -1.7028 -0.7317
   19SAPS  C317 2521   5.767   5.362   4.730 -0.0517 -0.6880  0.3709
   19SAPS  H17X 2522   5.663   5.324   4.721 -0.4958 -0.1103  2.5482
   19SAPS  H17Y 2523   5.768   5.467   4.767 -0.9414 -0.8877  1.0064
   19SAPS  C318 2524   5.834   5.277   4.836  0.0385  0.1388 -0.1298
   19SAPS  H18X 2525   5.822   5.172   4.801  0.3151  0.5240 -1.4448
   19SAPS  H18Y 2526   5.786   5.290   4.935 -0.2987  0.5658 -0.3457
   19SAPS  H18Z 2527   5.940   5.305   4.850 -0.5139  1.4295  1.7445
   20SAPS     N 2528   6.441   4.695   1.867 -0.0360 -0.2951 -0.3326
   20SAPS   HN1 2529   6.350   4.739   1.894  0.3907 -0.3957  1.3804
   20SAPS   HN2 2530   6.475   4.772   1.806  0.5164  1.1507  1.6893
   20SAPS   HN3 2531   6.418   4.619   1.800 -1.6690  0.9958 -1.3427
   20SAPS   C12 2532   6.545   4.667   1.975  1.1213 -0.1537  0.6501
   20SAPS  H12A 2533   6.493   4.624   2.059 -0.4200 -1.9987 -1.1341
   20SAPS   C13 2534   6.647   4.559   1.929 -0.2371  0.3730 -0.2439
   20SAPS  O13A 2535   6.651   4.519   1.810 -0.3927  0.2564  0.7578
   20SAPS  O13B 2536   6.718   4.512   2.026  0.4317  0.1677  0.3861
   20SAPS   C11 2537   6.624   4.793   2.024 -0.6286 -0.2260  0.5602
   20SAPS  H11A 2538   6.697   4.829   1.949 -1.8103  1.0113 -0.0525
   20SAPS  H11B 2539   6.679   4.754   2.111 -0.1053 -1.1315 -0.1666
   20SAPS     P 2540   6.581   5.018   2.156 -0.2001  0.3154  0.0171
   20SAPS   O13 2541   6.728   5.053   2.166  0.2199  0.2756  0.3130
   20SAPS   O14 2542   6.493   5.135   2.136  0.4504 -0.5902  0.2060
   20SAPS   O12 2543   6.548   4.905   2.043  0.0262 -0.3131  0.3631
   20SAPS   O11 2544   6.541   4.932   2.279  0.0844  0.5006 -0.2127
   20SAPS    C1 2545   6.425   4.849   2.281  0.1421 -0.0582 -0.1062
   20SAPS    HA 2546   6.355   4.867   2.196 -1.5267  0.9778  1.4266
   20SAPS    HB 2547   6.459   4.744   2.267 -1.8583 -0.9165  1.1048
   20SAPS    C2 2548   6.339   4.863   2.405  0.5351 -0.2269 -0.1249
   20SAPS    HS 2549   6.306   4.969   2.407 -0.0014 -0.3825  2.4181
   20SAPS   O21 2550   6.407   4.820   2.522  0.7913  0.3430 -0.0049
   20SAPS   C21 2551   6.477   4.913   2.584  0.2942 -0.5408  0.2937
   20SAPS   O22 2552   6.476   5.029   2.558  0.9043 -0.1975  0.1481
   20SAPS   C22 2553   6.555   4.849   2.700  0.5465 -0.0572  0.8480
   20SAPS   H2R 2554   6.481   4.801   2.768 -0.8644  3.5016  2.0587
   20SAPS   H2S 2555   6.613   4.766   2.655 -0.3936 -1.3356  1.9174
   20SAPS    C3 2556   6.204   4.776   2.389 -0.0533 -0.5066 -0.2578
   20SAPS    HX 2557   6.235   4.671   2.368 -0.1170 -0.4875 -0.4540
   20SAPS    HY 2558   6.155   4.810   2.295 -2.0521  1.2208  1.2918
   20SAPS   O31 2559   6.113   4.807   2.500  0.3372  0.6075  0.1722
   20SAPS   C31 2560   6.098   4.709   2.595  0.7214 -0.1673  0.3284
   20SAPS   O32 2561   6.158   4.603   2.596 -0.1197 -0.1296  0.1126
   20SAPS   C32 2562   6.006   4.756   2.704  0.2015  0.3472  0.5023
   20SAPS   H2X 2563   5.969   4.673   2.769 -1.1921 -1.2034 -2.1163
   20SAPS   H2Y 2564   5.906   4.792   2.671 -1.1688 -1.7538  2.0604
   20SAPS   C23 2565   6.654   4.943   2.772 -0.1101  0.0507  1.0280
   20SAPS   H3R 2566   6.695   5.012   2.695 -0.1297 -0.7018  0.3272
   20SAPS   H3S 2567   6.739   4.886   2.815 -0.6558 -0.5297  1.3696
   20SAPS   C24 2568   6.588   5.024   2.885  0.1412 -0.1933  0.4364
   20SAPS   H4R 2569   6.573   4.957   2.972  2.0364 -0.6331  0.4570
   20SAPS   H4S 2570   6.498   5.082   2.853 -0.2127 -0.8985  0.1408
   20SAPS   C25 2571   6.676   5.140   2.928  0.3284  0.5956  0.3540
   20SAPS   H5R 2572   6.715   5.183   2.835  0.5182  0.6937  0.4800
   20SAPS   C26 2573   6.722   5.183   3.043 -0.3488 -0.1617  0.4559
   20SAPS   H6R 2574   6.779   5.277   3.052  1.4320 -1.2565  1.1575
   20SAPS   C27 2575   6.673   5.139   3.182 -0.6162 -0.0454  0.5654
   20SAPS   H7R 2576   6.618   5.043   3.182 -0.3008 -0.2357 -0.4326
   20SAPS   H7S 2577   6.605   5.218   3.220  1.7045  1.4689  1.8239
   20SAPS   C28 2578   6.792   5.115   3.271 -0.1411 -0.3333  0.3464
   20SAPS   H8R 2579   6.885   5.096   3.214 -0.2234  0.3385 -0.0220
   20SAPS   C29 2580   6.798   5.125   3.404  0.3876  0.6924 -0.7083
   20SAPS   H9R 2581   6.892   5.094   3.454  1.4508 -1.3926 -3.7203
   20SAPS  C210 2582   6.686   5.155   3.490 -0.0998  0.0804  0.2707
   20SAPS  H10R 2583   6.676   5.079   3.571  2.5009  1.4499  2.0301
   20SAPS  H10S 2584   6.591   5.154   3.432  0.4365  2.4985 -0.7704
   20SAPS  C211 2585   6.702   5.295   3.542  0.4476  0.1152  0.4969
   20SAPS  H11R 2586   6.640   5.367   3.486  0.1021 -0.2289  0.4366
   20SAPS  C212 2587   6.762   5.334   3.655  0.2187 -0.4041  0.1179
   20SAPS  H12R 2588   6.762   5.439   3.687 -2.3012  0.0314 -1.1217
   20SAPS  C213 2589   6.819   5.240   3.762 -0.3723 -0.0521  0.4584
   20SAPS  H13R 2590   6.846   5.142   3.717  1.9186  0.1990  1.1438
   20SAPS  H13S 2591   6.744   5.222   3.842 -0.5676 -0.8354  0.1067
   20SAPS  C214 2592   6.957   5.275   3.808  0.2007 -0.4470 -1.0828
   20SAPS  H14R 2593   7.013   5.339   3.738 -1.6588 -1.8451 -4.0149
   20SAPS  C215 2594   7.003   5.243   3.937 -0.1626 -0.5532  0.1437
   20SAPS  H15R 2595   7.104   5.275   3.967  0.3065 -0.0830 -1.7381
   20SAPS  C216 2596   6.940   5.158   4.036 -0.0457 -0.2357 -0.7745
   20SAPS  H16R 2597   6.830   5.151   4.020  0.0252 -0.8225 -1.0077
   20SAPS  H16S 2598   6.965   5.201   4.135  2.0882  0.9181 -1.7576
   20SAPS  C217 2599   7.011   5.023   4.029  0.0510  0.0210  0.6210
   20SAPS  H17R 2600   7.119   5.037   4.046  0.1233 -1.5186  1.6185
   20SAPS  H17S 2601   7.014   4.984   3.925  0.3689 -1.3153  1.1105
   20SAPS  C218 2602   6.948   4.917   4.113 -0.4235  0.4837 -0.3424
   20SAPS  H18R 2603   6.846   4.883   4.086 -1.3844  0.2310  3.1779
   20SAPS  H18S 2604   6.937   4.949   4.219  1.5994  1.4425 -0.3737
   20SAPS  C219 2605   7.048   4.800   4.110 -0.2005 -0.1982  0.1337
   20SAPS  H19R 2606   7.147   4.824   4.154 -0.0052 -0.3589 -0.2200
   20SAPS  H19S 2607   7.071   4.774   4.005 -1.7303 -1.1467  0.0109
   20SAPS  C220 2608   7.000   4.672   4.177  0.1587  0.0787 -0.1237
   20SAPS  H20R 2609   6.982   4.688   4.286 -0.0854 -1.1471  0.0258
   20SAPS  H20S 2610   7.079   4.595   4.180  0.4158  0.2688 -1.6127
   20SAPS  H20T 2611   6.919   4.623   4.120  0.4192 -0.5646  0.0591
   20SAPS   C33 2612   6.077   4.865   2.791 -0.1203  0.0458 -0.3493
   20SAPS   H3X 2613   6.010   4.937   2.843  0.5964  0.8746 -0.5411
   20SAPS   H3Y 2614   6.125   4.937   2.721 -2.1678 -0.4164 -2.3379
   20SAPS   C34 2615   6.184   4.806   2.890  0.0192 -0.0470 -0.6572
   20SAPS   H4X 2616   6.248   4.889   2.926  3.5510 -2.8841  0.1418
   20SAPS   H4Y 2617   6.246   4.743   2.822 -0.0711 -1.4637  0.5310
   20SAPS   C35 2618   6.123   4.718   3.001  0.0133 -0.0880  1.4788
   20SAPS   H5X 2619   6.210   4.671   3.051  0.6605 -1.4192 -0.8146
   20SAPS   H5Y 2620   6.059   4.631   2.976 -1.1243  1.0875  0.1872
   20SAPS   C36 2621   6.066   4.803   3.106  0.3642  0.5920  0.0394
   20SAPS   H6X 2622   5.978   4.860   3.071 -0.8518 -2.2135 -1.8147
   20SAPS   H6Y 2623   6.139   4.877   3.146 -1.9277  1.8590  2.1421
   20SAPS   C37 2624   6.015   4.721   3.230  0.5758 -0.0800  0.0350
   20SAPS   H7X 2625   6.094   4.644   3.249 -0.6599 -1.2935  0.4326
   20SAPS   H7Y 2626   5.924   4.679   3.183  0.1865  1.0931 -0.2908
   20SAPS   C38 2627   5.975   4.808   3.348  0.3414 -0.4372 -0.4263
   20SAPS   H8X 2628   5.867   4.834   3.343  1.0012  2.4614 -1.3355
   20SAPS   H8Y 2629   6.027   4.906   3.347  0.6844 -0.5889  1.1868
   20SAPS   C39 2630   6.030   4.758   3.480  0.5135 -0.2534 -0.0741
   20SAPS   H9X 2631   6.141   4.761   3.482  0.5215  0.9026 -0.9115
   20SAPS   H9Y 2632   5.993   4.658   3.508  0.6580  0.5075  3.1900
   20SAPS  C310 2633   5.990   4.842   3.598 -0.6375  0.1145 -0.7124
   20SAPS  H10X 2634   5.879   4.833   3.598 -0.7031  0.5000  1.1747
   20SAPS  H10Y 2635   6.019   4.949   3.595 -2.3488  0.7256  1.4728
   20SAPS  C311 2636   6.049   4.786   3.726 -0.1177  0.3205 -0.0526
   20SAPS  H11X 2637   6.159   4.802   3.721 -0.2434  0.7831 -2.4095
   20SAPS  H11Y 2638   6.018   4.679   3.729 -0.1060  0.2761 -1.0968
   20SAPS  C312 2639   6.010   4.856   3.855 -0.8904 -0.5932 -0.3784
   20SAPS  H12X 2640   5.900   4.840   3.861 -1.1841  0.9213 -1.1567
   20SAPS  H12Y 2641   6.029   4.964   3.838  1.8366 -0.5016  2.3363
   20SAPS  C313 2642   6.085   4.814   3.975 -0.0411  0.0631 -0.2006
   20SAPS  H13X 2643   6.192   4.838   3.960  0.1801 -1.3140 -1.0408
   20SAPS  H13Y 2644   6.088   4.703   3.983  2.5822  0.0460 -0.6997
   20SAPS  C314 2645   6.041   4.890   4.109 -0.5917  0.2477  0.0974
   20SAPS  H14X 2646   5.951   4.847   4.156  1.2868 -0.2612  3.5614
   20SAPS  H14Y 2647   6.032   4.997   4.082  1.0577 -0.4252 -3.8677
   20SAPS  C315 2648   6.144   4.874   4.221  0.1391 -0.1205 -1.5366
   20SAPS  H15X 2649   6.140   4.963   4.287 -1.3146 -1.7931  0.7510
   20SAPS  H15Y 2650   6.251   4.872   4.188  0.8734  1.8249  0.4996
   20SAPS  C316 2651   6.126   4.749   4.308  0.4705 -0.0672 -0.2019
   20SAPS  H16X 2652   6.175   4.663   4.259  1.2042 -0.5778  1.3744
   20SAPS  H16Y 2653   6.016   4.734   4.307  0.4562 -0.1226  0.9844
   20SAPS  C317 2654   6.168   4.762   4.453  0.6467 -1.0041 -0.0109
   20SAPS  H17X 2655   6.272   4.800   4.461 -0.0978  0.8484  1.7253
   20SAPS  H17Y 2656   6.166   4.667   4.509 -1.3842 -0.6580  0.5656
   20SAPS  C318 2657   6.082   4.852   4.539  0.1693  0.0292  0.6780
   20SAPS  H18X 2658   6.078   4.957   4.503 -1.3197 -0.3328 -0.3213
   20SAPS  H18Y 2659   6.112   4.849   4.646 -0.8337 -4.2442  1.0292
   20SAPS  H18Z 2660   5.975   4.822   4.545 -0.2565  1.7177  2.5509
   21CHL1    C3 2661   2.687   5.082   6.559  0.8329 -0.2410 -0.4808
   21CHL1    H3 2662   2.717   4.976   6.549  0.1110 -0.4237 -0.7072
   21CHL1    O3 2663   2.717   5.128   6.694 -0.2346 -0.0254 -0.4493
   21CHL1   H3' 2664   2.674   5.214   6.701  1.0804  0.7243 -1.1065
   21CHL1    C4 2665   2.771   5.165   6.461 -0.0456  0.5253  0.4707
   21CHL1   H4A 2666   2.748   5.272   6.481  0.8590  1.2354 -1.8308
   21CHL1   H4B 2667   2.876   5.165   6.498 -0.2572 -0.2364  1.0814
   21CHL1    C5 2668   2.752   5.125   6.319  0.2510  0.2073 -0.5393
   21CHL1    C6 2669   2.849   5.077   6.240  0.4382 -0.2004  0.6635
   21CHL1    H6 2670   2.952   5.059   6.276  0.4294 -0.6589  0.4670
   21CHL1    C7 2671   2.837   5.039   6.098  0.1734  0.1137 -0.6128
   21CHL1   H7A 2672   2.920   5.076   6.034  4.8944 -3.1852  2.8859
   21CHL1   H7B 2673   2.855   4.929   6.094  2.4974  0.4533 -1.1312
   21CHL1    C8 2674   2.706   5.091   6.043 -0.1360  0.6037  0.8885
   21CHL1    H8 2675   2.715   5.201   6.030 -2.0063  1.1567  3.4401
   21CHL1   C14 2676   2.683   5.028   5.910  0.8797  0.1541 -0.1532
   21CHL1   H14 2677   2.648   4.924   5.930  1.5629 -0.5422 -2.3369
   21CHL1   C15 2678   2.797   5.017   5.813  1.2877  0.6765  0.0498
   21CHL1  H15A 2679   2.848   5.115   5.821  0.7962  0.9670 -0.3056
   21CHL1  H15B 2680   2.854   4.923   5.830 -1.4399 -1.8289 -3.0309
   21CHL1   C16 2681   2.733   5.005   5.679 -0.6165  0.5839 -0.2416
   21CHL1  H16A 2682   2.771   5.085   5.612  0.4493  1.0045  0.8326
   21CHL1  H16B 2683   2.749   4.907   5.629 -2.2822  0.5223 -0.7025
   21CHL1   C17 2684   2.580   5.019   5.694 -1.0542  0.2599  0.2893
   21CHL1   H17 2685   2.540   4.917   5.713 -0.4613 -0.0913 -0.3227
   21CHL1   C13 2686   2.565   5.091   5.827  0.1899  0.3126 -0.8018
   21CHL1   C18 2687   2.595   5.242   5.808 -0.0998  0.2750  0.7774
   21CHL1  H18A 2688   2.590   5.306   5.898  0.4846 -0.1056  1.0887
   21CHL1  H18B 2689   2.696   5.249   5.762  0.7734  0.7374  2.6404
   21CHL1  H18C 2690   2.519   5.282   5.738 -1.2388  0.0378  1.8465
   21CHL1   C12 2691   2.437   5.057   5.910  0.1715 -0.0436  0.3538
   21CHL1  H12A 2692   2.349   5.103   5.860 -0.3155  2.3137  3.1433
   21CHL1  H12B 2693   2.413   4.949   5.912  0.2318 -0.0494  0.9120
   21CHL1   C11 2694   2.453   5.105   6.057 -0.3687 -0.5072  0.0752
   21CHL1  H11A 2695   2.464   5.215   6.045  4.0876 -0.4312  2.5244
   21CHL1  H11B 2696   2.364   5.084   6.120  1.1012  0.1116  2.5038
   21CHL1    C9 2697   2.586   5.062   6.131 -0.4300 -0.2930 -0.3519
   21CHL1    H9 2698   2.582   4.952   6.147  3.5122 -0.5902 -0.6079
   21CHL1   C10 2699   2.608   5.136   6.275  1.0615  0.3273 -0.0465
   21CHL1   C19 2700   2.577   5.290   6.264  0.2420  0.8233 -0.6922
   21CHL1  H19A 2701   2.468   5.305   6.244 -0.3755 -2.2939 -0.0927
   21CHL1  H19B 2702   2.604   5.343   6.358  3.1973  2.5218 -2.3509
   21CHL1  H19C 2703   2.645   5.342   6.192  1.0862  0.6067 -0.0608
   21CHL1    C1 2704   2.507   5.064   6.373 -0.0912  0.2540 -0.3482
   21CHL1   H1A 2705   2.398   5.080   6.357 -0.6804 -1.2939  1.6969
   21CHL1   H1B 2706   2.527   4.956   6.358  1.3131  0.4374  0.0606
   21CHL1    C2 2707   2.538   5.101   6.526  0.4012 -0.0478  0.0417
   21CHL1   H2A 2708   2.488   5.029   6.594  1.0025 -1.1590 -0.6648
   21CHL1   H2B 2709   2.510   5.208   6.537 -0.8664 -0.3532  0.0303
   21CHL1   C20 2710   2.513   5.079   5.566 -1.1030 -0.0003 -0.2653
   21CHL1   H20 2711   2.539   5.187   5.559  0.3944 -0.1365  2.1000
   21CHL1   C21 2712   2.357   5.079   5.592  0.6746  0.0994  0.4596
   21CHL1  H21A 2713   2.343   4.985   5.648  0.0516  0.0533  0.2280
   21CHL1  H21B 2714   2.302   5.085   5.495  1.9365  0.1719 -0.2787
   21CHL1  H21C 2715   2.331   5.159   5.665 -0.6460  0.1683 -0.0544
   21CHL1   C22 2716   2.552   5.009   5.433 -0.5972  0.2409  0.1520
   21CHL1  H22A 2717   2.659   4.980   5.427 -1.0962 -1.4872 -1.2697
   21CHL1  H22B 2718   2.501   4.912   5.417  2.4854 -1.6784  0.9461
   21CHL1   C23 2719   2.530   5.107   5.309  0.6344 -0.3840 -0.3037
   21CHL1  H23A 2720   2.422   5.134   5.302  0.6766  0.5795  1.8226
   21CHL1  H23B 2721   2.585   5.201   5.328  1.6036 -0.9098 -0.4422
   21CHL1   C24 2722   2.569   5.044   5.179 -0.3808  0.0311 -0.5194
   21CHL1  H24A 2723   2.663   4.987   5.197 -0.5368  0.6365  2.7660
   21CHL1  H24B 2724   2.486   4.979   5.142 -0.0967 -0.2440 -0.6814
   21CHL1   C25 2725   2.585   5.140   5.058 -0.3642 -1.0710  1.0464
   21CHL1   H25 2726   2.490   5.197   5.045  0.6118  0.8304  1.7958
   21CHL1   C26 2727   2.706   5.241   5.080  0.2811 -0.1514 -0.8234
   21CHL1  H26A 2728   2.683   5.293   5.176 -0.1964 -0.8805 -0.5354
   21CHL1  H26B 2729   2.802   5.187   5.095  1.0936  1.6375  0.8354
   21CHL1  H26C 2730   2.727   5.317   5.001  0.5910  0.3417 -0.2749
   21CHL1   C27 2731   2.612   5.069   4.930  0.8772  0.4090 -0.0547
   21CHL1  H27A 2732   2.514   5.035   4.890 -0.1301  1.3774  1.4385
   21CHL1  H27B 2733   2.649   5.136   4.850 -0.2001  0.6200 -0.3993
   21CHL1  H27C 2734   2.689   4.989   4.938  0.8195  0.5050  1.9613
   22CHL1    C3 2735   6.271   3.041   6.302  0.1466  0.4392  0.8515
   22CHL1    H3 2736   6.362   2.987   6.268 -0.8529 -1.0568  0.4407
   22CHL1    O3 2737   6.284   3.051   6.446 -0.2463  0.0135 -0.1360
   22CHL1   H3' 2738   6.363   3.102   6.465 -0.6971  0.5362  0.3880
   22CHL1    C4 2739   6.264   3.178   6.249  0.0280  0.5968 -0.2690
   22CHL1   H4A 2740   6.180   3.229   6.300 -0.4144 -0.6363  0.2706
   22CHL1   H4B 2741   6.353   3.238   6.282  0.8346 -0.7237  0.0266
   22CHL1    C5 2742   6.243   3.181   6.101  0.4350  0.1773  0.3613
   22CHL1    C6 2743   6.342   3.223   6.013 -0.1879 -0.4744 -0.1421
   22CHL1    H6 2744   6.434   3.267   6.055 -1.4449  1.4611  0.7637
   22CHL1    C7 2745   6.333   3.218   5.864 -0.5713  0.4887  0.6239
   22CHL1   H7A 2746   6.371   3.312   5.819  1.3631 -0.4997  0.0676
   22CHL1   H7B 2747   6.387   3.127   5.830 -2.5969 -0.2701 -0.7630
   22CHL1    C8 2748   6.180   3.209   5.818  0.2274  0.4178 -0.0189
   22CHL1    H8 2749   6.133   3.309   5.829 -1.3691 -0.2733 -0.2689
   22CHL1   C14 2750   6.165   3.175   5.663 -0.4699 -0.4991  0.5913
   22CHL1   H14 2751   6.212   3.075   5.654  0.3783 -0.0807  0.2245
   22CHL1   C15 2752   6.238   3.268   5.567  0.2286  0.1890 -0.6511
   22CHL1  H15A 2753   6.240   3.376   5.591 -0.7063  0.1987 -0.5741
   22CHL1  H15B 2754   6.345   3.240   5.571  0.2751  0.4579  0.0775
   22CHL1   C16 2755   6.168   3.243   5.439 -0.0757 -0.4113  0.3860
   22CHL1  H16A 2756   6.124   3.343   5.415 -1.8731 -1.3445 -0.4880
   22CHL1  H16B 2757   6.237   3.224   5.355 -0.5623  0.0594 -0.1355
   22CHL1   C17 2758   6.052   3.142   5.456 -0.1573  0.1921  0.0082
   22CHL1   H17 2759   6.097   3.042   5.439  0.9930  1.0162 -2.3229
   22CHL1   C13 2760   6.020   3.160   5.612  0.5331  0.0425  0.3272
   22CHL1   C18 2761   5.944   3.290   5.624 -0.2614 -0.3766  0.2802
   22CHL1  H18A 2762   5.839   3.290   5.588 -0.3777  0.1368  0.6112
   22CHL1  H18B 2763   5.928   3.330   5.727 -1.6385  0.0177 -0.0721
   22CHL1  H18C 2764   5.991   3.368   5.561  1.3054 -0.9107  0.7470
   22CHL1   C12 2765   5.950   3.051   5.692  0.2526 -0.3192  0.4680
   22CHL1  H12A 2766   5.846   3.029   5.661  0.0725  1.0991 -0.0418
   22CHL1  H12B 2767   6.014   2.962   5.674  0.3030 -0.0717 -0.6863
   22CHL1   C11 2768   5.949   3.091   5.844 -0.5935  0.1775  0.7908
   22CHL1  H11A 2769   5.894   3.185   5.869 -1.8075 -0.2705 -0.0770
   22CHL1  H11B 2770   5.896   3.013   5.903  0.3487 -0.2652  1.0626
   22CHL1    C9 2771   6.099   3.104   5.896  0.3298  0.2833  0.0206
   22CHL1    H9 2772   6.143   3.006   5.865  1.5766  0.6855  0.4672
   22CHL1   C10 2773   6.113   3.116   6.057 -0.1656 -0.4952  0.0422
   22CHL1   C19 2774   5.992   3.193   6.112  0.6464 -0.7001  0.4806
   22CHL1  H19A 2775   5.989   3.189   6.223 -0.4129  0.8261  0.5420
   22CHL1  H19B 2776   6.002   3.300   6.082 -1.0923 -0.1817  1.5778
   22CHL1  H19C 2777   5.894   3.151   6.079  1.2214 -0.6338 -1.4477
   22CHL1    C1 2778   6.117   2.976   6.112 -0.5649 -0.2175 -0.1468
   22CHL1   H1A 2779   6.016   2.932   6.098 -0.4644 -0.2480 -0.7959
   22CHL1   H1B 2780   6.181   2.909   6.050 -1.5548 -2.0407  0.7288
   22CHL1    C2 2781   6.145   2.968   6.262  0.4408  0.2757 -0.1157
   22CHL1   H2A 2782   6.160   2.862   6.293  3.5484  0.5375 -0.4139
   22CHL1   H2B 2783   6.063   3.020   6.317  1.8057  2.6220 -0.1451
   22CHL1   C20 2784   5.939   3.159   5.359 -0.4424  0.0900  0.4399
   22CHL1   H20 2785   5.883   3.254   5.370 -2.3425 -0.6867 -1.7131
   22CHL1   C21 2786   5.840   3.042   5.373  0.3073 -0.0770 -0.0531
   22CHL1  H21A 2787   5.872   2.938   5.350 -1.7618 -0.3041 -2.4831
   22CHL1  H21B 2788   5.768   3.069   5.292  1.4353  3.0029 -0.1687
   22CHL1  H21C 2789   5.785   3.049   5.469  1.8377  1.1411  0.7787
   22CHL1   C22 2790   5.986   3.151   5.208  0.2907  0.2345 -0.2777
   22CHL1  H22A 2791   5.898   3.163   5.141  1.3621 -1.4170 -2.0637
   22CHL1  H22B 2792   6.052   3.238   5.187  1.7079 -0.9105 -0.6331
   22CHL1   C23 2793   6.059   3.022   5.158 -0.6268 -0.6084  0.0207
   22CHL1  H23A 2794   6.160   3.029   5.204 -0.6795 -0.4673  0.1152
   22CHL1  H23B 2795   6.007   2.931   5.195 -3.0050  0.6913  0.0369
   22CHL1   C24 2796   6.075   3.011   5.001 -0.1117  0.1795  0.4189
   22CHL1  H24A 2797   6.126   2.918   4.971  2.7136  1.7938 -0.1628
   22CHL1  H24B 2798   5.970   3.011   4.966 -0.4297 -0.3121  1.3344
   22CHL1   C25 2799   6.142   3.133   4.937  0.1214 -0.4673  0.3173
   22CHL1   H25 2800   6.097   3.228   4.973 -0.8240 -1.1453  0.9557
   22CHL1   C26 2801   6.294   3.134   4.973 -0.3180  0.2313 -0.2039
   22CHL1  H26A 2802   6.345   3.231   4.953 -1.3965  1.5479  2.7586
   22CHL1  H26B 2803   6.315   3.119   5.081 -0.3820 -0.6473 -0.3120
   22CHL1  H26C 2804   6.348   3.055   4.917 -4.2370 -2.8663 -0.0497
   22CHL1   C27 2805   6.120   3.137   4.780 -0.0262 -0.1893  0.5790
   22CHL1  H27A 2806   6.165   3.219   4.720 -0.5702 -1.1250 -1.1694
   22CHL1  H27B 2807   6.154   3.041   4.736 -0.8507  0.5406 -1.8083
   22CHL1  H27C 2808   6.011   3.145   4.759  0.4004  0.9218 -1.5023
   23CHL1    C3 2809   0.523   5.557   5.736 -0.8652  0.3412 -1.1750
   23CHL1    H3 2810   0.617   5.541   5.792 -0.2234  1.7503 -1.7727
   23CHL1    O3 2811   0.423   5.624   5.819  0.0071  0.0365  0.3178
   23CHL1   H3' 2812   0.452   5.715   5.825  2.0271 -0.5322 -0.0717
   23CHL1    C4 2813   0.553   5.639   5.615 -0.1805  0.3147 -1.2062
   23CHL1   H4A 2814   0.462   5.665   5.556 -0.3689 -0.6715 -1.3675
   23CHL1   H4B 2815   0.584   5.736   5.660 -1.4619  0.5827 -0.8451
   23CHL1    C5 2816   0.653   5.573   5.524 -0.3019 -0.0631 -0.1207
   23CHL1    C6 2817   0.767   5.639   5.492  0.1217 -0.3486 -0.3574
   23CHL1    H6 2818   0.782   5.742   5.527 -0.6806  0.2838 -1.8189
   23CHL1    C7 2819   0.866   5.580   5.394  0.2897  0.0474  0.4246
   23CHL1   H7A 2820   0.904   5.657   5.325 -1.5844 -1.6153 -2.6929
   23CHL1   H7B 2821   0.955   5.548   5.453 -0.4500 -0.1460  1.4816
   23CHL1    C8 2822   0.807   5.464   5.315  0.1530  0.1190 -0.5482
   23CHL1    H8 2823   0.740   5.517   5.245  2.6043  1.3625 -2.0662
   23CHL1   C14 2824   0.923   5.393   5.243 -0.0700 -0.4058 -0.2527
   23CHL1   H14 2825   0.987   5.356   5.326  0.3877 -0.9662 -0.8468
   23CHL1   C15 2826   1.015   5.484   5.158 -0.6069  0.4347 -0.4974
   23CHL1  H15A 2827   0.972   5.566   5.096 -0.1935 -0.1774 -1.6115
   23CHL1  H15B 2828   1.088   5.528   5.228 -0.7094 -1.7952  1.1148
   23CHL1   C16 2829   1.094   5.391   5.066 -0.3228 -0.1908  0.0819
   23CHL1  H16A 2830   1.094   5.425   4.960 -2.5626 -2.1256 -0.6401
   23CHL1  H16B 2831   1.198   5.383   5.104 -0.6042  0.3495  0.9968
   23CHL1   C17 2832   1.031   5.253   5.087 -0.1823  0.1045  0.0009
   23CHL1   H17 2833   1.080   5.196   5.168  2.7542  1.5389 -0.6460
   23CHL1   C13 2834   0.887   5.274   5.155 -0.3598 -0.1289 -0.0898
   23CHL1   C18 2835   0.796   5.310   5.040  0.0886 -0.3165  0.0364
   23CHL1  H18A 2836   0.711   5.373   5.075  0.4219 -1.2143  2.6417
   23CHL1  H18B 2837   0.842   5.376   4.963 -2.5139  0.2943 -1.1078
   23CHL1  H18C 2838   0.765   5.218   4.986  3.7216 -0.9726 -1.2483
   23CHL1   C12 2839   0.833   5.173   5.250  0.1787  0.1059  0.1973
   23CHL1  H12A 2840   0.798   5.084   5.193 -1.7684  0.2420  1.1258
   23CHL1  H12B 2841   0.907   5.138   5.325 -0.0594  0.4321  0.5894
   23CHL1   C11 2842   0.713   5.225   5.329  0.0455 -0.4205  0.3270
   23CHL1  H11A 2843   0.640   5.230   5.245  1.9131 -0.4577 -1.3645
   23CHL1  H11B 2844   0.672   5.145   5.394  0.5484  0.3418  1.6079
   23CHL1    C9 2845   0.739   5.359   5.398 -0.0623  0.1291 -0.6621
   23CHL1    H9 2846   0.810   5.339   5.482 -1.7430 -0.7751  0.6057
   23CHL1   C10 2847   0.617   5.425   5.471 -0.2436  0.2497  0.4004
   23CHL1   C19 2848   0.496   5.431   5.374  1.3347  0.1908  0.6123
   23CHL1  H19A 2849   0.422   5.504   5.412  1.9629  0.1177  2.0418
   23CHL1  H19B 2850   0.533   5.457   5.273 -1.0173 -0.0227 -0.3695
   23CHL1  H19C 2851   0.447   5.333   5.355  1.9939 -0.4153  1.8926
   23CHL1    C1 2852   0.577   5.351   5.599  0.3101 -0.0202 -0.2032
   23CHL1   H1A 2853   0.534   5.254   5.564 -0.5878 -0.1854  1.2783
   23CHL1   H1B 2854   0.669   5.343   5.659  0.3684  2.8088  0.2167
   23CHL1    C2 2855   0.470   5.416   5.689  0.0655 -0.2381  0.5695
   23CHL1   H2A 2856   0.466   5.351   5.780 -3.3199 -2.2328 -0.8327
   23CHL1   H2B 2857   0.372   5.421   5.638  1.5406  0.1701 -2.4760
   23CHL1   C20 2858   1.049   5.161   4.966  0.4857 -0.3941 -0.0380
   23CHL1   H20 2859   0.988   5.207   4.885  0.9962  1.1152  0.3899
   23CHL1   C21 2860   1.005   5.020   5.001 -0.5424  0.3608 -0.2528
   23CHL1  H21A 2861   1.023   4.949   4.918  1.1064  1.9596 -1.3449
   23CHL1  H21B 2862   0.897   5.014   5.023 -0.5592  0.3672 -0.3345
   23CHL1  H21C 2863   1.056   4.978   5.091  0.0819  0.2287 -0.6591
   23CHL1   C22 2864   1.194   5.160   4.902  0.5034 -0.3743  0.2670
   23CHL1  H22A 2865   1.234   5.263   4.914 -1.9051  0.4449  1.9284
   23CHL1  H22B 2866   1.256   5.084   4.954 -0.3334 -0.3359  1.3577
   23CHL1   C23 2867   1.187   5.151   4.748  0.5902 -0.0649 -0.9172
   23CHL1  H23A 2868   1.160   5.047   4.720  1.4352 -0.7072  0.5359
   23CHL1  H23B 2869   1.108   5.213   4.701  0.7835 -0.0575 -1.2392
   23CHL1   C24 2870   1.319   5.195   4.682 -0.6209 -0.4261  0.7664
   23CHL1  H24A 2871   1.342   5.300   4.710 -0.9352 -0.4077  0.9648
   23CHL1  H24B 2872   1.404   5.136   4.722 -0.5537 -1.9607 -1.4667
   23CHL1   C25 2873   1.327   5.182   4.530  0.2694  0.3286  0.6646
   23CHL1   H25 2874   1.292   5.081   4.499  3.6331  0.2134 -3.6896
   23CHL1   C26 2875   1.240   5.289   4.458 -0.1852 -0.1690 -0.2701
   23CHL1  H26A 2876   1.277   5.391   4.480 -1.3623  0.4394 -1.0070
   23CHL1  H26B 2877   1.226   5.270   4.349 -0.5062 -0.3684 -0.1953
   23CHL1  H26C 2878   1.138   5.284   4.503 -0.2205  1.5995 -0.1009
   23CHL1   C27 2879   1.472   5.186   4.472 -0.3412 -0.7167 -0.4356
   23CHL1  H27A 2880   1.545   5.110   4.508  2.7932  0.7956 -3.0835
   23CHL1  H27B 2881   1.482   5.186   4.362  2.5932 -1.4372 -0.2566
   23CHL1  H27C 2882   1.503   5.285   4.512 -3.4120 -0.5192  1.8289
   24CHL1    C3 2883   5.176   5.936   6.363  0.3508  0.2177 -0.3122
   24CHL1    H3 2884   5.242   5.847   6.355 -0.8033 -0.5942 -1.0502
   24CHL1    O3 2885   5.173   5.977   6.497 -0.2813 -0.0983 -0.7201
   24CHL1   H3' 2886   5.104   6.040   6.517  1.9705  2.2698  0.2392
   24CHL1    C4 2887   5.227   6.049   6.267 -0.2702  0.1262 -0.8455
   24CHL1   H4A 2888   5.162   6.135   6.296 -0.1307 -0.3599  1.0463
   24CHL1   H4B 2889   5.323   6.092   6.303 -1.2024  0.1395  1.9014
   24CHL1    C5 2890   5.225   6.019   6.120 -0.2029 -0.1243  0.5103
   24CHL1    C6 2891   5.334   6.024   6.043 -0.5710 -0.1308 -0.3143
   24CHL1    H6 2892   5.430   6.055   6.087 -1.1305  3.5546 -1.2909
   24CHL1    C7 2893   5.333   5.990   5.899  0.5897  0.1853 -0.3961
   24CHL1   H7A 2894   5.387   6.071   5.846  2.4922 -0.8613 -0.1830
   24CHL1   H7B 2895   5.385   5.894   5.878 -3.6567 -2.1625 -1.2610
   24CHL1    C8 2896   5.188   5.977   5.840  0.3608  0.1220 -0.3170
   24CHL1    H8 2897   5.147   6.079   5.826  1.0480  0.4871  0.2605
   24CHL1   C14 2898   5.193   5.907   5.707 -0.3807 -1.2260 -0.4290
   24CHL1   H14 2899   5.228   5.804   5.730  0.5810 -0.7189  0.4919
   24CHL1   C15 2900   5.298   5.949   5.604 -0.4184  0.2778 -0.0579
   24CHL1  H15A 2901   5.294   6.060   5.600 -2.3158  0.2447  0.2524
   24CHL1  H15B 2902   5.403   5.913   5.618  0.2104  2.0014 -0.1582
   24CHL1   C16 2903   5.244   5.887   5.470 -0.0641  1.0176 -0.4501
   24CHL1  H16A 2904   5.227   5.970   5.398 -2.3177  2.3217  1.4515
   24CHL1  H16B 2905   5.315   5.815   5.423 -1.5330 -0.1544 -0.9514
   24CHL1   C17 2906   5.120   5.803   5.512 -0.0620 -0.6658 -0.1358
   24CHL1   H17 2907   5.157   5.706   5.551 -1.2145 -1.0581  0.0246
   24CHL1   C13 2908   5.058   5.873   5.635 -0.2459  0.5374 -0.0722
   24CHL1   C18 2909   4.996   6.016   5.599 -0.6193  0.1247  0.1995
   24CHL1  H18A 2910   5.060   6.072   5.528 -1.1668  1.1632  0.5165
   24CHL1  H18B 2911   4.898   6.003   5.549  0.4298 -0.6209 -1.7759
   24CHL1  H18C 2912   4.983   6.087   5.683 -1.9620  0.9826 -0.7063
   24CHL1   C12 2913   4.974   5.788   5.731  0.0428  0.4564 -0.4416
   24CHL1  H12A 2914   4.871   5.756   5.704  0.6425 -2.1328  0.1196
   24CHL1  H12B 2915   5.026   5.691   5.745  1.6315  0.9554 -2.4306
   24CHL1   C11 2916   4.957   5.862   5.867  0.9152 -0.7772  1.3174
   24CHL1  H11A 2917   4.891   5.951   5.857  2.3581  0.2668  0.8174
   24CHL1  H11B 2918   4.913   5.793   5.942  1.5597  0.1446  2.5845
   24CHL1    C9 2919   5.094   5.905   5.934  0.5037  0.9336  0.1753
   24CHL1    H9 2920   5.150   5.810   5.946  0.6226  0.8636 -0.8290
   24CHL1   C10 2921   5.082   5.964   6.080 -0.2088  0.3665  0.2450
   24CHL1   C19 2922   4.970   6.067   6.088  0.3687 -1.2629  0.4206
   24CHL1  H19A 2923   4.935   6.106   6.186  0.5983  3.1233 -0.9992
   24CHL1  H19B 2924   4.996   6.152   6.020 -2.6772 -0.6905 -0.1841
   24CHL1  H19C 2925   4.877   6.035   6.036  0.4792  1.1681 -1.4866
   24CHL1    C1 2926   5.047   5.844   6.176 -0.5458 -0.8133  0.0187
   24CHL1   H1A 2927   4.945   5.805   6.156 -0.0837 -2.0924  0.0467
   24CHL1   H1B 2928   5.117   5.759   6.158  2.9464  1.7808  0.3692
   24CHL1    C2 2929   5.042   5.887   6.323  0.6843  0.4813 -0.4149
   24CHL1   H2A 2930   5.014   5.798   6.384 -0.1356 -0.9464 -2.7566
   24CHL1   H2B 2931   4.960   5.962   6.325  1.2003  1.1854 -2.8317
   24CHL1   C20 2932   5.046   5.766   5.379 -0.4047  0.4737 -0.1782
   24CHL1   H20 2933   5.009   5.863   5.341  0.4263  0.5848 -0.7488
   24CHL1   C21 2934   4.927   5.673   5.419 -0.2968  0.3842 -0.4410
   24CHL1  H21A 2935   4.862   5.657   5.331 -0.3421 -1.4797 -0.1149
   24CHL1  H21B 2936   4.868   5.725   5.498 -1.6029 -0.0601 -1.1020
   24CHL1  H21C 2937   4.956   5.571   5.454 -0.9598 -0.0646 -1.1729
   24CHL1   C22 2938   5.132   5.694   5.269  0.4172  0.4146 -0.4793
   24CHL1  H22A 2939   5.211   5.764   5.234  1.4038 -0.1530  0.5162
   24CHL1  H22B 2940   5.178   5.602   5.309 -0.1459 -0.6110 -2.1077
   24CHL1   C23 2941   5.053   5.643   5.147  0.0398 -0.2764  0.3578
   24CHL1  H23A 2942   5.002   5.548   5.174  1.9941 -1.0386  1.5102
   24CHL1  H23B 2943   4.979   5.718   5.111  0.4634  0.3260  0.7260
   24CHL1   C24 2944   5.137   5.612   5.024 -0.5629  0.1847 -1.1052
   24CHL1  H24A 2945   5.183   5.708   4.992  0.4502  0.3918  0.8371
   24CHL1  H24B 2946   5.219   5.545   5.058 -1.9342 -0.7393  0.5410
   24CHL1   C25 2947   5.057   5.569   4.899 -0.2090 -0.8253 -0.4239
   24CHL1   H25 2948   4.996   5.660   4.877  1.2262  0.4368  0.5892
   24CHL1   C26 2949   5.154   5.555   4.778  0.3788  0.3869  0.2953
   24CHL1  H26A 2950   5.191   5.657   4.754 -2.3964  1.3135 -0.4595
   24CHL1  H26B 2951   5.239   5.488   4.804 -0.2807 -1.1542 -1.3639
   24CHL1  H26C 2952   5.085   5.507   4.706 -0.2147 -2.1134  2.3815
   24CHL1   C27 2953   4.968   5.440   4.914 -0.1374 -0.2735  0.2532
   24CHL1  H27A 2954   4.910   5.416   4.822 -1.7722 -0.2696  1.2389
   24CHL1  H27B 2955   5.032   5.356   4.946  0.3460  0.1978  0.5407
   24CHL1  H27C 2956   4.894   5.458   4.995 -1.3320  2.2093 -1.2576
   25CHL1    C3 2957   6.099   0.544   5.797 -0.0892 -0.7387 -0.2096
   25CHL1    H3 2958   6.192   0.600   5.819 -1.4519  0.5198  3.1327
   25CHL1    O3 2959   6.044   0.509   5.926  0.0307  0.3159  0.3189
   25CHL1   H3' 2960   6.115   0.483   5.986 -1.4503 -1.5773  1.4027
   25CHL1    C4 2961   5.986   0.634   5.732 -0.1511 -0.2420  0.6832
   25CHL1   H4A 2962   5.889   0.581   5.725 -0.4400  0.4599 -1.1653
   25CHL1   H4B 2963   5.980   0.727   5.792  0.6662  0.6763 -0.6087
   25CHL1    C5 2964   6.022   0.672   5.589  0.2289 -0.1999 -0.0777
   25CHL1    C6 2965   6.035   0.806   5.554  0.0925  0.2969  0.1674
   25CHL1    H6 2966   6.022   0.886   5.628  1.7390  0.9258 -0.1893
   25CHL1    C7 2967   6.066   0.845   5.418 -0.3512 -0.2330 -0.4463
   25CHL1   H7A 2968   6.007   0.931   5.379 -2.8795 -1.7761 -0.2889
   25CHL1   H7B 2969   6.171   0.881   5.412 -0.0747 -1.1748 -1.4556
   25CHL1    C8 2970   6.053   0.732   5.313  0.0766  0.2857  0.6401
   25CHL1    H8 2971   5.944   0.710   5.309  0.3532 -1.8563  2.8099
   25CHL1   C14 2972   6.112   0.764   5.173 -0.7235 -0.1651 -0.9175
   25CHL1   H14 2973   6.222   0.773   5.184 -0.6246  1.2741 -2.7199
   25CHL1   C15 2974   6.073   0.900   5.107  0.7131  0.2062  0.2549
   25CHL1  H15A 2975   5.964   0.909   5.124  0.4774  1.2015 -1.5471
   25CHL1  H15B 2976   6.129   0.983   5.155  0.6066  0.4836 -0.0968
   25CHL1   C16 2977   6.105   0.879   4.957  0.1350  0.2392  0.0411
   25CHL1  H16A 2978   6.019   0.932   4.910 -0.2561  0.7609  1.2961
   25CHL1  H16B 2979   6.198   0.933   4.933  1.2138 -0.4891  2.2625
   25CHL1   C17 2980   6.132   0.729   4.936  0.2250 -0.4565 -0.3262
   25CHL1   H17 2981   6.243   0.719   4.935  0.0805 -2.4223  0.0260
   25CHL1   C13 2982   6.074   0.663   5.064 -0.5375  0.2295  0.2977
   25CHL1   C18 2983   5.925   0.640   5.046  0.1282  0.3720  0.4958
   25CHL1  H18A 2984   5.870   0.699   4.970 -1.1005 -1.6804 -0.2911
   25CHL1  H18B 2985   5.910   0.536   5.012 -0.4568  0.6257 -0.0335
   25CHL1  H18C 2986   5.871   0.652   5.143  3.8287  1.6633  2.6019
   25CHL1   C12 2987   6.141   0.534   5.114  0.4238 -0.1158  0.3826
   25CHL1  H12A 2988   6.115   0.457   5.038  0.7920 -0.1524  0.2949
   25CHL1  H12B 2989   6.250   0.556   5.114  0.0615  1.8635  0.3519
   25CHL1   C11 2990   6.099   0.484   5.256 -0.2095  0.5142  0.0970
   25CHL1  H11A 2991   5.992   0.455   5.243 -0.2854 -0.9110  3.1430
   25CHL1  H11B 2992   6.176   0.410   5.285 -1.9354 -0.7282  1.7963
   25CHL1    C9 2993   6.106   0.601   5.362 -0.2475  0.8014 -0.0358
   25CHL1    H9 2994   6.211   0.624   5.388  0.2089  0.6959 -1.6929
   25CHL1   C10 2995   6.050   0.555   5.503 -0.5495  0.1551  0.0931
   25CHL1   C19 2996   5.911   0.486   5.484  0.2689  0.5623 -0.0438
   25CHL1  H19A 2997   5.848   0.563   5.436  0.3344  1.7671  1.7119
   25CHL1  H19B 2998   5.919   0.401   5.413 -1.6805  0.0547  0.2778
   25CHL1  H19C 2999   5.870   0.438   5.576  1.6271 -1.6189 -0.4942
   25CHL1    C1 3000   6.152   0.459   5.560 -0.4938  0.3334 -0.1760
   25CHL1   H1A 3001   6.144   0.364   5.503  1.9922 -0.9105  1.3745
   25CHL1   H1B 3002   6.251   0.510   5.560 -0.9439  1.2345  1.1912
   25CHL1    C2 3003   6.121   0.421   5.708 -0.5038  0.3955 -0.2732
   25CHL1   H2A 3004   6.211   0.363   5.738 -1.7088 -1.5242 -0.2418
   25CHL1   H2B 3005   6.034   0.353   5.705  0.6770 -1.3546  2.2578
   25CHL1   C20 3006   6.087   0.680   4.799 -0.0977 -0.4066  0.1701
   25CHL1   H20 3007   5.978   0.699   4.791 -0.7102 -2.4942  2.2753
   25CHL1   C21 3008   6.101   0.526   4.784  0.9172  0.0914  0.5355
   25CHL1  H21A 3009   6.028   0.470   4.847  0.3317 -0.3945 -0.5334
   25CHL1  H21B 3010   6.209   0.501   4.792  0.9514  0.5754  1.7957
   25CHL1  H21C 3011   6.066   0.502   4.681  1.6111 -1.0439  0.5464
   25CHL1   C22 3012   6.159   0.751   4.691  0.1323 -0.6968  0.1209
   25CHL1  H22A 3013   6.146   0.861   4.701  1.2356 -0.5955  0.6294
   25CHL1  H22B 3014   6.267   0.723   4.696  0.8315  1.7101 -0.0907
   25CHL1   C23 3015   6.106   0.716   4.553  0.1402 -0.4883  0.3615
   25CHL1  H23A 3016   6.146   0.618   4.519  0.0234 -0.0537 -1.0881
   25CHL1  H23B 3017   5.997   0.694   4.554  0.3369 -1.6048 -0.4370
   25CHL1   C24 3018   6.136   0.810   4.434 -0.3023  0.4071 -0.3794
   25CHL1  H24A 3019   6.084   0.908   4.440  1.5391  1.8116 -4.0380
   25CHL1  H24B 3020   6.245   0.831   4.427 -0.3154 -0.0693 -3.1161
   25CHL1   C25 3021   6.092   0.764   4.296  0.1890  0.1805 -0.0349
   25CHL1   H25 3022   5.986   0.734   4.302 -0.2744  1.7588  0.1944
   25CHL1   C26 3023   6.097   0.883   4.199 -0.2559 -0.9248  0.0976
   25CHL1  H26A 3024   6.196   0.933   4.201 -0.8326  0.2370  1.9222
   25CHL1  H26B 3025   6.087   0.850   4.094  0.2728 -1.5590  0.2436
   25CHL1  H26C 3026   6.021   0.964   4.211  1.5492  1.2657 -2.1245
   25CHL1   C27 3027   6.179   0.643   4.253  0.6533  0.0290  0.0530
   25CHL1  H27A 3028   6.193   0.564   4.329 -0.9571 -0.6679 -0.3259
   25CHL1  H27B 3029   6.114   0.599   4.174  0.9095  3.0900 -2.0451
   25CHL1  H27C 3030   6.271   0.683   4.206 -0.5521  1.9963 -0.7863
   26CHL1    C3 3031   6.461   3.568   6.111 -0.3022  0.2221 -0.3206
   26CHL1    H3 3032   6.397   3.478   6.119  0.6844 -0.5124 -0.4391
   26CHL1    O3 3033   6.459   3.626   6.240 -0.4058 -0.5890  0.3185
   26CHL1   H3' 3034   6.366   3.618   6.261 -0.7065 -2.0112 -1.3311
   26CHL1    C4 3035   6.605   3.528   6.080 -0.3412  0.7166 -0.1643
   26CHL1   H4A 3036   6.672   3.614   6.100  1.2628 -0.5465  0.1465
   26CHL1   H4B 3037   6.639   3.441   6.141  0.3650  0.1473 -1.3186
   26CHL1    C5 3038   6.624   3.484   5.936  0.3130 -1.1714  0.3803
   26CHL1    C6 3039   6.676   3.369   5.898 -0.4904  0.0092  0.8778
   26CHL1    H6 3040   6.717   3.302   5.975  1.4848  1.0982  0.8618
   26CHL1    C7 3041   6.709   3.332   5.758 -0.3249 -0.1333 -0.4071
   26CHL1   H7A 3042   6.816   3.301   5.761 -1.0989 -3.0077  0.8532
   26CHL1   H7B 3043   6.643   3.250   5.720  0.5355 -1.6522  1.2363
   26CHL1    C8 3044   6.691   3.444   5.652 -0.0506  0.2187 -0.1800
   26CHL1    H8 3045   6.776   3.513   5.666 -0.4136  0.3019  1.9604
   26CHL1   C14 3046   6.692   3.386   5.514 -0.9042 -0.2516  0.3330
   26CHL1   H14 3047   6.605   3.316   5.515  0.3411 -1.8708 -0.2979
   26CHL1   C15 3048   6.815   3.313   5.455 -0.1733  1.2699  0.4069
   26CHL1  H15A 3049   6.914   3.365   5.449  0.7281 -0.5214 -2.6079
   26CHL1  H15B 3050   6.841   3.218   5.505 -0.5419  0.5848 -0.6801
   26CHL1   C16 3051   6.786   3.294   5.305  0.9487 -0.0624  0.0949
   26CHL1  H16A 3052   6.876   3.330   5.250  1.1213  1.0359  1.0703
   26CHL1  H16B 3053   6.768   3.189   5.272 -0.1284  0.4075 -0.8884
   26CHL1   C17 3054   6.659   3.383   5.280 -0.2543  0.3718 -0.0383
   26CHL1   H17 3055   6.571   3.316   5.284  0.4738 -0.5662  0.8286
   26CHL1   C13 3056   6.655   3.483   5.394 -0.8209  0.3894 -0.6191
   26CHL1   C18 3057   6.761   3.589   5.379 -0.1662  0.4847  0.8556
   26CHL1  H18A 3058   6.790   3.639   5.474  1.1110 -1.1730  1.3834
   26CHL1  H18B 3059   6.852   3.549   5.328 -0.6692  2.1377 -1.5551
   26CHL1  H18C 3060   6.716   3.661   5.307  0.4876  0.7710  0.7184
   26CHL1   C12 3061   6.526   3.550   5.434  0.4487 -0.1514  0.1191
   26CHL1  H12A 3062   6.485   3.606   5.348  0.0251 -0.0719  0.3685
   26CHL1  H12B 3063   6.449   3.474   5.459  1.3227 -0.2953  2.7717
   26CHL1   C11 3064   6.536   3.629   5.565  0.4803  0.4881 -0.4387
   26CHL1  H11A 3065   6.611   3.711   5.566  0.9646  0.0555  0.4085
   26CHL1  H11B 3066   6.435   3.668   5.588  0.4912 -0.2554  0.9943
   26CHL1    C9 3067   6.564   3.525   5.683  0.2659 -0.3349 -0.2225
   26CHL1    H9 3068   6.477   3.455   5.680  1.7935 -2.3852  0.8200
   26CHL1   C10 3069   6.565   3.585   5.831  0.7532  0.1432  0.3993
   26CHL1   C19 3070   6.661   3.708   5.823  0.3773  0.0764  0.2997
   26CHL1  H19A 3071   6.642   3.784   5.744  0.3645 -0.5515 -0.3032
   26CHL1  H19B 3072   6.651   3.768   5.917  1.1475  1.3977 -0.4369
   26CHL1  H19C 3073   6.765   3.672   5.823  0.5207  0.4715 -0.3754
   26CHL1    C1 3074   6.418   3.621   5.867 -0.3269  0.2282 -0.2122
   26CHL1   H1A 3075   6.387   3.705   5.802  1.7139  0.9946 -0.2580
   26CHL1   H1B 3076   6.358   3.528   5.854  0.2834 -0.1192 -0.6106
   26CHL1    C2 3077   6.399   3.667   6.009  0.1824  0.0065 -0.1527
   26CHL1   H2A 3078   6.290   3.678   6.027  0.4367 -0.0287  1.5595
   26CHL1   H2B 3079   6.436   3.770   6.025 -1.3883  0.3778  1.3816
   26CHL1   C20 3080   6.670   3.437   5.140  0.2611 -0.0214  0.4766
   26CHL1   H20 3081   6.759   3.504   5.139  0.8799 -0.8134  1.3120
   26CHL1   C21 3082   6.544   3.514   5.100 -0.2115 -0.2593  0.4261
   26CHL1  H21A 3083   6.547   3.615   5.146 -1.1035 -0.1732  0.3180
   26CHL1  H21B 3084   6.450   3.465   5.135  0.0102 -0.1498  1.1867
   26CHL1  H21C 3085   6.530   3.520   4.990  0.8497 -1.9876  0.1719
   26CHL1   C22 3086   6.689   3.324   5.036  0.1544 -1.1864  0.1992
   26CHL1  H22A 3087   6.772   3.253   5.058  1.8719  0.3830 -0.8955
   26CHL1  H22B 3088   6.600   3.258   5.038  1.0066 -2.3574  1.4765
   26CHL1   C23 3089   6.719   3.370   4.895  0.5900 -0.0991 -0.1712
   26CHL1  H23A 3090   6.647   3.441   4.850 -2.2002 -2.1002  0.8966
   26CHL1  H23B 3091   6.815   3.425   4.913 -0.1872  1.2648 -0.0446
   26CHL1   C24 3092   6.729   3.246   4.802 -0.4172  0.4514  0.6330
   26CHL1  H24A 3093   6.820   3.193   4.839 -1.4835 -1.7988  0.1886
   26CHL1  H24B 3094   6.633   3.191   4.800 -0.8192  1.1447 -1.3943
   26CHL1   C25 3095   6.761   3.285   4.652  0.6887  0.0233 -0.1798
   26CHL1   H25 3096   6.664   3.301   4.601  1.3077  1.4431 -0.9513
   26CHL1   C26 3097   6.856   3.409   4.629 -0.3094 -0.5094 -0.7358
   26CHL1  H26A 3098   6.936   3.407   4.706 -0.5727  0.2224 -0.4318
   26CHL1  H26B 3099   6.897   3.428   4.527 -0.0998  2.2789 -0.2195
   26CHL1  H26C 3100   6.804   3.505   4.648  1.5495  0.0984  1.8033
   26CHL1   C27 3101   6.818   3.172   4.580  0.3929  0.1322  0.6377
   26CHL1  H27A 3102   6.768   3.075   4.598  1.1755 -0.7294 -1.6237
   26CHL1  H27B 3103   6.814   3.200   4.473  2.8077  0.6869  0.6179
   26CHL1  H27C 3104   6.924   3.159   4.611  1.1123  0.0161 -1.7103
   27CHL1    C3 3105   3.004   4.121   6.462 -0.3003 -0.2114  0.3942
   27CHL1    H3 3106   3.112   4.143   6.445 -0.2581 -0.9323 -0.2968
   27CHL1    O3 3107   2.962   4.128   6.594  0.5874  1.2434 -0.1475
   27CHL1   H3' 3108   2.868   4.118   6.578  0.1947  4.3548 -0.4135
   27CHL1    C4 3109   2.924   4.216   6.369  0.9273 -0.1203 -0.5232
   27CHL1   H4A 3110   2.815   4.203   6.386  0.6785  1.1529 -1.0629
   27CHL1   H4B 3111   2.950   4.315   6.412 -0.5912 -0.3399  1.0080
   27CHL1    C5 3112   2.961   4.197   6.223 -0.1661  0.7864  0.8687
   27CHL1    C6 3113   3.006   4.306   6.157  0.3065 -0.3801 -0.0998
   27CHL1    H6 3114   3.008   4.406   6.203  0.2124 -1.5567  2.6142
   27CHL1    C7 3115   3.054   4.304   6.017 -0.0536 -0.3007  0.2381
   27CHL1   H7A 3116   3.014   4.392   5.963  0.9168  0.5684  0.9027
   27CHL1   H7B 3117   3.164   4.315   6.026 -0.3523  3.8085  0.9134
   27CHL1    C8 3118   3.008   4.180   5.939  0.4825  0.1512 -0.4611
   27CHL1    H8 3119   2.900   4.197   5.922  0.6292  0.5997 -0.9799
   27CHL1   C14 3120   3.072   4.159   5.803  0.1920 -0.2984  0.3369
   27CHL1   H14 3121   3.181   4.152   5.823  0.4813 -1.3818 -1.3945
   27CHL1   C15 3122   3.064   4.280   5.706 -0.0113  0.3453  0.0351
   27CHL1  H15A 3123   2.961   4.320   5.709  0.3484  1.2927  2.4618
   27CHL1  H15B 3124   3.134   4.364   5.723 -0.9943  1.2703 -0.3687
   27CHL1   C16 3125   3.094   4.217   5.567 -0.7545  0.2787  0.3712
   27CHL1  H16A 3126   3.015   4.235   5.491 -0.2813  0.0208 -0.1906
   27CHL1  H16B 3127   3.188   4.264   5.531 -0.4823  0.3661  1.1765
   27CHL1   C17 3128   3.118   4.063   5.593 -0.0662 -0.0470 -0.1291
   27CHL1   H17 3129   3.226   4.068   5.620 -0.2395  0.4979  0.4919
   27CHL1   C13 3130   3.038   4.032   5.722 -0.7473  0.5253 -0.5737
   27CHL1   C18 3131   2.889   4.020   5.686  0.0715 -0.0369  0.4866
   27CHL1  H18A 3132   2.858   4.079   5.597  1.6112  0.4095  0.2093
   27CHL1  H18B 3133   2.852   3.916   5.681  2.2219 -0.9578  1.9169
   27CHL1  H18C 3134   2.832   4.064   5.771 -0.8999 -0.1178 -0.1108
   27CHL1   C12 3135   3.087   3.916   5.821  0.4683 -0.0644 -0.8228
   27CHL1  H12A 3136   3.064   3.823   5.764 -0.2327  0.0314 -0.7034
   27CHL1  H12B 3137   3.197   3.932   5.828  0.5230  0.5944 -2.5780
   27CHL1   C11 3138   3.004   3.919   5.954  0.3392  0.2344  0.8106
   27CHL1  H11A 3139   2.898   3.919   5.920 -0.1319  0.3445  2.2253
   27CHL1  H11B 3140   3.020   3.825   6.011 -0.8994  0.2126  1.1487
   27CHL1    C9 3141   3.028   4.051   6.027  0.7344 -0.0525  0.1428
   27CHL1    H9 3142   3.137   4.042   6.048  1.5181 -0.4102 -3.3916
   27CHL1   C10 3143   2.954   4.050   6.167 -0.1958  0.1057  0.4154
   27CHL1   C19 3144   2.809   3.994   6.159  0.5358  0.3490  0.0745
   27CHL1  H19A 3145   2.804   3.889   6.125 -0.2538 -0.1889  1.7252
   27CHL1  H19B 3146   2.749   3.999   6.252 -1.4639  0.9088 -1.1858
   27CHL1  H19C 3147   2.753   4.055   6.085 -0.2533  1.0303  1.2036
   27CHL1    C1 3148   3.034   3.956   6.259 -0.3822 -0.3590  0.3813
   27CHL1   H1A 3149   3.027   3.851   6.224 -2.5428 -0.1835  0.1773
   27CHL1   H1B 3150   3.142   3.977   6.247 -0.9038  1.7380 -1.0857
   27CHL1    C2 3151   3.000   3.975   6.410 -0.1632  0.9561 -0.4579
   27CHL1   H2A 3152   3.064   3.921   6.484  0.4624  0.6488 -1.2086
   27CHL1   H2B 3153   2.897   3.933   6.419  0.8490 -1.3845  1.4074
   27CHL1   C20 3154   3.101   3.979   5.466 -0.2586  0.1014  0.3031
   27CHL1   H20 3155   2.995   3.978   5.431 -0.6567  0.4774  1.4361
   27CHL1   C21 3156   3.146   3.836   5.493  0.1514  0.7309 -0.3048
   27CHL1  H21A 3157   3.239   3.825   5.553 -0.9833 -0.8569  1.2450
   27CHL1  H21B 3158   3.166   3.779   5.399  1.5870 -2.1404  1.5803
   27CHL1  H21C 3159   3.079   3.762   5.542  1.5293 -0.2163  0.2378
   27CHL1   C22 3160   3.171   4.035   5.345 -0.2714 -0.4495 -0.2609
   27CHL1  H22A 3161   3.254   4.099   5.382 -0.1163  0.9503 -2.8482
   27CHL1  H22B 3162   3.222   3.954   5.288  0.4820  0.6410 -1.1699
   27CHL1   C23 3163   3.075   4.106   5.250  0.1905  0.0017 -0.0405
   27CHL1  H23A 3164   3.020   4.038   5.182  2.1864  0.1071 -1.8832
   27CHL1  H23B 3165   3.006   4.178   5.300  1.7679  2.0005 -0.6039
   27CHL1   C24 3166   3.156   4.198   5.156 -0.3374  0.2224  0.2378
   27CHL1  H24A 3167   3.205   4.284   5.206 -0.4322  0.9557 -0.8870
   27CHL1  H24B 3168   3.229   4.134   5.102 -0.3317  0.8211 -0.4862
   27CHL1   C25 3169   3.075   4.269   5.042 -0.9109  0.1236 -0.2132
   27CHL1   H25 3170   3.016   4.191   4.989 -1.6476  1.1668 -0.9695
   27CHL1   C26 3171   2.994   4.389   5.097  0.8426  0.2587 -0.3263
   27CHL1  H26A 3172   2.990   4.468   5.019  0.6398  1.4247  0.8216
   27CHL1  H26B 3173   2.887   4.367   5.118  0.7245 -2.6712 -3.3555
   27CHL1  H26C 3174   3.053   4.424   5.184  1.5201 -1.6017 -0.0015
   27CHL1   C27 3175   3.165   4.336   4.933  0.1738  0.3782 -0.6058
   27CHL1  H27A 3176   3.096   4.362   4.850 -1.2217  0.4352  0.5270
   27CHL1  H27B 3177   3.245   4.271   4.892 -1.1563 -0.2026 -2.4071
   27CHL1  H27C 3178   3.210   4.430   4.971 -0.9847  1.1752 -1.1431
   28CHL1    C3 3179   0.654   3.426   6.262 -0.6951  0.4676  0.0154
   28CHL1    H3 3180   0.744   3.371   6.299 -1.7860  0.0889  2.2277
   28CHL1    O3 3181   0.579   3.462   6.373 -0.6651 -0.0679  0.4552
   28CHL1   H3' 3182   0.521   3.387   6.392 -3.2997  2.1359  1.7838
   28CHL1    C4 3183   0.701   3.555   6.183 -0.1963 -0.3311  0.9647
   28CHL1   H4A 3184   0.608   3.616   6.179  0.1475  0.2409  1.4609
   28CHL1   H4B 3185   0.771   3.612   6.248  2.3989 -3.0737  0.7764
   28CHL1    C5 3186   0.768   3.522   6.051 -0.4015 -0.3167 -0.6643
   28CHL1    C6 3187   0.883   3.571   6.017 -0.1949 -0.3423  0.1223
   28CHL1    H6 3188   0.934   3.637   6.088 -2.0358 -0.0605  1.2462
   28CHL1    C7 3189   0.950   3.536   5.888  0.0810 -0.7980 -0.0977
   28CHL1   H7A 3190   0.990   3.627   5.838  1.4102 -1.1194  0.3381
   28CHL1   H7B 3191   1.026   3.457   5.905 -0.0114 -0.6973  0.8447
   28CHL1    C8 3192   0.843   3.488   5.782  0.7997  0.3752  0.3693
   28CHL1    H8 3193   0.769   3.564   5.749  1.2266  0.4184 -0.5087
   28CHL1   C14 3194   0.913   3.442   5.655  0.2045 -0.0341  0.2199
   28CHL1   H14 3195   0.985   3.361   5.680  1.6687  0.6627 -1.5393
   28CHL1   C15 3196   1.007   3.541   5.578  0.1339 -0.7380  0.0972
   28CHL1  H15A 3197   0.961   3.641   5.562 -0.3637 -1.2215 -1.7524
   28CHL1  H15B 3198   1.106   3.564   5.623 -1.2404  4.0927  1.2928
   28CHL1   C16 3199   1.023   3.478   5.434 -0.3271 -0.4764 -0.6263
   28CHL1  H16A 3200   0.993   3.549   5.354  1.2069 -0.2213 -0.9922
   28CHL1  H16B 3201   1.132   3.460   5.428  0.8030  4.5677  0.0507
   28CHL1   C17 3202   0.935   3.350   5.444  0.0116  0.6480  0.0729
   28CHL1   H17 3203   1.001   3.276   5.494 -0.3301  0.4649  0.2612
   28CHL1   C13 3204   0.827   3.379   5.545 -0.1031  0.2828  0.3840
   28CHL1   C18 3205   0.725   3.477   5.491  0.0397  0.6915  0.2789
   28CHL1  H18A 3206   0.772   3.555   5.426  1.6544 -1.4760 -1.2959
   28CHL1  H18B 3207   0.658   3.425   5.419  0.5836 -1.8958  1.5408
   28CHL1  H18C 3208   0.675   3.537   5.570  1.3891  0.2885  1.4740
   28CHL1   C12 3209   0.750   3.265   5.606 -0.2631 -1.0323 -0.1909
   28CHL1  H12A 3210   0.681   3.222   5.530 -0.4188 -2.7575  0.8851
   28CHL1  H12B 3211   0.823   3.186   5.635  1.1984 -1.4820 -4.3176
   28CHL1   C11 3212   0.667   3.310   5.736 -0.9660 -1.2291 -0.0765
   28CHL1  H11A 3213   0.587   3.374   5.694 -2.1551 -0.2543  3.2732
   28CHL1  H11B 3214   0.617   3.221   5.780  0.8007 -1.4163  1.7057
   28CHL1    C9 3215   0.751   3.373   5.842 -0.4326 -1.0914 -0.1457
   28CHL1    H9 3216   0.821   3.293   5.877 -1.1441 -2.7856 -2.3417
   28CHL1   C10 3217   0.679   3.421   5.971 -0.2092  0.6853  0.2541
   28CHL1   C19 3218   0.542   3.497   5.923  0.6836  0.7505  0.1217
   28CHL1  H19A 3219   0.474   3.443   5.853 -0.1440 -1.0104  2.1879
   28CHL1  H19B 3220   0.494   3.541   6.013  0.6146  0.1686  0.3688
   28CHL1  H19C 3221   0.581   3.584   5.865  0.8351 -0.0060 -0.9522
   28CHL1    C1 3222   0.647   3.298   6.061  0.2371 -0.6922  0.2214
   28CHL1   H1A 3223   0.594   3.231   5.990  1.2514 -0.3286 -0.9051
   28CHL1   H1B 3224   0.744   3.247   6.076  1.6404  1.8058  0.1589
   28CHL1    C2 3225   0.565   3.331   6.181  0.1621  0.8667 -0.1077
   28CHL1   H2A 3226   0.529   3.237   6.229 -1.7176  1.8322  0.4681
   28CHL1   H2B 3227   0.474   3.388   6.154 -0.4908  0.3548  0.9386
   28CHL1   C20 3228   0.884   3.291   5.311 -0.2361 -0.3588  0.1049
   28CHL1   H20 3229   0.779   3.323   5.294 -0.2101 -1.4397 -2.6112
   28CHL1   C21 3230   0.884   3.131   5.328 -0.7259  0.4665 -0.0930
   28CHL1  H21A 3231   0.990   3.099   5.322 -0.5883  1.1094 -1.8108
   28CHL1  H21B 3232   0.818   3.098   5.245  0.7645 -0.9832 -0.7589
   28CHL1  H21C 3233   0.841   3.101   5.426 -1.6681 -0.0205 -0.6437
   28CHL1   C22 3234   0.970   3.337   5.190  0.0975  0.1256 -0.5800
   28CHL1  H22A 3235   0.965   3.448   5.179  0.6519  0.0645 -1.7091
   28CHL1  H22B 3236   1.078   3.318   5.210 -0.4043  0.6758  3.3113
   28CHL1   C23 3237   0.930   3.273   5.053 -0.2141  0.2504 -0.0567
   28CHL1  H23A 3238   0.964   3.167   5.062 -2.5718 -0.4517  1.4897
   28CHL1  H23B 3239   0.820   3.260   5.052 -0.1177 -1.0549  1.6750
   28CHL1   C24 3240   0.971   3.346   4.924 -0.4446  0.0013  0.4436
   28CHL1  H24A 3241   0.924   3.288   4.841 -0.2173  0.3579  0.0649
   28CHL1  H24B 3242   0.928   3.449   4.924 -2.5793 -0.8253  0.6184
   28CHL1   C25 3243   1.120   3.335   4.891 -0.2457  0.3566  0.4298
   28CHL1   H25 3244   1.181   3.391   4.965 -1.6685  0.6316  1.4365
   28CHL1   C26 3245   1.175   3.193   4.891 -0.2096  0.2997 -0.7523
   28CHL1  H26A 3246   1.111   3.124   4.833  0.0779 -1.3382  0.7744
   28CHL1  H26B 3247   1.280   3.188   4.854  1.2158  2.7808  2.5021
   28CHL1  H26C 3248   1.174   3.162   4.998  0.0289  2.2303 -0.1575
   28CHL1   C27 3249   1.150   3.392   4.752  0.3097  0.4934 -0.1012
   28CHL1  H27A 3250   1.097   3.329   4.677 -0.7462  1.8259 -0.5235
   28CHL1  H27B 3251   1.121   3.500   4.750 -2.0954 -0.0358  1.5562
   28CHL1  H27C 3252   1.257   3.384   4.725  0.4478 -1.9734  0.9726
   29CHL1    C3 3253   2.582   6.141   6.519 -0.0278  0.0064  0.1516
   29CHL1    H3 3254   2.517   6.228   6.497 -1.7176 -1.1503  0.3965
   29CHL1    O3 3255   2.587   6.134   6.660 -0.5053 -0.0114  0.2649
   29CHL1   H3' 3256   2.652   6.066   6.679 -0.1737  0.0448 -0.5923
   29CHL1    C4 3257   2.520   6.015   6.457 -0.6327  0.5647  0.5391
   29CHL1   H4A 3258   2.585   5.928   6.484  1.9880  2.8217  2.0009
   29CHL1   H4B 3259   2.418   6.003   6.500 -1.3092 -0.3467 -1.2140
   29CHL1    C5 3260   2.514   6.015   6.304 -0.1405  0.6809  0.8082
   29CHL1    C6 3261   2.394   6.007   6.243 -0.0794 -0.6455  0.0067
   29CHL1    H6 3262   2.301   5.988   6.298 -0.9867  1.1803 -0.8275
   29CHL1    C7 3263   2.387   6.022   6.089  0.1399  0.5257  0.1336
   29CHL1   H7A 3264   2.316   5.947   6.049  1.1511 -0.6811  0.5201
   29CHL1   H7B 3265   2.351   6.121   6.055  1.2374 -0.1002 -3.1548
   29CHL1    C8 3266   2.522   6.003   6.010 -0.0894 -0.3238 -0.5346
   29CHL1    H8 3267   2.545   5.895   5.996  0.0638 -0.1242 -1.9333
   29CHL1   C14 3268   2.520   6.053   5.871 -0.1693 -0.8878 -0.3179
   29CHL1   H14 3269   2.492   6.161   5.880  1.0850 -0.0931 -3.9700
   29CHL1   C15 3270   2.425   5.988   5.776  0.4224  0.5068  0.6585
   29CHL1  H15A 3271   2.424   5.880   5.800 -0.0333 -0.1479 -2.0120
   29CHL1  H15B 3272   2.325   6.035   5.788 -0.8293 -0.2731 -4.5726
   29CHL1   C16 3273   2.475   6.015   5.636 -0.6678 -0.0367  0.9038
   29CHL1  H16A 3274   2.503   5.923   5.580  1.3067  1.6286 -1.0462
   29CHL1  H16B 3275   2.417   6.076   5.563 -0.5456  0.9204  1.5805
   29CHL1   C17 3276   2.608   6.093   5.657 -0.3423 -0.0833 -0.1618
   29CHL1   H17 3277   2.594   6.203   5.657 -0.8106 -0.1276 -1.1376
   29CHL1   C13 3278   2.658   6.055   5.794  0.3512  0.6298  0.7742
   29CHL1   C18 3279   2.716   5.915   5.798  0.3289  0.0434 -0.8435
   29CHL1  H18A 3280   2.658   5.846   5.733  1.3794 -3.1278  1.3125
   29CHL1  H18B 3281   2.819   5.922   5.755  1.3282 -1.6295  1.1159
   29CHL1  H18C 3282   2.719   5.870   5.899  0.5562  1.4896 -0.1799
   29CHL1   C12 3283   2.754   6.150   5.861  0.2079 -0.6840  0.5244
   29CHL1  H12A 3284   2.858   6.149   5.821 -0.4326 -2.6677 -1.2781
   29CHL1  H12B 3285   2.708   6.252   5.863 -0.4456 -0.9792  1.8260
   29CHL1   C11 3286   2.763   6.104   6.006 -0.4099 -0.0068 -0.2310
   29CHL1  H11A 3287   2.834   6.019   6.015 -2.1291 -1.5334 -0.3505
   29CHL1  H11B 3288   2.818   6.191   6.048 -1.2711  0.3571  0.1770
   29CHL1    C9 3289   2.631   6.087   6.085 -0.5592  0.2450 -0.1450
   29CHL1    H9 3290   2.583   6.188   6.086  0.3140  0.6719  1.1030
   29CHL1   C10 3291   2.651   6.049   6.229 -0.4492 -0.0427 -0.0153
   29CHL1   C19 3292   2.736   5.915   6.244 -0.3752 -0.7118 -0.1641
   29CHL1  H19A 3293   2.754   5.882   6.349 -0.5272  0.4785  0.2527
   29CHL1  H19B 3294   2.688   5.834   6.184 -1.1671  0.4131 -1.0801
   29CHL1  H19C 3295   2.839   5.929   6.206 -0.2564 -0.3950  0.2702
   29CHL1    C1 3296   2.714   6.169   6.304  0.1625 -0.3448 -0.4198
   29CHL1   H1A 3297   2.818   6.189   6.271  0.3318  0.8357  0.7497
   29CHL1   H1B 3298   2.663   6.262   6.271  1.9257  2.1755  3.2603
   29CHL1    C2 3299   2.719   6.172   6.460  0.6028 -0.1112 -0.1315
   29CHL1   H2A 3300   2.751   6.271   6.498  1.3555 -0.1201 -0.7026
   29CHL1   H2B 3301   2.791   6.091   6.485  1.0685 -0.3250 -1.9812
   29CHL1   C20 3302   2.699   6.074   5.531 -0.7579 -0.4962  0.1898
   29CHL1   H20 3303   2.713   5.966   5.513 -2.5784 -0.8080  0.4832
   29CHL1   C21 3304   2.841   6.132   5.558 -0.1398 -0.5019 -0.0699
   29CHL1  H21A 3305   2.899   6.062   5.622  1.0084  1.2001  0.8445
   29CHL1  H21B 3306   2.842   6.231   5.609 -0.1083 -1.7314  2.4225
   29CHL1  H21C 3307   2.894   6.145   5.461  2.4088  1.8234  1.4575
   29CHL1   C22 3308   2.636   6.138   5.408  0.1854  0.5136  0.2779
   29CHL1  H22A 3309   2.526   6.129   5.403  0.3223 -1.7672  0.4198
   29CHL1  H22B 3310   2.661   6.246   5.399  2.3332  0.1213  0.9456
   29CHL1   C23 3311   2.677   6.068   5.275  0.4732  0.0561 -0.2124
   29CHL1  H23A 3312   2.783   6.034   5.277  0.1229 -1.0345  0.4022
   29CHL1  H23B 3313   2.613   5.977   5.268 -1.7134  1.4763  0.3641
   29CHL1   C24 3314   2.652   6.167   5.160 -0.9673  0.5558  0.9517
   29CHL1  H24A 3315   2.558   6.219   5.188 -0.3295  1.2205  1.9020
   29CHL1  H24B 3316   2.734   6.242   5.156  0.2327 -0.7470 -0.0268
   29CHL1   C25 3317   2.658   6.112   5.008  0.0681 -0.2113 -0.5565
   29CHL1   H25 3318   2.580   6.033   5.007  0.1068 -0.2458 -0.8316
   29CHL1   C26 3319   2.612   6.226   4.903 -0.0867  0.8989 -0.0886
   29CHL1  H26A 3320   2.507   6.253   4.927 -0.8278  1.2800 -3.2631
   29CHL1  H26B 3321   2.676   6.315   4.921 -1.2637  2.0313 -1.2144
   29CHL1  H26C 3322   2.623   6.174   4.806  2.3347 -0.0942  0.6561
   29CHL1   C27 3323   2.796   6.051   4.973 -0.3945  0.1073  0.4710
   29CHL1  H27A 3324   2.804   6.005   4.872  1.7101  0.7309  0.3018
   29CHL1  H27B 3325   2.863   6.139   4.961  1.1397 -0.9236  1.0315
   29CHL1  H27C 3326   2.828   5.981   5.054  0.4629  3.1113  2.9341
   30CHL1    C3 3327   5.269   5.458   6.508 -0.1462 -0.3381 -0.0752
   30CHL1    H3 3328   5.377   5.433   6.515  0.0945  0.3383 -1.1179
   30CHL1    O3 3329   5.216   5.501   6.637  0.3609 -0.3444  0.5491
   30CHL1   H3' 3330   5.121   5.496   6.623  0.1076  2.2869  0.7189
   30CHL1    C4 3331   5.256   5.576   6.411  0.1867  1.3845  0.5057
   30CHL1   H4A 3332   5.153   5.617   6.403  0.0581  0.7140 -2.7480
   30CHL1   H4B 3333   5.317   5.661   6.449  2.8016  0.0261 -0.4145
   30CHL1    C5 3334   5.301   5.538   6.272  0.1053 -0.8726 -0.0236
   30CHL1    C6 3335   5.396   5.613   6.213 -0.3777 -0.6119 -0.0559
   30CHL1    H6 3336   5.446   5.694   6.268 -0.1701 -0.3612 -0.6051
   30CHL1    C7 3337   5.435   5.598   6.068 -0.1760 -0.4090  0.3209
   30CHL1   H7A 3338   5.413   5.689   6.008 -2.4640  0.1651  1.9062
   30CHL1   H7B 3339   5.541   5.568   6.050 -0.5812 -2.0571  0.4985
   30CHL1    C8 3340   5.342   5.491   5.998 -0.4362 -0.5196  0.2504
   30CHL1    H8 3341   5.244   5.541   5.980 -0.4012 -0.5883 -0.1482
   30CHL1   C14 3342   5.400   5.441   5.867 -0.7131  0.6972 -0.6235
   30CHL1   H14 3343   5.494   5.387   5.890 -0.6116  1.5651  1.2274
   30CHL1   C15 3344   5.436   5.553   5.766  0.8662  0.1967 -1.1822
   30CHL1  H15A 3345   5.354   5.628   5.764  0.8863  0.2033 -2.4547
   30CHL1  H15B 3346   5.539   5.593   5.781  0.0486  2.1649 -0.4331
   30CHL1   C16 3347   5.421   5.481   5.631  0.5661 -0.0798  0.3414
   30CHL1  H16A 3348   5.346   5.537   5.571 -0.2424 -0.8170  0.6405
   30CHL1  H16B 3349   5.521   5.490   5.584  1.3650  3.8256  2.4014
   30CHL1   C17 3350   5.379   5.337   5.661  0.3703  0.2178 -0.3567
   30CHL1   H17 3351   5.469   5.272   5.668 -1.3895 -2.4919 -1.6685
   30CHL1   C13 3352   5.311   5.338   5.801  0.1195 -0.2538 -0.6887
   30CHL1   C18 3353   5.172   5.403   5.773  0.3751  0.2838  0.0110
   30CHL1  H18A 3354   5.102   5.337   5.718 -1.4078  2.7000 -0.8046
   30CHL1  H18B 3355   5.112   5.429   5.863 -0.2406  1.6898 -0.7690
   30CHL1  H18C 3356   5.174   5.501   5.721 -0.4162  0.4594  0.2911
   30CHL1   C12 3357   5.302   5.213   5.892  0.9267 -0.2307 -0.0613
   30CHL1  H12A 3358   5.218   5.154   5.849 -1.5921  2.0390  1.4605
   30CHL1  H12B 3359   5.394   5.151   5.887 -1.0037 -3.2638 -1.1080
   30CHL1   C11 3360   5.248   5.243   6.027  0.3138 -0.4765 -0.1041
   30CHL1  H11A 3361   5.139   5.239   6.008  0.4487 -0.8453 -0.8451
   30CHL1  H11B 3362   5.265   5.155   6.093  0.7334  0.5433  1.2126
   30CHL1    C9 3363   5.311   5.372   6.093 -0.6180 -0.4478 -0.0080
   30CHL1    H9 3364   5.412   5.342   6.130 -0.8538  1.0058  1.9559
   30CHL1   C10 3365   5.234   5.412   6.220 -0.1598 -0.0961  0.3378
   30CHL1   C19 3366   5.094   5.458   6.190  0.6898 -0.1296 -0.0391
   30CHL1  H19A 3367   5.036   5.473   6.283  2.4907 -1.1791  1.3129
   30CHL1  H19B 3368   5.089   5.557   6.140 -2.8247 -0.2634 -0.1896
   30CHL1  H19C 3369   5.042   5.397   6.112 -3.3321  2.1233  0.5810
   30CHL1    C1 3370   5.244   5.298   6.324  0.2039  0.0727  0.0831
   30CHL1   H1A 3371   5.183   5.216   6.280  0.8731 -0.9030  0.9210
   30CHL1   H1B 3372   5.349   5.262   6.322 -0.0529 -0.7287  0.3795
   30CHL1    C2 3373   5.190   5.345   6.462  0.1371  1.2593 -0.7238
   30CHL1   H2A 3374   5.194   5.251   6.522 -0.5589  1.3548 -0.5128
   30CHL1   H2B 3375   5.080   5.363   6.458 -0.2098 -0.2572  0.7413
   30CHL1   C20 3376   5.302   5.267   5.546  0.6298  0.0219 -0.2552
   30CHL1   H20 3377   5.197   5.302   5.537  0.6523  0.5676  1.2964
   30CHL1   C21 3378   5.290   5.113   5.569  0.1376  0.1243 -0.4708
   30CHL1  H21A 3379   5.386   5.062   5.594  0.9538  1.2974 -1.0856
   30CHL1  H21B 3380   5.240   5.059   5.486 -0.7137  1.8852 -1.1583
   30CHL1  H21C 3381   5.228   5.087   5.656 -0.0471 -0.3662 -0.7489
   30CHL1   C22 3382   5.366   5.286   5.405 -0.3768  0.0501 -0.1505
   30CHL1  H22A 3383   5.355   5.392   5.373  1.6667  0.3533  0.0080
   30CHL1  H22B 3384   5.473   5.255   5.409 -0.5414 -0.5059 -0.0502
   30CHL1   C23 3385   5.316   5.194   5.285  0.3172  0.1209 -0.1616
   30CHL1  H23A 3386   5.341   5.087   5.299 -2.5979 -0.6606 -0.2503
   30CHL1  H23B 3387   5.206   5.206   5.275  0.0442 -1.6939  0.2276
   30CHL1   C24 3388   5.386   5.244   5.154 -0.0265 -0.2792 -0.1085
   30CHL1  H24A 3389   5.366   5.353   5.145 -0.1186 -0.3697 -1.2098
   30CHL1  H24B 3390   5.494   5.224   5.165 -0.0179  0.0111  0.3711
   30CHL1   C25 3391   5.341   5.175   5.021  0.8977  0.7607  1.5785
   30CHL1   H25 3392   5.241   5.218   4.999  1.5835  1.7225  0.1646
   30CHL1   C26 3393   5.427   5.204   4.901  0.1269 -0.4467 -0.2472
   30CHL1  H26A 3394   5.522   5.147   4.911  1.3699  1.6251  0.5482
   30CHL1  H26B 3395   5.370   5.182   4.809 -0.4430 -1.9096  0.4179
   30CHL1  H26C 3396   5.456   5.311   4.903  3.3855 -1.1524 -2.2405
   30CHL1   C27 3397   5.320   5.027   5.030  0.2700 -0.1472  0.1538
   30CHL1  H27A 3398   5.415   4.973   5.051  1.8356  1.6313 -1.8015
   30CHL1  H27B 3399   5.249   5.014   5.114  1.5176  0.3822  1.3245
   30CHL1  H27C 3400   5.275   4.978   4.941  0.2425  2.1628 -1.1757
   31CHL1    C3 3401   0.999   0.300   6.164 -0.3197 -1.0961 -0.1826
   31CHL1    H3 3402   1.067   0.384   6.189  0.6859 -1.1397 -2.5240
   31CHL1    O3 3403   0.943   0.231   6.272  0.2628  0.5045 -0.1347
   31CHL1   H3' 3404   1.018   0.175   6.292  0.1548  0.8189  1.2734
   31CHL1    C4 3405   0.886   0.382   6.094 -0.7800 -0.0208 -0.1053
   31CHL1   H4A 3406   0.794   0.322   6.078 -1.1774  0.5810 -0.1060
   31CHL1   H4B 3407   0.854   0.455   6.172 -1.1175 -1.2368  0.9199
   31CHL1    C5 3408   0.940   0.442   5.963  0.4064  0.7798 -0.2987
   31CHL1    C6 3409   0.929   0.573   5.936 -0.3526  0.0308  0.2269
   31CHL1    H6 3410   0.886   0.654   5.997 -0.2173  2.1306 -2.2709
   31CHL1    C7 3411   0.971   0.631   5.805 -0.6549 -0.2636  0.3186
   31CHL1   H7A 3412   0.888   0.698   5.772 -0.9140 -1.4330 -1.5704
   31CHL1   H7B 3413   1.061   0.694   5.823 -0.9407  0.1122  0.4465
   31CHL1    C8 3414   0.992   0.536   5.685  0.2805 -0.3403 -0.6805
   31CHL1    H8 3415   0.891   0.497   5.660 -0.5648  0.7836  0.8141
   31CHL1   C14 3416   1.071   0.600   5.574 -0.2149 -0.0516  0.0898
   31CHL1   H14 3417   1.164   0.632   5.626 -0.5342  0.1106  0.5687
   31CHL1   C15 3418   1.007   0.733   5.511  0.4020 -0.0913  0.8235
   31CHL1  H15A 3419   0.899   0.739   5.486  0.6025  0.7547  0.1140
   31CHL1  H15B 3420   1.032   0.818   5.577 -1.1718  0.5852  0.6000
   31CHL1   C16 3421   1.089   0.737   5.378  0.7033 -0.3976  0.8850
   31CHL1  H16A 3422   1.019   0.749   5.292  0.0678 -0.0726  1.4388
   31CHL1  H16B 3423   1.164   0.818   5.384  0.6012 -0.4007  2.5481
   31CHL1   C17 3424   1.176   0.607   5.363  0.0702 -0.0025 -0.1907
   31CHL1   H17 3425   1.274   0.619   5.414  1.5162  2.5984 -3.2691
   31CHL1   C13 3426   1.099   0.504   5.459 -0.1413 -0.0297 -0.5606
   31CHL1   C18 3427   0.974   0.452   5.390 -0.8272  0.0495  0.1655
   31CHL1  H18A 3428   0.906   0.391   5.454 -0.1309  0.6135  1.4810
   31CHL1  H18B 3429   0.908   0.528   5.343 -1.6155 -0.1235  0.9750
   31CHL1  H18C 3430   1.010   0.382   5.311  1.8987  0.2196  1.1585
   31CHL1   C12 3431   1.181   0.384   5.511 -0.3939  0.4930  1.0190
   31CHL1  H12A 3432   1.204   0.312   5.430 -0.8015 -0.3230  1.6096
   31CHL1  H12B 3433   1.274   0.431   5.550 -0.4315  1.0749  0.4155
   31CHL1   C11 3434   1.111   0.318   5.627 -0.4009  0.4552  0.0919
   31CHL1  H11A 3435   1.033   0.251   5.585  0.1768  0.7629 -1.5296
   31CHL1  H11B 3436   1.190   0.250   5.667  1.0900  1.3146 -1.2717
   31CHL1    C9 3437   1.067   0.408   5.741  0.0420 -0.4293  0.1949
   31CHL1    H9 3438   1.161   0.454   5.779 -0.8287  0.4168  1.4165
   31CHL1   C10 3439   1.002   0.341   5.858 -0.3131  0.3596 -0.3990
   31CHL1   C19 3440   0.893   0.243   5.802  0.3714 -0.6793  0.4734
   31CHL1  H19A 3441   0.941   0.154   5.755 -1.0531 -1.3485  0.2315
   31CHL1  H19B 3442   0.824   0.214   5.883  0.2744 -1.0544  0.2572
   31CHL1  H19C 3443   0.826   0.304   5.738  1.9869  2.1196  1.2791
   31CHL1    C1 3444   1.112   0.267   5.935 -0.6082 -0.6502  0.0820
   31CHL1   H1A 3445   1.149   0.185   5.870 -2.3564  0.3794 -2.3897
   31CHL1   H1B 3446   1.190   0.343   5.954 -0.1391 -0.5085 -2.1524
   31CHL1    C2 3447   1.064   0.198   6.067 -0.2872 -0.6136 -0.2946
   31CHL1   H2A 3448   1.152   0.148   6.112  0.0572 -1.1599 -1.5172
   31CHL1   H2B 3449   0.986   0.123   6.045 -1.6041  0.8752 -0.9023
   31CHL1   C20 3450   1.207   0.573   5.212  0.1404  0.0382  0.4827
   31CHL1   H20 3451   1.112   0.543   5.163  0.6219 -0.7502 -0.0043
   31CHL1   C21 3452   1.301   0.453   5.202 -0.1982 -0.3188  0.3591
   31CHL1  H21A 3453   1.386   0.461   5.273  2.1161 -2.3661 -1.9528
   31CHL1  H21B 3454   1.356   0.449   5.105 -0.8153 -1.2006  0.0324
   31CHL1  H21C 3455   1.250   0.356   5.223 -1.4935  0.2994  0.1335
   31CHL1   C22 3456   1.256   0.694   5.137 -0.0163 -0.1532  0.9107
   31CHL1  H22A 3457   1.211   0.794   5.157  0.2600  0.3490 -0.8129
   31CHL1  H22B 3458   1.360   0.723   5.164  0.2736  0.9314 -1.1514
   31CHL1   C23 3459   1.256   0.675   4.975  0.0600  0.7271 -0.6061
   31CHL1  H23A 3460   1.320   0.585   4.958 -1.8354 -0.2504 -3.2142
   31CHL1  H23B 3461   1.149   0.650   4.959 -0.1524  1.5524 -0.4933
   31CHL1   C24 3462   1.294   0.806   4.901 -0.2648 -0.8270 -0.3185
   31CHL1  H24A 3463   1.227   0.890   4.928  1.1202  0.6224 -1.2979
   31CHL1  H24B 3464   1.399   0.828   4.929 -0.3928 -0.2815 -0.2698
   31CHL1   C25 3465   1.293   0.811   4.749  0.1209 -0.1850  0.2697
   31CHL1   H25 3466   1.360   0.727   4.720 -1.7809 -0.9878 -2.1351
   31CHL1   C26 3467   1.159   0.799   4.681  0.1745  0.4638 -0.1734
   31CHL1  H26A 3468   1.155   0.786   4.571  0.4426  1.5463 -0.3234
   31CHL1  H26B 3469   1.106   0.713   4.728  1.9669 -0.8039 -0.3567
   31CHL1  H26C 3470   1.097   0.886   4.711 -0.7069 -0.7658  1.8056
   31CHL1   C27 3471   1.374   0.936   4.691  0.5219  0.7299 -0.1823
   31CHL1  H27A 3472   1.308   1.026   4.693 -0.3061  0.1238  0.6502
   31CHL1  H27B 3473   1.458   0.942   4.764 -1.0258 -0.3711  1.7913
   31CHL1  H27C 3474   1.412   0.923   4.588 -0.2923 -0.6683 -0.3261
   32CHL1    C3 3475   6.040   4.443   6.089 -0.7273 -0.1526 -0.1784
   32CHL1    H3 3476   6.131   4.386   6.060 -1.7590 -1.5417 -0.8003
   32CHL1    O3 3477   6.056   4.503   6.213  0.5588  0.5370  0.4864
   32CHL1   H3' 3478   6.007   4.586   6.214  0.9060  0.7486  2.1199
   32CHL1    C4 3479   6.022   4.551   5.979 -0.3787  0.1014 -0.2101
   32CHL1   H4A 3480   5.926   4.600   6.006 -0.7106 -1.1531  1.0306
   32CHL1   H4B 3481   6.097   4.633   5.981 -0.1345 -0.1328  1.1779
   32CHL1    C5 3482   6.007   4.490   5.848 -0.4084  0.1922 -0.2862
   32CHL1    C6 3483   6.084   4.519   5.739  0.5885  0.0504 -0.0811
   32CHL1    H6 3484   6.173   4.584   5.748 -0.5062  1.3458  2.6753
   32CHL1    C7 3485   6.045   4.486   5.598  1.0623  0.0317 -0.3807
   32CHL1   H7A 3486   6.054   4.574   5.531  1.1061  1.4807  1.4335
   32CHL1   H7B 3487   6.119   4.412   5.562  2.3908  0.3535  1.5102
   32CHL1    C8 3488   5.909   4.414   5.591 -1.0323 -0.3044  0.2090
   32CHL1    H8 3489   5.833   4.492   5.611 -2.1944 -1.5124  0.6917
   32CHL1   C14 3490   5.898   4.349   5.452  0.3129  0.4940  0.2152
   32CHL1   H14 3491   5.990   4.286   5.449  1.1073  1.6406 -0.0862
   32CHL1   C15 3492   5.907   4.436   5.325 -0.5858  0.1520 -0.2367
   32CHL1  H15A 3493   5.828   4.513   5.340 -1.8754 -1.2284  0.2912
   32CHL1  H15B 3494   6.012   4.471   5.320 -0.5446  0.0001 -0.4642
   32CHL1   C16 3495   5.855   4.356   5.210 -0.6120 -0.7222  0.2028
   32CHL1  H16A 3496   5.777   4.411   5.152  1.1078  2.1672  0.4203
   32CHL1  H16B 3497   5.938   4.336   5.138 -1.5449  0.4034 -1.2526
   32CHL1   C17 3498   5.816   4.222   5.273 -0.7968 -0.5764 -0.4751
   32CHL1   H17 3499   5.906   4.156   5.281  0.8209  1.5066 -0.6442
   32CHL1   C13 3500   5.778   4.267   5.426 -0.6614  1.0045 -0.0878
   32CHL1   C18 3501   5.646   4.341   5.439  0.7738  0.0231  0.1449
   32CHL1  H18A 3502   5.620   4.400   5.529  1.5228 -0.5955  0.7777
   32CHL1  H18B 3503   5.632   4.399   5.345  0.4168 -1.1899 -0.5697
   32CHL1  H18C 3504   5.564   4.266   5.443  0.5784  0.1951 -0.4782
   32CHL1   C12 3505   5.772   4.152   5.532 -0.2872  0.0552  0.6073
   32CHL1  H12A 3506   5.685   4.085   5.515  0.2804 -0.1692 -1.8151
   32CHL1  H12B 3507   5.864   4.091   5.517 -1.2469 -1.1245 -0.7364
   32CHL1   C11 3508   5.779   4.208   5.677  0.1175 -0.0597 -0.3403
   32CHL1  H11A 3509   5.679   4.250   5.700 -0.0705 -0.4877 -0.3701
   32CHL1  H11B 3510   5.788   4.125   5.749  0.4465  0.8813  0.7275
   32CHL1    C9 3511   5.891   4.309   5.701 -0.6582  0.7326 -0.1435
   32CHL1    H9 3512   5.983   4.246   5.698 -0.5156  0.9629 -2.2506
   32CHL1   C10 3513   5.886   4.385   5.837  0.0525 -0.2546  0.1750
   32CHL1   C19 3514   5.747   4.461   5.859  0.2679  0.7522  0.7328
   32CHL1  H19A 3515   5.748   4.537   5.940  0.8805  1.1038  0.4066
   32CHL1  H19B 3516   5.711   4.496   5.759 -0.5431 -0.2651  0.6532
   32CHL1  H19C 3517   5.682   4.374   5.881  1.4668 -0.1994  0.6139
   32CHL1    C1 3518   5.905   4.276   5.953 -0.2389 -0.4537 -1.0397
   32CHL1   H1A 3519   5.820   4.206   5.941  0.1846 -1.4471  1.2249
   32CHL1   H1B 3520   6.000   4.224   5.930  0.5233  0.8582 -1.0109
   32CHL1    C2 3521   5.921   4.343   6.093  0.3209  0.1188  0.3251
   32CHL1   H2A 3522   5.937   4.255   6.160 -2.1965 -2.3870 -2.0981
   32CHL1   H2B 3523   5.829   4.393   6.130  0.3972  1.4533 -1.1835
   32CHL1   C20 3524   5.713   4.137   5.203 -0.6624 -0.9157 -0.7782
   32CHL1   H20 3525   5.618   4.172   5.248  0.8888  0.6632  1.4681
   32CHL1   C21 3526   5.719   3.992   5.240  0.0373 -0.4296  0.7060
   32CHL1  H21A 3527   5.813   3.935   5.224  0.6417  1.0010 -1.1568
   32CHL1  H21B 3528   5.644   3.922   5.197  2.3302 -2.9267  0.4946
   32CHL1  H21C 3529   5.684   3.987   5.346  0.1368  1.5767  0.8552
   32CHL1   C22 3530   5.711   4.153   5.048  0.4004  0.2803 -0.0850
   32CHL1  H22A 3531   5.633   4.079   5.019  0.0973  1.4056 -2.3863
   32CHL1  H22B 3532   5.670   4.248   5.007  2.1806  0.2410 -2.1151
   32CHL1   C23 3533   5.831   4.115   4.962 -0.0136 -0.0232  1.2427
   32CHL1  H23A 3534   5.919   4.174   4.995  1.4110 -0.6575 -1.1936
   32CHL1  H23B 3535   5.861   4.010   4.984 -0.5483  0.0405  2.3819
   32CHL1   C24 3536   5.812   4.132   4.806  0.1436 -0.9258 -0.4474
   32CHL1  H24A 3537   5.722   4.073   4.780  1.3996 -2.6119 -1.2111
   32CHL1  H24B 3538   5.803   4.238   4.775  2.5560 -0.1055  1.3062
   32CHL1   C25 3539   5.923   4.080   4.711  0.3641 -1.0812  0.3167
   32CHL1   H25 3540   6.021   4.113   4.752 -0.3543  1.0170  0.4748
   32CHL1   C26 3541   5.933   3.929   4.693 -1.0396 -0.6021  0.1006
   32CHL1  H26A 3542   5.842   3.882   4.652  0.3113 -1.5632 -1.9380
   32CHL1  H26B 3543   6.018   3.898   4.629 -2.3471  2.6015 -3.5992
   32CHL1  H26C 3544   5.952   3.882   4.792  1.2371 -0.0647 -0.0284
   32CHL1   C27 3545   5.905   4.139   4.566  0.2657  0.1913 -0.6233
   32CHL1  H27A 3546   5.951   4.240   4.561 -1.5902  1.1458  0.6183
   32CHL1  H27B 3547   5.960   4.072   4.497 -0.5228 -1.0338 -0.1004
   32CHL1  H27C 3548   5.796   4.152   4.550 -0.5681  0.4133  3.8337
   33CHL1    C3 3549   2.189   4.791   6.450  0.5597  0.4534  0.3971
   33CHL1    H3 3550   2.239   4.890   6.445  0.1868  0.5820 -1.2747
   33CHL1    O3 3551   2.180   4.751   6.582  0.5191  0.3365  0.3728
   33CHL1   H3' 3552   2.188   4.655   6.575 -0.3726  0.2228  0.7266
   33CHL1    C4 3553   2.050   4.792   6.389 -0.1193 -0.0550 -0.6304
   33CHL1   H4A 3554   2.006   4.694   6.417 -1.6452  0.6402 -0.5302
   33CHL1   H4B 3555   1.991   4.868   6.445 -1.8378 -1.5423 -0.3375
   33CHL1    C5 3556   2.043   4.813   6.240 -0.2159  0.4102  0.2190
   33CHL1    C6 3557   1.981   4.916   6.182 -0.7486  0.1177  0.5510
   33CHL1    H6 3558   1.923   4.979   6.250  0.0996  1.6769 -0.1186
   33CHL1    C7 3559   1.964   4.945   6.035 -0.6329  0.2593 -0.2483
   33CHL1   H7A 3560   1.854   4.963   6.032 -0.8100 -0.2610  1.8211
   33CHL1   H7B 3561   2.009   5.043   6.008  0.1073  0.4852  1.6831
   33CHL1    C8 3562   2.020   4.825   5.954  0.4839 -0.3278 -0.4943
   33CHL1    H8 3563   1.935   4.753   5.956 -2.1499  2.5498 -0.7262
   33CHL1   C14 3564   2.048   4.875   5.813  0.1147  0.3062 -0.3079
   33CHL1   H14 3565   2.138   4.940   5.824  0.3563 -0.4241  3.1954
   33CHL1   C15 3566   1.946   4.956   5.739 -0.4588 -0.9140 -0.5827
   33CHL1  H15A 3567   1.845   4.914   5.760 -0.9421  0.4992  0.0240
   33CHL1  H15B 3568   1.935   5.061   5.773 -1.1190 -1.5218  1.1752
   33CHL1   C16 3569   1.981   4.937   5.590 -0.0726  0.4382 -0.3816
   33CHL1  H16A 3570   1.899   4.900   5.524  0.2540  0.9429 -1.0855
   33CHL1  H16B 3571   2.018   5.030   5.542  0.3550 -0.1953 -1.3227
   33CHL1   C17 3572   2.090   4.825   5.585  0.3409  0.3459 -0.7007
   33CHL1   H17 3573   2.191   4.871   5.593  0.7608 -0.7113  0.2735
   33CHL1   C13 3574   2.083   4.756   5.721  0.3455 -0.0800 -0.2921
   33CHL1   C18 3575   1.980   4.642   5.722  0.3320 -0.6811 -0.6353
   33CHL1  H18A 3576   1.989   4.582   5.815 -1.0754  0.3502  0.2111
   33CHL1  H18B 3577   1.876   4.683   5.720 -0.1755 -1.8172  0.8112
   33CHL1  H18C 3578   1.996   4.570   5.638  0.8842 -1.4674  0.1301
   33CHL1   C12 3579   2.224   4.701   5.777 -0.3118 -0.3020  0.8899
   33CHL1  H12A 3580   2.257   4.603   5.735  1.2951 -0.0028  1.3942
   33CHL1  H12B 3581   2.299   4.782   5.767 -0.5730 -0.0891  0.6262
   33CHL1   C11 3582   2.216   4.662   5.922 -0.4492 -0.6286 -0.7267
   33CHL1  H11A 3583   2.165   4.563   5.926  2.4128 -2.1951  2.2869
   33CHL1  H11B 3584   2.310   4.629   5.971 -1.0115  1.1972  1.7396
   33CHL1    C9 3585   2.150   4.765   6.019 -0.4150 -0.1671 -0.1376
   33CHL1    H9 3586   2.228   4.845   6.011 -0.6207  0.2137  1.4254
   33CHL1   C10 3587   2.138   4.717   6.164  0.8632 -0.6724  0.0596
   33CHL1   C19 3588   2.075   4.578   6.176  0.3935  0.4409 -0.5518
   33CHL1  H19A 3589   2.135   4.486   6.158  0.7606  0.6312 -0.2999
   33CHL1  H19B 3590   2.037   4.557   6.278 -0.2091  1.4583 -0.5510
   33CHL1  H19C 3591   1.980   4.571   6.118  0.3694 -1.2373 -0.3578
   33CHL1    C1 3592   2.276   4.710   6.222 -0.4120 -0.3426 -0.4032
   33CHL1   H1A 3593   2.341   4.636   6.171 -1.7760 -2.2710  0.5355
   33CHL1   H1B 3594   2.322   4.811   6.218 -1.0751 -0.0242 -0.1464
   33CHL1    C2 3595   2.280   4.688   6.378  0.3258  0.0910  0.0332
   33CHL1   H2A 3596   2.385   4.689   6.414  0.1420  0.3509  0.5644
   33CHL1   H2B 3597   2.239   4.586   6.396  3.0074 -1.2826 -1.1463
   33CHL1   C20 3598   2.104   4.744   5.452  0.3458 -0.4298  0.9049
   33CHL1   H20 3599   2.018   4.676   5.436  1.1296 -1.3698  0.5402
   33CHL1   C21 3600   2.224   4.655   5.465 -0.4758  0.4415 -0.1423
   33CHL1  H21A 3601   2.198   4.583   5.545  1.3580 -0.3669 -0.2041
   33CHL1  H21B 3602   2.321   4.705   5.487  1.2511 -0.1377 -5.0872
   33CHL1  H21C 3603   2.236   4.603   5.367 -1.3312  0.6814 -0.3839
   33CHL1   C22 3604   2.120   4.830   5.322  0.2675  0.3322 -0.1295
   33CHL1  H22A 3605   2.029   4.894   5.322 -1.6129 -2.1885 -0.2746
   33CHL1  H22B 3606   2.209   4.895   5.323  1.1864 -0.8682  1.7677
   33CHL1   C23 3607   2.094   4.753   5.192  0.3723 -0.5089 -0.2145
   33CHL1  H23A 3608   2.115   4.824   5.109 -1.1610 -0.3601 -0.5128
   33CHL1  H23B 3609   2.170   4.672   5.185 -2.0557 -2.9473  0.0706
   33CHL1   C24 3610   1.956   4.688   5.176  0.1317 -0.2488 -0.7609
   33CHL1  H24A 3611   1.972   4.581   5.199  1.7179  0.1005 -0.0899
   33CHL1  H24B 3612   1.870   4.732   5.232  0.6884  1.1222 -0.9468
   33CHL1   C25 3613   1.916   4.691   5.028  0.0181  0.4105 -0.1261
   33CHL1   H25 3614   1.997   4.639   4.972  1.6213  1.3630  1.2231
   33CHL1   C26 3615   1.790   4.600   5.015  0.0481 -0.0790  0.0581
   33CHL1  H26A 3616   1.818   4.495   5.042 -0.9207 -0.4949 -0.5009
   33CHL1  H26B 3617   1.720   4.647   5.087  2.1598  1.4944  1.2090
   33CHL1  H26C 3618   1.759   4.606   4.908  0.9116 -2.4804 -0.4024
   33CHL1   C27 3619   1.875   4.824   4.974  0.2255  0.4469 -0.2441
   33CHL1  H27A 3620   1.775   4.849   5.014 -0.4588 -0.3329 -1.4270
   33CHL1  H27B 3621   1.951   4.901   4.999  1.0713  0.9439 -3.7638
   33CHL1  H27C 3622   1.866   4.823   4.863  0.5889  0.5316 -0.2773
   34CHL1    C3 3623   3.038   5.476   6.506  0.0012  0.0574 -0.1946
   34CHL1    H3 3624   3.010   5.368   6.506 -0.7839  0.2398  1.1640
   34CHL1    O3 3625   3.047   5.520   6.647 -0.1151  0.8575  0.2320
   34CHL1   H3' 3626   3.039   5.614   6.631 -0.4209  0.6990 -0.5581
   34CHL1    C4 3627   3.171   5.499   6.429  0.0568  0.0311  0.6905
   34CHL1   H4A 3628   3.216   5.601   6.434 -0.1890  0.2760 -1.4298
   34CHL1   H4B 3629   3.243   5.429   6.478  0.1656 -0.1283  0.3039
   34CHL1    C5 3630   3.148   5.457   6.291  0.0069 -0.4859  0.1324
   34CHL1    C6 3631   3.225   5.360   6.235  0.0519 -0.1663  0.1314
   34CHL1    H6 3632   3.303   5.317   6.299 -0.3824  1.0459  1.5349
   34CHL1    C7 3633   3.215   5.313   6.094  0.0966 -0.1717 -0.1957
   34CHL1   H7A 3634   3.315   5.290   6.049  0.5270 -0.1060  0.7046
   34CHL1   H7B 3635   3.158   5.218   6.104 -0.2551  0.1472  0.9999
   34CHL1    C8 3636   3.134   5.419   6.009 -0.9440  0.0411 -0.1116
   34CHL1    H8 3637   3.195   5.512   6.007 -0.8213 -0.0517 -0.6198
   34CHL1   C14 3638   3.111   5.372   5.866 -0.1720 -1.1117  0.3070
   34CHL1   H14 3639   3.048   5.283   5.888 -2.7224  0.3005 -0.8448
   34CHL1   C15 3640   3.229   5.334   5.773 -0.0678  0.4652  0.2410
   34CHL1  H15A 3641   3.307   5.414   5.773 -0.5392  0.9305  0.2041
   34CHL1  H15B 3642   3.275   5.247   5.824 -0.4351  1.1998  1.9187
   34CHL1   C16 3643   3.169   5.321   5.629  0.4129  0.7573  1.0561
   34CHL1  H16A 3644   3.232   5.365   5.549  0.5788 -2.6642 -0.9261
   34CHL1  H16B 3645   3.156   5.215   5.596  2.8104  0.7924 -0.2175
   34CHL1   C17 3646   3.028   5.386   5.645 -0.6694 -0.0493 -0.7221
   34CHL1   H17 3647   2.959   5.301   5.661 -0.6648  0.3282  1.6731
   34CHL1   C13 3648   3.025   5.462   5.782  1.0624 -0.8156 -0.2435
   34CHL1   C18 3649   3.084   5.610   5.762 -0.5870  0.6734  1.1728
   34CHL1  H18A 3650   3.079   5.656   5.863 -2.9892  0.1698  1.3484
   34CHL1  H18B 3651   3.191   5.610   5.731 -0.3922  0.1175  1.8210
   34CHL1  H18C 3652   3.026   5.672   5.690  2.1280  2.8485  0.6750
   34CHL1   C12 3653   2.891   5.468   5.854 -0.0835 -0.2658 -0.1976
   34CHL1  H12A 3654   2.817   5.538   5.812  0.0203  1.4615  2.2837
   34CHL1  H12B 3655   2.843   5.368   5.849 -1.1131  0.2816 -2.3820
   34CHL1   C11 3656   2.896   5.514   5.993  0.2371 -0.2991 -0.3437
   34CHL1  H11A 3657   2.919   5.622   5.995  0.5350 -0.3209  3.0938
   34CHL1  H11B 3658   2.795   5.494   6.036  0.3369  0.2868  0.1795
   34CHL1    C9 3659   3.004   5.447   6.084 -0.2660  0.4622  0.2574
   34CHL1    H9 3660   2.964   5.345   6.099  2.9053 -0.9884 -0.3490
   34CHL1   C10 3661   3.033   5.514   6.223  0.5468  0.0751  0.1227
   34CHL1   C19 3662   3.051   5.661   6.193  0.3987 -0.4075 -0.0391
   34CHL1  H19A 3663   3.087   5.723   6.277 -3.0737  1.5217  0.2143
   34CHL1  H19B 3664   3.120   5.689   6.111  2.2612  1.9521  2.1867
   34CHL1  H19C 3665   2.955   5.714   6.173  1.6597  1.5376 -1.1813
   34CHL1    C1 3666   2.906   5.491   6.312  0.5803 -0.2361  0.4858
   34CHL1   H1A 3667   2.821   5.546   6.266  0.2279 -1.7784 -0.8469
   34CHL1   H1B 3668   2.896   5.380   6.315  1.7242 -0.3636  4.3052
   34CHL1    C2 3669   2.918   5.547   6.449 -0.1348  0.5203  0.3881
   34CHL1   H2A 3670   2.830   5.522   6.512 -0.3292  1.4428  0.4964
   34CHL1   H2B 3671   2.940   5.656   6.449  1.6299  0.2288  2.9622
   34CHL1   C20 3672   2.980   5.454   5.515  0.4463 -0.6851  0.1222
   34CHL1   H20 3673   3.043   5.545   5.502  0.5240 -0.4496  1.9055
   34CHL1   C21 3674   2.834   5.489   5.530  0.2087  0.4067 -0.4772
   34CHL1  H21A 3675   2.771   5.400   5.551 -1.2166  1.1432 -1.4530
   34CHL1  H21B 3676   2.787   5.542   5.445 -0.3782  1.8994  0.7356
   34CHL1  H21C 3677   2.824   5.570   5.604 -2.6756  0.1125 -0.4314
   34CHL1   C22 3678   2.997   5.371   5.382 -0.2945  0.2252 -0.4853
   34CHL1  H22A 3679   3.098   5.326   5.373 -0.0373  0.8010 -0.5025
   34CHL1  H22B 3680   2.925   5.287   5.383  0.6659 -0.6263 -0.8419
   34CHL1   C23 3681   2.980   5.459   5.252 -0.7657 -0.4315 -0.1094
   34CHL1  H23A 3682   2.873   5.488   5.253 -1.3438 -2.4299  0.6052
   34CHL1  H23B 3683   3.039   5.553   5.260  1.3770 -1.7860  1.0888
   34CHL1   C24 3684   3.041   5.398   5.123 -0.0189  0.3008  0.8384
   34CHL1  H24A 3685   3.151   5.403   5.133  0.2467 -0.8532 -1.0777
   34CHL1  H24B 3686   3.019   5.289   5.117  0.4781  0.1074  2.1716
   34CHL1   C25 3687   2.996   5.472   4.994 -0.7592 -0.0377 -0.1086
   34CHL1   H25 3688   2.888   5.491   5.012 -0.8988 -0.6283 -0.2762
   34CHL1   C26 3689   3.056   5.609   4.983  0.0488  0.0087 -0.1189
   34CHL1  H26A 3690   3.040   5.643   4.879 -2.5473  0.2724  0.2799
   34CHL1  H26B 3691   3.011   5.690   5.045 -0.2023  1.0156 -1.5736
   34CHL1  H26C 3692   3.166   5.616   4.997  0.2930  1.9506 -2.4414
   34CHL1   C27 3693   3.017   5.375   4.873  0.1351 -0.1643 -0.2058
   34CHL1  H27A 3694   2.987   5.419   4.776 -1.6793 -0.6700  0.0845
   34CHL1  H27B 3695   3.122   5.338   4.874 -0.5475 -2.6602  3.7204
   34CHL1  H27C 3696   2.958   5.282   4.891 -0.9241  0.5340 -0.0238
   35CHL1    C3 3697   3.548   0.995   6.776  0.1590  0.4888  0.7326
   35CHL1    H3 3698   3.612   0.904   6.771  0.3341  0.6724 -1.6819
   35CHL1    O3 3699   3.484   1.006   6.903  0.2593 -0.3200  0.0495
   35CHL1   H3' 3700   3.410   1.066   6.894  0.7768  0.9958  3.1372
   35CHL1    C4 3701   3.640   1.111   6.745  1.2804  0.1092  0.2330
   35CHL1   H4A 3702   3.588   1.207   6.761  1.9349  0.4629  0.2761
   35CHL1   H4B 3703   3.718   1.125   6.822  0.8392  0.0713  0.6919
   35CHL1    C5 3704   3.698   1.112   6.597  0.0570 -0.7981  0.4917
   35CHL1    C6 3705   3.828   1.128   6.567 -0.3249  0.6414 -0.0382
   35CHL1    H6 3706   3.900   1.162   6.643 -0.8155  0.1230  0.6657
   35CHL1    C7 3707   3.887   1.124   6.434 -0.1408  0.8272  0.9391
   35CHL1   H7A 3708   3.955   1.210   6.418  2.1691 -1.0777 -0.3385
   35CHL1   H7B 3709   3.951   1.033   6.428  0.0569  0.9259  1.5270
   35CHL1    C8 3710   3.789   1.117   6.315  0.0395  0.1169  0.2021
   35CHL1    H8 3711   3.757   1.219   6.282  0.9336  1.5251  3.2379
   35CHL1   C14 3712   3.854   1.049   6.191 -0.1697 -0.0228  0.1319
   35CHL1   H14 3713   3.881   0.943   6.212 -0.2431 -0.4221 -1.6865
   35CHL1   C15 3714   3.985   1.116   6.147  0.0150  0.1640  0.1049
   35CHL1  H15A 3715   3.982   1.226   6.166 -0.6611 -0.1768  2.1426
   35CHL1  H15B 3716   4.063   1.062   6.204 -0.7822  0.4601  1.5098
   35CHL1   C16 3717   3.989   1.081   5.998 -0.2283  0.5329 -0.0041
   35CHL1  H16A 3718   3.994   1.178   5.944 -1.1199  1.6939  1.8999
   35CHL1  H16B 3719   4.089   1.041   5.970 -0.7823  0.0012 -1.3265
   35CHL1   C17 3720   3.867   0.989   5.965 -0.5202  0.8278 -0.2570
   35CHL1   H17 3721   3.896   0.885   5.988 -3.8571 -0.3442 -0.8633
   35CHL1   C13 3722   3.766   1.041   6.067  0.4209  0.5151  0.4460
   35CHL1   C18 3723   3.705   1.176   6.025 -0.6105 -0.0289 -0.4452
   35CHL1  H18A 3724   3.783   1.255   6.014 -0.5745  0.1357  0.8690
   35CHL1  H18B 3725   3.653   1.180   5.927  1.3176  2.3197 -1.4625
   35CHL1  H18C 3726   3.643   1.216   6.108  0.5923 -1.8115  1.4331
   35CHL1   C12 3727   3.649   0.950   6.096  0.2865  1.0457  0.5602
   35CHL1  H12A 3728   3.569   0.958   6.019  1.4745 -2.6760 -1.3153
   35CHL1  H12B 3729   3.681   0.844   6.094  1.6455  1.4366  0.9923
   35CHL1   C11 3730   3.577   0.998   6.224 -0.7266 -0.3251  0.2787
   35CHL1  H11A 3731   3.519   1.091   6.204  0.2721  0.8096  2.3495
   35CHL1  H11B 3732   3.501   0.925   6.256  0.0414 -1.4516 -0.4035
   35CHL1    C9 3733   3.675   1.025   6.354  0.2653  0.2821  0.1983
   35CHL1    H9 3734   3.718   0.924   6.376  0.6669  0.2117 -0.8590
   35CHL1   C10 3735   3.600   1.068   6.487  0.1066  0.8731  0.3811
   35CHL1   C19 3736   3.532   1.205   6.451  0.3830  0.6204  0.4507
   35CHL1  H19A 3737   3.611   1.280   6.434  2.0160 -0.8775  1.1004
   35CHL1  H19B 3738   3.469   1.198   6.359  0.2817  2.0629  0.3892
   35CHL1  H19C 3739   3.477   1.232   6.544 -0.5252 -0.7867  0.3672
   35CHL1    C1 3740   3.499   0.958   6.526 -0.5516 -0.5088 -0.0118
   35CHL1   H1A 3741   3.414   0.967   6.455  0.8944  1.1673 -1.6368
   35CHL1   H1B 3742   3.544   0.857   6.514  0.8424  0.0343  0.4071
   35CHL1    C2 3743   3.441   0.981   6.668 -0.5980  0.8583 -0.9187
   35CHL1   H2A 3744   3.374   0.899   6.702  1.0519 -0.2479 -0.2517
   35CHL1   H2B 3745   3.372   1.067   6.682 -0.1170  1.0020  0.7815
   35CHL1   C20 3746   3.811   0.991   5.817 -0.5206 -0.3526 -0.3703
   35CHL1   H20 3747   3.760   1.087   5.797 -0.5036 -0.2702 -0.0247
   35CHL1   C21 3748   3.708   0.879   5.789  0.3154 -0.4236 -0.5190
   35CHL1  H21A 3749   3.597   0.887   5.797  0.3247 -0.6271 -0.1502
   35CHL1  H21B 3750   3.741   0.786   5.840 -0.9950 -1.3498 -1.2997
   35CHL1  H21C 3751   3.713   0.841   5.685  2.5203  1.9220 -1.3565
   35CHL1   C22 3752   3.938   0.969   5.734  0.0304  0.0327 -0.2760
   35CHL1  H22A 3753   4.004   1.058   5.741 -0.9276  0.7593 -0.2725
   35CHL1  H22B 3754   3.993   0.888   5.785  1.1615  0.2490 -1.1031
   35CHL1   C23 3755   3.933   0.935   5.580  0.2469  0.7606  0.1234
   35CHL1  H23A 3756   3.883   0.836   5.579 -1.0023  1.2430  3.1366
   35CHL1  H23B 3757   3.877   1.010   5.520 -2.0477 -0.2688  0.8498
   35CHL1   C24 3758   4.073   0.937   5.511 -0.4815 -0.0527 -0.2403
   35CHL1  H24A 3759   4.125   1.033   5.534  0.9199 -0.9759  0.5893
   35CHL1  H24B 3760   4.128   0.853   5.558 -0.1258  0.8048  0.9346
   35CHL1   C25 3761   4.082   0.905   5.362  0.3143 -0.3621  0.7712
   35CHL1   H25 3762   4.028   0.990   5.313 -0.4286 -1.2933 -0.0766
   35CHL1   C26 3763   4.226   0.883   5.303  0.0586  0.0662 -0.2353
   35CHL1  H26A 3764   4.210   0.838   5.203 -0.3739 -1.9706  0.6967
   35CHL1  H26B 3765   4.274   0.983   5.302 -0.0573  0.1396  0.6800
   35CHL1  H26C 3766   4.280   0.810   5.368 -1.0373  0.6512  1.3833
   35CHL1   C27 3767   4.000   0.781   5.331 -0.2140 -0.1885  0.7930
   35CHL1  H27A 3768   3.892   0.799   5.349 -1.5635 -2.7735 -3.3909
   35CHL1  H27B 3769   4.005   0.749   5.225 -2.5953 -1.8845  1.1247
   35CHL1  H27C 3770   4.039   0.702   5.398  0.2570 -0.0546  0.6870
   36CHL1    C3 3771   0.684   5.018   5.768  0.0186 -0.2323 -0.0287
   36CHL1    H3 3772   0.617   5.047   5.685 -1.0701 -1.1885  0.4865
   36CHL1    O3 3773   0.626   5.044   5.897  0.0450 -0.0941 -0.5705
   36CHL1   H3' 3774   0.654   5.133   5.920  1.3724 -0.7619  0.5226
   36CHL1    C4 3775   0.720   4.869   5.757 -0.3963  0.2719  0.2879
   36CHL1   H4A 3776   0.798   4.841   5.831  0.3486  0.6357 -0.3489
   36CHL1   H4B 3777   0.633   4.801   5.767  0.6436 -0.9927  1.3186
   36CHL1    C5 3778   0.801   4.838   5.628 -0.1486  0.3968  0.3749
   36CHL1    C6 3779   0.758   4.744   5.543  0.0151  0.5800 -0.1585
   36CHL1    H6 3780   0.673   4.678   5.568  1.7594 -1.5567  0.3831
   36CHL1    C7 3781   0.846   4.695   5.439  0.8399  0.7395  0.1842
   36CHL1   H7A 3782   0.840   4.585   5.423 -1.2907  0.8791 -0.2390
   36CHL1   H7B 3783   0.789   4.732   5.351 -1.2899  3.5506  2.5500
   36CHL1    C8 3784   0.988   4.740   5.441  0.7950  0.2130  0.4400
   36CHL1    H8 3785   1.046   4.683   5.517  1.2135 -1.0301 -0.7588
   36CHL1   C14 3786   1.055   4.720   5.305  0.4279  0.1893 -0.2285
   36CHL1   H14 3787   0.993   4.782   5.236  0.6538 -0.7041 -1.2540
   36CHL1   C15 3788   1.032   4.584   5.234  0.2893 -0.2927 -0.4149
   36CHL1  H15A 3789   1.021   4.516   5.321  0.0579 -0.4134 -0.5363
   36CHL1  H15B 3790   0.934   4.588   5.183 -0.2158  1.9133  0.6180
   36CHL1   C16 3791   1.156   4.561   5.148 -0.3760 -0.1141  0.2621
   36CHL1  H16A 3792   1.202   4.469   5.189 -0.4394 -0.2703 -0.0085
   36CHL1  H16B 3793   1.124   4.536   5.044 -0.3482  0.8728  0.0098
   36CHL1   C17 3794   1.232   4.700   5.160 -0.2434 -0.4234 -0.5294
   36CHL1   H17 3795   1.197   4.769   5.080  1.0544 -0.6617 -1.3354
   36CHL1   C13 3796   1.202   4.747   5.308 -0.7376 -0.3109 -0.2768
   36CHL1   C18 3797   1.277   4.646   5.409 -0.4310 -0.0848  0.1956
   36CHL1  H18A 3798   1.264   4.667   5.517  0.9413 -1.5796  0.6917
   36CHL1  H18B 3799   1.245   4.541   5.391 -0.1471  0.1072 -1.5654
   36CHL1  H18C 3800   1.385   4.655   5.386 -0.3744  0.7823  0.7676
   36CHL1   C12 3801   1.218   4.895   5.342 -0.5243  0.0590  0.7874
   36CHL1  H12A 3802   1.324   4.926   5.353 -0.1042  0.2474 -2.5989
   36CHL1  H12B 3803   1.177   4.960   5.262  2.4508  1.6972  0.4491
   36CHL1   C11 3804   1.154   4.930   5.471  0.3410  0.1682 -0.0148
   36CHL1  H11A 3805   1.214   4.878   5.549  0.2004 -1.3126 -0.8623
   36CHL1  H11B 3806   1.165   5.040   5.484 -0.2484  0.3832 -1.2153
   36CHL1    C9 3807   1.005   4.881   5.488  0.4763 -0.6228 -0.0676
   36CHL1    H9 3808   0.945   4.941   5.417  1.7525  1.0936  0.2238
   36CHL1   C10 3809   0.941   4.911   5.622 -0.9929 -0.3686 -0.0342
   36CHL1   C19 3810   1.040   4.873   5.741  1.0600 -0.8869 -0.0392
   36CHL1  H19A 3811   0.996   4.890   5.842 -0.8733  2.6848 -1.2998
   36CHL1  H19B 3812   1.066   4.768   5.717 -1.4830 -0.9539 -3.2842
   36CHL1  H19C 3813   1.132   4.935   5.739  0.3044  0.3987  1.6500
   36CHL1    C1 3814   0.903   5.060   5.637 -0.5761  0.0471 -0.4552
   36CHL1   H1A 3815   0.992   5.126   5.639 -1.2446  0.9419  0.3185
   36CHL1   H1B 3816   0.845   5.096   5.550 -1.8020  0.9933  0.7111
   36CHL1    C2 3817   0.820   5.098   5.768 -0.2227 -0.5509  0.6104
   36CHL1   H2A 3818   0.817   5.209   5.762  0.3821 -0.6029 -1.6048
   36CHL1   H2B 3819   0.879   5.082   5.860  1.1788  1.3613  0.1159
   36CHL1   C20 3820   1.375   4.679   5.123 -0.3541 -0.0464  0.1784
   36CHL1   H20 3821   1.437   4.618   5.192 -1.8192 -0.5359  1.0861
   36CHL1   C21 3822   1.451   4.816   5.103  0.5212  0.1399 -0.2003
   36CHL1  H21A 3823   1.536   4.816   5.032 -0.3068  0.2612 -1.2102
   36CHL1  H21B 3824   1.492   4.841   5.204  0.2949  0.3222 -0.1528
   36CHL1  H21C 3825   1.377   4.896   5.081  0.2856 -0.5488 -2.0491
   36CHL1   C22 3826   1.385   4.618   4.976  0.7507  0.3092 -0.3082
   36CHL1  H22A 3827   1.313   4.662   4.904  0.9194  1.9956  0.5076
   36CHL1  H22B 3828   1.488   4.647   4.946  1.0234  1.5712  1.7003
   36CHL1   C23 3829   1.391   4.464   4.952 -0.5437 -0.6469  0.6384
   36CHL1  H23A 3830   1.296   4.409   4.970  0.2697 -3.6168 -2.9696
   36CHL1  H23B 3831   1.417   4.439   4.847  1.0908 -3.7129  1.6266
   36CHL1   C24 3832   1.501   4.392   5.041  0.7056  0.4115  0.0486
   36CHL1  H24A 3833   1.594   4.390   4.981 -0.3224  0.4004 -1.5981
   36CHL1  H24B 3834   1.506   4.457   5.132 -0.4394 -0.2161  0.5795
   36CHL1   C25 3835   1.446   4.255   5.086 -0.0651 -0.1718  0.8614
   36CHL1   H25 3836   1.346   4.282   5.126 -1.0820  1.2133 -2.2530
   36CHL1   C26 3837   1.421   4.164   4.960 -0.3961 -0.1022  0.2466
   36CHL1  H26A 3838   1.356   4.201   4.878 -2.2154 -0.2651  1.5600
   36CHL1  H26B 3839   1.520   4.157   4.910 -0.3190  1.1320  0.1919
   36CHL1  H26C 3840   1.395   4.064   4.999  3.5084 -0.6675  1.9352
   36CHL1   C27 3841   1.531   4.201   5.201 -0.5719  0.7639 -0.0989
   36CHL1  H27A 3842   1.503   4.097   5.229  0.9956  0.1854 -0.5677
   36CHL1  H27B 3843   1.637   4.208   5.169 -0.8241  1.4161 -0.8316
   36CHL1  H27C 3844   1.527   4.259   5.296 -0.4461 -0.2987  0.5633
   37CHL1    C3 3845   1.581   1.974   6.536  0.9392 -0.7925  0.1363
   37CHL1    H3 3846   1.471   1.961   6.525  0.5647  2.5264 -1.4251
   37CHL1    O3 3847   1.596   2.005   6.671 -0.4557  0.2630  0.1352
   37CHL1   H3' 3848   1.631   1.924   6.710 -0.6490  0.7072  1.2825
   37CHL1    C4 3849   1.659   1.847   6.498  0.1416  0.1594 -0.1538
   37CHL1   H4A 3850   1.761   1.880   6.525 -0.8257  2.4179  0.9552
   37CHL1   H4B 3851   1.609   1.767   6.557 -0.4964  0.3361 -0.4363
   37CHL1    C5 3852   1.647   1.818   6.350  0.2547  0.0361 -0.7700
   37CHL1    C6 3853   1.610   1.698   6.303 -0.0299  0.4782  0.2516
   37CHL1    H6 3854   1.583   1.615   6.369  1.4822  0.4332  0.8594
   37CHL1    C7 3855   1.602   1.663   6.154  0.0433  0.1796  0.6594
   37CHL1   H7A 3856   1.651   1.571   6.116  0.7907  0.4222  1.0171
   37CHL1   H7B 3857   1.499   1.642   6.120  0.7770 -0.0616 -1.6216
   37CHL1    C8 3858   1.668   1.770   6.059 -0.3214  0.1866  0.8248
   37CHL1    H8 3859   1.777   1.754   6.063 -0.2406  0.2213 -0.8279
   37CHL1   C14 3860   1.617   1.751   5.915 -0.2508 -0.1231 -0.7060
   37CHL1   H14 3861   1.508   1.770   5.924 -0.0960  0.6984 -0.4829
   37CHL1   C15 3862   1.624   1.618   5.847  0.0683  0.4607 -0.1195
   37CHL1  H15A 3863   1.731   1.588   5.852  0.0439  0.4014  0.0853
   37CHL1  H15B 3864   1.558   1.539   5.889 -0.5271  0.9966 -0.0322
   37CHL1   C16 3865   1.608   1.646   5.697  0.3889 -0.4750 -0.0344
   37CHL1  H16A 3866   1.688   1.590   5.644 -0.2543 -1.7765  0.3292
   37CHL1  H16B 3867   1.512   1.610   5.655  0.3591 -1.4160  0.8083
   37CHL1   C17 3868   1.633   1.797   5.682  0.3218 -0.8079  0.9303
   37CHL1   H17 3869   1.530   1.837   5.673  1.2159  1.8732  1.5567
   37CHL1   C13 3870   1.687   1.850   5.817  0.1612 -0.0495  0.1956
   37CHL1   C18 3871   1.837   1.828   5.804  0.0266 -0.5688  0.0833
   37CHL1  H18A 3872   1.853   1.728   5.759 -1.2897  1.3405 -5.5574
   37CHL1  H18B 3873   1.890   1.904   5.741  0.6710 -0.0837  1.1809
   37CHL1  H18C 3874   1.892   1.837   5.900  1.1872 -1.3500 -0.4848
   37CHL1   C12 3875   1.643   1.990   5.857 -0.3615 -0.6314  0.3519
   37CHL1  H12A 3876   1.696   2.068   5.797  0.0691 -0.5145  0.8811
   37CHL1  H12B 3877   1.534   2.002   5.844 -0.2840 -1.7204 -1.7893
   37CHL1   C11 3878   1.674   2.018   6.007 -0.1687  0.3813  0.2514
   37CHL1  H11A 3879   1.785   2.018   6.012 -0.1940 -1.3814  3.0950
   37CHL1  H11B 3880   1.639   2.119   6.038 -0.8120  0.6417 -1.2532
   37CHL1    C9 3881   1.632   1.910   6.113  0.6943  0.5438  0.2085
   37CHL1    H9 3882   1.522   1.899   6.099  0.6516 -0.6461  1.3153
   37CHL1   C10 3883   1.670   1.940   6.259 -0.3256  0.1491 -0.0736
   37CHL1   C19 3884   1.832   1.966   6.265  0.6305 -0.6803 -0.0537
   37CHL1  H19A 3885   1.862   2.002   6.366 -0.7450  2.4357 -0.6585
   37CHL1  H19B 3886   1.887   1.872   6.241  0.6588 -0.5050 -0.6752
   37CHL1  H19C 3887   1.848   2.048   6.193  0.3339  0.9312  1.6453
   37CHL1    C1 3888   1.590   2.059   6.305  0.0863  0.0134 -0.1792
   37CHL1   H1A 3889   1.624   2.146   6.245  0.2657 -1.7022 -2.7119
   37CHL1   H1B 3890   1.481   2.057   6.284  0.0971  0.5790 -0.2868
   37CHL1    C2 3891   1.611   2.098   6.449  0.3251 -0.6966 -0.2423
   37CHL1   H2A 3892   1.539   2.179   6.474 -1.4047 -1.2029 -3.0526
   37CHL1   H2B 3893   1.711   2.143   6.462 -0.2477  0.3756  0.5452
   37CHL1   C20 3894   1.698   1.834   5.546  0.4789 -0.0801  0.3227
   37CHL1   H20 3895   1.800   1.789   5.545  1.2555  1.4701 -2.9248
   37CHL1   C21 3896   1.712   1.988   5.538 -0.5095  0.2384 -0.2950
   37CHL1  H21A 3897   1.804   2.027   5.586 -0.9426  2.0285 -0.8409
   37CHL1  H21B 3898   1.624   2.040   5.581 -1.1345  0.8966 -2.2468
   37CHL1  H21C 3899   1.714   2.025   5.433  0.3574  1.5816  0.1766
   37CHL1   C22 3900   1.627   1.778   5.415 -0.3149 -0.8278  0.2202
   37CHL1  H22A 3901   1.685   1.797   5.322 -1.9121 -2.7195 -1.2482
   37CHL1  H22B 3902   1.622   1.668   5.424  0.3609 -0.7131  2.5192
   37CHL1   C23 3903   1.485   1.830   5.401 -0.1638  0.2268 -0.3379
   37CHL1  H23A 3904   1.431   1.803   5.495 -0.6137  2.6592  0.1764
   37CHL1  H23B 3905   1.480   1.941   5.403 -2.9944  0.1832 -0.0446
   37CHL1   C24 3906   1.404   1.767   5.281 -0.4336  0.2932  0.5502
   37CHL1  H24A 3907   1.467   1.795   5.194  1.6349 -0.4077  1.7522
   37CHL1  H24B 3908   1.416   1.656   5.289 -0.5100  0.1316 -1.2686
   37CHL1   C25 3909   1.257   1.803   5.271  0.0313  0.5991  0.0782
   37CHL1   H25 3910   1.223   1.759   5.175  0.1629 -4.0774  1.9173
   37CHL1   C26 3911   1.177   1.753   5.390  0.6668 -0.4586  0.1665
   37CHL1  H26A 3912   1.125   1.657   5.374  1.3733 -0.9609  0.8349
   37CHL1  H26B 3913   1.245   1.749   5.478  2.2470 -1.5140 -1.0353
   37CHL1  H26C 3914   1.104   1.834   5.414  0.3238 -0.9618  0.8569
   37CHL1   C27 3915   1.241   1.956   5.250 -0.2647  0.1121 -1.0260
   37CHL1  H27A 3916   1.318   2.002   5.185  2.6562  0.5234  2.3622
   37CHL1  H27B 3917   1.138   1.967   5.210 -2.1772 -3.4585  2.1837
   37CHL1  H27C 3918   1.246   2.006   5.349 -2.8516 -0.8097 -0.3443
   38CHL1    C3 3919   2.843   2.825   6.323  0.6623 -0.2091 -0.2401
   38CHL1    H3 3920   2.943   2.814   6.275  1.4295  1.2980  0.9342
   38CHL1    O3 3921   2.846   2.841   6.463 -0.4767  0.7775  0.0761
   38CHL1   H3' 3922   2.756   2.865   6.487 -0.2606  0.4589  1.2760
   38CHL1    C4 3923   2.763   2.937   6.255  0.3307 -0.5719 -0.2481
   38CHL1   H4A 3924   2.663   2.948   6.302  0.2362  0.7710 -0.7125
   38CHL1   H4B 3925   2.823   3.024   6.288  2.6182 -2.4596  0.9177
   38CHL1    C5 3926   2.750   2.939   6.102 -0.3189 -0.4148 -0.1454
   38CHL1    C6 3927   2.795   3.039   6.028  0.1046 -0.5928  0.0815
   38CHL1    H6 3928   2.827   3.136   6.069  0.5529 -2.1623  3.8791
   38CHL1    C7 3929   2.809   3.020   5.879  0.1719 -0.3329 -0.3865
   38CHL1   H7A 3930   2.780   3.112   5.824  1.2943  0.8562  0.9360
   38CHL1   H7B 3931   2.919   3.008   5.864  0.6759  2.3447  0.5300
   38CHL1    C8 3932   2.733   2.900   5.812 -0.1191  0.2730  0.0422
   38CHL1    H8 3933   2.625   2.924   5.810 -0.5916 -1.6294 -3.2074
   38CHL1   C14 3934   2.785   2.876   5.671  0.0605 -0.5339  0.5925
   38CHL1   H14 3935   2.892   2.848   5.676 -0.2919 -2.3419 -0.9411
   38CHL1   C15 3936   2.780   2.995   5.563 -0.0417  0.5389  0.0863
   38CHL1  H15A 3937   2.680   3.044   5.561 -0.2218  0.1580 -0.2575
   38CHL1  H15B 3938   2.861   3.068   5.587  0.3210 -0.3839  1.8983
   38CHL1   C16 3939   2.798   2.920   5.426 -0.5518  0.4046  0.4613
   38CHL1  H16A 3940   2.725   2.953   5.349 -0.1446 -1.5835 -0.8421
   38CHL1  H16B 3941   2.901   2.939   5.388 -0.8024  0.1450 -0.3731
   38CHL1   C17 3942   2.781   2.764   5.456 -0.3540 -0.5185  0.1398
   38CHL1   H17 3943   2.883   2.725   5.475 -1.2329 -2.4260  1.1615
   38CHL1   C13 3944   2.712   2.754   5.602 -0.6936  1.2190 -0.0930
   38CHL1   C18 3945   2.565   2.781   5.583  0.2613  0.2443 -0.9907
   38CHL1  H18A 3946   2.514   2.702   5.524  1.2211 -0.5958 -0.7318
   38CHL1  H18B 3947   2.508   2.795   5.678 -1.1700  0.9779 -1.9215
   38CHL1  H18C 3948   2.547   2.871   5.521 -1.2065 -1.3660 -3.0320
   38CHL1   C12 3949   2.737   2.631   5.681 -0.2772 -1.1068 -0.5205
   38CHL1  H12A 3950   2.688   2.546   5.629 -0.6522 -0.3832 -1.3612
   38CHL1  H12B 3951   2.847   2.613   5.685  0.2268  1.7118  0.3420
   38CHL1   C11 3952   2.694   2.649   5.831  0.1917  0.5573  0.2867
   38CHL1  H11A 3953   2.583   2.656   5.836  0.0846 -1.2347  4.2754
   38CHL1  H11B 3954   2.726   2.554   5.879  2.0707  1.2559  0.4982
   38CHL1    C9 3955   2.756   2.775   5.896 -0.2796  0.5119  0.3495
   38CHL1    H9 3956   2.866   2.760   5.895 -0.3306 -0.4744  2.9501
   38CHL1   C10 3957   2.717   2.792   6.052  0.0951 -0.1628  0.2021
   38CHL1   C19 3958   2.558   2.786   6.052  0.3662  0.8384  0.0683
   38CHL1  H19A 3959   2.513   2.861   5.984 -0.5828  1.4097  1.2915
   38CHL1  H19B 3960   2.526   2.683   6.025  0.6964  1.3633 -2.5648
   38CHL1  H19C 3961   2.517   2.815   6.152 -1.7683  1.8076 -1.0155
   38CHL1    C1 3962   2.784   2.681   6.137 -0.1106 -0.9408  0.2725
   38CHL1   H1A 3963   2.748   2.580   6.107 -3.0290 -1.0084  3.4790
   38CHL1   H1B 3964   2.890   2.681   6.103 -0.7362 -0.9996 -1.8728
   38CHL1    C2 3965   2.774   2.699   6.287 -0.0966  0.0126 -0.5186
   38CHL1   H2A 3966   2.819   2.618   6.348 -3.1248 -1.0251  0.5333
   38CHL1   H2B 3967   2.667   2.706   6.316  0.2444  2.4114  0.4118
   38CHL1   C20 3968   2.714   2.701   5.337 -0.2245  0.2051 -0.5623
   38CHL1   H20 3969   2.605   2.724   5.334 -0.5420 -1.1546 -0.0508
   38CHL1   C21 3970   2.719   2.551   5.352  0.1740 -0.2323 -0.5597
   38CHL1  H21A 3971   2.684   2.509   5.255 -1.1931  3.4314 -1.8214
   38CHL1  H21B 3972   2.640   2.516   5.421  0.7173 -3.3314 -1.3816
   38CHL1  H21C 3973   2.825   2.527   5.377  1.6704  0.9168 -4.8877
   38CHL1   C22 3974   2.764   2.745   5.197  0.3798 -0.4804  0.9166
   38CHL1  H22A 3975   2.779   2.855   5.193  1.6802 -0.6434  0.8303
   38CHL1  H22B 3976   2.859   2.699   5.164 -0.1506  0.3721 -2.0993
   38CHL1   C23 3977   2.658   2.720   5.094 -0.1635  0.3269  0.4370
   38CHL1  H23A 3978   2.648   2.609   5.095 -0.0634  0.3049 -0.5458
   38CHL1  H23B 3979   2.560   2.766   5.123  0.4377  2.4344 -0.6828
   38CHL1   C24 3980   2.702   2.756   4.949  0.2064 -0.1100 -0.9869
   38CHL1  H24A 3981   2.798   2.700   4.948  0.2380 -0.2575  1.8893
   38CHL1  H24B 3982   2.630   2.700   4.886  1.3120 -1.6356 -0.9800
   38CHL1   C25 3983   2.698   2.906   4.908 -0.4723  0.7122  0.5294
   38CHL1   H25 3984   2.766   2.966   4.973  1.9502  0.6724 -1.8324
   38CHL1   C26 3985   2.732   2.921   4.754  0.2243  0.1148 -0.4053
   38CHL1  H26A 3986   2.833   2.881   4.730  0.9526  0.7604  1.3872
   38CHL1  H26B 3987   2.659   2.874   4.685  0.4050  1.2291 -1.3943
   38CHL1  H26C 3988   2.727   3.027   4.721  0.5142  0.4486  0.5968
   38CHL1   C27 3989   2.561   2.976   4.937 -0.5378  0.3002  0.1122
   38CHL1  H27A 3990   2.577   3.085   4.927 -0.0198  0.1668 -0.6077
   38CHL1  H27B 3991   2.478   2.944   4.869 -2.0911  2.4921  0.8772
   38CHL1  H27C 3992   2.524   2.953   5.039  3.1951 -1.8656  1.1872
   39CHL1    C3 3993   4.414   2.327   6.297  0.1784  0.0429 -0.3003
   39CHL1    H3 3994   4.465   2.228   6.302  0.6567  0.3246  0.7742
   39CHL1    O3 3995   4.360   2.372   6.423 -0.2002 -0.3924  0.1920
   39CHL1   H3' 3996   4.296   2.304   6.446 -0.8529 -0.4545 -1.6340
   39CHL1    C4 3997   4.510   2.440   6.244 -0.2222  0.4463 -0.0684
   39CHL1   H4A 3998   4.455   2.536   6.259 -0.5765 -0.1125  2.8129
   39CHL1   H4B 3999   4.600   2.460   6.305  0.2469  0.4227 -0.7503
   39CHL1    C5 4000   4.547   2.422   6.097  0.0623 -0.1805  0.4709
   39CHL1    C6 4001   4.669   2.410   6.055  0.5000 -0.0190  0.2710
   39CHL1    H6 4002   4.752   2.429   6.125  1.8837 -0.0129 -1.3056
   39CHL1    C7 4003   4.721   2.411   5.918  0.2600  0.7436  0.1731
   39CHL1   H7A 4004   4.811   2.476   5.909  1.5583 -0.8410  1.1346
   39CHL1   H7B 4005   4.755   2.306   5.912 -0.1284  0.6018  0.3885
   39CHL1    C8 4006   4.609   2.438   5.816 -0.4571 -0.2977 -0.1350
   39CHL1    H8 4007   4.600   2.549   5.814  1.1318  0.1441  4.6366
   39CHL1   C14 4008   4.651   2.395   5.675  0.6014 -0.7499 -0.6642
   39CHL1   H14 4009   4.668   2.286   5.675 -0.3617 -0.9245  0.5959
   39CHL1   C15 4010   4.780   2.447   5.613  0.3646  0.0937  0.1272
   39CHL1  H15A 4011   4.780   2.558   5.616 -1.3062  0.0882  0.8535
   39CHL1  H15B 4012   4.879   2.405   5.642  0.2773 -1.4036 -1.5755
   39CHL1   C16 4013   4.763   2.424   5.464  0.0702 -1.1524  0.7337
   39CHL1  H16A 4014   4.777   2.522   5.414 -0.9793 -0.7831  1.1507
   39CHL1  H16B 4015   4.844   2.357   5.426  0.8456  0.7307 -1.1799
   39CHL1   C17 4016   4.616   2.369   5.437 -0.6527 -0.0631  0.3350
   39CHL1   H17 4017   4.628   2.260   5.455 -0.0069  0.1105  1.0653
   39CHL1   C13 4018   4.533   2.410   5.566  0.1950  0.2080 -0.5265
   39CHL1   C18 4019   4.486   2.555   5.556 -0.5666  0.1909  0.4731
   39CHL1  H18A 4020   4.421   2.567   5.466  0.0045  1.4641  0.2173
   39CHL1  H18B 4021   4.440   2.576   5.655  2.4467 -2.6259  2.6836
   39CHL1  H18C 4022   4.571   2.626   5.548 -0.6414  0.5564  2.3392
   39CHL1   C12 4023   4.417   2.318   5.617  0.3118 -0.8299  0.5498
   39CHL1  H12A 4024   4.344   2.344   5.538  3.3856  1.7772 -1.7119
   39CHL1  H12B 4025   4.431   2.209   5.601 -0.8264 -0.7731 -1.0199
   39CHL1   C11 4026   4.359   2.354   5.749 -0.2797 -0.1890  0.3682
   39CHL1  H11A 4027   4.310   2.454   5.749 -1.4167 -0.7192  1.1787
   39CHL1  H11B 4028   4.295   2.267   5.775  1.4278 -1.2474  1.1763
   39CHL1    C9 4029   4.473   2.366   5.860 -0.6185 -0.3797  0.2236
   39CHL1    H9 4030   4.507   2.261   5.873  1.6819  0.6082  3.7107
   39CHL1   C10 4031   4.425   2.403   5.999 -0.7139  0.6478  0.5711
   39CHL1   C19 4032   4.358   2.540   5.997 -0.3045 -0.4733 -0.1239
   39CHL1  H19A 4033   4.258   2.532   5.950  0.4618 -1.2104 -1.6729
   39CHL1  H19B 4034   4.344   2.591   6.095  0.1189  0.3952 -0.5042
   39CHL1  H19C 4035   4.416   2.612   5.936 -0.8076 -0.6297 -0.7922
   39CHL1    C1 4036   4.325   2.297   6.055 -0.5855 -0.2374  0.1904
   39CHL1   H1A 4037   4.238   2.305   5.987  0.5843 -0.2502 -1.3685
   39CHL1   H1B 4038   4.377   2.200   6.038 -2.1067 -1.1521  0.5298
   39CHL1    C2 4039   4.295   2.310   6.202 -0.0435 -0.3861  0.3118
   39CHL1   H2A 4040   4.233   2.227   6.241  1.6079 -2.0535 -0.4697
   39CHL1   H2B 4041   4.225   2.396   6.215 -0.1035 -0.3169 -0.4154
   39CHL1   C20 4042   4.555   2.393   5.302  0.1707  0.1769 -0.1573
   39CHL1   H20 4043   4.524   2.500   5.302  0.1261  0.1730 -1.1157
   39CHL1   C21 4044   4.429   2.313   5.280 -0.2241  0.2867 -0.2166
   39CHL1  H21A 4045   4.416   2.302   5.171  0.9053  0.5699 -0.3928
   39CHL1  H21B 4046   4.338   2.348   5.335 -0.9722  0.7365 -1.6925
   39CHL1  H21C 4047   4.455   2.212   5.318  1.5742  1.0408  0.6716
   39CHL1   C22 4048   4.644   2.366   5.181 -0.1379 -0.0728  0.3230
   39CHL1  H22A 4049   4.589   2.387   5.087  0.0133 -1.0524 -0.0004
   39CHL1  H22B 4050   4.735   2.430   5.179 -0.0584 -0.1392  1.2434
   39CHL1   C23 4051   4.685   2.219   5.171 -1.0938 -0.4463 -0.9535
   39CHL1  H23A 4052   4.731   2.178   5.263 -2.5983  0.1407  0.0965
   39CHL1  H23B 4053   4.595   2.154   5.162 -0.3412 -2.0185  1.8310
   39CHL1   C24 4054   4.785   2.208   5.051 -0.6507  0.4906 -0.1920
   39CHL1  H24A 4055   4.735   2.252   4.963  4.2452  1.0694 -3.0587
   39CHL1  H24B 4056   4.869   2.278   5.068 -1.1860  0.9319  0.7083
   39CHL1   C25 4057   4.840   2.069   5.028 -0.2779  0.3410 -0.5966
   39CHL1   H25 4058   4.919   2.084   4.952 -0.2416  0.1799 -0.5911
   39CHL1   C26 4059   4.903   2.005   5.152 -0.6076 -0.0492  0.2946
   39CHL1  H26A 4060   4.831   2.004   5.237 -0.7570 -1.3003  0.1727
   39CHL1  H26B 4061   4.937   1.900   5.139 -1.5410 -0.3683  0.3251
   39CHL1  H26C 4062   4.996   2.058   5.182 -0.7201  0.3184  0.0025
   39CHL1   C27 4063   4.733   1.971   4.988 -0.0840 -0.3075  0.1921
   39CHL1  H27A 4064   4.654   1.962   5.065 -0.1407  0.6352  0.2552
   39CHL1  H27B 4065   4.687   2.010   4.895 -0.1238 -1.3258 -0.2286
   39CHL1  H27C 4066   4.775   1.872   4.958  0.0535 -0.7262  1.6831
   40CHL1    C3 4067   4.588   0.261   6.837  0.2579  0.5626 -0.4175
   40CHL1    H3 4068   4.674   0.326   6.810  0.0017  1.1846  0.2477
   40CHL1    O3 4069   4.575   0.260   6.978  0.4994 -0.1049 -0.1162
   40CHL1   H3' 4070   4.569   0.352   7.002 -0.9728 -1.0191  3.7002
   40CHL1    C4 4071   4.455   0.304   6.778 -0.5130  0.0341  0.3945
   40CHL1   H4A 4072   4.369   0.241   6.809 -1.8502  0.4271 -2.1989
   40CHL1   H4B 4073   4.418   0.402   6.815 -0.8139  0.0963 -0.0615
   40CHL1    C5 4074   4.447   0.294   6.621 -0.5751 -0.5883  0.3933
   40CHL1    C6 4075   4.413   0.389   6.536 -0.5981  0.0662  0.1103
   40CHL1    H6 4076   4.380   0.486   6.577  0.7846  1.1963 -1.3183
   40CHL1    C7 4077   4.406   0.378   6.388  0.1292  0.1537 -0.6970
   40CHL1   H7A 4078   4.311   0.414   6.343 -0.0383  0.4524 -0.1099
   40CHL1   H7B 4079   4.488   0.445   6.355 -0.6830  2.2580  1.2744
   40CHL1    C8 4080   4.419   0.234   6.335 -0.0656  0.8114  0.0306
   40CHL1    H8 4081   4.320   0.188   6.353 -0.3230  1.2094 -0.3382
   40CHL1   C14 4082   4.462   0.235   6.190 -0.2188 -0.2339  0.2233
   40CHL1   H14 4083   4.559   0.289   6.187  0.5554 -1.6103 -1.2928
   40CHL1   C15 4084   4.375   0.316   6.099  0.3065  0.6281 -0.4473
   40CHL1  H15A 4085   4.266   0.306   6.116  0.2079 -1.9174 -2.1077
   40CHL1  H15B 4086   4.401   0.425   6.099  0.3772  0.6565  1.6740
   40CHL1   C16 4087   4.400   0.266   5.961  0.9866  0.2203  0.6111
   40CHL1  H16A 4088   4.304   0.228   5.920  1.2942  0.7941 -0.6753
   40CHL1  H16B 4089   4.437   0.343   5.890  0.4218 -0.5907 -0.5930
   40CHL1   C17 4090   4.500   0.143   5.975 -0.3018 -0.8259  0.2838
   40CHL1   H17 4091   4.605   0.179   5.976 -0.8418  0.9801  2.7949
   40CHL1   C13 4092   4.477   0.101   6.124 -0.7677 -0.1477  0.0682
   40CHL1   C18 4093   4.345   0.011   6.146  0.0339  0.0904  0.7507
   40CHL1  H18A 4094   4.268   0.063   6.084  0.0960 -0.1936  0.4285
   40CHL1  H18B 4095   4.363  -0.092   6.109  0.5705  0.5543 -0.3116
   40CHL1  H18C 4096   4.301   0.009   6.248  1.5746  0.1495  1.4357
   40CHL1   C12 4097   4.590   0.031   6.195 -0.2054  0.6243 -0.4039
   40CHL1  H12A 4098   4.589  -0.072   6.153  3.8069  0.0587  0.4580
   40CHL1  H12B 4099   4.689   0.078   6.178 -1.2190  2.3332 -1.9950
   40CHL1   C11 4100   4.566   0.021   6.353 -0.0154  0.4640 -0.2537
   40CHL1  H11A 4101   4.484  -0.052   6.371  1.4083 -0.7949  1.4694
   40CHL1  H11B 4102   4.659  -0.025   6.392  0.5124  1.9521  0.3197
   40CHL1    C9 4103   4.528   0.156   6.414  0.5410 -0.4596  0.1130
   40CHL1    H9 4104   4.619   0.218   6.396  1.6879 -2.3093 -0.7854
   40CHL1   C10 4105   4.502   0.156   6.566 -0.1564 -0.1354  0.3791
   40CHL1   C19 4106   4.393   0.050   6.599 -0.7647  0.5616  0.3180
   40CHL1  H19A 4107   4.439  -0.051   6.587  1.6549  1.5501  0.7436
   40CHL1  H19B 4108   4.351   0.059   6.701 -0.0627 -0.1375  0.6869
   40CHL1  H19C 4109   4.307   0.040   6.530 -0.5171  0.1095  0.0669
   40CHL1    C1 4110   4.637   0.106   6.632  1.3321 -0.6898 -0.3729
   40CHL1   H1A 4111   4.655   0.002   6.598  1.5651 -1.6467  2.3789
   40CHL1   H1B 4112   4.710   0.183   6.597  1.7395  0.0872  1.9975
   40CHL1    C2 4113   4.623   0.118   6.787  0.1672  0.4374  0.7475
   40CHL1   H2A 4114   4.719   0.076   6.825  0.1293 -1.4514 -1.0653
   40CHL1   H2B 4115   4.539   0.052   6.820 -1.8476  1.5077 -1.8721
   40CHL1   C20 4116   4.494   0.034   5.869 -0.9546  0.1711 -0.1179
   40CHL1   H20 4117   4.420  -0.043   5.900 -0.9501  0.4538  0.6237
   40CHL1   C21 4118   4.634  -0.028   5.857  0.0882  0.1384  0.2541
   40CHL1  H21A 4119   4.673  -0.080   5.946 -0.7510 -0.6178  0.1947
   40CHL1  H21B 4120   4.711   0.048   5.829  1.5253 -1.5442 -0.5176
   40CHL1  H21C 4121   4.631  -0.106   5.778 -0.5089 -1.3513  1.7155
   40CHL1   C22 4122   4.470   0.093   5.723  0.6011  0.3722 -0.4270
   40CHL1  H22A 4123   4.381   0.160   5.727  0.3947  0.2329 -1.9578
   40CHL1  H22B 4124   4.544   0.163   5.681 -1.4932  0.8216 -3.7402
   40CHL1   C23 4125   4.437  -0.014   5.616  0.4693  0.4132 -0.0984
   40CHL1  H23A 4126   4.505  -0.102   5.622 -0.3821 -0.2971 -0.5119
   40CHL1  H23B 4127   4.343  -0.062   5.649 -0.3621  0.8066 -1.7720
   40CHL1   C24 4128   4.419   0.039   5.473 -0.3393 -0.0650  0.1716
   40CHL1  H24A 4129   4.375   0.139   5.493  1.7914  0.5829  2.0876
   40CHL1  H24B 4130   4.520   0.048   5.429 -1.7602 -1.1737 -3.7044
   40CHL1   C25 4131   4.324  -0.049   5.391 -0.4739 -0.1903  0.2200
   40CHL1   H25 4132   4.224  -0.054   5.439 -0.4594  2.8793  0.7414
   40CHL1   C26 4133   4.313   0.024   5.258 -0.1720 -0.1498 -0.3453
   40CHL1  H26A 4134   4.413   0.034   5.210 -0.8369  0.0514 -1.7279
   40CHL1  H26B 4135   4.251  -0.023   5.179  1.0467  0.3456 -1.6259
   40CHL1  H26C 4136   4.278   0.127   5.280  0.9767 -0.0447  1.2061
   40CHL1   C27 4137   4.377  -0.192   5.365  0.1692 -0.5172 -0.1947
   40CHL1  H27A 4138   4.454  -0.207   5.286 -0.6035 -1.6675 -0.7550
   40CHL1  H27B 4139   4.441  -0.225   5.450  0.6407  2.3346  0.6504
   40CHL1  H27C 4140   4.295  -0.263   5.345 -0.0352 -0.1921 -0.5110
   41CHL1    C3 4141   0.504   1.046   5.965  0.1227  0.7426  0.6318
   41CHL1    H3 4142   0.494   0.938   5.941 -0.7084  1.1490 -0.9741
   41CHL1    O3 4143   0.488   1.054   6.105  0.2389 -0.4892 -0.1849
   41CHL1   H3' 4144   0.573   1.080   6.141 -0.2807  1.5388 -0.3301
   41CHL1    C4 4145   0.644   1.093   5.926  0.1901  0.6790  0.1608
   41CHL1   H4A 4146   0.680   1.191   5.964  0.5596  0.8055 -0.4968
   41CHL1   H4B 4147   0.713   1.028   5.982 -1.8104 -0.2097  1.7200
   41CHL1    C5 4148   0.680   1.097   5.780  0.1052 -0.5788  0.2958
   41CHL1    C6 4149   0.776   1.031   5.710 -0.1379 -0.4936 -0.2693
   41CHL1    H6 4150   0.836   0.954   5.760 -0.0960 -0.1531  0.2182
   41CHL1    C7 4151   0.810   1.059   5.566  0.4053 -0.1571  0.2332
   41CHL1   H7A 4152   0.917   1.087   5.557  0.0611  1.1321 -0.0487
   41CHL1   H7B 4153   0.795   0.960   5.516 -0.3926 -0.0314  0.2068
   41CHL1    C8 4154   0.724   1.166   5.496 -0.0099 -0.1711  0.2009
   41CHL1    H8 4155   0.766   1.265   5.524  1.0286 -0.6052  0.1975
   41CHL1   C14 4156   0.712   1.135   5.342  0.7213 -0.3596  0.7845
   41CHL1   H14 4157   0.660   1.039   5.324  2.1975 -0.7789 -1.7455
   41CHL1   C15 4158   0.840   1.117   5.259 -1.1897 -0.6950 -0.2253
   41CHL1  H15A 4159   0.911   1.199   5.286 -2.1449  0.5562 -1.3518
   41CHL1  H15B 4160   0.895   1.022   5.275  0.0524 -0.3782 -2.2070
   41CHL1   C16 4161   0.794   1.139   5.121 -0.2393 -0.0194  0.1970
   41CHL1  H16A 4162   0.852   1.217   5.066 -0.1972  0.1015  0.4126
   41CHL1  H16B 4163   0.805   1.048   5.058 -1.0188 -2.0460  2.8487
   41CHL1   C17 4164   0.646   1.182   5.125 -0.1433 -0.1228 -0.3001
   41CHL1   H17 4165   0.588   1.087   5.115  0.5859 -0.5311 -0.7673
   41CHL1   C13 4166   0.627   1.239   5.270  1.0185 -0.6563  0.1576
   41CHL1   C18 4167   0.697   1.371   5.274 -0.2468  0.1778 -0.0642
   41CHL1  H18A 4168   0.723   1.401   5.378  1.3863 -1.9554  0.2031
   41CHL1  H18B 4169   0.795   1.384   5.223  0.0318  0.4377  0.5257
   41CHL1  H18C 4170   0.634   1.454   5.235  0.8582  1.7073  1.2630
   41CHL1   C12 4171   0.484   1.251   5.324 -0.1870  0.6630 -0.0904
   41CHL1  H12A 4172   0.440   1.345   5.284  0.9707  1.3785  0.2690
   41CHL1  H12B 4173   0.426   1.161   5.295  1.7267  0.2618 -3.0725
   41CHL1   C11 4174   0.489   1.268   5.474 -0.8857 -0.7247 -0.9398
   41CHL1  H11A 4175   0.535   1.369   5.480  1.9480 -1.7408 -3.0577
   41CHL1  H11B 4176   0.387   1.275   5.516 -0.3076  1.2663  0.2845
   41CHL1    C9 4177   0.581   1.171   5.551 -0.3195 -0.7185  0.6626
   41CHL1    H9 4178   0.527   1.075   5.540 -0.5991 -0.7192  1.9194
   41CHL1   C10 4179   0.566   1.185   5.705 -0.0203 -0.6853  0.1660
   41CHL1   C19 4180   0.592   1.335   5.744 -0.4918 -0.2872 -0.2539
   41CHL1  H19A 4181   0.564   1.345   5.851 -1.7639  3.5940 -0.7862
   41CHL1  H19B 4182   0.696   1.368   5.725 -0.9933  2.1998  0.9245
   41CHL1  H19C 4183   0.522   1.407   5.696  0.8000  1.4771  0.4269
   41CHL1    C1 4184   0.421   1.136   5.745  0.1213  0.3771 -0.1168
   41CHL1   H1A 4185   0.335   1.197   5.708 -0.3897 -0.7491 -0.8405
   41CHL1   H1B 4186   0.408   1.032   5.709 -1.7309  1.0658 -1.6597
   41CHL1    C2 4187   0.397   1.126   5.898  0.2151  0.1714 -1.1366
   41CHL1   H2A 4188   0.301   1.074   5.917  0.1632  0.0179 -1.7639
   41CHL1   H2B 4189   0.384   1.229   5.936 -0.5593 -0.0867 -0.6872
   41CHL1   C20 4190   0.597   1.262   4.996  0.4778  0.0698  0.6542
   41CHL1   H20 4191   0.644   1.362   5.012  0.8414 -0.2862  1.8762
   41CHL1   C21 4192   0.446   1.274   4.997  0.1171 -0.0790  0.7059
   41CHL1  H21A 4193   0.403   1.311   4.902 -1.2511  0.0208  1.3328
   41CHL1  H21B 4194   0.411   1.338   5.081  0.7773 -1.2890  1.9387
   41CHL1  H21C 4195   0.407   1.170   5.007  0.0037  0.0415  1.6403
   41CHL1   C22 4196   0.652   1.203   4.869 -0.1763 -0.1753  0.1759
   41CHL1  H22A 4197   0.763   1.197   4.875 -0.2550 -2.0383  0.4658
   41CHL1  H22B 4198   0.611   1.101   4.857  1.6297 -0.8661 -0.5364
   41CHL1   C23 4199   0.619   1.298   4.743 -0.0541  0.8667 -0.3767
   41CHL1  H23A 4200   0.509   1.293   4.728 -0.3205 -1.9369  1.7083
   41CHL1  H23B 4201   0.652   1.398   4.777 -1.4690  0.9559  0.8657
   41CHL1   C24 4202   0.701   1.249   4.625 -0.2741  0.7014  0.2540
   41CHL1  H24A 4203   0.800   1.236   4.673 -0.3965  2.2482  0.9986
   41CHL1  H24B 4204   0.661   1.158   4.575  3.4647 -0.1641 -1.5269
   41CHL1   C25 4205   0.713   1.336   4.497  0.2551  0.7566  0.3179
   41CHL1   H25 4206   0.609   1.345   4.460  0.5218  0.8302 -0.4275
   41CHL1   C26 4207   0.770   1.474   4.529 -0.1015  0.1818 -0.1136
   41CHL1  H26A 4208   0.874   1.479   4.568 -0.0802  0.3821 -0.1942
   41CHL1  H26B 4209   0.761   1.540   4.440  3.1075  1.1701  0.1853
   41CHL1  H26C 4210   0.716   1.519   4.616  2.2705 -1.3750  2.3184
   41CHL1   C27 4211   0.809   1.268   4.398  0.6197  0.9904  0.5645
   41CHL1  H27A 4212   0.914   1.262   4.432  1.4601  1.5459 -1.7628
   41CHL1  H27B 4213   0.765   1.175   4.357 -1.5084  2.8752 -1.7625
   41CHL1  H27C 4214   0.802   1.336   4.310  2.6187  1.6729  0.8881
   42CHL1    C3 4215   6.658   2.265   6.176  0.2941  0.3174 -0.0779
   42CHL1    H3 4216   6.648   2.155   6.161 -2.4111  0.2093  1.6324
   42CHL1    O3 4217   6.700   2.310   6.310 -0.5937  0.2083  0.4178
   42CHL1   H3' 4218   6.768   2.243   6.319 -0.7664 -0.2292 -1.1253
   42CHL1    C4 4219   6.760   2.315   6.065 -0.3556 -0.2654 -0.2124
   42CHL1   H4A 4220   6.772   2.423   6.088  0.9872  0.0682 -2.2377
   42CHL1   H4B 4221   6.853   2.257   6.084  0.2300  0.2005 -1.5344
   42CHL1    C5 4222   6.723   2.289   5.916  0.2604  0.0154 -0.3966
   42CHL1    C6 4223   6.802   2.227   5.825  0.5316  0.3437  0.1862
   42CHL1    H6 4224   6.900   2.186   5.853  0.0398 -1.2732 -0.3422
   42CHL1    C7 4225   6.769   2.196   5.680  0.3055  0.3754 -0.1249
   42CHL1   H7A 4226   6.845   2.235   5.610 -1.0893 -0.0254 -1.9480
   42CHL1   H7B 4227   6.759   2.087   5.660 -0.9714  0.9096 -2.9591
   42CHL1    C8 4228   6.639   2.276   5.634 -0.1881 -0.4439  0.9353
   42CHL1    H8 4229   6.665   2.383   5.619  0.2265 -0.6406  0.2191
   42CHL1   C14 4230   6.578   2.229   5.500 -0.1528  0.5528  0.2754
   42CHL1   H14 4231   6.539   2.127   5.521  0.9990  0.5754  2.9226
   42CHL1   C15 4232   6.683   2.200   5.389  0.1842  0.1052  0.2020
   42CHL1  H15A 4233   6.747   2.289   5.370 -0.1731  0.2392 -0.3705
   42CHL1  H15B 4234   6.754   2.115   5.396  0.6262  0.4545  0.0449
   42CHL1   C16 4235   6.587   2.172   5.274  0.0181  0.4513 -1.1569
   42CHL1  H16A 4236   6.635   2.213   5.183  0.3500  1.2259 -0.6404
   42CHL1  H16B 4237   6.581   2.061   5.266 -0.9363  0.2342  1.4615
   42CHL1   C17 4238   6.449   2.230   5.306  0.0321 -0.3291 -0.1445
   42CHL1   H17 4239   6.401   2.140   5.351  1.4378 -0.0683  2.0396
   42CHL1   C13 4240   6.462   2.305   5.439 -0.2520 -0.5973 -0.0015
   42CHL1   C18 4241   6.512   2.445   5.413 -0.5578 -0.0917  0.4256
   42CHL1  H18A 4242   6.424   2.510   5.397 -0.0769  0.4350 -0.1312
   42CHL1  H18B 4243   6.567   2.490   5.498  0.5914  2.1547 -1.4115
   42CHL1  H18C 4244   6.582   2.450   5.327 -1.8342 -0.3895 -0.6692
   42CHL1   C12 4245   6.353   2.292   5.548  1.2058 -0.1295 -0.2293
   42CHL1  H12A 4246   6.267   2.360   5.530  2.1905  1.0051 -0.8020
   42CHL1  H12B 4247   6.317   2.187   5.549  0.4203  0.1069  1.6523
   42CHL1   C11 4248   6.399   2.336   5.690 -1.0744 -0.5779  0.6504
   42CHL1  H11A 4249   6.412   2.447   5.689  0.5767 -0.7461 -0.6062
   42CHL1  H11B 4250   6.322   2.310   5.766  1.2263 -3.0417  2.3041
   42CHL1    C9 4251   6.532   2.276   5.746  0.6175  0.5459  0.1543
   42CHL1    H9 4252   6.501   2.172   5.770 -0.9172  0.8129 -0.5627
   42CHL1   C10 4253   6.578   2.331   5.886 -0.0388  0.0631 -0.3925
   42CHL1   C19 4254   6.568   2.485   5.887 -0.1788  0.0315  0.1932
   42CHL1  H19A 4255   6.634   2.521   5.805  0.2153  0.4514  0.6910
   42CHL1  H19B 4256   6.464   2.523   5.879 -0.1664  0.9765  3.3770
   42CHL1  H19C 4257   6.600   2.534   5.981  1.0679 -0.4641  0.0459
   42CHL1    C1 4258   6.483   2.272   5.991 -0.4993  0.2164 -0.6112
   42CHL1   H1A 4259   6.377   2.286   5.962 -0.4130 -1.0760 -1.6726
   42CHL1   H1B 4260   6.510   2.164   5.993  1.9590  0.7801  0.9054
   42CHL1    C2 4261   6.510   2.309   6.143 -0.8256 -0.4800  0.3818
   42CHL1   H2A 4262   6.435   2.262   6.209 -0.7660 -1.1472 -0.0211
   42CHL1   H2B 4263   6.505   2.420   6.151 -0.2791 -0.4933  0.9150
   42CHL1   C20 4264   6.369   2.280   5.191 -0.0831  0.2352  0.4275
   42CHL1   H20 4265   6.412   2.372   5.145  1.2890 -1.6816 -2.4423
   42CHL1   C21 4266   6.224   2.306   5.252 -1.0788  0.4108  0.2619
   42CHL1  H21A 4267   6.154   2.312   5.166  0.0461 -1.3901 -0.8382
   42CHL1  H21B 4268   6.225   2.401   5.311  0.4721  0.3729  0.3414
   42CHL1  H21C 4269   6.185   2.228   5.320  0.6400 -0.3472  0.4356
   42CHL1   C22 4270   6.365   2.182   5.076  0.0256 -0.4932  0.9142
   42CHL1  H22A 4271   6.469   2.149   5.055  0.5705  0.1771  2.4292
   42CHL1  H22B 4272   6.314   2.089   5.109 -2.0882  0.3818  0.2733
   42CHL1   C23 4273   6.299   2.228   4.949 -0.2123 -0.3398 -0.1902
   42CHL1  H23A 4274   6.189   2.236   4.965 -0.1140 -0.8752  0.8365
   42CHL1  H23B 4275   6.337   2.331   4.929 -1.2741  0.0249 -0.3918
   42CHL1   C24 4276   6.331   2.129   4.837 -0.1479 -0.4282 -0.7466
   42CHL1  H24A 4277   6.442   2.118   4.833 -0.0965 -0.3878  0.3604
   42CHL1  H24B 4278   6.285   2.030   4.855  1.0268 -0.4808  2.8042
   42CHL1   C25 4279   6.292   2.170   4.691  0.9391 -0.0875  0.3306
   42CHL1   H25 4280   6.332   2.272   4.671 -0.4957  0.1618 -1.5398
   42CHL1   C26 4281   6.338   2.074   4.581 -0.0092  0.2530 -0.9801
   42CHL1  H26A 4282   6.298   1.974   4.606  0.2789 -0.0409 -1.6794
   42CHL1  H26B 4283   6.303   2.109   4.482 -0.3098  0.3014 -0.8576
   42CHL1  H26C 4284   6.448   2.077   4.595  0.0940  0.7351 -1.8180
   42CHL1   C27 4285   6.139   2.195   4.694  0.6958  0.0107 -1.4168
   42CHL1  H27A 4286   6.106   2.269   4.770  0.5486 -0.9680 -0.4979
   42CHL1  H27B 4287   6.103   2.217   4.592 -0.2677 -1.4674 -1.4318
   42CHL1  H27C 4288   6.091   2.095   4.705 -0.0492  0.5776  1.1402
   43CHL1    C3 4289   1.521   3.638   6.340  0.4341  0.0774  0.2069
   43CHL1    H3 4290   1.629   3.661   6.349 -0.0006  2.5368 -0.1320
   43CHL1    O3 4291   1.492   3.625   6.479 -0.0388  0.2710  0.3631
   43CHL1   H3' 4292   1.441   3.702   6.505 -1.8198 -0.6317 -0.2637
   43CHL1    C4 4293   1.442   3.753   6.273 -0.0463  0.1425 -0.1874
   43CHL1   H4A 4294   1.332   3.735   6.278 -0.2494  1.6376  2.5132
   43CHL1   H4B 4295   1.456   3.855   6.316 -0.8185 -0.1533  0.8084
   43CHL1    C5 4296   1.487   3.762   6.122  0.0670 -0.0470 -0.0426
   43CHL1    C6 4297   1.534   3.877   6.071  0.6931 -0.4885  0.6091
   43CHL1    H6 4298   1.544   3.967   6.134  1.1736  1.1463 -1.6904
   43CHL1    C7 4299   1.566   3.900   5.925  0.2839  0.5448 -0.8655
   43CHL1   H7A 4300   1.513   3.991   5.888  0.7293  1.7209  1.2587
   43CHL1   H7B 4301   1.676   3.905   5.917  0.4882 -1.2434  0.2855
   43CHL1    C8 4302   1.520   3.775   5.836  0.2740 -0.6040  0.2978
   43CHL1    H8 4303   1.413   3.791   5.811  0.3270 -2.6395 -1.5223
   43CHL1   C14 4304   1.603   3.780   5.711  0.4486 -0.0776 -0.3586
   43CHL1   H14 4305   1.710   3.764   5.738  0.0953  0.1069  1.2816
   43CHL1   C15 4306   1.586   3.907   5.626 -0.4894  0.4581  0.3605
   43CHL1  H15A 4307   1.477   3.929   5.628 -0.6881 -0.4818  1.0387
   43CHL1  H15B 4308   1.636   3.995   5.672 -1.2695  1.0160  0.1617
   43CHL1   C16 4309   1.646   3.867   5.496  0.1009 -0.1193 -0.4677
   43CHL1  H16A 4310   1.592   3.911   5.409 -0.8017 -1.6631 -0.7188
   43CHL1  H16B 4311   1.752   3.901   5.497  1.3003 -3.3494  2.8316
   43CHL1   C17 4312   1.660   3.707   5.492 -0.4306 -0.4528  0.7447
   43CHL1   H17 4313   1.762   3.676   5.523  0.3445  0.4789 -0.7726
   43CHL1   C13 4314   1.576   3.663   5.612  0.6316 -0.5941 -0.0577
   43CHL1   C18 4315   1.424   3.653   5.571 -0.6336 -0.2202 -0.3848
   43CHL1  H18A 4316   1.405   3.567   5.502 -1.6685 -1.8314  1.7876
   43CHL1  H18B 4317   1.356   3.649   5.658 -0.0046  0.8155  0.1740
   43CHL1  H18C 4318   1.394   3.744   5.514  1.2323  0.7670  0.1335
   43CHL1   C12 4319   1.621   3.529   5.682  0.0641  0.2456 -0.9650
   43CHL1  H12A 4320   1.599   3.438   5.622 -2.7056  0.8609 -1.0144
   43CHL1  H12B 4321   1.730   3.534   5.702 -0.3360 -0.1171  1.6393
   43CHL1   C11 4322   1.538   3.515   5.814  0.4455  0.1551 -0.2684
   43CHL1  H11A 4323   1.429   3.501   5.794  0.1583 -2.7388  2.4518
   43CHL1  H11B 4324   1.551   3.412   5.854  0.1204  0.0054 -0.5396
   43CHL1    C9 4325   1.553   3.640   5.905 -0.4000  0.3821 -0.4250
   43CHL1    H9 4326   1.660   3.647   5.932 -0.2679 -1.3317 -0.3773
   43CHL1   C10 4327   1.476   3.631   6.038  0.3120  0.1037  0.9912
   43CHL1   C19 4328   1.325   3.614   6.005 -0.7565  0.3707  0.5311
   43CHL1  H19A 4329   1.264   3.610   6.098 -0.9537 -0.6166  0.3641
   43CHL1  H19B 4330   1.283   3.692   5.938  1.3757  2.0206  0.9754
   43CHL1  H19C 4331   1.304   3.518   5.953 -0.3641  0.0268  0.9985
   43CHL1    C1 4332   1.525   3.508   6.117  0.6227  0.2060 -0.6473
   43CHL1   H1A 4333   1.482   3.417   6.068 -0.0077  0.5288 -0.6964
   43CHL1   H1B 4334   1.635   3.509   6.133  0.5558  3.5301  0.3202
   43CHL1    C2 4335   1.490   3.503   6.264  0.4440 -0.1995  0.5478
   43CHL1   H2A 4336   1.541   3.421   6.318 -1.0992 -2.0008 -0.5889
   43CHL1   H2B 4337   1.380   3.489   6.267  0.4652 -0.2070  2.0635
   43CHL1   C20 4338   1.642   3.640   5.354 -0.1509 -0.1388 -0.8786
   43CHL1   H20 4339   1.535   3.648   5.324 -0.6249 -1.0403  0.4837
   43CHL1   C21 4340   1.678   3.490   5.377 -0.2030 -0.3470 -0.2281
   43CHL1  H21A 4341   1.774   3.485   5.433 -0.3670 -1.0999 -0.0089
   43CHL1  H21B 4342   1.699   3.434   5.284  0.7092  1.2214 -1.0046
   43CHL1  H21C 4343   1.597   3.441   5.436 -0.5326  0.1974 -0.2172
   43CHL1   C22 4344   1.738   3.700   5.246  0.1875 -0.0366 -0.6071
   43CHL1  H22A 4345   1.727   3.811   5.245 -2.3567 -0.1840  1.3565
   43CHL1  H22B 4346   1.833   3.659   5.286 -0.1066 -0.3660 -0.2420
   43CHL1   C23 4347   1.731   3.660   5.099  0.6452 -0.1459  0.0764
   43CHL1  H23A 4348   1.747   3.551   5.079 -1.1990 -1.0339  2.9253
   43CHL1  H23B 4349   1.639   3.704   5.055 -0.0611 -1.4554  0.1700
   43CHL1   C24 4350   1.854   3.721   5.021 -0.3091 -0.7062 -0.2018
   43CHL1  H24A 4351   1.848   3.832   5.012 -0.2576 -0.7476 -0.7471
   43CHL1  H24B 4352   1.939   3.702   5.089 -0.6896  0.8393  0.7591
   43CHL1   C25 4353   1.873   3.663   4.885  0.5162 -0.2961  0.3620
   43CHL1   H25 4354   1.890   3.553   4.896  3.8822  0.0269 -0.5051
   43CHL1   C26 4355   1.749   3.684   4.794  0.6157  0.7208 -0.0005
   43CHL1  H26A 4356   1.771   3.679   4.685  0.9275  3.1634 -0.1071
   43CHL1  H26B 4357   1.668   3.616   4.828  0.2953  1.2810  0.3826
   43CHL1  H26C 4358   1.702   3.784   4.809 -3.0742 -0.8431 -0.1059
   43CHL1   C27 4359   1.992   3.720   4.810  0.4232  0.0404 -0.0870
   43CHL1  H27A 4360   2.083   3.734   4.872  0.7384 -0.1780 -0.4914
   43CHL1  H27B 4361   2.010   3.661   4.717 -0.4008 -0.0250 -0.2135
   43CHL1  H27C 4362   1.954   3.816   4.770  0.3335 -0.5132 -1.3765
   44CHL1    C3 4363   6.796   5.612   5.973  0.6163  0.1423 -0.4916
   44CHL1    H3 4364   6.809   5.504   5.997  1.0451  0.4273  0.5908
   44CHL1    O3 4365   6.803   5.675   6.100  0.6126 -0.3526 -0.0299
   44CHL1   H3' 4366   6.756   5.620   6.163 -1.0423  1.9201  0.8495
   44CHL1    C4 4367   6.889   5.684   5.872  0.3676  0.1490  0.2509
   44CHL1   H4A 4368   6.839   5.783   5.863  0.6375  0.0806 -2.7442
   44CHL1   H4B 4369   6.987   5.703   5.920  0.8741 -1.3211 -0.1542
   44CHL1    C5 4370   6.887   5.619   5.735 -0.3799  0.6049 -0.1961
   44CHL1    C6 4371   6.994   5.558   5.686 -0.3105 -0.7619 -0.2691
   44CHL1    H6 4372   7.087   5.552   5.743  0.7905  2.4375 -1.5133
   44CHL1    C7 4373   7.005   5.492   5.552  0.6616  0.3068  0.1623
   44CHL1   H7A 4374   7.095   5.533   5.500  2.2284  0.5422  2.8444
   44CHL1   H7B 4375   7.007   5.381   5.561  0.8371  0.2755 -0.2502
   44CHL1    C8 4376   6.883   5.533   5.461 -0.3461  0.0188 -0.5569
   44CHL1    H8 4377   6.904   5.637   5.426  0.0938  0.8943  2.0975
   44CHL1   C14 4378   6.885   5.432   5.344 -0.1591 -0.8695 -1.3552
   44CHL1   H14 4379   6.858   5.333   5.387 -0.3812 -0.1245  0.2801
   44CHL1   C15 4380   7.019   5.411   5.268 -0.2714  0.1468  1.2055
   44CHL1  H15A 4381   7.082   5.502   5.257  0.5253 -0.1355  3.1211
   44CHL1  H15B 4382   7.081   5.330   5.311  2.2198  0.7673 -0.9859
   44CHL1   C16 4383   6.969   5.360   5.127  0.0934 -0.9908  0.0022
   44CHL1  H16A 4384   7.008   5.430   5.050  0.3244  2.4511  3.0202
   44CHL1  H16B 4385   7.003   5.255   5.111  1.8512 -0.7187  1.6472
   44CHL1   C17 4386   6.809   5.364   5.126  0.3678  0.0027  0.4260
   44CHL1   H17 4387   6.780   5.267   5.170  1.8819 -0.7408 -0.1561
   44CHL1   C13 4388   6.782   5.468   5.235 -0.8338  0.6798  0.3997
   44CHL1   C18 4389   6.820   5.606   5.171  1.0781 -0.3715  0.1577
   44CHL1  H18A 4390   6.817   5.693   5.240  1.5202  0.5240 -0.9137
   44CHL1  H18B 4391   6.920   5.606   5.122  0.8415  0.7053 -0.3472
   44CHL1  H18C 4392   6.743   5.625   5.093 -1.3569 -1.2035  2.2414
   44CHL1   C12 4393   6.641   5.459   5.304 -0.0470  0.0387  0.6994
   44CHL1  H12A 4394   6.552   5.487   5.244 -0.2887  0.2727  1.1599
   44CHL1  H12B 4395   6.637   5.350   5.321  0.8946 -0.7638 -3.3512
   44CHL1   C11 4396   6.637   5.553   5.431 -0.2551 -0.5262 -0.1998
   44CHL1  H11A 4397   6.645   5.653   5.383 -0.4782  0.2285  1.2709
   44CHL1  H11B 4398   6.537   5.553   5.481  1.3360  1.5918  3.3862
   44CHL1    C9 4399   6.752   5.533   5.532  0.3804 -0.3259 -0.3182
   44CHL1    H9 4400   6.741   5.426   5.561  1.5213 -0.3976 -0.0982
   44CHL1   C10 4401   6.749   5.616   5.669  0.1547  0.0260 -0.1261
   44CHL1   C19 4402   6.710   5.758   5.630 -0.0462 -0.0151 -0.4202
   44CHL1  H19A 4403   6.692   5.828   5.715  2.2383 -0.1878  0.2690
   44CHL1  H19B 4404   6.791   5.805   5.569  1.1366  0.1643  1.1987
   44CHL1  H19C 4405   6.613   5.760   5.576 -0.8862 -0.7022  1.0006
   44CHL1    C1 4406   6.650   5.560   5.774  0.3711  0.2809 -0.6257
   44CHL1   H1A 4407   6.547   5.564   5.731  0.5690 -1.2723 -1.3108
   44CHL1   H1B 4408   6.663   5.451   5.787 -0.2839  0.3568  0.8566
   44CHL1    C2 4409   6.655   5.621   5.917 -0.7716  0.2671  0.7442
   44CHL1   H2A 4410   6.582   5.566   5.980 -2.2438  0.6570 -0.5574
   44CHL1   H2B 4411   6.635   5.730   5.915  2.3787  0.9319 -1.5013
   44CHL1   C20 4412   6.754   5.372   4.987  0.0397 -0.4411 -0.3792
   44CHL1   H20 4413   6.790   5.466   4.940  2.2039 -1.0725 -0.0811
   44CHL1   C21 4414   6.603   5.368   4.985  0.9025 -0.6293 -0.4248
   44CHL1  H21A 4415   6.572   5.277   5.040  0.0153  0.7394  1.4425
   44CHL1  H21B 4416   6.566   5.366   4.880  0.1939 -1.9376 -0.1717
   44CHL1  H21C 4417   6.557   5.448   5.047  0.2649 -0.9259 -0.5053
   44CHL1   C22 4418   6.798   5.249   4.894 -0.9926  0.0888 -0.0360
   44CHL1  H22A 4419   6.909   5.244   4.902 -0.8302  1.6347 -0.8026
   44CHL1  H22B 4420   6.767   5.154   4.942 -0.8120 -0.7882 -1.5852
   44CHL1   C23 4421   6.761   5.244   4.748 -0.4069  0.1635 -0.0822
   44CHL1  H23A 4422   6.656   5.214   4.729 -0.2335 -0.2478 -0.3974
   44CHL1  H23B 4423   6.772   5.347   4.709 -0.3394  1.1715  2.4246
   44CHL1   C24 4424   6.860   5.149   4.666  0.2748 -0.6300 -0.9013
   44CHL1  H24A 4425   6.965   5.184   4.672  0.2335 -0.6250 -0.0069
   44CHL1  H24B 4426   6.844   5.049   4.712  0.7509  0.6644  2.4258
   44CHL1   C25 4427   6.824   5.131   4.518  0.3639  0.3850 -0.1779
   44CHL1   H25 4428   6.887   5.048   4.480 -1.1797 -0.5323 -0.8379
   44CHL1   C26 4429   6.680   5.096   4.493 -0.1459  0.4010  0.6861
   44CHL1  H26A 4430   6.653   5.022   4.571 -0.0602 -0.7494 -0.3435
   44CHL1  H26B 4431   6.614   5.185   4.496 -0.0805  0.4207  1.8282
   44CHL1  H26C 4432   6.677   5.049   4.392  2.6404  0.6674  0.3962
   44CHL1   C27 4433   6.865   5.248   4.426  0.0192  0.3802 -1.1526
   44CHL1  H27A 4434   6.835   5.212   4.325  1.3819 -1.2232 -1.0251
   44CHL1  H27B 4435   6.807   5.341   4.443 -0.7580 -0.0755 -1.2470
   44CHL1  H27C 4436   6.973   5.273   4.430  0.5898 -1.9647  1.4159
   45CHL1    C3 4437   1.472   6.623   6.172 -1.0892 -0.1782  0.1104
   45CHL1    H3 4438   1.526   6.718   6.150  0.0063 -0.9661 -0.6966
   45CHL1    O3 4439   1.506   6.580   6.297  0.9131  0.0695  0.4328
   45CHL1   H3' 4440   1.437   6.520   6.327 -0.2040 -0.9625 -3.5528
   45CHL1    C4 4441   1.321   6.647   6.151  0.6136  0.4441 -0.3359
   45CHL1   H4A 4442   1.274   6.553   6.185  1.4054 -0.4474 -1.6375
   45CHL1   H4B 4443   1.300   6.725   6.228 -0.3089 -0.1509  0.0326
   45CHL1    C5 4444   1.275   6.665   6.013 -0.0754  0.0531 -0.1353
   45CHL1    C6 4445   1.193   6.759   5.975 -0.2564 -0.0289 -0.7717
   45CHL1    H6 4446   1.164   6.830   6.053  1.1427  2.1463 -2.1349
   45CHL1    C7 4447   1.150   6.790   5.839 -0.2073  0.4396  0.6134
   45CHL1   H7A 4448   1.045   6.817   5.816 -0.2674  1.7441  2.2248
   45CHL1   H7B 4449   1.215   6.873   5.805  0.9374  0.1433  1.9577
   45CHL1    C8 4450   1.180   6.668   5.741 -0.6177 -0.3210  0.1978
   45CHL1    H8 4451   1.098   6.594   5.751 -2.2183  1.2049 -1.0896
   45CHL1   C14 4452   1.182   6.724   5.600 -0.1905  0.1232  0.8583
   45CHL1   H14 4453   1.269   6.792   5.590 -0.2282 -0.1282 -2.3509
   45CHL1   C15 4454   1.073   6.820   5.542 -0.0212 -0.5566 -0.0823
   45CHL1  H15A 4455   0.976   6.768   5.557  0.3854 -0.7211  2.6676
   45CHL1  H15B 4456   1.062   6.919   5.592  0.4842 -1.1495  1.2765
   45CHL1   C16 4457   1.105   6.826   5.391 -0.4621  0.4345  0.1512
   45CHL1  H16A 4458   1.008   6.820   5.338 -0.0765  3.3406 -1.0390
   45CHL1  H16B 4459   1.152   6.924   5.367 -1.6540  0.9441 -0.1323
   45CHL1   C17 4460   1.203   6.705   5.362  1.4445  0.1700  0.0610
   45CHL1   H17 4461   1.304   6.748   5.343  0.9952  1.1989 -0.0384
   45CHL1   C13 4462   1.205   6.617   5.494 -0.1292 -0.0965 -0.3447
   45CHL1   C18 4463   1.093   6.512   5.489 -0.3538  0.4982  0.7160
   45CHL1  H18A 4464   0.998   6.557   5.457 -0.8075 -1.6076 -1.1653
   45CHL1  H18B 4465   1.128   6.432   5.420 -0.3922 -0.8520  2.1985
   45CHL1  H18C 4466   1.081   6.472   5.592  0.9967  2.8997  1.9005
   45CHL1   C12 4467   1.345   6.558   5.515 -0.3576 -0.2604  0.1927
   45CHL1  H12A 4468   1.369   6.482   5.437  1.8529 -1.4526  1.8920
   45CHL1  H12B 4469   1.422   6.638   5.512 -0.6863  0.0572  0.2427
   45CHL1   C11 4470   1.355   6.496   5.659 -0.3097 -0.7424  0.4801
   45CHL1  H11A 4471   1.282   6.413   5.656 -2.7111  1.3078 -1.2068
   45CHL1  H11B 4472   1.460   6.461   5.671  0.2640  0.6980 -0.0743
   45CHL1    C9 4473   1.317   6.604   5.769  0.6582  0.2360 -0.8177
   45CHL1    H9 4474   1.391   6.685   5.756  3.2266 -2.3423 -4.1062
   45CHL1   C10 4475   1.336   6.560   5.912  0.2931  0.2855 -0.0270
   45CHL1   C19 4476   1.282   6.418   5.927  0.0189  0.3376  0.2610
   45CHL1  H19A 4477   1.353   6.351   5.873  1.8371  2.3305  0.0473
   45CHL1  H19B 4478   1.262   6.387   6.032  0.1754 -0.8323 -0.0400
   45CHL1  H19C 4479   1.183   6.410   5.877 -1.3876  1.3888  2.6706
   45CHL1    C1 4480   1.482   6.567   5.936  0.2044 -0.9810 -0.3736
   45CHL1   H1A 4481   1.537   6.496   5.870 -0.1907 -1.0925 -0.5866
   45CHL1   H1B 4482   1.524   6.670   5.929  0.1022 -0.8923  0.2902
   45CHL1    C2 4483   1.527   6.516   6.078 -0.3539 -0.9373  0.3920
   45CHL1   H2A 4484   1.637   6.514   6.089 -0.0151  0.6669 -2.0403
   45CHL1   H2B 4485   1.488   6.415   6.104 -2.1113 -0.7637 -1.3355
   45CHL1   C20 4486   1.167   6.631   5.230 -0.2713  0.0131 -0.1503
   45CHL1   H20 4487   1.063   6.591   5.232 -0.0050 -0.7485 -0.9850
   45CHL1   C21 4488   1.277   6.527   5.206 -0.3168  1.0619 -0.0684
   45CHL1  H21A 4489   1.265   6.432   5.263  0.4604  0.3165 -1.1030
   45CHL1  H21B 4490   1.377   6.573   5.220 -0.1109 -0.0003  2.3780
   45CHL1  H21C 4491   1.279   6.495   5.099  0.3111  0.1520  0.2072
   45CHL1   C22 4492   1.156   6.732   5.111 -0.5134 -0.1466  0.6896
   45CHL1  H22A 4493   1.110   6.829   5.139  0.9942  1.0419 -0.7805
   45CHL1  H22B 4494   1.264   6.752   5.092 -0.5935 -0.4843 -0.1353
   45CHL1   C23 4495   1.084   6.664   4.994  0.3664 -0.4314 -0.2562
   45CHL1  H23A 4496   1.151   6.589   4.946  1.2758  0.3751 -0.2910
   45CHL1  H23B 4497   0.985   6.621   5.020 -0.7230  1.1339 -1.6064
   45CHL1   C24 4498   1.054   6.768   4.876 -0.1613  0.8763  0.1644
   45CHL1  H24A 4499   0.980   6.836   4.925 -1.0396  0.5571 -0.6943
   45CHL1  H24B 4500   1.144   6.829   4.856  0.0734  1.4712  2.6235
   45CHL1   C25 4501   0.975   6.708   4.758  0.2180  0.0205 -0.7909
   45CHL1   H25 4502   0.888   6.661   4.809  1.4866  0.3725  1.8843
   45CHL1   C26 4503   0.925   6.810   4.657  0.0307  0.1827  0.3108
   45CHL1  H26A 4504   0.866   6.750   4.585  0.5248 -1.7241  1.4351
   45CHL1  H26B 4505   0.860   6.881   4.714 -0.5138  1.0486 -1.3364
   45CHL1  H26C 4506   1.006   6.860   4.601 -1.5604 -0.3781 -2.7332
   45CHL1   C27 4507   1.060   6.610   4.676  0.5851 -0.0550 -0.0340
   45CHL1  H27A 4508   1.087   6.524   4.741 -2.1379 -0.5881  0.4770
   45CHL1  H27B 4509   1.011   6.582   4.580 -1.4283 -0.9011  1.1931
   45CHL1  H27C 4510   1.158   6.654   4.647  0.2106  1.1262  0.4408
   46CHL1    C3 4511   5.111   6.852   6.455 -1.0483 -0.1786 -0.8989
   46CHL1    H3 4512   5.135   6.745   6.434  1.2205  0.5803 -2.7335
   46CHL1    O3 4513   5.115   6.881   6.596 -0.1439  0.5329 -0.0964
   46CHL1   H3' 4514   5.063   6.815   6.642 -0.1539 -0.5883 -1.6487
   46CHL1    C4 4515   5.225   6.930   6.382  0.8530  0.1447  0.3402
   46CHL1   H4A 4516   5.206   7.038   6.395  0.8190  0.1964 -0.1377
   46CHL1   H4B 4517   5.317   6.901   6.437  0.0166  0.9667  2.2816
   46CHL1    C5 4518   5.232   6.894   6.237 -0.5697 -0.2008  0.7204
   46CHL1    C6 4519   5.346   6.866   6.171 -0.2865 -0.2151  0.2627
   46CHL1    H6 4520   5.442   6.863   6.224  1.1488  1.3604 -2.0744
   46CHL1    C7 4521   5.351   6.856   6.018  0.0519 -0.5116  0.1101
   46CHL1   H7A 4522   5.435   6.914   5.975  0.6273 -0.9618  0.6015
   46CHL1   H7B 4523   5.380   6.749   6.007 -2.5505 -1.2753 -0.2328
   46CHL1    C8 4524   5.219   6.881   5.943  0.5439  0.1465  0.2260
   46CHL1    H8 4525   5.209   6.991   5.931 -0.9292  0.1751  1.3700
   46CHL1   C14 4526   5.219   6.817   5.802  0.5306 -0.3312 -0.1400
   46CHL1   H14 4527   5.231   6.707   5.809  0.4466 -0.2568  1.4542
   46CHL1   C15 4528   5.327   6.859   5.710 -0.7943  0.1727 -0.2528
   46CHL1  H15A 4529   5.358   6.965   5.726  0.8446 -0.7647  4.2091
   46CHL1  H15B 4530   5.423   6.806   5.722 -0.5398  0.6414 -0.1941
   46CHL1   C16 4531   5.273   6.834   5.574  0.0580  0.3813  0.1721
   46CHL1  H16A 4532   5.279   6.927   5.513 -0.8963 -0.5907 -1.4539
   46CHL1  H16B 4533   5.337   6.762   5.520  0.9300  2.5610 -1.8989
   46CHL1   C17 4534   5.120   6.792   5.591  0.7688  0.1174 -0.4411
   46CHL1   H17 4535   5.120   6.682   5.606 -0.4179  0.2228  0.4977
   46CHL1   C13 4536   5.085   6.849   5.731  0.3968 -0.1613 -0.2646
   46CHL1   C18 4537   5.060   6.997   5.717 -0.0029  0.1988  0.6750
   46CHL1  H18A 4538   5.041   7.032   5.821  2.6875  1.3083  0.8664
   46CHL1  H18B 4539   5.153   7.050   5.690 -0.6067  0.4503 -1.0683
   46CHL1  H18C 4540   4.975   7.024   5.650  0.2084  0.1094  0.3731
   46CHL1   C12 4541   4.965   6.785   5.803 -0.2705 -0.1736  0.1227
   46CHL1  H12A 4542   4.873   6.813   5.749 -0.6938 -1.4958  0.1316
   46CHL1  H12B 4543   4.979   6.675   5.799 -0.9789 -0.2774  0.3524
   46CHL1   C11 4544   4.964   6.829   5.947 -0.0140 -0.2861 -0.0459
   46CHL1  H11A 4545   4.916   6.928   5.957 -1.2823 -0.5413 -2.7448
   46CHL1  H11B 4546   4.904   6.743   5.984  1.7103 -0.7408  1.9360
   46CHL1    C9 4547   5.099   6.826   6.022 -0.7351 -0.4665  0.8927
   46CHL1    H9 4548   5.127   6.722   6.045 -1.9720 -0.9838  0.1655
   46CHL1   C10 4549   5.091   6.913   6.157 -0.2815  0.3054 -0.5886
   46CHL1   C19 4550   5.071   7.062   6.138 -0.2990 -0.1324  0.2504
   46CHL1  H19A 4551   5.057   7.118   6.233  2.4227  1.2322 -0.0377
   46CHL1  H19B 4552   5.157   7.103   6.080 -2.5830  1.2374 -2.4249
   46CHL1  H19C 4553   4.980   7.085   6.078 -0.2866 -1.7649 -0.4380
   46CHL1    C1 4554   4.974   6.850   6.250 -0.9500 -0.9294  0.2412
   46CHL1   H1A 4555   4.878   6.886   6.209 -0.0245  1.5677  0.1003
   46CHL1   H1B 4556   4.987   6.740   6.237  0.1081 -0.6670 -1.1641
   46CHL1    C2 4557   4.979   6.883   6.399 -0.2473  0.3749  0.4120
   46CHL1   H2A 4558   4.907   6.828   6.462 -1.3382  1.3452  0.0400
   46CHL1   H2B 4559   4.958   6.992   6.412 -0.4753  0.4390 -0.4390
   46CHL1   C20 4560   5.036   6.833   5.471  0.0459 -0.2130 -0.4089
   46CHL1   H20 4561   5.041   6.944   5.470 -0.1624 -0.1911  0.3178
   46CHL1   C21 4562   4.888   6.792   5.482  1.0031  0.1931  0.0164
   46CHL1  H21A 4563   4.849   6.789   5.378 -1.1850 -1.5473  0.7996
   46CHL1  H21B 4564   4.824   6.860   5.543 -0.1789  0.6371 -1.6265
   46CHL1  H21C 4565   4.884   6.696   5.538  0.4963  0.0197 -0.3073
   46CHL1   C22 4566   5.087   6.772   5.335  0.0863  0.3426  0.3098
   46CHL1  H22A 4567   5.197   6.765   5.351  0.4686  0.6616 -1.8405
   46CHL1  H22B 4568   5.037   6.676   5.309  0.7624 -0.2651  1.1540
   46CHL1   C23 4569   5.058   6.873   5.213 -0.6219  0.6427 -0.0685
   46CHL1  H23A 4570   4.949   6.896   5.219 -0.2503  2.3194  1.1249
   46CHL1  H23B 4571   5.118   6.965   5.232  0.4289  0.3138 -1.6676
   46CHL1   C24 4572   5.084   6.814   5.080 -0.6603 -0.0482  0.1249
   46CHL1  H24A 4573   5.043   6.712   5.065 -0.4813 -0.5160  2.4155
   46CHL1  H24B 4574   5.054   6.885   5.001 -2.3487 -1.1836 -0.2952
   46CHL1   C25 4575   5.240   6.795   5.056 -0.2187  0.4126 -0.0564
   46CHL1   H25 4576   5.291   6.750   5.143  0.1353 -1.6843 -1.2639
   46CHL1   C26 4577   5.260   6.703   4.937 -0.4234 -0.2040 -0.2707
   46CHL1  H26A 4578   5.254   6.596   4.967  4.2403 -0.0404  2.2234
   46CHL1  H26B 4579   5.191   6.717   4.851  0.9865 -0.4491 -1.4903
   46CHL1  H26C 4580   5.361   6.710   4.890 -1.0602  2.1128 -1.4814
   46CHL1   C27 4581   5.321   6.924   5.029 -0.3086 -0.4681 -0.2358
   46CHL1  H27A 4582   5.427   6.903   5.003 -0.5334  0.3245 -1.9025
   46CHL1  H27B 4583   5.281   6.995   4.954  1.0157  0.5955  0.0022
   46CHL1  H27C 4584   5.331   6.981   5.124  0.0089 -0.0547 -0.5085
   47CHL1    C3 4585   3.454   2.423   6.378 -0.1897 -0.2922 -0.2957
   47CHL1    H3 4586   3.537   2.370   6.327  0.1585  0.1248 -0.1685
   47CHL1    O3 4587   3.515   2.493   6.493 -0.0491 -0.3089  0.6941
   47CHL1   H3' 4588   3.540   2.427   6.558 -1.9283 -0.0243  1.7996
   47CHL1    C4 4589   3.399   2.535   6.291  0.8270 -0.4495 -0.4737
   47CHL1   H4A 4590   3.321   2.596   6.341  0.5193  0.4106 -1.9374
   47CHL1   H4B 4591   3.481   2.608   6.270 -1.4872  1.7353 -2.6923
   47CHL1    C5 4592   3.342   2.486   6.161  0.1123  0.3413 -0.5107
   47CHL1    C6 4593   3.393   2.515   6.044 -0.8072  0.0619  0.3814
   47CHL1    H6 4594   3.471   2.592   6.034 -0.9147  0.2976  1.2442
   47CHL1    C7 4595   3.340   2.449   5.913 -0.3730  0.5900  0.3026
   47CHL1   H7A 4596   3.339   2.523   5.830  1.8544 -2.2450 -2.4724
   47CHL1   H7B 4597   3.407   2.364   5.887 -0.7078 -0.3556  2.3484
   47CHL1    C8 4598   3.197   2.386   5.937 -0.1239 -0.0451  0.7921
   47CHL1    H8 4599   3.121   2.466   5.947 -0.0526 -0.2375  3.7877
   47CHL1   C14 4600   3.157   2.304   5.813  0.0630  0.0327 -0.3855
   47CHL1   H14 4601   3.229   2.220   5.800  1.2262  0.7431  1.1148
   47CHL1   C15 4602   3.139   2.371   5.678 -0.4073 -0.4459  0.6675
   47CHL1  H15A 4603   3.084   2.466   5.693  1.0112  0.8754 -1.9100
   47CHL1  H15B 4604   3.241   2.387   5.637 -0.2662 -1.3211  0.6516
   47CHL1   C16 4605   3.059   2.269   5.594  0.4543  0.2103 -0.0564
   47CHL1  H16A 4606   2.964   2.319   5.563  0.1370 -1.1689 -1.4507
   47CHL1  H16B 4607   3.099   2.227   5.499  0.0503  1.2295 -0.6946
   47CHL1   C17 4608   3.016   2.159   5.692  0.3232  0.4733 -0.0374
   47CHL1   H17 4609   3.103   2.090   5.679  0.2230 -0.2840  2.6997
   47CHL1   C13 4610   3.033   2.221   5.835 -0.5968 -0.5946  0.5975
   47CHL1   C18 4611   2.911   2.314   5.858 -0.4042 -0.6665 -0.4369
   47CHL1  H18A 4612   2.922   2.376   5.950 -3.0138 -2.3713  1.2001
   47CHL1  H18B 4613   2.892   2.387   5.777 -2.9122 -0.9096 -0.1518
   47CHL1  H18C 4614   2.817   2.256   5.866 -0.2902 -0.7712  0.2036
   47CHL1   C12 4615   3.053   2.132   5.954  0.1719  0.4261  0.6836
   47CHL1  H12A 4616   2.957   2.076   5.959 -0.5409  1.2856 -1.7790
   47CHL1  H12B 4617   3.125   2.048   5.949  0.6759  0.8864  0.0232
   47CHL1   C11 4618   3.084   2.204   6.081 -0.4008  0.4429 -1.0186
   47CHL1  H11A 4619   2.991   2.248   6.121  0.1838  0.6437  0.1740
   47CHL1  H11B 4620   3.109   2.126   6.157 -1.6213  0.0403 -1.0063
   47CHL1    C9 4621   3.199   2.308   6.067  0.2266  0.7208 -0.9553
   47CHL1    H9 4622   3.286   2.239   6.062 -1.1435 -1.2235  0.4374
   47CHL1   C10 4623   3.233   2.389   6.189 -0.5709 -0.1858  0.1020
   47CHL1   C19 4624   3.111   2.468   6.229  0.6228 -0.1310 -0.0364
   47CHL1  H19A 4625   3.074   2.529   6.144 -2.1274 -2.1522 -0.4028
   47CHL1  H19B 4626   3.025   2.405   6.262  0.8678  0.2992  1.5386
   47CHL1  H19C 4627   3.134   2.525   6.322 -1.1550 -0.1923  0.4697
   47CHL1    C1 4628   3.259   2.290   6.308 -0.3162 -0.1924  0.1652
   47CHL1   H1A 4629   3.161   2.253   6.345 -1.2031  1.9130  0.0600
   47CHL1   H1B 4630   3.321   2.209   6.265 -0.5984 -1.4619  2.0161
   47CHL1    C2 4631   3.330   2.349   6.430  0.2703 -0.0983  0.2680
   47CHL1   H2A 4632   3.343   2.267   6.504  0.4704  0.4226  0.8198
   47CHL1   H2B 4633   3.257   2.422   6.472 -1.2682 -2.1167  1.2656
   47CHL1   C20 4634   2.885   2.086   5.644 -0.2321  0.3583 -0.4302
   47CHL1   H20 4635   2.794   2.148   5.655  1.0273  2.5815 -1.7668
   47CHL1   C21 4636   2.851   1.963   5.740  0.2065  0.1133  0.0150
   47CHL1  H21A 4637   2.946   1.907   5.749  1.3253  1.7016 -1.1587
   47CHL1  H21B 4638   2.766   1.908   5.694 -0.0574 -0.2758  0.9519
   47CHL1  H21C 4639   2.814   2.003   5.837  1.3698 -1.2166  1.0440
   47CHL1   C22 4640   2.893   2.037   5.500 -0.4901  0.2459 -0.2767
   47CHL1  H22A 4641   2.810   1.966   5.480  0.3651 -0.8749  0.0572
   47CHL1  H22B 4642   2.885   2.131   5.442 -1.8049  0.9625  0.9943
   47CHL1   C23 4643   3.023   1.969   5.452 -1.1881  0.4474 -0.4487
   47CHL1  H23A 4644   3.092   2.053   5.431 -0.4954 -0.2334 -0.9595
   47CHL1  H23B 4645   3.068   1.908   5.533 -1.0021  0.0542 -0.8398
   47CHL1   C24 4646   3.013   1.888   5.323 -0.3030  0.1707  0.1543
   47CHL1  H24A 4647   2.940   1.805   5.340 -0.8749  0.4527 -0.8597
   47CHL1  H24B 4648   2.965   1.956   5.250 -1.5050 -1.3456 -0.5323
   47CHL1   C25 4649   3.146   1.833   5.268  0.3420  0.7104 -0.3423
   47CHL1   H25 4650   3.221   1.913   5.255 -0.1800  1.1728 -0.5301
   47CHL1   C26 4651   3.200   1.725   5.369  0.2110 -0.4259 -0.1505
   47CHL1  H26A 4652   3.117   1.655   5.394  1.7824 -2.9321 -1.4531
   47CHL1  H26B 4653   3.281   1.663   5.324 -0.5234 -1.8931  0.4766
   47CHL1  H26C 4654   3.239   1.763   5.465  1.3478 -1.9902  0.0558
   47CHL1   C27 4655   3.134   1.767   5.130 -0.4666 -0.3291 -0.4309
   47CHL1  H27A 4656   3.092   1.665   5.144  1.1619 -0.6232  3.6130
   47CHL1  H27B 4657   3.076   1.831   5.060 -1.0680 -0.2599  0.1198
   47CHL1  H27C 4658   3.240   1.757   5.100 -0.3154 -2.6378  0.6334
   48CHL1    C3 4659   0.472   0.653   6.079 -0.2200 -0.1105  0.0715
   48CHL1    H3 4660   0.478   0.761   6.107  2.3798 -0.2168  0.2037
   48CHL1    O3 4661   0.465   0.576   6.192 -0.9024  0.5979 -0.1173
   48CHL1   H3' 4662   0.403   0.622   6.248  2.5001  3.7572  1.4952
   48CHL1    C4 4663   0.356   0.610   5.990  0.2326  0.2053  0.0006
   48CHL1   H4A 4664   0.361   0.499   6.000 -0.8474  0.0152 -1.2561
   48CHL1   H4B 4665   0.259   0.635   6.038 -0.3086  0.3567 -1.1211
   48CHL1    C5 4666   0.365   0.654   5.843 -0.2519  0.1901 -0.0908
   48CHL1    C6 4667   0.266   0.729   5.792 -0.0566 -0.8843  0.0372
   48CHL1    H6 4668   0.187   0.752   5.864 -1.2639 -3.2512 -0.4405
   48CHL1    C7 4669   0.258   0.766   5.642 -0.2840  0.2226 -0.4485
   48CHL1   H7A 4670   0.162   0.747   5.589  0.3942 -3.6052 -0.5846
   48CHL1   H7B 4671   0.279   0.873   5.624 -1.1171  0.1562 -1.9619
   48CHL1    C8 4672   0.363   0.678   5.562  0.0517 -0.0240  0.3417
   48CHL1    H8 4673   0.334   0.571   5.559 -0.1883 -0.1297  3.2839
   48CHL1   C14 4674   0.380   0.745   5.427 -0.0082  0.6203  0.0548
   48CHL1   H14 4675   0.411   0.850   5.445  1.1677  0.6261 -1.7619
   48CHL1   C15 4676   0.251   0.745   5.329  0.0260  0.3217  0.1908
   48CHL1  H15A 4677   0.211   0.641   5.332  0.7948 -0.0716  5.0953
   48CHL1  H15B 4678   0.169   0.813   5.361  1.2091  1.7307  0.3095
   48CHL1   C16 4679   0.325   0.769   5.192  1.2664  1.1163 -0.1892
   48CHL1  H16A 4680   0.298   0.687   5.123  1.6784 -0.0615  1.0038
   48CHL1  H16B 4681   0.283   0.856   5.137  0.4080 -0.4464 -2.1064
   48CHL1   C17 4682   0.477   0.763   5.209 -0.0551 -0.1134  0.2352
   48CHL1   H17 4683   0.511   0.867   5.223  1.9057 -0.5386 -0.9984
   48CHL1   C13 4684   0.499   0.692   5.339 -0.0938  0.8973 -0.7126
   48CHL1   C18 4685   0.479   0.540   5.306  0.2360 -0.6735  0.2631
   48CHL1  H18A 4686   0.460   0.474   5.394 -1.2455  0.7822  1.0862
   48CHL1  H18B 4687   0.387   0.525   5.247 -1.5604  0.3697  2.6242
   48CHL1  H18C 4688   0.561   0.489   5.251 -1.3998 -1.9328 -1.1274
   48CHL1   C12 4689   0.630   0.724   5.414 -0.8446  0.3889 -0.7571
   48CHL1  H12A 4690   0.721   0.681   5.367 -1.0206 -1.9486  0.8720
   48CHL1  H12B 4691   0.651   0.833   5.418  1.1369  0.0129  0.5489
   48CHL1   C11 4692   0.628   0.660   5.554  0.4091  0.8455  0.1477
   48CHL1  H11A 4693   0.626   0.550   5.536  2.1892  0.6282  1.0165
   48CHL1  H11B 4694   0.715   0.671   5.622  0.1781 -1.2736  0.8487
   48CHL1    C9 4695   0.498   0.693   5.639 -0.4286  0.7131  0.1765
   48CHL1    H9 4696   0.512   0.798   5.670  1.2729  0.2080  1.2615
   48CHL1   C10 4697   0.493   0.616   5.774  0.0394 -0.2982  0.3682
   48CHL1   C19 4698   0.506   0.463   5.756  0.6810  0.0400 -0.6122
   48CHL1  H19A 4699   0.472   0.409   5.847 -1.6685  2.4043  0.0343
   48CHL1  H19B 4700   0.446   0.427   5.670  0.5999  0.1192 -0.5891
   48CHL1  H19C 4701   0.611   0.435   5.730  0.6272 -0.3486 -0.4260
   48CHL1    C1 4702   0.606   0.658   5.865 -0.6250 -0.6844 -0.2391
   48CHL1   H1A 4703   0.697   0.621   5.813 -0.5378 -0.4461 -0.2569
   48CHL1   H1B 4704   0.604   0.769   5.857  0.4511 -0.7635 -2.1754
   48CHL1    C2 4705   0.607   0.608   6.013  0.3902 -0.2031  0.2308
   48CHL1   H2A 4706   0.695   0.650   6.065  1.0328  1.0913 -1.7905
   48CHL1   H2B 4707   0.622   0.499   6.026  0.6100  0.0234  2.2317
   48CHL1   C20 4708   0.552   0.718   5.074  0.1008 -0.5649 -0.1061
   48CHL1   H20 4709   0.523   0.611   5.063 -1.9867  0.1189 -2.1305
   48CHL1   C21 4710   0.701   0.729   5.101  0.5311 -0.5001  0.6291
   48CHL1  H21A 4711   0.748   0.658   5.172  0.8942 -1.9314 -0.9820
   48CHL1  H21B 4712   0.757   0.709   5.007  1.1170  0.2273  0.8147
   48CHL1  H21C 4713   0.737   0.831   5.127 -1.1764 -0.2579  2.3172
   48CHL1   C22 4714   0.512   0.791   4.945 -0.6742 -0.0071 -0.3068
   48CHL1  H22A 4715   0.408   0.755   4.932 -0.2670 -1.0673 -0.7455
   48CHL1  H22B 4716   0.516   0.899   4.971  0.7318  0.4210 -2.0779
   48CHL1   C23 4717   0.589   0.768   4.816  0.7520 -0.3955 -0.3110
   48CHL1  H23A 4718   0.694   0.803   4.823  1.4190 -2.1165 -1.2290
   48CHL1  H23B 4719   0.594   0.659   4.797  1.0160 -0.4855  0.2559
   48CHL1   C24 4720   0.512   0.838   4.698  0.2524  0.4168 -0.1738
   48CHL1  H24A 4721   0.437   0.759   4.675 -1.4769  1.4258  1.7583
   48CHL1  H24B 4722   0.477   0.938   4.731  1.3368  0.7724 -0.0564
   48CHL1   C25 4723   0.595   0.867   4.571  0.6179  0.4674 -0.9012
   48CHL1   H25 4724   0.680   0.936   4.590  1.0338 -0.1007 -0.6493
   48CHL1   C26 4725   0.660   0.733   4.532  0.0824 -0.4854  0.0633
   48CHL1  H26A 4726   0.584   0.655   4.510 -0.4718 -0.5802  2.0940
   48CHL1  H26B 4727   0.717   0.754   4.439 -0.7472  4.0150  0.3356
   48CHL1  H26C 4728   0.721   0.695   4.617  0.1754  1.5051  0.9572
   48CHL1   C27 4729   0.513   0.922   4.458 -0.8197 -0.3221 -0.1010
   48CHL1  H27A 4730   0.431   0.851   4.436  0.1199 -2.1692  2.0303
   48CHL1  H27B 4731   0.477   1.024   4.485 -4.0068 -1.0081 -1.3431
   48CHL1  H27C 4732   0.583   0.943   4.374  1.1579  2.7491  2.0899
   49CHL1    C3 4733   5.195   5.564   3.070  0.2308  0.6305 -0.4834
   49CHL1    H3 4734   5.174   5.667   3.107  0.4514  1.0668 -1.5577
   49CHL1    O3 4735   5.226   5.575   2.930  0.3075 -0.6015  0.2652
   49CHL1   H3' 4736   5.179   5.652   2.895  1.4258  0.6028  1.2985
   49CHL1    C4 4737   5.324   5.507   3.132 -0.5984  0.2419 -0.5136
   49CHL1   H4A 4738   5.348   5.420   3.068  1.9819  2.6433 -3.1223
   49CHL1   H4B 4739   5.413   5.571   3.114 -0.5598  0.9068  1.6755
   49CHL1    C5 4740   5.295   5.479   3.280 -0.0239 -0.3315 -0.2869
   49CHL1    C6 4741   5.372   5.523   3.386 -0.3075 -0.2254 -0.5304
   49CHL1    H6 4742   5.455   5.589   3.359 -0.0091 -0.2729  0.2486
   49CHL1    C7 4743   5.352   5.488   3.534  0.0605 -0.1817 -1.2616
   49CHL1   H7A 4744   5.454   5.460   3.565  1.7162  3.7187 -2.5808
   49CHL1   H7B 4745   5.324   5.572   3.602 -0.6339  0.6043 -2.4669
   49CHL1    C8 4746   5.246   5.376   3.563 -0.3536 -0.0286  0.0318
   49CHL1    H8 4747   5.304   5.285   3.539 -0.8625 -0.0112 -1.4027
   49CHL1   C14 4748   5.203   5.381   3.701 -0.4079  0.9670 -0.4014
   49CHL1   H14 4749   5.159   5.483   3.709 -0.6789  0.7194  1.9474
   49CHL1   C15 4750   5.311   5.392   3.817 -0.0560 -0.4029 -0.7770
   49CHL1  H15A 4751   5.392   5.320   3.791  0.4231  0.4564 -1.7434
   49CHL1  H15B 4752   5.349   5.494   3.838  1.5175 -0.4993 -2.8283
   49CHL1   C16 4753   5.232   5.353   3.945  0.1817  0.1447 -0.6982
   49CHL1  H16A 4754   5.286   5.276   4.004  1.2677  1.9236  0.7233
   49CHL1  H16B 4755   5.228   5.443   4.009 -4.3302  1.0271 -1.8961
   49CHL1   C17 4756   5.087   5.316   3.899 -0.0518 -0.2505 -0.2639
   49CHL1   H17 4757   5.022   5.407   3.896  0.4511  0.0906 -1.2067
   49CHL1   C13 4758   5.101   5.280   3.746  0.3123 -0.1879 -0.7335
   49CHL1   C18 4759   5.147   5.138   3.733  0.6801  0.1559 -0.5950
   49CHL1  H18A 4760   5.188   5.124   3.631 -0.5165 -0.4518 -1.0111
   49CHL1  H18B 4761   5.214   5.106   3.816 -2.1902 -1.6082  1.2554
   49CHL1  H18C 4762   5.062   5.066   3.738  0.0880  0.8444 -0.5650
   49CHL1   C12 4763   4.972   5.302   3.660  0.1061 -0.0204 -0.2206
   49CHL1  H12A 4764   4.900   5.219   3.678  2.9033 -2.7059 -0.4614
   49CHL1  H12B 4765   4.934   5.404   3.679  3.4951  0.9107  2.6509
   49CHL1   C11 4766   5.016   5.298   3.506 -0.0204  0.1264 -0.6224
   49CHL1  H11A 4767   5.055   5.198   3.481  0.3529  0.4502 -1.3567
   49CHL1  H11B 4768   4.925   5.316   3.445 -1.3818 -0.4862  1.1272
   49CHL1    C9 4769   5.127   5.396   3.471  0.6622  0.0151  0.0728
   49CHL1    H9 4770   5.075   5.493   3.480 -0.7435 -0.7069  0.0236
   49CHL1   C10 4771   5.172   5.392   3.319 -0.3010  0.2522 -0.0727
   49CHL1   C19 4772   5.196   5.242   3.280 -0.0599  1.1431 -0.2672
   49CHL1  H19A 4773   5.228   5.240   3.174  0.2795 -0.9332 -0.1585
   49CHL1  H19B 4774   5.271   5.189   3.342 -0.8918 -0.4227 -0.5476
   49CHL1  H19C 4775   5.103   5.182   3.287  0.9547 -0.3727  0.8231
   49CHL1    C1 4776   5.049   5.450   3.242  0.2113  0.8684  0.3289
   49CHL1   H1A 4777   4.963   5.379   3.245  2.1097 -1.6441 -0.3866
   49CHL1   H1B 4778   5.011   5.544   3.288 -1.7820  0.1596  0.2477
   49CHL1    C2 4779   5.070   5.477   3.092  0.2123  0.1515 -0.1933
   49CHL1   H2A 4780   4.984   5.526   3.042  1.2207 -0.3001 -2.4789
   49CHL1   H2B 4781   5.085   5.382   3.036 -0.5939 -0.3648  0.4371
   49CHL1   C20 4782   5.008   5.222   3.987  0.2485  1.0240  0.0346
   49CHL1   H20 4783   5.063   5.125   3.980 -1.0494  0.2188  0.6902
   49CHL1   C21 4784   4.864   5.200   3.942 -0.8600  0.0143 -0.4746
   49CHL1  H21A 4785   4.810   5.296   3.937  0.2275  0.5666 -2.3028
   49CHL1  H21B 4786   4.804   5.128   4.002  0.2011 -2.9596 -2.7148
   49CHL1  H21C 4787   4.874   5.144   3.846  1.2804 -1.3344  0.4484
   49CHL1   C22 4788   5.006   5.260   4.139 -0.1742 -0.0089 -0.4377
   49CHL1  H22A 4789   5.115   5.264   4.160 -0.5878  0.7472  1.8103
   49CHL1  H22B 4790   4.972   5.364   4.153  2.3934  0.7107  1.1965
   49CHL1   C23 4791   4.923   5.183   4.238 -0.5761 -0.1980  0.1464
   49CHL1  H23A 4792   4.822   5.213   4.205 -0.3610 -1.4585 -1.7983
   49CHL1  H23B 4793   4.929   5.077   4.203 -0.3521 -0.3192  0.5400
   49CHL1   C24 4794   4.945   5.212   4.386 -0.1315  0.8878  0.2409
   49CHL1  H24A 4795   5.049   5.242   4.411  0.0622  0.1525  0.3445
   49CHL1  H24B 4796   4.893   5.309   4.403  1.5152  1.8729 -0.1536
   49CHL1   C25 4797   4.891   5.105   4.486  0.1810  0.2155 -0.1005
   49CHL1   H25 4798   4.790   5.072   4.455 -0.2445 -0.3123  1.7073
   49CHL1   C26 4799   4.979   4.979   4.488 -0.0987 -0.2787  0.3535
   49CHL1  H26A 4800   4.935   4.910   4.564 -0.4744 -1.2828 -0.7553
   49CHL1  H26B 4801   4.982   4.929   4.389 -0.0070  0.2365  0.0946
   49CHL1  H26C 4802   5.085   5.005   4.505  1.4263 -3.9104 -2.3453
   49CHL1   C27 4803   4.879   5.170   4.632  0.8735 -0.2835  0.5233
   49CHL1  H27A 4804   4.813   5.259   4.623  0.5773 -0.5301  0.2482
   49CHL1  H27B 4805   4.837   5.093   4.700  2.1621  0.0247  1.7067
   49CHL1  H27C 4806   4.978   5.201   4.671  0.6382  0.9496  0.1802
   50CHL1    C3 4807   3.862   0.326   3.305 -0.4306  0.8973 -0.0061
   50CHL1    H3 4808   3.791   0.401   3.345  1.4861  2.1200  1.2628
   50CHL1    O3 4809   3.870   0.342   3.166 -0.3278  0.2112 -0.2740
   50CHL1   H3' 4810   3.879   0.437   3.160 -0.5962  0.2530 -0.0375
   50CHL1    C4 4811   3.999   0.345   3.369 -0.2013 -0.0540 -0.6203
   50CHL1   H4A 4812   4.077   0.277   3.327  0.9279 -0.8873  2.5520
   50CHL1   H4B 4813   4.033   0.450   3.353  1.5004 -0.4559  0.1315
   50CHL1    C5 4814   3.986   0.318   3.519 -0.7830  0.1894 -0.5129
   50CHL1    C6 4815   4.037   0.406   3.613  0.3713 -0.1271 -0.3653
   50CHL1    H6 4816   4.081   0.497   3.570  0.0621  0.7854  1.1731
   50CHL1    C7 4817   4.068   0.376   3.754  0.2066  0.5347 -0.8126
   50CHL1   H7A 4818   4.173   0.403   3.779 -0.7533  0.8109  3.7878
   50CHL1   H7B 4819   4.008   0.446   3.815  1.9145  1.4522 -0.1232
   50CHL1    C8 4820   4.051   0.222   3.787 -0.1666  0.1664 -0.5515
   50CHL1    H8 4821   4.143   0.167   3.761 -0.7817 -0.9392 -0.4348
   50CHL1   C14 4822   4.029   0.217   3.934  0.1939 -0.4333 -0.8244
   50CHL1   H14 4823   3.931   0.267   3.952 -0.2278 -0.5903 -2.5385
   50CHL1   C15 4824   4.140   0.274   4.019 -0.1284 -0.0361  0.3783
   50CHL1  H15A 4825   4.242   0.239   3.992  1.3803  3.1579  1.4356
   50CHL1  H15B 4826   4.143   0.385   4.017  2.0007 -0.0273  1.4679
   50CHL1   C16 4827   4.115   0.211   4.156  0.2996  0.7188 -0.0926
   50CHL1  H16A 4828   4.209   0.185   4.210 -0.9687 -1.0830  1.3833
   50CHL1  H16B 4829   4.060   0.278   4.226 -1.9243 -0.7875 -0.2906
   50CHL1   C17 4830   4.022   0.093   4.138  0.0108  0.6346  0.1371
   50CHL1   H17 4831   3.920   0.133   4.159  0.1465  2.9464 -2.8704
   50CHL1   C13 4832   4.025   0.069   3.983  0.5063  0.0982 -0.5772
   50CHL1   C18 4833   4.147  -0.021   3.948  0.0493 -0.7112 -0.4044
   50CHL1  H18A 4834   4.125  -0.123   3.987 -1.5822  0.5591  2.2284
   50CHL1  H18B 4835   4.165  -0.016   3.838  0.0202 -0.2869 -0.3913
   50CHL1  H18C 4836   4.232   0.022   4.006 -1.8113  4.0355 -0.7489
   50CHL1   C12 4837   3.901   0.010   3.925  0.4523 -0.9790  1.8294
   50CHL1  H12A 4838   3.894  -0.099   3.946 -0.5580 -1.3234 -0.0347
   50CHL1  H12B 4839   3.811   0.066   3.957  0.1629  0.4216 -1.0865
   50CHL1   C11 4840   3.907   0.018   3.772 -0.3866 -0.3734  0.0135
   50CHL1  H11A 4841   3.987  -0.045   3.728 -2.7883 -2.8886 -1.0191
   50CHL1  H11B 4842   3.814  -0.024   3.727 -0.4059  1.5248 -1.8134
   50CHL1    C9 4843   3.928   0.163   3.711  0.3568  0.5382 -0.0448
   50CHL1    H9 4844   3.836   0.213   3.747 -0.6117 -0.0381 -1.6341
   50CHL1   C10 4845   3.942   0.172   3.558  0.2178  0.0902 -0.1549
   50CHL1   C19 4846   4.052   0.077   3.506 -0.0586  0.6090 -0.0103
   50CHL1  H19A 4847   4.147   0.090   3.563  0.4783 -0.9603 -0.4882
   50CHL1  H19B 4848   4.024  -0.026   3.538  0.4537  0.7479  0.9468
   50CHL1  H19C 4849   4.056   0.087   3.396  0.0272 -0.4315 -0.1084
   50CHL1    C1 4850   3.799   0.143   3.484 -0.0610  0.0978 -0.9373
   50CHL1   H1A 4851   3.786   0.033   3.493  2.4809 -0.1186  1.3725
   50CHL1   H1B 4852   3.723   0.198   3.545 -1.4396 -0.5156 -2.0407
   50CHL1    C2 4853   3.801   0.182   3.336  0.5629  0.2832 -0.2336
   50CHL1   H2A 4854   3.694   0.186   3.306  0.0708  1.1573  1.5266
   50CHL1   H2B 4855   3.850   0.103   3.274 -1.2783 -1.0081 -0.1183
   50CHL1   C20 4856   4.051  -0.025   4.241  0.4199  0.1870  0.1125
   50CHL1   H20 4857   4.149  -0.070   4.216  0.5107  0.3990  0.0786
   50CHL1   C21 4858   3.932  -0.121   4.230  0.5750 -0.0536  1.2551
   50CHL1  H21A 4859   3.947  -0.189   4.143  4.3212 -1.1114  2.5683
   50CHL1  H21B 4860   3.836  -0.065   4.223  0.5912 -0.2030 -1.4739
   50CHL1  H21C 4861   3.927  -0.190   4.317 -0.4027 -0.6597  0.7365
   50CHL1   C22 4862   4.062   0.026   4.386  0.4097  0.4384  0.7242
   50CHL1  H22A 4863   4.149   0.095   4.385  2.0330 -1.3249 -3.7945
   50CHL1  H22B 4864   3.973   0.087   4.410 -0.2293  0.4467 -1.4544
   50CHL1   C23 4865   4.081  -0.079   4.497  0.1407  0.0750  0.3773
   50CHL1  H23A 4866   3.976  -0.084   4.533  0.5147 -1.2041  1.3908
   50CHL1  H23B 4867   4.122  -0.175   4.460  2.9345  0.1655  2.8906
   50CHL1   C24 4868   4.165  -0.013   4.606  0.7728 -0.0162 -0.2072
   50CHL1  H24A 4869   4.264   0.003   4.560 -0.2881  2.1958 -1.8993
   50CHL1  H24B 4870   4.121   0.081   4.645  1.1209 -0.5235  1.4904
   50CHL1   C25 4871   4.178  -0.103   4.733  0.5234  0.1059  0.3716
   50CHL1   H25 4872   4.130  -0.201   4.711 -0.1675  0.9479 -2.1930
   50CHL1   C26 4873   4.323  -0.115   4.776 -0.2164  0.3329 -0.0105
   50CHL1  H26A 4874   4.374  -0.019   4.754  0.2040  0.8934  2.9791
   50CHL1  H26B 4875   4.340  -0.138   4.883  0.3864  1.2287  0.0928
   50CHL1  H26C 4876   4.375  -0.195   4.719 -1.4038 -0.9181  0.5892
   50CHL1   C27 4877   4.109  -0.048   4.857 -0.2658 -0.3252  0.4390
   50CHL1  H27A 4878   4.156   0.050   4.882  2.4839 -1.0704 -1.3678
   50CHL1  H27B 4879   4.000  -0.041   4.835 -0.0298 -1.0860 -1.0838
   50CHL1  H27C 4880   4.120  -0.123   4.938 -0.7481  0.7682  1.5699
   51CHL1    C3 4881   4.809   1.787   3.321 -0.5895 -0.2789 -0.3452
   51CHL1    H3 4882   4.889   1.712   3.302 -0.6911 -0.1012 -1.5321
   51CHL1    O3 4883   4.787   1.866   3.209 -0.5438 -0.1267  0.0050
   51CHL1   H3' 4884   4.764   1.813   3.133  0.9800 -0.2805 -0.3648
   51CHL1    C4 4885   4.682   1.715   3.358  0.0388 -0.4806  0.0742
   51CHL1   H4A 4886   4.602   1.792   3.364 -1.6281 -2.1785  0.8449
   51CHL1   H4B 4887   4.661   1.643   3.276  0.1057  0.2152 -0.5633
   51CHL1    C5 4888   4.674   1.646   3.495  0.4726 -0.6618  0.2627
   51CHL1    C6 4889   4.629   1.522   3.509  0.0012 -0.3597  0.3889
   51CHL1    H6 4890   4.590   1.472   3.419  0.3307 -0.8171  0.4966
   51CHL1    C7 4891   4.623   1.466   3.646  0.3830 -0.0735  0.1934
   51CHL1   H7A 4892   4.534   1.400   3.654 -0.6806  1.0397 -1.7462
   51CHL1   H7B 4893   4.714   1.405   3.658  0.9562  0.7559  0.1436
   51CHL1    C8 4894   4.626   1.563   3.759 -0.4247 -0.0346 -0.3263
   51CHL1    H8 4895   4.534   1.626   3.760  0.0688  0.8331  2.7982
   51CHL1   C14 4896   4.626   1.486   3.892  0.0149 -0.0743 -0.0721
   51CHL1   H14 4897   4.715   1.420   3.901  0.5053  0.5622 -0.0802
   51CHL1   C15 4898   4.510   1.405   3.935  0.7151  0.1303 -0.5620
   51CHL1  H15A 4899   4.426   1.473   3.910 -0.3319 -1.2706 -0.9275
   51CHL1  H15B 4900   4.490   1.306   3.889 -0.3283  1.0297 -2.1638
   51CHL1   C16 4901   4.528   1.388   4.085  0.4215 -0.2138  0.0217
   51CHL1  H16A 4902   4.429   1.406   4.134  0.3321  0.7502 -0.4917
   51CHL1  H16B 4903   4.559   1.283   4.101 -0.6003 -0.5664 -0.2000
   51CHL1   C17 4904   4.644   1.487   4.135  0.6892 -0.0995 -0.2781
   51CHL1   H17 4905   4.733   1.422   4.146  1.1943  0.7794  1.1433
   51CHL1   C13 4906   4.658   1.582   4.015  0.3530  0.5015  1.0150
   51CHL1   C18 4907   4.541   1.683   4.027 -0.2937  0.2215  0.8626
   51CHL1  H18A 4908   4.446   1.632   4.053 -0.6557  0.3624 -0.1157
   51CHL1  H18B 4909   4.573   1.753   4.108 -1.3108 -0.3834  1.8080
   51CHL1  H18C 4910   4.524   1.744   3.935 -2.6859 -3.0712 -1.1063
   51CHL1   C12 4911   4.795   1.652   3.994  0.5040  0.0344 -0.2550
   51CHL1  H12A 4912   4.813   1.707   4.089 -2.1094 -0.2837  0.5213
   51CHL1  H12B 4913   4.875   1.577   3.981 -1.4732 -2.2443 -0.1124
   51CHL1   C11 4914   4.787   1.740   3.868  0.1076  0.4996 -0.7507
   51CHL1  H11A 4915   4.721   1.826   3.896  0.9963  1.2257 -0.8302
   51CHL1  H11B 4916   4.893   1.773   3.861 -0.1693  1.3926 -0.8698
   51CHL1    C9 4917   4.745   1.659   3.743  0.2243  0.2924  0.0206
   51CHL1    H9 4918   4.832   1.595   3.716  0.0707  0.4471 -0.8618
   51CHL1   C10 4919   4.728   1.734   3.609 -0.6362 -0.1727  0.0749
   51CHL1   C19 4920   4.622   1.852   3.643 -0.5590 -0.3542  0.2108
   51CHL1  H19A 4921   4.664   1.925   3.716  0.2469  0.4006 -0.9781
   51CHL1  H19B 4922   4.611   1.904   3.546  1.1106 -2.2960 -1.1205
   51CHL1  H19C 4923   4.527   1.810   3.682 -1.3350  1.5941  0.4936
   51CHL1    C1 4924   4.863   1.795   3.564 -0.5980  0.0147 -0.1938
   51CHL1   H1A 4925   4.898   1.857   3.650  0.8909 -1.5804  0.4109
   51CHL1   H1B 4926   4.933   1.710   3.552 -0.8285  0.0253 -1.9622
   51CHL1    C2 4927   4.862   1.876   3.436  0.4719  0.3584  0.1887
   51CHL1   H2A 4928   4.967   1.903   3.413  0.7035 -0.6400  0.0409
   51CHL1   H2B 4929   4.803   1.970   3.440  0.9359  0.7137 -1.0395
   51CHL1   C20 4930   4.621   1.535   4.277  0.3061 -0.1071 -1.2681
   51CHL1   H20 4931   4.519   1.577   4.291 -1.0809 -3.3034 -0.8397
   51CHL1   C21 4932   4.727   1.637   4.323  0.0347  0.1503 -0.4255
   51CHL1  H21A 4933   4.741   1.624   4.433 -0.6989 -2.5226 -0.5612
   51CHL1  H21B 4934   4.704   1.741   4.291  1.3961  0.3965 -0.6844
   51CHL1  H21C 4935   4.823   1.610   4.274  2.1652  0.4111  3.2177
   51CHL1   C22 4936   4.640   1.403   4.369  0.6027 -0.4096 -0.4890
   51CHL1  H22A 4937   4.587   1.316   4.325  2.0357 -1.6223  0.1201
   51CHL1  H22B 4938   4.748   1.387   4.350  1.0334  0.3179  1.2381
   51CHL1   C23 4939   4.589   1.412   4.515  0.6594  0.6818  0.2141
   51CHL1  H23A 4940   4.637   1.502   4.558  1.3370  0.1829  0.5366
   51CHL1  H23B 4941   4.480   1.429   4.524  0.6904  0.7573  0.4761
   51CHL1   C24 4942   4.613   1.285   4.607 -0.0766  0.1515  0.1532
   51CHL1  H24A 4943   4.563   1.196   4.563  2.7016 -2.3372  1.6457
   51CHL1  H24B 4944   4.722   1.261   4.610  0.6334  2.5066 -2.2869
   51CHL1   C25 4945   4.550   1.293   4.748 -0.3964 -0.5446 -0.0252
   51CHL1   H25 4946   4.581   1.389   4.795  2.5983 -2.2312  1.7254
   51CHL1   C26 4947   4.390   1.292   4.741 -0.2948  0.3356 -0.3129
   51CHL1  H26A 4948   4.354   1.191   4.714  0.8381  0.1673 -1.2516
   51CHL1  H26B 4949   4.359   1.314   4.846  2.6410  0.3396  0.6508
   51CHL1  H26C 4950   4.349   1.373   4.677 -1.1026 -0.4703 -0.8213
   51CHL1   C27 4951   4.612   1.192   4.845 -0.5393 -0.1991  0.6723
   51CHL1  H27A 4952   4.580   1.216   4.948  2.6533  0.3320  1.6586
   51CHL1  H27B 4953   4.589   1.088   4.815  0.3560 -0.0655 -0.6038
   51CHL1  H27C 4954   4.721   1.215   4.849 -0.3001 -0.1996 -2.8235
   52CHL1    C3 4955   3.999   4.187   3.280  0.4985  0.4000  0.0151
   52CHL1    H3 4956   3.906   4.245   3.299  0.6821  0.4995  0.6336
   52CHL1    O3 4957   3.997   4.097   3.163 -0.0583  0.1439 -0.0081
   52CHL1   H3' 4958   4.067   4.034   3.180  0.7283  1.2319  0.9483
   52CHL1    C4 4959   4.122   4.279   3.279  0.3913  0.6010  0.2288
   52CHL1   H4A 4960   4.204   4.205   3.274  0.0789  0.3325 -2.1604
   52CHL1   H4B 4961   4.122   4.338   3.185 -0.2331 -0.1786 -0.2765
   52CHL1    C5 4962   4.141   4.365   3.404 -0.2870  0.1552 -0.3883
   52CHL1    C6 4963   4.157   4.502   3.395 -0.5135  0.2146 -0.2584
   52CHL1    H6 4964   4.163   4.547   3.294  1.2115  0.5635 -0.0389
   52CHL1    C7 4965   4.180   4.595   3.521  0.2946 -0.2909 -0.6634
   52CHL1   H7A 4966   4.268   4.660   3.503  0.1035  0.8752  2.1562
   52CHL1   H7B 4967   4.086   4.652   3.532 -0.8340 -2.1697 -0.1353
   52CHL1    C8 4968   4.202   4.510   3.648 -0.1248  0.2208  0.0549
   52CHL1    H8 4969   4.311   4.490   3.652 -0.5123 -1.9708  1.9718
   52CHL1   C14 4970   4.180   4.598   3.772  0.1628  0.5008 -0.5156
   52CHL1   H14 4971   4.072   4.627   3.770  0.0567  0.2134  0.7122
   52CHL1   C15 4972   4.239   4.736   3.774 -0.1220 -0.9198 -0.8844
   52CHL1  H15A 4973   4.346   4.726   3.747  0.0283 -0.6548 -0.3932
   52CHL1  H15B 4974   4.173   4.806   3.718  1.6281  0.8687 -0.8401
   52CHL1   C16 4975   4.230   4.778   3.918 -0.1636 -0.4682 -0.5719
   52CHL1  H16A 4976   4.334   4.807   3.945  0.1954 -2.9163  1.0666
   52CHL1  H16B 4977   4.171   4.870   3.932  2.0530  1.3013 -2.1737
   52CHL1   C17 4978   4.185   4.651   3.994  0.1937 -0.0679 -0.2488
   52CHL1   H17 4979   4.075   4.660   3.990  0.2028  0.0461 -0.2374
   52CHL1   C13 4980   4.212   4.532   3.908  0.2883  0.7079  0.3392
   52CHL1   C18 4981   4.356   4.493   3.916 -0.1271  0.2567 -0.5996
   52CHL1  H18A 4982   4.372   4.416   3.837 -0.9633  0.5039 -1.0219
   52CHL1  H18B 4983   4.423   4.578   3.892  0.7457 -0.0524  0.6813
   52CHL1  H18C 4984   4.377   4.453   4.018  0.2231  0.9987 -0.3785
   52CHL1   C12 4985   4.118   4.412   3.920  0.9393  0.6340 -0.8682
   52CHL1  H12A 4986   4.137   4.338   4.001  0.8659 -0.8162 -2.1114
   52CHL1  H12B 4987   4.010   4.437   3.919  0.8662  0.4033  0.2637
   52CHL1   C11 4988   4.135   4.311   3.796 -0.0094  0.1474  0.0064
   52CHL1  H11A 4989   4.239   4.270   3.800  0.6910  1.7704 -0.5112
   52CHL1  H11B 4990   4.062   4.229   3.810 -0.7424  0.8340  0.2425
   52CHL1    C9 4991   4.115   4.383   3.656 -0.3425  0.7922  0.3739
   52CHL1    H9 4992   4.010   4.420   3.654  0.2290  2.5728  1.0952
   52CHL1   C10 4993   4.132   4.289   3.538 -0.4815 -0.3847 -0.7118
   52CHL1   C19 4994   4.263   4.204   3.549 -0.2492 -0.6340 -0.4175
   52CHL1  H19A 4995   4.270   4.136   3.636  0.9074  0.2393  0.2016
   52CHL1  H19B 4996   4.287   4.148   3.456 -0.7189 -0.3296 -0.7258
   52CHL1  H19C 4997   4.350   4.274   3.547 -0.4638 -0.3778 -1.2610
   52CHL1    C1 4998   4.014   4.193   3.538 -0.3311  0.2862  0.4368
   52CHL1   H1A 4999   3.988   4.128   3.624 -0.3649 -0.4908 -0.1444
   52CHL1   H1B 5000   3.931   4.264   3.523 -1.1271 -0.5210  0.8762
   52CHL1    C2 5001   4.002   4.101   3.414 -0.8150 -0.1744  0.2543
   52CHL1   H2A 5002   3.908   4.046   3.435 -1.4719  1.5107  2.1346
   52CHL1   H2B 5003   4.089   4.033   3.402 -1.3176 -0.7163 -0.3309
   52CHL1   C20 5004   4.215   4.637   4.149  0.4814  0.1778  0.9064
   52CHL1   H20 5005   4.211   4.530   4.177  2.8262 -0.7911 -1.9114
   52CHL1   C21 5006   4.107   4.710   4.237  0.2054 -0.0315  0.2710
   52CHL1  H21A 5007   4.003   4.677   4.218  0.1366 -0.2525  0.9811
   52CHL1  H21B 5008   4.118   4.820   4.225 -0.1117  0.3206  2.6428
   52CHL1  H21C 5009   4.116   4.686   4.345 -2.2061 -0.1086  0.5018
   52CHL1   C22 5010   4.356   4.680   4.187  0.3990 -0.4259 -0.3241
   52CHL1  H22A 5011   4.428   4.625   4.123  0.2348  1.1102 -1.9027
   52CHL1  H22B 5012   4.360   4.790   4.174  0.4291 -0.1780  1.5168
   52CHL1   C23 5013   4.389   4.650   4.331 -0.6671  0.4397 -0.0698
   52CHL1  H23A 5014   4.333   4.725   4.390  1.0653  1.9557 -0.2788
   52CHL1  H23B 5015   4.356   4.547   4.357  0.9312 -0.8585 -2.7031
   52CHL1   C24 5016   4.539   4.668   4.356  0.0259  0.3809  0.4698
   52CHL1  H24A 5017   4.573   4.765   4.313 -0.0222 -0.1443 -0.7890
   52CHL1  H24B 5018   4.535   4.676   4.467 -0.0706  3.3809  0.3286
   52CHL1   C25 5019   4.627   4.546   4.322 -0.5515 -0.5094 -0.2050
   52CHL1   H25 5020   4.602   4.524   4.216  2.5784  0.1755 -1.2016
   52CHL1   C26 5021   4.779   4.579   4.332 -0.6502 -0.2968 -0.2883
   52CHL1  H26A 5022   4.840   4.500   4.285  0.1008  1.4707 -2.4479
   52CHL1  H26B 5023   4.798   4.677   4.284 -2.4001 -0.3224 -1.1139
   52CHL1  H26C 5024   4.814   4.587   4.437 -0.4473 -0.1307 -0.3681
   52CHL1   C27 5025   4.592   4.417   4.390 -0.5785 -0.0544 -0.3153
   52CHL1  H27A 5026   4.582   4.437   4.499 -0.4701  2.1321 -0.6493
   52CHL1  H27B 5027   4.503   4.376   4.339 -0.7274  0.5954 -0.5877
   52CHL1  H27C 5028   4.680   4.350   4.377  0.4252  0.1398  3.8730
   53CHL1    C3 5029   3.356   1.408   3.640 -0.7429  0.1753 -0.5889
   53CHL1    H3 5030   3.400   1.510   3.644 -1.4017  0.4259  1.4392
   53CHL1    O3 5031   3.308   1.378   3.511  0.5263  0.4977 -0.1438
   53CHL1   H3' 5032   3.376   1.327   3.465  0.3376  1.7471 -1.9182
   53CHL1    C4 5033   3.462   1.302   3.684 -0.1554  0.1697  0.7043
   53CHL1   H4A 5034   3.428   1.199   3.662  1.0550 -0.1013  0.0078
   53CHL1   H4B 5035   3.557   1.310   3.626  1.0796 -0.7600  2.5044
   53CHL1    C5 5036   3.504   1.305   3.826  0.4803 -0.3528 -0.3154
   53CHL1    C6 5037   3.630   1.326   3.865 -0.4583  0.2726 -0.3062
   53CHL1    H6 5038   3.709   1.330   3.790 -0.6036  0.1747 -0.4655
   53CHL1    C7 5039   3.674   1.324   4.009  0.7602 -0.2317  0.5893
   53CHL1   H7A 5040   3.761   1.255   4.020 -0.9999 -2.7733 -0.5626
   53CHL1   H7B 5041   3.703   1.430   4.024  0.2224  0.7562 -3.9750
   53CHL1    C8 5042   3.560   1.271   4.103 -0.1952 -0.1832 -0.2836
   53CHL1    H8 5043   3.562   1.161   4.087  0.5578 -0.0116 -1.5339
   53CHL1   C14 5044   3.596   1.311   4.243 -0.0610  0.2310  0.1462
   53CHL1   H14 5045   3.602   1.422   4.244 -2.3629  0.4021  0.2149
   53CHL1   C15 5046   3.737   1.268   4.292 -0.3949  0.6565  0.0651
   53CHL1  H15A 5047   3.773   1.172   4.249  0.5728  0.0727  2.0797
   53CHL1  H15B 5048   3.807   1.341   4.246  0.3614 -1.0357 -1.5948
   53CHL1   C16 5049   3.734   1.285   4.441  0.2890  0.4106  0.1519
   53CHL1  H16A 5050   3.764   1.190   4.490 -1.1716 -0.4846 -0.6334
   53CHL1  H16B 5051   3.800   1.369   4.471 -1.8579  1.5980  1.8625
   53CHL1   C17 5052   3.582   1.317   4.476 -0.4906 -0.0751  0.2278
   53CHL1   H17 5053   3.580   1.428   4.481  0.5619 -0.1119  2.0931
   53CHL1   C13 5054   3.497   1.275   4.351  0.4084 -0.4773 -0.7092
   53CHL1   C18 5055   3.464   1.129   4.355  0.5681  0.2318  0.2950
   53CHL1  H18A 5056   3.552   1.081   4.404 -0.3733  0.5456  2.4418
   53CHL1  H18B 5057   3.373   1.095   4.410 -0.1981 -1.0834 -1.7073
   53CHL1  H18C 5058   3.458   1.086   4.254 -0.7280 -0.5557  0.6895
   53CHL1   C12 5059   3.367   1.353   4.319 -0.4071  0.6608  0.2811
   53CHL1  H12A 5060   3.285   1.328   4.390  1.0104 -0.5774  1.5229
   53CHL1  H12B 5061   3.384   1.463   4.326 -1.2189  0.7888  0.4578
   53CHL1   C11 5062   3.318   1.324   4.181 -0.0903  0.1314  0.4380
   53CHL1  H11A 5063   3.282   1.219   4.182 -1.1684  0.4799  0.7405
   53CHL1  H11B 5064   3.227   1.384   4.158  0.5064 -0.4885 -4.4911
   53CHL1    C9 5065   3.427   1.343   4.068 -0.8323  0.9744  1.3000
   53CHL1    H9 5066   3.454   1.450   4.061 -0.5699  0.8359 -0.3012
   53CHL1   C10 5067   3.384   1.308   3.923 -0.1269  0.0776 -0.9025
   53CHL1   C19 5068   3.322   1.170   3.925  0.3173 -0.7866  0.6314
   53CHL1  H19A 5069   3.396   1.091   3.951 -0.2975 -1.7687 -0.5282
   53CHL1  H19B 5070   3.231   1.167   3.989 -1.5691 -1.5986 -1.9097
   53CHL1  H19C 5071   3.290   1.136   3.824 -0.4759  0.0833  0.5805
   53CHL1    C1 5072   3.281   1.415   3.877  0.4575 -0.5727  0.7222
   53CHL1   H1A 5073   3.190   1.406   3.941  1.1352 -1.0961  1.6445
   53CHL1   H1B 5074   3.324   1.516   3.896  0.6473 -0.4009 -0.5610
   53CHL1    C2 5075   3.239   1.404   3.736  0.1575 -0.4282  0.7003
   53CHL1   H2A 5076   3.168   1.486   3.711  0.6936 -0.0846  0.2884
   53CHL1   H2B 5077   3.196   1.303   3.722  0.6848 -0.6700  0.8313
   53CHL1   C20 5078   3.534   1.267   4.614  0.1141 -0.0546 -0.6002
   53CHL1   H20 5079   3.531   1.157   4.624 -2.5104  0.1749  3.6047
   53CHL1   C21 5080   3.394   1.325   4.633  0.5982  0.2775  0.3425
   53CHL1  H21A 5081   3.311   1.255   4.609 -0.7334  2.4555 -1.8349
   53CHL1  H21B 5082   3.379   1.420   4.577 -0.9108 -0.2674 -0.2292
   53CHL1  H21C 5083   3.378   1.354   4.739  0.4300  0.3011  0.3118
   53CHL1   C22 5084   3.639   1.317   4.720 -0.5044 -0.3335 -0.7057
   53CHL1  H22A 5085   3.616   1.277   4.820  1.0816  0.2140 -0.0845
   53CHL1  H22B 5086   3.744   1.280   4.710 -0.5266 -0.1761 -1.6434
   53CHL1   C23 5087   3.657   1.467   4.723  0.6034 -0.0219 -0.0091
   53CHL1  H23A 5088   3.711   1.502   4.633  2.3694 -0.5377  0.7988
   53CHL1  H23B 5089   3.561   1.517   4.747  0.2432 -0.8838  0.3721
   53CHL1   C24 5090   3.740   1.508   4.847  0.4704 -0.1864  0.1207
   53CHL1  H24A 5091   3.690   1.486   4.944 -2.2025 -0.5537 -1.2520
   53CHL1  H24B 5092   3.828   1.440   4.855 -0.9313 -1.9634  1.5133
   53CHL1   C25 5093   3.783   1.654   4.853  0.1520 -0.4960 -0.0481
   53CHL1   H25 5094   3.841   1.682   4.762  3.5799  1.1274  2.3958
   53CHL1   C26 5095   3.668   1.756   4.869  0.4199 -0.9250 -0.2489
   53CHL1  H26A 5096   3.591   1.743   4.789  1.2049  1.1003 -1.4156
   53CHL1  H26B 5097   3.626   1.742   4.971 -1.7667 -1.4631 -1.1523
   53CHL1  H26C 5098   3.712   1.858   4.865 -0.1267 -0.7083 -1.0717
   53CHL1   C27 5099   3.883   1.673   4.969  0.0427  0.4077  0.1770
   53CHL1  H27A 5100   3.911   1.781   4.964 -3.4432  1.3733 -2.4702
   53CHL1  H27B 5101   3.842   1.644   5.068  1.1771  0.9726  0.8390
   53CHL1  H27C 5102   3.979   1.617   4.957 -1.0670 -1.2566 -1.5078
   54CHL1    C3 5103   4.816   3.970   3.017  0.4563  0.7035  0.5318
   54CHL1    H3 5104   4.915   3.987   3.063  0.7562 -0.4824  0.3652
   54CHL1    O3 5105   4.817   3.967   2.872 -0.0495  0.4147  0.0932
   54CHL1   H3' 5106   4.725   3.966   2.843 -0.6180 -1.9479  1.6594
   54CHL1    C4 5107   4.746   3.843   3.072 -0.1889  0.4971 -0.1104
   54CHL1   H4A 5108   4.638   3.853   3.049 -0.2234 -0.4253 -0.4182
   54CHL1   H4B 5109   4.794   3.756   3.022  1.0451  0.5015  0.9805
   54CHL1    C5 5110   4.752   3.845   3.220  1.1037  0.9556  0.4473
   54CHL1    C6 5111   4.817   3.742   3.281  0.2210 -0.6452  0.2887
   54CHL1    H6 5112   4.857   3.664   3.214  0.6653  0.5258 -0.8406
   54CHL1    C7 5113   4.838   3.738   3.430  0.1012  0.1283  0.8182
   54CHL1   H7A 5114   4.824   3.635   3.470  0.7443  1.0036  3.5457
   54CHL1   H7B 5115   4.942   3.770   3.454  0.4322 -0.5738  0.3588
   54CHL1    C8 5116   4.758   3.841   3.511  0.8886  0.0107 -0.5152
   54CHL1    H8 5117   4.665   3.782   3.525  2.2222 -1.5612  2.7240
   54CHL1   C14 5118   4.814   3.863   3.651 -0.6529 -0.0864 -0.5486
   54CHL1   H14 5119   4.917   3.902   3.642  0.5622 -2.3451  2.0743
   54CHL1   C15 5120   4.829   3.732   3.739 -0.5860 -0.0868  0.1392
   54CHL1  H15A 5121   4.736   3.671   3.732 -0.2955 -0.4810 -0.3553
   54CHL1  H15B 5122   4.915   3.673   3.702 -0.3393  1.3763 -1.7745
   54CHL1   C16 5123   4.863   3.786   3.879  0.2678  0.0430 -0.1126
   54CHL1  H16A 5124   4.806   3.737   3.961  1.6726 -0.0987  0.8151
   54CHL1  H16B 5125   4.966   3.766   3.916 -0.3951 -1.4525  1.0012
   54CHL1   C17 5126   4.827   3.947   3.866  0.2933  0.1712  0.6422
   54CHL1   H17 5127   4.918   4.010   3.849  0.4100  0.6065  2.6187
   54CHL1   C13 5128   4.742   3.969   3.739 -0.6705  0.6047  0.1074
   54CHL1   C18 5129   4.597   3.932   3.771  0.2837  0.0624 -0.3551
   54CHL1  H18A 5130   4.600   3.846   3.842  2.0715 -1.1235 -1.7744
   54CHL1  H18B 5131   4.550   4.023   3.813  1.8519  1.4846 -1.5243
   54CHL1  H18C 5132   4.529   3.908   3.686 -2.7009 -1.1561  2.1895
   54CHL1   C12 5133   4.747   4.106   3.661  0.0142 -0.0796  0.4728
   54CHL1  H12A 5134   4.696   4.192   3.710 -1.7824  1.3756 -3.5023
   54CHL1  H12B 5135   4.854   4.136   3.649  0.0766 -0.7309 -0.7580
   54CHL1   C11 5136   4.688   4.092   3.516 -0.9511 -0.2741  0.0684
   54CHL1  H11A 5137   4.581   4.063   3.526 -0.5742 -2.6089 -1.7529
   54CHL1  H11B 5138   4.697   4.190   3.467 -2.6827  0.1480  0.5297
   54CHL1    C9 5139   4.753   3.972   3.434  0.7032 -0.3292  0.6143
   54CHL1    H9 5140   4.857   4.008   3.424  0.2674  1.1836  1.1916
   54CHL1   C10 5141   4.697   3.963   3.292  0.4109 -0.9111  0.5934
   54CHL1   C19 5142   4.546   3.940   3.294  0.0857  0.1174  0.2818
   54CHL1  H19A 5143   4.519   3.845   3.347  0.4812  0.0458  0.3557
   54CHL1  H19B 5144   4.479   4.011   3.347 -0.7840 -0.9155  0.6269
   54CHL1  H19C 5145   4.512   3.941   3.189  1.6615 -1.4630 -0.2964
   54CHL1    C1 5146   4.728   4.093   3.212  0.3960 -0.0864 -0.1873
   54CHL1   H1A 5147   4.669   4.180   3.248  1.7329  0.6127  0.3975
   54CHL1   H1B 5148   4.833   4.121   3.237  0.9915 -1.9239 -0.5282
   54CHL1    C2 5149   4.727   4.084   3.061 -0.9560 -0.4954 -0.1441
   54CHL1   H2A 5150   4.775   4.178   3.028 -0.9517  0.2254  1.7841
   54CHL1   H2B 5151   4.622   4.091   3.026 -1.4539  0.1984  1.4226
   54CHL1   C20 5152   4.777   3.994   4.001  0.0697 -0.7027 -0.1117
   54CHL1   H20 5153   4.682   3.942   4.027 -0.6554  1.0594  0.8826
   54CHL1   C21 5154   4.752   4.139   4.003 -0.2641  0.2136  0.1225
   54CHL1  H21A 5155   4.702   4.173   3.910 -2.2061 -0.2459  0.9523
   54CHL1  H21B 5156   4.845   4.197   4.024 -0.0968  0.1468 -0.4161
   54CHL1  H21C 5157   4.675   4.164   4.079 -0.1593  0.7303  0.0693
   54CHL1   C22 5158   4.851   3.957   4.127 -0.1183  0.2657  0.4907
   54CHL1  H22A 5159   4.876   3.849   4.118  0.5530  0.4171  0.4567
   54CHL1  H22B 5160   4.948   4.012   4.129  0.8123 -1.2508 -0.2460
   54CHL1   C23 5161   4.773   3.976   4.263  0.8084  0.8159  0.4586
   54CHL1  H23A 5162   4.764   4.083   4.292  0.7902  0.7207  0.8135
   54CHL1  H23B 5163   4.669   3.937   4.261  0.9127  0.5493  0.1085
   54CHL1   C24 5164   4.854   3.893   4.374  0.5269  1.3194  0.2261
   54CHL1  H24A 5165   4.845   3.784   4.358 -0.5208  1.3833  0.3303
   54CHL1  H24B 5166   4.963   3.915   4.376  0.7465  0.4564  4.0984
   54CHL1   C25 5167   4.811   3.907   4.516 -0.8574 -0.2338 -0.5316
   54CHL1   H25 5168   4.817   4.015   4.542  2.1025  0.0073 -1.8255
   54CHL1   C26 5169   4.676   3.847   4.541 -0.1077  0.0665  0.2384
   54CHL1  H26A 5170   4.674   3.738   4.522  2.5479 -0.1218  0.6218
   54CHL1  H26B 5171   4.648   3.855   4.648 -1.1015  0.8233 -0.0632
   54CHL1  H26C 5172   4.603   3.891   4.470 -1.2201 -2.9228 -0.6355
   54CHL1   C27 5173   4.904   3.842   4.616  0.2729 -0.9633 -0.2146
   54CHL1  H27A 5174   4.846   3.844   4.711 -1.1607 -2.9449 -0.9779
   54CHL1  H27B 5175   4.924   3.737   4.589  3.5780 -0.9666  1.7705
   54CHL1  H27C 5176   4.991   3.906   4.640 -1.2311  0.8591  0.6849
   55CHL1    C3 5177   0.819   6.355   2.944 -0.1058  0.3767 -0.1770
   55CHL1    H3 5178   0.930   6.353   2.958 -0.4660  0.9104  3.8194
   55CHL1    O3 5179   0.781   6.367   2.801  0.2683 -0.0677 -0.3954
   55CHL1   H3' 5180   0.823   6.446   2.765 -0.4874  0.5687  0.0754
   55CHL1    C4 5181   0.758   6.221   2.991  0.0507 -0.8421  0.0821
   55CHL1   H4A 5182   0.651   6.217   2.964 -0.7612 -0.5085  2.9747
   55CHL1   H4B 5183   0.811   6.140   2.935  3.5995  1.1442  0.2591
   55CHL1    C5 5184   0.763   6.188   3.137 -1.3114 -0.6295 -0.2482
   55CHL1    C6 5185   0.807   6.069   3.180  0.0832  0.2344  0.5462
   55CHL1    H6 5186   0.829   5.986   3.112  1.9057  0.7539  0.4408
   55CHL1    C7 5187   0.811   6.033   3.326  0.7036  0.0419  0.6224
   55CHL1   H7A 5188   0.771   5.933   3.354 -0.4220  0.0775 -0.7243
   55CHL1   H7B 5189   0.914   6.045   3.365  0.6863 -1.3217  1.1375
   55CHL1    C8 5190   0.728   6.131   3.411  0.0445  0.8709  0.4210
   55CHL1    H8 5191   0.620   6.104   3.406 -0.3597  1.7098  3.1805
   55CHL1   C14 5192   0.779   6.126   3.558  0.3071  0.5439  0.4602
   55CHL1   H14 5193   0.885   6.158   3.564  0.1439  1.2163 -0.1444
   55CHL1   C15 5194   0.780   5.986   3.625  0.3147 -0.0582 -0.0403
   55CHL1  H15A 5195   0.693   5.925   3.593 -0.9624  1.3707  0.5321
   55CHL1  H15B 5196   0.875   5.945   3.585  1.2958  1.0824  1.0343
   55CHL1   C16 5197   0.784   6.017   3.776  0.1322 -0.6995 -0.3140
   55CHL1  H16A 5198   0.691   5.972   3.816  0.9813 -0.5523  2.0440
   55CHL1  H16B 5199   0.862   5.962   3.834  0.1050 -1.0478 -0.6107
   55CHL1   C17 5200   0.772   6.172   3.791  0.3665 -0.8131  0.3359
   55CHL1   H17 5201   0.873   6.220   3.790 -1.0294  2.4032 -1.0383
   55CHL1   C13 5202   0.711   6.220   3.658  0.3737 -0.3693 -0.0007
   55CHL1   C18 5203   0.557   6.183   3.669 -0.0223  0.7277  0.2882
   55CHL1  H18A 5204   0.506   6.193   3.571  1.2103  1.3751 -0.3056
   55CHL1  H18B 5205   0.529   6.078   3.695 -1.7316  0.6785 -1.4989
   55CHL1  H18C 5206   0.499   6.246   3.740 -1.3346 -1.1248  0.9297
   55CHL1   C12 5207   0.747   6.367   3.607  0.2187  0.1379  0.3281
   55CHL1  H12A 5208   0.699   6.439   3.677 -1.1074  0.3553 -0.7670
   55CHL1  H12B 5209   0.858   6.379   3.605  0.3368 -0.8205  0.6824
   55CHL1   C11 5210   0.689   6.389   3.471  0.8571 -0.4363 -0.2608
   55CHL1  H11A 5211   0.579   6.369   3.469  0.8502 -1.0816  2.4634
   55CHL1  H11B 5212   0.713   6.491   3.436  0.2334 -0.1491  0.1353
   55CHL1    C9 5213   0.749   6.278   3.367 -0.3680  0.0879 -0.5375
   55CHL1    H9 5214   0.858   6.290   3.383 -0.1591 -0.9753 -1.0668
   55CHL1   C10 5215   0.719   6.305   3.222  0.0115 -0.2460 -0.3455
   55CHL1   C19 5216   0.563   6.306   3.204  0.6358 -0.0884  0.0657
   55CHL1  H19A 5217   0.535   6.336   3.101 -0.1154 -0.9165  0.0101
   55CHL1  H19B 5218   0.515   6.207   3.224  0.3496 -0.6026 -2.7426
   55CHL1  H19C 5219   0.520   6.372   3.282 -3.5902 -1.9587 -0.4110
   55CHL1    C1 5220   0.785   6.444   3.169 -0.3301 -0.0792 -0.8004
   55CHL1   H1A 5221   0.738   6.529   3.224 -0.6514 -2.3005  2.7231
   55CHL1   H1B 5222   0.892   6.452   3.199 -0.5616 -0.2171  0.1102
   55CHL1    C2 5223   0.771   6.470   3.020  0.4918 -0.5601  0.0801
   55CHL1   H2A 5224   0.830   6.562   2.999  0.7036 -0.0329  2.6509
   55CHL1   H2B 5225   0.664   6.493   3.002  0.4625 -0.2006  0.6931
   55CHL1   C20 5226   0.705   6.217   3.928  0.3834  0.4336  0.0001
   55CHL1   H20 5227   0.598   6.190   3.923  0.3159  0.4071  1.3214
   55CHL1   C21 5228   0.706   6.372   3.937 -0.2653 -0.0589  0.4575
   55CHL1  H21A 5229   0.622   6.403   3.870 -1.6178 -2.1467  1.0736
   55CHL1  H21B 5230   0.801   6.421   3.909 -0.5625  1.4855  1.9842
   55CHL1  H21C 5231   0.674   6.396   4.041 -1.4201  0.0432  0.0972
   55CHL1   C22 5232   0.778   6.150   4.045 -0.8924  0.2877 -0.6732
   55CHL1  H22A 5233   0.874   6.103   4.015 -0.5820  1.1467 -1.0559
   55CHL1  H22B 5234   0.798   6.221   4.128  0.7781 -1.2931  0.3678
   55CHL1   C23 5235   0.697   6.042   4.101  0.5161  0.1997 -0.6175
   55CHL1  H23A 5236   0.676   5.955   4.035 -0.7537  0.3469 -0.4368
   55CHL1  H23B 5237   0.754   6.001   4.188  2.0220  2.0587 -0.6748
   55CHL1   C24 5238   0.565   6.083   4.168 -0.1676  0.3389 -0.0245
   55CHL1  H24A 5239   0.576   6.161   4.246  0.8676 -1.0218  1.2382
   55CHL1  H24B 5240   0.502   6.131   4.090 -0.5836  0.3357  0.3064
   55CHL1   C25 5241   0.488   5.962   4.225 -0.0505  0.1906 -0.1301
   55CHL1   H25 5242   0.560   5.897   4.280  0.8645  0.3288 -1.1162
   55CHL1   C26 5243   0.389   6.010   4.327 -0.8333  0.8339 -0.1670
   55CHL1  H26A 5244   0.322   5.936   4.376  0.0193 -0.0449 -0.2812
   55CHL1  H26B 5245   0.447   6.052   4.413  0.4014 -2.2298  0.6212
   55CHL1  H26C 5246   0.329   6.100   4.302  0.6651  2.0225  0.2990
   55CHL1   C27 5247   0.418   5.889   4.111  0.7067  0.2841 -0.1912
   55CHL1  H27A 5248   0.353   5.815   4.164 -0.7476  0.8427 -1.1262
   55CHL1  H27B 5249   0.364   5.960   4.045  0.1819 -0.4236 -0.5488
   55CHL1  H27C 5250   0.490   5.837   4.046  0.2626 -2.4314  1.3157
   56CHL1    C3 5251   2.627   1.790   2.877 -0.7952  0.3772  0.0048
   56CHL1    H3 5252   2.581   1.882   2.834  1.1132  1.3867  0.0400
   56CHL1    O3 5253   2.746   1.757   2.807 -0.2724 -0.2894  0.2121
   56CHL1   H3' 5254   2.811   1.822   2.833  1.0711 -0.8777 -1.4620
   56CHL1    C4 5255   2.663   1.832   3.019 -0.2622  0.0149 -0.3721
   56CHL1   H4A 5256   2.714   1.738   3.048 -0.8975 -1.1173 -2.6885
   56CHL1   H4B 5257   2.715   1.930   3.010 -2.0653  1.1419  0.8428
   56CHL1    C5 5258   2.537   1.839   3.107  0.3934 -0.5298  0.4710
   56CHL1    C6 5259   2.515   1.943   3.184  0.8639 -0.3494  0.2020
   56CHL1    H6 5260   2.584   2.028   3.171 -0.5633  0.6023 -1.6043
   56CHL1    C7 5261   2.398   1.947   3.287  0.3259  0.3529  0.4151
   56CHL1   H7A 5262   2.424   2.000   3.381 -2.8564  0.0668  1.5626
   56CHL1   H7B 5263   2.314   2.012   3.253 -0.5787 -1.2387 -0.5261
   56CHL1    C8 5264   2.334   1.810   3.306  0.1337  0.0105 -0.0974
   56CHL1    H8 5265   2.403   1.762   3.378  1.1270 -1.6154 -2.0338
   56CHL1   C14 5266   2.199   1.815   3.383  0.4961 -0.6836 -0.5131
   56CHL1   H14 5267   2.134   1.862   3.307  0.1889 -0.2879 -0.0084
   56CHL1   C15 5268   2.206   1.911   3.510  0.1851  0.1691  0.1662
   56CHL1  H15A 5269   2.293   1.884   3.574 -0.5877  0.0085  1.1870
   56CHL1  H15B 5270   2.195   2.018   3.484  1.2500  0.4651  0.8796
   56CHL1   C16 5271   2.073   1.863   3.587  0.2489 -0.6758 -0.3519
   56CHL1  H16A 5272   2.099   1.832   3.690  0.1561 -1.1408 -0.4640
   56CHL1  H16B 5273   1.997   1.944   3.582 -1.0174 -1.9004 -2.8967
   56CHL1   C17 5274   2.005   1.750   3.503  0.1524  0.0752 -0.0753
   56CHL1   H17 5275   1.937   1.798   3.429  1.6713  0.6545 -1.1535
   56CHL1   C13 5276   2.123   1.692   3.424 -0.1628  0.2619 -0.5467
   56CHL1   C18 5277   2.208   1.612   3.519 -0.1172 -0.0558 -0.1127
   56CHL1  H18A 5278   2.160   1.514   3.539  1.0583 -0.6153  0.0363
   56CHL1  H18B 5279   2.306   1.590   3.471 -0.4393  0.9022 -1.2638
   56CHL1  H18C 5280   2.242   1.657   3.615  4.5473 -0.3196 -1.3908
   56CHL1   C12 5281   2.102   1.622   3.292  0.3006  0.2836  0.7673
   56CHL1  H12A 5282   2.051   1.525   3.309 -4.3884  2.2656 -0.4533
   56CHL1  H12B 5283   2.022   1.673   3.235  0.1278  1.2918  1.8716
   56CHL1   C11 5284   2.231   1.603   3.205  0.4977  0.5914 -0.1147
   56CHL1  H11A 5285   2.291   1.523   3.255  0.4035  0.2875 -0.4826
   56CHL1  H11B 5286   2.193   1.555   3.112 -1.1780 -1.6799  1.5914
   56CHL1    C9 5287   2.312   1.732   3.181  0.4331  0.1097 -0.2891
   56CHL1    H9 5288   2.259   1.801   3.111  0.0778 -1.3078 -1.4713
   56CHL1   C10 5289   2.443   1.711   3.105  0.1377 -0.1659 -0.8660
   56CHL1   C19 5290   2.525   1.590   3.168  0.4064  0.2199 -0.2171
   56CHL1  H19A 5291   2.474   1.497   3.134  1.8331  0.0223 -2.0078
   56CHL1  H19B 5292   2.633   1.577   3.143  0.5252 -0.6084  0.6568
   56CHL1  H19C 5293   2.521   1.581   3.278 -3.1550 -0.9250 -0.3377
   56CHL1    C1 5294   2.407   1.673   2.964  0.1435  0.2077 -0.1333
   56CHL1   H1A 5295   2.366   1.570   2.965  2.1573 -0.6430  0.4329
   56CHL1   H1B 5296   2.330   1.742   2.923  0.0760  1.8489  2.5534
   56CHL1    C2 5297   2.527   1.671   2.867 -0.0835 -0.2740  0.8231
   56CHL1   H2A 5298   2.482   1.674   2.765 -0.0170  1.2530  0.8136
   56CHL1   H2B 5299   2.589   1.579   2.879 -0.0127 -0.3354  0.0908
   56CHL1   C20 5300   1.933   1.653   3.596 -0.3407 -0.3273 -0.1887
   56CHL1   H20 5301   1.997   1.607   3.674 -2.3287  0.7969  2.2576
   56CHL1   C21 5302   1.880   1.522   3.518  0.1280 -1.1482 -0.6970
   56CHL1  H21A 5303   1.961   1.448   3.498  1.5745  0.1165  0.2326
   56CHL1  H21B 5304   1.834   1.560   3.424  0.7606 -0.5663 -0.7825
   56CHL1  H21C 5305   1.788   1.483   3.567 -0.0937  1.9321  1.6720
   56CHL1   C22 5306   1.818   1.720   3.678  0.0564 -0.1247  0.0951
   56CHL1  H22A 5307   1.846   1.823   3.710 -0.0476  0.3924 -1.3962
   56CHL1  H22B 5308   1.724   1.724   3.619 -0.9536 -0.1643  1.6555
   56CHL1   C23 5309   1.781   1.627   3.793  0.0233 -0.7870  0.0902
   56CHL1  H23A 5310   1.727   1.536   3.761  0.2276 -0.7694 -0.3162
   56CHL1  H23B 5311   1.873   1.605   3.852  0.1853  1.5851  0.8289
   56CHL1   C24 5312   1.691   1.715   3.895  0.1644  0.0504  0.1923
   56CHL1  H24A 5313   1.763   1.772   3.958  1.8441 -1.1579 -0.5480
   56CHL1  H24B 5314   1.623   1.783   3.840  0.4365 -0.1963 -0.4593
   56CHL1   C25 5315   1.591   1.634   3.976  0.4908 -0.5473 -0.1096
   56CHL1   H25 5316   1.545   1.703   4.049  0.8038 -0.8787  0.4077
   56CHL1   C26 5317   1.481   1.566   3.893 -0.4028  0.9372 -0.2983
   56CHL1  H26A 5318   1.414   1.647   3.857 -2.7809 -0.6737  0.2375
   56CHL1  H26B 5319   1.523   1.508   3.809  0.7240 -1.7057  1.9325
   56CHL1  H26C 5320   1.403   1.514   3.952  0.8132  0.1978  0.7144
   56CHL1   C27 5321   1.657   1.529   4.068 -0.1593 -0.1233  0.4979
   56CHL1  H27A 5322   1.743   1.564   4.130  0.5938  1.3352 -1.2660
   56CHL1  H27B 5323   1.572   1.481   4.122 -1.2544 -0.4810 -1.4674
   56CHL1  H27C 5324   1.707   1.466   3.992  2.0781 -0.8822  2.4768
   57CHL1    C3 5325   1.995   6.864   3.214 -0.0551 -0.2044 -0.8836
   57CHL1    H3 5326   2.099   6.850   3.180  0.1765 -1.3036  0.2315
   57CHL1    O3 5327   1.931   6.928   3.106  0.0515 -0.3472  0.4808
   57CHL1   H3' 5328   1.965   7.018   3.108 -1.0790  0.1279 -0.5480
   57CHL1    C4 5329   1.924   6.732   3.253  0.6241  0.1291 -0.5724
   57CHL1   H4A 5330   1.818   6.765   3.257  0.3766 -0.5929 -0.9898
   57CHL1   H4B 5331   1.925   6.668   3.162  1.0096 -1.6702  0.6493
   57CHL1    C5 5332   1.975   6.667   3.384 -0.0715 -0.1638 -0.0349
   57CHL1    C6 5333   2.013   6.537   3.387 -0.3817 -0.1301 -0.3953
   57CHL1    H6 5334   2.026   6.485   3.291  1.3241  1.8808 -1.3463
   57CHL1    C7 5335   2.063   6.472   3.516 -0.1308 -0.1539  0.4147
   57CHL1   H7A 5336   2.004   6.378   3.518 -1.0297  0.1448 -3.7106
   57CHL1   H7B 5337   2.171   6.450   3.506  0.0841  0.5508  1.0745
   57CHL1    C8 5338   2.032   6.556   3.649 -0.6483  0.6516 -0.2626
   57CHL1    H8 5339   1.925   6.549   3.677  0.0453  0.3064  2.6532
   57CHL1   C14 5340   2.125   6.517   3.766 -0.8714  0.9046 -0.4726
   57CHL1   H14 5341   2.229   6.543   3.739 -0.2670 -0.0353  0.8232
   57CHL1   C15 5342   2.144   6.358   3.794  0.1585  0.2652  0.1513
   57CHL1  H15A 5343   2.069   6.291   3.747  1.5549  0.6787 -2.9162
   57CHL1  H15B 5344   2.243   6.330   3.753 -0.1324 -1.7343  0.6838
   57CHL1   C16 5345   2.176   6.351   3.942 -0.4284 -0.1061 -0.5714
   57CHL1  H16A 5346   2.094   6.312   4.005  0.2702  1.1989  1.2483
   57CHL1  H16B 5347   2.266   6.288   3.961 -1.9408 -2.2830 -0.3195
   57CHL1   C17 5348   2.191   6.497   3.988  0.1635 -0.2746 -0.0030
   57CHL1   H17 5349   2.300   6.518   3.976  0.2020 -1.3690 -1.9913
   57CHL1   C13 5350   2.102   6.583   3.893  0.2173 -0.1893 -0.2398
   57CHL1   C18 5351   1.950   6.562   3.948 -0.2920  0.0747 -0.0263
   57CHL1  H18A 5352   1.927   6.615   4.042 -1.4247  2.6455 -1.6704
   57CHL1  H18B 5353   1.877   6.592   3.870  0.5655  0.4218 -0.7265
   57CHL1  H18C 5354   1.920   6.457   3.967  1.0701 -0.8096 -2.2708
   57CHL1   C12 5355   2.123   6.733   3.873 -0.2846  0.3864 -0.7362
   57CHL1  H12A 5356   2.071   6.786   3.956  0.6447 -0.5501  0.4626
   57CHL1  H12B 5357   2.225   6.766   3.846  0.1044 -1.0037 -1.0127
   57CHL1   C11 5358   2.049   6.793   3.750 -0.5903  0.0290  0.2051
   57CHL1  H11A 5359   1.943   6.808   3.779 -1.9136  0.8367 -4.2954
   57CHL1  H11B 5360   2.100   6.890   3.734 -0.8714  0.1443  0.0095
   57CHL1    C9 5361   2.064   6.701   3.623  0.6604  0.0336  0.1990
   57CHL1    H9 5362   2.172   6.697   3.597  0.6004 -1.8470  0.0897
   57CHL1   C10 5363   1.990   6.756   3.499  0.5298 -0.2690 -0.2693
   57CHL1   C19 5364   1.843   6.797   3.543 -0.1680  0.5710 -0.2646
   57CHL1  H19A 5365   1.806   6.709   3.600 -0.7073 -0.2632 -1.8399
   57CHL1  H19B 5366   1.849   6.877   3.620 -1.6202  0.1116  0.3465
   57CHL1  H19C 5367   1.782   6.836   3.459 -2.5657 -0.5375  0.8659
   57CHL1    C1 5368   2.058   6.889   3.455  0.4437  0.2530  0.0507
   57CHL1   H1A 5369   2.069   6.966   3.534 -0.4108 -0.3444  0.7720
   57CHL1   H1B 5370   2.161   6.858   3.431  1.1742  1.6462  1.2492
   57CHL1    C2 5371   1.997   6.956   3.332  0.0745  0.3457  0.1896
   57CHL1   H2A 5372   2.065   7.036   3.297 -0.2003 -0.7100 -3.1406
   57CHL1   H2B 5373   1.895   6.995   3.353  0.8669  1.9261  1.2732
   57CHL1   C20 5374   2.175   6.510   4.140  0.0842 -0.8609 -0.4728
   57CHL1   H20 5375   2.066   6.492   4.156  0.2284 -1.7558 -0.4511
   57CHL1   C21 5376   2.212   6.654   4.191 -0.1156 -0.3027 -1.0027
   57CHL1  H21A 5377   2.316   6.682   4.165 -0.2231  2.0965  0.7514
   57CHL1  H21B 5378   2.200   6.653   4.302  2.5760  0.6354 -0.6355
   57CHL1  H21C 5379   2.139   6.729   4.154 -0.5647 -0.5623 -0.6461
   57CHL1   C22 5380   2.252   6.406   4.230  0.0133 -0.0196 -0.0213
   57CHL1  H22A 5381   2.226   6.412   4.338 -0.4251 -1.5659 -0.0176
   57CHL1  H22B 5382   2.223   6.303   4.200  1.3013 -0.6812  0.9294
   57CHL1   C23 5383   2.405   6.410   4.226 -0.5936  0.2858 -0.0965
   57CHL1  H23A 5384   2.445   6.398   4.123 -0.6676 -0.7636 -0.0174
   57CHL1  H23B 5385   2.445   6.507   4.264  3.6108 -1.1267 -0.3752
   57CHL1   C24 5386   2.467   6.305   4.317 -0.6381  0.2751  0.1991
   57CHL1  H24A 5387   2.457   6.204   4.272  0.7693  0.2863 -0.1699
   57CHL1  H24B 5388   2.576   6.323   4.328 -0.6964  0.7223  0.0934
   57CHL1   C25 5389   2.419   6.305   4.466 -0.1722 -1.1759 -0.1346
   57CHL1   H25 5390   2.309   6.302   4.474 -0.2352  0.7458  0.0847
   57CHL1   C26 5391   2.473   6.182   4.544  0.1847  0.0270  0.1203
   57CHL1  H26A 5392   2.582   6.203   4.549 -0.1106  2.0355 -0.6742
   57CHL1  H26B 5393   2.433   6.189   4.648  1.6809 -0.5063  0.7570
   57CHL1  H26C 5394   2.456   6.083   4.497  0.8443 -0.6556  1.2671
   57CHL1   C27 5395   2.457   6.433   4.538  0.4012  0.5596  0.5529
   57CHL1  H27A 5396   2.565   6.453   4.527  0.8626 -1.9656  0.0680
   57CHL1  H27B 5397   2.397   6.524   4.513  0.5503  0.8283  1.1542
   57CHL1  H27C 5398   2.444   6.422   4.648  3.1567  0.1563  0.9067
   58CHL1    C3 5399   6.468   4.023   2.884  0.1677 -0.1986  0.7398
   58CHL1    H3 5400   6.491   4.129   2.862  2.7850 -1.2192 -2.1829
   58CHL1    O3 5401   6.447   3.961   2.754 -0.6444  0.1201 -0.9519
   58CHL1   H3' 5402   6.404   3.878   2.776 -1.2857  0.5517 -0.5183
   58CHL1    C4 5403   6.592   3.956   2.942 -0.0785  0.3503  0.0292
   58CHL1   H4A 5404   6.565   3.848   2.935 -0.2505  0.3896  0.0790
   58CHL1   H4B 5405   6.682   3.967   2.879 -0.5200 -3.6099 -1.5777
   58CHL1    C5 5406   6.624   3.990   3.081  0.2736 -0.4643 -0.2763
   58CHL1    C6 5407   6.740   4.052   3.113 -0.3579  0.3928  0.4477
   58CHL1    H6 5408   6.812   4.061   3.030  1.2616  0.1203  1.7838
   58CHL1    C7 5409   6.777   4.108   3.248  0.0405 -0.0561  0.3203
   58CHL1   H7A 5410   6.884   4.082   3.255  0.6265  2.2898  1.0566
   58CHL1   H7B 5411   6.755   4.217   3.248 -0.8913 -0.2295  0.2591
   58CHL1    C8 5412   6.679   4.054   3.359 -0.0627 -0.3255 -0.2993
   58CHL1    H8 5413   6.692   3.945   3.376 -2.9397 -1.0381 -1.9484
   58CHL1   C14 5414   6.693   4.145   3.484 -0.4430 -0.7298  0.6871
   58CHL1   H14 5415   6.651   4.247   3.470 -0.5314 -0.5791  1.9058
   58CHL1   C15 5416   6.834   4.184   3.529 -0.5943 -0.1314 -0.1556
   58CHL1  H15A 5417   6.894   4.092   3.516  0.1405  0.5672 -2.0274
   58CHL1  H15B 5418   6.875   4.263   3.462  1.5669 -1.4588 -0.4733
   58CHL1   C16 5419   6.818   4.227   3.674 -1.1536 -0.5381  0.1675
   58CHL1  H16A 5420   6.897   4.168   3.725 -1.3742 -2.2635 -1.3523
   58CHL1  H16B 5421   6.842   4.334   3.686  2.0997 -1.1739  0.0730
   58CHL1   C17 5422   6.668   4.206   3.703  0.1930 -0.5539 -0.5257
   58CHL1   H17 5423   6.617   4.302   3.680 -0.8749 -0.9217  0.2113
   58CHL1   C13 5424   6.613   4.098   3.599  0.0782 -0.0456  0.7283
   58CHL1   C18 5425   6.664   3.958   3.647  0.1140 -0.0878 -0.1537
   58CHL1  H18A 5426   6.767   3.964   3.687 -1.2797  1.1590  3.8474
   58CHL1  H18B 5427   6.591   3.946   3.730  0.7463  2.0217  0.7975
   58CHL1  H18C 5428   6.657   3.884   3.565 -1.7671 -1.4882  1.1709
   58CHL1   C12 5429   6.462   4.096   3.559 -0.4250 -0.0887 -0.5909
   58CHL1  H12A 5430   6.402   4.047   3.640  3.1552 -0.3568  2.1179
   58CHL1  H12B 5431   6.422   4.199   3.553  1.2071  0.6696  0.9335
   58CHL1   C11 5432   6.438   4.026   3.430 -0.1634 -0.1063 -0.4167
   58CHL1  H11A 5433   6.426   3.916   3.441  0.3367 -0.2110 -0.8393
   58CHL1  H11B 5434   6.342   4.065   3.390  0.5397  2.5524  0.2648
   58CHL1    C9 5435   6.533   4.054   3.313  0.3444 -0.1121  0.3816
   58CHL1    H9 5436   6.530   4.162   3.286 -1.2198  0.3071  2.0423
   58CHL1   C10 5437   6.501   3.981   3.181  0.9236  0.6672  0.7244
   58CHL1   C19 5438   6.477   3.832   3.206 -0.5451 -0.5982  0.1416
   58CHL1  H19A 5439   6.549   3.795   3.283 -0.3223 -0.4095  0.0225
   58CHL1  H19B 5440   6.376   3.801   3.242 -1.4319  2.1321  0.1870
   58CHL1  H19C 5441   6.492   3.768   3.116 -1.6406 -1.7893  0.7660
   58CHL1    C1 5442   6.386   4.056   3.117 -0.1594 -0.4878  0.2175
   58CHL1   H1A 5443   6.299   4.042   3.184 -0.9989  1.9978 -0.2467
   58CHL1   H1B 5444   6.393   4.167   3.117  1.3994 -0.5458  1.1956
   58CHL1    C2 5445   6.348   4.012   2.973 -0.1409  0.3188  0.1433
   58CHL1   H2A 5446   6.257   4.066   2.940 -1.3833 -1.3978  0.6044
   58CHL1   H2B 5447   6.315   3.907   2.991 -0.6249  0.7229  1.8707
   58CHL1   C20 5448   6.627   4.176   3.855 -0.4003 -0.0263  0.1801
   58CHL1   H20 5449   6.538   4.110   3.860  0.1215 -0.6490  2.9199
   58CHL1   C21 5450   6.582   4.304   3.914 -0.2443 -0.9011  0.1363
   58CHL1  H21A 5451   6.538   4.300   4.016  1.8903 -1.7080  1.0953
   58CHL1  H21B 5452   6.498   4.342   3.853 -1.0813  0.2907  1.9531
   58CHL1  H21C 5453   6.654   4.388   3.908 -1.5132  0.1937 -0.0734
   58CHL1   C22 5454   6.734   4.107   3.950 -0.0664  0.5721  0.2656
   58CHL1  H22A 5455   6.790   4.044   3.879 -0.8916  1.1668 -0.9364
   58CHL1  H22B 5456   6.806   4.178   3.996 -0.3433 -0.1903  1.9738
   58CHL1   C23 5457   6.676   4.013   4.060 -0.3724  0.0836 -0.7232
   58CHL1  H23A 5458   6.622   4.078   4.133  2.7143  1.0938  0.8483
   58CHL1  H23B 5459   6.603   3.948   4.007  0.0788  0.7922 -2.2961
   58CHL1   C24 5460   6.784   3.928   4.133  0.2925  1.0618  0.0270
   58CHL1  H24A 5461   6.816   3.851   4.061 -1.8977 -1.5722  1.6713
   58CHL1  H24B 5462   6.871   3.990   4.165 -1.0270  1.4534  3.3319
   58CHL1   C25 5463   6.742   3.854   4.259  0.6047 -0.7809 -1.2279
   58CHL1   H25 5464   6.675   3.772   4.228 -1.3656  0.6291 -0.9335
   58CHL1   C26 5465   6.863   3.779   4.315 -0.0615 -0.2356 -0.0491
   58CHL1  H26A 5466   6.937   3.849   4.359  1.1437 -0.9051 -0.9275
   58CHL1  H26B 5467   6.847   3.712   4.402 -1.7750  0.2047  0.0105
   58CHL1  H26C 5468   6.911   3.716   4.237 -0.0253 -0.1037 -0.1342
   58CHL1   C27 5469   6.667   3.921   4.381 -0.6637 -0.1048 -0.1644
   58CHL1  H27A 5470   6.717   4.015   4.412  0.5885 -1.0093  0.6377
   58CHL1  H27B 5471   6.560   3.948   4.369 -0.7719 -0.1949  0.5790
   58CHL1  H27C 5472   6.671   3.856   4.470 -0.6373  1.3517  0.9450
   59CHL1    C3 5473   5.349   5.905   3.163  0.2198 -0.0817  0.5182
   59CHL1    H3 5474   5.389   5.802   3.172 -0.2620 -0.1351  2.4483
   59CHL1    O3 5475   5.348   5.926   3.020 -0.4481 -0.2327 -0.2887
   59CHL1   H3' 5476   5.277   5.872   2.983  2.0097 -2.6269 -1.8523
   59CHL1    C4 5477   5.207   5.929   3.209  0.2840  0.1120  1.3459
   59CHL1   H4A 5478   5.166   6.031   3.195 -1.0867 -0.5015  0.5806
   59CHL1   H4B 5479   5.140   5.864   3.147  0.7418  1.4879 -0.7054
   59CHL1    C5 5480   5.191   5.893   3.358 -0.7027  0.8535  1.0410
   59CHL1    C6 5481   5.094   5.814   3.400  0.4424  0.3762 -0.5522
   59CHL1    H6 5482   5.013   5.774   3.338 -2.7150  2.6089  1.8627
   59CHL1    C7 5483   5.069   5.774   3.544  0.6645  0.0011  0.8510
   59CHL1   H7A 5484   4.959   5.769   3.551  0.7066 -0.4159  1.2135
   59CHL1   H7B 5485   5.103   5.674   3.578 -2.1074 -0.4326  2.6959
   59CHL1    C8 5486   5.149   5.870   3.640 -0.6100 -0.3472  0.1837
   59CHL1    H8 5487   5.094   5.966   3.646  2.2491  1.4187 -0.1619
   59CHL1   C14 5488   5.156   5.802   3.778  0.5832 -0.2470  0.6390
   59CHL1   H14 5489   5.236   5.724   3.781  0.0823 -0.7522  1.3795
   59CHL1   C15 5490   5.027   5.741   3.834  0.8669  0.2092 -0.0219
   59CHL1  H15A 5491   4.946   5.815   3.815 -0.6029 -0.8852  1.6213
   59CHL1  H15B 5492   5.009   5.640   3.792  0.5258  0.8214 -1.3884
   59CHL1   C16 5493   5.062   5.723   3.982 -0.0787 -0.1821 -0.1715
   59CHL1  H16A 5494   4.990   5.762   4.056 -0.0720 -0.4716 -0.0124
   59CHL1  H16B 5495   5.073   5.615   4.007  0.8533 -0.4530 -1.6371
   59CHL1   C17 5496   5.201   5.786   4.007  0.0203  0.1756  0.5879
   59CHL1   H17 5497   5.276   5.706   3.991  1.5928  1.3634  1.7358
   59CHL1   C13 5498   5.218   5.883   3.889  0.1338 -0.0778  1.0640
   59CHL1   C18 5499   5.136   6.011   3.915 -0.3237 -0.9662  0.1363
   59CHL1  H18A 5500   5.122   6.078   3.828 -1.7958  0.2042  1.2259
   59CHL1  H18B 5501   5.034   5.985   3.951 -0.3052 -0.5040  0.5291
   59CHL1  H18C 5502   5.183   6.070   3.996 -0.5152  0.4287 -0.7402
   59CHL1   C12 5503   5.366   5.911   3.839 -0.3968 -0.5395  0.1811
   59CHL1  H12A 5504   5.428   5.963   3.914  0.9930 -0.7897 -0.7627
   59CHL1  H12B 5505   5.418   5.817   3.815  1.6028  0.6997 -0.5714
   59CHL1   C11 5506   5.363   5.989   3.701  0.3484 -0.4968  0.0833
   59CHL1  H11A 5507   5.301   6.080   3.715 -1.4806 -1.8709  1.4350
   59CHL1  H11B 5508   5.462   6.021   3.662 -0.6725 -0.2143 -2.5329
   59CHL1    C9 5509   5.290   5.906   3.597  0.5378  1.0068 -0.0598
   59CHL1    H9 5510   5.355   5.815   3.597 -0.0455  0.5541 -1.7799
   59CHL1   C10 5511   5.297   5.959   3.449 -0.6502 -0.5269 -0.0230
   59CHL1   C19 5512   5.253   6.110   3.456  0.3503  0.3345 -0.0551
   59CHL1  H19A 5513   5.328   6.164   3.519  0.5256  1.6393 -1.3405
   59CHL1  H19B 5514   5.256   6.149   3.352 -3.7252 -0.6224 -0.6742
   59CHL1  H19C 5515   5.152   6.109   3.500  0.6174 -0.7221  0.5771
   59CHL1    C1 5516   5.440   5.950   3.392  0.1042  0.1029 -0.5144
   59CHL1   H1A 5517   5.509   6.022   3.442 -0.5064 -1.1365  2.3158
   59CHL1   H1B 5518   5.486   5.849   3.405  3.8536  1.6549 -0.3763
   59CHL1    C2 5519   5.445   5.993   3.237  0.0202  0.0203  0.4906
   59CHL1   H2A 5520   5.548   5.994   3.196  0.0346 -0.2375  0.5212
   59CHL1   H2B 5521   5.401   6.095   3.231 -1.3643 -0.5415  0.7608
   59CHL1   C20 5522   5.216   5.847   4.146  0.3862  0.7546  0.1052
   59CHL1   H20 5523   5.140   5.927   4.160 -0.6555 -0.4952  2.0970
   59CHL1   C21 5524   5.362   5.909   4.163  0.3125 -0.3766 -0.0667
   59CHL1  H21A 5525   5.364   6.010   4.116  0.8242  0.9180  2.5569
   59CHL1  H21B 5526   5.447   5.848   4.127 -0.1034 -1.1707  0.2679
   59CHL1  H21C 5527   5.375   5.929   4.271  0.7933 -0.6719 -0.0698
   59CHL1   C22 5528   5.199   5.746   4.264 -0.1835 -0.2726  0.6309
   59CHL1  H22A 5529   5.217   5.798   4.360  0.2703  0.0630  0.3706
   59CHL1  H22B 5530   5.095   5.706   4.266 -0.0400 -0.6273  0.9970
   59CHL1   C23 5531   5.285   5.624   4.249  1.0426 -0.9381 -0.0780
   59CHL1  H23A 5532   5.258   5.561   4.160  2.1347 -1.3163 -0.1593
   59CHL1  H23B 5533   5.390   5.659   4.246  0.0205  3.1132  3.2328
   59CHL1   C24 5534   5.277   5.549   4.383 -0.5349 -0.0620  0.1790
   59CHL1  H24A 5535   5.288   5.621   4.467 -0.5398 -1.0960  1.0783
   59CHL1  H24B 5536   5.174   5.508   4.381  0.2561 -2.1585 -2.0760
   59CHL1   C25 5537   5.389   5.445   4.390  0.2794 -1.2458  0.4493
   59CHL1   H25 5538   5.485   5.496   4.367  0.1692 -0.9383  0.6554
   59CHL1   C26 5539   5.412   5.406   4.534 -0.4259  0.3192 -0.0426
   59CHL1  H26A 5540   5.517   5.369   4.538 -0.2869 -0.0302 -3.6757
   59CHL1  H26B 5541   5.408   5.495   4.601  1.6512  0.4664 -0.0421
   59CHL1  H26C 5542   5.338   5.335   4.577  0.5485 -1.2632 -0.8621
   59CHL1   C27 5543   5.376   5.331   4.297  0.0134  0.2562 -0.4344
   59CHL1  H27A 5544   5.454   5.254   4.314 -1.6489 -1.0663  1.6895
   59CHL1  H27B 5545   5.285   5.280   4.334 -0.7501  1.8852  0.0238
   59CHL1  H27C 5546   5.374   5.359   4.189  1.4957 -0.3965 -0.6604
   60CHL1    C3 5547   5.352   3.944   2.878 -1.7480  0.2732 -0.5120
   60CHL1    H3 5548   5.362   3.833   2.869  0.7037  0.3427  0.4319
   60CHL1    O3 5549   5.353   3.983   2.742  0.7762 -0.0660  0.0942
   60CHL1   H3' 5550   5.432   4.036   2.726  1.6535 -0.9725  1.2418
   60CHL1    C4 5551   5.256   4.012   2.966  0.2085 -0.5662 -0.0050
   60CHL1   H4A 5552   5.249   4.119   2.940  0.6030  0.1090  2.4029
   60CHL1   H4B 5553   5.165   3.965   2.922  0.5287 -0.3515 -0.9035
   60CHL1    C5 5554   5.278   3.991   3.117  0.0061  0.0682 -0.0797
   60CHL1    C6 5555   5.184   3.933   3.188 -0.0513 -0.1350 -0.0982
   60CHL1    H6 5556   5.095   3.900   3.133 -0.2287 -1.9595  1.1927
   60CHL1    C7 5557   5.199   3.879   3.329  0.2189 -0.3969 -0.7620
   60CHL1   H7A 5558   5.110   3.890   3.395  1.2325  1.1395  0.4273
   60CHL1   H7B 5559   5.233   3.773   3.326  0.8643 -0.1888 -0.9111
   60CHL1    C8 5560   5.321   3.949   3.398  0.1039 -0.0897 -0.1613
   60CHL1    H8 5561   5.291   4.052   3.426 -0.1500 -0.6350  1.7192
   60CHL1   C14 5562   5.356   3.868   3.528  0.0150  0.3361  0.5399
   60CHL1   H14 5563   5.388   3.766   3.497 -2.9256 -0.6043  0.3184
   60CHL1   C15 5564   5.235   3.837   3.622  0.0967  0.3417  1.2450
   60CHL1  H15A 5565   5.184   3.935   3.618 -0.8585 -0.1566  0.5404
   60CHL1  H15B 5566   5.162   3.761   3.587  0.4636  0.4679  0.1562
   60CHL1   C16 5567   5.310   3.812   3.755 -0.2112  0.0563  0.6143
   60CHL1  H16A 5568   5.277   3.883   3.833  0.6800 -1.3680  2.3500
   60CHL1  H16B 5569   5.288   3.710   3.793 -1.8113 -1.1668 -3.0851
   60CHL1   C17 5570   5.461   3.844   3.731 -0.0270 -0.1402 -0.0631
   60CHL1   H17 5571   5.504   3.743   3.715 -0.0092 -0.2749  0.7848
   60CHL1   C13 5572   5.471   3.930   3.606  0.0398 -0.1399  0.2021
   60CHL1   C18 5573   5.436   4.083   3.641 -0.1991  0.1141  0.6581
   60CHL1  H18A 5574   5.338   4.082   3.694 -1.7859 -0.6595 -2.0367
   60CHL1  H18B 5575   5.513   4.140   3.696 -0.4276  0.1684  0.9286
   60CHL1  H18C 5576   5.425   4.146   3.551  2.3338  1.1631  1.0224
   60CHL1   C12 5577   5.600   3.922   3.519 -0.1638  0.6686 -0.1953
   60CHL1  H12A 5578   5.688   3.953   3.579 -1.1491 -2.4070  3.2414
   60CHL1  H12B 5579   5.624   3.819   3.486 -2.1342 -0.3695  1.4048
   60CHL1   C11 5580   5.580   4.000   3.386  0.3994  0.3126 -0.0037
   60CHL1  H11A 5581   5.567   4.109   3.405 -0.8275  0.0228  0.8993
   60CHL1  H11B 5582   5.667   3.986   3.318 -0.6642 -2.4220 -0.9216
   60CHL1    C9 5583   5.447   3.952   3.312 -0.2188  0.2779 -0.4160
   60CHL1    H9 5584   5.462   3.844   3.292 -0.5535 -0.1302  1.3403
   60CHL1   C10 5585   5.415   4.020   3.177 -0.5951 -0.3980  0.0033
   60CHL1   C19 5586   5.447   4.173   3.181 -0.0348 -1.4482 -0.4689
   60CHL1  H19A 5587   5.419   4.223   3.086 -0.1680  0.3231  0.4668
   60CHL1  H19B 5588   5.380   4.226   3.253  0.1652 -0.1046 -1.2544
   60CHL1  H19C 5589   5.554   4.193   3.204 -0.1684  0.3109 -1.2448
   60CHL1    C1 5590   5.516   3.955   3.075 -0.1483 -0.1707  0.0624
   60CHL1   H1A 5591   5.617   3.995   3.101  0.1533  0.2694 -1.6696
   60CHL1   H1B 5592   5.525   3.845   3.083  1.0638 -0.1709 -0.8742
   60CHL1    C2 5593   5.491   3.978   2.924 -1.0812  0.0913  0.2826
   60CHL1   H2A 5594   5.578   3.930   2.876 -1.7185 -1.5642  0.7215
   60CHL1   H2B 5595   5.502   4.087   2.902  1.4028 -0.4247 -1.4501
   60CHL1   C20 5596   5.537   3.893   3.854  0.2895  0.0723  0.6963
   60CHL1   H20 5597   5.503   3.998   3.869  0.5251  0.6684 -2.2424
   60CHL1   C21 5598   5.693   3.904   3.847  0.0733 -0.3161  0.4038
   60CHL1  H21A 5599   5.734   3.926   3.948  1.1855 -0.9909  0.1226
   60CHL1  H21B 5600   5.713   3.990   3.780 -0.6026 -0.4185  0.0595
   60CHL1  H21C 5601   5.750   3.817   3.806  0.9921  0.4183  0.0771
   60CHL1   C22 5602   5.510   3.807   3.977  0.1557  0.2459  0.5757
   60CHL1  H22A 5603   5.406   3.770   3.986 -1.0288  3.0087 -0.5969
   60CHL1  H22B 5604   5.585   3.725   3.967  0.3362  0.2557  1.7593
   60CHL1   C23 5605   5.535   3.875   4.116 -0.0793  0.5558 -0.3746
   60CHL1  H23A 5606   5.646   3.885   4.117  0.2854 -2.4987 -0.8078
   60CHL1  H23B 5607   5.486   3.973   4.130 -1.8900 -0.5580  1.7601
   60CHL1   C24 5608   5.509   3.783   4.237 -0.7883 -0.0018 -1.2803
   60CHL1  H24A 5609   5.405   3.746   4.250 -1.3676  1.5153 -1.3383
   60CHL1  H24B 5610   5.580   3.705   4.203 -0.0270  1.2625 -2.7323
   60CHL1   C25 5611   5.545   3.851   4.369  0.3809  0.4386 -0.0535
   60CHL1   H25 5612   5.562   3.771   4.444  0.0084  0.2701 -0.1432
   60CHL1   C26 5613   5.687   3.920   4.365  0.8160  0.4627  0.3306
   60CHL1  H26A 5614   5.697   4.007   4.296 -1.0793  0.4361 -0.0460
   60CHL1  H26B 5615   5.706   3.955   4.469  2.0774 -1.2257  0.7102
   60CHL1  H26C 5616   5.763   3.841   4.349 -0.3630 -0.2301 -2.3666
   60CHL1   C27 5617   5.433   3.946   4.423 -0.9864  0.7649 -0.0405
   60CHL1  H27A 5618   5.329   3.910   4.405 -0.4964 -1.0962  0.6531
   60CHL1  H27B 5619   5.446   3.955   4.533 -2.1650  0.4323  0.1419
   60CHL1  H27C 5620   5.443   4.038   4.361  0.8730 -1.1552 -2.8148
   61CHL1    C3 5621   1.160   5.089   3.371 -0.4625  0.1101  0.3535
   61CHL1    H3 5622   1.098   5.147   3.443 -0.2464  1.8576 -0.8137
   61CHL1    O3 5623   1.156   5.159   3.252  0.3650  0.0781  0.3380
   61CHL1   H3' 5624   1.078   5.129   3.205  1.5532  0.1166 -1.7878
   61CHL1    C4 5625   1.301   5.074   3.411 -0.4977  0.2148  0.2491
   61CHL1   H4A 5626   1.371   5.010   3.354  2.0379 -0.3825  3.6912
   61CHL1   H4B 5627   1.344   5.176   3.419  1.7805 -0.5004 -1.7083
   61CHL1    C5 5628   1.311   5.014   3.549 -0.3984  0.7359  0.2431
   61CHL1    C6 5629   1.365   5.079   3.655 -0.4892 -0.2291 -0.1704
   61CHL1    H6 5630   1.405   5.180   3.636 -2.4805  0.4670 -0.9252
   61CHL1    C7 5631   1.373   5.024   3.798 -0.8012  0.3894  0.1428
   61CHL1   H7A 5632   1.471   5.024   3.850 -2.2373  0.7064  3.0090
   61CHL1   H7B 5633   1.298   5.067   3.868  0.0762  1.0335  0.7180
   61CHL1    C8 5634   1.344   4.867   3.798  0.3626 -0.6058  0.3142
   61CHL1    H8 5635   1.432   4.814   3.755 -1.5705 -2.8147 -1.1425
   61CHL1   C14 5636   1.314   4.821   3.939  0.5207  0.3604 -0.5074
   61CHL1   H14 5637   1.227   4.880   3.975 -0.7851 -2.2405  0.8634
   61CHL1   C15 5638   1.410   4.852   4.052 -0.5737 -0.8262  0.4204
   61CHL1  H15A 5639   1.512   4.833   4.014 -0.7618 -3.8290  1.1851
   61CHL1  H15B 5640   1.402   4.954   4.096 -0.0291 -0.5255 -0.1824
   61CHL1   C16 5641   1.386   4.746   4.160  0.1206  0.4355  0.1912
   61CHL1  H16A 5642   1.481   4.693   4.179  1.6314  1.7459 -2.9376
   61CHL1  H16B 5643   1.358   4.803   4.252  0.0636  1.4061 -0.4167
   61CHL1   C17 5644   1.266   4.654   4.108 -0.6201  0.1519 -0.2232
   61CHL1   H17 5645   1.173   4.710   4.132 -0.1868  2.1793 -2.7927
   61CHL1   C13 5646   1.274   4.672   3.954 -0.5842  0.4128  0.3924
   61CHL1   C18 5647   1.393   4.586   3.898 -0.1462  0.8164 -0.4361
   61CHL1  H18A 5648   1.475   4.603   3.971 -0.7084 -0.0665  0.4188
   61CHL1  H18B 5649   1.365   4.480   3.881  2.7355 -0.3127  1.2635
   61CHL1  H18C 5650   1.423   4.621   3.797 -0.9215 -0.0427 -0.9749
   61CHL1   C12 5651   1.146   4.663   3.871  0.4680  0.7129 -0.2226
   61CHL1  H12A 5652   1.089   4.567   3.866 -1.3654  1.7186  0.3103
   61CHL1  H12B 5653   1.069   4.738   3.899  0.9616  1.6302 -1.2663
   61CHL1   C11 5654   1.167   4.692   3.726 -0.2427  0.0159  0.6750
   61CHL1  H11A 5655   1.238   4.621   3.679 -0.6854 -0.0773  0.1276
   61CHL1  H11B 5656   1.067   4.675   3.679 -0.0091 -0.3297  0.2968
   61CHL1    C9 5657   1.226   4.833   3.700 -0.0370 -0.3496  0.5709
   61CHL1    H9 5658   1.142   4.901   3.725 -2.2369 -2.7441  0.1165
   61CHL1   C10 5659   1.243   4.871   3.552 -0.7025 -0.5584  0.1331
   61CHL1   C19 5660   1.340   4.770   3.480 -0.4135 -0.0950  0.4588
   61CHL1  H19A 5661   1.355   4.795   3.373 -1.1701  0.4338  0.4658
   61CHL1  H19B 5662   1.442   4.774   3.522 -0.8437 -0.1068  1.5310
   61CHL1  H19C 5663   1.304   4.665   3.483  0.3763 -0.5767 -2.9310
   61CHL1    C1 5664   1.103   4.870   3.486 -0.8864  0.0921  0.1127
   61CHL1   H1A 5665   1.078   4.765   3.459 -1.0092  0.1392  0.0437
   61CHL1   H1B 5666   1.024   4.907   3.554 -0.4458 -0.4945  0.9690
   61CHL1    C2 5667   1.099   4.948   3.354 -0.3076  0.2850 -0.2580
   61CHL1   H2A 5668   0.991   4.961   3.331 -0.5774  1.9691  1.6374
   61CHL1   H2B 5669   1.157   4.901   3.272  0.7001  0.3504  0.3968
   61CHL1   C20 5670   1.281   4.511   4.170 -0.2986  0.0041  0.4226
   61CHL1   H20 5671   1.368   4.460   4.125 -0.5032 -0.2394  0.2972
   61CHL1   C21 5672   1.163   4.427   4.127  0.0441  0.8481 -0.0580
   61CHL1  H21A 5673   1.178   4.322   4.160 -0.1505  0.6843 -0.4772
   61CHL1  H21B 5674   1.178   4.427   4.017  1.5402 -1.8301  0.0750
   61CHL1  H21C 5675   1.063   4.462   4.161  0.2838  2.5673 -0.9743
   61CHL1   C22 5676   1.300   4.515   4.326 -0.2974  0.3791 -0.2532
   61CHL1  H22A 5677   1.298   4.412   4.367 -2.8044  0.9532  1.3353
   61CHL1  H22B 5678   1.399   4.561   4.350  0.6569 -0.9273 -1.5634
   61CHL1   C23 5679   1.191   4.588   4.399 -0.2366 -0.3454  0.1845
   61CHL1  H23A 5680   1.212   4.695   4.380  2.1566 -0.9261 -0.8737
   61CHL1  H23B 5681   1.097   4.567   4.343 -1.4624  0.2608  1.9152
   61CHL1   C24 5682   1.185   4.549   4.545 -0.0857 -0.0310 -0.1678
   61CHL1  H24A 5683   1.149   4.444   4.547  1.2918 -0.5956 -1.9623
   61CHL1  H24B 5684   1.285   4.549   4.594  0.4206  0.2733 -1.1686
   61CHL1   C25 5685   1.081   4.635   4.629  0.2536  0.4111  0.7903
   61CHL1   H25 5686   0.984   4.632   4.575  0.1682 -1.9382  0.9682
   61CHL1   C26 5687   1.046   4.565   4.757 -0.0551 -0.2904 -0.6190
   61CHL1  H26A 5688   0.955   4.619   4.790  0.5475  0.3397  0.0347
   61CHL1  H26B 5689   1.027   4.457   4.736 -1.4867 -0.0734 -0.5179
   61CHL1  H26C 5690   1.130   4.571   4.829 -0.0851 -0.5729 -0.5589
   61CHL1   C27 5691   1.125   4.781   4.650  0.2295  0.3491  0.1550
   61CHL1  H27A 5692   1.049   4.836   4.709 -0.8158  1.3135 -1.9887
   61CHL1  H27B 5693   1.221   4.780   4.706  0.2424  0.4784  0.1347
   61CHL1  H27C 5694   1.129   4.828   4.550  1.7161  1.9269  0.9086
   62CHL1    C3 5695   3.113   2.413   3.482 -0.2564 -0.3598  0.7623
   62CHL1    H3 5696   3.188   2.493   3.498  2.6587 -2.1885 -2.2326
   62CHL1    O3 5697   3.092   2.412   3.343 -0.3550  0.2467 -0.1876
   62CHL1   H3' 5698   2.997   2.419   3.336 -0.1276  1.2587 -3.7419
   62CHL1    C4 5699   3.170   2.284   3.539  0.0886 -0.7608  0.2589
   62CHL1   H4A 5700   3.099   2.208   3.500 -1.8156  1.4981 -0.8890
   62CHL1   H4B 5701   3.268   2.256   3.495 -1.7523 -3.2939 -2.6188
   62CHL1    C5 5702   3.176   2.268   3.688 -0.8586  0.3191  0.0203
   62CHL1    C6 5703   3.287   2.225   3.752  0.1429 -0.8222 -0.4737
   62CHL1    H6 5704   3.375   2.194   3.693  0.3407 -1.0724 -0.0494
   62CHL1    C7 5705   3.305   2.202   3.904  0.5236 -0.5067 -0.1495
   62CHL1   H7A 5706   3.344   2.104   3.938 -1.6646 -0.8558  1.5700
   62CHL1   H7B 5707   3.363   2.286   3.948 -1.8245  2.1954 -1.8554
   62CHL1    C8 5708   3.167   2.216   3.971  0.1005 -0.0282  0.1783
   62CHL1    H8 5709   3.114   2.120   3.952  1.6277 -0.7216 -0.9148
   62CHL1   C14 5710   3.186   2.232   4.117 -0.2859  0.2816  0.3486
   62CHL1   H14 5711   3.241   2.328   4.129  0.9651 -0.0648 -1.9999
   62CHL1   C15 5712   3.284   2.133   4.182 -0.3967 -0.4750  0.4279
   62CHL1  H15A 5713   3.271   2.029   4.143 -3.0870 -0.1822  0.3642
   62CHL1  H15B 5714   3.389   2.146   4.150 -1.1326  1.3258 -1.4484
   62CHL1   C16 5715   3.245   2.134   4.331  0.2975 -0.2423  0.4439
   62CHL1  H16A 5716   3.208   2.034   4.361 -3.1235  0.5060 -0.8335
   62CHL1  H16B 5717   3.318   2.174   4.405 -0.7124  1.2901  0.6627
   62CHL1   C17 5718   3.125   2.229   4.339  0.0408 -0.8266 -0.1138
   62CHL1   H17 5719   3.171   2.329   4.351  0.9534 -1.1731 -0.6580
   62CHL1   C13 5720   3.064   2.233   4.197  0.0249 -0.4368  0.3036
   62CHL1   C18 5721   2.979   2.110   4.183 -0.1855  0.6030  0.2275
   62CHL1  H18A 5722   2.889   2.120   4.246  1.2146  1.7324  2.1341
   62CHL1  H18B 5723   2.942   2.087   4.080  0.9367 -0.7165  0.0911
   62CHL1  H18C 5724   3.038   2.022   4.217  1.2949  1.3868 -0.2203
   62CHL1   C12 5725   2.991   2.356   4.148  0.4745 -0.4399 -0.3782
   62CHL1  H12A 5726   2.894   2.380   4.198 -0.2778 -2.1406 -0.9343
   62CHL1  H12B 5727   3.051   2.447   4.165 -0.9588  0.7160 -1.2966
   62CHL1   C11 5728   2.943   2.349   3.998 -0.2435  0.3658 -0.3716
   62CHL1  H11A 5729   2.864   2.271   3.992  1.1507 -1.2062  0.8590
   62CHL1  H11B 5730   2.906   2.452   3.975 -0.4661  0.5150  0.6164
   62CHL1    C9 5731   3.073   2.330   3.910  0.0124  0.2895 -0.1215
   62CHL1    H9 5732   3.131   2.424   3.927  0.7112 -0.1220 -0.1669
   62CHL1   C10 5733   3.048   2.313   3.756  0.2524  0.2496  0.0853
   62CHL1   C19 5734   2.936   2.206   3.731  1.3023 -0.1938 -0.5679
   62CHL1  H19A 5735   2.841   2.262   3.735  2.3300  1.5568  1.4629
   62CHL1  H19B 5736   2.942   2.154   3.633  1.2236  1.9119 -1.7503
   62CHL1  H19C 5737   2.948   2.124   3.805 -0.5859  0.1565  0.1804
   62CHL1    C1 5738   2.995   2.444   3.691 -0.8304 -0.7529  0.5164
   62CHL1   H1A 5739   2.896   2.461   3.738 -0.8913  0.2540  0.0540
   62CHL1   H1B 5740   3.056   2.532   3.720 -0.2299 -0.9933  0.0209
   62CHL1    C2 5741   2.980   2.449   3.542  0.8995 -0.7608 -0.1402
   62CHL1   H2A 5742   2.939   2.545   3.503 -2.3549 -1.9908 -0.0845
   62CHL1   H2B 5743   2.909   2.371   3.506  0.5143  0.2982 -1.7832
   62CHL1   C20 5744   3.033   2.205   4.461  0.9750 -0.5378  0.6881
   62CHL1   H20 5745   2.991   2.104   4.476 -1.4863  0.1700 -0.8335
   62CHL1   C21 5746   2.918   2.305   4.458  0.2863 -0.3351 -0.1630
   62CHL1  H21A 5747   2.859   2.289   4.551 -0.9646 -2.4900 -1.2436
   62CHL1  H21B 5748   2.845   2.284   4.378  1.1786  1.3222 -1.4825
   62CHL1  H21C 5749   2.950   2.411   4.461 -1.3300  0.1443  0.9297
   62CHL1   C22 5750   3.104   2.230   4.594 -0.3881  0.0279  0.5886
   62CHL1  H22A 5751   3.199   2.178   4.619  0.0428  0.5270  0.0209
   62CHL1  H22B 5752   3.131   2.337   4.607 -3.3279  0.8910  0.3372
   62CHL1   C23 5753   3.010   2.203   4.721  0.1086 -0.1892 -0.2605
   62CHL1  H23A 5754   2.951   2.297   4.728  1.1055  0.5614 -1.4132
   62CHL1  H23B 5755   2.945   2.119   4.692  0.7803 -0.9221  0.3152
   62CHL1   C24 5756   3.089   2.179   4.844  0.7326 -0.5192 -0.1939
   62CHL1  H24A 5757   3.165   2.101   4.823  1.4659 -0.4005  1.7498
   62CHL1  H24B 5758   3.161   2.259   4.873  2.6898 -1.9161 -1.0271
   62CHL1   C25 5759   3.008   2.148   4.969  0.4124 -0.0296  0.0600
   62CHL1   H25 5760   3.073   2.079   5.027  1.0613 -0.2333 -0.8936
   62CHL1   C26 5761   2.981   2.275   5.050 -0.1020  0.3840 -0.0061
   62CHL1  H26A 5762   3.075   2.335   5.045  2.1487 -2.9378 -1.0628
   62CHL1  H26B 5763   2.891   2.326   5.010 -2.0525 -1.2169  2.1213
   62CHL1  H26C 5764   2.973   2.252   5.158  1.9050 -1.3151 -0.1515
   62CHL1   C27 5765   2.880   2.063   4.944  0.0750  0.6178  0.3964
   62CHL1  H27A 5766   2.909   1.970   4.891  1.1928  1.0126  0.2854
   62CHL1  H27B 5767   2.837   2.041   5.045 -0.4912 -0.7181 -0.1058
   62CHL1  H27C 5768   2.810   2.121   4.880  0.3613 -0.5539 -1.0340
   63CHL1    C3 5769   5.319   3.406   3.054 -0.0079 -0.1300 -0.1723
   63CHL1    H3 5770   5.399   3.329   3.059 -0.3961 -0.5310  4.7454
   63CHL1    O3 5771   5.306   3.444   2.917 -0.1411  0.3365 -0.2271
   63CHL1   H3' 5772   5.227   3.499   2.915 -0.9138 -0.6659  1.0645
   63CHL1    C4 5773   5.193   3.350   3.112  0.1578 -0.7623 -0.3159
   63CHL1   H4A 5774   5.105   3.417   3.105 -1.2912 -2.4607  0.7687
   63CHL1   H4B 5775   5.172   3.258   3.054 -0.3759 -1.5133  1.0171
   63CHL1    C5 5776   5.199   3.316   3.261  0.7252 -0.6199  0.4158
   63CHL1    C6 5777   5.161   3.198   3.311  0.0732 -0.3958 -0.1617
   63CHL1    H6 5778   5.117   3.124   3.243 -1.7667  3.2418 -3.3630
   63CHL1    C7 5779   5.195   3.147   3.452  0.0804  0.7108 -0.0149
   63CHL1   H7A 5780   5.104   3.097   3.493  0.3123  0.8675  0.6952
   63CHL1   H7B 5781   5.283   3.080   3.445 -1.2261 -0.9772 -1.3568
   63CHL1    C8 5782   5.209   3.257   3.553 -0.1061 -0.7926 -0.4267
   63CHL1    H8 5783   5.107   3.292   3.578  0.4817  0.1373  0.7713
   63CHL1   C14 5784   5.267   3.203   3.683  0.4024  0.1642 -1.0701
   63CHL1   H14 5785   5.368   3.163   3.661  1.9534  2.3264  1.4516
   63CHL1   C15 5786   5.179   3.092   3.754 -0.6573 -0.0765 -0.0579
   63CHL1  H15A 5787   5.074   3.128   3.764 -0.7029 -0.0140 -0.7231
   63CHL1  H15B 5788   5.172   2.995   3.701 -3.0617  0.6541 -1.2163
   63CHL1   C16 5789   5.253   3.074   3.889 -0.0726  0.1647  0.2293
   63CHL1  H16A 5790   5.187   3.029   3.966 -1.3460 -1.6949 -1.7922
   63CHL1  H16B 5791   5.327   2.994   3.865 -1.5588 -0.4295 -2.9813
   63CHL1   C17 5792   5.335   3.203   3.909 -0.6841 -0.2856 -0.5997
   63CHL1   H17 5793   5.440   3.175   3.885 -0.3339 -0.1932  0.7232
   63CHL1   C13 5794   5.289   3.303   3.798 -0.1789  0.6037  0.4063
   63CHL1   C18 5795   5.154   3.374   3.836  0.0306 -0.1945 -0.4220
   63CHL1  H18A 5796   5.174   3.459   3.904 -0.4902  0.4011 -0.9906
   63CHL1  H18B 5797   5.114   3.408   3.738  0.8447 -3.1801 -1.9082
   63CHL1  H18C 5798   5.074   3.308   3.874 -1.2363  0.6731 -1.4624
   63CHL1   C12 5799   5.387   3.415   3.738 -0.9985  0.2262 -0.5363
   63CHL1  H12A 5800   5.403   3.503   3.804  1.5053  0.6863 -1.6451
   63CHL1  H12B 5801   5.486   3.366   3.723 -1.7536 -1.2273 -0.9773
   63CHL1   C11 5802   5.338   3.474   3.602 -0.8351  0.2385 -0.4270
   63CHL1  H11A 5803   5.249   3.537   3.621 -2.7628 -2.3458 -0.2966
   63CHL1  H11B 5804   5.408   3.551   3.564 -0.4154  0.1455  0.1406
   63CHL1    C9 5805   5.303   3.364   3.496 -0.5042 -0.5125 -0.4165
   63CHL1    H9 5806   5.400   3.314   3.475  0.5574  0.7775  1.2251
   63CHL1   C10 5807   5.266   3.418   3.354 -0.1319  0.1153  0.3403
   63CHL1   C19 5808   5.151   3.523   3.374 -0.3453  0.6234 -0.1769
   63CHL1  H19A 5809   5.123   3.570   3.278 -0.0635 -0.0323 -0.5817
   63CHL1  H19B 5810   5.067   3.471   3.424 -1.6292  2.5035 -0.2958
   63CHL1  H19C 5811   5.171   3.598   3.454  2.2539 -1.7326  1.5671
   63CHL1    C1 5812   5.384   3.491   3.290  0.2471  0.0523 -0.1443
   63CHL1   H1A 5813   5.407   3.580   3.352  0.3823 -0.1736  0.1329
   63CHL1   H1B 5814   5.471   3.422   3.290 -0.1442 -0.5117  1.6375
   63CHL1    C2 5815   5.357   3.531   3.133 -0.4464  0.6699  0.2966
   63CHL1   H2A 5816   5.452   3.574   3.094  0.0429 -0.8746 -0.2964
   63CHL1   H2B 5817   5.281   3.612   3.123 -0.0872  1.3681  2.7298
   63CHL1   C20 5818   5.339   3.256   4.059 -0.1284  0.0921  0.1948
   63CHL1   H20 5819   5.234   3.275   4.089 -0.6582 -0.4082 -1.2430
   63CHL1   C21 5820   5.426   3.382   4.058 -0.2564  0.6924 -0.0446
   63CHL1  H21A 5821   5.511   3.364   3.988  0.5688 -3.6517  1.7601
   63CHL1  H21B 5822   5.450   3.420   4.159 -2.1568 -2.0909  1.5740
   63CHL1  H21C 5823   5.381   3.476   4.019 -1.5164  0.1136 -0.0246
   63CHL1   C22 5824   5.402   3.153   4.157 -0.2931  0.0588  0.3597
   63CHL1  H22A 5825   5.465   3.078   4.104 -1.4006 -0.7027  0.0681
   63CHL1  H22B 5826   5.460   3.214   4.229  0.9688  1.0460 -1.4064
   63CHL1   C23 5827   5.294   3.093   4.245  0.1540 -0.0389 -0.0015
   63CHL1  H23A 5828   5.241   3.185   4.277  0.3611  0.2268 -0.4018
   63CHL1  H23B 5829   5.223   3.027   4.191 -0.8259  0.4183  0.7252
   63CHL1   C24 5830   5.341   3.028   4.377 -0.1964 -0.4463 -0.7938
   63CHL1  H24A 5831   5.392   2.931   4.359  0.0196 -0.7052  1.0785
   63CHL1  H24B 5832   5.404   3.104   4.428  0.8032 -2.0183  0.4067
   63CHL1   C25 5833   5.227   2.989   4.471 -0.5859  0.0813 -0.0695
   63CHL1   H25 5834   5.149   3.067   4.470 -2.4790 -1.4532  4.1681
   63CHL1   C26 5835   5.163   2.860   4.424 -0.2629 -0.4473  0.0321
   63CHL1  H26A 5836   5.232   2.777   4.448 -0.2441 -0.1819  0.9249
   63CHL1  H26B 5837   5.058   2.853   4.462 -0.6304  0.3066 -0.8043
   63CHL1  H26C 5838   5.150   2.854   4.313  1.1653  1.7281 -0.2987
   63CHL1   C27 5839   5.292   2.971   4.617  0.2352 -0.0618  0.1408
   63CHL1  H27A 5840   5.212   2.955   4.692 -0.2721 -0.9607 -0.5789
   63CHL1  H27B 5841   5.345   2.874   4.614 -0.1662 -0.2757 -2.2357
   63CHL1  H27C 5842   5.361   3.056   4.638 -1.9746  1.8804 -0.0558
   64CHL1    C3 5843   3.296   3.395   3.106 -0.0612 -0.2287  0.1515
   64CHL1    H3 5844   3.248   3.489   3.141 -0.3139 -1.0659  2.1808
   64CHL1    O3 5845   3.276   3.407   2.963  0.2328  0.4791 -0.3239
   64CHL1   H3' 5846   3.340   3.340   2.938 -1.0965 -0.4166 -1.4701
   64CHL1    C4 5847   3.441   3.393   3.158  0.3262 -0.2602  0.2095
   64CHL1   H4A 5848   3.487   3.306   3.106  0.8226  0.4104 -0.4904
   64CHL1   H4B 5849   3.500   3.475   3.112 -0.5782 -0.4207 -1.2803
   64CHL1    C5 5850   3.457   3.387   3.307  0.3912  0.2799 -0.0801
   64CHL1    C6 5851   3.538   3.467   3.378  0.2735  0.4239 -0.5824
   64CHL1    H6 5852   3.592   3.550   3.331  3.0199 -0.6795  0.3677
   64CHL1    C7 5853   3.551   3.450   3.528 -0.3149 -0.1841 -0.3709
   64CHL1   H7A 5854   3.659   3.461   3.550 -0.2497  1.4524 -1.3244
   64CHL1   H7B 5855   3.501   3.536   3.578  0.4813  0.1622 -0.1463
   64CHL1    C8 5856   3.496   3.315   3.594 -0.2760 -0.9131 -0.9820
   64CHL1    H8 5857   3.572   3.243   3.556  0.6443  0.3958 -1.6928
   64CHL1   C14 5858   3.499   3.330   3.750  0.4089 -0.9453 -0.4151
   64CHL1   H14 5859   3.440   3.420   3.775  2.0514  0.6728 -2.0305
   64CHL1   C15 5860   3.629   3.354   3.829  0.4674 -0.4799  0.4468
   64CHL1  H15A 5861   3.712   3.285   3.802  1.1370 -0.2638  1.8490
   64CHL1  H15B 5862   3.664   3.459   3.822 -0.2286 -0.2923 -0.3889
   64CHL1   C16 5863   3.590   3.315   3.975  0.3962  0.0330 -0.1296
   64CHL1  H16A 5864   3.673   3.250   4.010 -1.1143 -1.9078  0.0522
   64CHL1  H16B 5865   3.581   3.405   4.039 -1.4330 -0.3641  0.2323
   64CHL1   C17 5866   3.446   3.246   3.971 -0.8562  0.2117 -0.0297
   64CHL1   H17 5867   3.372   3.327   3.985 -0.7107  0.1577  1.1598
   64CHL1   C13 5868   3.428   3.209   3.817 -0.2821  0.6538  0.5387
   64CHL1   C18 5869   3.513   3.079   3.793  0.6020  0.6447  0.4062
   64CHL1  H18A 5870   3.608   3.072   3.851  2.0123 -1.0735 -1.9251
   64CHL1  H18B 5871   3.454   3.000   3.846  1.3016  0.1999  0.5400
   64CHL1  H18C 5872   3.531   3.054   3.687  0.4685 -2.1969  0.9721
   64CHL1   C12 5873   3.278   3.202   3.761 -0.6156 -0.5368  0.3251
   64CHL1  H12A 5874   3.244   3.102   3.796 -0.6501 -0.7732 -0.3618
   64CHL1  H12B 5875   3.221   3.292   3.793  0.2576  1.2283 -2.6913
   64CHL1   C11 5876   3.274   3.190   3.608 -0.5307  0.0410  0.2324
   64CHL1  H11A 5877   3.317   3.091   3.580 -0.5334 -0.1569  0.9202
   64CHL1  H11B 5878   3.170   3.180   3.570 -0.3202 -1.4056 -0.0063
   64CHL1    C9 5879   3.357   3.303   3.529 -0.1333 -0.0447 -0.4431
   64CHL1    H9 5880   3.307   3.401   3.546  0.8064  0.4186 -0.2600
   64CHL1   C10 5881   3.366   3.279   3.376  0.0825  1.0776 -0.1633
   64CHL1   C19 5882   3.440   3.141   3.348  0.5233 -0.8046  0.0396
   64CHL1  H19A 5883   3.435   3.126   3.238 -0.7569  0.2914 -0.0816
   64CHL1  H19B 5884   3.545   3.152   3.380  0.1746  2.0821  0.4736
   64CHL1  H19C 5885   3.385   3.056   3.393 -2.2457  0.8110 -0.0296
   64CHL1    C1 5886   3.230   3.278   3.324  0.3487  0.5561  0.8553
   64CHL1   H1A 5887   3.172   3.198   3.374 -2.2838  1.4666 -0.5474
   64CHL1   H1B 5888   3.187   3.375   3.357  0.7149  1.1315 -0.3045
   64CHL1    C2 5889   3.214   3.281   3.172 -0.6909 -0.4827 -0.5906
   64CHL1   H2A 5890   3.109   3.303   3.146 -1.1046 -2.6907 -1.0201
   64CHL1   H2B 5891   3.242   3.187   3.119  1.4501  0.1817 -0.7439
   64CHL1   C20 5892   3.411   3.147   4.083 -0.4951 -0.3673  0.5692
   64CHL1   H20 5893   3.489   3.068   4.084  0.1291  0.2050 -0.5093
   64CHL1   C21 5894   3.270   3.082   4.064  0.0660  0.7694 -0.1162
   64CHL1  H21A 5895   3.272   3.004   3.985 -0.0953  0.5723  0.0758
   64CHL1  H21B 5896   3.197   3.160   4.033  1.0291  1.8587  0.2341
   64CHL1  H21C 5897   3.231   3.039   4.158  1.3739  2.3624  1.2119
   64CHL1   C22 5898   3.415   3.231   4.214 -0.1579 -0.0105 -0.6257
   64CHL1  H22A 5899   3.505   3.295   4.221  0.3943 -0.9368  1.2482
   64CHL1  H22B 5900   3.320   3.290   4.212 -1.3386 -1.8310 -0.8333
   64CHL1   C23 5901   3.416   3.145   4.345  0.0824  0.1322  0.0606
   64CHL1  H23A 5902   3.358   3.051   4.334  1.9265 -1.1303  0.6455
   64CHL1  H23B 5903   3.517   3.101   4.356  0.4952  0.0902 -3.0150
   64CHL1   C24 5904   3.377   3.231   4.465  0.4285 -0.0889  0.1714
   64CHL1  H24A 5905   3.278   3.279   4.455 -0.6278 -1.8429  1.5595
   64CHL1  H24B 5906   3.355   3.165   4.552 -1.6290 -0.5201 -0.6187
   64CHL1   C25 5907   3.488   3.337   4.502  0.3534 -0.4385  0.1753
   64CHL1   H25 5908   3.504   3.389   4.406  0.6576 -1.2560 -0.2302
   64CHL1   C26 5909   3.428   3.433   4.608 -0.6670  0.5150  0.1499
   64CHL1  H26A 5910   3.411   3.378   4.703  3.5582  1.0832  1.4080
   64CHL1  H26B 5911   3.504   3.513   4.616  0.4072 -0.2916 -1.4799
   64CHL1  H26C 5912   3.337   3.479   4.563  0.3380 -0.3869 -3.0488
   64CHL1   C27 5913   3.622   3.270   4.552 -0.2855  0.0571  0.6082
   64CHL1  H27A 5914   3.670   3.214   4.469  1.7806 -0.0757  1.8163
   64CHL1  H27B 5915   3.701   3.346   4.573  1.2675 -0.4018 -2.8231
   64CHL1  H27C 5916   3.604   3.210   4.644 -1.1147 -0.9227 -0.1811
   65CHL1    C3 5917   3.116   0.616   3.613  0.2669 -0.0316  1.1224
   65CHL1    H3 5918   3.221   0.643   3.591 -0.4419  2.0705  0.0210
   65CHL1    O3 5919   3.054   0.561   3.497  0.4013  0.0762 -0.5365
   65CHL1   H3' 5920   3.029   0.633   3.438 -1.4990  0.3177  0.5266
   65CHL1    C4 5921   3.124   0.501   3.714 -0.0157 -1.0706 -0.3835
   65CHL1   H4A 5922   3.019   0.465   3.718  0.0175 -1.2928 -1.2755
   65CHL1   H4B 5923   3.183   0.421   3.664  0.5849  0.3261 -1.9995
   65CHL1    C5 5924   3.165   0.536   3.858 -0.2328  0.3524  0.1110
   65CHL1    C6 5925   3.270   0.475   3.912  0.1973  0.3029 -0.3675
   65CHL1    H6 5926   3.321   0.398   3.852  0.6870  0.4440 -0.1392
   65CHL1    C7 5927   3.310   0.520   4.052  0.5756 -0.9631 -0.0110
   65CHL1   H7A 5928   3.335   0.434   4.118  2.4260 -0.2529  0.2819
   65CHL1   H7B 5929   3.395   0.583   4.020  1.9998 -3.1938 -0.9168
   65CHL1    C8 5930   3.208   0.609   4.128  0.7551  0.6958  0.0997
   65CHL1    H8 5931   3.125   0.542   4.158  1.1377 -0.2169 -0.8163
   65CHL1   C14 5932   3.273   0.671   4.254 -0.3402  0.6411 -0.0524
   65CHL1   H14 5933   3.351   0.739   4.214 -1.8538  2.2114 -0.4541
   65CHL1   C15 5934   3.330   0.575   4.357 -0.3595  0.0211 -0.2971
   65CHL1  H15A 5935   3.260   0.491   4.378 -2.5607  1.6863 -0.7535
   65CHL1  H15B 5936   3.428   0.533   4.324  0.0097  1.0073 -0.4761
   65CHL1   C16 5937   3.351   0.661   4.482 -0.0520  0.5184  0.5902
   65CHL1  H16A 5938   3.312   0.604   4.569  0.0889  0.8940  0.9041
   65CHL1  H16B 5939   3.459   0.683   4.471  0.3976 -0.8277  1.9550
   65CHL1   C17 5940   3.264   0.789   4.459 -0.3953  0.1058 -0.0061
   65CHL1   H17 5941   3.345   0.859   4.431  0.8814 -0.1344  2.7318
   65CHL1   C13 5942   3.182   0.758   4.335 -0.1078  0.5761 -0.2548
   65CHL1   C18 5943   3.053   0.683   4.381 -0.0758  0.1121  0.4391
   65CHL1  H18A 5944   3.003   0.634   4.294 -0.8658  1.4054  0.1301
   65CHL1  H18B 5945   3.079   0.613   4.463 -0.9279 -0.3211  0.3535
   65CHL1  H18C 5946   2.984   0.750   4.436  0.1753  0.1192  0.7461
   65CHL1   C12 5947   3.138   0.873   4.247  0.4368  0.1002  0.7359
   65CHL1  H12A 5948   3.058   0.929   4.300 -2.5564 -2.0023 -1.2568
   65CHL1  H12B 5949   3.221   0.943   4.224 -1.5995  2.5666  0.4208
   65CHL1   C11 5950   3.078   0.832   4.113  0.5954  0.0649  0.0341
   65CHL1  H11A 5951   2.974   0.798   4.128  0.2560  2.1050  3.1675
   65CHL1  H11B 5952   3.075   0.925   4.052  1.4360 -0.3815 -0.7273
   65CHL1    C9 5953   3.157   0.720   4.036 -0.1262 -0.4498  0.3415
   65CHL1    H9 5954   3.245   0.770   3.990  0.0194 -0.8009  0.2314
   65CHL1   C10 5955   3.090   0.661   3.911  0.5363  0.6174  0.7027
   65CHL1   C19 5956   2.950   0.610   3.945 -0.2566  0.7182 -0.2655
   65CHL1  H19A 5957   2.892   0.552   3.869 -1.0933 -0.8848  1.4974
   65CHL1  H19B 5958   2.953   0.550   4.039 -1.4781 -0.3583 -0.8664
   65CHL1  H19C 5959   2.889   0.701   3.962 -0.6929  0.6620 -1.4678
   65CHL1    C1 5960   3.095   0.776   3.806  0.0210 -0.0162 -1.4040
   65CHL1   H1A 5961   3.042   0.866   3.846  0.0515  0.2207 -1.8940
   65CHL1   H1B 5962   3.203   0.798   3.793  0.5768 -2.4054 -1.3294
   65CHL1    C2 5963   3.038   0.732   3.667  0.3539  0.3907 -0.7146
   65CHL1   H2A 5964   3.030   0.815   3.593 -0.3167  0.4602 -0.5762
   65CHL1   H2B 5965   2.933   0.697   3.676  0.8256 -0.6659  1.4920
   65CHL1   C20 5966   3.203   0.840   4.585  0.2722  0.1880 -0.3882
   65CHL1   H20 5967   3.139   0.764   4.636  0.3980  1.2056  1.3869
   65CHL1   C21 5968   3.130   0.970   4.574 -0.0593 -0.3896  0.3121
   65CHL1  H21A 5969   3.053   0.960   4.494  0.2581 -1.1972  0.0999
   65CHL1  H21B 5970   3.194   1.058   4.551  0.5967 -0.5170  1.5707
   65CHL1  H21C 5971   3.074   1.012   4.661  0.9211  2.4196 -0.2942
   65CHL1   C22 5972   3.317   0.849   4.692 -0.3931  0.4458 -0.1662
   65CHL1  H22A 5973   3.347   0.746   4.723 -1.7354  0.2843  0.6896
   65CHL1  H22B 5974   3.406   0.896   4.646  1.2980 -3.4571 -1.2822
   65CHL1   C23 5975   3.288   0.916   4.824  0.6358 -0.0910 -0.0591
   65CHL1  H23A 5976   3.248   1.019   4.807 -0.0400 -0.4516 -0.7061
   65CHL1  H23B 5977   3.207   0.854   4.868 -2.5462  2.0036 -2.4447
   65CHL1   C24 5978   3.416   0.937   4.901  0.3029 -0.6838 -0.1392
   65CHL1  H24A 5979   3.458   0.841   4.937  0.5560 -0.2977  0.6204
   65CHL1  H24B 5980   3.483   0.976   4.821 -0.7320 -3.0481 -2.3211
   65CHL1   C25 5981   3.411   1.035   5.017 -0.1449  0.0916 -0.1903
   65CHL1   H25 5982   3.381   1.128   4.963 -2.6639  0.2955  1.3560
   65CHL1   C26 5983   3.296   0.992   5.112  0.2327 -0.2200  0.3994
   65CHL1  H26A 5984   3.295   1.063   5.197  1.4022 -1.6764  1.6862
   65CHL1  H26B 5985   3.203   1.005   5.051  0.8806 -1.0519 -0.8206
   65CHL1  H26C 5986   3.306   0.883   5.135 -0.5791 -1.2382 -3.3156
   65CHL1   C27 5987   3.549   1.052   5.077 -0.3306 -0.1315 -0.1947
   65CHL1  H27A 5988   3.546   1.139   5.146  0.2494  1.3473 -1.9486
   65CHL1  H27B 5989   3.575   0.963   5.138 -0.6511  0.4632  0.8278
   65CHL1  H27C 5990   3.627   1.064   4.999  2.1611 -1.9288  1.8614
   66CHL1    C3 5991   0.330   2.180   2.754  0.3525 -0.2417 -0.1992
   66CHL1    H3 5992   0.428   2.231   2.766 -0.4132  1.0551  0.9310
   66CHL1    O3 5993   0.299   2.154   2.614 -0.4470  0.0269 -0.2553
   66CHL1   H3' 5994   0.293   2.058   2.617  0.7542 -0.0372  1.8973
   66CHL1    C4 5995   0.323   2.053   2.844  0.8236  0.1081  0.3596
   66CHL1   H4A 5996   0.228   1.998   2.826  1.3703 -0.8899  0.4123
   66CHL1   H4B 5997   0.409   1.988   2.816  0.3087 -0.4434  0.0223
   66CHL1    C5 5998   0.334   2.091   2.997  0.2083  0.0335  0.5056
   66CHL1    C6 5999   0.420   2.027   3.073 -1.0048 -0.0863 -0.7014
   66CHL1    H6 6000   0.481   1.942   3.038 -0.8738 -0.4061  0.2683
   66CHL1    C7 6001   0.426   2.054   3.222  0.2721  0.5711  0.5915
   66CHL1   H7A 6002   0.441   1.964   3.286  3.0389  1.6001  1.5320
   66CHL1   H7B 6003   0.514   2.118   3.242  1.6344 -0.5534 -1.5329
   66CHL1    C8 6004   0.304   2.127   3.284 -0.6789 -0.3115  0.0033
   66CHL1    H8 6005   0.221   2.053   3.283 -1.3268  0.3674 -1.9590
   66CHL1   C14 6006   0.337   2.180   3.423 -0.1998  0.9527  0.6746
   66CHL1   H14 6007   0.426   2.246   3.411  0.9461 -0.6066  0.2059
   66CHL1   C15 6008   0.396   2.090   3.532 -0.2755  0.6103 -0.3671
   66CHL1  H15A 6009   0.349   1.989   3.530 -0.2433  0.5782  0.1843
   66CHL1  H15B 6010   0.504   2.079   3.509  0.0964 -0.9269  1.8300
   66CHL1   C16 6011   0.374   2.162   3.662 -0.1678 -0.5747  0.2590
   66CHL1  H16A 6012   0.334   2.084   3.731 -0.1426 -1.2810 -0.5177
   66CHL1  H16B 6013   0.465   2.209   3.704 -1.3155  2.2593 -0.1387
   66CHL1   C17 6014   0.290   2.292   3.624 -0.0415 -0.5710  0.0802
   66CHL1   H17 6015   0.355   2.382   3.614 -3.4680  2.2675  0.9958
   66CHL1   C13 6016   0.224   2.261   3.487 -0.3232  0.2498 -0.3119
   66CHL1   C18 6017   0.103   2.168   3.513 -0.2277  0.0888  0.6788
   66CHL1  H18A 6018   0.139   2.083   3.575  1.4080 -0.0433 -0.3958
   66CHL1  H18B 6019   0.023   2.235   3.553  0.6692  1.2834  0.5174
   66CHL1  H18C 6020   0.058   2.140   3.416 -0.8624  0.6086  0.8088
   66CHL1   C12 6021   0.195   2.380   3.396  0.0708 -0.1390 -0.0924
   66CHL1  H12A 6022   0.109   2.437   3.438 -0.9335 -0.5526 -1.4996
   66CHL1  H12B 6023   0.287   2.442   3.392 -0.4579  0.9518  2.5302
   66CHL1   C11 6024   0.158   2.335   3.260 -0.2638  0.3617  0.4551
   66CHL1  H11A 6025   0.064   2.276   3.262  0.8869 -1.6390 -0.9743
   66CHL1  H11B 6026   0.143   2.419   3.189 -1.7286 -1.1875 -1.1506
   66CHL1    C9 6027   0.268   2.245   3.190  0.0521  0.0812 -0.2998
   66CHL1    H9 6028   0.356   2.313   3.183  1.8956 -2.2329 -0.5323
   66CHL1   C10 6029   0.235   2.197   3.049  0.3849 -0.4896 -0.1270
   66CHL1   C19 6030   0.094   2.129   3.039 -0.3301  0.4339 -0.6708
   66CHL1  H19A 6031   0.090   2.039   3.104  0.1547  2.0753  1.7921
   66CHL1  H19B 6032   0.020   2.203   3.078 -1.5515  0.5329 -2.9654
   66CHL1  H19C 6033   0.064   2.108   2.934 -0.7253 -0.2517 -0.4254
   66CHL1    C1 6034   0.237   2.321   2.947 -0.3681 -0.5321 -0.1634
   66CHL1   H1A 6035   0.165   2.400   2.972  0.8445 -0.0766  2.1282
   66CHL1   H1B 6036   0.339   2.365   2.947 -0.8232  0.5477  0.2661
   66CHL1    C2 6037   0.218   2.279   2.798  0.0554  0.4165  0.3154
   66CHL1   H2A 6038   0.225   2.358   2.720  2.0192 -0.7221 -0.7500
   66CHL1   H2B 6039   0.123   2.226   2.778  0.8976 -1.2257  0.4507
   66CHL1   C20 6040   0.198   2.335   3.744 -0.6027 -0.3485 -0.3235
   66CHL1   H20 6041   0.127   2.252   3.765 -1.2821  0.6302  1.5319
   66CHL1   C21 6042   0.102   2.455   3.713 -0.8636 -0.3956  0.2673
   66CHL1  H21A 6043   0.033   2.472   3.799 -0.1633  0.8822  0.5980
   66CHL1  H21B 6044   0.042   2.433   3.622  0.1285  0.7027 -0.6929
   66CHL1  H21C 6045   0.162   2.548   3.709  1.3024 -1.6270  1.8290
   66CHL1   C22 6046   0.276   2.362   3.870 -0.4313  0.0373 -0.2845
   66CHL1  H22A 6047   0.344   2.275   3.886  1.3364  1.7839  2.4451
   66CHL1  H22B 6048   0.346   2.447   3.856 -0.3733 -0.0793 -0.7227
   66CHL1   C23 6049   0.196   2.379   3.996  0.2655 -0.3964 -1.2573
   66CHL1  H23A 6050   0.145   2.477   3.989 -0.1029 -0.3699  1.1605
   66CHL1  H23B 6051   0.115   2.303   3.992  0.0633 -0.2131 -0.6661
   66CHL1   C24 6052   0.273   2.394   4.129  0.3340  0.1247 -0.8431
   66CHL1  H24A 6053   0.335   2.302   4.124 -0.5077 -0.4323 -1.0675
   66CHL1  H24B 6054   0.344   2.480   4.130 -0.7898  1.0910  1.0599
   66CHL1   C25 6055   0.178   2.392   4.248 -0.3490 -0.4728  0.1340
   66CHL1   H25 6056   0.117   2.303   4.222 -0.1589 -0.4211 -0.4956
   66CHL1   C26 6057   0.262   2.361   4.375  0.7049 -0.0523 -0.1422
   66CHL1  H26A 6058   0.333   2.277   4.360 -0.9464 -1.5891  0.2729
   66CHL1  H26B 6059   0.307   2.448   4.427 -0.4231  1.2213 -1.2189
   66CHL1  H26C 6060   0.190   2.321   4.449 -1.0887  3.0291 -0.0364
   66CHL1   C27 6061   0.076   2.509   4.261 -0.2661 -0.6450  0.1662
   66CHL1  H27A 6062   0.012   2.511   4.170  0.5150 -3.5002 -0.5448
   66CHL1  H27B 6063   0.131   2.603   4.283 -0.1357 -0.5799 -0.4318
   66CHL1  H27C 6064   0.001   2.490   4.341 -1.1059 -1.7579 -0.8579
   67CHL1    C3 6065   4.501   5.478   3.342  0.7800 -0.4857 -0.7056
   67CHL1    H3 6066   4.458   5.389   3.393  2.7776 -1.1899 -0.1433
   67CHL1    O3 6067   4.498   5.487   3.201 -0.1520 -0.1790  0.2392
   67CHL1   H3' 6068   4.529   5.576   3.180 -0.2487 -0.0130  0.7882
   67CHL1    C4 6069   4.430   5.606   3.403  0.2858  0.1821 -0.3340
   67CHL1   H4A 6070   4.486   5.696   3.368  0.3476 -0.6597 -2.5442
   67CHL1   H4B 6071   4.332   5.620   3.352  1.1421  0.3131 -2.0289
   67CHL1    C5 6072   4.435   5.602   3.553  0.8524 -0.5416  0.5528
   67CHL1    C6 6073   4.322   5.600   3.627 -0.9284  0.7758  0.1941
   67CHL1    H6 6074   4.221   5.588   3.584 -0.9804 -0.8391  0.6998
   67CHL1    C7 6075   4.331   5.589   3.777 -0.0334 -0.2950  0.1588
   67CHL1   H7A 6076   4.263   5.664   3.822  1.8509  2.5333 -1.4302
   67CHL1   H7B 6077   4.302   5.485   3.804 -1.5201 -0.4577 -1.7934
   67CHL1    C8 6078   4.468   5.626   3.834  0.4708 -1.1342  0.4374
   67CHL1    H8 6079   4.470   5.735   3.812 -1.1705 -1.1966 -0.1647
   67CHL1   C14 6080   4.472   5.600   3.985 -0.8801  0.3091  0.3560
   67CHL1   H14 6081   4.478   5.489   3.986  0.1366  0.3227 -1.1911
   67CHL1   C15 6082   4.366   5.649   4.078 -0.4677  0.2310  0.5683
   67CHL1  H15A 6083   4.357   5.759   4.086 -1.1391  0.1296  1.3884
   67CHL1  H15B 6084   4.270   5.594   4.074 -0.5005  0.3760 -1.5346
   67CHL1   C16 6085   4.432   5.623   4.221  0.3097 -0.2143 -0.7815
   67CHL1  H16A 6086   4.421   5.707   4.293  1.2777  1.2465 -2.2570
   67CHL1  H16B 6087   4.374   5.541   4.267  2.7815 -0.9708  1.2052
   67CHL1   C17 6088   4.585   5.590   4.205  0.2656 -0.1021  0.3129
   67CHL1   H17 6089   4.590   5.480   4.198 -0.5407 -0.1283  0.0367
   67CHL1   C13 6090   4.608   5.640   4.052  0.1054 -0.6147  0.0938
   67CHL1   C18 6091   4.625   5.798   4.039  0.1865 -0.0398  0.6203
   67CHL1  H18A 6092   4.611   5.826   3.932 -0.2726 -0.6564  0.5148
   67CHL1  H18B 6093   4.549   5.854   4.098 -1.5335 -0.9859 -0.6029
   67CHL1  H18C 6094   4.725   5.834   4.069 -0.5649  1.6285  1.2640
   67CHL1   C12 6095   4.720   5.575   3.977  0.4848  0.5499 -0.4590
   67CHL1  H12A 6096   4.818   5.596   4.024 -0.5273 -1.1466  2.6600
   67CHL1  H12B 6097   4.706   5.466   3.994  2.1193  0.2451 -0.8586
   67CHL1   C11 6098   4.720   5.598   3.822  0.4266 -0.2476 -0.4292
   67CHL1  H11A 6099   4.734   5.708   3.814 -2.0806  0.2626  1.0982
   67CHL1  H11B 6100   4.804   5.544   3.773  0.7584 -0.6249  0.5343
   67CHL1    C9 6101   4.581   5.571   3.761  0.6725  0.5143 -0.2627
   67CHL1    H9 6102   4.564   5.462   3.777 -1.2741  0.8960  0.6552
   67CHL1   C10 6103   4.575   5.603   3.605 -0.3007  0.3587  0.1707
   67CHL1   C19 6104   4.636   5.742   3.580  0.4333  0.7363 -0.0304
   67CHL1  H19A 6105   4.745   5.740   3.598  0.5084  0.8416 -0.4453
   67CHL1  H19B 6106   4.639   5.768   3.472  1.7136 -2.6466 -0.9441
   67CHL1  H19C 6107   4.595   5.816   3.651 -0.9391 -0.1709  0.1666
   67CHL1    C1 6108   4.655   5.489   3.530 -0.5143 -1.1962 -0.1170
   67CHL1   H1A 6109   4.760   5.494   3.567 -1.2800  1.8384  2.0143
   67CHL1   H1B 6110   4.616   5.391   3.564 -1.1312 -0.5956  0.9604
   67CHL1    C2 6111   4.645   5.484   3.385  0.3353 -0.3479  0.0413
   67CHL1   H2A 6112   4.717   5.409   3.344 -0.8000  0.4167 -3.7744
   67CHL1   H2B 6113   4.686   5.579   3.346  0.0637 -0.4189 -0.4231
   67CHL1   C20 6114   4.672   5.634   4.325  0.1919  0.6605 -0.3736
   67CHL1   H20 6115   4.649   5.740   4.349 -2.3229 -0.1980  1.3648
   67CHL1   C21 6116   4.822   5.619   4.308  0.2141 -0.4190 -0.8233
   67CHL1  H21A 6117   4.887   5.631   4.398  1.7393 -0.8991 -1.8177
   67CHL1  H21B 6118   4.861   5.681   4.225 -4.4256  1.2717 -2.0441
   67CHL1  H21C 6119   4.855   5.517   4.281  2.7618 -0.0434  0.4993
   67CHL1   C22 6120   4.631   5.554   4.451 -0.4936  0.5738  0.2149
   67CHL1  H22A 6121   4.520   5.560   4.461 -0.3727  0.0921  2.5545
   67CHL1  H22B 6122   4.640   5.444   4.453 -0.6045  0.5704  0.8621
   67CHL1   C23 6123   4.672   5.616   4.583  0.0528  0.2744  0.2449
   67CHL1  H23A 6124   4.781   5.639   4.587 -0.2496  1.6618  2.9274
   67CHL1  H23B 6125   4.619   5.713   4.588  2.0060  1.3351  1.6272
   67CHL1   C24 6126   4.625   5.536   4.712 -0.1783 -0.4541  0.1180
   67CHL1  H24A 6127   4.515   5.521   4.703 -0.4545  2.1834 -1.9207
   67CHL1  H24B 6128   4.683   5.442   4.704  0.9884  0.4054 -3.6485
   67CHL1   C25 6129   4.650   5.603   4.850 -0.2651 -0.2932  0.3574
   67CHL1   H25 6130   4.760   5.595   4.869  0.1981  1.1857 -1.4187
   67CHL1   C26 6131   4.596   5.746   4.856 -0.5819 -0.0306 -0.3419
   67CHL1  H26A 6132   4.485   5.739   4.847 -0.6832  0.2059  0.6215
   67CHL1  H26B 6133   4.631   5.778   4.956 -0.0991  0.8369 -0.7824
   67CHL1  H26C 6134   4.651   5.814   4.787 -0.7705  1.0367  0.5265
   67CHL1   C27 6135   4.571   5.522   4.953  0.2989  0.8275 -0.5549
   67CHL1  H27A 6136   4.465   5.526   4.920 -0.8717 -0.5342  2.6549
   67CHL1  H27B 6137   4.576   5.412   4.963 -2.8759  0.8264  4.8094
   67CHL1  H27C 6138   4.581   5.569   5.053  1.9465 -0.3662 -0.1197
   68CHL1    C3 6139   3.456   5.516   3.261 -0.0442 -0.1956 -0.0525
   68CHL1    H3 6140   3.441   5.626   3.252 -0.6247 -0.0519  2.1536
   68CHL1    O3 6141   3.406   5.451   3.139 -0.3089 -0.1101  0.1385
   68CHL1   H3' 6142   3.459   5.490   3.069  0.3347  3.4807  2.3775
   68CHL1    C4 6143   3.605   5.487   3.283  0.0524  0.1497 -0.5595
   68CHL1   H4A 6144   3.622   5.377   3.283 -0.7898 -0.0074 -1.7884
   68CHL1   H4B 6145   3.656   5.530   3.195 -1.9200 -0.4208 -2.0554
   68CHL1    C5 6146   3.651   5.566   3.407 -0.0450  0.7773  0.0703
   68CHL1    C6 6147   3.749   5.659   3.407 -1.1510 -0.1319 -0.4367
   68CHL1    H6 6148   3.800   5.694   3.316 -0.5488 -0.2817 -0.1650
   68CHL1    C7 6149   3.818   5.710   3.529  0.2142 -0.5913  0.0631
   68CHL1   H7A 6150   3.921   5.671   3.541  0.3724  0.4291  2.8413
   68CHL1   H7B 6151   3.803   5.820   3.537 -4.9860 -1.0347  0.0982
   68CHL1    C8 6152   3.764   5.637   3.662  0.1968 -0.0621 -0.2500
   68CHL1    H8 6153   3.806   5.535   3.676 -0.2611  0.0026  2.0873
   68CHL1   C14 6154   3.805   5.728   3.781 -0.1890  0.4406 -0.0529
   68CHL1   H14 6155   3.744   5.818   3.757 -1.2702 -0.2803 -0.0929
   68CHL1   C15 6156   3.954   5.761   3.810 -0.0802 -0.2129  0.6957
   68CHL1  H15A 6157   4.016   5.682   3.763 -0.6528  0.4628 -1.2975
   68CHL1  H15B 6158   3.983   5.851   3.752 -0.4360 -1.5580 -1.7161
   68CHL1   C16 6159   3.961   5.777   3.963 -1.1309  0.0047  0.2131
   68CHL1  H16A 6160   4.037   5.707   4.004  0.5142  1.6883  0.1980
   68CHL1  H16B 6161   4.004   5.878   3.980  1.6430 -0.9981 -0.3411
   68CHL1   C17 6162   3.818   5.762   4.016  0.1014  0.3187 -0.2400
   68CHL1   H17 6163   3.777   5.864   3.997  1.2039  1.0040  0.9475
   68CHL1   C13 6164   3.746   5.670   3.911  0.3045 -0.0709 -0.3780
   68CHL1   C18 6165   3.788   5.530   3.947 -0.2391  0.5942  0.6303
   68CHL1  H18A 6166   3.792   5.509   4.056  0.1799 -0.8953  0.3452
   68CHL1  H18B 6167   3.728   5.447   3.904  0.5526 -0.0535  0.7547
   68CHL1  H18C 6168   3.895   5.520   3.918  0.1321  1.3135  1.7171
   68CHL1   C12 6169   3.595   5.684   3.906 -0.0710  0.3833 -0.1764
   68CHL1  H12A 6170   3.545   5.653   4.000 -1.4038  4.2423  0.5628
   68CHL1  H12B 6171   3.573   5.791   3.889  1.6103  0.5629 -1.5201
   68CHL1   C11 6172   3.537   5.599   3.787  0.8161 -0.0017  0.1788
   68CHL1  H11A 6173   3.549   5.489   3.803 -0.9819 -0.5838 -1.9568
   68CHL1  H11B 6174   3.429   5.622   3.776  0.3099 -2.5290 -0.8626
   68CHL1    C9 6175   3.605   5.623   3.650 -0.3612  0.4287  0.1981
   68CHL1    H9 6176   3.575   5.724   3.616 -0.7183 -0.0124 -0.8666
   68CHL1   C10 6177   3.566   5.528   3.532  0.3111  0.9646  0.3625
   68CHL1   C19 6178   3.594   5.379   3.577  0.1103 -0.3662 -1.0067
   68CHL1  H19A 6179   3.579   5.319   3.484  0.1390 -0.1434 -1.1543
   68CHL1  H19B 6180   3.695   5.353   3.615 -1.1976 -1.3926  2.1328
   68CHL1  H19C 6181   3.532   5.343   3.662 -1.8090  0.9383 -1.7845
   68CHL1    C1 6182   3.412   5.550   3.507  0.3878 -0.2193  0.1715
   68CHL1   H1A 6183   3.359   5.496   3.588  1.5674 -2.1028 -0.2399
   68CHL1   H1B 6184   3.394   5.658   3.489 -0.2944 -0.5836 -1.5489
   68CHL1    C2 6185   3.367   5.470   3.382 -0.6364 -0.1600  0.5745
   68CHL1   H2A 6186   3.263   5.469   3.343 -0.1666 -2.1158 -0.7876
   68CHL1   H2B 6187   3.395   5.364   3.399 -1.2256 -0.5538 -0.7912
   68CHL1   C20 6188   3.810   5.739   4.167  0.1620 -0.0925  0.4509
   68CHL1   H20 6189   3.844   5.640   4.204 -1.0726 -0.0026  1.9391
   68CHL1   C21 6190   3.669   5.767   4.230 -0.3693 -0.3179 -0.4373
   68CHL1  H21A 6191   3.612   5.837   4.165  0.7541 -0.2415 -1.3763
   68CHL1  H21B 6192   3.679   5.800   4.335 -0.3751 -1.2400 -0.1424
   68CHL1  H21C 6193   3.612   5.672   4.234 -2.4275  0.8764  0.1743
   68CHL1   C22 6194   3.910   5.835   4.241  0.1047  0.3172  0.3155
   68CHL1  H22A 6195   4.009   5.843   4.191  0.2700 -1.1428  0.3574
   68CHL1  H22B 6196   3.863   5.936   4.235  2.6696  1.7171  1.8542
   68CHL1   C23 6197   3.948   5.810   4.384  0.3626 -0.0273  0.3226
   68CHL1  H23A 6198   3.976   5.908   4.427  1.7642  0.1786 -0.9415
   68CHL1  H23B 6199   3.877   5.755   4.448  1.4324 -1.4506  0.3403
   68CHL1   C24 6200   4.069   5.718   4.400  0.0942 -0.1144  0.2945
   68CHL1  H24A 6201   4.064   5.622   4.345  0.3245 -0.8088  1.4477
   68CHL1  H24B 6202   4.148   5.768   4.340 -0.2041 -0.6037 -0.5182
   68CHL1   C25 6203   4.120   5.705   4.541 -0.3162 -0.5619 -0.3224
   68CHL1   H25 6204   4.114   5.800   4.598 -1.9181 -1.1641  0.5789
   68CHL1   C26 6205   4.027   5.603   4.614  0.1841 -0.1248 -0.5454
   68CHL1  H26A 6206   4.003   5.508   4.562  2.2771 -1.1716  0.2411
   68CHL1  H26B 6207   4.079   5.570   4.707 -0.9546  0.9829  0.5131
   68CHL1  H26C 6208   3.928   5.651   4.629  0.2073 -0.7760  2.3279
   68CHL1   C27 6209   4.265   5.663   4.556 -0.1056 -0.6408  0.4131
   68CHL1  H27A 6210   4.290   5.627   4.658 -1.1280 -1.0142  0.5422
   68CHL1  H27B 6211   4.286   5.578   4.488  0.5849  0.6918 -1.1172
   68CHL1  H27C 6212   4.343   5.741   4.538 -0.5457 -0.7317 -2.2537
   69CHL1    C3 6213   6.688   3.437   3.104 -0.5871 -0.2170 -0.1424
   69CHL1    H3 6214   6.603   3.509   3.104 -2.9698 -2.8273 -1.2125
   69CHL1    O3 6215   6.725   3.418   2.970  0.3286  0.0833 -0.2691
   69CHL1   H3' 6216   6.787   3.345   2.971 -0.6566 -0.7807 -0.6948
   69CHL1    C4 6217   6.804   3.506   3.181  0.6933 -0.1770  0.4740
   69CHL1   H4A 6218   6.901   3.454   3.162  0.8566  0.5341 -0.7601
   69CHL1   H4B 6219   6.813   3.601   3.124 -1.7135 -1.0425 -1.4784
   69CHL1    C5 6220   6.773   3.509   3.332 -0.9228 -0.7948 -0.1995
   69CHL1    C6 6221   6.775   3.624   3.400 -0.6646 -0.3794 -0.1637
   69CHL1    H6 6222   6.803   3.716   3.346 -1.5425 -0.4012 -0.6718
   69CHL1    C7 6223   6.763   3.629   3.551  0.3264  0.9784  0.4870
   69CHL1   H7A 6224   6.829   3.712   3.585  0.2988  1.7594 -1.2485
   69CHL1   H7B 6225   6.663   3.663   3.584  0.2952  0.6920  0.6893
   69CHL1    C8 6226   6.777   3.496   3.630 -0.4406  0.0016  0.4666
   69CHL1    H8 6227   6.887   3.480   3.634 -0.2218  0.7626 -1.4466
   69CHL1   C14 6228   6.711   3.509   3.764  0.7232 -0.9895  0.1988
   69CHL1   H14 6229   6.604   3.524   3.739  0.6411  0.3949  1.2754
   69CHL1   C15 6230   6.740   3.634   3.854 -0.5216 -0.7523 -0.9138
   69CHL1  H15A 6231   6.849   3.649   3.841 -0.9654  0.4086 -4.0820
   69CHL1  H15B 6232   6.692   3.731   3.826 -0.3367 -0.2962  0.2528
   69CHL1   C16 6233   6.704   3.586   3.998  0.1746  0.1326 -0.4520
   69CHL1  H16A 6234   6.790   3.586   4.068 -1.1427 -2.0158  1.2737
   69CHL1  H16B 6235   6.615   3.642   4.036 -0.1027 -0.5579 -0.0819
   69CHL1   C17 6236   6.670   3.434   3.989  0.2851 -0.7145 -0.2719
   69CHL1   H17 6237   6.560   3.438   3.972  0.3245  2.2050 -0.4282
   69CHL1   C13 6238   6.726   3.390   3.854 -0.4509 -0.1812  0.2273
   69CHL1   C18 6239   6.882   3.363   3.868  0.5010  0.2678  0.0941
   69CHL1  H18A 6240   6.940   3.452   3.899  1.9151 -1.4050  2.6039
   69CHL1  H18B 6241   6.892   3.282   3.943  0.4888 -0.5651 -0.7814
   69CHL1  H18C 6242   6.919   3.315   3.775 -0.4380 -2.2712  0.9476
   69CHL1   C12 6243   6.658   3.273   3.776 -1.1096  0.4438 -0.4482
   69CHL1  H12A 6244   6.680   3.179   3.830 -1.5463  1.0192  0.7744
   69CHL1  H12B 6245   6.547   3.279   3.782 -1.1571 -1.2726  1.7891
   69CHL1   C11 6246   6.700   3.256   3.640 -0.3539 -0.2463 -0.1321
   69CHL1  H11A 6247   6.805   3.219   3.636  0.4689  1.6027  2.2201
   69CHL1  H11B 6248   6.632   3.186   3.587 -0.7747 -1.2269  1.6145
   69CHL1    C9 6249   6.703   3.389   3.550  0.2481 -0.1476 -0.7438
   69CHL1    H9 6250   6.596   3.418   3.554  0.3649  0.2945 -0.7594
   69CHL1   C10 6251   6.742   3.378   3.403  0.4551  0.4399 -0.5620
   69CHL1   C19 6252   6.873   3.297   3.403  0.6296  0.0175  0.1615
   69CHL1  H19A 6253   6.918   3.282   3.302 -0.1171 -2.9246  0.1732
   69CHL1  H19B 6254   6.954   3.353   3.456 -1.8281  1.2200  2.9230
   69CHL1  H19C 6255   6.880   3.194   3.444 -0.1809 -0.3890 -0.7018
   69CHL1    C1 6256   6.636   3.298   3.324  0.1896 -0.2127  0.0314
   69CHL1   H1A 6257   6.634   3.194   3.365 -0.0583  0.2435  1.2010
   69CHL1   H1B 6258   6.544   3.357   3.341 -0.2770 -0.8432 -0.2367
   69CHL1    C2 6259   6.656   3.293   3.167 -0.0099  0.2023  0.5318
   69CHL1   H2A 6260   6.556   3.273   3.123  0.4878 -0.2333 -0.4377
   69CHL1   H2B 6261   6.726   3.212   3.136  0.0392  0.4143  0.0799
   69CHL1   C20 6262   6.700   3.359   4.121  0.2576 -0.1066  0.7170
   69CHL1   H20 6263   6.809   3.373   4.140  0.2964  0.5870  0.0257
   69CHL1   C21 6264   6.658   3.203   4.108  0.6625  0.2492 -1.0640
   69CHL1  H21A 6265   6.643   3.163   4.211  0.2622  2.0601 -0.3768
   69CHL1  H21B 6266   6.728   3.138   4.051  2.4184  0.8071  0.3377
   69CHL1  H21C 6267   6.552   3.202   4.078  0.4690 -1.8297 -0.4751
   69CHL1   C22 6268   6.625   3.426   4.241 -0.2718  0.4334  0.6846
   69CHL1  H22A 6269   6.659   3.373   4.333  0.4430 -1.0963 -0.4193
   69CHL1  H22B 6270   6.664   3.529   4.233 -0.8301  0.5255 -1.4388
   69CHL1   C23 6271   6.473   3.433   4.237 -0.5108  0.6964 -0.0476
   69CHL1  H23A 6272   6.442   3.509   4.161  2.6197 -0.4685 -2.7288
   69CHL1  H23B 6273   6.439   3.344   4.180  1.2938 -0.2401  0.2722
   69CHL1   C24 6274   6.398   3.432   4.369  0.3855  0.1066  0.0806
   69CHL1  H24A 6275   6.289   3.425   4.351  0.4357  1.7019 -1.0175
   69CHL1  H24B 6276   6.415   3.343   4.433 -2.6208 -1.1461 -0.7137
   69CHL1   C25 6277   6.432   3.555   4.460  0.2586 -0.4198  0.0148
   69CHL1   H25 6278   6.542   3.565   4.449  0.1150 -0.9415 -2.7243
   69CHL1   C26 6279   6.384   3.683   4.391 -0.0217  0.2263  0.0635
   69CHL1  H26A 6280   6.457   3.697   4.308 -2.3987 -0.0989 -2.2091
   69CHL1  H26B 6281   6.286   3.670   4.340  0.4595 -0.9793 -0.5986
   69CHL1  H26C 6282   6.387   3.771   4.459  0.2229  1.2553 -1.2270
   69CHL1   C27 6283   6.369   3.554   4.602 -0.9940  0.4406  0.6978
   69CHL1  H27A 6284   6.401   3.465   4.661 -2.3231 -1.0229 -0.6718
   69CHL1  H27B 6285   6.388   3.650   4.655  0.6470  0.9701 -0.7515
   69CHL1  H27C 6286   6.258   3.550   4.598 -0.9499  0.4832 -0.9246
   70CHL1    C3 6287   3.503   0.683   3.403 -0.3326  0.0494 -0.4814
   70CHL1    H3 6288   3.402   0.665   3.446  0.2477  0.9789  1.4071
   70CHL1    O3 6289   3.489   0.701   3.264  0.0513  0.7037  0.2486
   70CHL1   H3' 6290   3.582   0.717   3.247  0.4441  1.4755  2.6848
   70CHL1    C4 6291   3.555   0.808   3.470 -0.3134  0.9117 -0.1617
   70CHL1   H4A 6292   3.651   0.844   3.427 -1.5511  2.4002 -1.8109
   70CHL1   H4B 6293   3.474   0.879   3.445 -1.7518 -0.3171  0.7833
   70CHL1    C5 6294   3.572   0.790   3.623 -0.2782 -0.3851  0.1294
   70CHL1    C6 6295   3.514   0.881   3.707 -0.5303  0.3885 -0.2477
   70CHL1    H6 6296   3.458   0.967   3.667  0.9325  1.2566 -0.5172
   70CHL1    C7 6297   3.542   0.879   3.851  0.1532 -0.1059  0.7045
   70CHL1   H7A 6298   3.567   0.984   3.877 -0.8186  1.4189 -3.6628
   70CHL1   H7B 6299   3.452   0.837   3.900 -0.0309  1.4141  1.7187
   70CHL1    C8 6300   3.663   0.785   3.894  0.7917  0.9121 -0.1084
   70CHL1    H8 6301   3.759   0.839   3.877 -0.1948  2.2110 -1.9446
   70CHL1   C14 6302   3.653   0.756   4.049 -0.3999 -0.0311  0.8410
   70CHL1   H14 6303   3.556   0.707   4.071 -0.5033  0.3503  1.2550
   70CHL1   C15 6304   3.633   0.873   4.145 -0.6154 -0.3079  0.3149
   70CHL1  H15A 6305   3.707   0.948   4.109 -1.5651 -0.8161 -3.0403
   70CHL1  H15B 6306   3.533   0.920   4.141 -1.0717 -1.3148 -0.3191
   70CHL1   C16 6307   3.669   0.818   4.281  0.4557  0.0847  0.2232
   70CHL1  H16A 6308   3.752   0.868   4.335 -1.2591  2.8225  0.5010
   70CHL1  H16B 6309   3.587   0.825   4.355  0.8530  0.3111  0.6483
   70CHL1   C17 6310   3.725   0.675   4.250 -0.2007 -0.6863 -0.8778
   70CHL1   H17 6311   3.633   0.614   4.267 -1.2128  1.0643  0.2612
   70CHL1   C13 6312   3.768   0.671   4.105 -0.2466 -0.5870 -1.0137
   70CHL1   C18 6313   3.909   0.744   4.088 -0.2654  1.1576 -0.0677
   70CHL1  H18A 6314   3.981   0.686   4.149  0.0548  2.4627  0.8411
   70CHL1  H18B 6315   3.943   0.751   3.982  0.2936 -1.0224 -0.0735
   70CHL1  H18C 6316   3.910   0.852   4.116  0.5945  1.2388 -0.3813
   70CHL1   C12 6317   3.772   0.535   4.034 -0.5323 -0.3829 -0.0264
   70CHL1  H12A 6318   3.852   0.468   4.070 -0.6756  0.8950  2.9562
   70CHL1  H12B 6319   3.671   0.494   4.057 -1.7678  2.7286  0.5638
   70CHL1   C11 6320   3.773   0.558   3.881  0.2795  0.6931  0.1482
   70CHL1  H11A 6321   3.871   0.609   3.869  0.3089  0.6572  0.2330
   70CHL1  H11B 6322   3.780   0.455   3.840  2.3748  1.6017 -1.9829
   70CHL1    C9 6323   3.657   0.649   3.823 -0.0415 -0.7023  0.5557
   70CHL1    H9 6324   3.564   0.596   3.854 -0.5987 -0.2786 -0.3577
   70CHL1   C10 6325   3.663   0.672   3.667  0.7672  0.4871 -0.4644
   70CHL1   C19 6326   3.809   0.708   3.630  0.1471 -0.3230  0.3342
   70CHL1  H19A 6327   3.817   0.743   3.525 -1.9648 -1.4997 -0.2697
   70CHL1  H19B 6328   3.845   0.795   3.689  2.1788  0.8727 -2.4378
   70CHL1  H19C 6329   3.877   0.620   3.639 -1.9109 -1.8296  2.2525
   70CHL1    C1 6330   3.618   0.541   3.591  0.4222  0.1472  0.1707
   70CHL1   H1A 6331   3.685   0.453   3.605  1.3256  0.4190 -2.0681
   70CHL1   H1B 6332   3.519   0.520   3.636  0.3238  0.6062  0.1779
   70CHL1    C2 6333   3.588   0.560   3.431  0.0509  0.3430  0.0236
   70CHL1   H2A 6334   3.530   0.470   3.401 -1.2308  0.7704  1.0994
   70CHL1   H2B 6335   3.684   0.576   3.379 -0.6205  0.9021 -1.0832
   70CHL1   C20 6336   3.819   0.626   4.368  0.1045  0.8401  0.4297
   70CHL1   H20 6337   3.905   0.696   4.358 -0.3570  1.4058  0.3842
   70CHL1   C21 6338   3.880   0.489   4.339  0.1929  0.6889  0.1004
   70CHL1  H21A 6339   3.803   0.414   4.312 -0.4724  1.6475 -0.6996
   70CHL1  H21B 6340   3.919   0.436   4.430  0.1060 -1.6056 -1.1211
   70CHL1  H21C 6341   3.958   0.494   4.260 -1.1711  0.4921 -1.2884
   70CHL1   C22 6342   3.753   0.638   4.507 -0.4421  0.5037 -0.5230
   70CHL1  H22A 6343   3.678   0.720   4.514 -0.1690  0.7715 -0.7029
   70CHL1  H22B 6344   3.712   0.539   4.534  0.9824 -0.3245 -1.2948
   70CHL1   C23 6345   3.857   0.670   4.624  0.0738 -1.1920  0.1430
   70CHL1  H23A 6346   3.925   0.582   4.624 -0.9723 -2.0192  0.8316
   70CHL1  H23B 6347   3.928   0.754   4.608  3.1487 -3.6559 -0.3585
   70CHL1   C24 6348   3.788   0.693   4.756  0.1029 -0.2314 -0.5599
   70CHL1  H24A 6349   3.688   0.739   4.741  0.2416  1.2285  2.1855
   70CHL1  H24B 6350   3.770   0.589   4.790  1.2500 -0.6307 -1.1543
   70CHL1   C25 6351   3.850   0.774   4.870 -0.4777  0.4759  0.7909
   70CHL1   H25 6352   3.953   0.733   4.865 -1.4491 -2.0162 -1.2637
   70CHL1   C26 6353   3.860   0.922   4.835  1.0191 -0.1425 -0.4110
   70CHL1  H26A 6354   3.931   0.931   4.750 -1.3459 -1.2077 -2.6334
   70CHL1  H26B 6355   3.757   0.947   4.801  0.1001  0.2995  2.3705
   70CHL1  H26C 6356   3.893   0.982   4.923  2.5323 -0.8943 -0.4433
   70CHL1   C27 6357   3.783   0.744   4.997 -0.5186 -0.1479 -0.6621
   70CHL1  H27A 6358   3.673   0.760   4.999 -0.5328 -0.2759  0.1782
   70CHL1  H27B 6359   3.813   0.640   5.022 -0.2020 -0.3461 -1.8175
   70CHL1  H27C 6360   3.825   0.804   5.081 -1.2560  0.1996 -0.5219
   71CHL1    C3 6361   1.544   5.380   3.361  0.1551 -0.2242 -0.2273
   71CHL1    H3 6362   1.528   5.275   3.392  0.0853  0.1301  0.9771
   71CHL1    O3 6363   1.535   5.382   3.220 -0.0009  0.1144 -0.4921
   71CHL1   H3' 6364   1.566   5.466   3.187  1.5936 -0.6840 -1.1518
   71CHL1    C4 6365   1.438   5.467   3.425  0.3979  0.0768  0.1110
   71CHL1   H4A 6366   1.448   5.568   3.380  0.4413 -0.6641 -1.6494
   71CHL1   H4B 6367   1.339   5.431   3.387  0.5061  1.0294 -1.1437
   71CHL1    C5 6368   1.440   5.472   3.572  0.4958  0.2651 -0.0100
   71CHL1    C6 6369   1.332   5.446   3.651  0.2623 -0.1668 -0.6132
   71CHL1    H6 6370   1.236   5.407   3.613  0.2642  0.9334 -1.8186
   71CHL1    C7 6371   1.340   5.448   3.801 -0.5800  0.2498 -0.5639
   71CHL1   H7A 6372   1.245   5.488   3.842 -1.1832  2.5675 -3.8704
   71CHL1   H7B 6373   1.355   5.342   3.830 -0.0328 -0.7420 -3.9781
   71CHL1    C8 6374   1.466   5.514   3.856 -0.8783  0.3750 -0.5120
   71CHL1    H8 6375   1.464   5.624   3.839  0.3966  0.3505 -0.9548
   71CHL1   C14 6376   1.476   5.474   4.005 -0.2392 -0.1111  0.5064
   71CHL1   H14 6377   1.477   5.364   4.018 -0.9153 -0.0622  1.0118
   71CHL1   C15 6378   1.367   5.522   4.099  0.2635 -0.1157  0.7816
   71CHL1  H15A 6379   1.344   5.627   4.072  2.8098  0.2798 -0.1889
   71CHL1  H15B 6380   1.268   5.472   4.095  0.3679 -0.3900  1.3897
   71CHL1   C16 6381   1.428   5.522   4.238  0.6384 -0.2725 -1.0582
   71CHL1  H16A 6382   1.421   5.615   4.299  0.4994 -0.7162 -0.3800
   71CHL1  H16B 6383   1.379   5.441   4.298 -0.2748 -0.6488 -2.2682
   71CHL1   C17 6384   1.582   5.489   4.219  0.4244 -0.4030 -0.4249
   71CHL1   H17 6385   1.600   5.380   4.228 -1.4412 -0.5882  2.7674
   71CHL1   C13 6386   1.608   5.525   4.074  0.2801 -0.3773 -0.1760
   71CHL1   C18 6387   1.604   5.677   4.059 -0.6301  0.1700 -0.0556
   71CHL1  H18A 6388   1.693   5.723   4.107 -1.0592  2.3309 -1.1715
   71CHL1  H18B 6389   1.606   5.717   3.955  1.4742  0.4540  0.0682
   71CHL1  H18C 6390   1.514   5.722   4.107 -0.8189 -0.6682  0.3864
   71CHL1   C12 6391   1.730   5.465   4.000 -0.3225  0.1651 -0.1502
   71CHL1  H12A 6392   1.824   5.496   4.052  0.2023  0.5572 -1.3101
   71CHL1  H12B 6393   1.731   5.355   4.011 -1.5241  0.2393  1.0920
   71CHL1   C11 6394   1.728   5.500   3.855 -0.5560  0.8747 -0.4457
   71CHL1  H11A 6395   1.758   5.607   3.844 -0.3081  0.8482 -0.0530
   71CHL1  H11B 6396   1.808   5.441   3.805 -0.6359  1.1929 -0.9575
   71CHL1    C9 6397   1.594   5.460   3.785 -0.5653 -0.7106  0.0259
   71CHL1    H9 6398   1.585   5.350   3.794 -1.9366 -0.5645  0.5971
   71CHL1   C10 6399   1.584   5.494   3.634 -0.1775 -0.2171 -0.0498
   71CHL1   C19 6400   1.607   5.645   3.613  0.5102 -0.4237  0.2894
   71CHL1  H19A 6401   1.535   5.718   3.656  0.3503  0.3053 -1.1560
   71CHL1  H19B 6402   1.705   5.675   3.655 -0.6711  1.5218  1.8170
   71CHL1  H19C 6403   1.614   5.667   3.505  0.9597  2.5289  0.8381
   71CHL1    C1 6404   1.702   5.423   3.557 -0.1525 -0.6529 -0.2251
   71CHL1   H1A 6405   1.793   5.485   3.574 -1.1718  0.6499  0.5976
   71CHL1   H1B 6406   1.708   5.319   3.596  1.3648  0.0313  1.5336
   71CHL1    C2 6407   1.687   5.422   3.403 -0.4501 -0.1230  0.4288
   71CHL1   H2A 6408   1.756   5.351   3.350 -0.0713  1.3786 -1.1720
   71CHL1   H2B 6409   1.707   5.522   3.359 -2.3460 -0.3541 -1.0503
   71CHL1   C20 6410   1.660   5.561   4.329  0.6022 -0.3507  0.1427
   71CHL1   H20 6411   1.646   5.670   4.313 -1.3550 -0.7710 -1.3193
   71CHL1   C21 6412   1.814   5.540   4.328 -0.1617 -0.2337  0.1422
   71CHL1  H21A 6413   1.845   5.433   4.328  3.8172  0.7347  1.1652
   71CHL1  H21B 6414   1.862   5.585   4.418 -1.4870  0.8808  0.3285
   71CHL1  H21C 6415   1.858   5.583   4.235 -0.9883 -0.3158 -0.2976
   71CHL1   C22 6416   1.618   5.517   4.472  0.7815  0.0686  0.6074
   71CHL1  H22A 6417   1.507   5.525   4.476  0.4384 -1.7815 -2.1698
   71CHL1  H22B 6418   1.647   5.410   4.484 -0.5888 -0.3162  0.7109
   71CHL1   C23 6419   1.678   5.605   4.585  0.3449 -0.2371 -0.6398
   71CHL1  H23A 6420   1.779   5.581   4.623  0.1052  1.6750  1.4208
   71CHL1  H23B 6421   1.682   5.706   4.539 -3.1262  0.7063  0.7946
   71CHL1   C24 6422   1.604   5.609   4.717  0.5099 -0.1584 -0.7668
   71CHL1  H24A 6423   1.669   5.657   4.793 -1.6907  0.9845  0.4687
   71CHL1  H24B 6424   1.518   5.678   4.710 -0.2749 -1.0124  0.1078
   71CHL1   C25 6425   1.566   5.478   4.777  0.1124  0.7222 -0.2107
   71CHL1   H25 6426   1.502   5.427   4.701  0.3623  0.6703 -0.3880
   71CHL1   C26 6427   1.676   5.373   4.807 -0.7352  0.9666 -0.5977
   71CHL1  H26A 6428   1.720   5.408   4.902 -1.0651 -0.1147 -0.0356
   71CHL1  H26B 6429   1.645   5.267   4.816 -4.2039  1.8145 -1.2981
   71CHL1  H26C 6430   1.761   5.382   4.735  1.1350  2.0337  1.6119
   71CHL1   C27 6431   1.483   5.500   4.900  0.7557  0.6551 -0.2239
   71CHL1  H27A 6432   1.460   5.401   4.944 -0.6301 -0.2056 -2.6778
   71CHL1  H27B 6433   1.536   5.560   4.977  0.1512  0.0666  0.6657
   71CHL1  H27C 6434   1.382   5.546   4.892  0.5106  0.3945  1.1486
   72CHL1    C3 6435   0.228   3.623   2.993  0.2266 -0.1521 -0.0947
   72CHL1    H3 6436   0.117   3.629   2.999  0.0419 -2.3448 -0.5636
   72CHL1    O3 6437   0.255   3.622   2.851  0.5191 -0.4287  0.0119
   72CHL1   H3' 6438   0.350   3.612   2.837  0.6972  0.7474  0.2860
   72CHL1    C4 6439   0.301   3.748   3.054 -1.7892 -0.6375 -0.8309
   72CHL1   H4A 6440   0.405   3.750   3.016 -0.7554 -1.3794  1.7878
   72CHL1   H4B 6441   0.251   3.838   3.011 -0.1807  0.5557 -0.2721
   72CHL1    C5 6442   0.292   3.737   3.202  0.1498 -0.4234 -0.1696
   72CHL1    C6 6443   0.232   3.844   3.265  0.1470  0.3008  0.5119
   72CHL1    H6 6444   0.207   3.931   3.203  1.0341 -1.8354 -3.1011
   72CHL1    C7 6445   0.229   3.853   3.410  1.2843 -0.1515  0.5933
   72CHL1   H7A 6446   0.260   3.958   3.426 -0.2302  0.8775 -2.3682
   72CHL1   H7B 6447   0.127   3.847   3.452  0.7339  1.1555 -0.4732
   72CHL1    C8 6448   0.329   3.752   3.480  0.7333 -0.1706  0.2929
   72CHL1    H8 6449   0.434   3.786   3.473  0.9653 -1.0856 -1.0937
   72CHL1   C14 6450   0.297   3.756   3.628  0.6846 -0.0966  0.1063
   72CHL1   H14 6451   0.192   3.723   3.643  0.5341  0.9577  1.6676
   72CHL1   C15 6452   0.308   3.883   3.713  0.1986 -0.1031 -0.5156
   72CHL1  H15A 6453   0.399   3.942   3.689 -0.6366  0.4479 -2.4626
   72CHL1  H15B 6454   0.221   3.951   3.709 -0.7471 -1.1968  0.5265
   72CHL1   C16 6455   0.301   3.831   3.858 -0.3040  0.4693  0.2094
   72CHL1  H16A 6456   0.369   3.896   3.917 -0.2657  1.1097 -0.5118
   72CHL1  H16B 6457   0.201   3.842   3.905 -1.0735  0.5433 -1.3802
   72CHL1   C17 6458   0.336   3.684   3.860 -1.0102 -0.0861 -0.1071
   72CHL1   H17 6459   0.241   3.627   3.867 -0.9311 -0.0798  1.2576
   72CHL1   C13 6460   0.384   3.654   3.715  0.4849  0.0334 -0.9768
   72CHL1   C18 6461   0.538   3.686   3.705 -0.0667  0.5101 -0.0781
   72CHL1  H18A 6462   0.576   3.675   3.601 -2.1055 -1.8695 -0.6836
   72CHL1  H18B 6463   0.553   3.790   3.741  1.9614 -0.3972  1.9071
   72CHL1  H18C 6464   0.590   3.622   3.780 -2.1812 -0.2200  0.8532
   72CHL1   C12 6465   0.355   3.513   3.665  0.0401  0.3635  0.2879
   72CHL1  H12A 6466   0.417   3.433   3.711 -0.3373 -1.9297 -2.8320
   72CHL1  H12B 6467   0.246   3.489   3.667 -0.0067 -0.4163 -3.5991
   72CHL1   C11 6468   0.390   3.504   3.514 -0.0728  0.0705  0.2364
   72CHL1  H11A 6469   0.499   3.525   3.504 -0.0335 -0.9552 -2.1188
   72CHL1  H11B 6470   0.369   3.404   3.470  2.2323 -0.3928  0.0181
   72CHL1    C9 6471   0.320   3.609   3.423 -0.1052 -0.3653 -0.2041
   72CHL1    H9 6472   0.211   3.598   3.435  0.0230  0.9459  3.1330
   72CHL1   C10 6473   0.349   3.611   3.272  0.2148  0.6603  0.1673
   72CHL1   C19 6474   0.498   3.616   3.243  0.2373 -0.4786 -0.2060
   72CHL1  H19A 6475   0.545   3.536   3.303 -2.1063 -1.3287  0.6095
   72CHL1  H19B 6476   0.523   3.605   3.135 -0.5601  2.4287 -0.7868
   72CHL1  H19C 6477   0.536   3.710   3.288 -0.9509 -0.7518  1.4622
   72CHL1    C1 6478   0.288   3.486   3.199 -0.3014 -0.3026 -0.3049
   72CHL1   H1A 6479   0.344   3.395   3.230 -2.1796 -0.9200  1.5378
   72CHL1   H1B 6480   0.187   3.463   3.240 -0.2120 -1.1723 -0.5523
   72CHL1    C2 6481   0.279   3.488   3.046 -0.3911  0.3037  0.0247
   72CHL1   H2A 6482   0.220   3.401   3.009 -0.3856 -1.2017  3.1985
   72CHL1   H2B 6483   0.379   3.477   2.998 -0.6895  1.4960 -0.8995
   72CHL1   C20 6484   0.421   3.649   3.989 -0.5988  0.1075  0.0826
   72CHL1   H20 6485   0.526   3.683   3.978 -0.9309  0.8236 -1.0555
   72CHL1   C21 6486   0.426   3.493   4.003 -0.0692  0.1173 -0.1665
   72CHL1  H21A 6487   0.493   3.444   3.928  1.9869 -0.1099  1.6997
   72CHL1  H21B 6488   0.331   3.437   3.990 -0.7264  1.3903 -0.9948
   72CHL1  H21C 6489   0.468   3.474   4.104 -1.8772  1.2367  0.8504
   72CHL1   C22 6490   0.356   3.700   4.120 -0.1366 -0.2439 -0.2973
   72CHL1  H22A 6491   0.295   3.794   4.116  0.0316 -0.0032  1.7288
   72CHL1  H22B 6492   0.282   3.620   4.140  0.7983 -1.8222 -2.6793
   72CHL1   C23 6493   0.450   3.714   4.240 -0.3946 -0.3917 -0.5052
   72CHL1  H23A 6494   0.506   3.620   4.262  0.3083  0.2918  0.7093
   72CHL1  H23B 6495   0.524   3.797   4.233 -2.2003  1.3681  0.4324
   72CHL1   C24 6496   0.371   3.749   4.372 -0.4788 -0.0304  0.3781
   72CHL1  H24A 6497   0.324   3.849   4.357 -0.5065  0.0714  1.0971
   72CHL1  H24B 6498   0.298   3.665   4.381  0.2951 -0.6982  0.4802
   72CHL1   C25 6499   0.453   3.768   4.507 -0.2971  0.4035 -0.0656
   72CHL1   H25 6500   0.529   3.848   4.498  1.8128 -1.5169 -0.3832
   72CHL1   C26 6501   0.351   3.815   4.612  0.2727 -0.2176  0.2651
   72CHL1  H26A 6502   0.407   3.862   4.696  0.2677 -0.6940  0.5400
   72CHL1  H26B 6503   0.285   3.890   4.564  0.0956 -0.7414 -0.3344
   72CHL1  H26C 6504   0.285   3.742   4.665 -0.3812  1.0424  1.2381
   72CHL1   C27 6505   0.531   3.642   4.533  0.1233 -0.1208 -0.0816
   72CHL1  H27A 6506   0.461   3.565   4.573 -0.9499  0.4345 -0.8125
   72CHL1  H27B 6507   0.581   3.612   4.438  0.9163  0.3199  0.1897
   72CHL1  H27C 6508   0.611   3.658   4.608 -1.5385 -1.6825  2.1650
   73CHL1    C3 6509   3.446   6.047   3.200 -0.5857 -0.4528 -0.1822
   73CHL1    H3 6510   3.517   5.964   3.219 -0.3657 -0.0666  0.7251
   73CHL1    O3 6511   3.441   6.079   3.063  0.5068  0.2812  0.3371
   73CHL1   H3' 6512   3.394   6.161   3.051  0.7444  0.2797 -0.7390
   73CHL1    C4 6513   3.301   6.024   3.244  0.3024 -0.0422 -0.6269
   73CHL1   H4A 6514   3.244   6.118   3.229 -0.4069 -0.7081 -2.4118
   73CHL1   H4B 6515   3.258   5.943   3.182 -1.6187 -1.6835  2.5463
   73CHL1    C5 6516   3.292   5.997   3.398  0.2498  0.0317  0.0442
   73CHL1    C6 6517   3.225   5.892   3.447  0.3054  0.2330  0.5611
   73CHL1    H6 6518   3.178   5.819   3.380  0.3291  0.7862 -0.0627
   73CHL1    C7 6519   3.201   5.865   3.591 -0.3825 -0.2519 -0.1515
   73CHL1   H7A 6520   3.093   5.849   3.610 -0.3344  0.4902  0.8007
   73CHL1   H7B 6521   3.251   5.771   3.622  0.1306  0.4628  1.2558
   73CHL1    C8 6522   3.257   5.977   3.682 -0.4165 -0.6023 -0.6134
   73CHL1    H8 6523   3.189   6.065   3.686 -0.0813 -0.3923  1.9092
   73CHL1   C14 6524   3.277   5.933   3.829 -0.4434 -0.5140 -0.1456
   73CHL1   H14 6525   3.363   5.864   3.834 -0.6616 -0.9376 -1.6892
   73CHL1   C15 6526   3.163   5.868   3.898  0.5555  0.2367  0.1236
   73CHL1  H15A 6527   3.071   5.927   3.878 -1.6804 -1.8877  3.1612
   73CHL1  H15B 6528   3.149   5.762   3.868 -1.0171  0.1857  0.9338
   73CHL1   C16 6529   3.198   5.873   4.046 -0.5205  0.5253 -0.2897
   73CHL1  H16A 6530   3.115   5.922   4.101 -0.1111  1.5710 -0.5830
   73CHL1  H16B 6531   3.231   5.771   4.076  2.3264  1.5237  0.3140
   73CHL1   C17 6532   3.318   5.982   4.064  0.1709  0.0648 -0.4516
   73CHL1   H17 6533   3.409   5.920   4.074  0.0214 -0.0469  0.2691
   73CHL1   C13 6534   3.332   6.050   3.927 -0.2461 -0.3573 -0.3761
   73CHL1   C18 6535   3.235   6.170   3.920 -0.1687 -0.0385  0.2162
   73CHL1  H18A 6536   3.251   6.249   3.996 -0.7183  1.2346 -0.9485
   73CHL1  H18B 6537   3.239   6.228   3.826  0.0656 -0.9755 -0.3682
   73CHL1  H18C 6538   3.131   6.133   3.933  0.5258 -1.7396  1.2880
   73CHL1   C12 6539   3.470   6.093   3.872 -0.4108  0.5724 -0.3008
   73CHL1  H12A 6540   3.522   6.168   3.934 -0.3210 -1.7091  2.6135
   73CHL1  H12B 6541   3.533   6.002   3.880 -0.5804  0.3512 -1.2814
   73CHL1   C11 6542   3.464   6.130   3.721  0.2649 -0.9131 -0.1791
   73CHL1  H11A 6543   3.409   6.225   3.734 -0.4011 -1.5190  1.6939
   73CHL1  H11B 6544   3.561   6.149   3.670  0.1211  0.6070  0.0902
   73CHL1    C9 6545   3.388   6.038   3.623 -0.4927 -0.2317 -0.4566
   73CHL1    H9 6546   3.455   5.949   3.616 -1.4115 -0.8287 -2.4623
   73CHL1   C10 6547   3.374   6.100   3.482 -0.1903  0.0785  0.6107
   73CHL1   C19 6548   3.292   6.234   3.484 -0.2818  0.0516 -0.1863
   73CHL1  H19A 6549   3.190   6.223   3.528 -0.1730  0.0649  0.0667
   73CHL1  H19B 6550   3.342   6.315   3.541  0.0612 -0.3090  0.0250
   73CHL1  H19C 6551   3.271   6.279   3.384  1.3547  0.9686 -0.1429
   73CHL1    C1 6552   3.511   6.138   3.422 -0.9695 -0.3296  0.6250
   73CHL1   H1A 6553   3.550   6.235   3.460  0.2736 -0.6432  0.1879
   73CHL1   H1B 6554   3.587   6.058   3.423  0.7738  1.0800 -3.0408
   73CHL1    C2 6555   3.510   6.162   3.273  0.1864 -0.9110  0.2652
   73CHL1   H2A 6556   3.609   6.175   3.225  0.8907  0.8647  2.0790
   73CHL1   H2B 6557   3.457   6.253   3.237  1.6092 -0.1425  0.0544
   73CHL1   C20 6558   3.312   6.068   4.191  0.7291 -0.1875  0.5039
   73CHL1   H20 6559   3.225   6.135   4.179 -0.7866 -2.3293 -1.2302
   73CHL1   C21 6560   3.444   6.155   4.205  0.6199  0.9961  0.0851
   73CHL1  H21A 6561   3.426   6.218   4.295 -6.0452  0.8287 -0.6180
   73CHL1  H21B 6562   3.454   6.230   4.124 -1.9757  1.2326 -0.0919
   73CHL1  H21C 6563   3.536   6.093   4.197  0.1606  0.5825 -4.5745
   73CHL1   C22 6564   3.284   5.991   4.320  0.4212 -0.6511 -0.5351
   73CHL1  H22A 6565   3.183   5.944   4.312 -0.8621  1.8638 -0.3440
   73CHL1  H22B 6566   3.361   5.915   4.342  0.8387  0.9380  4.9298
   73CHL1   C23 6567   3.259   6.075   4.449 -0.3794 -0.1659 -0.0756
   73CHL1  H23A 6568   3.352   6.133   4.469 -0.4599  1.2543 -3.1299
   73CHL1  H23B 6569   3.176   6.149   4.442 -1.0794 -1.0063 -1.0065
   73CHL1   C24 6570   3.233   5.978   4.573 -0.8470  0.5622  0.1897
   73CHL1  H24A 6571   3.131   5.935   4.577 -0.3438 -0.9910 -1.7213
   73CHL1  H24B 6572   3.298   5.888   4.566 -2.1444 -0.5460  1.6189
   73CHL1   C25 6573   3.261   6.034   4.713  0.5329 -0.1891  0.2648
   73CHL1   H25 6574   3.366   6.070   4.705  0.3978 -0.1304 -1.4766
   73CHL1   C26 6575   3.165   6.153   4.754 -0.2422  0.8947  0.3023
   73CHL1  H26A 6576   3.062   6.112   4.753 -0.5557  1.6531  0.2064
   73CHL1  H26B 6577   3.186   6.189   4.857  2.6677 -0.3850  0.2687
   73CHL1  H26C 6578   3.173   6.240   4.685 -0.3531  1.7465  1.3349
   73CHL1   C27 6579   3.256   5.925   4.826 -0.4268 -0.0020 -0.1120
   73CHL1  H27A 6580   3.326   5.841   4.810 -0.1610  0.0148  0.8887
   73CHL1  H27B 6581   3.278   5.980   4.920 -1.5714  1.8631 -0.8764
   73CHL1  H27C 6582   3.153   5.886   4.822 -0.1013 -0.7715 -1.2460
   74CHL1    C3 6583   1.267   4.367   3.087 -0.1933 -0.5717  0.6358
   74CHL1    H3 6584   1.339   4.288   3.059  1.5724  0.7570  1.2789
   74CHL1    O3 6585   1.223   4.435   2.972 -0.0992 -0.5230 -0.2649
   74CHL1   H3' 6586   1.150   4.484   3.010 -0.0489 -1.3960  1.0128
   74CHL1    C4 6587   1.150   4.286   3.151 -0.3071  0.0573  0.6603
   74CHL1   H4A 6588   1.065   4.356   3.169 -0.2859  0.0808  0.6685
   74CHL1   H4B 6589   1.128   4.208   3.075  1.1442  1.1541 -0.9565
   74CHL1    C5 6590   1.175   4.215   3.280 -0.1750  1.0812 -1.0972
   74CHL1    C6 6591   1.152   4.082   3.307  0.2034 -0.1324 -0.4414
   74CHL1    H6 6592   1.104   4.015   3.234  1.6152  1.9108 -3.4719
   74CHL1    C7 6593   1.192   4.014   3.434  0.1871 -0.2905 -0.4250
   74CHL1   H7A 6594   1.117   3.942   3.474  0.0944 -0.3925 -0.7823
   74CHL1   H7B 6595   1.282   3.954   3.411 -0.1256  0.1068 -2.8842
   74CHL1    C8 6596   1.226   4.108   3.555  0.4249 -0.5181  0.4804
   74CHL1    H8 6597   1.135   4.162   3.588  1.2026  1.5704 -0.6407
   74CHL1   C14 6598   1.295   4.024   3.661 -0.0813 -0.1488 -0.6156
   74CHL1   H14 6599   1.383   3.977   3.613  0.2146  1.5748 -1.8664
   74CHL1   C15 6600   1.217   3.907   3.710  0.6856 -0.2646 -0.0941
   74CHL1  H15A 6601   1.112   3.943   3.723  0.2035 -1.0144 -1.6760
   74CHL1  H15B 6602   1.218   3.827   3.633  0.3012 -0.1481 -0.2238
   74CHL1   C16 6603   1.289   3.873   3.846  0.1148 -0.1129  0.0335
   74CHL1  H16A 6604   1.210   3.879   3.924 -2.2500  0.4126 -2.2428
   74CHL1  H16B 6605   1.339   3.774   3.832  0.6242  0.3671 -1.8772
   74CHL1   C17 6606   1.396   3.989   3.866 -0.1126  0.1031  0.5331
   74CHL1   H17 6607   1.487   3.955   3.813 -0.6282  2.4790 -2.0926
   74CHL1   C13 6608   1.344   4.106   3.774  0.0784  0.0106  0.0504
   74CHL1   C18 6609   1.224   4.173   3.847 -0.2673 -0.0349  0.3773
   74CHL1  H18A 6610   1.163   4.250   3.795  1.2817  0.9477 -0.0410
   74CHL1  H18B 6611   1.154   4.096   3.887 -2.6965  1.5357 -0.5829
   74CHL1  H18C 6612   1.267   4.234   3.930 -0.1498 -1.0577  1.0904
   74CHL1   C12 6613   1.444   4.208   3.725  0.8393 -0.2049  0.5324
   74CHL1  H12A 6614   1.487   4.256   3.815 -0.2474  0.0529  0.9295
   74CHL1  H12B 6615   1.529   4.154   3.677  0.0206  0.3849 -1.7414
   74CHL1   C11 6616   1.374   4.302   3.628  0.1588  0.2064 -0.0124
   74CHL1  H11A 6617   1.299   4.358   3.687 -1.2384 -1.9128  0.3141
   74CHL1  H11B 6618   1.446   4.375   3.584  1.1274 -1.0523 -0.5969
   74CHL1    C9 6619   1.321   4.219   3.505  0.6091 -0.3213  0.3647
   74CHL1    H9 6620   1.413   4.171   3.464  1.9633 -0.1521  3.0075
   74CHL1   C10 6621   1.254   4.303   3.383 -0.0077 -0.0761 -0.2011
   74CHL1   C19 6622   1.154   4.400   3.454  0.0998 -0.2306 -0.1109
   74CHL1  H19A 6623   1.210   4.475   3.515  1.1784 -0.7668 -0.4063
   74CHL1  H19B 6624   1.086   4.453   3.384  1.2282 -0.0324 -1.0975
   74CHL1  H19C 6625   1.086   4.346   3.523 -0.3986  1.0824  0.4626
   74CHL1    C1 6626   1.375   4.386   3.323 -0.1663 -0.3230  0.8426
   74CHL1   H1A 6627   1.412   4.458   3.399 -2.6081 -0.9617  2.7595
   74CHL1   H1B 6628   1.456   4.313   3.301  0.8919  0.6499  1.4072
   74CHL1    C2 6629   1.335   4.453   3.189 -0.2287 -0.3254  0.1554
   74CHL1   H2A 6630   1.430   4.492   3.148  0.0034 -1.3010 -0.2579
   74CHL1   H2B 6631   1.265   4.536   3.217 -0.3297  0.2125 -1.5396
   74CHL1   C20 6632   1.439   4.025   4.006 -0.6227 -0.2477 -0.2568
   74CHL1   H20 6633   1.473   4.129   4.020  1.9538 -0.6252 -2.7274
   74CHL1   C21 6634   1.568   3.955   4.041 -0.3169 -0.8102  0.1865
   74CHL1  H21A 6635   1.549   3.848   4.061 -1.5277 -0.9289 -1.4037
   74CHL1  H21B 6636   1.607   3.998   4.136 -0.5112 -0.1225 -0.0373
   74CHL1  H21C 6637   1.642   3.967   3.959 -0.9025 -0.2140 -0.2629
   74CHL1   C22 6638   1.330   3.989   4.117 -0.3089 -0.7623 -0.5702
   74CHL1  H22A 6639   1.232   4.027   4.080 -1.3086 -3.9841 -1.5666
   74CHL1  H22B 6640   1.326   3.878   4.122  0.2282 -0.7483  0.3975
   74CHL1   C23 6641   1.353   4.051   4.253  0.1327 -0.6163 -0.3101
   74CHL1  H23A 6642   1.445   4.019   4.306  0.0168  1.9267  1.6330
   74CHL1  H23B 6643   1.366   4.160   4.238 -0.7518 -0.3556  0.6938
   74CHL1   C24 6644   1.242   4.025   4.351 -0.8115  0.3441  1.1625
   74CHL1  H24A 6645   1.145   4.062   4.310  0.2476  1.8005 -0.1341
   74CHL1  H24B 6646   1.248   3.914   4.344 -0.3768  0.4364 -0.1977
   74CHL1   C25 6647   1.254   4.074   4.496  0.0270 -0.0621 -0.3887
   74CHL1   H25 6648   1.249   4.185   4.487 -0.8975 -0.0326  0.3727
   74CHL1   C26 6649   1.148   4.026   4.592  0.4239 -0.5325  0.0567
   74CHL1  H26A 6650   1.045   4.030   4.549 -0.4811  1.2029  2.1700
   74CHL1  H26B 6651   1.184   3.926   4.623  4.2533  1.2752  2.1801
   74CHL1  H26C 6652   1.143   4.091   4.683  0.1852 -1.6964  0.9005
   74CHL1   C27 6653   1.396   4.046   4.550 -0.5682 -0.0291  0.5488
   74CHL1  H27A 6654   1.439   3.954   4.505 -2.2470 -0.3521 -0.4744
   74CHL1  H27B 6655   1.462   4.130   4.521  0.3145 -0.7126  0.5406
   74CHL1  H27C 6656   1.401   4.025   4.660  3.0096 -1.8624  0.1826
   75CHL1    C3 6657   3.187   3.923   3.159 -0.0666  0.3144 -0.2098
   75CHL1    H3 6658   3.077   3.934   3.148 -0.2189 -0.3040  0.6530
   75CHL1    O3 6659   3.242   3.959   3.038  0.7737  0.4127 -0.3228
   75CHL1   H3' 6660   3.333   3.931   3.038  1.1046  1.3789  1.1441
   75CHL1    C4 6661   3.247   4.016   3.264 -0.4431 -0.0054  0.6397
   75CHL1   H4A 6662   3.357   4.007   3.250 -0.5156  1.2607 -1.0429
   75CHL1   H4B 6663   3.222   4.121   3.237 -1.8730 -0.6556 -0.7478
   75CHL1    C5 6664   3.209   3.974   3.408 -0.0679 -0.2719  0.7076
   75CHL1    C6 6665   3.140   4.060   3.493  0.0658  0.3356 -0.9278
   75CHL1    H6 6666   3.119   4.163   3.460  0.9126  0.3175 -1.5507
   75CHL1    C7 6667   3.097   4.025   3.636  0.1150 -0.1186  0.3400
   75CHL1   H7A 6668   3.116   4.110   3.706  0.0537 -0.4191  0.7227
   75CHL1   H7B 6669   2.989   4.003   3.631 -0.2348  1.3015  1.0776
   75CHL1    C8 6670   3.177   3.899   3.680  0.0298 -0.3643  0.8616
   75CHL1    H8 6671   3.279   3.942   3.694  0.0821 -0.0161 -0.4664
   75CHL1   C14 6672   3.139   3.847   3.825  0.0791  0.3539  0.3323
   75CHL1   H14 6673   3.029   3.833   3.819 -0.1135  0.2441  3.1095
   75CHL1   C15 6674   3.145   3.938   3.939 -0.1874  0.3110  0.6907
   75CHL1  H15A 6675   3.247   3.981   3.949 -0.4256  0.9714  0.3949
   75CHL1  H15B 6676   3.061   4.011   3.942  0.9112  1.6073  0.9841
   75CHL1   C16 6677   3.127   3.846   4.054 -0.3527 -0.6721 -0.3396
   75CHL1  H16A 6678   3.208   3.842   4.130 -1.8827 -1.1538  1.3332
   75CHL1  H16B 6679   3.036   3.880   4.109  0.9509  0.9648  0.8888
   75CHL1   C17 6680   3.116   3.704   4.009  0.0258 -0.1405  0.6344
   75CHL1   H17 6681   3.009   3.682   3.987 -0.4806 -0.5030  3.0850
   75CHL1   C13 6682   3.176   3.710   3.866 -0.4493  0.3402  0.2301
   75CHL1   C18 6683   3.336   3.709   3.875  0.4685 -0.3697  0.0693
   75CHL1  H18A 6684   3.382   3.610   3.897  1.6355 -0.1039 -1.0297
   75CHL1  H18B 6685   3.370   3.740   3.774 -1.9936 -1.2546 -1.0980
   75CHL1  H18C 6686   3.373   3.770   3.960 -1.2456  0.3146  0.3625
   75CHL1   C12 6687   3.118   3.609   3.757 -0.3816 -0.6143 -0.0244
   75CHL1  H12A 6688   3.144   3.503   3.775  0.3568 -0.5773 -0.8174
   75CHL1  H12B 6689   3.008   3.623   3.765 -0.1682  0.3188  1.6123
   75CHL1   C11 6690   3.170   3.644   3.617 -0.5744 -0.0666 -0.0434
   75CHL1  H11A 6691   3.278   3.615   3.615 -0.7383 -1.0461  2.3790
   75CHL1  H11B 6692   3.121   3.581   3.540  0.3605  0.1919 -0.8764
   75CHL1    C9 6693   3.159   3.793   3.571  0.3244 -0.5013  0.0739
   75CHL1    H9 6694   3.049   3.802   3.559  0.3920  0.3098 -0.0027
   75CHL1   C10 6695   3.230   3.829   3.443 -0.2457  0.2685 -0.4055
   75CHL1   C19 6696   3.386   3.801   3.466  0.0598 -0.7664 -0.3596
   75CHL1  H19A 6697   3.423   3.839   3.563  2.6971 -2.8363 -0.4188
   75CHL1  H19B 6698   3.401   3.692   3.482 -0.7419 -0.7410  0.6645
   75CHL1  H19C 6699   3.450   3.836   3.382  1.6595 -0.1318  1.0807
   75CHL1    C1 6700   3.180   3.727   3.330  0.3485 -0.0535 -0.5585
   75CHL1   H1A 6701   3.232   3.631   3.349  2.2499  0.8629 -0.9242
   75CHL1   H1B 6702   3.070   3.710   3.329  0.2013  0.8600 -1.5947
   75CHL1    C2 6703   3.229   3.772   3.194 -0.2979 -0.6402  0.4678
   75CHL1   H2A 6704   3.188   3.706   3.114  1.0409 -1.7788  0.6916
   75CHL1   H2B 6705   3.338   3.753   3.204 -0.2670 -2.6465 -2.5432
   75CHL1   C20 6706   3.158   3.596   4.104  0.0970 -0.3921 -0.0420
   75CHL1   H20 6707   3.267   3.605   4.123  0.2851 -0.6660 -0.9561
   75CHL1   C21 6708   3.124   3.460   4.032  0.5137  0.0603  0.1075
   75CHL1  H21A 6709   3.139   3.386   4.114  1.6510  0.0430 -0.1021
   75CHL1  H21B 6710   3.199   3.435   3.954  0.1507 -2.1553  0.3986
   75CHL1  H21C 6711   3.022   3.467   3.987  0.4162  1.0074  0.4480
   75CHL1   C22 6712   3.085   3.606   4.236  0.0944 -0.2834 -0.2711
   75CHL1  H22A 6713   2.989   3.660   4.221  0.4078  0.7176  1.0512
   75CHL1  H22B 6714   3.058   3.502   4.264  0.9017 -0.2615  0.6821
   75CHL1   C23 6715   3.152   3.685   4.347  0.3297  0.2463  0.4542
   75CHL1  H23A 6716   3.260   3.659   4.338 -0.2387 -2.3015  0.1909
   75CHL1  H23B 6717   3.141   3.794   4.327 -0.8189 -0.3844 -2.8838
   75CHL1   C24 6718   3.105   3.636   4.489 -0.4200 -0.0811  0.5655
   75CHL1  H24A 6719   3.112   3.525   4.497  0.1451 -0.1213 -0.4062
   75CHL1  H24B 6720   3.167   3.683   4.568 -0.1577  2.3063 -0.9466
   75CHL1   C25 6721   2.953   3.664   4.519  0.3620  0.2688  0.0607
   75CHL1   H25 6722   2.899   3.609   4.439  1.8944 -0.5367 -0.4604
   75CHL1   C26 6723   2.906   3.594   4.647  0.3769 -0.0997 -0.6854
   75CHL1  H26A 6724   2.804   3.620   4.682  0.8995 -1.3298  2.0155
   75CHL1  H26B 6725   2.918   3.484   4.642  0.3321 -0.2486  1.3700
   75CHL1  H26C 6726   2.978   3.632   4.723 -2.4430  2.2199  1.0747
   75CHL1   C27 6727   2.921   3.816   4.518  1.2333  0.4521  0.1057
   75CHL1  H27A 6728   2.962   3.850   4.615  1.0584 -0.2112  0.4152
   75CHL1  H27B 6729   2.957   3.870   4.428  0.8807 -0.9886 -0.9371
   75CHL1  H27C 6730   2.813   3.842   4.516  0.6891 -1.4688  1.5901
   76CHL1    C3 6731   6.622   4.416   2.954 -0.0119  0.3734  0.5975
   76CHL1    H3 6732   6.646   4.324   3.011 -2.4991 -0.1919  0.8560
   76CHL1    O3 6733   6.629   4.397   2.809  0.0673  0.9020  0.3329
   76CHL1   H3' 6734   6.713   4.353   2.797 -0.3407 -0.9622  3.2485
   76CHL1    C4 6735   6.479   4.455   2.990  0.3674  0.2300  0.2205
   76CHL1   H4A 6736   6.444   4.543   2.931 -1.2206  1.4926  2.8402
   76CHL1   H4B 6737   6.422   4.363   2.966 -1.2582  0.9052  1.3809
   76CHL1    C5 6738   6.475   4.491   3.139 -0.2662  0.2734 -0.8858
   76CHL1    C6 6739   6.403   4.420   3.226  0.5459 -0.4922  0.1319
   76CHL1    H6 6740   6.338   4.342   3.184  0.7439  0.0948 -1.3205
   76CHL1    C7 6741   6.404   4.440   3.376  0.3912 -0.2091 -0.3767
   76CHL1   H7A 6742   6.303   4.411   3.413  0.4987 -1.6822 -1.1780
   76CHL1   H7B 6743   6.473   4.371   3.430 -1.6351 -0.6838  1.8320
   76CHL1    C8 6744   6.448   4.582   3.423  0.2226 -0.5629  0.0833
   76CHL1    H8 6745   6.375   4.660   3.391 -0.0767 -1.3810 -1.3237
   76CHL1   C14 6746   6.480   4.596   3.568  0.8721 -0.5561 -0.6783
   76CHL1   H14 6747   6.565   4.525   3.580 -1.1692 -2.7678  2.0751
   76CHL1   C15 6748   6.372   4.559   3.672 -0.3387  1.0004  0.2772
   76CHL1  H15A 6749   6.270   4.575   3.630  0.4777  0.4782 -2.0394
   76CHL1  H15B 6750   6.374   4.450   3.696 -2.4917  0.0017 -3.3503
   76CHL1   C16 6751   6.408   4.644   3.795 -0.4443  0.0299  0.0701
   76CHL1  H16A 6752   6.322   4.710   3.819  0.9222  1.4744  1.1725
   76CHL1  H16B 6753   6.425   4.585   3.887  0.2481  0.0781 -0.0217
   76CHL1   C17 6754   6.534   4.725   3.767 -0.1238 -0.1906 -0.5891
   76CHL1   H17 6755   6.613   4.653   3.797  0.0596 -0.7817 -2.3455
   76CHL1   C13 6756   6.534   4.732   3.615 -0.5322 -0.5277 -0.0080
   76CHL1   C18 6757   6.438   4.850   3.574  0.0002 -0.2001 -0.3757
   76CHL1  H18A 6758   6.483   4.952   3.581  1.5298 -0.6813 -2.2625
   76CHL1  H18B 6759   6.431   4.850   3.463 -0.9516  0.8246 -0.3351
   76CHL1  H18C 6760   6.336   4.833   3.613  0.1791 -4.0985 -1.2097
   76CHL1   C12 6761   6.675   4.737   3.552 -0.6990  1.0874  0.2316
   76CHL1  H12A 6762   6.730   4.827   3.585  0.0067 -0.0819  2.5032
   76CHL1  H12B 6763   6.740   4.656   3.592 -0.0598  0.5664 -1.7345
   76CHL1   C11 6764   6.670   4.732   3.397 -0.3448 -0.0689 -0.1761
   76CHL1  H11A 6765   6.641   4.835   3.367 -1.7030 -0.2744  0.3319
   76CHL1  H11B 6766   6.775   4.716   3.364  0.7404  1.2590  2.3790
   76CHL1    C9 6767   6.581   4.614   3.342  1.0871 -0.2467 -0.8945
   76CHL1    H9 6768   6.637   4.519   3.360 -1.5668 -1.9535 -1.0308
   76CHL1   C10 6769   6.566   4.602   3.188 -0.1404  0.1415 -0.3051
   76CHL1   C19 6770   6.506   4.732   3.137  0.3976 -0.7980  0.1285
   76CHL1  H19A 6771   6.417   4.763   3.195  1.0882 -0.0629  0.8111
   76CHL1  H19B 6772   6.582   4.811   3.149  0.3568 -0.9145  1.2252
   76CHL1  H19C 6773   6.487   4.733   3.027 -0.9524  1.0176  0.3424
   76CHL1    C1 6774   6.711   4.584   3.127  0.2802  0.2004  0.2535
   76CHL1   H1A 6775   6.772   4.675   3.140  1.0709 -0.0983 -1.1169
   76CHL1   H1B 6776   6.767   4.516   3.194  2.2759  0.9725 -0.5694
   76CHL1    C2 6777   6.712   4.538   2.985  0.1500 -0.2909 -0.5672
   76CHL1   H2A 6778   6.818   4.532   2.954 -0.1054  0.6042 -1.6781
   76CHL1   H2B 6779   6.676   4.622   2.921  3.1496  0.7556 -1.0257
   76CHL1   C20 6780   6.560   4.853   3.839  0.5073  0.5575  0.2453
   76CHL1   H20 6781   6.493   4.936   3.808  0.0970  0.9382  2.0104
   76CHL1   C21 6782   6.705   4.900   3.826  0.2255  0.1325 -0.0483
   76CHL1  H21A 6783   6.738   4.960   3.913 -0.5582 -0.4511  0.6679
   76CHL1  H21B 6784   6.706   4.967   3.738 -0.5566 -1.6418 -1.4854
   76CHL1  H21C 6785   6.771   4.811   3.816  1.4208  0.9994 -0.0401
   76CHL1   C22 6786   6.521   4.835   3.992 -0.7471 -0.9674 -0.0155
   76CHL1  H22A 6787   6.527   4.938   4.032  1.2855 -1.1562  0.2652
   76CHL1  H22B 6788   6.413   4.811   4.003 -1.1892  1.4390  1.4869
   76CHL1   C23 6789   6.607   4.733   4.070  0.7051  0.9339  1.2366
   76CHL1  H23A 6790   6.595   4.636   4.017  1.4905  1.7145 -0.4488
   76CHL1  H23B 6791   6.715   4.756   4.058  0.5021  0.6789 -1.9575
   76CHL1   C24 6792   6.558   4.714   4.212  0.0927 -0.2721 -0.4048
   76CHL1  H24A 6793   6.544   4.815   4.256 -0.0830 -0.0632 -0.9314
   76CHL1  H24B 6794   6.457   4.670   4.217 -0.9844  2.0876 -0.1614
   76CHL1   C25 6795   6.659   4.624   4.303 -0.3981 -0.4949 -0.3278
   76CHL1   H25 6796   6.761   4.660   4.279 -0.1221 -0.6877  0.5503
   76CHL1   C26 6797   6.635   4.657   4.456  0.1675 -0.5117 -0.5046
   76CHL1  H26A 6798   6.697   4.581   4.508 -1.1110 -0.9803  0.4059
   76CHL1  H26B 6799   6.679   4.758   4.469  0.2364 -0.5816 -0.1938
   76CHL1  H26C 6800   6.529   4.652   4.489  0.4433  0.5164  0.5984
   76CHL1   C27 6801   6.651   4.468   4.279 -0.7569  0.1890 -0.2381
   76CHL1  H27A 6802   6.732   4.410   4.329 -1.6132 -2.6352 -1.8728
   76CHL1  H27B 6803   6.555   4.434   4.324 -1.2699  0.4375 -1.1238
   76CHL1  H27C 6804   6.645   4.441   4.171 -2.6325  0.6787 -0.2930
   77SOPE     N 6805   4.249   5.388   7.564  0.4968  1.1240  0.5733
   77SOPE   HN1 6806   4.294   5.476   7.531 -1.0714  1.2223 -1.4992
   77SOPE   HN2 6807   4.263   5.385   7.667  2.6356  2.0260  0.3748
   77SOPE   HN3 6808   4.302   5.305   7.531  0.9265  0.6555  2.3535
   77SOPE   C12 6809   4.108   5.379   7.516 -0.5121 -0.0448  0.4045
   77SOPE  H12A 6810   4.053   5.474   7.534 -1.3178 -0.0944 -1.5291
   77SOPE  H12B 6811   4.055   5.302   7.576 -1.6571  0.8903  0.6254
   77SOPE   C11 6812   4.097   5.344   7.368 -0.1756 -0.3323  0.3640
   77SOPE  H11A 6813   4.143   5.424   7.306 -0.0206  0.2130  1.1722
   77SOPE  H11B 6814   3.990   5.333   7.338  0.3752 -0.7789 -1.5739
   77SOPE     P 6815   4.296   5.213   7.253 -0.2408  0.4636  0.0343
   77SOPE   O13 6816   4.361   5.081   7.252  0.0030 -0.2093  0.0913
   77SOPE   O14 6817   4.383   5.325   7.298  0.4940 -0.1404 -0.1017
   77SOPE   O12 6818   4.166   5.211   7.352  1.0555 -0.5136  0.3083
   77SOPE   O11 6819   4.237   5.249   7.104 -0.0810  0.3684 -0.8365
   77SOPE    C1 6820   4.106   5.218   7.059  0.3503  0.2588  0.7208
   77SOPE    HA 6821   4.051   5.314   7.045  1.5848  0.7439 -1.1967
   77SOPE    HB 6822   4.048   5.161   7.135 -2.2222  1.4579 -0.2386
   77SOPE    C2 6823   4.098   5.159   6.917  0.1652  0.6310  0.0000
   77SOPE    HS 6824   4.130   5.053   6.932 -3.2030 -0.6616 -0.9858
   77SOPE   O21 6825   4.178   5.235   6.832  1.0313  0.1173  0.5421
   77SOPE   C21 6826   4.305   5.213   6.826 -0.4848  0.6802  0.0732
   77SOPE   O22 6827   4.362   5.112   6.870 -0.5553 -0.3514  0.1845
   77SOPE   C22 6828   4.384   5.315   6.739  0.4882  0.4607  0.0160
   77SOPE   H2R 6829   4.492   5.317   6.763  0.7009 -2.1586 -0.4079
   77SOPE   H2S 6830   4.336   5.409   6.773 -0.9101 -0.4169  0.5958
   77SOPE    C3 6831   3.948   5.142   6.869  0.3804 -0.8114 -0.5037
   77SOPE    HX 6832   3.886   5.233   6.883  1.2365 -0.0591 -1.4777
   77SOPE    HY 6833   3.896   5.074   6.940 -0.8895  1.3011  0.7033
   77SOPE   O31 6834   3.944   5.085   6.736 -0.1735 -0.6188  0.0090
   77SOPE   C31 6835   3.931   5.188   6.648  0.1682 -0.0768  0.3453
   77SOPE   O32 6836   3.895   5.302   6.671  0.4365  0.2584  0.7326
   77SOPE   C32 6837   3.955   5.145   6.505  0.6323 -0.0223 -0.7601
   77SOPE   H2X 6838   3.930   5.038   6.493  0.8963 -0.3164  1.1040
   77SOPE   H2Y 6839   4.065   5.147   6.490  0.8859  2.0041  0.9726
   77SOPE   C23 6840   4.347   5.296   6.586  0.2060 -0.8535 -0.2938
   77SOPE   H3R 6841   4.386   5.390   6.541  0.7786  0.0938  2.0154
   77SOPE   H3S 6842   4.237   5.290   6.570 -0.2302  0.2484  1.8928
   77SOPE   C24 6843   4.409   5.171   6.524 -0.3784 -0.1613  0.4650
   77SOPE   H4R 6844   4.500   5.147   6.581  0.4093  2.0211  0.2382
   77SOPE   H4S 6845   4.336   5.088   6.532 -0.7926 -0.3103 -3.1622
   77SOPE   C25 6846   4.433   5.192   6.375 -1.0042 -0.4762 -0.1667
   77SOPE   H5R 6847   4.339   5.201   6.316  0.3068 -1.3163 -2.5227
   77SOPE   H5S 6848   4.495   5.282   6.355  0.4647 -1.6500 -1.1647
   77SOPE   C26 6849   4.502   5.063   6.321 -0.0778  0.0646 -0.3014
   77SOPE   H6R 6850   4.585   5.031   6.387  0.8290  2.8329  0.0503
   77SOPE   H6S 6851   4.417   4.991   6.317 -0.2512  0.3271 -2.0351
   77SOPE   C27 6852   4.561   5.085   6.182 -0.0305 -0.1535  0.2800
   77SOPE   H7R 6853   4.492   5.137   6.113  0.3654 -1.3469 -1.0751
   77SOPE   H7S 6854   4.648   5.153   6.193  1.2984 -1.3187 -2.2139
   77SOPE   C28 6855   4.623   4.962   6.125 -0.0296 -0.0069 -0.7621
   77SOPE   H8R 6856   4.693   4.933   6.207  1.6262  2.8310 -1.0202
   77SOPE   H8S 6857   4.545   4.883   6.119 -0.4802  0.2435  1.0439
   77SOPE   C29 6858   4.699   4.982   5.997 -0.7528 -0.4784  0.4595
   77SOPE   H91 6859   4.800   5.024   6.001 -0.4793 -0.2133 -4.0796
   77SOPE  C210 6860   4.651   4.972   5.871 -0.4007  0.3948  0.5847
   77SOPE  H101 6861   4.714   4.973   5.781  0.2574 -0.3456  1.0253
   77SOPE  C211 6862   4.511   4.913   5.849 -0.3023 -0.0561  0.3749
   77SOPE  H11R 6863   4.448   4.941   5.936  1.5409  3.0939  0.8624
   77SOPE  H11S 6864   4.514   4.803   5.834  0.3303  0.0695 -0.4892
   77SOPE  C212 6865   4.438   4.978   5.729 -0.2049  0.1649 -0.3471
   77SOPE  H12R 6866   4.356   4.911   5.696  0.7617 -0.4756 -1.5146
   77SOPE  H12S 6867   4.511   4.978   5.645 -0.6530  0.5825 -0.7384
   77SOPE  C213 6868   4.393   5.128   5.748 -0.1001  0.2640  0.0584
   77SOPE  H13R 6869   4.369   5.163   5.645  2.5840  0.7577 -0.4831
   77SOPE  H13S 6870   4.478   5.180   5.795 -0.5426  3.0804 -2.0064
   77SOPE  C214 6871   4.266   5.145   5.820 -0.1928 -0.1207 -0.1416
   77SOPE  H14R 6872   4.277   5.134   5.930 -1.6251  0.3091  0.0650
   77SOPE  H14S 6873   4.194   5.063   5.797  0.9544 -1.6238  1.4081
   77SOPE  C215 6874   4.193   5.274   5.787 -0.0726  0.3760  0.0684
   77SOPE  H15R 6875   4.184   5.288   5.678  1.7358  1.9582  0.0708
   77SOPE  H15S 6876   4.248   5.368   5.810  0.4987  0.1753 -0.4808
   77SOPE  C216 6877   4.059   5.293   5.861 -0.3102 -0.5036  0.1981
   77SOPE  H16R 6878   3.992   5.214   5.819  1.2810 -1.4622 -0.6477
   77SOPE  H16S 6879   4.023   5.394   5.832 -1.5284 -0.2803  2.3184
   77SOPE  C217 6880   4.066   5.270   6.013  0.9504 -0.2793  0.2467
   77SOPE  H17R 6881   4.077   5.168   6.056 -2.1546 -0.8571 -0.1031
   77SOPE  H17S 6882   3.970   5.303   6.058  1.6495  0.5666  1.1749
   77SOPE  C218 6883   4.175   5.357   6.084 -0.0877 -1.1591 -0.4631
   77SOPE  H18R 6884   4.275   5.317   6.055  0.8376  0.1530  0.8181
   77SOPE  H18S 6885   4.149   5.367   6.191 -0.7873 -2.6607 -0.4604
   77SOPE  H18T 6886   4.179   5.461   6.045  0.8421 -0.2585  1.8709
   77SOPE   C33 6887   3.872   5.219   6.392 -0.7254 -0.5263  0.0235
   77SOPE   H3X 6888   3.942   5.298   6.357  1.4417 -1.2616  2.4042
   77SOPE   H3Y 6889   3.778   5.258   6.437 -0.6513 -1.4535  1.0185
   77SOPE   C34 6890   3.815   5.131   6.278 -0.0336  0.4418  0.3992
   77SOPE   H4X 6891   3.762   5.044   6.322 -1.2422  1.6032  1.3333
   77SOPE   H4Y 6892   3.897   5.106   6.208  0.0383  1.2547  0.1832
   77SOPE   C35 6893   3.711   5.201   6.186 -0.0364 -0.1785  0.6942
   77SOPE   H5X 6894   3.752   5.301   6.157 -2.4101  0.2718 -1.4437
   77SOPE   H5Y 6895   3.616   5.211   6.242  1.7609  2.2573  3.6339
   77SOPE   C36 6896   3.694   5.118   6.060 -0.7628  0.5243 -0.3448
   77SOPE   H6X 6897   3.652   5.016   6.077  0.0971  0.3152  0.6235
   77SOPE   H6Y 6898   3.787   5.094   6.004 -1.1920 -0.5808 -0.6042
   77SOPE   C37 6899   3.624   5.193   5.951  0.4603  0.0652 -0.1543
   77SOPE   H7X 6900   3.659   5.298   5.946 -0.1690  0.2637 -0.4542
   77SOPE   H7Y 6901   3.514   5.193   5.968  0.3262  2.4833 -0.7103
   77SOPE   C38 6902   3.638   5.129   5.818 -0.4064  0.2698  1.1583
   77SOPE   H8X 6903   3.598   5.026   5.825 -0.3370 -0.0224 -1.6705
   77SOPE   H8Y 6904   3.747   5.123   5.795 -0.8294  0.8357 -1.3660
   77SOPE   C39 6905   3.557   5.204   5.710 -0.7373 -0.2055  0.0893
   77SOPE   H9X 6906   3.580   5.312   5.718  0.6421 -0.3318 -1.5413
   77SOPE   H9Y 6907   3.450   5.184   5.729 -0.8573  1.1132  0.9300
   77SOPE  C310 6908   3.588   5.158   5.563 -0.0362 -0.0138  0.0429
   77SOPE  H10X 6909   3.635   5.059   5.554  1.6243  0.8486 -1.3393
   77SOPE  H10Y 6910   3.638   5.239   5.506  0.4647  0.2012  0.7723
   77SOPE  C311 6911   3.454   5.146   5.487 -0.1452  0.0081 -0.6249
   77SOPE  H11X 6912   3.408   5.245   5.466  0.4202 -0.0973 -2.5608
   77SOPE  H11Y 6913   3.384   5.089   5.552 -0.2139 -0.1615 -0.8457
   77SOPE  C312 6914   3.470   5.086   5.346  0.3266 -0.1565 -0.0998
   77SOPE  H12X 6915   3.511   4.983   5.354  0.3154 -0.1295  0.2886
   77SOPE  H12Y 6916   3.546   5.151   5.297  0.0456 -0.8814 -1.5578
   77SOPE  C313 6917   3.342   5.094   5.256 -0.2463 -0.1526  0.3241
   77SOPE  H13X 6918   3.317   5.202   5.258 -0.0515 -0.1098  0.4433
   77SOPE  H13Y 6919   3.262   5.023   5.288  1.7906 -3.6433 -1.6702
   77SOPE  C314 6920   3.384   5.075   5.114  0.4065 -0.1424  0.2010
   77SOPE  H14X 6921   3.384   4.968   5.085  0.0508  0.1068 -0.7257
   77SOPE  H14Y 6922   3.491   5.103   5.103  0.8420 -2.6650 -3.6937
   77SOPE  C315 6923   3.298   5.141   5.014  0.0925  1.2149  0.2329
   77SOPE  H15X 6924   3.296   5.248   5.043 -0.9447  2.0433 -2.5262
   77SOPE  H15Y 6925   3.200   5.091   4.997  1.1232 -0.0340 -2.8540
   77SOPE  C316 6926   3.351   5.137   4.867 -0.4187 -0.1075  0.3419
   77SOPE  H16X 6927   3.433   5.212   4.867  0.1757 -0.7458  0.3488
   77SOPE  H16Y 6928   3.274   5.179   4.800 -1.7898 -1.5672  0.9527
   77SOPE  C317 6929   3.417   5.006   4.805  0.4457 -0.1390 -0.0230
   77SOPE  H17X 6930   3.428   5.032   4.698  1.3928  0.8645  0.2949
   77SOPE  H17Y 6931   3.340   4.926   4.809 -0.3262  0.3786 -2.8079
   77SOPE  C318 6932   3.555   4.955   4.858  0.5843  0.7270  1.0064
   77SOPE  H18X 6933   3.545   4.931   4.966  0.1197 -3.4096  0.1826
   77SOPE  H18Y 6934   3.632   5.034   4.841  0.0467  0.9333 -0.6246
   77SOPE  H18Z 6935   3.588   4.867   4.800  0.3236  1.6122 -0.5393
   78SOPE     N 6936   5.216   5.132   7.018  0.3476  0.6508  0.4085
   78SOPE   HN1 6937   5.310   5.111   7.056 -0.4320 -0.2918  1.9634
   78SOPE   HN2 6938   5.181   5.212   7.075  1.1367  1.1459  0.2077
   78SOPE   HN3 6939   5.160   5.049   7.049  1.1212 -0.5296 -1.2352
   78SOPE   C12 6940   5.215   5.165   6.872 -0.0658 -0.6021  0.4174
   78SOPE  H12A 6941   5.160   5.261   6.866  1.1890  0.1457  0.5837
   78SOPE  H12B 6942   5.168   5.087   6.808 -0.8709 -0.5383  0.9086
   78SOPE   C11 6943   5.363   5.179   6.828 -0.0680 -0.1489 -0.1361
   78SOPE  H11A 6944   5.404   5.260   6.892  0.6083  0.0056 -0.7641
   78SOPE  H11B 6945   5.365   5.211   6.722 -1.8266 -0.0439 -0.1681
   78SOPE     P 6946   5.581   5.037   6.873 -0.0533  0.0331 -0.0326
   78SOPE   O13 6947   5.602   4.888   6.876 -0.1728  0.3271  0.1524
   78SOPE   O14 6948   5.616   5.115   7.002  0.2485  0.0665  0.2548
   78SOPE   O12 6949   5.431   5.052   6.850  0.1681  0.2735  0.2433
   78SOPE   O11 6950   5.649   5.107   6.753 -0.3682  0.1035 -0.4753
   78SOPE    C1 6951   5.788   5.085   6.716 -0.8204  0.4274  0.7814
   78SOPE    HA 6952   5.815   4.978   6.731 -0.0014  0.3850 -0.7873
   78SOPE    HB 6953   5.865   5.151   6.763 -1.0306  0.4011  1.1708
   78SOPE    C2 6954   5.802   5.100   6.559 -0.4434 -0.4624  0.1976
   78SOPE    HS 6955   5.776   5.204   6.530  0.7237 -0.7958 -2.3728
   78SOPE   O21 6956   5.710   5.004   6.503  0.9349 -0.4409 -0.2898
   78SOPE   C21 6957   5.604   5.053   6.450  0.4759  0.8404  0.3717
   78SOPE   O22 6958   5.563   5.166   6.450  0.2063 -0.2871  0.2785
   78SOPE   C22 6959   5.522   4.941   6.397 -0.2983  1.1264  0.1059
   78SOPE   H2R 6960   5.424   4.937   6.448 -1.2128 -0.3546 -1.6756
   78SOPE   H2S 6961   5.569   4.842   6.412  1.4175  2.1020  1.6165
   78SOPE    C3 6962   5.940   5.073   6.494  0.2234  0.4661  0.0670
   78SOPE    HX 6963   5.991   4.984   6.535  3.1075  2.1949  0.5414
   78SOPE    HY 6964   6.007   5.157   6.522  0.2987  0.0495  1.1835
   78SOPE   O31 6965   5.932   5.081   6.350 -0.2108 -0.1383 -0.1350
   78SOPE   C31 6966   6.013   5.006   6.274 -0.8639  0.3718 -0.5661
   78SOPE   O32 6967   6.104   4.938   6.321 -0.5438 -0.7411  0.4778
   78SOPE   C32 6968   5.977   5.019   6.131  0.1835 -0.1452  0.4977
   78SOPE   H2X 6969   5.892   5.086   6.104  0.4791 -0.8710 -2.6895
   78SOPE   H2Y 6970   5.939   4.918   6.103 -0.1008  0.2829 -0.7453
   78SOPE   C23 6971   5.494   4.965   6.245  0.2606 -0.2244  0.7536
   78SOPE   H3R 6972   5.470   5.072   6.229 -0.1476  0.2138  3.6356
   78SOPE   H3S 6973   5.397   4.916   6.222 -0.3208  0.5835  1.4314
   78SOPE   C24 6974   5.594   4.917   6.147  0.2154 -0.6235 -0.1077
   78SOPE   H4R 6975   5.694   4.949   6.185 -0.1840 -0.3334  0.7065
   78SOPE   H4S 6976   5.599   4.807   6.130  2.4174 -0.6873  0.5944
   78SOPE   C25 6977   5.571   4.994   6.018  0.2486  0.6680 -0.1711
   78SOPE   H5R 6978   5.466   4.980   5.985  0.1492 -2.8033  1.1648
   78SOPE   H5S 6979   5.588   5.103   6.036 -0.3428  1.3694 -3.3019
   78SOPE   C26 6980   5.664   4.966   5.908  0.8821 -0.6863  0.6132
   78SOPE   H6R 6981   5.642   5.037   5.825 -1.5662 -1.3468  0.6469
   78SOPE   H6S 6982   5.769   4.992   5.935  1.3835 -2.2604  0.2531
   78SOPE   C27 6983   5.671   4.822   5.865 -0.3089 -0.0023  0.0296
   78SOPE   H7R 6984   5.711   4.766   5.952  0.9651 -1.2314 -1.2865
   78SOPE   H7S 6985   5.568   4.785   5.844  1.2196 -4.2879 -1.0973
   78SOPE   C28 6986   5.755   4.791   5.743 -0.4224  0.2912  0.2659
   78SOPE   H8R 6987   5.857   4.825   5.771 -0.2023  1.7740 -2.0565
   78SOPE   H8S 6988   5.754   4.681   5.733 -0.5009  0.0257  2.7905
   78SOPE   C29 6989   5.722   4.863   5.609  0.2012  0.4144 -0.9789
   78SOPE   H91 6990   5.755   4.966   5.592 -0.2323  0.9414  1.0718
   78SOPE  C210 6991   5.638   4.819   5.519  0.9723  0.2321  0.3251
   78SOPE  H101 6992   5.638   4.879   5.427  1.6185 -1.2120 -0.6598
   78SOPE  C211 6993   5.563   4.688   5.506 -0.0731  0.1481 -0.2593
   78SOPE  H11R 6994   5.572   4.616   5.591 -1.6681  0.9522  0.6472
   78SOPE  H11S 6995   5.613   4.635   5.422  1.5075  1.0161  0.0940
   78SOPE  C212 6996   5.411   4.704   5.490  0.3205 -0.3460 -0.0655
   78SOPE  H12R 6997   5.378   4.773   5.571 -0.4876 -1.8107  0.9003
   78SOPE  H12S 6998   5.357   4.609   5.512 -0.9070  0.5756  1.0827
   78SOPE  C213 6999   5.370   4.760   5.362  0.5743  0.0278  0.3269
   78SOPE  H13R 7000   5.442   4.840   5.335  1.3542 -0.4426  0.9905
   78SOPE  H13S 7001   5.266   4.800   5.362  0.5498 -0.0235  1.0647
   78SOPE  C214 7002   5.382   4.650   5.256  0.1156  0.4270  0.4771
   78SOPE  H14R 7003   5.296   4.582   5.277 -0.6142  1.4915  1.0323
   78SOPE  H14S 7004   5.477   4.595   5.270  1.4437  2.3196 -0.6303
   78SOPE  C215 7005   5.359   4.704   5.115 -0.4524  0.1353  0.7274
   78SOPE  H15R 7006   5.439   4.776   5.091  1.2680 -1.7038  0.6749
   78SOPE  H15S 7007   5.260   4.752   5.104  0.5998  2.2610  0.0716
   78SOPE  C216 7008   5.382   4.599   5.003  0.1229  0.2123 -0.4340
   78SOPE  H16R 7009   5.325   4.507   5.028 -0.1649 -0.3836 -2.9876
   78SOPE  H16S 7010   5.491   4.576   5.003  0.6062  2.0690  2.1482
   78SOPE  C217 7011   5.351   4.652   4.862 -0.1963 -0.6081 -0.4870
   78SOPE  H17R 7012   5.428   4.728   4.836  1.2952 -1.4822  1.1758
   78SOPE  H17S 7013   5.250   4.699   4.865 -0.1893 -0.6223  0.5420
   78SOPE  C218 7014   5.370   4.540   4.756  0.2278  0.4662  0.3558
   78SOPE  H18R 7015   5.476   4.512   4.739  0.1905  0.5759 -0.0662
   78SOPE  H18S 7016   5.313   4.576   4.667 -4.5885 -2.0259  2.0211
   78SOPE  H18T 7017   5.315   4.449   4.788  0.7208  0.3858  0.9701
   78SOPE   C33 7018   6.100   5.050   6.046  0.1780 -0.3358  0.6907
   78SOPE   H3X 7019   6.194   5.010   6.090  0.0280  0.6348  1.9537
   78SOPE   H3Y 7020   6.113   5.161   6.043  1.3363 -0.4857 -0.8940
   78SOPE   C34 7021   6.095   4.995   5.907 -0.5911 -0.1283  0.0425
   78SOPE   H4X 7022   5.994   4.997   5.860 -0.0780  1.4482 -1.0871
   78SOPE   H4Y 7023   6.112   4.885   5.909  1.1206  0.1108  0.4208
   78SOPE   C35 7024   6.201   5.070   5.819  0.6264  0.1485 -0.4025
   78SOPE   H5X 7025   6.284   5.100   5.887  0.5188  1.0616 -0.6603
   78SOPE   H5Y 7026   6.153   5.164   5.783  0.8144  0.5613  0.4083
   78SOPE   C36 7027   6.252   4.984   5.705  0.0522  0.0436 -0.1375
   78SOPE   H6X 7028   6.291   4.886   5.741 -0.4001  0.5530  1.9135
   78SOPE   H6Y 7029   6.345   5.023   5.660 -0.5127  1.4892 -0.1316
   78SOPE   C37 7030   6.154   4.969   5.588  0.8386 -0.7580 -0.7137
   78SOPE   H7X 7031   6.148   5.064   5.531  0.0945 -0.4813 -0.1783
   78SOPE   H7Y 7032   6.052   4.964   5.631  0.4253  0.0164 -1.5709
   78SOPE   C38 7033   6.185   4.864   5.486  0.4398 -0.0079 -0.0225
   78SOPE   H8X 7034   6.110   4.871   5.404  1.5996 -0.2252 -1.1341
   78SOPE   H8Y 7035   6.169   4.760   5.520  1.9474  0.2282  1.5701
   78SOPE   C39 7036   6.322   4.871   5.418 -0.0994  0.1732  0.1863
   78SOPE   H9X 7037   6.403   4.904   5.486  0.3001  1.4722 -0.8623
   78SOPE   H9Y 7038   6.315   4.957   5.347 -2.9720 -0.2268 -0.1093
   78SOPE  C310 7039   6.353   4.736   5.344  0.3706 -0.1957 -0.6157
   78SOPE  H10X 7040   6.281   4.663   5.387  2.1024  0.0017  2.8945
   78SOPE  H10Y 7041   6.451   4.700   5.380 -1.4286 -2.2113  2.8734
   78SOPE  C311 7042   6.328   4.743   5.195  0.0281  0.3580 -0.6596
   78SOPE  H11X 7043   6.383   4.835   5.165 -0.8652  0.8191 -0.9172
   78SOPE  H11Y 7044   6.220   4.742   5.168 -1.1109  0.2729  3.2232
   78SOPE  C312 7045   6.390   4.616   5.131  0.3811  0.2422 -0.0700
   78SOPE  H12X 7046   6.330   4.525   5.152  2.1677 -0.6003  1.8349
   78SOPE  H12Y 7047   6.488   4.591   5.178  0.3178  0.7698  0.3539
   78SOPE  C313 7048   6.411   4.636   4.983  0.8561 -0.4702  0.2433
   78SOPE  H13X 7049   6.483   4.719   4.963  3.6505 -2.4362  1.4218
   78SOPE  H13Y 7050   6.312   4.669   4.946 -0.1474 -3.0670  0.4508
   78SOPE  C314 7051   6.453   4.505   4.907  0.5979  0.1050 -0.0120
   78SOPE  H14X 7052   6.385   4.420   4.928 -1.1870  0.8591 -2.3460
   78SOPE  H14Y 7053   6.561   4.491   4.931  0.6562 -0.1377 -0.4050
   78SOPE  C315 7054   6.441   4.527   4.757 -0.3671 -0.4664  0.1170
   78SOPE  H15X 7055   6.496   4.620   4.731 -1.1917 -0.0910 -0.3510
   78SOPE  H15Y 7056   6.343   4.571   4.727  0.4363  0.8280 -0.7215
   78SOPE  C316 7057   6.474   4.403   4.674  0.3984 -1.2345 -0.4218
   78SOPE  H16X 7058   6.491   4.425   4.567  0.8332  0.2940 -0.0628
   78SOPE  H16Y 7059   6.397   4.325   4.691  0.3835 -1.0691  0.3347
   78SOPE  C317 7060   6.606   4.334   4.711  1.1388  0.5364 -0.3568
   78SOPE  H17X 7061   6.602   4.290   4.813  1.3842 -2.8632 -1.6846
   78SOPE  H17Y 7062   6.691   4.405   4.709  1.4233  0.5225  3.3459
   78SOPE  C318 7063   6.638   4.225   4.609  0.0052 -0.3598  0.2344
   78SOPE  H18X 7064   6.542   4.179   4.578 -0.3724 -0.6379  1.7016
   78SOPE  H18Y 7065   6.692   4.135   4.647  0.8448  0.2191  0.4446
   78SOPE  H18Z 7066   6.683   4.277   4.522  1.0870  1.3507  1.7395
   79SOPE     N 7067   5.731   0.860   6.734  0.4172 -0.3573 -0.4068
   79SOPE   HN1 7068   5.639   0.859   6.782  1.3817  1.3768  1.6783
   79SOPE   HN2 7069   5.779   0.768   6.728  0.6197 -0.2232 -0.9736
   79SOPE   HN3 7070   5.791   0.919   6.796  1.9346 -0.4120 -1.7405
   79SOPE   C12 7071   5.742   0.936   6.600  0.2378  0.4446 -0.3465
   79SOPE  H12A 7072   5.678   0.878   6.530  3.5395 -3.5899 -0.3938
   79SOPE  H12B 7073   5.851   0.929   6.580  0.1168 -1.9939 -0.4563
   79SOPE   C11 7074   5.689   1.082   6.616  0.1253 -0.5293 -0.1820
   79SOPE  H11A 7075   5.580   1.092   6.637  0.5310  1.0542  1.3970
   79SOPE  H11B 7076   5.712   1.124   6.516  2.4344  1.3357  1.0463
   79SOPE     P 7077   5.730   1.305   6.738  0.2098  0.0491 -0.0778
   79SOPE   O13 7078   5.834   1.381   6.809  0.6154  0.2359  0.2097
   79SOPE   O14 7079   5.594   1.312   6.790  0.4040  0.0916 -0.6260
   79SOPE   O12 7080   5.777   1.151   6.711  0.4579 -0.0897  0.7339
   79SOPE   O11 7081   5.728   1.369   6.592 -0.1108  0.5037  0.4782
   79SOPE    C1 7082   5.845   1.374   6.502  0.5110  0.0575 -0.0485
   79SOPE    HA 7083   5.863   1.275   6.455 -1.5801 -0.6909  0.6153
   79SOPE    HB 7084   5.935   1.409   6.558  2.5257 -2.8475 -1.2050
   79SOPE    C2 7085   5.799   1.454   6.379 -0.4126  0.3477  1.0444
   79SOPE    HS 7086   5.745   1.548   6.402 -3.8073 -0.5179 -2.4356
   79SOPE   O21 7087   5.711   1.372   6.312 -0.3997  0.6275 -0.2261
   79SOPE   C21 7088   5.586   1.372   6.346  0.2902 -0.5140 -0.7762
   79SOPE   O22 7089   5.536   1.455   6.427 -0.1561  0.6591  0.0051
   79SOPE   C22 7090   5.511   1.261   6.269  0.0462  0.6432  0.4336
   79SOPE   H2R 7091   5.502   1.173   6.335  1.3869  0.4608  0.4076
   79SOPE   H2S 7092   5.578   1.220   6.190 -0.8461 -3.7108  1.6833
   79SOPE    C3 7093   5.926   1.485   6.291 -0.1202  0.6885 -0.2467
   79SOPE    HX 7094   5.985   1.395   6.264 -2.2255 -0.2285 -2.1855
   79SOPE    HY 7095   5.984   1.559   6.350 -1.9845  0.2420  2.3775
   79SOPE   O31 7096   5.877   1.538   6.163  0.0640  0.3117  1.1127
   79SOPE   C31 7097   5.854   1.665   6.161  0.4682 -0.3303  0.1876
   79SOPE   O32 7098   5.874   1.743   6.254 -0.2859 -0.1674  0.4766
   79SOPE   C32 7099   5.789   1.704   6.031  0.9933 -0.0622  0.9526
   79SOPE   H2X 7100   5.689   1.657   6.040  1.6885 -2.5901 -2.5350
   79SOPE   H2Y 7101   5.847   1.658   5.949  0.2499 -0.6936  0.7715
   79SOPE   C23 7102   5.379   1.307   6.206 -0.0647 -0.1615 -0.1263
   79SOPE   H3R 7103   5.319   1.374   6.272  0.0090 -1.2638  1.0932
   79SOPE   H3S 7104   5.323   1.214   6.186 -1.3047  0.3237  0.9746
   79SOPE   C24 7105   5.403   1.377   6.075 -0.0008  0.4374  0.2551
   79SOPE   H4R 7106   5.482   1.452   6.096  0.7899 -0.4160  0.4016
   79SOPE   H4S 7107   5.453   1.302   6.010 -1.7797  0.2882 -1.0043
   79SOPE   C25 7108   5.278   1.423   5.998 -0.4246  0.2743 -0.0213
   79SOPE   H5R 7109   5.225   1.333   5.961 -0.3478  0.6526 -1.0772
   79SOPE   H5S 7110   5.204   1.474   6.063  0.4737  0.2743  1.0264
   79SOPE   C26 7111   5.302   1.516   5.890  0.0339 -0.3359  0.4712
   79SOPE   H6R 7112   5.200   1.548   5.860 -0.9701 -3.4519  0.1951
   79SOPE   H6S 7113   5.359   1.605   5.924 -0.2383  0.1372 -0.2760
   79SOPE   C27 7114   5.379   1.469   5.766 -0.3650 -0.0914 -0.4248
   79SOPE   H7R 7115   5.409   1.565   5.719  0.3087 -0.6887 -1.2625
   79SOPE   H7S 7116   5.478   1.427   5.795 -0.2746  1.7849  2.3331
   79SOPE   C28 7117   5.301   1.388   5.668  0.2928 -0.4786 -0.4212
   79SOPE   H8R 7118   5.225   1.332   5.727 -2.8451  2.3832 -1.4174
   79SOPE   H8S 7119   5.234   1.451   5.606  2.4627  0.1219 -2.2640
   79SOPE   C29 7120   5.391   1.296   5.586  0.1193 -0.3351  0.0515
   79SOPE   H91 7121   5.452   1.222   5.639 -1.4855 -1.5098  0.3131
   79SOPE  C210 7122   5.428   1.314   5.458  0.6914 -0.4989  0.9815
   79SOPE  H101 7123   5.495   1.240   5.413  1.1556  0.1385  0.6265
   79SOPE  C211 7124   5.383   1.414   5.366 -0.1305 -0.7957 -0.4624
   79SOPE  H11R 7125   5.414   1.515   5.398 -2.6040  0.1989 -0.9660
   79SOPE  H11S 7126   5.273   1.419   5.351  0.0718  0.1074 -1.8652
   79SOPE  C212 7127   5.439   1.407   5.214  0.4120 -0.5554 -0.0509
   79SOPE  H12R 7128   5.389   1.490   5.159 -0.5442  0.5089  2.2828
   79SOPE  H12S 7129   5.405   1.306   5.182 -0.6568 -0.8820  1.9413
   79SOPE  C213 7130   5.590   1.429   5.209 -0.0449 -0.2411  0.0339
   79SOPE  H13R 7131   5.613   1.431   5.100  0.5160 -3.0217  0.0232
   79SOPE  H13S 7132   5.646   1.341   5.246 -0.4765  0.0709  1.4785
   79SOPE  C214 7133   5.646   1.548   5.284 -0.7625  0.8407  0.0072
   79SOPE  H14R 7134   5.619   1.535   5.391 -1.4770 -0.0224 -0.2629
   79SOPE  H14S 7135   5.606   1.644   5.245 -1.7473 -0.3905 -2.2290
   79SOPE  C215 7136   5.792   1.544   5.272  0.7005 -1.1961  0.8548
   79SOPE  H15R 7137   5.830   1.557   5.168 -1.6574 -0.2092  0.0537
   79SOPE  H15S 7138   5.829   1.446   5.309  1.0754 -0.4572  2.5052
   79SOPE  C216 7139   5.872   1.648   5.351 -0.3028  0.3014  1.0680
   79SOPE  H16R 7140   5.836   1.752   5.335  0.7959  0.4363 -0.8052
   79SOPE  H16S 7141   5.980   1.651   5.325 -0.4950  0.5303  0.2617
   79SOPE  C217 7142   5.860   1.629   5.499  0.0016  0.5438 -0.2476
   79SOPE  H17R 7143   5.896   1.529   5.529  3.6893  1.8312  0.0731
   79SOPE  H17S 7144   5.756   1.643   5.535  0.1596 -1.0359  0.9262
   79SOPE  C218 7145   5.953   1.723   5.585  0.1432  0.5205 -0.1067
   79SOPE  H18R 7146   5.933   1.832   5.573 -0.3377  0.3287 -1.1552
   79SOPE  H18S 7147   6.055   1.696   5.551 -0.5491  0.4846 -2.3068
   79SOPE  H18T 7148   5.943   1.693   5.692  0.8397 -1.2398 -0.5097
   79SOPE   C33 7149   5.781   1.855   5.999 -0.2233  0.1451 -0.6852
   79SOPE   H3X 7150   5.883   1.898   6.003  0.8180 -2.1334 -0.6895
   79SOPE   H3Y 7151   5.714   1.912   6.066  2.2347 -0.0542  2.1690
   79SOPE   C34 7152   5.723   1.877   5.856 -0.8496  0.3416 -0.1890
   79SOPE   H4X 7153   5.781   1.804   5.796 -0.6942  1.2722 -1.1938
   79SOPE   H4Y 7154   5.760   1.978   5.829  2.0136 -0.8896 -1.2766
   79SOPE   C35 7155   5.571   1.866   5.844 -0.6729 -0.1960  0.2949
   79SOPE   H5X 7156   5.524   1.875   5.945  0.2274  0.8601  0.6433
   79SOPE   H5Y 7157   5.539   1.762   5.822  0.5774 -0.5590  0.1582
   79SOPE   C36 7158   5.505   1.963   5.744 -0.5277  0.3118 -0.1870
   79SOPE   H6X 7159   5.505   2.070   5.772 -1.7847  0.7374 -1.6728
   79SOPE   H6Y 7160   5.397   1.948   5.724 -0.7231  0.3588  0.7949
   79SOPE   C37 7161   5.578   1.961   5.610 -0.3089  0.2968 -0.0256
   79SOPE   H7X 7162   5.594   1.856   5.579  1.2941  0.5364 -0.0970
   79SOPE   H7Y 7163   5.677   2.012   5.616  0.6189 -1.4512 -0.0296
   79SOPE   C38 7164   5.492   2.030   5.506 -0.1224 -0.0023  0.2074
   79SOPE   H8X 7165   5.466   2.136   5.530 -0.7184 -0.2387  0.6177
   79SOPE   H8Y 7166   5.404   1.963   5.505  1.6860 -2.5372  1.6599
   79SOPE   C39 7167   5.568   2.038   5.371 -0.3376  0.9319  0.4598
   79SOPE   H9X 7168   5.630   1.948   5.351 -0.9954  0.7163 -0.7098
   79SOPE   H9Y 7169   5.639   2.122   5.362  1.9641 -1.0295 -0.9078
   79SOPE  C310 7170   5.466   2.045   5.253 -0.5411  0.0719  0.7403
   79SOPE  H10X 7171   5.528   2.069   5.164  1.7592  0.7565  2.4357
   79SOPE  H10Y 7172   5.400   2.135   5.261 -1.4483 -0.3958 -1.0131
   79SOPE  C311 7173   5.390   1.920   5.209 -0.5863 -0.5295 -0.3187
   79SOPE  H11X 7174   5.330   1.868   5.287  0.9849 -3.0817 -0.7145
   79SOPE  H11Y 7175   5.463   1.842   5.180  0.4419  0.4217 -0.3490
   79SOPE  C312 7176   5.293   1.942   5.093  0.8157 -0.2568 -0.1688
   79SOPE  H12X 7177   5.344   1.988   5.006  0.5654 -1.9274 -1.2502
   79SOPE  H12Y 7178   5.223   2.020   5.129  1.1608  0.7418 -1.5623
   79SOPE  C313 7179   5.201   1.828   5.037  1.0430 -0.0291 -0.7153
   79SOPE  H13X 7180   5.126   1.880   4.973 -0.4124  0.8048  1.5714
   79SOPE  H13Y 7181   5.144   1.796   5.126  0.1682  2.5780 -0.2490
   79SOPE  C314 7182   5.284   1.719   4.971  0.6893  0.1964 -0.1578
   79SOPE  H14X 7183   5.375   1.700   5.032 -1.2170 -1.7621  2.2620
   79SOPE  H14Y 7184   5.324   1.746   4.871  1.7674 -1.6271 -0.2630
   79SOPE  C315 7185   5.199   1.593   4.958 -0.8047  0.1235 -0.2003
   79SOPE  H15X 7186   5.155   1.564   5.056  1.3412 -0.7136  0.5896
   79SOPE  H15Y 7187   5.255   1.507   4.916  1.1011  2.4954 -2.8818
   79SOPE  C316 7188   5.073   1.605   4.859 -0.5270 -0.4335 -0.0609
   79SOPE  H16X 7189   5.122   1.633   4.763  0.9155 -1.2199  0.4112
   79SOPE  H16Y 7190   5.010   1.690   4.894 -1.2304 -1.1291  0.3726
   79SOPE  C317 7191   4.999   1.472   4.852 -0.3240 -0.4694  0.4669
   79SOPE  H17X 7192   4.952   1.477   4.953 -1.0418  0.8344  0.0907
   79SOPE  H17Y 7193   5.078   1.395   4.861 -0.2115 -0.2399  1.7087
   79SOPE  C318 7194   4.899   1.462   4.741  0.1027 -0.1527 -0.0601
   79SOPE  H18X 7195   4.808   1.521   4.765  0.3021  0.0572  0.1897
   79SOPE  H18Y 7196   4.861   1.358   4.732  0.5409 -0.1507 -2.5200
   79SOPE  H18Z 7197   4.932   1.503   4.643 -1.5805  1.7287  0.0772
   80SOPE     N 7198   3.359   4.658   7.060 -0.8412  0.1146  0.3459
   80SOPE   HN1 7199   3.281   4.727   7.059 -1.5240 -0.6422 -0.4200
   80SOPE   HN2 7200   3.315   4.574   7.019  1.8243 -1.1238 -0.1730
   80SOPE   HN3 7201   3.361   4.632   7.161 -3.2465 -0.4393  0.2963
   80SOPE   C12 7202   3.483   4.714   7.000 -0.0384 -0.1423 -0.3787
   80SOPE  H12A 7203   3.477   4.705   6.890  1.5057  1.6769 -0.6645
   80SOPE  H12B 7204   3.570   4.660   7.043 -0.0812  1.7983  2.3908
   80SOPE   C11 7205   3.504   4.859   7.043 -0.0726 -0.0778 -0.3561
   80SOPE  H11A 7206   3.602   4.883   6.998 -1.0713  1.1507 -2.0021
   80SOPE  H11B 7207   3.496   4.871   7.153  3.8972  0.0659  0.0454
   80SOPE     P 7208   3.394   5.093   6.991  0.0750  0.1047 -0.4183
   80SOPE   O13 7209   3.392   5.124   7.138  0.0129  0.4824  0.2304
   80SOPE   O14 7210   3.275   5.139   6.914 -0.6826 -0.3066  0.4889
   80SOPE   O12 7211   3.409   4.940   6.977 -0.1429  0.3700 -0.2221
   80SOPE   O11 7212   3.519   5.163   6.925 -0.4612 -0.3342  0.4651
   80SOPE    C1 7213   3.535   5.190   6.787  0.8390  0.1636  0.0125
   80SOPE    HA 7214   3.635   5.238   6.785  1.2483 -0.4862  1.9036
   80SOPE    HB 7215   3.466   5.262   6.739  4.3810  2.1179 -2.6465
   80SOPE    C2 7216   3.536   5.063   6.696  0.5750 -0.4094  0.1975
   80SOPE    HS 7217   3.437   5.011   6.702  1.4222 -2.0650  0.3748
   80SOPE   O21 7218   3.643   4.973   6.730  0.3796  0.1310  0.2631
   80SOPE   C21 7219   3.624   4.845   6.706  0.8867  0.1008  0.1608
   80SOPE   O22 7220   3.516   4.799   6.666 -0.5759  0.8471  0.3534
   80SOPE   C22 7221   3.748   4.762   6.732  0.1712  0.1662  0.5312
   80SOPE   H2R 7222   3.756   4.757   6.843 -1.0924  0.8424  0.6688
   80SOPE   H2S 7223   3.835   4.815   6.688 -0.0715 -1.5177 -2.1666
   80SOPE    C3 7224   3.547   5.116   6.547 -0.5295 -0.1707  0.1461
   80SOPE    HX 7225   3.651   5.155   6.543 -0.9292  0.8132 -1.5890
   80SOPE    HY 7226   3.477   5.196   6.515 -2.9474 -2.2673 -0.2219
   80SOPE   O31 7227   3.537   5.011   6.450  0.3813  0.5864 -0.1081
   80SOPE   C31 7228   3.406   4.981   6.418 -0.5344  0.5406 -0.2545
   80SOPE   O32 7229   3.311   5.013   6.482  0.5045 -0.0805  0.3589
   80SOPE   C32 7230   3.421   4.886   6.287 -0.1240 -0.3195  0.1755
   80SOPE   H2X 7231   3.452   4.788   6.327 -0.2936 -0.4050  0.0985
   80SOPE   H2Y 7232   3.489   4.938   6.216  1.6628 -1.5175  0.9393
   80SOPE   C23 7233   3.741   4.626   6.659  0.0912  0.1044 -0.3727
   80SOPE   H3R 7234   3.638   4.586   6.661  0.6804 -1.5665 -1.2865
   80SOPE   H3S 7235   3.800   4.557   6.723 -0.4081  2.4086  2.8297
   80SOPE   C24 7236   3.811   4.630   6.519 -0.1110 -0.4190 -0.8182
   80SOPE   H4R 7237   3.748   4.702   6.461  1.1825  2.4824  1.1222
   80SOPE   H4S 7238   3.912   4.676   6.526  0.1487 -1.1138  0.1320
   80SOPE   C25 7239   3.823   4.497   6.439 -0.1386 -0.3355 -0.2073
   80SOPE   H5R 7240   3.910   4.445   6.485  0.5207  1.2963  0.4419
   80SOPE   H5S 7241   3.726   4.450   6.467  0.2074 -0.8893  0.1071
   80SOPE   C26 7242   3.834   4.516   6.290 -0.6710  0.0553  0.4178
   80SOPE   H6R 7243   3.935   4.554   6.264 -0.5262 -0.9720 -0.6310
   80SOPE   H6S 7244   3.819   4.413   6.251  0.0319 -0.5049  1.5702
   80SOPE   C27 7245   3.735   4.613   6.227 -0.1636 -0.3970 -0.4339
   80SOPE   H7R 7246   3.645   4.578   6.281 -0.3426  0.8387  0.1114
   80SOPE   H7S 7247   3.745   4.720   6.254  0.5099 -0.7021  0.5975
   80SOPE   C28 7248   3.739   4.605   6.077  0.2574 -0.4578 -0.3345
   80SOPE   H8R 7249   3.672   4.683   6.034 -0.8945 -2.0833 -1.6475
   80SOPE   H8S 7250   3.840   4.645   6.054  0.5853  0.7720  2.7771
   80SOPE   C29 7251   3.702   4.481   6.002 -0.8943 -0.4219  0.1321
   80SOPE   H91 7252   3.746   4.395   6.056 -0.0522  0.6985  1.2736
   80SOPE  C210 7253   3.638   4.460   5.889 -0.2066 -0.2609  0.4452
   80SOPE  H101 7254   3.633   4.356   5.853 -2.1363  0.2154 -0.8249
   80SOPE  C211 7255   3.601   4.570   5.793 -0.0967  0.2920 -0.3702
   80SOPE  H11R 7256   3.626   4.671   5.831  2.0463  0.1711 -1.3129
   80SOPE  H11S 7257   3.491   4.550   5.788  0.1713 -1.0713 -1.6676
   80SOPE  C212 7258   3.648   4.565   5.649  0.7335  1.0067  0.1567
   80SOPE  H12R 7259   3.672   4.468   5.601  1.8908  1.0741  0.5739
   80SOPE  H12S 7260   3.743   4.621   5.640  1.3985 -0.2378 -0.8321
   80SOPE  C213 7261   3.547   4.638   5.554 -0.0976  0.6490 -0.1836
   80SOPE  H13R 7262   3.545   4.748   5.568 -1.1142  0.6755 -0.4941
   80SOPE  H13S 7263   3.441   4.609   5.566  0.4339 -2.1205 -1.3750
   80SOPE  C214 7264   3.578   4.616   5.402  0.1154 -1.0250 -0.3525
   80SOPE  H14R 7265   3.604   4.509   5.383 -1.8936 -1.5743 -0.3038
   80SOPE  H14S 7266   3.673   4.669   5.383 -1.1386  1.2362 -0.6936
   80SOPE  C215 7267   3.469   4.657   5.308  0.9399 -0.0015  0.4513
   80SOPE  H15R 7268   3.449   4.765   5.319 -1.2154 -0.4578  1.4475
   80SOPE  H15S 7269   3.382   4.601   5.347  1.5467 -0.6042  0.9691
   80SOPE  C216 7270   3.499   4.623   5.165  0.7249  0.5447  0.0212
   80SOPE  H16R 7271   3.545   4.522   5.154  1.0088  0.7150 -0.3705
   80SOPE  H16S 7272   3.579   4.687   5.123 -0.3839  0.9728 -1.4720
   80SOPE  C217 7273   3.371   4.630   5.078  0.0752  0.3856 -0.3885
   80SOPE  H17R 7274   3.321   4.729   5.081 -0.3223  0.2206 -1.1952
   80SOPE  H17S 7275   3.304   4.548   5.112 -0.1678  0.6139 -0.3218
   80SOPE  C218 7276   3.414   4.609   4.931 -0.2142 -0.7015  0.6592
   80SOPE  H18R 7277   3.328   4.613   4.861 -2.0884 -1.2111  2.7777
   80SOPE  H18S 7278   3.459   4.507   4.929  2.8908  0.4992  2.6708
   80SOPE  H18T 7279   3.497   4.681   4.915 -0.5053 -0.6669 -0.7465
   80SOPE   C33 7280   3.283   4.850   6.219  0.2762 -0.2328 -0.2196
   80SOPE   H3X 7281   3.225   4.945   6.215 -2.1986 -1.7200 -2.3062
   80SOPE   H3Y 7282   3.220   4.775   6.271 -1.1394  0.3544 -1.0315
   80SOPE   C34 7283   3.317   4.792   6.082 -0.6868 -0.0134 -0.0582
   80SOPE   H4X 7284   3.398   4.716   6.090 -1.0035 -0.3891 -0.3511
   80SOPE   H4Y 7285   3.357   4.873   6.018  0.7860 -1.8201 -1.5345
   80SOPE   C35 7286   3.198   4.717   6.014  0.0318  0.6705 -0.1629
   80SOPE   H5X 7287   3.122   4.795   5.994  0.2504  1.1456  0.8168
   80SOPE   H5Y 7288   3.155   4.651   6.093  0.3697  1.1398  0.4191
   80SOPE   C36 7289   3.240   4.633   5.897 -0.9685 -0.2561  0.3887
   80SOPE   H6X 7290   3.263   4.533   5.939  2.8889  0.2639 -0.0709
   80SOPE   H6Y 7291   3.332   4.676   5.853 -0.9105 -0.1986  0.5663
   80SOPE   C37 7292   3.142   4.622   5.782  0.2783  0.4255  0.2332
   80SOPE   H7X 7293   3.041   4.584   5.808 -0.9730 -0.1904 -4.6552
   80SOPE   H7Y 7294   3.181   4.559   5.700  1.3913  2.2114 -0.6806
   80SOPE   C38 7295   3.121   4.759   5.715 -0.0720  0.2119 -0.9243
   80SOPE   H8X 7296   3.219   4.795   5.677 -0.6327  0.3990 -2.2515
   80SOPE   H8Y 7297   3.094   4.836   5.791  2.7506 -1.7328  2.3314
   80SOPE   C39 7298   3.036   4.740   5.586 -0.6845  0.1805  0.6441
   80SOPE   H9X 7299   2.934   4.719   5.623 -1.4047 -2.1039 -2.2749
   80SOPE   H9Y 7300   3.070   4.654   5.524 -0.3948 -0.1608  1.2656
   80SOPE  C310 7301   3.042   4.871   5.497  0.1324  0.6172  0.0818
   80SOPE  H10X 7302   3.146   4.885   5.460  0.6949 -2.0321  0.5096
   80SOPE  H10Y 7303   3.006   4.956   5.559 -2.0085  0.2016 -0.5037
   80SOPE  C311 7304   2.942   4.871   5.382 -0.5636 -0.2115 -0.3161
   80SOPE  H11X 7305   2.921   4.979   5.366 -1.4543  0.0015  1.9740
   80SOPE  H11Y 7306   2.842   4.836   5.417 -0.1061 -0.0976  1.1496
   80SOPE  C312 7307   3.003   4.822   5.248 -0.8014  0.9643  0.1521
   80SOPE  H12X 7308   2.942   4.733   5.221 -1.2198  0.8535  1.3963
   80SOPE  H12Y 7309   3.100   4.774   5.271 -1.8151 -0.7247  1.1395
   80SOPE  C313 7310   3.008   4.923   5.137 -0.5439 -0.1160  0.1307
   80SOPE  H13X 7311   3.075   5.005   5.171 -0.4183  0.3321 -1.1437
   80SOPE  H13Y 7312   2.904   4.960   5.131 -0.2391  0.7177 -0.2568
   80SOPE  C314 7313   3.042   4.862   4.999 -0.1652  0.1982  0.4571
   80SOPE  H14X 7314   3.005   4.757   4.997  0.3556 -0.0316  1.6722
   80SOPE  H14Y 7315   3.152   4.861   5.015 -0.1116  1.3033  0.2515
   80SOPE  C315 7316   2.998   4.935   4.875 -0.0393  0.0291  0.1128
   80SOPE  H15X 7317   3.074   5.012   4.849 -0.1999  0.0449 -0.3295
   80SOPE  H15Y 7318   2.901   4.988   4.892  0.1829  0.5836 -0.3132
   80SOPE  C316 7319   2.978   4.842   4.754 -0.2717 -0.9135 -0.2251
   80SOPE  H16X 7320   2.958   4.917   4.675  0.4082 -0.8790 -0.3679
   80SOPE  H16Y 7321   2.882   4.786   4.751 -0.8262  0.0661 -0.9477
   80SOPE  C317 7322   3.088   4.742   4.720 -0.8212 -0.0728 -0.2043
   80SOPE  H17X 7323   3.085   4.657   4.791  3.0429  0.1137  0.4336
   80SOPE  H17Y 7324   3.186   4.793   4.731 -0.5765 -0.2193 -1.5796
   80SOPE  C318 7325   3.083   4.696   4.576  0.2779  0.2416  0.1172
   80SOPE  H18X 7326   3.187   4.675   4.542  0.3604  0.5566  0.1724
   80SOPE  H18Y 7327   3.026   4.762   4.507 -0.5754  1.3587  1.8190
   80SOPE  H18Z 7328   3.023   4.603   4.586 -0.8732  1.0327  0.8946
   81SOPE     N 7329   6.389   1.564   6.843 -0.4636 -0.4968 -0.1156
   81SOPE   HN1 7330   6.384   1.579   6.740 -1.0398  2.7536  0.2825
   81SOPE   HN2 7331   6.338   1.646   6.881 -2.4035 -2.0556  0.8223
   81SOPE   HN3 7332   6.491   1.564   6.864 -0.7066 -0.0136  1.1219
   81SOPE   C12 7333   6.336   1.432   6.894 -0.0204 -0.2850  0.4965
   81SOPE  H12A 7334   6.225   1.426   6.886 -0.0220  0.3070 -0.0075
   81SOPE  H12B 7335   6.367   1.417   7.000 -0.4771 -0.7285  0.5696
   81SOPE   C11 7336   6.408   1.314   6.813  0.2890 -0.0965 -0.5589
   81SOPE  H11A 7337   6.393   1.227   6.881 -2.3344  0.5576 -0.2008
   81SOPE  H11B 7338   6.515   1.329   6.785  0.3049 -0.5399 -0.7367
   81SOPE     P 7339   6.355   1.348   6.561 -0.2092  0.1981  0.3410
   81SOPE   O13 7340   6.224   1.381   6.498 -0.5360 -0.4114 -0.1811
   81SOPE   O14 7341   6.440   1.248   6.500  0.7819  0.2652  0.7824
   81SOPE   O12 7342   6.325   1.287   6.702 -1.0450  0.3022 -0.3261
   81SOPE   O11 7343   6.433   1.483   6.594  0.7472 -0.9093 -0.3461
   81SOPE    C1 7344   6.579   1.489   6.555  0.5008  0.3223 -0.4085
   81SOPE    HA 7345   6.620   1.395   6.512  1.0864  1.0340 -1.4479
   81SOPE    HB 7346   6.647   1.520   6.637 -0.4114  1.3471 -0.0104
   81SOPE    C2 7347   6.598   1.593   6.445  0.1283 -0.0585 -0.4480
   81SOPE    HS 7348   6.570   1.694   6.481 -1.7012 -0.2362 -1.2424
   81SOPE   O21 7349   6.534   1.540   6.336 -0.1056 -0.0106  0.9769
   81SOPE   C21 7350   6.477   1.622   6.252  0.6476 -0.2062  0.5375
   81SOPE   O22 7351   6.468   1.742   6.259 -0.0052 -0.3057  0.5716
   81SOPE   C22 7352   6.405   1.533   6.147  0.6612  0.2135  0.2050
   81SOPE   H2R 7353   6.384   1.434   6.193  1.4478 -0.3390 -0.5924
   81SOPE   H2S 7354   6.474   1.526   6.060  0.1795  1.7632 -0.3512
   81SOPE    C3 7355   6.755   1.592   6.418 -0.1564  0.8579 -0.3511
   81SOPE    HX 7356   6.777   1.493   6.374 -2.5444  0.2938 -0.3644
   81SOPE    HY 7357   6.793   1.617   6.520 -0.3649  1.4091 -0.4074
   81SOPE   O31 7358   6.814   1.693   6.338  0.5760  0.5461 -0.1376
   81SOPE   C31 7359   6.813   1.686   6.203  0.0655 -0.2407 -0.1971
   81SOPE   O32 7360   6.749   1.611   6.135 -0.2629 -0.0474  0.1493
   81SOPE   C32 7361   6.923   1.771   6.157 -0.2301  0.3553  0.4635
   81SOPE   H2X 7362   7.019   1.731   6.196 -0.0362 -0.1923 -0.5369
   81SOPE   H2Y 7363   6.915   1.873   6.201 -0.2132  1.2998 -1.6101
   81SOPE   C23 7364   6.276   1.591   6.090  0.1314  0.6420 -0.2801
   81SOPE   H3R 7365   6.290   1.701   6.075 -3.5942  1.5250  1.6050
   81SOPE   H3S 7366   6.196   1.573   6.164 -1.2613 -3.2567 -2.4556
   81SOPE   C24 7367   6.229   1.526   5.960  0.1839  0.6366  0.4630
   81SOPE   H4R 7368   6.206   1.419   5.974  3.7448 -0.4895 -1.0299
   81SOPE   H4S 7369   6.133   1.578   5.939  0.0204  0.4424  0.7168
   81SOPE   C25 7370   6.326   1.536   5.835 -0.7476 -0.3176 -0.7879
   81SOPE   H5R 7371   6.392   1.624   5.843  1.6603 -1.9427 -1.7287
   81SOPE   H5S 7372   6.389   1.445   5.849  0.5490  0.7061  0.2797
   81SOPE   C26 7373   6.259   1.526   5.700 -0.2411 -0.1582 -0.3575
   81SOPE   H6R 7374   6.169   1.592   5.708 -0.2193 -0.3494  2.6284
   81SOPE   H6S 7375   6.324   1.560   5.616  0.7705 -0.5450  0.2535
   81SOPE   C27 7376   6.206   1.387   5.679  0.6835 -0.4079 -0.3395
   81SOPE   H7R 7377   6.260   1.306   5.732  2.3192  0.5658 -0.4176
   81SOPE   H7S 7378   6.102   1.390   5.716  0.2136 -0.8951 -1.5499
   81SOPE   C28 7379   6.184   1.341   5.534 -0.0541  0.0564 -0.8854
   81SOPE   H8R 7380   6.119   1.251   5.540  0.1499 -0.0454 -0.1562
   81SOPE   H8S 7381   6.128   1.420   5.479  0.1123 -1.0398 -2.7188
   81SOPE   C29 7382   6.297   1.310   5.440  0.2741  0.1879 -0.2330
   81SOPE   H91 7383   6.371   1.254   5.498  0.0840 -0.5899 -0.7283
   81SOPE  C210 7384   6.321   1.334   5.314  0.2741  0.9056 -0.1759
   81SOPE  H101 7385   6.414   1.292   5.273  0.3809  0.6475  0.3230
   81SOPE  C211 7386   6.243   1.392   5.205  0.1484  0.2939  0.1385
   81SOPE  H11R 7387   6.299   1.433   5.118 -1.3213 -2.2201 -2.1767
   81SOPE  H11S 7388   6.180   1.472   5.249 -2.2936 -1.3511 -0.1901
   81SOPE  C212 7389   6.144   1.287   5.149 -0.2701  0.2288  0.2798
   81SOPE  H12R 7390   6.080   1.245   5.229 -1.3867  3.3885  1.1585
   81SOPE  H12S 7391   6.212   1.208   5.109  0.3823  0.0322  1.7254
   81SOPE  C213 7392   6.054   1.337   5.030 -0.4863  0.0491  0.1520
   81SOPE  H13R 7393   6.114   1.387   4.951  0.4443  1.9490  1.9725
   81SOPE  H13S 7394   5.988   1.413   5.076  0.7472  1.2914 -0.0769
   81SOPE  C214 7395   5.962   1.227   4.970 -0.3684 -0.1305  0.6356
   81SOPE  H14R 7396   5.882   1.202   5.043 -1.1179 -1.6628 -0.6565
   81SOPE  H14S 7397   6.025   1.136   4.954  2.0307  1.7093 -1.2978
   81SOPE  C215 7398   5.908   1.280   4.839  0.1744  0.5050  0.7497
   81SOPE  H15R 7399   5.833   1.203   4.809  1.5884 -0.9125  0.7191
   81SOPE  H15S 7400   5.984   1.297   4.760  0.4271 -1.0652  0.6165
   81SOPE  C216 7401   5.832   1.412   4.861 -0.1870  0.4852 -0.2330
   81SOPE  H16R 7402   5.889   1.495   4.815  1.3168  0.3687  1.3408
   81SOPE  H16S 7403   5.805   1.432   4.967  1.5123 -1.7600  0.6899
   81SOPE  C217 7404   5.695   1.393   4.792  0.5137  0.1541 -0.4415
   81SOPE  H17R 7405   5.644   1.301   4.827  1.1371 -0.2293 -0.5383
   81SOPE  H17S 7406   5.709   1.373   4.684 -0.3730 -2.0423 -0.2077
   81SOPE  C218 7407   5.610   1.514   4.814 -0.3915  0.0217 -0.7475
   81SOPE  H18R 7408   5.580   1.533   4.920 -0.2438 -0.3276 -0.6442
   81SOPE  H18S 7409   5.516   1.494   4.758  0.4173 -0.1276 -2.0760
   81SOPE  H18T 7410   5.656   1.609   4.780  1.7167 -0.0910  1.4762
   81SOPE   C33 7411   6.926   1.778   6.001 -0.9053 -0.1583  0.2796
   81SOPE   H3X 7412   6.941   1.673   5.968  0.9741 -0.4518  1.9053
   81SOPE   H3Y 7413   7.019   1.831   5.972  0.1418 -2.3473 -0.6397
   81SOPE   C34 7414   6.814   1.860   5.936  0.3466 -0.0431  0.1286
   81SOPE   H4X 7415   6.838   1.969   5.934 -1.8183  0.4888 -0.7213
   81SOPE   H4Y 7416   6.728   1.839   6.003  0.1332 -1.9681 -0.6753
   81SOPE   C35 7417   6.776   1.813   5.799  1.2959  0.6225  0.5915
   81SOPE   H5X 7418   6.764   1.702   5.798 -1.7542  0.8751  1.1073
   81SOPE   H5Y 7419   6.846   1.849   5.721  2.2209  1.6422  1.8501
   81SOPE   C36 7420   6.630   1.852   5.757  0.1373  0.6128  0.2489
   81SOPE   H6X 7421   6.624   1.962   5.767  0.2954  1.3480 -5.1283
   81SOPE   H6Y 7422   6.553   1.810   5.826  1.9095  0.7829  2.4366
   81SOPE   C37 7423   6.597   1.810   5.613 -0.1156 -0.1131 -0.9054
   81SOPE   H7X 7424   6.604   1.701   5.592  3.1856 -0.5281  1.4025
   81SOPE   H7Y 7425   6.661   1.866   5.542 -0.3409  1.6853  0.2584
   81SOPE   C38 7426   6.448   1.844   5.581 -0.0454 -0.0964  0.4065
   81SOPE   H8X 7427   6.422   1.949   5.606 -0.9223 -0.3470  0.5477
   81SOPE   H8Y 7428   6.381   1.787   5.650  0.2528  1.4645  2.0788
   81SOPE   C39 7429   6.403   1.810   5.444  0.1101 -0.0826  0.5219
   81SOPE   H9X 7430   6.396   1.703   5.417  0.1326 -0.3454  1.5210
   81SOPE   H9Y 7431   6.473   1.852   5.369 -1.7081 -0.2662 -1.3541
   81SOPE  C310 7432   6.276   1.888   5.412 -0.8696 -0.3383 -0.1509
   81SOPE  H10X 7433   6.285   1.996   5.436  2.9782 -0.7050  0.7489
   81SOPE  H10Y 7434   6.195   1.854   5.481  0.1599  0.3086  1.4308
   81SOPE  C311 7435   6.223   1.861   5.274  0.6535 -0.4436  0.4721
   81SOPE  H11X 7436   6.213   1.751   5.273  1.1744 -0.5666 -2.8631
   81SOPE  H11Y 7437   6.302   1.873   5.197 -0.2206 -2.0008 -0.7351
   81SOPE  C312 7438   6.092   1.927   5.240 -0.1485  0.3625  0.6603
   81SOPE  H12X 7439   6.107   2.037   5.235 -2.3822  0.6698 -2.5090
   81SOPE  H12Y 7440   6.021   1.909   5.323 -0.7897  1.1921  0.3090
   81SOPE  C313 7441   6.033   1.875   5.107 -0.2187 -0.1883  0.0013
   81SOPE  H13X 7442   6.022   1.764   5.104  2.1737 -0.5412  1.3557
   81SOPE  H13Y 7443   6.097   1.909   5.023  0.1501  1.5798  0.9623
   81SOPE  C314 7444   5.893   1.922   5.073  0.1964 -0.3401 -0.0587
   81SOPE  H14X 7445   5.902   2.033   5.066  0.4285 -0.3497  0.0916
   81SOPE  H14Y 7446   5.818   1.912   5.155 -2.3356  1.6877 -1.9271
   81SOPE  C315 7447   5.834   1.866   4.945  0.2098  0.1344  0.1174
   81SOPE  H15X 7448   5.812   1.759   4.961 -0.6242  0.5099  1.7403
   81SOPE  H15Y 7449   5.894   1.877   4.853 -0.3711 -1.3097 -0.4622
   81SOPE  C316 7450   5.695   1.917   4.914 -0.4721  0.6858 -0.8979
   81SOPE  H16X 7451   5.637   1.875   4.999  0.6167  0.3481 -0.3042
   81SOPE  H16Y 7452   5.642   1.866   4.831  0.7444  0.9973 -1.9095
   81SOPE  C317 7453   5.694   2.065   4.886 -0.1345 -0.3744 -0.2069
   81SOPE  H17X 7454   5.728   2.139   4.962  1.7414 -1.3473 -0.0579
   81SOPE  H17Y 7455   5.590   2.088   4.854 -0.6045 -3.0046 -0.7728
   81SOPE  C318 7456   5.779   2.100   4.766  0.1232  0.3540 -0.3465
   81SOPE  H18X 7457   5.770   2.208   4.741  0.4741  0.0943 -1.7234
   81SOPE  H18Y 7458   5.757   2.028   4.684  0.1870 -0.0474 -0.0135
   81SOPE  H18Z 7459   5.885   2.085   4.796  0.1601  2.5625  0.8109
   82SOPE     N 7460   1.669   0.166   6.985 -0.3071 -0.6102 -0.3737
   82SOPE   HN1 7461   1.582   0.111   6.971  0.9833 -2.7825 -0.2358
   82SOPE   HN2 7462   1.744   0.095   6.995  0.7386  0.3669 -1.0507
   82SOPE   HN3 7463   1.671   0.227   7.070  2.7701 -0.0841 -0.7089
   82SOPE   C12 7464   1.684   0.261   6.868  1.0871 -0.6312  0.3275
   82SOPE  H12A 7465   1.723   0.209   6.778  0.1907  1.3922 -1.3153
   82SOPE  H12B 7466   1.756   0.339   6.901  0.3679  0.1359  0.1334
   82SOPE   C11 7467   1.559   0.344   6.841 -0.5853 -0.1987  0.4158
   82SOPE  H11A 7468   1.475   0.275   6.817  1.3689 -1.8806 -2.3220
   82SOPE  H11B 7469   1.586   0.411   6.757  2.2908 -0.1987  1.2428
   82SOPE     P 7470   1.405   0.478   6.992  0.0035  0.2112  0.1829
   82SOPE   O13 7471   1.428   0.582   7.089  0.5891  0.2832  0.0562
   82SOPE   O14 7472   1.319   0.365   7.041  0.4458 -0.2436  0.5928
   82SOPE   O12 7473   1.549   0.431   6.958 -0.0175  0.4447 -0.5012
   82SOPE   O11 7474   1.337   0.543   6.856 -0.1263  0.6442 -0.4350
   82SOPE    C1 7475   1.401   0.658   6.794  0.1784  0.4201  0.4669
   82SOPE    HA 7476   1.502   0.632   6.754 -0.6840  1.1716 -2.3778
   82SOPE    HB 7477   1.414   0.744   6.864 -0.3030  2.6294 -2.0120
   82SOPE    C2 7478   1.322   0.702   6.662 -0.6292  0.3169  0.7899
   82SOPE    HS 7479   1.223   0.745   6.688 -1.7515 -0.0586 -2.4270
   82SOPE   O21 7480   1.307   0.585   6.583 -0.2357 -0.2986  0.1285
   82SOPE   C21 7481   1.243   0.591   6.478  0.3183 -0.3881  0.0847
   82SOPE   O22 7482   1.169   0.682   6.440 -0.3180 -0.1577 -0.3834
   82SOPE   C22 7483   1.275   0.471   6.384 -0.6720  0.6341 -0.0354
   82SOPE   H2R 7484   1.180   0.461   6.326 -1.4345  0.8523  1.1325
   82SOPE   H2S 7485   1.296   0.383   6.447  0.1001  0.4411 -0.5555
   82SOPE    C3 7486   1.403   0.817   6.603  0.3080  0.1517  0.3311
   82SOPE    HX 7487   1.407   0.895   6.681 -2.1088 -0.0516  0.7457
   82SOPE    HY 7488   1.344   0.856   6.517 -0.2474 -0.3000  0.4959
   82SOPE   O31 7489   1.534   0.780   6.562  0.8114  0.2449  0.3420
   82SOPE   C31 7490   1.595   0.875   6.494  0.5538 -0.4185 -0.2094
   82SOPE   O32 7491   1.545   0.987   6.482  0.1170  0.1626  0.3858
   82SOPE   C32 7492   1.724   0.824   6.437  0.2488 -0.9336  0.8686
   82SOPE   H2X 7493   1.774   0.751   6.504  0.3209 -0.8063  0.9552
   82SOPE   H2Y 7494   1.793   0.910   6.423  0.8348 -1.4220  0.6932
   82SOPE   C23 7495   1.391   0.486   6.286  0.3989  0.4196 -0.5326
   82SOPE   H3R 7496   1.486   0.480   6.344 -0.0216 -0.3038  0.0942
   82SOPE   H3S 7497   1.366   0.580   6.231 -1.4349  0.3277  0.0767
   82SOPE   C24 7498   1.390   0.378   6.177  0.9866 -0.1187  0.4151
   82SOPE   H4R 7499   1.419   0.285   6.230 -1.4244 -1.3883 -0.3207
   82SOPE   H4S 7500   1.291   0.364   6.129  1.2369  0.5162 -0.2928
   82SOPE   C25 7501   1.483   0.416   6.070  0.5303 -0.3412 -0.1625
   82SOPE   H5R 7502   1.442   0.513   6.035 -0.0218 -0.5108  0.0048
   82SOPE   H5S 7503   1.587   0.434   6.108  0.2580  0.1327  0.3758
   82SOPE   C26 7504   1.484   0.324   5.951 -0.4572 -0.5683  0.7196
   82SOPE   H6R 7505   1.382   0.323   5.908 -0.5219 -0.0282  0.8525
   82SOPE   H6S 7506   1.544   0.371   5.870 -0.9191 -0.0469  0.6795
   82SOPE   C27 7507   1.526   0.185   5.984 -0.0282  0.1738  0.3950
   82SOPE   H7R 7508   1.634   0.192   6.011  0.5263  0.2440 -1.6852
   82SOPE   H7S 7509   1.463   0.135   6.061 -2.6110  0.8846 -1.1541
   82SOPE   C28 7510   1.512   0.091   5.855  0.2378  0.3800  0.2254
   82SOPE   H8R 7511   1.521  -0.015   5.887 -0.0786  0.7974  1.7559
   82SOPE   H8S 7512   1.408   0.100   5.817  0.3189 -1.2868 -0.4864
   82SOPE   C29 7513   1.612   0.110   5.746 -0.1795 -0.0022  0.2837
   82SOPE   H91 7514   1.719   0.102   5.772 -0.3502  0.1709  1.0564
   82SOPE  C210 7515   1.596   0.142   5.617 -0.1252 -0.2979 -0.3231
   82SOPE  H101 7516   1.685   0.184   5.568  1.0605 -2.5140 -0.2032
   82SOPE  C211 7517   1.466   0.166   5.552 -0.0387  0.4059 -0.1765
   82SOPE  H11R 7518   1.447   0.273   5.531 -1.3629  0.3794  0.7253
   82SOPE  H11S 7519   1.383   0.128   5.616  0.1755  1.4740  0.7651
   82SOPE  C212 7520   1.452   0.097   5.412 -0.0146  0.0501 -0.5779
   82SOPE  H12R 7521   1.347   0.118   5.381 -0.6696  0.3640  1.6829
   82SOPE  H12S 7522   1.473  -0.012   5.416  2.2472  0.4607  0.1871
   82SOPE  C213 7523   1.536   0.157   5.303  0.3203  0.2700  0.3265
   82SOPE  H13R 7524   1.645   0.138   5.311  0.5907  2.3059  2.7377
   82SOPE  H13S 7525   1.510   0.264   5.286 -0.2227  0.1301  0.2508
   82SOPE  C214 7526   1.487   0.079   5.182  0.4400  0.3530  0.1343
   82SOPE  H14R 7527   1.376   0.074   5.178  0.4761 -4.0304 -0.9526
   82SOPE  H14S 7528   1.517  -0.026   5.205  0.6041  0.9874  3.1604
   82SOPE  C215 7529   1.539   0.124   5.044  0.3716  0.6906  0.3788
   82SOPE  H15R 7530   1.525   0.230   5.016  0.5498  0.6097 -0.0225
   82SOPE  H15S 7531   1.477   0.073   4.967  3.2769 -0.4102 -1.4357
   82SOPE  C216 7532   1.683   0.094   5.008 -1.0134  0.2532 -0.1802
   82SOPE  H16R 7533   1.697  -0.016   5.020 -0.6673  0.3705  0.5242
   82SOPE  H16S 7534   1.759   0.132   5.079  1.3294 -4.5647  0.2984
   82SOPE  C217 7535   1.719   0.134   4.863  0.3267 -0.0403 -0.4495
   82SOPE  H17R 7536   1.692   0.241   4.855 -0.4146 -0.0579  1.4238
   82SOPE  H17S 7537   1.658   0.058   4.808 -1.7229 -0.2547  1.9515
   82SOPE  C218 7538   1.861   0.102   4.841  0.4471 -0.1963  0.2354
   82SOPE  H18R 7539   1.891   0.000   4.874 -1.1125 -1.8360 -2.9268
   82SOPE  H18S 7540   1.919   0.174   4.901 -2.2426  2.6231 -0.2706
   82SOPE  H18T 7541   1.898   0.102   4.736 -0.3236 -0.6452 -0.0471
   82SOPE   C33 7542   1.694   0.749   6.299  0.2928  0.1715 -0.3008
   82SOPE   H3X 7543   1.612   0.674   6.303 -1.8072  2.3565 -0.4936
   82SOPE   H3Y 7544   1.782   0.684   6.283 -0.4592 -0.7249 -0.8748
   82SOPE   C34 7545   1.695   0.827   6.170  0.0633 -0.1930  0.4606
   82SOPE   H4X 7546   1.761   0.916   6.178 -1.6988  1.1743  0.2417
   82SOPE   H4Y 7547   1.602   0.887   6.163  1.6456  2.3753  0.2623
   82SOPE   C35 7548   1.719   0.747   6.042  0.5025  0.2067  0.1589
   82SOPE   H5X 7549   1.664   0.651   6.054  0.2854  0.4502  1.2834
   82SOPE   H5Y 7550   1.828   0.725   6.042  0.0829 -2.0868  0.8656
   82SOPE   C36 7551   1.686   0.829   5.917  0.0699 -0.4839  0.4164
   82SOPE   H6X 7552   1.775   0.892   5.897  1.2956 -1.6834  1.8079
   82SOPE   H6Y 7553   1.593   0.889   5.922  0.9378  1.3373 -2.5250
   82SOPE   C37 7554   1.657   0.737   5.793  0.3979  0.6285  0.4997
   82SOPE   H7X 7555   1.569   0.675   5.820 -1.4377  1.7496 -2.4283
   82SOPE   H7Y 7556   1.741   0.667   5.773  0.7465  1.6299 -1.7764
   82SOPE   C38 7557   1.618   0.810   5.672  1.0414  0.2519  0.1631
   82SOPE   H8X 7558   1.700   0.864   5.620  0.9653 -0.5098 -0.7789
   82SOPE   H8Y 7559   1.538   0.886   5.681 -1.0350 -1.4495 -2.3554
   82SOPE   C39 7560   1.556   0.717   5.568 -0.5781 -0.4627 -0.2142
   82SOPE   H9X 7561   1.471   0.659   5.609  0.0154 -1.7951 -0.8026
   82SOPE   H9Y 7562   1.626   0.639   5.531 -2.0002 -2.3777  0.9440
   82SOPE  C310 7563   1.508   0.787   5.440  0.2369 -0.4233 -0.8068
   82SOPE  H10X 7564   1.433   0.863   5.470  1.1391 -0.4314  1.6587
   82SOPE  H10Y 7565   1.462   0.713   5.371 -3.1444  0.1574  0.6317
   82SOPE  C311 7566   1.609   0.886   5.383 -0.1640  0.0414  0.5491
   82SOPE  H11X 7567   1.708   0.836   5.393 -1.4189 -2.4901  1.0072
   82SOPE  H11Y 7568   1.607   0.975   5.450 -3.1774  0.2762  0.2705
   82SOPE  C312 7569   1.587   0.906   5.232 -0.3552 -0.4359  0.1443
   82SOPE  H12X 7570   1.476   0.905   5.238 -0.3946 -1.3348 -0.5007
   82SOPE  H12Y 7571   1.627   0.822   5.171  2.0353  1.6593 -1.3398
   82SOPE  C313 7572   1.635   1.047   5.179  0.4331  0.4129  0.0572
   82SOPE  H13X 7573   1.740   1.055   5.216  0.2270  0.8427  0.5653
   82SOPE  H13Y 7574   1.574   1.116   5.241 -3.2210 -2.7650  0.4114
   82SOPE  C314 7575   1.615   1.060   5.034 -0.1208 -0.4184 -0.0664
   82SOPE  H14X 7576   1.507   1.052   5.008 -0.3938  0.2169  0.8043
   82SOPE  H14Y 7577   1.669   0.977   4.984 -0.9092 -1.0696  0.1563
   82SOPE  C315 7578   1.665   1.196   4.987 -0.7924  0.4208  0.4284
   82SOPE  H15X 7579   1.685   1.190   4.878  0.3918  1.5200  0.5503
   82SOPE  H15Y 7580   1.760   1.219   5.042 -0.1643 -1.6744  0.2988
   82SOPE  C316 7581   1.576   1.323   5.017 -0.6461  0.3327  0.6832
   82SOPE  H16X 7582   1.559   1.335   5.126  0.1541  1.0155  0.7408
   82SOPE  H16Y 7583   1.477   1.300   4.972 -1.4088  0.3791  2.2730
   82SOPE  C317 7584   1.636   1.459   4.969  0.3911  0.0321 -0.0485
   82SOPE  H17X 7585   1.680   1.436   4.870  0.7895 -0.6992  0.2893
   82SOPE  H17Y 7586   1.721   1.485   5.036  0.1073 -0.3787  0.4811
   82SOPE  C318 7587   1.528   1.571   4.966  0.1780  0.6818 -0.4132
   82SOPE  H18X 7588   1.579   1.665   4.938  1.0159  0.6003  0.7657
   82SOPE  H18Y 7589   1.488   1.585   5.068  0.1179 -2.3551  0.0920
   82SOPE  H18Z 7590   1.448   1.539   4.896  1.4395 -2.0669 -0.7495
   83SOPE     N 7591   2.800   3.982   2.325 -0.5676 -0.0351 -0.0438
   83SOPE   HN1 7592   2.813   4.067   2.384 -0.5120  1.1403 -1.6641
   83SOPE   HN2 7593   2.843   3.900   2.373  1.0145  0.5700 -0.3752
   83SOPE   HN3 7594   2.850   3.995   2.235  0.8207  0.1391  0.7232
   83SOPE   C12 7595   2.652   3.980   2.315  0.2520  0.8062  0.1715
   83SOPE  H12A 7596   2.612   3.967   2.417  0.7232 -0.9578  0.1751
   83SOPE  H12B 7597   2.628   3.885   2.263  0.5252  0.2641  1.0145
   83SOPE   C11 7598   2.596   4.109   2.260 -0.4799 -0.8934 -0.1504
   83SOPE  H11A 7599   2.486   4.106   2.278 -0.4986 -0.1591 -0.0953
   83SOPE  H11B 7600   2.609   4.113   2.150 -2.2796 -1.6311 -0.4281
   83SOPE     P 7601   2.617   4.364   2.270  0.0781  0.3785 -0.3070
   83SOPE   O13 7602   2.480   4.357   2.210  0.3727  0.6768  0.7656
   83SOPE   O14 7603   2.730   4.405   2.188 -0.1559  0.8773  0.3015
   83SOPE   O12 7604   2.648   4.219   2.331  0.2013  0.4059 -0.5768
   83SOPE   O11 7605   2.610   4.450   2.409  0.0233 -0.5032  0.2866
   83SOPE    C1 7606   2.726   4.466   2.491 -0.2735 -0.1977  0.2856
   83SOPE    HA 7607   2.753   4.574   2.485 -0.4506 -0.1798 -0.1626
   83SOPE    HB 7608   2.818   4.420   2.451  0.1779 -0.1483  1.2263
   83SOPE    C2 7609   2.707   4.416   2.629 -0.1077  0.2778 -1.0254
   83SOPE    HS 7610   2.695   4.305   2.631 -2.5875  0.4091  2.2344
   83SOPE   O21 7611   2.596   4.480   2.694 -0.1514  0.3542 -0.4485
   83SOPE   C21 7612   2.529   4.415   2.785 -0.7200  0.2074  0.2615
   83SOPE   O22 7613   2.541   4.296   2.812 -0.6726  0.4399 -1.0097
   83SOPE   C22 7614   2.421   4.507   2.841 -0.4625 -1.1854 -0.7596
   83SOPE   H2R 7615   2.346   4.529   2.762 -1.5641 -2.0658  0.0055
   83SOPE   H2S 7616   2.463   4.606   2.871 -5.0727  1.3417 -1.6012
   83SOPE    C3 7617   2.842   4.443   2.701 -0.3255 -0.7316 -0.6983
   83SOPE    HX 7618   2.872   4.550   2.693 -0.1777 -0.6925  0.2720
   83SOPE    HY 7619   2.935   4.394   2.664  1.1450  2.3570 -1.4815
   83SOPE   O31 7620   2.839   4.415   2.839 -0.1170 -0.0409 -0.8359
   83SOPE   C31 7621   2.872   4.290   2.874  0.3653  0.0749 -0.3650
   83SOPE   O32 7622   2.886   4.201   2.792 -0.1773  0.2074 -0.0172
   83SOPE   C32 7623   2.891   4.273   3.025 -0.7259  0.0279  0.3780
   83SOPE   H2X 7624   2.890   4.359   3.095 -0.9938 -1.0920  1.8030
   83SOPE   H2Y 7625   2.998   4.243   3.032 -0.9653 -1.1201 -0.5117
   83SOPE   C23 7626   2.366   4.447   2.970 -0.0389  0.2422  0.0600
   83SOPE   H3R 7627   2.351   4.341   2.940  2.4393 -0.0116 -0.4943
   83SOPE   H3S 7628   2.269   4.495   2.994 -0.4880  0.3952 -1.9264
   83SOPE   C24 7629   2.459   4.470   3.094 -0.2756  0.4780  0.1448
   83SOPE   H4R 7630   2.555   4.418   3.078 -0.4577  0.2939 -0.3672
   83SOPE   H4S 7631   2.479   4.578   3.109 -2.0148  0.5824  2.3477
   83SOPE   C25 7632   2.393   4.421   3.227  0.0987  0.0798 -0.0343
   83SOPE   H5R 7633   2.302   4.480   3.251  0.2791 -0.3530  1.8240
   83SOPE   H5S 7634   2.367   4.316   3.202 -2.5960  0.7481 -0.3292
   83SOPE   C26 7635   2.478   4.427   3.353 -0.2230  0.4917 -0.2347
   83SOPE   H6R 7636   2.433   4.393   3.449  0.6172  0.3924  0.1398
   83SOPE   H6S 7637   2.560   4.359   3.321  0.1988  1.2372 -0.7482
   83SOPE   C27 7638   2.537   4.569   3.379 -0.3428  0.7330 -0.0773
   83SOPE   H7R 7639   2.596   4.600   3.290  1.4238 -1.0784  0.3805
   83SOPE   H7S 7640   2.464   4.647   3.407 -2.4584 -1.5478  1.1159
   83SOPE   C28 7641   2.632   4.577   3.500 -0.2417  0.3623  0.3663
   83SOPE   H8R 7642   2.665   4.681   3.520  0.8822  0.1283 -0.1919
   83SOPE   H8S 7643   2.570   4.552   3.589 -0.6977 -1.4802 -0.4136
   83SOPE   C29 7644   2.753   4.483   3.489  0.6532 -0.1628 -0.3645
   83SOPE   H91 7645   2.798   4.499   3.390 -0.4619 -0.4787 -0.9440
   83SOPE  C210 7646   2.794   4.385   3.567 -0.4542 -0.2992  0.0922
   83SOPE  H101 7647   2.883   4.336   3.523  0.2040  1.0145 -0.0975
   83SOPE  C211 7648   2.734   4.328   3.697 -0.2622  0.4054 -0.0246
   83SOPE  H11R 7649   2.703   4.221   3.688 -1.1874  0.1361  4.1184
   83SOPE  H11S 7650   2.639   4.379   3.727  1.0755  1.0444  3.6924
   83SOPE  C212 7651   2.825   4.336   3.827  0.0468 -0.2132 -0.1535
   83SOPE  H12R 7652   2.837   4.443   3.852 -0.7981 -0.4098  1.1799
   83SOPE  H12S 7653   2.920   4.280   3.810  0.6105  0.8489 -0.6365
   83SOPE  C213 7654   2.758   4.277   3.962  0.5093 -0.1718  0.3891
   83SOPE  H13R 7655   2.731   4.174   3.929  2.0762 -0.0055 -1.5858
   83SOPE  H13S 7656   2.670   4.339   3.986  0.4673  1.2662 -2.9768
   83SOPE  C214 7657   2.870   4.273   4.058  0.5194 -0.0648  0.0332
   83SOPE  H14R 7658   2.904   4.377   4.078  0.7198 -0.3415  1.1992
   83SOPE  H14S 7659   2.960   4.221   4.020  0.2923 -0.3961 -0.0583
   83SOPE  C215 7660   2.824   4.213   4.186  0.6780 -0.2849 -1.1145
   83SOPE  H15R 7661   2.799   4.105   4.182  0.7676 -0.3862  0.4604
   83SOPE  H15S 7662   2.735   4.270   4.222  1.0627 -0.1797 -0.3068
   83SOPE  C216 7663   2.942   4.221   4.287 -0.1186  0.7945  0.3158
   83SOPE  H16R 7664   2.991   4.321   4.278  2.2762 -0.4707 -2.9532
   83SOPE  H16S 7665   3.024   4.155   4.253  0.4782  0.3035  2.5549
   83SOPE  C217 7666   2.897   4.194   4.431 -0.3605 -0.1932 -0.0888
   83SOPE  H17R 7667   2.868   4.087   4.430 -3.1633  0.5014 -1.4288
   83SOPE  H17S 7668   2.801   4.243   4.457 -2.0809 -2.6113 -1.4796
   83SOPE  C218 7669   3.007   4.230   4.534 -0.5022  0.5972  0.3566
   83SOPE  H18R 7670   2.989   4.190   4.637 -1.4778  0.7556  0.2498
   83SOPE  H18S 7671   3.021   4.339   4.549 -0.9345  0.5243  1.4060
   83SOPE  H18T 7672   3.099   4.184   4.490 -0.0611  1.9194 -0.1329
   83SOPE   C33 7673   2.807   4.155   3.083  0.0376 -0.4228  0.8910
   83SOPE   H3X 7674   2.815   4.069   3.013 -2.6090  0.1441 -0.2533
   83SOPE   H3Y 7675   2.701   4.188   3.092 -0.0037 -1.0245  3.0068
   83SOPE   C34 7676   2.844   4.119   3.229  0.2405  0.0321 -0.9143
   83SOPE   H4X 7677   2.834   4.214   3.286  0.8929 -0.2369 -0.3291
   83SOPE   H4Y 7678   2.949   4.089   3.248  0.1747  0.7563  0.8678
   83SOPE   C35 7679   2.763   4.002   3.280 -0.3110 -0.5198 -0.0293
   83SOPE   H5X 7680   2.794   3.907   3.232 -1.4860 -1.3384  0.7658
   83SOPE   H5Y 7681   2.655   4.006   3.256 -0.8136  0.1768  2.1529
   83SOPE   C36 7682   2.765   3.986   3.430 -0.2140  0.1879  0.2802
   83SOPE   H6X 7683   2.754   4.081   3.487  1.1023  0.8120 -0.4413
   83SOPE   H6Y 7684   2.866   3.946   3.455 -0.5994 -1.9295 -1.3003
   83SOPE   C37 7685   2.659   3.887   3.479  0.9906 -0.2791 -0.3530
   83SOPE   H7X 7686   2.643   3.793   3.422  1.6637  1.3132 -3.3453
   83SOPE   H7Y 7687   2.559   3.934   3.469  0.6642 -0.9924 -0.4753
   83SOPE   C38 7688   2.672   3.849   3.633  0.5386  0.0736  0.4175
   83SOPE   H8X 7689   2.661   3.948   3.681  1.5893  0.0054  0.8166
   83SOPE   H8Y 7690   2.771   3.805   3.656  0.0639  0.7019  4.2029
   83SOPE   C39 7691   2.568   3.749   3.681 -0.5151 -0.1328  0.2594
   83SOPE   H9X 7692   2.587   3.653   3.628 -0.8643 -0.6248  1.0115
   83SOPE   H9Y 7693   2.471   3.791   3.647 -0.4721  0.1441  0.4709
   83SOPE  C310 7694   2.564   3.743   3.833  0.0678 -0.4886 -0.0210
   83SOPE  H10X 7695   2.489   3.666   3.861  1.1574 -1.1523  1.2313
   83SOPE  H10Y 7696   2.528   3.840   3.872 -1.9664  0.0054 -2.8496
   83SOPE  C311 7697   2.704   3.700   3.885 -0.0314 -0.1311  0.4245
   83SOPE  H11X 7698   2.783   3.774   3.860 -1.4195  0.8196 -1.3900
   83SOPE  H11Y 7699   2.739   3.609   3.833  0.8940  1.0246 -1.0289
   83SOPE  C312 7700   2.710   3.673   4.032 -0.5941 -0.2948 -0.1957
   83SOPE  H12X 7701   2.809   3.642   4.073 -0.1047  1.8892  0.3742
   83SOPE  H12Y 7702   2.643   3.588   4.056 -0.2686 -0.5305 -0.1054
   83SOPE  C313 7703   2.687   3.797   4.114  0.5105 -0.2033  0.8990
   83SOPE  H13X 7704   2.617   3.873   4.073 -0.2425 -1.7559 -0.8414
   83SOPE  H13Y 7705   2.776   3.863   4.112 -0.4836  1.1501 -0.4843
   83SOPE  C314 7706   2.643   3.754   4.256 -0.0061 -0.3948 -0.7777
   83SOPE  H14X 7707   2.718   3.690   4.307 -0.1458  0.8080  1.0313
   83SOPE  H14Y 7708   2.555   3.688   4.245  0.7190 -0.9605 -4.7295
   83SOPE  C315 7709   2.603   3.866   4.348  0.4199  0.3043  0.2105
   83SOPE  H15X 7710   2.528   3.932   4.298  0.0244 -1.0053 -1.0115
   83SOPE  H15Y 7711   2.689   3.933   4.369  0.5342  0.8758 -1.8078
   83SOPE  C316 7712   2.539   3.817   4.479  0.1352 -0.6934 -0.5264
   83SOPE  H16X 7713   2.597   3.726   4.505  0.0176 -0.2161  1.5366
   83SOPE  H16Y 7714   2.435   3.785   4.462 -1.2148  2.2092  1.3781
   83SOPE  C317 7715   2.550   3.927   4.590 -0.0497 -0.6650  0.0921
   83SOPE  H17X 7716   2.504   4.019   4.548 -1.3029 -0.4129  1.8745
   83SOPE  H17Y 7717   2.653   3.963   4.609 -0.7363  1.1443  0.6986
   83SOPE  C318 7718   2.480   3.893   4.725  0.4546  0.5673  0.1238
   83SOPE  H18X 7719   2.562   3.875   4.797  0.7670  0.4150 -0.2621
   83SOPE  H18Y 7720   2.424   3.798   4.711  1.9218 -0.7292  2.3516
   83SOPE  H18Z 7721   2.411   3.971   4.762  0.4929  0.3146  0.7347
   84SOPE     N 7722   2.887   1.267   2.835  0.5116  0.3421 -0.4506
   84SOPE   HN1 7723   2.962   1.217   2.784  1.2867  1.6520 -0.6299
   84SOPE   HN2 7724   2.929   1.329   2.908  1.4713  0.8996 -1.4428
   84SOPE   HN3 7725   2.835   1.195   2.889  2.3513 -1.4557 -0.9677
   84SOPE   C12 7726   2.802   1.340   2.746 -0.4576 -0.1874  0.2651
   84SOPE  H12A 7727   2.715   1.389   2.795  0.2512  0.7159  0.6410
   84SOPE  H12B 7728   2.782   1.263   2.667  1.2601  0.1087 -0.4888
   84SOPE   C11 7729   2.893   1.447   2.687  0.1031  0.2717  0.3866
   84SOPE  H11A 7730   2.911   1.529   2.760 -1.3467 -1.2036  2.5327
   84SOPE  H11B 7731   2.829   1.481   2.603 -0.1162 -0.9126  0.0541
   84SOPE     P 7732   3.113   1.491   2.556 -0.2020 -0.3014  0.0214
   84SOPE   O13 7733   3.036   1.573   2.463  1.2367 -0.4774 -0.1490
   84SOPE   O14 7734   3.220   1.410   2.498 -0.2339  0.4740  0.5294
   84SOPE   O12 7735   3.022   1.396   2.643 -0.4512  0.3495  0.2749
   84SOPE   O11 7736   3.178   1.599   2.653 -0.0375  0.5273 -0.0577
   84SOPE    C1 7737   3.227   1.557   2.785 -0.4143 -0.6387  0.1960
   84SOPE    HA 7738   3.312   1.487   2.773 -1.9815 -2.8911  1.3548
   84SOPE    HB 7739   3.149   1.500   2.842  0.6609 -2.3790  0.0150
   84SOPE    C2 7740   3.272   1.687   2.853 -0.1266 -0.5470 -0.0018
   84SOPE    HS 7741   3.335   1.736   2.776 -1.0282  0.1270 -0.3401
   84SOPE   O21 7742   3.337   1.677   2.980 -0.2793 -0.2589 -0.1767
   84SOPE   C21 7743   3.453   1.741   2.998 -0.4251 -0.3066  0.6509
   84SOPE   O22 7744   3.516   1.801   2.908  0.7727  0.4042  0.2401
   84SOPE   C22 7745   3.506   1.738   3.141  0.6247 -0.2203 -0.4989
   84SOPE   H2R 7746   3.616   1.755   3.137  0.5193  0.3410 -1.2219
   84SOPE   H2S 7747   3.497   1.637   3.187  0.3849  0.0145 -0.0324
   84SOPE    C3 7748   3.147   1.777   2.861 -0.0948 -0.2038  0.0386
   84SOPE    HX 7749   3.077   1.728   2.932 -1.0525  0.9910 -0.0446
   84SOPE    HY 7750   3.106   1.792   2.758 -2.9603 -0.9687  0.9849
   84SOPE   O31 7751   3.186   1.908   2.911  0.1639  0.7368 -0.2865
   84SOPE   C31 7752   3.085   1.983   2.948 -0.3757 -0.3893 -0.2682
   84SOPE   O32 7753   2.971   1.965   2.925 -0.5618 -0.0797 -0.5610
   84SOPE   C32 7754   3.133   2.095   3.038  0.3502 -0.3204 -0.6766
   84SOPE   H2X 7755   3.159   2.173   2.963 -1.3653  2.4716  1.4490
   84SOPE   H2Y 7756   3.225   2.060   3.089  1.5561 -0.7579 -3.0055
   84SOPE   C23 7757   3.455   1.847   3.241 -0.3756 -0.0427 -0.1518
   84SOPE   H3R 7758   3.468   1.944   3.188  1.6727 -1.6987 -2.9619
   84SOPE   H3S 7759   3.524   1.850   3.329  1.2822  2.5044 -1.4129
   84SOPE   C24 7760   3.319   1.827   3.305  0.3773 -0.5377  0.2204
   84SOPE   H4R 7761   3.228   1.854   3.248  0.8858  1.5471  0.3180
   84SOPE   H4S 7762   3.317   1.718   3.327  3.0203 -0.4936  1.0420
   84SOPE   C25 7763   3.315   1.890   3.448 -0.6808 -0.0804 -0.2387
   84SOPE   H5R 7764   3.421   1.881   3.480 -0.1798  1.9715 -1.1066
   84SOPE   H5S 7765   3.289   1.999   3.452  3.6902  1.0906  1.9458
   84SOPE   C26 7766   3.236   1.804   3.549  0.1480 -0.3336 -0.1839
   84SOPE   H6R 7767   3.133   1.782   3.513 -0.4542  5.3312 -3.0460
   84SOPE   H6S 7768   3.275   1.701   3.564  0.1112 -0.1221  1.6347
   84SOPE   C27 7769   3.234   1.879   3.689 -0.0076  0.2052 -0.5199
   84SOPE   H7R 7770   3.340   1.903   3.714 -0.0291  0.0590 -0.2811
   84SOPE   H7S 7771   3.182   1.977   3.683 -0.4816 -0.1272 -2.4751
   84SOPE   C28 7772   3.171   1.791   3.801 -0.0899  0.1931  0.4059
   84SOPE   H8R 7773   3.066   1.773   3.770 -0.8558  1.3528  2.1762
   84SOPE   H8S 7774   3.246   1.708   3.794 -0.7231 -0.2612 -2.0419
   84SOPE   C29 7775   3.170   1.855   3.938  0.2257  0.5020  0.4068
   84SOPE   H91 7776   3.219   1.952   3.953 -0.1525  0.8177 -0.3297
   84SOPE  C210 7777   3.107   1.799   4.048 -0.4267 -0.8537 -0.0970
   84SOPE  H101 7778   3.109   1.859   4.140 -0.5573  0.5037 -0.9652
   84SOPE  C211 7779   3.052   1.660   4.058  0.2151 -0.5058  0.1381
   84SOPE  H11R 7780   3.106   1.611   4.142 -0.0571  0.0008  0.6127
   84SOPE  H11S 7781   3.085   1.607   3.966  0.2857 -0.0326 -0.1131
   84SOPE  C212 7782   2.902   1.664   4.079  0.2173 -0.2925  0.2192
   84SOPE  H12R 7783   2.867   1.559   4.069  0.3020 -0.2186 -0.9924
   84SOPE  H12S 7784   2.854   1.725   4.000 -1.4697 -1.4790  0.2675
   84SOPE  C213 7785   2.841   1.736   4.203  0.2246  0.8330  0.3329
   84SOPE  H13R 7786   2.857   1.846   4.200 -1.4502  1.0983  0.6438
   84SOPE  H13S 7787   2.900   1.693   4.288 -2.1344 -0.6678  1.3212
   84SOPE  C214 7788   2.693   1.699   4.234  0.3024  0.0050  0.3579
   84SOPE  H14R 7789   2.675   1.593   4.260 -1.3918  0.6732  2.1785
   84SOPE  H14S 7790   2.633   1.713   4.142  0.3783 -0.2606  0.2691
   84SOPE  C215 7791   2.627   1.777   4.342  0.1124  0.0001  0.2510
   84SOPE  H15R 7792   2.573   1.859   4.289  1.7656  0.3764 -0.9383
   84SOPE  H15S 7793   2.717   1.818   4.392  0.8516 -0.9052 -0.3201
   84SOPE  C216 7794   2.549   1.687   4.439 -0.5181 -0.6846  1.0640
   84SOPE  H16R 7795   2.601   1.610   4.500 -0.8714 -2.1288 -0.3573
   84SOPE  H16S 7796   2.481   1.624   4.376 -0.9153  0.5934  0.1814
   84SOPE  C217 7797   2.458   1.772   4.526  0.6716  0.4805  0.2087
   84SOPE  H17R 7798   2.366   1.711   4.541  0.7975 -0.4685 -2.3461
   84SOPE  H17S 7799   2.412   1.857   4.471  1.3258  0.8333  0.1981
   84SOPE  C218 7800   2.508   1.825   4.665  0.4294 -0.4429  0.8334
   84SOPE  H18R 7801   2.440   1.893   4.720  1.9230 -0.7136  3.1811
   84SOPE  H18S 7802   2.613   1.860   4.655  0.3085  0.0110  1.1312
   84SOPE  H18T 7803   2.528   1.734   4.727  1.3371 -0.7672  0.0950
   84SOPE   C33 7804   3.017   2.156   3.125 -0.2058  0.0990  0.6482
   84SOPE   H3X 7805   2.933   2.179   3.057 -0.2306 -3.0088 -0.5384
   84SOPE   H3Y 7806   3.048   2.251   3.173  0.3137 -0.0663  0.6535
   84SOPE   C34 7807   2.993   2.061   3.237  0.3591  0.7146 -0.3234
   84SOPE   H4X 7808   3.075   2.061   3.312  2.6800  2.3705 -2.6854
   84SOPE   H4Y 7809   2.967   1.964   3.189  0.9628  1.5149 -2.3751
   84SOPE   C35 7810   2.861   2.095   3.311  0.4145  0.1138 -0.0723
   84SOPE   H5X 7811   2.778   2.094   3.237  0.2543  1.0572  0.0804
   84SOPE   H5Y 7812   2.880   2.198   3.349  0.6348  1.2981 -3.0376
   84SOPE   C36 7813   2.822   1.983   3.418  0.3232 -0.1273  0.4031
   84SOPE   H6X 7814   2.919   1.973   3.470  0.5270 -0.7146 -0.0732
   84SOPE   H6Y 7815   2.804   1.883   3.372  0.4392  0.8036 -1.7911
   84SOPE   C37 7816   2.708   2.034   3.501 -0.1545  0.5343 -0.3254
   84SOPE   H7X 7817   2.627   2.077   3.439  0.2936  1.3663 -0.3517
   84SOPE   H7Y 7818   2.746   2.124   3.554  0.0837  0.2067  0.0683
   84SOPE   C38 7819   2.659   1.935   3.604  0.0301  0.5332 -0.6348
   84SOPE   H8X 7820   2.734   1.909   3.682 -1.0797 -0.8063  0.0312
   84SOPE   H8Y 7821   2.633   1.842   3.548 -0.1363  0.3347 -0.2282
   84SOPE   C39 7822   2.539   1.981   3.678 -0.0987  0.4553 -0.3258
   84SOPE   H9X 7823   2.479   1.904   3.731 -0.1929  0.5229 -0.3334
   84SOPE   H9Y 7824   2.475   2.033   3.603 -0.4176  0.3873 -0.1056
   84SOPE  C310 7825   2.574   2.091   3.783 -0.4941  0.3045 -0.2543
   84SOPE  H10X 7826   2.484   2.150   3.811  0.5081  1.2951  1.0120
   84SOPE  H10Y 7827   2.647   2.167   3.747  2.1372 -1.4310  1.0907
   84SOPE  C311 7828   2.617   2.018   3.914 -0.5204 -1.1480  0.4621
   84SOPE  H11X 7829   2.720   1.976   3.906  0.2172  0.6907 -0.3424
   84SOPE  H11Y 7830   2.538   1.942   3.931 -1.8064 -0.2848 -1.3459
   84SOPE  C312 7831   2.619   2.116   4.030  1.2206  0.2541 -0.2764
   84SOPE  H12X 7832   2.645   2.214   3.984  0.9791  0.7328  0.5958
   84SOPE  H12Y 7833   2.695   2.091   4.107  1.0326  1.6729  0.3938
   84SOPE  C313 7834   2.483   2.111   4.110  0.3170 -0.5878  0.3042
   84SOPE  H13X 7835   2.468   2.009   4.151  1.3628 -0.5615  0.7859
   84SOPE  H13Y 7836   2.398   2.126   4.040 -0.5152 -0.7658  1.2402
   84SOPE  C314 7837   2.473   2.214   4.217 -0.1006  0.0111  0.6033
   84SOPE  H14X 7838   2.371   2.252   4.236  0.8005  2.5856  0.7367
   84SOPE  H14Y 7839   2.537   2.303   4.196 -1.1338  0.7281  0.4276
   84SOPE  C315 7840   2.522   2.158   4.356 -0.5530  0.5990 -0.4217
   84SOPE  H15X 7841   2.614   2.097   4.346  0.6990  1.4785  3.8507
   84SOPE  H15Y 7842   2.441   2.090   4.390 -1.6894  1.3520 -1.5115
   84SOPE  C316 7843   2.541   2.273   4.452  0.4002  0.9232 -0.0100
   84SOPE  H16X 7844   2.455   2.343   4.444  0.4120  1.1129  1.2061
   84SOPE  H16Y 7845   2.635   2.329   4.432  2.2890 -1.1703  2.2431
   84SOPE  C317 7846   2.545   2.237   4.597  0.5219  0.3490 -0.2976
   84SOPE  H17X 7847   2.642   2.186   4.616 -0.5052 -1.6888 -0.2154
   84SOPE  H17Y 7848   2.472   2.158   4.623  0.7417 -0.0158 -0.7720
   84SOPE  C318 7849   2.537   2.347   4.701  0.5475 -0.2406  0.4851
   84SOPE  H18X 7850   2.441   2.399   4.681  1.2293  0.9112  0.1223
   84SOPE  H18Y 7851   2.632   2.404   4.698  0.0110  0.6692  0.6547
   84SOPE  H18Z 7852   2.528   2.306   4.804 -0.3629  1.6771  1.2202
   85SOPE     N 7853   5.513   1.652   2.610  0.1481  0.6888  0.1488
   85SOPE   HN1 7854   5.421   1.608   2.586  0.5236 -1.7143  2.6236
   85SOPE   HN2 7855   5.507   1.736   2.671  0.8651  0.7695  0.1100
   85SOPE   HN3 7856   5.559   1.683   2.523 -0.4829  0.9808 -0.0893
   85SOPE   C12 7857   5.577   1.529   2.668 -0.0467 -0.1407  0.2502
   85SOPE  H12A 7858   5.505   1.480   2.738 -0.2739 -1.1385 -0.6606
   85SOPE  H12B 7859   5.669   1.561   2.721 -2.0310  1.8784  2.8151
   85SOPE   C11 7860   5.611   1.433   2.550 -0.0431 -0.2641 -0.0988
   85SOPE  H11A 7861   5.693   1.475   2.488 -1.2250  0.9797 -0.8766
   85SOPE  H11B 7862   5.524   1.424   2.482 -0.2792 -0.7244  0.2603
   85SOPE     P 7863   5.712   1.205   2.511  0.0626  0.4268 -0.1745
   85SOPE   O13 7864   5.796   1.274   2.407 -0.2079  1.1762 -0.2530
   85SOPE   O14 7865   5.599   1.117   2.459  0.4052  0.7093 -0.5705
   85SOPE   O12 7866   5.658   1.309   2.615  0.2833  0.4589  0.0580
   85SOPE   O11 7867   5.801   1.104   2.592  0.0400 -0.7016  0.5326
   85SOPE    C1 7868   5.763   1.056   2.728  0.7914  0.0294 -0.0036
   85SOPE    HA 7869   5.746   0.947   2.729  1.7855 -0.1311  1.0014
   85SOPE    HB 7870   5.666   1.095   2.765 -0.5433 -2.7319 -0.3354
   85SOPE    C2 7871   5.866   1.094   2.827 -0.1255  0.3430  0.6016
   85SOPE    HS 7872   5.967   1.060   2.798 -0.2793 -0.0164  0.4733
   85SOPE   O21 7873   5.826   1.053   2.956  0.0828  0.0349  0.3269
   85SOPE   C21 7874   5.920   1.020   3.033  0.2153 -0.0316  0.0387
   85SOPE   O22 7875   6.038   1.003   3.003 -0.6285 -0.3378  0.0295
   85SOPE   C22 7876   5.865   0.984   3.172  0.1465 -0.1322  0.4703
   85SOPE   H2R 7877   5.846   0.875   3.166  2.0239 -0.4165 -2.4604
   85SOPE   H2S 7878   5.771   1.043   3.174 -1.0030 -1.8366 -0.4784
   85SOPE    C3 7879   5.871   1.253   2.836 -0.1595  0.3449  0.0598
   85SOPE    HX 7880   5.773   1.300   2.859 -0.6018 -0.2702 -0.5349
   85SOPE    HY 7881   5.904   1.291   2.737 -0.8825  0.2946 -0.2007
   85SOPE   O31 7882   5.968   1.298   2.937  0.6551  0.0972 -0.6539
   85SOPE   C31 7883   5.978   1.433   2.933  0.3375  0.3965  0.7356
   85SOPE   O32 7884   5.897   1.501   2.870 -0.5068  0.4368 -0.0459
   85SOPE   C32 7885   6.094   1.483   3.023  0.7329 -0.7761 -0.0929
   85SOPE   H2X 7886   6.155   1.555   2.965  0.9189  1.3307  2.5488
   85SOPE   H2Y 7887   6.160   1.396   3.045 -0.8972 -2.7100 -2.1880
   85SOPE   C23 7888   5.965   1.012   3.289  0.3636  0.2410  0.0844
   85SOPE   H3R 7889   6.057   0.952   3.271 -0.4851 -1.0862 -0.0258
   85SOPE   H3S 7890   5.926   0.968   3.384  1.4466 -2.7547 -0.7237
   85SOPE   C24 7891   5.997   1.160   3.308  0.0369  0.1004 -0.4479
   85SOPE   H4R 7892   6.062   1.192   3.224  3.1864 -2.3344  0.8675
   85SOPE   H4S 7893   5.898   1.211   3.303  0.1965  0.5699  0.7491
   85SOPE   C25 7894   6.065   1.175   3.443  0.0262 -0.8124  0.0011
   85SOPE   H5R 7895   6.069   1.285   3.460  0.6516 -0.0686 -3.8178
   85SOPE   H5S 7896   6.022   1.122   3.530 -0.4642 -0.7324 -0.1915
   85SOPE   C26 7897   6.219   1.150   3.429 -0.1523  0.2728  0.0569
   85SOPE   H6R 7898   6.243   1.041   3.431 -1.4670 -0.0552 -0.5432
   85SOPE   H6S 7899   6.255   1.199   3.337  2.6621  0.0533  0.9538
   85SOPE   C27 7900   6.302   1.207   3.555  0.0587 -0.2247  0.6179
   85SOPE   H7R 7901   6.408   1.179   3.539  1.7080  5.2310 -0.0730
   85SOPE   H7S 7902   6.303   1.318   3.550 -0.6228 -0.2570 -0.6292
   85SOPE   C28 7903   6.238   1.169   3.688 -0.2260 -0.3484 -0.5781
   85SOPE   H8R 7904   6.145   1.220   3.718 -1.4623 -2.9976  0.4577
   85SOPE   H8S 7905   6.208   1.063   3.672  0.2988 -0.4685 -0.7940
   85SOPE   C29 7906   6.334   1.154   3.803 -0.8408 -0.3733  0.6739
   85SOPE   H91 7907   6.418   1.086   3.780 -0.7979 -0.1022  0.0123
   85SOPE  C210 7908   6.328   1.206   3.921 -0.7228  0.4643  0.5686
   85SOPE  H101 7909   6.401   1.162   3.990  0.3088 -1.8060 -1.7868
   85SOPE  C211 7910   6.228   1.303   3.972 -0.2474  1.3745  0.1303
   85SOPE  H11R 7911   6.168   1.353   3.893 -1.1366 -0.8832 -0.6971
   85SOPE  H11S 7912   6.270   1.390   4.028  1.7038  2.0067 -2.1437
   85SOPE  C212 7913   6.124   1.229   4.060  0.0226  0.2092  0.3379
   85SOPE  H12R 7914   6.177   1.203   4.154 -0.0976  0.0927  0.3741
   85SOPE  H12S 7915   6.092   1.135   4.010 -0.1823  1.4834 -2.1166
   85SOPE  C213 7916   6.006   1.314   4.110  0.2601 -0.1720 -0.2756
   85SOPE  H13R 7917   5.931   1.328   4.030  2.6586  1.8121 -2.3295
   85SOPE  H13S 7918   6.049   1.409   4.149 -1.2707  0.4851 -0.1224
   85SOPE  C214 7919   5.938   1.237   4.225  1.0326 -0.1251 -0.2329
   85SOPE  H14R 7920   6.015   1.220   4.304  0.6878  1.3649  0.4575
   85SOPE  H14S 7921   5.905   1.146   4.171  0.5410  1.5756 -3.0038
   85SOPE  C215 7922   5.815   1.314   4.284  0.0252  0.6611  0.1708
   85SOPE  H15R 7923   5.847   1.412   4.323  0.4236  0.2443  0.9128
   85SOPE  H15S 7924   5.775   1.251   4.367  0.9302 -0.2905 -0.0996
   85SOPE  C216 7925   5.711   1.350   4.177 -0.2581 -0.3049  0.2933
   85SOPE  H16R 7926   5.697   1.258   4.116 -0.5177 -1.2007  1.6488
   85SOPE  H16S 7927   5.749   1.427   4.107 -1.3603  0.1471  0.1752
   85SOPE  C217 7928   5.579   1.394   4.242 -0.0870  0.1428  0.2441
   85SOPE  H17R 7929   5.505   1.434   4.170 -0.5184  2.3045  1.7879
   85SOPE  H17S 7930   5.598   1.463   4.327  2.8444 -1.5669  1.1180
   85SOPE  C218 7931   5.507   1.267   4.299 -0.3352  0.0481  0.0729
   85SOPE  H18R 7932   5.491   1.209   4.206 -1.4215  0.2109  0.1472
   85SOPE  H18S 7933   5.409   1.306   4.335 -0.1823  1.1749 -0.6872
   85SOPE  H18T 7934   5.566   1.206   4.370 -0.5458 -0.7280 -0.4114
   85SOPE   C33 7935   6.044   1.568   3.138 -0.3164  0.4790  0.6448
   85SOPE   H3X 7936   5.963   1.522   3.198 -0.1232  1.1836  1.4646
   85SOPE   H3Y 7937   6.010   1.667   3.098  0.5103  1.0974  1.4216
   85SOPE   C34 7938   6.145   1.578   3.251 -0.1625 -0.8261  1.3744
   85SOPE   H4X 7939   6.210   1.491   3.276  3.0976  1.5762  1.9902
   85SOPE   H4Y 7940   6.098   1.622   3.342 -0.2431  4.1212 -0.7440
   85SOPE   C35 7941   6.257   1.685   3.214  0.1330  0.0690  0.0585
   85SOPE   H5X 7942   6.280   1.672   3.106 -0.3010  1.5107 -0.2295
   85SOPE   H5Y 7943   6.349   1.670   3.276 -0.2197  0.7328  0.7742
   85SOPE   C36 7944   6.216   1.832   3.241  0.0050  0.2844  0.1699
   85SOPE   H6X 7945   6.126   1.853   3.180  0.7672  3.4769 -0.0171
   85SOPE   H6Y 7946   6.296   1.897   3.199  0.1667  0.7338  1.1465
   85SOPE   C37 7947   6.205   1.867   3.392 -0.4314 -0.1266  0.9265
   85SOPE   H7X 7948   6.302   1.851   3.444  0.3367  1.5001  0.0844
   85SOPE   H7Y 7949   6.135   1.798   3.444  0.2074 -2.2336 -0.8449
   85SOPE   C38 7950   6.169   2.010   3.422 -0.2943  0.6900  0.2948
   85SOPE   H8X 7951   6.075   2.035   3.369  0.7339  2.1883 -0.8854
   85SOPE   H8Y 7952   6.248   2.080   3.388 -0.6078  1.6903  1.5365
   85SOPE   C39 7953   6.143   2.028   3.569 -0.7900 -0.6438 -0.0290
   85SOPE   H9X 7954   6.231   1.987   3.624  1.3703  3.3897 -0.0744
   85SOPE   H9Y 7955   6.045   1.979   3.588 -0.9409 -1.0196 -1.6430
   85SOPE  C310 7956   6.142   2.176   3.605  0.4572  0.1370  0.0331
   85SOPE  H10X 7957   6.052   2.220   3.557  0.2189  0.3121  0.6289
   85SOPE  H10Y 7958   6.231   2.231   3.567 -0.8175  0.9735 -1.9586
   85SOPE  C311 7959   6.123   2.189   3.761 -0.7669 -0.2172  0.0260
   85SOPE  H11X 7960   6.030   2.134   3.787  0.0781 -0.2413  3.4543
   85SOPE  H11Y 7961   6.108   2.291   3.803  1.7468 -0.8471  2.7334
   85SOPE  C312 7962   6.240   2.134   3.844 -0.8932  0.0807  0.0129
   85SOPE  H12X 7963   6.322   2.206   3.825 -1.4617  0.2627 -1.9856
   85SOPE  H12Y 7964   6.264   2.031   3.809 -1.4703  0.3031 -1.0760
   85SOPE  C313 7965   6.205   2.115   3.990 -0.6442 -0.1199  0.6813
   85SOPE  H13X 7966   6.102   2.074   3.992  0.3963 -3.1810 -1.2642
   85SOPE  H13Y 7967   6.217   2.215   4.037  2.1624 -0.8230  1.6889
   85SOPE  C314 7968   6.300   2.016   4.064  0.3921  0.3907  0.4598
   85SOPE  H14X 7969   6.401   2.061   4.058 -0.0873  1.3604 -0.9733
   85SOPE  H14Y 7970   6.301   1.918   4.011  1.0273  1.3183 -1.3496
   85SOPE  C315 7971   6.257   1.997   4.211  0.6828 -0.7440  0.6887
   85SOPE  H15X 7972   6.230   2.095   4.255  1.1293  0.7974 -2.2338
   85SOPE  H15Y 7973   6.326   1.940   4.277 -0.1374 -0.6559  1.6442
   85SOPE  C316 7974   6.122   1.919   4.214  0.6105 -0.1752 -0.1171
   85SOPE  H16X 7975   6.136   1.825   4.157  0.7293 -0.3421  0.1816
   85SOPE  H16Y 7976   6.047   1.979   4.159  0.5851  0.1120  0.2267
   85SOPE  C317 7977   6.068   1.886   4.353 -0.4972 -0.2622 -0.6057
   85SOPE  H17X 7978   6.025   1.974   4.405 -0.3279 -1.0775  0.9818
   85SOPE  H17Y 7979   6.146   1.851   4.424  0.7618 -0.4900 -2.0455
   85SOPE  C318 7980   5.957   1.781   4.345  0.3845 -0.7507  0.1326
   85SOPE  H18X 7981   5.881   1.819   4.274 -0.8143  0.7768  2.1165
   85SOPE  H18Y 7982   5.913   1.764   4.445  0.1682 -0.5707  0.0693
   85SOPE  H18Z 7983   6.006   1.693   4.299  0.3573  0.4073 -2.2595
   86SOPE     N 7984   0.970   0.233   2.756 -0.5118 -0.2795 -0.0702
   86SOPE   HN1 7985   1.002   0.332   2.754  2.2554 -1.0323  0.8715
   86SOPE   HN2 7986   0.912   0.218   2.672 -0.6831 -1.1952  0.1930
   86SOPE   HN3 7987   0.913   0.236   2.843 -1.2675 -2.7782 -0.3877
   86SOPE   C12 7988   1.078   0.123   2.765 -0.2820 -0.7300  0.0625
   86SOPE  H12A 7989   1.133   0.149   2.858 -0.2966 -3.1569  0.8186
   86SOPE  H12B 7990   1.138   0.121   2.671 -0.1605 -2.6356  0.1532
   86SOPE   C11 7991   1.013  -0.018   2.773 -0.5667  0.5229 -0.1970
   86SOPE  H11A 7992   0.954  -0.020   2.867  0.5002 -2.1185  0.4883
   86SOPE  H11B 7993   1.098  -0.088   2.788 -0.2944  0.7769 -0.5280
   86SOPE     P 7994   0.828  -0.172   2.662  0.0499 -0.1120 -0.0138
   86SOPE   O13 7995   0.896  -0.299   2.673  0.1485  0.4235  0.4225
   86SOPE   O14 7996   0.741  -0.162   2.542 -0.3131 -0.2585  0.1695
   86SOPE   O12 7997   0.927  -0.051   2.660  0.6701 -0.1650  0.7025
   86SOPE   O11 7998   0.739  -0.141   2.789  0.4096  0.2847 -0.4514
   86SOPE    C1 7999   0.665  -0.017   2.802  0.2390 -0.4994  0.2861
   86SOPE    HA 8000   0.691   0.053   2.720  1.5709 -2.3512 -0.9516
   86SOPE    HB 8001   0.694   0.040   2.893 -1.5032  1.6922 -0.4620
   86SOPE    C2 8002   0.504  -0.038   2.804  0.6141  0.3049 -0.3310
   86SOPE    HS 8003   0.466   0.066   2.811 -0.9779 -0.2983  0.3673
   86SOPE   O21 8004   0.451  -0.125   2.910 -0.2439 -0.1855  0.8982
   86SOPE   C21 8005   0.450  -0.068   3.032 -0.7605 -0.0151  0.1276
   86SOPE   O22 8006   0.499   0.041   3.058  0.1049  0.3686 -0.5563
   86SOPE   C22 8007   0.402  -0.161   3.135 -0.1902  0.2213  0.2463
   86SOPE   H2R 8008   0.485  -0.235   3.139  0.0553  0.4837 -0.0031
   86SOPE   H2S 8009   0.301  -0.199   3.106 -0.0743  0.2607 -0.2225
   86SOPE    C3 8010   0.461  -0.097   2.663  0.2978  0.6779  0.6617
   86SOPE    HX 8011   0.518  -0.189   2.638  0.3379  0.9174 -0.1572
   86SOPE    HY 8012   0.502  -0.037   2.580 -0.1397 -1.7231 -1.4009
   86SOPE   O31 8013   0.322  -0.103   2.642  0.4759 -0.2152  0.3279
   86SOPE   C31 8014   0.250   0.008   2.652  0.6138  0.0905  0.2253
   86SOPE   O32 8015   0.295   0.124   2.662 -0.3150  0.1436 -0.3135
   86SOPE   C32 8016   0.108  -0.022   2.641 -0.3982  0.1944 -0.1439
   86SOPE   H2X 8017   0.073  -0.127   2.648  1.0856 -0.3127  0.0131
   86SOPE   H2Y 8018   0.076   0.014   2.541 -0.8551 -1.6628 -0.7058
   86SOPE   C23 8019   0.391  -0.100   3.274  0.3711  0.4004  0.5080
   86SOPE   H3R 8020   0.339  -0.002   3.262 -1.9988 -0.9390 -0.7883
   86SOPE   H3S 8021   0.494  -0.083   3.314  0.0567  4.8876  0.0078
   86SOPE   C24 8022   0.320  -0.196   3.374  0.1372 -0.5307  0.0218
   86SOPE   H4R 8023   0.215  -0.211   3.340  0.7574 -0.2087 -2.2204
   86SOPE   H4S 8024   0.384  -0.287   3.381  1.0207 -0.0532 -1.3786
   86SOPE   C25 8025   0.295  -0.133   3.511 -0.3792  0.6756 -0.0244
   86SOPE   H5R 8026   0.396  -0.127   3.555 -0.9315  2.3977  1.0888
   86SOPE   H5S 8027   0.254  -0.030   3.502 -0.1589  0.7883  0.2598
   86SOPE   C26 8028   0.201  -0.230   3.591  0.0097 -0.4890 -0.1988
   86SOPE   H6R 8029   0.108  -0.221   3.531  0.0933  0.1542 -0.2461
   86SOPE   H6S 8030   0.239  -0.333   3.575  1.3671  0.1276 -1.1362
   86SOPE   C27 8031   0.183  -0.190   3.739 -0.7643  0.8287  0.2800
   86SOPE   H7R 8032   0.243  -0.257   3.803 -0.5931  1.6543  1.0101
   86SOPE   H7S 8033   0.233  -0.090   3.744 -1.5139  1.3005 -1.0589
   86SOPE   C28 8034   0.041  -0.168   3.787 -0.7123  0.0551 -0.3135
   86SOPE   H8R 8035   0.053  -0.146   3.895  2.7812 -2.3102 -0.0555
   86SOPE   H8S 8036   0.016  -0.074   3.734  3.0646  0.7178 -1.1959
   86SOPE   C29 8037  -0.045  -0.290   3.766 -0.1331  0.1010  0.5155
   86SOPE   H91 8038  -0.005  -0.348   3.681 -1.3331  0.4189 -0.2869
   86SOPE  C210 8039  -0.148  -0.328   3.844  1.0989 -0.0026  0.0966
   86SOPE  H101 8040  -0.209  -0.412   3.808  1.4022 -0.0254 -0.3727
   86SOPE  C211 8041  -0.191  -0.261   3.978  0.1715  0.2741 -0.5700
   86SOPE  H11R 8042  -0.098  -0.230   4.031  0.6292  1.8069 -2.1617
   86SOPE  H11S 8043  -0.259  -0.327   4.036  0.9295  0.8867  1.0858
   86SOPE  C212 8044  -0.268  -0.130   3.953 -0.0964 -0.1763  0.3528
   86SOPE  H12R 8045  -0.362  -0.152   3.897  0.0619 -1.7287  0.6422
   86SOPE  H12S 8046  -0.207  -0.052   3.903 -0.6037  0.9668  1.4503
   86SOPE  C213 8047  -0.319  -0.069   4.083 -0.3752  0.3651 -0.0091
   86SOPE  H13R 8048  -0.240  -0.060   4.160 -0.3860  2.4929 -0.1791
   86SOPE  H13S 8049  -0.399  -0.139   4.116 -1.1430  0.1250 -2.1866
   86SOPE  C214 8050  -0.386   0.065   4.076  0.4320 -0.3034  0.1976
   86SOPE  H14R 8051  -0.451   0.054   3.988 -0.9779 -0.8861  1.2794
   86SOPE  H14S 8052  -0.309   0.138   4.041  0.1267 -0.4321 -0.7636
   86SOPE  C215 8053  -0.465   0.111   4.199 -0.7803 -0.2514  0.3638
   86SOPE  H15R 8054  -0.459   0.217   4.232  2.3308 -0.7045  1.5372
   86SOPE  H15S 8055  -0.411   0.057   4.279  1.4135  0.7588 -0.3712
   86SOPE  C216 8056  -0.603   0.045   4.197  0.5734  0.5052 -0.0404
   86SOPE  H16R 8057  -0.598  -0.065   4.184 -1.3655  0.1660  1.6263
   86SOPE  H16S 8058  -0.668   0.085   4.117 -1.2482 -0.5685  0.8307
   86SOPE  C217 8059  -0.680   0.066   4.330  0.2032  0.4781 -0.6835
   86SOPE  H17R 8060  -0.638   0.024   4.424  0.9177  1.5615 -0.4976
   86SOPE  H17S 8061  -0.775   0.010   4.315  0.4928  0.3062 -1.9258
   86SOPE  C218 8062  -0.715   0.211   4.355 -0.8319 -0.6712  0.0354
   86SOPE  H18R 8063  -0.766   0.248   4.263 -0.7415  0.0515  0.2677
   86SOPE  H18S 8064  -0.623   0.271   4.368 -1.0458  0.1327 -1.8841
   86SOPE  H18T 8065  -0.784   0.219   4.442  1.2109  0.7584  1.6216
   86SOPE   C33 8066   0.033   0.047   2.756 -0.0725  0.9124 -0.2744
   86SOPE   H3X 8067  -0.077   0.034   2.749 -0.5214  0.3567  4.7146
   86SOPE   H3Y 8068   0.073   0.150   2.763  3.6938 -0.3371 -0.6611
   86SOPE   C34 8069   0.082  -0.010   2.896 -0.8890  0.3104  0.3756
   86SOPE   H4X 8070   0.193  -0.011   2.896 -0.8884  0.4209 -0.2014
   86SOPE   H4Y 8071   0.043  -0.114   2.903  0.3231 -0.2037 -0.1990
   86SOPE   C35 8072   0.017   0.061   3.022  0.3390  0.3481  0.2777
   86SOPE   H5X 8073  -0.090   0.075   2.995  0.6586 -0.7307 -1.7330
   86SOPE   H5Y 8074   0.061   0.163   3.026  0.2705  0.5328 -2.1916
   86SOPE   C36 8075   0.042  -0.035   3.143 -0.1530 -0.0680 -0.5895
   86SOPE   H6X 8076   0.148  -0.025   3.175 -0.6122  2.9153  0.3073
   86SOPE   H6Y 8077  -0.001  -0.133   3.112 -0.3359 -0.8259  1.8418
   86SOPE   C37 8078  -0.030   0.001   3.273  0.7456 -0.0445 -0.3933
   86SOPE   H7X 8079  -0.007  -0.071   3.354 -1.4309 -0.1826  0.1656
   86SOPE   H7Y 8080  -0.140  -0.002   3.260  0.6706  0.4141  0.1145
   86SOPE   C38 8081   0.014   0.134   3.326  0.3009 -0.2983 -0.7174
   86SOPE   H8X 8082  -0.023   0.212   3.255 -1.1124  0.2679  0.5878
   86SOPE   H8Y 8083   0.121   0.158   3.346 -0.2293  2.4427 -0.7407
   86SOPE   C39 8084  -0.065   0.173   3.453  0.0256  0.1241  0.3041
   86SOPE   H9X 8085  -0.024   0.126   3.545  0.4507 -0.6358 -0.2685
   86SOPE   H9Y 8086  -0.167   0.130   3.443 -0.3097  0.8188  0.6273
   86SOPE  C310 8087  -0.071   0.327   3.459  0.0403  0.1242  0.5246
   86SOPE  H10X 8088  -0.134   0.347   3.369  0.9903 -2.4226 -0.8067
   86SOPE  H10Y 8089   0.025   0.380   3.445 -0.1466  0.3340  0.0002
   86SOPE  C311 8090  -0.130   0.374   3.594  0.2695 -0.5769 -0.5151
   86SOPE  H11X 8091  -0.072   0.318   3.669  0.4081  0.3435  0.0751
   86SOPE  H11Y 8092  -0.236   0.342   3.607  0.9593 -2.1408  1.6782
   86SOPE  C312 8093  -0.111   0.523   3.616  0.5596  0.6142 -0.1760
   86SOPE  H12X 8094  -0.190   0.562   3.684  0.3067  1.0478 -0.7092
   86SOPE  H12Y 8095  -0.118   0.571   3.516 -2.0646  1.5173  0.3542
   86SOPE  C313 8096   0.026   0.553   3.680  0.3215 -0.6056  0.7289
   86SOPE  H13X 8097   0.101   0.506   3.613 -0.5621 -0.2072 -0.5889
   86SOPE  H13Y 8098   0.039   0.521   3.786 -1.5858 -1.1953  0.8391
   86SOPE  C314 8099   0.053   0.706   3.687 -0.7842 -0.1201 -0.5843
   86SOPE  H14X 8100  -0.032   0.750   3.745  0.5602 -0.2646  1.6020
   86SOPE  H14Y 8101   0.054   0.757   3.588 -0.0653 -0.0241 -0.5307
   86SOPE  C315 8102   0.182   0.745   3.760  0.2450  0.5134  0.0548
   86SOPE  H15X 8103   0.208   0.848   3.726  2.6339 -0.2133 -0.5441
   86SOPE  H15Y 8104   0.260   0.679   3.715  0.5866 -0.1069  1.4893
   86SOPE  C316 8105   0.182   0.745   3.920 -0.3872 -0.2778  0.2809
   86SOPE  H16X 8106   0.165   0.643   3.960  1.9844 -0.1672  1.7678
   86SOPE  H16Y 8107   0.100   0.810   3.957  0.5373 -0.2573  2.4151
   86SOPE  C317 8108   0.317   0.800   3.976  0.0675 -0.0364  0.6426
   86SOPE  H17X 8109   0.344   0.894   3.922 -0.3802 -0.4488 -0.3451
   86SOPE  H17Y 8110   0.392   0.728   3.938  1.2101  1.6902 -0.5112
   86SOPE  C318 8111   0.333   0.814   4.127  0.3761  0.0595  0.2300
   86SOPE  H18X 8112   0.416   0.884   4.150 -0.1687  0.8053 -0.0750
   86SOPE  H18Y 8113   0.356   0.716   4.176 -0.2296 -0.3885 -0.3632
   86SOPE  H18Z 8114   0.244   0.856   4.179  1.7516  0.9739  1.9717
   87SOPE     N 8115   6.811   5.511   2.236 -0.5843  0.2098  0.4483
   87SOPE   HN1 8116   6.757   5.426   2.261  1.0892 -1.8487 -2.3485
   87SOPE   HN2 8117   6.763   5.584   2.180 -0.1467  2.4482  2.7907
   87SOPE   HN3 8118   6.899   5.492   2.183 -1.5802  0.8996 -1.5407
   87SOPE   C12 8119   6.868   5.580   2.361  0.4348  0.0690 -0.4865
   87SOPE  H12A 8120   6.789   5.573   2.438  1.6275 -2.0652  0.6181
   87SOPE  H12B 8121   6.895   5.684   2.331 -0.0711  0.5759  0.7802
   87SOPE   C11 8122   6.992   5.511   2.422  1.0383  0.3337 -0.2123
   87SOPE  H11A 8123   6.962   5.406   2.442  0.7910  0.3023 -0.7298
   87SOPE  H11B 8124   7.021   5.552   2.521 -0.4336  3.1781 -0.8511
   87SOPE     P 8125   7.185   5.649   2.304 -0.1393 -0.3816 -0.2614
   87SOPE   O13 8126   7.102   5.742   2.222  0.3844 -0.1296 -0.3629
   87SOPE   O14 8127   7.309   5.597   2.242 -0.1991  0.2123 -0.2136
   87SOPE   O12 8128   7.093   5.523   2.325  0.3270 -0.3715  0.3410
   87SOPE   O11 8129   7.206   5.709   2.448 -0.6120  0.0317  0.7082
   87SOPE    C1 8130   7.332   5.682   2.515 -0.0206 -0.1122  0.3092
   87SOPE    HA 8131   7.358   5.780   2.560  1.0973 -0.3441  0.1905
   87SOPE    HB 8132   7.416   5.635   2.459  0.3757  1.0737 -0.1042
   87SOPE    C2 8133   7.310   5.583   2.633 -0.4000 -0.7800  0.3253
   87SOPE    HS 8134   7.283   5.488   2.583 -1.9719 -0.0915 -0.1863
   87SOPE   O21 8135   7.192   5.622   2.707 -0.2674 -0.5050 -0.3932
   87SOPE   C21 8136   7.133   5.530   2.786  0.1799 -0.9950 -0.1438
   87SOPE   O22 8137   7.165   5.415   2.791 -0.5994  0.1444  0.5117
   87SOPE   C22 8138   7.022   5.600   2.858 -0.8111 -0.5208 -0.0915
   87SOPE   H2R 8139   6.926   5.556   2.822 -1.9455  0.0414  2.0583
   87SOPE   H2S 8140   7.018   5.704   2.818 -1.0388 -0.3860  0.2752
   87SOPE    C3 8141   7.435   5.568   2.725  0.3651 -0.6135 -0.2945
   87SOPE    HX 8142   7.527   5.546   2.666  0.2971 -1.8403  0.0179
   87SOPE    HY 8143   7.426   5.481   2.794  0.4742 -0.1018  0.3755
   87SOPE   O31 8144   7.467   5.688   2.790 -0.0580 -0.7613 -0.0771
   87SOPE   C31 8145   7.416   5.705   2.909  0.0536 -0.4796 -0.3668
   87SOPE   O32 8146   7.367   5.615   2.980 -0.2956  0.7695  0.1059
   87SOPE   C32 8147   7.413   5.852   2.940 -0.0751  0.2964  0.2266
   87SOPE   H2X 8148   7.332   5.913   2.894 -1.5937 -0.3228  1.9605
   87SOPE   H2Y 8149   7.510   5.889   2.900 -0.2858 -0.6054 -1.1806
   87SOPE   C23 8150   7.031   5.611   3.019 -0.3526  0.7072 -0.4303
   87SOPE   H3R 8151   6.994   5.708   3.057  0.6233  0.5462  1.0040
   87SOPE   H3S 8152   7.135   5.611   3.059 -0.7490  1.4972  0.6448
   87SOPE   C24 8153   6.959   5.492   3.087 -0.8207  0.1020  0.4784
   87SOPE   H4R 8154   6.849   5.497   3.070 -0.9046  0.4592  1.0974
   87SOPE   H4S 8155   7.004   5.395   3.055 -0.8773  0.4565 -0.7252
   87SOPE   C25 8156   6.956   5.495   3.244  0.3160 -1.0347  0.4074
   87SOPE   H5R 8157   6.912   5.592   3.275 -0.7253 -1.7988  1.3910
   87SOPE   H5S 8158   6.886   5.412   3.267  0.8530 -1.2099  1.4916
   87SOPE   C26 8159   7.092   5.466   3.312 -0.0291 -0.1146  0.0277
   87SOPE   H6R 8160   7.175   5.530   3.275 -0.3630  2.2594  2.9859
   87SOPE   H6S 8161   7.072   5.471   3.421 -1.5032 -0.5189 -0.2063
   87SOPE   C27 8162   7.122   5.316   3.295  0.1259 -0.1756 -0.7799
   87SOPE   H7R 8163   7.026   5.260   3.296  1.1974 -2.1305  1.2015
   87SOPE   H7S 8164   7.162   5.315   3.192  0.7613  0.4036 -0.5444
   87SOPE   C28 8165   7.208   5.263   3.412 -0.1762  0.7308  0.3387
   87SOPE   H8R 8166   7.297   5.328   3.426  0.5982 -0.1535 -0.3541
   87SOPE   H8S 8167   7.163   5.260   3.513 -0.0103 -0.1605  0.3934
   87SOPE   C29 8168   7.265   5.127   3.385 -0.3543  0.5374  0.3561
   87SOPE   H91 8169   7.323   5.118   3.292  0.8537  0.6416  1.0744
   87SOPE  C210 8170   7.249   5.018   3.458 -0.1027  0.1132  0.6275
   87SOPE  H101 8171   7.303   4.931   3.416 -0.4081  0.1967  0.0526
   87SOPE  C211 8172   7.165   4.998   3.588 -0.6218 -0.2837  0.4033
   87SOPE  H11R 8173   7.070   4.943   3.570 -0.0684 -1.2215  0.2747
   87SOPE  H11S 8174   7.139   5.089   3.647  0.7907  0.4549 -0.0759
   87SOPE  C212 8175   7.244   4.919   3.693 -0.3980 -0.3751 -0.8280
   87SOPE  H12R 8176   7.274   4.823   3.644  0.3066 -0.3244 -0.4990
   87SOPE  H12S 8177   7.173   4.889   3.774 -0.3893  1.0228 -0.2849
   87SOPE  C213 8178   7.370   4.991   3.744  0.2318  0.1766 -0.0859
   87SOPE  H13R 8179   7.333   5.093   3.764 -2.2917 -0.3726 -1.5318
   87SOPE  H13S 8180   7.448   4.981   3.665  1.2324  0.1404  0.8845
   87SOPE  C214 8181   7.423   4.943   3.881  0.2598  0.9397  0.0479
   87SOPE  H14R 8182   7.351   4.950   3.966 -0.1154  3.0519 -0.3774
   87SOPE  H14S 8183   7.516   5.000   3.900  0.5578  0.8302 -1.0335
   87SOPE  C215 8184   7.447   4.790   3.874 -0.4333 -0.2691 -0.2576
   87SOPE  H15R 8185   7.502   4.760   3.782  0.0193 -0.3230  0.0260
   87SOPE  H15S 8186   7.351   4.735   3.865  0.3187 -1.4945 -1.3792
   87SOPE  C216 8187   7.531   4.733   3.991  0.1903  0.2789  0.1026
   87SOPE  H16R 8188   7.505   4.779   4.088 -0.6262 -0.7259  0.3800
   87SOPE  H16S 8189   7.638   4.724   3.963  0.2445 -1.5409  0.7671
   87SOPE  C217 8190   7.492   4.588   4.035  0.4381 -0.5009 -0.5852
   87SOPE  H17R 8191   7.488   4.512   3.954  1.9249 -2.2547  0.8932
   87SOPE  H17S 8192   7.389   4.590   4.077 -0.0030 -1.0512 -1.6015
   87SOPE  C218 8193   7.583   4.528   4.141  0.4094  0.2078  0.6290
   87SOPE  H18R 8194   7.564   4.576   4.240 -3.4733  0.8042 -0.2396
   87SOPE  H18S 8195   7.687   4.543   4.106  0.1108  1.2299  0.1458
   87SOPE  H18T 8196   7.571   4.418   4.152 -0.3797  0.2095 -0.1143
   87SOPE   C33 8197   7.397   5.892   3.089 -0.6271  0.2563  0.1067
   87SOPE   H3X 8198   7.453   5.986   3.106 -0.5823  0.0195  1.3509
   87SOPE   H3Y 8199   7.453   5.815   3.145 -0.8702 -0.9244 -1.2279
   87SOPE   C34 8200   7.250   5.908   3.140 -0.7266  0.1270 -0.1657
   87SOPE   H4X 8201   7.215   5.802   3.143 -0.7584  0.1519  1.7588
   87SOPE   H4Y 8202   7.191   5.953   3.058 -5.1923 -0.8465  2.2131
   87SOPE   C35 8203   7.231   5.975   3.281 -0.3282 -0.2143  0.3419
   87SOPE   H5X 8204   7.132   5.947   3.321  0.4249 -4.3426 -0.2248
   87SOPE   H5Y 8205   7.260   6.082   3.269  1.9488 -0.7865  0.2472
   87SOPE   C36 8206   7.331   5.915   3.379  0.3366  0.3696  0.3661
   87SOPE   H6X 8207   7.335   5.977   3.472  0.4853 -0.9993  1.3034
   87SOPE   H6Y 8208   7.436   5.910   3.342  0.1585 -2.3382  0.0645
   87SOPE   C37 8209   7.303   5.772   3.422  0.0178  0.1011 -0.2690
   87SOPE   H7X 8210   7.336   5.702   3.342  1.9655  1.2285 -0.5207
   87SOPE   H7Y 8211   7.193   5.768   3.430  0.0442 -2.6844 -0.3967
   87SOPE   C38 8212   7.364   5.750   3.569 -0.3289  0.0533  0.1904
   87SOPE   H8X 8213   7.342   5.840   3.631  2.1424  0.6266  0.3428
   87SOPE   H8Y 8214   7.474   5.750   3.555 -0.2475 -0.3026  0.8256
   87SOPE   C39 8215   7.323   5.612   3.620 -0.7039  0.7670 -0.0879
   87SOPE   H9X 8216   7.324   5.540   3.535  0.8940  2.6201 -1.7457
   87SOPE   H9Y 8217   7.223   5.626   3.666  0.1203  0.5408  1.8507
   87SOPE  C310 8218   7.419   5.546   3.726 -0.1392  0.3366  0.3751
   87SOPE  H10X 8219   7.514   5.531   3.671 -1.6537 -0.0078 -2.3386
   87SOPE  H10Y 8220   7.376   5.449   3.757 -1.2536  1.0411  1.0944
   87SOPE  C311 8221   7.430   5.622   3.852 -0.5563 -0.6998  0.4407
   87SOPE  H11X 8222   7.332   5.649   3.898 -0.4553 -0.4484  0.5085
   87SOPE  H11Y 8223   7.490   5.712   3.826 -1.9474  0.5615  1.3933
   87SOPE  C312 8224   7.516   5.558   3.956  0.0911  0.4997  0.7485
   87SOPE  H12X 8225   7.528   5.631   4.039  0.7685  1.3335 -0.0661
   87SOPE  H12Y 8226   7.615   5.530   3.915 -0.3666  0.0227 -0.0531
   87SOPE  C313 8227   7.470   5.418   4.000 -0.0824  0.8034  0.7628
   87SOPE  H13X 8228   7.467   5.347   3.914  1.1394  0.7630  0.7235
   87SOPE  H13Y 8229   7.372   5.441   4.045 -0.0994  0.8367  0.7087
   87SOPE  C314 8230   7.579   5.361   4.097  0.5555  0.0962 -0.1658
   87SOPE  H14X 8231   7.680   5.352   4.053  0.3450 -2.4998 -0.2305
   87SOPE  H14Y 8232   7.548   5.265   4.144 -0.8053  1.1438  1.1953
   87SOPE  C315 8233   7.577   5.457   4.218  0.2401 -0.2802 -0.0628
   87SOPE  H15X 8234   7.476   5.464   4.263  0.4080 -1.6417  0.5779
   87SOPE  H15Y 8235   7.613   5.555   4.180  1.4379 -1.1285 -1.2322
   87SOPE  C316 8236   7.668   5.410   4.322 -0.4702  0.0855 -0.0358
   87SOPE  H16X 8237   7.664   5.484   4.405 -3.0381 -0.9237  0.8588
   87SOPE  H16Y 8238   7.771   5.397   4.284 -0.0461 -1.2040  1.4420
   87SOPE  C317 8239   7.615   5.282   4.395  0.1875  0.1827  0.6687
   87SOPE  H17X 8240   7.619   5.197   4.324  2.4534 -0.3002  1.3052
   87SOPE  H17Y 8241   7.509   5.294   4.428  0.0055 -1.5613  0.8106
   87SOPE  C318 8242   7.694   5.230   4.523  0.2713 -0.3450 -0.4449
   87SOPE  H18X 8243   7.795   5.205   4.486  0.4838 -1.0754  0.6070
   87SOPE  H18Y 8244   7.647   5.135   4.556  1.0254  0.0187  1.8733
   87SOPE  H18Z 8245   7.704   5.306   4.604  2.8639  0.5883 -1.5493
   88SOPE     N 8246   5.244   6.104   2.563  0.4082  0.2767 -0.3928
   88SOPE   HN1 8247   5.332   6.096   2.509 -0.0634  0.1294 -1.1592
   88SOPE   HN2 8248   5.191   6.034   2.506  0.1041  0.7081 -0.6420
   88SOPE   HN3 8249   5.190   6.188   2.534 -1.9994 -1.0363  0.0244
   88SOPE   C12 8250   5.257   6.074   2.701  0.1993  0.1692  0.3423
   88SOPE  H12A 8251   5.317   6.155   2.748 -1.2364  1.1902  0.4784
   88SOPE  H12B 8252   5.307   5.977   2.725 -0.0204  0.3499  1.6116
   88SOPE   C11 8253   5.112   6.093   2.772 -0.9198  0.2884  0.6317
   88SOPE  H11A 8254   5.068   6.193   2.752  0.0058  0.5452 -0.1960
   88SOPE  H11B 8255   5.140   6.087   2.880  2.3613  0.9868 -0.0581
   88SOPE     P 8256   4.983   5.863   2.826  0.2837  0.3764 -0.2519
   88SOPE   O13 8257   5.096   5.809   2.909 -0.3308 -0.0035 -0.1784
   88SOPE   O14 8258   4.897   5.765   2.754  0.2995 -0.4545  0.2561
   88SOPE   O12 8259   5.022   5.986   2.734 -0.1388  0.0913  0.0626
   88SOPE   O11 8260   4.889   5.932   2.931 -0.8686 -0.2612 -0.2725
   88SOPE    C1 8261   4.820   6.056   2.917  0.6056  0.5708  0.5992
   88SOPE    HA 8262   4.789   6.065   2.811  2.1116 -3.2558 -0.3052
   88SOPE    HB 8263   4.879   6.140   2.960  0.4932  0.1647  1.5710
   88SOPE    C2 8264   4.687   6.051   3.001  0.1816  0.4477  0.0889
   88SOPE    HS 8265   4.627   6.144   2.984 -1.0064 -0.2327  0.4544
   88SOPE   O21 8266   4.725   6.029   3.143  0.1872  0.1872  0.1554
   88SOPE   C21 8267   4.754   6.137   3.212  0.1305 -0.0500 -0.4690
   88SOPE   O22 8268   4.741   6.250   3.163  0.0869 -0.2766 -0.7751
   88SOPE   C22 8269   4.823   6.098   3.345  0.0179  0.1600 -0.0384
   88SOPE   H2R 8270   4.929   6.121   3.324 -0.2898  0.1518 -1.7652
   88SOPE   H2S 8271   4.810   5.989   3.365  2.2709  0.1781  1.9568
   88SOPE    C3 8272   4.600   5.933   2.952 -0.6100  0.2795  0.4507
   88SOPE    HX 8273   4.654   5.840   2.978 -0.2257  0.9592  2.1878
   88SOPE    HY 8274   4.599   5.929   2.841  1.2332  2.7369  0.2456
   88SOPE   O31 8275   4.469   5.937   3.000 -0.0462 -0.0775  0.0754
   88SOPE   C31 8276   4.448   5.866   3.112 -0.5919  0.1202 -0.0109
   88SOPE   O32 8277   4.530   5.787   3.158  0.1389  0.2334 -0.2693
   88SOPE   C32 8278   4.307   5.887   3.166  0.0431 -0.0629  0.3301
   88SOPE   H2X 8279   4.276   5.790   3.210  0.6885  0.5598  2.2402
   88SOPE   H2Y 8280   4.239   5.904   3.080 -0.7393 -2.1942  0.4803
   88SOPE   C23 8281   4.765   6.172   3.469  0.0066 -0.2047  0.3601
   88SOPE   H3R 8282   4.654   6.168   3.470 -0.1277  1.2577  3.4479
   88SOPE   H3S 8283   4.793   6.280   3.465  4.1454 -0.8532  4.3096
   88SOPE   C24 8284   4.812   6.109   3.604 -0.0773  0.6026  0.2583
   88SOPE   H4R 8285   4.814   5.998   3.605  0.2224  0.5916 -0.6634
   88SOPE   H4S 8286   4.919   6.140   3.605  0.3414 -0.5079 -2.5836
   88SOPE   C25 8287   4.729   6.163   3.719  0.2370 -0.2715 -0.6440
   88SOPE   H5R 8288   4.723   6.273   3.707  2.2180  0.3816  2.9564
   88SOPE   H5S 8289   4.630   6.114   3.712 -0.2352  0.7521 -1.2861
   88SOPE   C26 8290   4.797   6.135   3.858  0.6570  0.4074 -0.1104
   88SOPE   H6R 8291   4.817   6.029   3.885  0.7480  0.1840 -1.0358
   88SOPE   H6S 8292   4.894   6.189   3.852  0.8162  0.0122 -1.2163
   88SOPE   C27 8293   4.712   6.196   3.976  0.9119  0.3612 -0.4707
   88SOPE   H7R 8294   4.670   6.295   3.950 -0.6249 -0.2812 -0.5027
   88SOPE   H7S 8295   4.620   6.135   3.985  0.9659  0.5781  2.0672
   88SOPE   C28 8296   4.781   6.209   4.111  0.3362  0.3344 -0.1728
   88SOPE   H8R 8297   4.824   6.312   4.106  0.7169  0.1620 -0.5410
   88SOPE   H8S 8298   4.695   6.211   4.181 -0.8151 -0.1744 -1.5248
   88SOPE   C29 8299   4.892   6.114   4.154 -0.0898 -0.1700 -0.2011
   88SOPE   H91 8300   4.984   6.123   4.093  0.5307 -0.2225  0.7172
   88SOPE  C210 8301   4.902   6.029   4.258 -0.7784  0.3739  0.4307
   88SOPE  H101 8302   4.986   5.958   4.266 -0.9457  0.1959  0.6102
   88SOPE  C211 8303   4.800   6.006   4.372  0.0922  0.1854  0.2399
   88SOPE  H11R 8304   4.772   5.900   4.382 -2.7559  0.8175 -0.1909
   88SOPE  H11S 8305   4.704   6.055   4.344  0.7471  0.4348 -1.7036
   88SOPE  C212 8306   4.851   6.048   4.515  0.1494  0.0967 -1.0042
   88SOPE  H12R 8307   4.773   6.029   4.592  0.6299  1.8378 -0.0273
   88SOPE  H12S 8308   4.877   6.155   4.526  0.6693  0.1301 -2.3138
   88SOPE  C213 8309   4.988   5.975   4.555  0.2975  0.1378  0.2295
   88SOPE  H13R 8310   5.068   6.001   4.482  0.8286 -1.5688  0.1614
   88SOPE  H13S 8311   4.974   5.866   4.571 -1.6617  0.7009  3.1959
   88SOPE  C214 8312   5.038   6.024   4.690  0.5879  0.1250  0.2616
   88SOPE  H14R 8313   5.125   5.959   4.715 -0.7722 -1.4168  1.1542
   88SOPE  H14S 8314   4.968   6.002   4.774  0.4277  0.3715  0.1933
   88SOPE  C215 8315   5.081   6.170   4.699  0.1143  0.3988  0.0483
   88SOPE  H15R 8316   5.126   6.197   4.797  0.0615  3.7885 -0.7532
   88SOPE  H15S 8317   4.991   6.232   4.682 -1.3801 -1.3519  1.2423
   88SOPE  C216 8318   5.185   6.206   4.593  0.4343  0.0551  0.1985
   88SOPE  H16R 8319   5.142   6.205   4.490  1.0165  0.2256 -0.0534
   88SOPE  H16S 8320   5.271   6.136   4.593 -1.5196 -2.5034  0.1795
   88SOPE  C217 8321   5.243   6.351   4.615  0.1528 -0.2647 -0.7609
   88SOPE  H17R 8322   5.269   6.356   4.722 -2.0112 -0.3116 -0.1905
   88SOPE  H17S 8323   5.156   6.419   4.599  0.0429 -0.2508 -0.1032
   88SOPE  C218 8324   5.366   6.380   4.519  0.6808  0.1605 -1.1458
   88SOPE  H18R 8325   5.430   6.289   4.524 -1.6054 -1.4867  2.4537
   88SOPE  H18S 8326   5.412   6.472   4.560  0.6468 -0.5473  0.5655
   88SOPE  H18T 8327   5.334   6.398   4.414 -1.4228  1.1800 -0.3703
   88SOPE   C33 8328   4.304   5.999   3.267 -0.2321  0.5701  0.1953
   88SOPE   H3X 8329   4.199   6.033   3.283  0.6747  3.9588 -0.2635
   88SOPE   H3Y 8330   4.350   6.093   3.229 -0.3779  0.6928  0.3217
   88SOPE   C34 8331   4.355   5.961   3.410  0.0891 -0.0748  0.6146
   88SOPE   H4X 8332   4.458   5.991   3.437 -0.5777  1.1738  1.8546
   88SOPE   H4Y 8333   4.338   5.853   3.428  1.2754 -0.1619  1.3152
   88SOPE   C35 8334   4.276   6.036   3.517  0.0758 -0.0224  0.4389
   88SOPE   H5X 8335   4.167   6.015   3.507  0.2826 -1.3943  0.9700
   88SOPE   H5Y 8336   4.288   6.144   3.492  0.5231 -0.1867 -0.0561
   88SOPE   C36 8337   4.318   5.987   3.665  0.0207 -0.6490 -0.4408
   88SOPE   H6X 8338   4.427   5.995   3.687 -0.3361 -0.0976  1.2761
   88SOPE   H6Y 8339   4.274   5.887   3.681  0.8285 -0.6527  2.2493
   88SOPE   C37 8340   4.262   6.078   3.773  0.4000  0.4864  0.1893
   88SOPE   H7X 8341   4.154   6.080   3.745 -0.0494 -1.9600  1.5419
   88SOPE   H7Y 8342   4.300   6.181   3.755  0.6642  0.3961  0.2223
   88SOPE   C38 8343   4.295   6.034   3.916 -0.3806 -0.5302 -0.7254
   88SOPE   H8X 8344   4.406   6.034   3.922 -0.3724 -0.8837 -0.8114
   88SOPE   H8Y 8345   4.264   5.932   3.950 -1.6752 -0.1058 -0.5828
   88SOPE   C39 8346   4.238   6.132   4.018  0.4064  0.1208  0.0802
   88SOPE   H9X 8347   4.129   6.116   4.002  0.4014  1.0727 -1.0162
   88SOPE   H9Y 8348   4.261   6.239   3.995  2.7992 -0.5229 -0.7815
   88SOPE  C310 8349   4.258   6.092   4.167 -0.4849 -0.7057 -0.0564
   88SOPE  H10X 8350   4.209   5.996   4.193 -0.3013 -0.6649  0.4497
   88SOPE  H10Y 8351   4.197   6.165   4.224  2.5170  1.2990  0.8398
   88SOPE  C311 8352   4.405   6.118   4.214  1.2879 -1.5027  0.1344
   88SOPE  H11X 8353   4.435   6.213   4.165 -0.3931  0.2337  2.2793
   88SOPE  H11Y 8354   4.474   6.039   4.176  1.3358 -1.4494  0.1105
   88SOPE  C312 8355   4.420   6.139   4.364 -0.2545  0.0938 -0.0861
   88SOPE  H12X 8356   4.357   6.219   4.409 -2.4775 -1.1343 -0.8378
   88SOPE  H12Y 8357   4.518   6.190   4.376 -0.2319  0.1472 -0.5047
   88SOPE  C313 8358   4.402   6.011   4.449  0.0656  0.3343  0.3756
   88SOPE  H13X 8359   4.457   5.928   4.400 -1.8077 -0.9204  0.3058
   88SOPE  H13Y 8360   4.296   5.976   4.452 -0.2069  1.1994  1.8039
   88SOPE  C314 8361   4.443   6.020   4.597  0.4105 -0.5981  0.3625
   88SOPE  H14X 8362   4.548   6.056   4.609  0.0019  0.1289  2.0342
   88SOPE  H14Y 8363   4.420   5.924   4.649 -1.6119 -0.1820  0.2843
   88SOPE  C315 8364   4.347   6.125   4.666 -0.7948 -0.1115 -0.4901
   88SOPE  H15X 8365   4.239   6.112   4.643 -1.5123  1.0503  1.8873
   88SOPE  H15Y 8366   4.378   6.228   4.641  0.4944 -0.0319  1.2525
   88SOPE  C316 8367   4.343   6.115   4.823 -0.1467  0.0182  0.5874
   88SOPE  H16X 8368   4.450   6.094   4.844  0.5396  1.0588 -1.5967
   88SOPE  H16Y 8369   4.293   6.017   4.838  1.5238 -0.9849 -0.0589
   88SOPE  C317 8370   4.285   6.227   4.909  0.4690  0.0466 -0.3103
   88SOPE  H17X 8371   4.289   6.188   5.013  0.5980 -1.0064 -0.6877
   88SOPE  H17Y 8372   4.178   6.254   4.895 -0.0396 -1.0334  1.1861
   88SOPE  C318 8373   4.362   6.360   4.917 -0.1103 -0.1981  1.1150
   88SOPE  H18X 8374   4.468   6.347   4.948  1.0154  3.0254 -0.8767
   88SOPE  H18Y 8375   4.316   6.438   4.982  0.0464  1.4548 -0.6661
   88SOPE  H18Z 8376   4.355   6.411   4.818 -0.9287 -1.3406  0.5677
   89SAPC     N 8377   6.355   5.614   6.793  0.4923 -0.2456 -0.2317
   89SAPC   C12 8378   6.209   5.651   6.750  1.2882 -0.0201  0.0220
   89SAPC  H12A 8379   6.173   5.731   6.812  2.9163  0.2595  0.6503
   89SAPC  H12B 8380   6.144   5.572   6.784 -0.0908 -0.1843 -2.7301
   89SAPC   C13 8381   6.423   5.527   6.692  0.7798 -0.4076  0.2993
   89SAPC  H13A 8382   6.428   5.582   6.599 -0.1881 -0.2966  0.3079
   89SAPC  H13B 8383   6.523   5.508   6.727 -0.6207 -3.2021  3.3109
   89SAPC  H13C 8384   6.363   5.439   6.674 -1.3468  1.1402 -0.6662
   89SAPC   C14 8385   6.420   5.743   6.809  0.4369  0.2346 -0.0193
   89SAPC  H14A 8386   6.386   5.801   6.893  0.4077  0.8171 -0.4271
   89SAPC  H14B 8387   6.526   5.724   6.815  0.8376  1.1861 -2.6661
   89SAPC  H14C 8388   6.411   5.809   6.724  0.4038 -1.2612 -1.2221
   89SAPC   C15 8389   6.359   5.550   6.927  0.0245 -0.1390  0.4856
   89SAPC  H15A 8390   6.466   5.537   6.939  0.2261  0.1590 -0.7800
   89SAPC  H15B 8391   6.310   5.615   6.997 -4.1139 -0.5088 -1.7578
   89SAPC  H15C 8392   6.326   5.447   6.933  0.0717 -0.1528  0.5177
   89SAPC   C11 8393   6.176   5.680   6.598  1.3290 -0.2537 -0.3389
   89SAPC  H11A 8394   6.068   5.703   6.589  0.8731 -2.2092 -0.4064
   89SAPC  H11B 8395   6.204   5.596   6.530  0.1168 -0.8354 -0.1337
   89SAPC     P 8396   6.211   5.935   6.596  0.0228 -0.0595  0.0521
   89SAPC   O13 8397   6.158   5.939   6.728  0.8460  0.1442 -0.4950
   89SAPC   O14 8398   6.323   6.028   6.565 -0.3949  0.7496 -0.7197
   89SAPC   O12 8399   6.249   5.792   6.554  0.1665 -0.1920  0.1791
   89SAPC   O11 8400   6.087   5.962   6.494 -0.8290 -0.5192  0.3352
   89SAPC    C1 8401   6.102   5.956   6.351 -0.5382 -0.4535 -0.1817
   89SAPC    HA 8402   6.066   6.046   6.296  1.6758 -0.4235 -1.7249
   89SAPC    HB 8403   6.211   5.959   6.330 -0.2609  0.1700  1.1836
   89SAPC    C2 8404   6.048   5.816   6.296  0.0321 -0.2845  0.6770
   89SAPC    HS 8405   6.125   5.746   6.333 -0.6630 -2.1166 -1.2202
   89SAPC   O21 8406   6.058   5.819   6.147 -0.3989 -0.6427  0.0424
   89SAPC   C21 8407   6.183   5.812   6.096 -0.0803 -0.0001  0.1151
   89SAPC   O22 8408   6.282   5.787   6.164  0.4175 -0.1889  0.4552
   89SAPC   C22 8409   6.183   5.840   5.945  0.4752 -0.4480 -0.6250
   89SAPC   H2R 8410   6.135   5.751   5.899 -0.3065 -0.6146  0.4756
   89SAPC   H2S 8411   6.121   5.928   5.921  1.7631  0.0823 -2.1329
   89SAPC    C3 8412   5.904   5.768   6.337 -0.8547  0.0264  0.6244
   89SAPC    HX 8413   5.829   5.831   6.284 -1.6580 -0.1885  1.4587
   89SAPC    HY 8414   5.893   5.783   6.447 -0.0272 -2.7584  1.1474
   89SAPC   O31 8415   5.894   5.629   6.310 -0.0110 -0.0051 -0.1194
   89SAPC   C31 8416   5.800   5.567   6.357  0.0061 -0.1387  0.0982
   89SAPC   O32 8417   5.716   5.605   6.439 -0.3839 -0.4462 -0.3150
   89SAPC   C32 8418   5.797   5.427   6.301 -0.6091  1.2523  0.2336
   89SAPC   H2X 8419   5.687   5.414   6.292 -1.1443  2.4171  3.4642
   89SAPC   H2Y 8420   5.836   5.350   6.371 -2.0835  0.2393 -0.0149
   89SAPC   C23 8421   6.323   5.853   5.891 -0.2027  0.8145 -0.8254
   89SAPC   H3R 8422   6.369   5.754   5.914 -1.7729 -0.0714 -1.3737
   89SAPC   H3S 8423   6.380   5.934   5.941 -1.9841  0.5153  1.9422
   89SAPC   C24 8424   6.316   5.859   5.737 -0.0590  0.0351 -0.0688
   89SAPC   H4R 8425   6.272   5.760   5.712  0.5647 -0.6153  1.2811
   89SAPC   H4S 8426   6.418   5.863   5.695  0.2475 -0.3582  0.6193
   89SAPC   C25 8427   6.238   5.967   5.671  0.3716 -0.1599 -0.4145
   89SAPC   H5R 8428   6.182   6.039   5.732 -0.1104  0.6989 -1.8310
   89SAPC   C26 8429   6.228   5.984   5.539  0.2233 -0.4127  0.4390
   89SAPC   H6R 8430   6.153   6.051   5.496  0.2727 -1.3074 -1.1038
   89SAPC   C27 8431   6.300   5.891   5.448  0.6370  0.4122 -0.5202
   89SAPC   H7R 8432   6.357   5.811   5.499  0.1458  0.6678  0.4513
   89SAPC   H7S 8433   6.385   5.944   5.400 -0.4310  0.6340 -2.2812
   89SAPC   C28 8434   6.218   5.825   5.348 -0.7307 -0.8900  0.1477
   89SAPC   H8R 8435   6.146   5.754   5.390  1.4946 -1.7289  2.8716
   89SAPC   C29 8436   6.230   5.831   5.206 -0.3035 -0.3227  0.2861
   89SAPC   H9R 8437   6.168   5.766   5.144 -1.8803  1.6871 -0.3505
   89SAPC  C210 8438   6.336   5.905   5.122 -0.3768  0.3783  0.1970
   89SAPC  H10R 8439   6.438   5.866   5.143 -0.5730  0.3608  1.1903
   89SAPC  H10S 8440   6.333   6.010   5.157  1.4474  0.6989 -0.5098
   89SAPC  C211 8441   6.296   5.900   4.977  0.1570 -0.0525  0.5937
   89SAPC  H11R 8442   6.231   5.983   4.944  0.4610  0.1887  0.5963
   89SAPC  C212 8443   6.346   5.819   4.881  0.2854 -0.3895 -0.5906
   89SAPC  H12R 8444   6.309   5.829   4.778  0.4817  1.1151 -0.5322
   89SAPC  C213 8445   6.450   5.711   4.900  0.2004  0.3376 -0.2786
   89SAPC  H13R 8446   6.416   5.612   4.863  0.4943 -0.1464  0.7181
   89SAPC  H13S 8447   6.456   5.689   5.008  0.5885  0.6856 -0.2245
   89SAPC  C214 8448   6.584   5.744   4.847  0.4383  0.2764 -0.2533
   89SAPC  H14R 8449   6.640   5.816   4.909 -1.3173  0.3888  1.2873
   89SAPC  C215 8450   6.643   5.693   4.739  0.1006  0.0058  0.2982
   89SAPC  H15R 8451   6.743   5.725   4.707  0.6606 -0.2273  1.7203
   89SAPC  C216 8452   6.575   5.597   4.642  0.5480 -0.4461 -0.7515
   89SAPC  H16R 8453   6.469   5.624   4.623 -0.1374 -2.5293 -0.0530
   89SAPC  H16S 8454   6.576   5.494   4.684 -1.5587  0.1579  0.9425
   89SAPC  C217 8455   6.644   5.603   4.509 -0.2946 -0.0249  0.0243
   89SAPC  H17R 8456   6.606   5.517   4.450 -0.3234  2.7690 -4.5627
   89SAPC  H17S 8457   6.751   5.577   4.520 -0.4001 -1.0628 -1.1728
   89SAPC  C218 8458   6.630   5.738   4.433 -0.6335  0.1277  0.2007
   89SAPC  H18R 8459   6.677   5.825   4.483  0.1371  0.7610 -1.5311
   89SAPC  H18S 8460   6.522   5.762   4.420 -0.4293  0.6778 -0.5380
   89SAPC  C219 8461   6.677   5.726   4.292 -0.3321 -0.5465 -0.0773
   89SAPC  H19R 8462   6.785   5.700   4.296  0.3254  1.8883 -0.2634
   89SAPC  H19S 8463   6.659   5.828   4.250 -0.6084 -0.4833  0.1921
   89SAPC  C220 8464   6.604   5.632   4.202  0.3861 -0.3836 -0.4162
   89SAPC  H20R 8465   6.661   5.619   4.107  1.9201  1.7359  0.1224
   89SAPC  H20S 8466   6.506   5.682   4.185  0.2574 -0.2585  0.6757
   89SAPC  H20T 8467   6.600   5.529   4.242 -0.2365 -0.6838 -1.2218
   89SAPC   C33 8468   5.867   5.402   6.168  0.7556  0.5257 -0.1714
   89SAPC   H3X 8469   5.897   5.295   6.172  0.5581  0.4844  3.5545
   89SAPC   H3Y 8470   5.954   5.471   6.159  0.1592  1.1777 -1.2265
   89SAPC   C34 8471   5.763   5.409   6.049  0.1700 -0.2419  0.4263
   89SAPC   H4X 8472   5.726   5.511   6.028 -1.4793 -0.5925  1.4122
   89SAPC   H4Y 8473   5.677   5.344   6.077 -0.1088 -0.5464 -1.0831
   89SAPC   C35 8474   5.835   5.354   5.921 -0.8212  0.3606  0.0521
   89SAPC   H5X 8475   5.869   5.249   5.936  2.0559  1.3070  0.7764
   89SAPC   H5Y 8476   5.931   5.406   5.904 -1.2656  1.5150  0.9730
   89SAPC   C36 8477   5.755   5.349   5.788  0.2373 -0.0565  0.2403
   89SAPC   H6X 8478   5.702   5.445   5.773  1.4394  0.5971  0.1258
   89SAPC   H6Y 8479   5.679   5.268   5.803  0.9423 -0.7182  0.3047
   89SAPC   C37 8480   5.839   5.312   5.668 -0.5862  0.2564 -0.2501
   89SAPC   H7X 8481   5.912   5.241   5.713 -0.4463  0.8967  0.5706
   89SAPC   H7Y 8482   5.895   5.399   5.628  2.4332 -2.0808 -1.5236
   89SAPC   C38 8483   5.752   5.261   5.559  0.0226  0.3943  0.6128
   89SAPC   H8X 8484   5.672   5.333   5.535 -0.4324 -0.7831 -1.7851
   89SAPC   H8Y 8485   5.691   5.178   5.600  0.9468  1.3132  4.2226
   89SAPC   C39 8486   5.832   5.227   5.432 -0.5113 -0.2391  0.1295
   89SAPC   H9X 8487   5.926   5.172   5.455  0.9973  2.3559  0.5999
   89SAPC   H9Y 8488   5.865   5.329   5.403 -0.6596 -0.5029 -1.0274
   89SAPC  C310 8489   5.754   5.152   5.324  0.1798  0.4397 -0.3904
   89SAPC  H10X 8490   5.691   5.213   5.256 -1.0380  0.1238  0.4264
   89SAPC  H10Y 8491   5.692   5.076   5.375 -0.3137  0.2791 -1.2146
   89SAPC  C311 8492   5.850   5.063   5.235 -0.5641  0.1638  0.4088
   89SAPC  H11X 8493   5.926   5.005   5.292  2.8906  1.8238 -2.0684
   89SAPC  H11Y 8494   5.904   5.141   5.176 -2.1449  0.3301 -0.8953
   89SAPC  C312 8495   5.772   4.978   5.134 -0.2487 -0.2972 -0.3079
   89SAPC  H12X 8496   5.725   5.043   5.057 -0.2012 -1.0598 -0.9961
   89SAPC  H12Y 8497   5.691   4.921   5.186  0.9601 -1.4345  0.3938
   89SAPC  C313 8498   5.851   4.876   5.052  0.3921  0.5625 -0.3939
   89SAPC  H13X 8499   5.917   4.819   5.120 -0.0912 -2.0292 -1.9572
   89SAPC  H13Y 8500   5.907   4.912   4.963  0.8287 -0.7923 -0.6884
   89SAPC  C314 8501   5.760   4.768   4.988 -1.1432 -1.0839 -0.3238
   89SAPC  H14X 8502   5.702   4.798   4.898  0.5172 -2.1225 -1.8106
   89SAPC  H14Y 8503   5.689   4.724   5.061 -2.2696  1.8315  0.4627
   89SAPC  C315 8504   5.843   4.649   4.939 -0.3242  1.2410  0.3340
   89SAPC  H15X 8505   5.769   4.580   4.892 -1.0911  1.4814  1.1581
   89SAPC  H15Y 8506   5.889   4.599   5.027 -2.6039  1.3142  1.6583
   89SAPC  C316 8507   5.947   4.668   4.828 -0.0124  0.3616  0.6610
   89SAPC  H16X 8508   6.026   4.721   4.886 -1.5116  0.9535  2.2484
   89SAPC  H16Y 8509   5.900   4.723   4.745  1.9170 -0.7849 -1.3065
   89SAPC  C317 8510   5.984   4.539   4.751 -0.5001 -0.2010  0.0371
   89SAPC  H17X 8511   6.055   4.553   4.667  0.1726  0.3674  0.6917
   89SAPC  H17Y 8512   5.891   4.491   4.714 -1.4506  2.3744 -1.1421
   89SAPC  C318 8513   6.066   4.445   4.844  0.0578  0.1230  0.8652
   89SAPC  H18X 8514   6.111   4.364   4.782  1.1651  1.7327 -0.5122
   89SAPC  H18Y 8515   5.998   4.384   4.907  0.8458 -0.8957  0.7571
   89SAPC  H18Z 8516   6.144   4.494   4.906 -0.0176  2.3549 -0.7137
   90SAPC     N 8517   2.205   1.056   7.095  0.3457  0.7098 -0.3659
   90SAPC   C12 8518   2.275   0.939   7.145  0.9076  0.2441  0.0717
   90SAPC  H12A 8519   2.319   0.894   7.057  0.2301  0.2484 -0.2765
   90SAPC  H12B 8520   2.192   0.887   7.190 -1.5375  4.7295  1.3793
   90SAPC   C13 8521   2.289   1.146   7.021  0.4360 -1.1306  0.5423
   90SAPC  H13A 8522   2.362   1.193   7.086  1.0395 -0.1046 -0.8296
   90SAPC  H13B 8523   2.342   1.097   6.941 -1.2624 -0.3676 -1.1067
   90SAPC  H13C 8524   2.235   1.226   6.973  0.7502 -0.3673  1.4371
   90SAPC   C14 8525   2.089   1.022   7.005 -0.4676  0.4726  0.1307
   90SAPC  H14A 8526   2.021   1.103   6.986 -0.9085  0.1152  0.1620
   90SAPC  H14B 8527   2.127   0.988   6.909  0.5890  0.2566  0.6109
   90SAPC  H14C 8528   2.039   0.934   7.042  2.2927 -0.9123  0.8521
   90SAPC   C15 8529   2.144   1.130   7.217 -0.5492 -0.4224  0.2860
   90SAPC  H15A 8530   2.062   1.197   7.196  0.1179  0.0127 -1.0443
   90SAPC  H15B 8531   2.115   1.060   7.294 -0.7029 -2.1192 -1.2648
   90SAPC  H15C 8532   2.223   1.186   7.266  0.4807 -0.8002 -0.8971
   90SAPC   C11 8533   2.384   0.961   7.257 -0.4171 -0.4360  0.0469
   90SAPC  H11A 8534   2.417   0.862   7.294 -2.1795 -1.0500  0.0663
   90SAPC  H11B 8535   2.347   1.015   7.347 -1.0034  0.5672 -0.7655
   90SAPC     P 8536   2.610   0.948   7.121 -0.0785 -0.0038 -0.3060
   90SAPC   O13 8537   2.682   1.045   7.038  0.7380 -0.4638  0.3636
   90SAPC   O14 8538   2.685   0.861   7.216  1.0194  0.5099  0.0603
   90SAPC   O12 8539   2.499   1.032   7.201  0.1272  0.0464  0.5046
   90SAPC   O11 8540   2.512   0.870   7.027  0.8868 -0.0583  0.4810
   90SAPC    C1 8541   2.554   0.789   6.919 -0.9769  0.1464 -0.6397
   90SAPC    HA 8542   2.663   0.796   6.903 -0.3237 -0.6315  2.7630
   90SAPC    HB 8543   2.531   0.683   6.944  0.6204 -0.5327 -1.9009
   90SAPC    C2 8544   2.490   0.827   6.787 -0.0657 -0.2799  0.7264
   90SAPC    HS 8545   2.524   0.762   6.703  0.1821  0.6335  0.1068
   90SAPC   O21 8546   2.523   0.958   6.748  0.1707 -0.0493 -0.1854
   90SAPC   C21 8547   2.647   0.988   6.716 -0.7560  0.1638 -0.3368
   90SAPC   O22 8548   2.734   0.904   6.692  0.0384 -1.1704  0.3889
   90SAPC   C22 8549   2.662   1.137   6.727 -0.1596  0.4706 -0.8769
   90SAPC   H2R 8550   2.676   1.152   6.836 -0.5133  0.5365 -0.8375
   90SAPC   H2S 8551   2.751   1.170   6.670  1.1039 -2.6474 -0.9220
   90SAPC    C3 8552   2.338   0.809   6.783  1.1688  0.0586  0.0229
   90SAPC    HX 8553   2.295   0.870   6.865 -0.8987 -0.2861 -0.7660
   90SAPC    HY 8554   2.331   0.700   6.807  2.9010  0.0324  0.5480
   90SAPC   O31 8555   2.279   0.827   6.652 -0.3424  0.1061  0.0288
   90SAPC   C31 8556   2.215   0.945   6.626 -0.4225 -0.0787 -0.4829
   90SAPC   O32 8557   2.195   1.034   6.713  0.1549  0.1602  0.2769
   90SAPC   C32 8558   2.184   0.947   6.473 -0.4247  0.2160 -0.1220
   90SAPC   H2X 8559   2.147   0.849   6.437 -0.9731  0.6475 -0.7709
   90SAPC   H2Y 8560   2.277   0.981   6.423 -0.5029  0.3553 -0.1726
   90SAPC   C23 8561   2.530   1.207   6.688 -0.6456 -0.2706  0.7539
   90SAPC   H3R 8562   2.462   1.214   6.775 -0.8641  2.5116  0.4728
   90SAPC   H3S 8563   2.484   1.162   6.598  2.5340  1.8833 -2.1977
   90SAPC   C24 8564   2.558   1.350   6.633 -0.5993 -0.6032 -0.6660
   90SAPC   H4R 8565   2.651   1.367   6.574  1.1230  1.6908  2.4308
   90SAPC   H4S 8566   2.571   1.410   6.726  0.5617  1.1448 -1.8846
   90SAPC   C25 8567   2.437   1.413   6.563 -0.4160  0.4153 -0.2166
   90SAPC   H5R 8568   2.356   1.436   6.634  1.8878 -0.0196  2.7514
   90SAPC   C26 8569   2.423   1.436   6.433  0.1924 -0.7433  0.4213
   90SAPC   H6R 8570   2.336   1.496   6.404  1.0569  0.1912 -0.3225
   90SAPC   C27 8571   2.521   1.398   6.325 -0.3129  0.3388 -0.3770
   90SAPC   H7R 8572   2.583   1.307   6.339  2.6180  2.0401 -1.5367
   90SAPC   H7S 8573   2.600   1.476   6.335 -0.6268  0.4328  1.8408
   90SAPC   C28 8574   2.457   1.400   6.189 -0.1820  0.7856  0.3357
   90SAPC   H8R 8575   2.422   1.502   6.170  3.3691  2.4577  1.7849
   90SAPC   C29 8576   2.461   1.313   6.089  0.1389  0.0264  0.1336
   90SAPC   H9R 8577   2.396   1.338   6.003 -2.8828  0.4865  2.3937
   90SAPC  C210 8578   2.526   1.175   6.100 -0.3288 -0.4110 -0.2221
   90SAPC  H10R 8579   2.470   1.098   6.043 -0.0259  0.2668 -1.5003
   90SAPC  H10S 8580   2.497   1.140   6.201 -1.5401 -0.2355 -0.4879
   90SAPC  C211 8581   2.676   1.177   6.084 -0.1788 -0.5958  0.1222
   90SAPC  H11R 8582   2.735   1.202   6.174  0.8594 -1.6312 -0.2595
   90SAPC  C212 8583   2.751   1.132   5.976 -0.6412  0.0765  0.3967
   90SAPC  H12R 8584   2.858   1.156   5.986 -0.4897 -0.7042  0.6781
   90SAPC  C213 8585   2.689   1.075   5.845  0.6510 -0.3225  0.1170
   90SAPC  H13R 8586   2.615   0.998   5.875  0.3780 -0.1338 -0.0664
   90SAPC  H13S 8587   2.770   1.030   5.783  0.0369 -0.4515 -0.6093
   90SAPC  C214 8588   2.617   1.183   5.760 -0.0950  0.1074 -0.0959
   90SAPC  H14R 8589   2.662   1.283   5.767 -2.2277  1.1276 -0.0683
   90SAPC  C215 8590   2.505   1.171   5.696 -0.5272 -0.0245 -0.1741
   90SAPC  H15R 8591   2.464   1.249   5.630 -2.4961 -0.1436  0.8357
   90SAPC  C216 8592   2.430   1.045   5.691  0.3523 -0.4168  0.1317
   90SAPC  H16R 8593   2.333   1.071   5.739 -0.2221 -0.2926 -1.0649
   90SAPC  H16S 8594   2.469   0.961   5.752 -1.5988 -2.0957 -0.7739
   90SAPC  C217 8595   2.420   1.006   5.539  0.0247 -0.1124  0.3799
   90SAPC  H17R 8596   2.389   1.097   5.483  2.0010  1.2047  1.3117
   90SAPC  H17S 8597   2.347   0.924   5.525 -0.2564  0.4360 -1.7208
   90SAPC  C218 8598   2.556   0.959   5.480  0.5700  0.0297  0.2779
   90SAPC  H18R 8599   2.597   0.874   5.540 -0.5732 -1.3848 -0.8552
   90SAPC  H18S 8600   2.622   1.048   5.488 -0.8880  1.2451 -0.7148
   90SAPC  C219 8601   2.548   0.920   5.332  0.3987  0.2813 -0.7330
   90SAPC  H19R 8602   2.497   0.998   5.271  1.3134  1.5068  0.0251
   90SAPC  H19S 8603   2.473   0.839   5.325 -1.4399  1.9220 -0.9748
   90SAPC  C220 8604   2.679   0.869   5.279 -1.0158 -0.0459  0.1542
   90SAPC  H20R 8605   2.726   0.796   5.348  1.0207 -1.5610 -2.6115
   90SAPC  H20S 8606   2.753   0.948   5.254 -0.8539 -0.5309 -0.9492
   90SAPC  H20T 8607   2.656   0.812   5.186 -3.4442 -2.1212  1.8946
   90SAPC   C33 8608   2.078   1.054   6.427 -0.5138 -0.1495 -0.2212
   90SAPC   H3X 8609   2.123   1.148   6.467 -2.3851  0.2663  1.0020
   90SAPC   H3Y 8610   1.980   1.040   6.477 -1.9606  3.1700 -1.8863
   90SAPC   C34 8611   2.037   1.053   6.276  0.0127  0.6543  0.5939
   90SAPC   H4X 8612   1.959   1.129   6.252 -0.2643 -0.0077 -0.7139
   90SAPC   H4Y 8613   2.000   0.951   6.251 -1.2624  1.3103 -0.2798
   90SAPC   C35 8614   2.169   1.071   6.189  0.3840 -0.0135  0.3844
   90SAPC   H5X 8615   2.242   0.989   6.209  1.1999  0.2542 -1.3686
   90SAPC   H5Y 8616   2.221   1.166   6.213 -0.5581  0.8530 -0.8911
   90SAPC   C36 8617   2.132   1.062   6.040  0.4507 -0.1925 -1.0814
   90SAPC   H6X 8618   2.227   1.088   5.988  0.5514  0.9159 -0.3782
   90SAPC   H6Y 8619   2.056   1.135   6.004  0.6227  0.2846 -0.4860
   90SAPC   C37 8620   2.080   0.921   5.992 -0.6572 -0.0823  0.5183
   90SAPC   H7X 8621   1.982   0.908   6.043 -0.4333 -1.1940  0.6752
   90SAPC   H7Y 8622   2.145   0.838   6.026  0.8306  0.9096  0.2201
   90SAPC   C38 8623   2.078   0.907   5.843 -0.0358  0.3059 -0.0505
   90SAPC   H8X 8624   2.167   0.965   5.810 -0.4175  1.2349  0.5242
   90SAPC   H8Y 8625   1.988   0.956   5.800  0.0855 -0.4145 -1.1914
   90SAPC   C39 8626   2.070   0.763   5.791 -0.1362 -0.5623 -0.4702
   90SAPC   H9X 8627   1.961   0.743   5.800 -0.4235  0.9937 -0.1906
   90SAPC   H9Y 8628   2.126   0.683   5.845  1.2350 -1.3760 -2.9693
   90SAPC  C310 8629   2.102   0.745   5.644 -0.3806 -0.2290 -0.0604
   90SAPC  H10X 8630   2.075   0.639   5.622 -0.5277 -0.0064 -0.9636
   90SAPC  H10Y 8631   2.212   0.751   5.631 -0.3435 -2.0785 -0.9665
   90SAPC  C311 8632   2.044   0.844   5.538  0.7319  0.4307 -0.4572
   90SAPC  H11X 8633   2.062   0.951   5.563  1.1428  0.4003 -0.6246
   90SAPC  H11Y 8634   1.934   0.830   5.551  1.2153 -3.4612  0.6869
   90SAPC  C312 8635   2.085   0.811   5.394 -1.1481 -0.5559 -0.9189
   90SAPC  H12X 8636   2.080   0.702   5.376  1.3370 -1.0479  0.7834
   90SAPC  H12Y 8637   2.193   0.839   5.401 -1.2196 -0.2338 -1.0815
   90SAPC  C313 8638   2.007   0.887   5.290  0.2338  0.8719 -0.1001
   90SAPC  H13X 8639   1.990   0.988   5.334 -0.2852  0.7221  0.0551
   90SAPC  H13Y 8640   1.906   0.840   5.284  0.0618  1.0375  1.1841
   90SAPC  C314 8641   2.073   0.902   5.154  0.2991 -0.0872 -1.0329
   90SAPC  H14X 8642   2.100   0.804   5.110  2.7297  0.0016  0.1114
   90SAPC  H14Y 8643   2.173   0.950   5.163  0.0121  0.6509 -1.7100
   90SAPC  C315 8644   2.001   0.990   5.050  0.1673 -0.4731 -0.1010
   90SAPC  H15X 8645   1.941   1.067   5.104  0.5925 -0.3153  0.1493
   90SAPC  H15Y 8646   1.922   0.935   4.996 -1.4707  0.5193  1.1697
   90SAPC  C316 8647   2.088   1.048   4.942 -0.0673 -0.0266 -0.1964
   90SAPC  H16X 8648   2.150   0.969   4.893 -0.8998  0.1102 -1.5115
   90SAPC  H16Y 8649   2.165   1.111   4.992 -2.2743  3.5222 -0.9269
   90SAPC  C317 8650   2.025   1.135   4.836  0.4826 -0.5423  0.0060
   90SAPC  H17X 8651   1.931   1.092   4.795  0.9935 -0.9756 -0.7277
   90SAPC  H17Y 8652   2.088   1.129   4.745  1.8463 -0.7577  0.9364
   90SAPC  C318 8653   2.008   1.290   4.877  0.3176 -0.0907  0.1741
   90SAPC  H18X 8654   1.908   1.290   4.927 -0.4836 -2.1928 -1.3003
   90SAPC  H18Y 8655   2.006   1.362   4.793 -0.4000 -0.4810 -0.1509
   90SAPC  H18Z 8656   2.086   1.330   4.945  0.1296  2.2639 -0.8824
   91SAPC     N 8657   0.436   6.733   6.301  0.6443 -0.3001  0.2356
   91SAPC   C12 8658   0.316   6.641   6.292  0.0465 -0.1789  0.0633
   91SAPC  H12A 8659   0.335   6.557   6.227  1.5353 -1.8721  2.5025
   91SAPC  H12B 8660   0.233   6.695   6.249  0.2674 -0.6635 -0.9997
   91SAPC   C13 8661   0.420   6.830   6.415  0.6692 -0.1705 -0.8983
   91SAPC  H13A 8662   0.418   6.787   6.514 -2.2979  2.1046  0.1463
   91SAPC  H13B 8663   0.503   6.899   6.411 -0.5995  1.7434  2.3752
   91SAPC  H13C 8664   0.329   6.886   6.407  1.9715  2.0402 -1.0824
   91SAPC   C14 8665   0.556   6.653   6.329 -0.1018 -0.3306  0.0791
   91SAPC  H14A 8666   0.540   6.609   6.426 -1.7311  1.4477  0.6718
   91SAPC  H14B 8667   0.556   6.571   6.258  0.3094  1.5312 -2.1695
   91SAPC  H14C 8668   0.650   6.705   6.321 -0.3459  0.1607  0.4131
   91SAPC   C15 8669   0.452   6.811   6.175 -0.3963  0.5184  0.4016
   91SAPC  H15A 8670   0.367   6.874   6.153 -0.4498  0.5461  0.6806
   91SAPC  H15B 8671   0.543   6.868   6.181 -1.3495  2.0882  0.5949
   91SAPC  H15C 8672   0.468   6.746   6.091 -0.9746  0.0038  0.6754
   91SAPC   C11 8673   0.283   6.570   6.427  0.1587  0.5444 -0.5104
   91SAPC  H11A 8674   0.182   6.524   6.416  0.2399  0.5442 -1.3414
   91SAPC  H11B 8675   0.264   6.645   6.506 -0.0218  0.0609 -0.0887
   91SAPC     P 8676   0.370   6.334   6.392  0.0489  0.4818 -0.4415
   91SAPC   O13 8677   0.475   6.250   6.455  0.3344  0.2957 -0.6513
   91SAPC   O14 8678   0.225   6.287   6.395 -0.6783 -0.7332  0.8530
   91SAPC   O12 8679   0.379   6.467   6.466 -0.3555 -0.6726 -0.9634
   91SAPC   O11 8680   0.414   6.373   6.249  0.1078  0.7788  0.3578
   91SAPC    C1 8681   0.443   6.261   6.154  0.5078 -0.2913 -0.7896
   91SAPC    HA 8682   0.521   6.198   6.203 -0.1821 -0.3105  0.3116
   91SAPC    HB 8683   0.361   6.187   6.157  1.1255 -0.9684 -0.1770
   91SAPC    C2 8684   0.488   6.315   6.018 -0.0107 -0.0702  0.9884
   91SAPC    HS 8685   0.559   6.401   6.027 -0.1759  0.4708 -1.8290
   91SAPC   O21 8686   0.370   6.345   5.944  0.1516 -0.3704 -0.0730
   91SAPC   C21 8687   0.308   6.462   5.955 -0.3369 -0.3498 -0.6497
   91SAPC   O22 8688   0.356   6.561   6.010  0.1836  0.1357 -0.1241
   91SAPC   C22 8689   0.157   6.460   5.916 -0.0105 -0.1172 -0.3644
   91SAPC   H2R 8690   0.099   6.379   5.966  0.0861  1.0159  1.7025
   91SAPC   H2S 8691   0.107   6.548   5.961 -1.1140  0.2184 -2.1663
   91SAPC    C3 8692   0.550   6.203   5.934  0.0912 -0.1105  0.2030
   91SAPC    HX 8693   0.468   6.130   5.914  0.1648 -0.6855  1.8277
   91SAPC    HY 8694   0.628   6.155   5.997  0.0298  2.1074  2.1048
   91SAPC   O31 8695   0.615   6.251   5.808 -0.0628  0.5657 -0.1265
   91SAPC   C31 8696   0.738   6.295   5.821 -1.4035  0.0795  0.1736
   91SAPC   O32 8697   0.809   6.294   5.924 -0.1620  0.1876 -0.2614
   91SAPC   C32 8698   0.777   6.370   5.690 -0.1294  0.0465  0.6763
   91SAPC   H2X 8699   0.871   6.332   5.644 -0.7040  1.0086 -1.4298
   91SAPC   H2Y 8700   0.792   6.476   5.717 -0.2424  0.2471 -0.0215
   91SAPC   C23 8701   0.137   6.457   5.762 -0.3677  0.1057 -0.1088
   91SAPC   H3R 8702   0.032   6.436   5.732 -0.9848  0.9826  1.3532
   91SAPC   H3S 8703   0.197   6.373   5.721  0.9025  0.4521  0.9713
   91SAPC   C24 8704   0.181   6.596   5.702 -0.0689  0.3786  0.3719
   91SAPC   H4R 8705   0.291   6.604   5.692 -0.2552  0.7427 -2.2755
   91SAPC   H4S 8706   0.147   6.661   5.786  0.1340 -2.0005  2.4107
   91SAPC   C25 8707   0.112   6.637   5.574  0.1767 -0.2428 -0.5059
   91SAPC   H5R 8708   0.019   6.696   5.576  1.6607  2.3930 -2.7577
   91SAPC   C26 8709   0.156   6.609   5.452 -0.4101  0.0359 -0.0908
   91SAPC   H6R 8710   0.091   6.629   5.365  1.4461 -2.6865 -2.2669
   91SAPC   C27 8711   0.286   6.543   5.411 -0.3208  0.6379 -0.4168
   91SAPC   H7R 8712   0.361   6.549   5.493 -0.4954 -0.0242 -0.1974
   91SAPC   H7S 8713   0.323   6.611   5.331 -2.4439  3.0289  0.5103
   91SAPC   C28 8714   0.259   6.402   5.361 -0.2722 -0.0923  0.5605
   91SAPC   H8R 8715   0.204   6.337   5.430 -3.3532  0.7399 -0.9220
   91SAPC   C29 8716   0.304   6.348   5.243 -0.7277 -1.1302  0.6624
   91SAPC   H9R 8717   0.283   6.244   5.217  1.5252 -1.3506 -0.5179
   91SAPC  C210 8718   0.387   6.427   5.143  0.8800  0.5164 -0.6483
   91SAPC  H10R 8719   0.441   6.352   5.081 -0.0686 -0.0205 -0.8503
   91SAPC  H10S 8720   0.474   6.472   5.195  0.2544 -0.6043  1.5069
   91SAPC  C211 8721   0.314   6.531   5.060  0.4429  0.9079  0.3059
   91SAPC  H11R 8722   0.218   6.555   5.108  0.3273  1.4862 -0.2071
   91SAPC  C212 8723   0.362   6.592   4.950  1.0047  0.4012  0.5481
   91SAPC  H12R 8724   0.299   6.661   4.891  2.2539 -1.0024 -2.7113
   91SAPC  C213 8725   0.489   6.563   4.873  0.2371 -0.1175  0.4028
   91SAPC  H13R 8726   0.463   6.505   4.782 -0.7431  2.5731 -1.1407
   91SAPC  H13S 8727   0.552   6.506   4.945  1.1159 -0.3848 -0.5586
   91SAPC  C214 8728   0.567   6.691   4.841  0.1355 -0.2818 -0.3491
   91SAPC  H14R 8729   0.631   6.726   4.924  2.0281  0.3327 -1.9965
   91SAPC  C215 8730   0.578   6.760   4.729  0.1839  0.1916 -0.2970
   91SAPC  H15R 8731   0.645   6.846   4.714 -0.6976  0.7405 -1.2802
   91SAPC  C216 8732   0.511   6.733   4.594 -0.5260 -0.1548  0.2883
   91SAPC  H16R 8733   0.481   6.626   4.592 -0.1590 -0.2486 -0.5789
   91SAPC  H16S 8734   0.580   6.750   4.509 -0.6358  2.1269  0.5812
   91SAPC  C217 8735   0.389   6.830   4.572 -0.4189 -0.2351  0.2377
   91SAPC  H17R 8736   0.335   6.832   4.668  0.6525 -1.7441  0.9084
   91SAPC  H17S 8737   0.329   6.785   4.490 -1.5544 -0.0992  0.9720
   91SAPC  C218 8738   0.426   6.972   4.531 -0.4455  0.0521 -0.4002
   91SAPC  H18R 8739   0.512   6.995   4.597 -0.7208 -0.3780  0.1139
   91SAPC  H18S 8740   0.343   7.043   4.552  0.4212  0.9748 -0.0081
   91SAPC  C219 8741   0.477   6.967   4.385  0.5504  0.2546  0.7169
   91SAPC  H19R 8742   0.435   6.873   4.344  0.6872  0.7232 -0.5431
   91SAPC  H19S 8743   0.585   6.948   4.403  0.0705 -1.1686  2.3281
   91SAPC  C220 8744   0.436   7.089   4.302  0.0971  0.2942 -0.6814
   91SAPC  H20R 8745   0.474   7.178   4.357 -1.0242 -0.2048  0.9617
   91SAPC  H20S 8746   0.326   7.084   4.318  0.4254 -3.3610  1.6607
   91SAPC  H20T 8747   0.478   7.084   4.199 -2.3731  0.7650 -1.7940
   91SAPC   C33 8748   0.666   6.355   5.572  0.8137 -0.4867  0.1385
   91SAPC   H3X 8749   0.562   6.386   5.595  0.5928 -2.1093  1.5686
   91SAPC   H3Y 8750   0.643   6.249   5.546  0.3267 -0.2995 -0.1939
   91SAPC   C34 8751   0.708   6.420   5.437 -0.0692 -0.6213  0.4240
   91SAPC   H4X 8752   0.638   6.368   5.368  0.0431  0.1800 -0.3110
   91SAPC   H4Y 8753   0.816   6.397   5.421  0.4461  0.5929  1.9370
   91SAPC   C35 8754   0.683   6.569   5.413 -0.4827  0.5505  0.1380
   91SAPC   H5X 8755   0.749   6.623   5.484  2.5516 -0.8471 -1.4460
   91SAPC   H5Y 8756   0.574   6.587   5.427 -0.2967  0.6618  1.5240
   91SAPC   C36 8757   0.715   6.615   5.272  0.5381 -0.0290 -0.1418
   91SAPC   H6X 8758   0.645   6.558   5.207 -0.2031  0.3107  0.3450
   91SAPC   H6Y 8759   0.811   6.572   5.237 -0.6239 -2.8505 -0.1430
   91SAPC   C37 8760   0.712   6.768   5.263  0.3978  0.2639 -0.0354
   91SAPC   H7X 8761   0.763   6.795   5.168  1.8968 -0.5916  0.4843
   91SAPC   H7Y 8762   0.773   6.810   5.346  0.2148  0.2973  0.0810
   91SAPC   C38 8763   0.562   6.805   5.267  0.5233 -0.2753  0.1307
   91SAPC   H8X 8764   0.525   6.768   5.365  1.5980  0.3046  0.7836
   91SAPC   H8Y 8765   0.507   6.749   5.189  1.4954  1.5626 -1.9663
   91SAPC   C39 8766   0.532   6.955   5.245  0.4247  0.1970 -0.6143
   91SAPC   H9X 8767   0.596   7.023   5.305 -0.1638 -1.5046  2.1099
   91SAPC   H9Y 8768   0.436   6.973   5.297  0.1597 -1.9161 -0.2975
   91SAPC  C310 8769   0.535   6.987   5.095  0.4106  0.0192 -0.1310
   91SAPC  H10X 8770   0.472   6.909   5.047 -0.5816  0.5604  0.2570
   91SAPC  H10Y 8771   0.638   6.996   5.056  0.5263 -3.1870 -0.8982
   91SAPC  C311 8772   0.473   7.122   5.070 -0.1953  0.1608 -0.4799
   91SAPC  H11X 8773   0.531   7.193   5.133 -0.2880 -0.9374  0.8881
   91SAPC  H11Y 8774   0.368   7.125   5.107  0.3317 -1.1323  1.2632
   91SAPC  C312 8775   0.486   7.156   4.924 -0.1666 -0.0318  0.5626
   91SAPC  H12X 8776   0.416   7.086   4.874  1.3367 -1.0328 -0.2101
   91SAPC  H12Y 8777   0.589   7.137   4.886 -0.0589 -0.4076  1.0253
   91SAPC  C313 8778   0.442   7.297   4.887  0.0976  0.3912 -0.3370
   91SAPC  H13X 8779   0.534   7.357   4.900  0.6373 -0.3506 -0.7050
   91SAPC  H13Y 8780   0.359   7.328   4.955 -0.2856  1.1891 -1.1501
   91SAPC  C314 8781   0.383   7.320   4.744  0.2338  0.1970  0.5469
   91SAPC  H14X 8782   0.452   7.279   4.667  2.2306 -0.0614  2.3687
   91SAPC  H14Y 8783   0.394   7.427   4.718  1.3645  0.2167  1.0322
   91SAPC  C315 8784   0.246   7.265   4.722  0.2315 -0.1056  0.1901
   91SAPC  H15X 8785   0.176   7.304   4.799 -1.3961 -2.8687  0.2745
   91SAPC  H15Y 8786   0.239   7.154   4.724 -3.2675  0.0025 -0.3095
   91SAPC  C316 8787   0.182   7.312   4.591  0.9969  0.1901  0.7072
   91SAPC  H16X 8788   0.237   7.262   4.508  0.4558  0.4031  0.2070
   91SAPC  H16Y 8789   0.202   7.420   4.579 -1.6972  0.6471 -0.6549
   91SAPC  C317 8790   0.031   7.289   4.570 -0.1616  0.1606  0.5792
   91SAPC  H17X 8791  -0.016   7.342   4.656  1.1946  0.5520  1.1088
   91SAPC  H17Y 8792   0.003   7.183   4.588 -1.1091  0.6059  1.9299
   91SAPC  C318 8793  -0.023   7.334   4.434 -0.2667  0.5125 -0.5390
   91SAPC  H18X 8794   0.025   7.430   4.404  0.7681  0.6389  1.3966
   91SAPC  H18Y 8795  -0.133   7.344   4.442 -0.6363 -1.9528 -1.6497
   91SAPC  H18Z 8796   0.013   7.262   4.358  0.5234 -0.1573  0.4432
   92SAPC     N 8797   6.597   0.079   6.567 -0.3773  0.0754 -0.3909
   92SAPC   C12 8798   6.622  -0.038   6.471 -0.0411 -0.4753 -0.4664
   92SAPC  H12A 8799   6.542  -0.110   6.472  0.4798 -1.0713  0.6373
   92SAPC  H12B 8800   6.702  -0.098   6.513 -0.1704 -0.9605 -0.9039
   92SAPC   C13 8801   6.688   0.195   6.555 -1.0209  0.0891  0.4108
   92SAPC  H13A 8802   6.783   0.175   6.603 -1.3369 -0.2945  0.8933
   92SAPC  H13B 8803   6.699   0.236   6.456  0.1914  1.4876  1.0765
   92SAPC  H13C 8804   6.645   0.276   6.611 -2.2059  0.1524 -0.5548
   92SAPC   C14 8805   6.457   0.130   6.539 -0.7559  0.2884  1.0513
   92SAPC  H14A 8806   6.461   0.162   6.435 -1.6921 -2.9934 -0.1170
   92SAPC  H14B 8807   6.381   0.054   6.547  0.3406 -1.2748 -1.9460
   92SAPC  H14C 8808   6.434   0.211   6.607  1.0884  0.0999  1.9548
   92SAPC   C15 8809   6.584   0.030   6.711 -0.2327  0.4682  0.1910
   92SAPC  H15A 8810   6.680  -0.006   6.747  1.4091  3.5213 -0.7657
   92SAPC  H15B 8811   6.554   0.105   6.783  0.3197 -0.6856  1.6732
   92SAPC  H15C 8812   6.515  -0.052   6.714 -3.6530  3.0154 -1.8509
   92SAPC   C11 8813   6.674   0.006   6.340  0.4152 -0.3811 -0.1945
   92SAPC  H11A 8814   6.615   0.093   6.304  0.0052 -0.4740  0.2310
   92SAPC  H11B 8815   6.646  -0.066   6.261 -0.9652  0.3802 -0.4395
   92SAPC     P 8816   6.913  -0.073   6.365 -0.0207  0.1843  0.2675
   92SAPC   O13 8817   7.025  -0.007   6.422 -0.3467 -0.8303 -0.7755
   92SAPC   O14 8818   6.856  -0.179   6.449  0.4676 -0.3474 -0.3393
   92SAPC   O12 8819   6.812   0.042   6.336 -0.9205 -0.4732  0.7619
   92SAPC   O11 8820   6.948  -0.140   6.231 -0.2579 -0.1035  0.1353
   92SAPC    C1 8821   6.993  -0.063   6.118  0.6051  0.3718  0.2163
   92SAPC    HA 8822   7.052   0.025   6.152  0.1659  1.2160 -1.1476
   92SAPC    HB 8823   7.060  -0.131   6.062  2.1116  0.9879  1.1860
   92SAPC    C2 8824   6.879  -0.015   6.023  0.5453  0.4796  0.0004
   92SAPC    HS 8825   6.804   0.044   6.081 -1.5803 -4.2490  2.6896
   92SAPC   O21 8826   6.813  -0.130   5.977  0.6846  0.3577 -0.2003
   92SAPC   C21 8827   6.680  -0.116   5.940  0.1734 -0.3012 -0.0139
   92SAPC   O22 8828   6.626  -0.006   5.934 -0.0508 -0.0146  0.4763
   92SAPC   C22 8829   6.614  -0.248   5.910 -0.4292 -0.5179  0.4779
   92SAPC   H2R 8830   6.683  -0.334   5.925 -0.1418 -1.0185 -2.9632
   92SAPC   H2S 8831   6.538  -0.262   5.990 -1.0149  0.9857  0.2137
   92SAPC    C3 8832   6.926   0.078   5.906 -0.7174 -0.1909 -0.4137
   92SAPC    HX 8833   6.850   0.100   5.828 -2.6729  3.3149  2.1854
   92SAPC    HY 8834   7.011   0.025   5.856  0.0265  2.3033 -1.9457
   92SAPC   O31 8835   6.977   0.210   5.946  0.0101  0.0051  0.2671
   92SAPC   C31 8836   6.879   0.302   5.960  0.7621 -0.2366  0.4541
   92SAPC   O32 8837   6.761   0.279   5.958 -0.3085 -0.0885  0.3054
   92SAPC   C32 8838   6.950   0.440   5.975 -0.3085  1.2423 -0.1883
   92SAPC   H2X 8839   7.027   0.465   5.899 -1.0092  3.8425 -0.1316
   92SAPC   H2Y 8840   6.992   0.426   6.077  0.9943 -1.1143 -0.9546
   92SAPC   C23 8841   6.540  -0.255   5.765  0.7172  0.5803 -0.6163
   92SAPC   H3R 8842   6.478  -0.164   5.753 -2.1302 -1.3087 -1.1697
   92SAPC   H3S 8843   6.480  -0.348   5.776  1.8348 -0.3400 -1.9237
   92SAPC   C24 8844   6.632  -0.277   5.649 -0.3287 -0.5916  0.6862
   92SAPC   H4R 8845   6.700  -0.358   5.683 -0.1385 -0.3464  0.8880
   92SAPC   H4S 8846   6.703  -0.193   5.643 -0.3678 -0.2999  3.2686
   92SAPC   C25 8847   6.563  -0.315   5.518 -0.8586  0.9833 -0.3998
   92SAPC   H5R 8848   6.497  -0.402   5.531 -0.3013  0.8155  1.6165
   92SAPC   C26 8849   6.558  -0.241   5.408 -0.6242  0.6166  0.0111
   92SAPC   H6R 8850   6.507  -0.279   5.318  1.8034 -2.6136 -0.1753
   92SAPC   C27 8851   6.626  -0.105   5.384  0.2292 -0.4457 -0.3685
   92SAPC   H7R 8852   6.721  -0.124   5.329  1.2619  0.6919  0.9250
   92SAPC   H7S 8853   6.659  -0.055   5.478 -1.5817  0.1838 -0.0253
   92SAPC   C28 8854   6.534  -0.007   5.307 -0.0953  0.6577  0.0366
   92SAPC   H8R 8855   6.524  -0.029   5.199 -2.3478  0.1268  0.3077
   92SAPC   C29 8856   6.502   0.116   5.348  0.2662 -0.6515 -0.2381
   92SAPC   H9R 8857   6.445   0.189   5.289 -0.3035  1.4237  2.6946
   92SAPC  C210 8858   6.529   0.186   5.481 -0.3647  0.0016  0.3997
   92SAPC  H10R 8859   6.639   0.188   5.492  0.2029 -0.8022 -3.5902
   92SAPC  H10S 8860   6.491   0.127   5.568 -0.8569  0.5701  0.5756
   92SAPC  C211 8861   6.470   0.322   5.502 -0.4968  0.2458  0.1944
   92SAPC  H11R 8862   6.420   0.343   5.597 -0.9382  0.6048 -0.1171
   92SAPC  C212 8863   6.499   0.431   5.424  1.1520  0.0475  0.2641
   92SAPC  H12R 8864   6.442   0.525   5.436 -2.0090 -1.7556  0.7442
   92SAPC  C213 8865   6.586   0.438   5.302 -0.3218  0.1445 -0.2308
   92SAPC  H13R 8866   6.516   0.426   5.216 -2.2032 -1.2610  1.4110
   92SAPC  H13S 8867   6.652   0.348   5.292 -0.7411 -0.6751  3.0572
   92SAPC  C214 8868   6.674   0.557   5.297 -0.3441  0.3426  0.1281
   92SAPC  H14R 8869   6.734   0.577   5.387  1.1399  1.6264 -1.0918
   92SAPC  C215 8870   6.683   0.639   5.190 -0.7792 -1.0168 -0.0119
   92SAPC  H15R 8871   6.748   0.728   5.196 -4.4567  1.8094  1.9200
   92SAPC  C216 8872   6.601   0.629   5.063  0.4529 -0.4077 -0.2538
   92SAPC  H16R 8873   6.513   0.694   5.079  0.3993 -0.3368 -0.8223
   92SAPC  H16S 8874   6.565   0.527   5.037  0.3087 -0.5313  0.4013
   92SAPC  C217 8875   6.682   0.684   4.937 -0.0065  0.0456 -0.2220
   92SAPC  H17R 8876   6.778   0.628   4.935  0.3059  0.5175  1.1140
   92SAPC  H17S 8877   6.711   0.790   4.948  0.6254  0.0100 -1.3313
   92SAPC  C218 8878   6.614   0.653   4.798  0.0227 -0.1315 -0.0426
   92SAPC  H18R 8879   6.504   0.655   4.812  0.0514  0.1420  0.1435
   92SAPC  H18S 8880   6.653   0.552   4.773 -0.8590 -0.6019  0.4471
   92SAPC  C219 8881   6.646   0.763   4.699  0.6089  0.4144 -0.1671
   92SAPC  H19R 8882   6.757   0.758   4.689  0.5918 -2.7448  0.1259
   92SAPC  H19S 8883   6.608   0.852   4.754  0.0755 -0.6736  1.2990
   92SAPC  C220 8884   6.594   0.766   4.554 -0.2312  0.2220 -0.0701
   92SAPC  H20R 8885   6.484   0.755   4.547 -0.5203  2.6076 -0.1089
   92SAPC  H20S 8886   6.638   0.688   4.488 -0.7573  0.9244 -1.3017
   92SAPC  H20T 8887   6.622   0.859   4.500 -1.0821  0.3673 -0.2762
   92SAPC   C33 8888   6.847   0.552   5.973  0.5202  0.2495 -0.2099
   92SAPC   H3X 8889   6.899   0.637   6.022 -0.1868  0.6427 -0.1264
   92SAPC   H3Y 8890   6.752   0.532   6.029  0.5825  2.5707  0.8256
   92SAPC   C34 8891   6.813   0.588   5.825  0.0301 -0.1445 -0.3236
   92SAPC   H4X 8892   6.769   0.503   5.769  1.4196 -0.9472 -0.2725
   92SAPC   H4Y 8893   6.908   0.608   5.771  0.3872 -0.0521  0.3278
   92SAPC   C35 8894   6.711   0.700   5.821  0.1875 -0.1414 -0.3028
   92SAPC   H5X 8895   6.758   0.789   5.867 -2.2847  2.4601 -2.4926
   92SAPC   H5Y 8896   6.628   0.672   5.889  0.3675 -0.0136 -0.0305
   92SAPC   C36 8897   6.660   0.730   5.682 -0.3870 -0.4727 -0.0181
   92SAPC   H6X 8898   6.610   0.643   5.634 -1.6082  1.2639 -2.0643
   92SAPC   H6Y 8899   6.743   0.767   5.618  0.0976 -1.1080  0.2339
   92SAPC   C37 8900   6.547   0.838   5.691 -0.1281 -0.3122  0.2283
   92SAPC   H7X 8901   6.602   0.921   5.740  5.2487 -0.4070 -4.5785
   92SAPC   H7Y 8902   6.470   0.800   5.762 -0.3423 -0.5222 -0.1087
   92SAPC   C38 8903   6.487   0.862   5.557  0.6514 -0.2657 -0.0067
   92SAPC   H8X 8904   6.404   0.933   5.577 -0.1983 -1.1653 -0.2231
   92SAPC   H8Y 8905   6.443   0.765   5.524  0.5372 -0.7174  1.4056
   92SAPC   C39 8906   6.574   0.920   5.440 -0.4467 -0.6535  0.0408
   92SAPC   H9X 8907   6.652   0.846   5.410  1.0491  1.2790 -1.0546
   92SAPC   H9Y 8908   6.605   1.023   5.464 -2.4986 -0.3764  1.7532
   92SAPC  C310 8909   6.491   0.931   5.301  0.7778 -0.5347 -0.3189
   92SAPC  H10X 8910   6.402   0.991   5.330  0.7420 -0.6879 -0.1117
   92SAPC  H10Y 8911   6.462   0.836   5.251 -0.7118  0.2619 -1.0399
   92SAPC  C311 8912   6.572   1.002   5.188  0.2094  0.3968 -0.7830
   92SAPC  H11X 8913   6.647   0.930   5.149  0.6478 -1.2664  2.7688
   92SAPC  H11Y 8914   6.631   1.083   5.235  0.9130 -1.6504  2.1042
   92SAPC  C312 8915   6.477   1.045   5.076 -1.4268 -0.5111  0.1579
   92SAPC  H12X 8916   6.394   1.111   5.108 -0.8898  0.6855 -0.8254
   92SAPC  H12Y 8917   6.430   0.965   5.015 -0.5385  1.1582 -2.9395
   92SAPC  C313 8918   6.568   1.108   4.966 -0.2484 -0.5596  0.3360
   92SAPC  H13X 8919   6.650   1.034   4.953 -0.8584 -1.5011  1.6509
   92SAPC  H13Y 8920   6.626   1.194   5.006 -0.8437 -1.0893  2.4569
   92SAPC  C314 8921   6.492   1.140   4.838 -0.6537 -0.2434  0.5983
   92SAPC  H14X 8922   6.431   1.225   4.876 -0.1805  0.5420 -0.3570
   92SAPC  H14Y 8923   6.428   1.053   4.814 -1.0142  0.2286 -0.1720
   92SAPC  C315 8924   6.576   1.184   4.714  0.8395  0.9039 -0.1640
   92SAPC  H15X 8925   6.652   1.106   4.690 -1.7109 -1.4249 -1.2672
   92SAPC  H15Y 8926   6.637   1.270   4.750  0.4703  0.4170  1.7166
   92SAPC  C316 8927   6.482   1.218   4.590  0.2216  0.8099  0.2826
   92SAPC  H16X 8928   6.535   1.301   4.538 -0.9666  1.8431  0.6743
   92SAPC  H16Y 8929   6.385   1.260   4.624  0.6799  1.5829  0.6900
   92SAPC  C317 8930   6.456   1.086   4.507 -0.3634  0.1312 -0.7370
   92SAPC  H17X 8931   6.424   1.001   4.570 -1.1398 -1.4791 -3.1520
   92SAPC  H17Y 8932   6.556   1.062   4.467 -0.6017  0.4199 -1.5297
   92SAPC  C318 8933   6.354   1.120   4.398  0.3845  0.1360 -0.4162
   92SAPC  H18X 8934   6.323   1.025   4.351  1.7516 -0.2135 -0.6581
   92SAPC  H18Y 8935   6.392   1.195   4.325  1.4120 -0.1270 -0.1651
   92SAPC  H18Z 8936   6.267   1.174   4.442  1.8097  0.1315  2.6676
   93SAPC     N 8937   2.947   3.742   7.434 -1.0603  0.0166  0.9876
   93SAPC   C12 8938   2.916   3.752   7.281 -0.5455  0.4254  0.1794
   93SAPC  H12A 8939   3.007   3.781   7.230 -0.4005  0.3186  0.3783
   93SAPC  H12B 8940   2.852   3.838   7.266 -0.5445  0.5084  0.6393
   93SAPC   C13 8941   3.017   3.613   7.465  0.1041  0.2273  0.6974
   93SAPC  H13A 8942   3.046   3.613   7.569 -1.7171  3.6923  1.3653
   93SAPC  H13B 8943   2.946   3.536   7.441  0.0738  0.7175 -0.9454
   93SAPC  H13C 8944   3.098   3.588   7.398 -2.1052 -2.6508 -1.2068
   93SAPC   C14 8945   3.026   3.857   7.476 -0.2142  0.0818  0.1555
   93SAPC  H14A 8946   2.995   3.950   7.431 -0.1681 -0.2137 -0.4884
   93SAPC  H14B 8947   3.013   3.866   7.583 -0.6454  5.4491 -0.0838
   93SAPC  H14C 8948   3.128   3.834   7.448 -0.9595 -2.2468 -0.9643
   93SAPC   C15 8949   2.824   3.734   7.518 -0.3134  0.4352 -0.1557
   93SAPC  H15A 8950   2.762   3.649   7.496  1.1023 -0.4057 -1.0304
   93SAPC  H15B 8951   2.860   3.705   7.616  0.8107 -1.4547 -1.0658
   93SAPC  H15C 8952   2.760   3.821   7.528 -2.4385 -1.3171  3.0798
   93SAPC   C11 8953   2.845   3.644   7.204 -0.0100  0.5018  0.2669
   93SAPC  H11A 8954   2.900   3.547   7.208 -3.3289 -1.6954 -1.9170
   93SAPC  H11B 8955   2.848   3.657   7.093  0.3781  2.2235  0.4511
   93SAPC     P 8956   2.598   3.714   7.227 -0.0127 -0.3480  0.3037
   93SAPC   O13 8957   2.476   3.646   7.282 -0.6292  0.6828 -0.1146
   93SAPC   O14 8958   2.627   3.858   7.275 -0.3423 -0.6471 -0.2996
   93SAPC   O12 8959   2.716   3.618   7.260 -0.6139 -0.3647  0.6753
   93SAPC   O11 8960   2.590   3.713   7.066 -0.6851  0.5618  0.4885
   93SAPC    C1 8961   2.566   3.594   6.991  0.0624  0.7901  0.4120
   93SAPC    HA 8962   2.647   3.519   7.000 -2.4524 -2.3339 -0.8911
   93SAPC    HB 8963   2.473   3.560   7.040 -0.7169  3.9595  1.3915
   93SAPC    C2 8964   2.533   3.635   6.845  0.2070 -0.2117  0.1276
   93SAPC    HS 8965   2.498   3.544   6.792  0.9012  0.5986 -1.8213
   93SAPC   O21 8966   2.641   3.692   6.760  0.2807  0.0436  0.0954
   93SAPC   C21 8967   2.754   3.627   6.742  0.2525  0.1216 -0.7342
   93SAPC   O22 8968   2.788   3.524   6.795 -0.2875  0.1611 -0.0561
   93SAPC   C22 8969   2.847   3.703   6.655 -0.1943  0.3709  0.4491
   93SAPC   H2R 8970   2.776   3.753   6.585  0.3209 -1.0976 -1.2024
   93SAPC   H2S 8971   2.895   3.780   6.718  2.4297 -0.8345  0.0421
   93SAPC    C3 8972   2.415   3.744   6.831  0.0556  0.4147 -0.3810
   93SAPC    HX 8973   2.461   3.844   6.842 -2.7888  1.9942 -1.7055
   93SAPC    HY 8974   2.344   3.741   6.917 -2.1691  1.2707 -2.0859
   93SAPC   O31 8975   2.357   3.725   6.699  0.0771  0.0868  0.3229
   93SAPC   C31 8976   2.402   3.817   6.604  1.0700  0.3226  0.6451
   93SAPC   O32 8977   2.469   3.914   6.626 -0.1888 -0.6328  1.3332
   93SAPC   C32 8978   2.377   3.754   6.468 -0.1658  0.0405 -0.1000
   93SAPC   H2X 8979   2.267   3.753   6.449 -0.3398 -0.1034  0.8785
   93SAPC   H2Y 8980   2.413   3.649   6.468  0.2104  0.1117 -2.3132
   93SAPC   C23 8981   2.944   3.615   6.574  1.1244 -0.9750 -0.3492
   93SAPC   H3R 8982   3.003   3.549   6.642  0.8567 -0.9274 -0.0691
   93SAPC   H3S 8983   3.012   3.687   6.524  0.2847 -0.0595 -0.2032
   93SAPC   C24 8984   2.870   3.522   6.473  0.2286 -0.3461  0.0366
   93SAPC   H4R 8985   2.819   3.581   6.395 -0.7070 -0.4566  0.5500
   93SAPC   H4S 8986   2.793   3.473   6.537 -2.7333  1.8489 -1.5934
   93SAPC   C25 8987   2.974   3.432   6.409 -0.9620  0.0651  0.2007
   93SAPC   H5R 8988   3.019   3.358   6.476 -0.6270 -0.1588 -0.2615
   93SAPC   C26 8989   2.999   3.414   6.280 -0.1627  0.7245 -1.0513
   93SAPC   H6R 8990   3.057   3.324   6.255  0.3275 -0.1475  2.6437
   93SAPC   C27 8991   2.931   3.477   6.167  0.1085 -0.2397  0.3509
   93SAPC   H7R 8992   3.010   3.511   6.097  2.1142 -0.4848  2.3987
   93SAPC   H7S 8993   2.890   3.574   6.203  0.4416  0.0534 -0.0595
   93SAPC   C28 8994   2.819   3.407   6.097 -0.3639 -0.2926  0.4227
   93SAPC   H8R 8995   2.733   3.371   6.154 -2.1613  1.4746 -1.0416
   93SAPC   C29 8996   2.815   3.391   5.963 -0.2327 -0.5298 -0.2854
   93SAPC   H9R 8997   2.724   3.338   5.933 -1.3887 -0.3879  2.6706
   93SAPC  C210 8998   2.912   3.431   5.860 -0.0131 -0.0644  0.8920
   93SAPC  H10R 8999   2.944   3.536   5.872  1.4903 -0.0386 -2.2191
   93SAPC  H10S 9000   2.864   3.432   5.760  2.9820  1.5605 -0.6893
   93SAPC  C211 9001   3.037   3.345   5.855  0.3700  0.1684  0.2918
   93SAPC  H11R 9002   3.082   3.315   5.950  1.2939  0.4524 -0.0453
   93SAPC  C212 9003   3.107   3.316   5.742  0.0634 -0.2549 -0.8968
   93SAPC  H12R 9004   3.195   3.251   5.744 -0.0040 -0.3369  1.3279
   93SAPC  C213 9005   3.066   3.357   5.600 -1.1389 -0.1194 -0.3256
   93SAPC  H13R 9006   3.071   3.468   5.603 -0.5635 -0.1447  3.0498
   93SAPC  H13S 9007   2.959   3.328   5.591 -1.4797  0.4046  1.6602
   93SAPC  C214 9008   3.159   3.297   5.495  0.1041  0.5012  0.2360
   93SAPC  H14R 9009   3.265   3.305   5.523  0.0028 -1.1721  1.2308
   93SAPC  C215 9010   3.117   3.254   5.368  1.0734 -0.0008  0.8954
   93SAPC  H15R 9011   3.176   3.223   5.280 -2.6737  4.5164 -3.9041
   93SAPC  C216 9012   2.975   3.254   5.317  0.3431 -0.5716  0.6273
   93SAPC  H16R 9013   2.908   3.290   5.398  1.2431 -0.0146  1.1481
   93SAPC  H16S 9014   2.932   3.157   5.287  0.3363  0.1093 -1.7503
   93SAPC  C217 9015   2.961   3.344   5.183 -0.1976  0.7287  0.2297
   93SAPC  H17R 9016   2.985   3.451   5.196  0.0264  0.6563  0.4120
   93SAPC  H17S 9017   2.859   3.328   5.141  0.7007 -2.0417 -1.1164
   93SAPC  C218 9018   3.046   3.290   5.060 -0.5181  0.4459  0.5212
   93SAPC  H18R 9019   3.019   3.182   5.058 -0.3008  0.3970  0.0408
   93SAPC  H18S 9020   3.155   3.312   5.069  0.1278  0.3756 -4.2940
   93SAPC  C219 9021   3.005   3.360   4.927 -0.3232 -0.8163 -0.5777
   93SAPC  H19R 9022   3.024   3.469   4.937 -2.1171 -0.3892 -1.2478
   93SAPC  H19S 9023   2.898   3.342   4.901 -0.6882  0.8940 -0.4024
   93SAPC  C220 9024   3.085   3.306   4.808  0.0264 -0.0314 -0.0448
   93SAPC  H20R 9025   3.058   3.203   4.776  1.0423 -1.1974  2.5878
   93SAPC  H20S 9026   3.189   3.290   4.844  0.4629 -1.8424 -1.9517
   93SAPC  H20T 9027   3.091   3.382   4.727 -0.4824  0.6248  0.5097
   93SAPC   C33 9028   2.445   3.828   6.356  0.5478 -0.5274 -0.3282
   93SAPC   H3X 9029   2.546   3.866   6.383  1.5307 -2.8504 -0.4949
   93SAPC   H3Y 9030   2.375   3.908   6.325 -2.9986 -2.8072  1.1679
   93SAPC   C34 9031   2.444   3.728   6.238  0.7168 -0.3049  0.1293
   93SAPC   H4X 9032   2.342   3.687   6.223  0.4692  0.3599 -0.0281
   93SAPC   H4Y 9033   2.519   3.648   6.259  1.6273  0.8948  1.6060
   93SAPC   C35 9034   2.480   3.799   6.105  0.3093 -0.0903 -0.3176
   93SAPC   H5X 9035   2.537   3.891   6.130 -1.0019 -0.0427  2.9418
   93SAPC   H5Y 9036   2.388   3.833   6.053  0.0324  0.3823  0.4623
   93SAPC   C36 9037   2.555   3.715   6.002  0.0408  0.0596  0.2959
   93SAPC   H6X 9038   2.488   3.627   5.988 -0.4128  0.1224  1.8450
   93SAPC   H6Y 9039   2.649   3.671   6.042 -0.0419 -0.5162 -0.1287
   93SAPC   C37 9040   2.574   3.775   5.862 -0.4818 -0.5630  0.3488
   93SAPC   H7X 9041   2.611   3.878   5.881  1.7363 -1.4921  1.3230
   93SAPC   H7Y 9042   2.480   3.779   5.803 -0.1069  0.7238 -0.1963
   93SAPC   C38 9043   2.686   3.703   5.786  0.5826 -0.2922 -0.3423
   93SAPC   H8X 9044   2.675   3.595   5.811  0.9023 -1.0037 -2.9729
   93SAPC   H8Y 9045   2.787   3.736   5.816  0.8376 -0.6419 -0.8008
   93SAPC   C39 9046   2.651   3.710   5.638  0.2147  0.4928 -0.1052
   93SAPC   H9X 9047   2.649   3.817   5.608  0.1447  1.1515  2.0838
   93SAPC   H9Y 9048   2.553   3.661   5.616  0.7606 -0.6833  0.0272
   93SAPC  C310 9049   2.747   3.634   5.547  0.1624 -0.4285 -0.0592
   93SAPC  H10X 9050   2.748   3.531   5.589  0.7313 -0.1655  0.6002
   93SAPC  H10Y 9051   2.852   3.669   5.557  0.9051 -2.7080  0.8357
   93SAPC  C311 9052   2.710   3.627   5.396 -0.3198 -0.5230  0.1155
   93SAPC  H11X 9053   2.605   3.661   5.384  0.7493  2.4908 -1.8289
   93SAPC  H11Y 9054   2.718   3.522   5.360  0.1005  0.0000 -1.3987
   93SAPC  C312 9055   2.799   3.726   5.310 -0.3081 -0.1715 -0.5466
   93SAPC  H12X 9056   2.909   3.720   5.326  0.8383  0.5338 -6.1746
   93SAPC  H12Y 9057   2.771   3.825   5.352 -2.7222 -1.3550  0.8428
   93SAPC  C313 9058   2.752   3.718   5.170  0.4621  0.5450  0.2368
   93SAPC  H13X 9059   2.644   3.746   5.171  0.3794  0.2588  1.6117
   93SAPC  H13Y 9060   2.767   3.610   5.152  1.5672  0.6867  0.2358
   93SAPC  C314 9061   2.837   3.803   5.078 -0.1645  0.1541 -0.3024
   93SAPC  H14X 9062   2.835   3.905   5.123 -0.5637 -0.0374  0.1143
   93SAPC  H14Y 9063   2.787   3.816   4.979  0.2865 -1.6550 -0.8015
   93SAPC  C315 9064   2.980   3.751   5.053 -0.7611  0.1654  0.1694
   93SAPC  H15X 9065   2.968   3.645   5.022  1.6882  0.2161 -1.2718
   93SAPC  H15Y 9066   3.039   3.759   5.146  2.7043  0.4422 -1.8767
   93SAPC  C316 9067   3.059   3.836   4.955  0.4019  0.0071  0.2444
   93SAPC  H16X 9068   3.058   3.941   4.991  1.8456  0.4611 -0.9756
   93SAPC  H16Y 9069   3.012   3.836   4.854  1.1222 -1.2521 -0.1066
   93SAPC  C317 9070   3.206   3.807   4.937  0.5843 -0.3413  0.7625
   93SAPC  H17X 9071   3.231   3.702   4.912  1.0654  0.4828 -2.8097
   93SAPC  H17Y 9072   3.261   3.814   5.034  2.6984  2.3809 -0.4766
   93SAPC  C318 9073   3.277   3.905   4.842  0.4042 -0.2871 -0.5154
   93SAPC  H18X 9074   3.387   3.895   4.860  0.5419  1.5731 -0.0929
   93SAPC  H18Y 9075   3.248   4.007   4.875  0.0183 -0.8993  1.1218
   93SAPC  H18Z 9076   3.258   3.906   4.733  1.5433  2.2708 -0.7838
   94SAPC     N 9077   0.434   0.898   6.525 -0.2334 -0.0324 -0.3444
   94SAPC   C12 9078   0.372   0.769   6.466  0.5649 -0.6466 -0.1662
   94SAPC  H12A 9079   0.335   0.707   6.546 -0.9422  0.7302  0.2698
   94SAPC  H12B 9080   0.452   0.718   6.414  0.1202 -0.4416 -1.0619
   94SAPC   C13 9081   0.329   0.993   6.568 -1.0039  0.1465 -0.1828
   94SAPC  H13A 9082   0.379   1.082   6.604 -0.7371 -0.0771 -0.0023
   94SAPC  H13B 9083   0.265   1.018   6.484 -0.7893 -0.1865 -0.4507
   94SAPC  H13C 9084   0.269   0.950   6.647  1.1900 -0.6387  1.1407
   94SAPC   C14 9085   0.518   0.870   6.648  0.5572  0.3205 -0.0516
   94SAPC  H14A 9086   0.460   0.824   6.727  0.1892 -0.0353 -0.5240
   94SAPC  H14B 9087   0.595   0.796   6.630 -1.5383 -1.5617 -1.8588
   94SAPC  H14C 9088   0.558   0.960   6.693  0.0795  1.3250 -1.5477
   94SAPC   C15 9089   0.525   0.959   6.429 -0.1098 -0.4063  0.0964
   94SAPC  H15A 9090   0.579   1.045   6.467 -0.1992 -0.5559  0.5571
   94SAPC  H15B 9091   0.584   0.876   6.393 -1.6175 -0.3551 -2.8025
   94SAPC  H15C 9092   0.477   1.001   6.341  1.4457 -1.8967 -1.5519
   94SAPC   C11 9093   0.255   0.777   6.366 -0.1977 -0.0842  0.1957
   94SAPC  H11A 9094   0.302   0.835   6.283  0.6042  0.5330  1.0650
   94SAPC  H11B 9095   0.167   0.826   6.412 -1.0996 -1.9283  0.5009
   94SAPC     P 9096   0.126   0.548   6.403  0.2729 -0.4262  0.3751
   94SAPC   O13 9097   0.099   0.426   6.319 -0.3718 -0.0376 -0.2094
   94SAPC   O14 9098   0.189   0.539   6.534 -0.4091  0.5801  0.2649
   94SAPC   O12 9099   0.217   0.647   6.318  0.0805  0.0635  0.2585
   94SAPC   O11 9100  -0.003   0.637   6.417 -0.8151  0.3935 -0.5507
   94SAPC    C1 9101  -0.094   0.654   6.304  0.2551  0.1916 -0.1932
   94SAPC    HA 9102  -0.033   0.692   6.219 -0.1360 -2.1804 -1.6263
   94SAPC    HB 9103  -0.136   0.557   6.269 -2.6365  0.2581  2.6778
   94SAPC    C2 9104  -0.210   0.748   6.330 -0.8477  0.9439 -0.1490
   94SAPC    HS 9105  -0.266   0.709   6.418 -0.8619  1.3860  0.0426
   94SAPC   O21 9106  -0.289   0.739   6.213  0.6360  0.1929  0.0682
   94SAPC   C21 9107  -0.405   0.793   6.227  0.1489 -0.5501 -0.3225
   94SAPC   O22 9108  -0.440   0.850   6.333 -0.6806 -0.1690  0.0023
   94SAPC   C22 9109  -0.492   0.792   6.107 -0.3218  0.2011  0.4874
   94SAPC   H2R 9110  -0.449   0.861   6.031  0.3839 -1.1955 -0.4242
   94SAPC   H2S 9111  -0.478   0.689   6.067 -0.2832 -0.0578  1.1603
   94SAPC    C3 9112  -0.158   0.889   6.355 -0.3000 -0.0272 -0.0574
   94SAPC    HX 9113  -0.098   0.887   6.448 -0.3720 -2.3005 -0.0122
   94SAPC    HY 9114  -0.242   0.960   6.373 -0.1341  0.2553 -0.3959
   94SAPC   O31 9115  -0.082   0.939   6.243  0.9849  0.1214  0.0854
   94SAPC   C31 9116  -0.010   1.045   6.273  0.0680 -0.7260 -0.5340
   94SAPC   O32 9117  -0.016   1.117   6.374  0.3203 -0.8705  0.2106
   94SAPC   C32 9118   0.106   1.070   6.170  0.1058  0.1250  0.1199
   94SAPC   H2X 9119   0.114   0.972   6.118  1.7434 -0.9533  2.2016
   94SAPC   H2Y 9120   0.195   1.089   6.234  0.3967 -1.0563  0.0994
   94SAPC   C23 9121  -0.645   0.821   6.133 -0.0486  0.4651 -0.4655
   94SAPC   H3R 9122  -0.653   0.911   6.198 -1.5026 -0.6937  1.0485
   94SAPC   H3S 9123  -0.680   0.741   6.202  0.6894  2.5839  2.5996
   94SAPC   C24 9124  -0.710   0.868   6.004 -0.3041  0.1365  0.6957
   94SAPC   H4R 9125  -0.816   0.837   5.993 -0.3388  0.8849 -1.3990
   94SAPC   H4S 9126  -0.651   0.821   5.922 -0.4376  0.9235  0.1391
   94SAPC   C25 9127  -0.697   1.021   5.981 -0.6404 -0.3715  0.5346
   94SAPC   H5R 9128  -0.601   1.072   5.999 -0.9297 -0.0045  1.0477
   94SAPC   C26 9129  -0.800   1.105   5.958  0.5248 -0.2081 -0.0238
   94SAPC   H6R 9130  -0.790   1.214   5.947 -0.0942 -0.1610 -0.1458
   94SAPC   C27 9131  -0.947   1.071   5.958 -1.0066 -0.1038  1.2863
   94SAPC   H7R 9132  -0.971   1.009   6.047 -0.4079 -0.1488  1.4225
   94SAPC   H7S 9133  -0.969   1.011   5.868 -1.6816  1.6171  0.2490
   94SAPC   C28 9134  -1.029   1.194   5.977 -0.2739 -0.0177  0.1779
   94SAPC   H8R 9135  -1.017   1.256   6.067 -1.7015  0.2988  0.1715
   94SAPC   C29 9136  -1.134   1.227   5.899  0.0896  0.4345  0.2470
   94SAPC   H9R 9137  -1.198   1.312   5.928 -0.0808  0.0608  0.9883
   94SAPC  C210 9138  -1.193   1.159   5.781 -0.6734  0.1928  0.2471
   94SAPC  H10R 9139  -1.302   1.143   5.795 -0.7272  1.2268  1.2195
   94SAPC  H10S 9140  -1.155   1.057   5.761 -1.2745  0.4003 -2.2276
   94SAPC  C211 9141  -1.179   1.246   5.654 -0.7083 -0.0929 -0.4125
   94SAPC  H11R 9142  -1.185   1.352   5.680  4.1342  0.4825 -0.8093
   94SAPC  C212 9143  -1.157   1.212   5.531  0.2873  0.3762  0.9160
   94SAPC  H12R 9144  -1.162   1.297   5.461 -2.1778 -1.1783 -0.9630
   94SAPC  C213 9145  -1.132   1.069   5.473  0.3090  0.2842  0.8234
   94SAPC  H13R 9146  -1.222   1.008   5.498 -0.4451  0.1620 -1.8493
   94SAPC  H13S 9147  -1.044   1.022   5.520 -0.1854 -1.1606  0.3478
   94SAPC  C214 9148  -1.105   1.070   5.327 -0.6226 -0.0063 -0.1455
   94SAPC  H14R 9149  -1.024   1.136   5.294  0.1399 -0.1894  1.2952
   94SAPC  C215 9150  -1.185   1.021   5.235  0.1937  0.1494  1.0367
   94SAPC  H15R 9151  -1.150   1.019   5.131  0.2384 -0.9128  1.0622
   94SAPC  C216 9152  -1.325   0.952   5.253 -1.0434  0.5135 -0.4619
   94SAPC  H16R 9153  -1.358   0.972   5.357  0.3682 -2.7450  0.7273
   94SAPC  H16S 9154  -1.307   0.843   5.254  2.5880  1.0017 -0.4279
   94SAPC  C217 9155  -1.425   1.005   5.149 -0.2054  0.2212 -0.5736
   94SAPC  H17R 9156  -1.391   0.994   5.044  0.9229  0.7721 -0.2813
   94SAPC  H17S 9157  -1.446   1.113   5.167 -2.2960 -0.4695  1.6863
   94SAPC  C218 9158  -1.568   0.935   5.168 -0.0534  0.5813 -0.3547
   94SAPC  H18R 9159  -1.588   0.947   5.277  0.0902  2.1218 -0.4730
   94SAPC  H18S 9160  -1.560   0.826   5.149  3.3165  0.2749  2.0448
   94SAPC  C219 9161  -1.681   1.005   5.088  0.5310 -0.4130 -0.1482
   94SAPC  H19R 9162  -1.646   0.989   4.983  2.4676  0.9610  0.2194
   94SAPC  H19S 9163  -1.685   1.116   5.099  0.5877 -0.3716 -0.5161
   94SAPC  C220 9164  -1.816   0.935   5.116 -0.2361  0.3795  0.0181
   94SAPC  H20R 9165  -1.820   0.830   5.079  1.1819  0.3547 -0.1246
   94SAPC  H20S 9166  -1.902   0.991   5.074  0.5851  2.5868  1.1010
   94SAPC  H20T 9167  -1.831   0.937   5.226 -1.6305  2.3272 -0.1704
   94SAPC   C33 9168   0.083   1.190   6.082 -0.5186  0.0713  0.0634
   94SAPC   H3X 9169   0.164   1.209   6.008 -2.2395  1.3909 -1.5836
   94SAPC   H3Y 9170   0.085   1.284   6.141  0.8508  0.2541 -0.2468
   94SAPC   C34 9171  -0.043   1.188   6.004 -0.0571 -0.4728  0.2997
   94SAPC   H4X 9172  -0.052   1.291   5.963 -0.3457 -0.6592 -0.1273
   94SAPC   H4Y 9173  -0.133   1.165   6.065  0.7691 -1.5984  1.1233
   94SAPC   C35 9174  -0.051   1.090   5.887  0.1040  0.3944  0.7190
   94SAPC   H5X 9175  -0.160   1.091   5.867  0.4024  2.8451 -1.2911
   94SAPC   H5Y 9176  -0.027   0.985   5.917 -0.0685  0.6948  1.9765
   94SAPC   C36 9177   0.012   1.130   5.756 -0.9537 -0.6157 -0.1358
   94SAPC   H6X 9178   0.123   1.132   5.762 -0.8513 -2.3305 -0.8202
   94SAPC   H6Y 9179  -0.013   1.236   5.731 -0.4893 -0.4118  0.2527
   94SAPC   C37 9180  -0.029   1.033   5.646 -0.1985 -0.8451 -0.3745
   94SAPC   H7X 9181  -0.138   1.050   5.634  0.0214  4.5817  2.5096
   94SAPC   H7Y 9182  -0.002   0.928   5.672  1.4450 -0.1563  0.8492
   94SAPC   C38 9183   0.047   1.057   5.514 -0.0678 -0.1990 -0.2547
   94SAPC   H8X 9184   0.023   0.967   5.454 -1.8030  0.6222 -0.8461
   94SAPC   H8Y 9185   0.156   1.051   5.535 -0.5282  0.8169  2.8921
   94SAPC   C39 9186   0.005   1.179   5.430 -0.1368 -0.7312  0.3492
   94SAPC   H9X 9187   0.057   1.272   5.464 -0.8214 -1.1242  2.6557
   94SAPC   H9Y 9188  -0.104   1.195   5.446  0.2664  1.8979  0.9209
   94SAPC  C310 9189   0.043   1.158   5.279  0.5733  0.3591  0.6264
   94SAPC  H10X 9190   0.008   1.058   5.248 -0.0467  0.3728  1.2561
   94SAPC  H10Y 9191   0.153   1.158   5.263  0.3621 -0.7365 -1.1130
   94SAPC  C311 9192  -0.019   1.270   5.202 -0.4516  0.4773 -0.2130
   94SAPC  H11X 9193   0.001   1.356   5.269  0.5762 -0.8301  1.2246
   94SAPC  H11Y 9194  -0.129   1.256   5.189 -0.6014  2.1400 -1.0747
   94SAPC  C312 9195   0.045   1.298   5.065  0.1348  0.7793 -0.2341
   94SAPC  H12X 9196   0.046   1.205   5.004  0.0301  1.7997 -1.8476
   94SAPC  H12Y 9197   0.154   1.320   5.072  0.6806 -1.6507 -0.0764
   94SAPC  C313 9198  -0.028   1.414   4.992 -0.3793  0.0276  0.1467
   94SAPC  H13X 9199  -0.002   1.506   5.050  2.1846 -1.4660  1.5783
   94SAPC  H13Y 9200  -0.138   1.403   4.993 -0.1718 -2.5980  0.6204
   94SAPC  C314 9201   0.013   1.407   4.841  0.8434 -0.6247  0.2116
   94SAPC  H14X 9202  -0.047   1.325   4.796 -0.2392 -0.3611  1.1138
   94SAPC  H14Y 9203   0.121   1.391   4.821  0.5294 -1.4499 -0.9279
   94SAPC  C315 9204  -0.043   1.523   4.760  0.0799 -0.1796 -0.2892
   94SAPC  H15X 9205   0.033   1.604   4.768 -0.2468  0.3275 -1.8914
   94SAPC  H15Y 9206  -0.141   1.565   4.793 -0.0900  0.3773 -1.4457
   94SAPC  C316 9207  -0.066   1.487   4.612  0.0678 -0.0321 -0.2108
   94SAPC  H16X 9208  -0.170   1.451   4.600 -0.1270 -0.7645  2.9254
   94SAPC  H16Y 9209   0.007   1.406   4.591  0.4133  0.4139 -0.7702
   94SAPC  C317 9210  -0.041   1.599   4.516 -0.4547 -0.1044 -0.1287
   94SAPC  H17X 9211  -0.052   1.564   4.411  0.5978 -0.0959 -0.2537
   94SAPC  H17Y 9212   0.064   1.633   4.523 -0.3445 -0.6507  1.2805
   94SAPC  C318 9213  -0.131   1.724   4.547 -0.3968 -0.2166 -0.2985
   94SAPC  H18X 9214  -0.093   1.809   4.485  0.9310 -0.0147  0.7360
   94SAPC  H18Y 9215  -0.107   1.753   4.652  1.4360  0.7082 -0.9156
   94SAPC  H18Z 9216  -0.241   1.723   4.557 -0.4578  3.5032  0.8949
   95SAPC     N 9217   1.670   0.817   2.560 -0.6351 -0.3396 -0.1754
   95SAPC   C12 9218   1.568   0.927   2.526 -0.2023 -0.6455 -0.1129
   95SAPC  H12A 9219   1.512   0.893   2.440 -0.3350  0.5529 -0.5227
   95SAPC  H12B 9220   1.607   1.017   2.481  1.8019 -1.3708  0.0692
   95SAPC   C13 9221   1.595   0.684   2.573  0.3722 -0.5967 -0.5781
   95SAPC  H13A 9222   1.504   0.702   2.629 -1.1000  0.2061 -3.0933
   95SAPC  H13B 9223   1.593   0.629   2.480 -2.1993 -2.0823  0.2663
   95SAPC  H13C 9224   1.654   0.619   2.636  0.5709  1.9793  2.1374
   95SAPC   C14 9225   1.773   0.806   2.457  0.4101  0.2365 -0.6843
   95SAPC  H14A 9226   1.827   0.714   2.474  1.0841  1.0589  2.0950
   95SAPC  H14B 9227   1.721   0.774   2.368  0.3105 -1.2016 -0.1362
   95SAPC  H14C 9228   1.838   0.886   2.426 -0.2354  1.0621  0.0354
   95SAPC   C15 9229   1.734   0.854   2.688  0.3845 -0.1519  0.6401
   95SAPC  H15A 9230   1.784   0.767   2.728 -0.7805 -0.8532  0.6057
   95SAPC  H15B 9231   1.811   0.930   2.686  1.4347 -1.1954  0.4150
   95SAPC  H15C 9232   1.658   0.880   2.760  0.3395 -2.3533  1.4703
   95SAPC   C11 9233   1.471   0.963   2.637 -0.4120 -0.1373  0.0956
   95SAPC  H11A 9234   1.409   1.050   2.611 -1.1151  0.0643  2.2529
   95SAPC  H11B 9235   1.523   1.017   2.719  0.8613  1.3923 -1.6285
   95SAPC     P 9236   1.306   0.854   2.816 -0.4037  0.0259  0.0266
   95SAPC   O13 9237   1.382   0.949   2.902 -0.0150  0.4339 -0.2105
   95SAPC   O14 9238   1.161   0.876   2.793 -0.1374  0.7429  0.3443
   95SAPC   O12 9239   1.373   0.858   2.672 -0.6957  0.6344  0.8195
   95SAPC   O11 9240   1.321   0.704   2.859  0.0842  0.3912 -0.5737
   95SAPC    C1 9241   1.446   0.634   2.859 -1.0332 -0.1317 -0.5384
   95SAPC    HA 9242   1.447   0.544   2.794  1.9596 -0.2370 -0.4931
   95SAPC    HB 9243   1.522   0.707   2.822 -2.1861  0.6842 -1.3823
   95SAPC    C2 9244   1.485   0.588   3.004 -0.2519 -0.5350  0.2937
   95SAPC    HS 9245   1.407   0.513   3.027 -0.5753 -0.8286 -1.5610
   95SAPC   O21 9246   1.469   0.706   3.093  0.2792  0.0598  0.6153
   95SAPC   C21 9247   1.447   0.672   3.221 -0.4777 -0.3561 -0.0938
   95SAPC   O22 9248   1.413   0.562   3.262  0.2154  0.3948  1.0233
   95SAPC   C22 9249   1.486   0.786   3.320  0.9756 -0.0104 -0.1747
   95SAPC   H2R 9250   1.593   0.815   3.319  0.4999  1.9028 -0.7661
   95SAPC   H2S 9251   1.432   0.876   3.282  2.6038  1.7294  1.4404
   95SAPC    C3 9252   1.624   0.528   3.003  0.1168 -0.1725  0.1074
   95SAPC    HX 9253   1.696   0.609   2.975  1.5803 -1.7316 -0.8623
   95SAPC    HY 9254   1.641   0.456   2.920  3.3170 -0.9894  1.2901
   95SAPC   O31 9255   1.655   0.451   3.123 -0.4119 -0.0949 -0.3985
   95SAPC   C31 9256   1.770   0.480   3.180 -0.9926  0.1889 -0.0695
   95SAPC   O32 9257   1.845   0.576   3.168 -0.0486 -0.4147 -0.5122
   95SAPC   C32 9258   1.799   0.374   3.284  0.3058 -0.0518  1.0861
   95SAPC   H2X 9259   1.909   0.360   3.291  0.4041  0.0495 -0.0320
   95SAPC   H2Y 9260   1.752   0.279   3.250 -0.3062  1.3362 -2.3862
   95SAPC   C23 9261   1.434   0.759   3.467 -0.3664 -0.1442 -0.6896
   95SAPC   H3R 9262   1.325   0.739   3.457 -0.6096  1.2517 -1.0463
   95SAPC   H3S 9263   1.437   0.855   3.524  0.5584  0.6628 -2.0536
   95SAPC   C24 9264   1.515   0.651   3.544  1.0927 -0.3227  0.5231
   95SAPC   H4R 9265   1.618   0.691   3.550  1.0253  0.1191 -0.8902
   95SAPC   H4S 9266   1.524   0.553   3.494 -0.3206 -0.9081  1.3443
   95SAPC   C25 9267   1.444   0.642   3.673 -0.5974 -0.8234 -0.8748
   95SAPC   H5R 9268   1.346   0.592   3.669 -1.6770  1.2172 -1.5424
   95SAPC   C26 9269   1.487   0.693   3.793  0.2917 -0.0856  0.9752
   95SAPC   H6R 9270   1.411   0.689   3.873 -1.3856  1.7207 -0.4257
   95SAPC   C27 9271   1.607   0.777   3.813 -0.4673 -0.7284  0.3202
   95SAPC   H7R 9272   1.672   0.779   3.723  0.5538  0.0640  1.0564
   95SAPC   H7S 9273   1.668   0.723   3.888 -0.9787 -3.3783 -1.0418
   95SAPC   C28 9274   1.567   0.913   3.864 -0.4684  0.1861  0.5074
   95SAPC   H8R 9275   1.571   0.995   3.791 -1.2769  0.4429  0.7418
   95SAPC   C29 9276   1.553   0.941   3.992 -0.3968 -0.0268 -0.3414
   95SAPC   H9R 9277   1.514   1.036   4.031 -1.3873  0.1989 -1.8020
   95SAPC  C210 9278   1.558   0.838   4.108 -0.3204 -0.6010 -0.8748
   95SAPC  H10R 9279   1.509   0.748   4.066 -0.8556 -1.0857  0.6971
   95SAPC  H10S 9280   1.493   0.875   4.191  2.4870  0.2167  1.1341
   95SAPC  C211 9281   1.697   0.807   4.161  0.9416 -0.6375 -0.3234
   95SAPC  H11R 9282   1.779   0.833   4.092 -0.1554  0.5760 -1.2270
   95SAPC  C212 9283   1.736   0.766   4.281  0.6063 -0.2867  0.5765
   95SAPC  H12R 9284   1.843   0.748   4.292  0.5629 -0.6480  0.4267
   95SAPC  C213 9285   1.644   0.730   4.396 -0.1148  0.3585  0.0122
   95SAPC  H13R 9286   1.628   0.620   4.390 -1.0323  0.3998  1.4768
   95SAPC  H13S 9287   1.542   0.771   4.379 -0.6285 -1.0280 -0.4043
   95SAPC  C214 9288   1.700   0.769   4.530 -0.1960  0.1413  0.0455
   95SAPC  H14R 9289   1.745   0.869   4.537  0.2989 -0.0482 -0.4258
   95SAPC  C215 9290   1.689   0.697   4.642  0.1985  0.2588 -0.0134
   95SAPC  H15R 9291   1.719   0.730   4.743  1.7656 -1.0825  0.0106
   95SAPC  C216 9292   1.605   0.564   4.635 -0.5321  0.3056  1.0728
   95SAPC  H16R 9293   1.537   0.545   4.549  0.5053 -3.3055  0.8811
   95SAPC  H16S 9294   1.531   0.571   4.717  0.2739 -1.0393  1.9538
   95SAPC  C217 9295   1.692   0.431   4.658  0.6672 -0.2858 -0.0390
   95SAPC  H17R 9296   1.627   0.341   4.663  0.2179  0.0490  0.2464
   95SAPC  H17S 9297   1.756   0.436   4.749  0.2151  0.0391  0.2661
   95SAPC  C218 9298   1.782   0.408   4.534  0.0458  0.8927  0.1060
   95SAPC  H18R 9299   1.864   0.336   4.556 -1.0279 -0.8994 -1.4031
   95SAPC  H18S 9300   1.829   0.501   4.495 -0.9881  0.7799 -1.5257
   95SAPC  C219 9301   1.705   0.344   4.418 -1.0258 -0.6683  0.4333
   95SAPC  H19R 9302   1.619   0.407   4.385 -0.6084 -1.1375 -1.7048
   95SAPC  H19S 9303   1.671   0.244   4.453  3.0288 -1.3430  3.0822
   95SAPC  C220 9304   1.800   0.314   4.298  0.8631  0.0412 -0.8704
   95SAPC  H20R 9305   1.830   0.407   4.247  1.5477  0.3437  0.0612
   95SAPC  H20S 9306   1.755   0.244   4.224  0.4767 -1.9425  1.1293
   95SAPC  H20T 9307   1.884   0.257   4.344  0.0721 -0.8472 -0.4899
   95SAPC   C33 9308   1.738   0.404   3.421  0.0135  0.3007  0.2564
   95SAPC   H3X 9309   1.631   0.373   3.417  0.9059 -3.4904  2.1130
   95SAPC   H3Y 9310   1.747   0.515   3.431 -0.9760  0.4032  0.1236
   95SAPC   C34 9311   1.793   0.328   3.546 -0.1175 -0.2965 -0.8715
   95SAPC   H4X 9312   1.890   0.366   3.585 -1.9858  1.3235  2.6863
   95SAPC   H4Y 9313   1.806   0.220   3.525 -0.8508 -0.4468 -0.5746
   95SAPC   C35 9314   1.711   0.343   3.670 -0.5738 -0.9798 -0.3336
   95SAPC   H5X 9315   1.605   0.321   3.646 -0.5542 -0.1381 -1.2433
   95SAPC   H5Y 9316   1.715   0.450   3.698  0.0208 -0.4474 -2.3282
   95SAPC   C36 9317   1.766   0.253   3.780  0.4417 -0.5140  0.0533
   95SAPC   H6X 9318   1.877   0.266   3.785  0.2528  1.5666 -0.4069
   95SAPC   H6Y 9319   1.731   0.149   3.761  2.2650 -1.2365  0.4116
   95SAPC   C37 9320   1.717   0.294   3.921 -0.3219  0.5252 -0.1466
   95SAPC   H7X 9321   1.783   0.378   3.949  1.1540 -0.5887 -0.1738
   95SAPC   H7Y 9322   1.731   0.223   4.005 -2.1821  1.4610  1.0296
   95SAPC   C38 9323   1.565   0.327   3.932 -0.2460  0.4482 -0.1232
   95SAPC   H8X 9324   1.496   0.242   3.914  0.2598  0.0627 -0.2666
   95SAPC   H8Y 9325   1.544   0.398   3.849  0.3617 -0.4670 -1.0733
   95SAPC   C39 9326   1.530   0.383   4.065  0.1477 -0.4077 -0.1853
   95SAPC   H9X 9327   1.595   0.467   4.099  1.2433 -1.1629 -0.3669
   95SAPC   H9Y 9328   1.548   0.305   4.142  0.7683  1.0714  1.2288
   95SAPC  C310 9329   1.388   0.436   4.058  0.2212 -0.1068  0.0384
   95SAPC  H10X 9330   1.324   0.349   4.031  1.0038 -0.1076 -2.0439
   95SAPC  H10Y 9331   1.379   0.500   3.968 -2.0739 -2.3622 -1.4821
   95SAPC  C311 9332   1.340   0.502   4.188  0.3153  0.5291 -0.1117
   95SAPC  H11X 9333   1.405   0.590   4.206 -0.3085  1.4307 -2.0145
   95SAPC  H11Y 9334   1.322   0.434   4.274  0.7559 -0.1632 -0.5618
   95SAPC  C312 9335   1.208   0.567   4.150 -0.1165  0.3216 -0.3610
   95SAPC  H12X 9336   1.139   0.482   4.133 -2.4798  2.0814 -0.0449
   95SAPC  H12Y 9337   1.213   0.630   4.059 -1.9534 -1.0553 -1.4817
   95SAPC  C313 9338   1.148   0.634   4.271  0.5074 -0.3963  0.3225
   95SAPC  H13X 9339   1.165   0.571   4.361  0.6728  0.6573  1.0471
   95SAPC  H13Y 9340   1.038   0.632   4.253  0.3653 -1.0578  1.2070
   95SAPC  C314 9341   1.190   0.773   4.294  0.1586  0.7647 -0.2263
   95SAPC  H14X 9342   1.299   0.776   4.319  0.2223  1.1233 -0.5350
   95SAPC  H14Y 9343   1.147   0.820   4.386 -1.9994  0.4802 -1.0360
   95SAPC  C315 9344   1.167   0.865   4.173  0.1067  0.9223 -0.3209
   95SAPC  H15X 9345   1.071   0.838   4.124  0.3087  1.3316 -0.9605
   95SAPC  H15Y 9346   1.243   0.833   4.100  0.5118  0.8505  0.1286
   95SAPC  C316 9347   1.180   1.018   4.212  0.0458  0.6392 -0.0954
   95SAPC  H16X 9348   1.093   1.042   4.278 -0.4036 -1.4063  0.1141
   95SAPC  H16Y 9349   1.157   1.071   4.116  0.3869  0.0341 -0.5189
   95SAPC  C317 9350   1.314   1.058   4.276  0.6746  0.1956 -0.3738
   95SAPC  H17X 9351   1.401   1.038   4.209 -0.1249 -2.9142 -0.6515
   95SAPC  H17Y 9352   1.339   0.988   4.358  1.1022  0.2507 -0.4565
   95SAPC  C318 9353   1.313   1.197   4.326 -0.5233 -0.2182 -0.6221
   95SAPC  H18X 9354   1.261   1.205   4.423  1.4326 -2.0018  0.6510
   95SAPC  H18Y 9355   1.271   1.271   4.254  0.0326 -0.2595 -0.9975
   95SAPC  H18Z 9356   1.419   1.230   4.334 -0.3059 -1.3918  2.1297
   96SAPC     N 9357   5.897   0.713   2.415 -0.3078  0.0536  0.5624
   96SAPC   C12 9358   5.963   0.634   2.520 -0.2582 -0.1780  0.2053
   96SAPC  H12A 9359   6.045   0.571   2.487  0.8862  2.0484 -1.5373
   96SAPC  H12B 9360   5.889   0.574   2.570 -3.9993  2.5623 -1.5443
   96SAPC   C13 9361   5.822   0.612   2.327  0.1302  0.2194 -0.0086
   96SAPC  H13A 9362   5.732   0.572   2.371  1.0805 -0.3335  1.5536
   96SAPC  H13B 9363   5.799   0.661   2.234 -0.3658 -2.2775 -1.2826
   96SAPC  H13C 9364   5.892   0.533   2.304  0.1061  0.4804 -0.9938
   96SAPC   C14 9365   5.801   0.814   2.471 -0.0029  0.2485  1.0357
   96SAPC  H14A 9366   5.723   0.771   2.533 -2.3935  2.6475 -0.1287
   96SAPC  H14B 9367   5.857   0.893   2.518  0.8847  2.0321 -2.6487
   96SAPC  H14C 9368   5.743   0.853   2.389  1.2403 -0.0304 -0.0069
   96SAPC   C15 9369   5.990   0.786   2.325 -0.1343  0.1726  0.2671
   96SAPC  H15A 9370   5.948   0.855   2.253 -1.6477 -0.5014  0.4678
   96SAPC  H15B 9371   6.055   0.844   2.388  0.0269  0.3037 -0.0142
   96SAPC  H15C 9372   6.051   0.718   2.267 -1.1898 -0.4269 -0.1692
   96SAPC   C11 9373   6.043   0.712   2.631  0.1004 -0.8930 -0.6684
   96SAPC  H11A 9374   6.051   0.642   2.717  0.7439 -0.4028 -0.3210
   96SAPC  H11B 9375   5.971   0.788   2.667  0.4958  0.0651 -1.8303
   96SAPC     P 9376   6.291   0.713   2.553  0.1004  0.1267 -0.2186
   96SAPC   O13 9377   6.253   0.575   2.515  0.1131  0.6069  0.0490
   96SAPC   O14 9378   6.383   0.785   2.458 -0.4741 -0.3801 -0.4669
   96SAPC   O12 9379   6.154   0.792   2.588  0.0949 -0.1001 -0.7381
   96SAPC   O11 9380   6.363   0.717   2.692  0.1983 -0.1618 -0.3094
   96SAPC    C1 9381   6.392   0.846   2.744 -0.2589  0.0031 -0.1138
   96SAPC    HA 9382   6.478   0.886   2.686  0.6449 -0.9707  0.5265
   96SAPC    HB 9383   6.306   0.916   2.753 -0.0500  0.3376 -0.6918
   96SAPC    C2 9384   6.447   0.840   2.887  0.1663 -0.6499  0.2939
   96SAPC    HS 9385   6.496   0.938   2.907  1.3727 -1.6179  2.4008
   96SAPC   O21 9386   6.546   0.748   2.908  0.4030  0.4620  0.6458
   96SAPC   C21 9387   6.665   0.774   2.841 -0.0782  0.5029  0.1062
   96SAPC   O22 9388   6.686   0.874   2.774  0.5356 -0.6801 -0.1153
   96SAPC   C22 9389   6.767   0.658   2.862  0.1087 -0.7759  0.3988
   96SAPC   H2R 9390   6.724   0.592   2.940  1.8928 -0.1952  1.9443
   96SAPC   H2S 9391   6.776   0.605   2.765 -0.1634  0.0153 -0.0725
   96SAPC    C3 9392   6.335   0.816   2.986  0.9110  0.3563  0.3950
   96SAPC    HX 9393   6.293   0.714   2.975  0.3100  0.6897 -0.4976
   96SAPC    HY 9394   6.251   0.881   2.953 -0.9524 -2.6729 -1.2324
   96SAPC   O31 9395   6.381   0.823   3.120  0.0870  0.0228 -0.3164
   96SAPC   C31 9396   6.408   0.944   3.156  0.7852 -0.8822 -1.0456
   96SAPC   O32 9397   6.399   1.047   3.090  0.3605  0.7920 -0.0168
   96SAPC   C32 9398   6.458   0.933   3.292  0.0763  0.4380 -0.1912
   96SAPC   H2X 9399   6.391   0.876   3.360  0.8270 -1.0184 -0.6194
   96SAPC   H2Y 9400   6.478   1.039   3.319 -0.6489  0.9943 -1.7180
   96SAPC   C23 9401   6.907   0.707   2.917  0.0745 -0.8456 -0.0799
   96SAPC   H3R 9402   6.896   0.718   3.026  0.3234 -0.3907 -0.0984
   96SAPC   H3S 9403   6.929   0.805   2.869  0.6487 -1.6198 -1.4845
   96SAPC   C24 9404   7.020   0.615   2.865  0.7316 -0.1675 -0.1630
   96SAPC   H4R 9405   7.110   0.679   2.878 -0.8299  2.5601 -1.7177
   96SAPC   H4S 9406   7.000   0.595   2.757 -0.1688  3.0544 -0.7257
   96SAPC   C25 9407   7.008   0.494   2.953  0.2236  0.3897 -0.2352
   96SAPC   H5R 9408   6.937   0.413   2.930  0.4776  0.4805 -1.3837
   96SAPC   C26 9409   7.063   0.474   3.072 -0.0110  0.1066 -0.0725
   96SAPC   H6R 9410   7.042   0.382   3.128  1.3686  0.9902  2.0177
   96SAPC   C27 9411   7.153   0.567   3.147 -1.0261  0.2762  0.1340
   96SAPC   H7R 9412   7.186   0.634   3.065 -0.2849  0.4174  0.5388
   96SAPC   H7S 9413   7.245   0.513   3.180 -1.1567  0.2949  0.5245
   96SAPC   C28 9414   7.102   0.637   3.264  0.5126  0.1238 -0.2414
   96SAPC   H8R 9415   6.997   0.670   3.263  1.1477  2.3514  0.0010
   96SAPC   C29 9416   7.175   0.673   3.367  0.5374  0.4001  0.2615
   96SAPC   H9R 9417   7.124   0.715   3.456 -0.3800 -0.2215  0.0484
   96SAPC  C210 9418   7.321   0.656   3.393  0.1389 -0.0383  0.4536
   96SAPC  H10R 9419   7.374   0.621   3.302  1.7450 -1.6140  1.9232
   96SAPC  H10S 9420   7.336   0.576   3.468  2.1161 -3.3419 -3.0852
   96SAPC  C211 9421   7.385   0.787   3.434  0.3355 -0.5171 -0.8206
   96SAPC  H11R 9422   7.371   0.880   3.377 -0.7694  1.2829  2.1510
   96SAPC  C212 9423   7.442   0.801   3.552 -0.0978 -0.2651  0.0333
   96SAPC  H12R 9424   7.482   0.900   3.580 -3.4459  0.8514  1.3776
   96SAPC  C213 9425   7.472   0.695   3.654 -0.1319 -0.6477  0.2358
   96SAPC  H13R 9426   7.383   0.635   3.680  0.2692 -0.3764  2.5138
   96SAPC  H13S 9427   7.481   0.740   3.756 -2.9871  0.9373 -0.0961
   96SAPC  C214 9428   7.580   0.596   3.625 -0.2654 -0.3825  0.0181
   96SAPC  H14R 9429   7.617   0.613   3.522  0.6601 -0.8403  0.2708
   96SAPC  C215 9430   7.619   0.489   3.695 -0.0797  0.5024  0.1578
   96SAPC  H15R 9431   7.696   0.420   3.656  1.0059  1.6395  0.2556
   96SAPC  C216 9432   7.546   0.434   3.816  0.1088 -0.0908 -0.2136
   96SAPC  H16R 9433   7.492   0.337   3.806 -1.3808  0.4896  1.5521
   96SAPC  H16S 9434   7.462   0.499   3.848  0.6547 -0.0226  1.1516
   96SAPC  C217 9435   7.643   0.412   3.934 -1.6069 -0.0637 -0.3691
   96SAPC  H17R 9436   7.680   0.511   3.967 -0.6505 -0.7561  0.7502
   96SAPC  H17S 9437   7.727   0.345   3.904 -1.7469 -0.6164  0.4408
   96SAPC  C218 9438   7.580   0.340   4.053  0.2178  0.6110  0.0640
   96SAPC  H18R 9439   7.560   0.236   4.021 -1.6976  1.0281 -0.1916
   96SAPC  H18S 9440   7.480   0.384   4.074 -0.7226 -1.2702 -0.1968
   96SAPC  C219 9441   7.669   0.327   4.174 -0.6977  0.3663  0.0094
   96SAPC  H19R 9442   7.773   0.310   4.141 -1.2486 -0.4893 -1.3718
   96SAPC  H19S 9443   7.647   0.241   4.240 -2.1373  0.7692  0.0937
   96SAPC  C220 9444   7.667   0.449   4.275  0.4382 -0.1177  0.1982
   96SAPC  H20R 9445   7.570   0.455   4.330  0.2561 -0.9733 -0.0083
   96SAPC  H20S 9446   7.677   0.544   4.219 -0.0452 -1.3949 -2.2255
   96SAPC  H20T 9447   7.752   0.440   4.345  0.7326  0.7066 -0.0474
   96SAPC   C33 9448   6.597   0.854   3.281 -1.1566 -0.9310  0.2477
   96SAPC   H3X 9449   6.558   0.759   3.238 -1.4946 -1.9013  2.5357
   96SAPC   H3Y 9450   6.626   0.833   3.386 -0.1425 -0.3353  0.0963
   96SAPC   C34 9451   6.707   0.919   3.196 -0.2721 -0.0346  0.4384
   96SAPC   H4X 9452   6.669   0.973   3.107  3.9772  1.2154 -0.8724
   96SAPC   H4Y 9453   6.772   0.840   3.153 -0.9582 -1.2009  1.4784
   96SAPC   C35 9454   6.787   1.022   3.268  0.7269  0.0450 -0.2568
   96SAPC   H5X 9455   6.712   1.093   3.310  0.0455  0.1499 -1.6031
   96SAPC   H5Y 9456   6.845   1.083   3.196 -0.9873  0.3692 -1.4193
   96SAPC   C36 9457   6.885   0.956   3.370  0.2125  0.0779 -0.2265
   96SAPC   H6X 9458   6.964   0.899   3.315  0.5765 -2.1625  2.4250
   96SAPC   H6Y 9459   6.842   0.873   3.430 -0.5324 -0.0657 -0.9361
   96SAPC   C37 9460   6.953   1.053   3.466 -0.5968  0.0908 -0.8573
   96SAPC   H7X 9461   7.020   1.118   3.406  0.5008  2.1660  2.3125
   96SAPC   H7Y 9462   7.009   0.988   3.537 -1.4387 -1.2967 -1.4217
   96SAPC   C38 9463   6.857   1.142   3.543  0.5057  0.0893 -0.7474
   96SAPC   H8X 9464   6.787   1.195   3.476 -3.0066 -1.2099  1.6320
   96SAPC   H8Y 9465   6.911   1.223   3.597 -0.3353  0.1072  0.0834
   96SAPC   C39 9466   6.772   1.057   3.634 -0.7443 -0.0353  0.3909
   96SAPC   H9X 9467   6.830   0.979   3.687 -1.4686 -0.6389  0.3218
   96SAPC   H9Y 9468   6.708   0.991   3.572  0.6035 -1.3631  0.3491
   96SAPC  C310 9469   6.681   1.144   3.726 -0.0371 -0.2178 -0.4675
   96SAPC  H10X 9470   6.613   1.071   3.774 -0.9636  1.1889  0.4241
   96SAPC  H10Y 9471   6.630   1.207   3.650  2.2111  0.0123 -1.8766
   96SAPC  C311 9472   6.758   1.221   3.842 -0.1112 -0.5009  0.4817
   96SAPC  H11X 9473   6.675   1.253   3.909  1.3912  1.2685  1.5861
   96SAPC  H11Y 9474   6.799   1.302   3.778 -0.2038 -1.1839 -0.4644
   96SAPC  C312 9475   6.855   1.148   3.928  0.4018  0.8975  0.4985
   96SAPC  H12X 9476   6.924   1.087   3.866  0.0664  0.5318  0.4891
   96SAPC  H12Y 9477   6.813   1.078   4.003  1.1950  0.6521  0.7226
   96SAPC  C313 9478   6.945   1.236   4.020 -0.4595 -1.3544 -0.3587
   96SAPC  H13X 9479   6.877   1.292   4.087  3.2784  0.5995  2.1178
   96SAPC  H13Y 9480   7.009   1.306   3.962 -1.3725  0.0738  0.2810
   96SAPC  C314 9481   7.044   1.158   4.112  0.6271 -0.8446 -0.8846
   96SAPC  H14X 9482   7.108   1.097   4.045 -1.1817 -3.3160 -0.4873
   96SAPC  H14Y 9483   6.988   1.086   4.175  0.4760  1.6624  2.0894
   96SAPC  C315 9484   7.121   1.256   4.211  0.1400  0.3292 -0.4062
   96SAPC  H15X 9485   7.169   1.208   4.298 -0.6039  2.2937  1.1677
   96SAPC  H15Y 9486   7.046   1.331   4.246  1.1598  0.4442  1.6516
   96SAPC  C316 9487   7.233   1.335   4.135  0.2150 -0.2264 -0.7918
   96SAPC  H16X 9488   7.212   1.375   4.033  1.0674 -0.5577 -1.1008
   96SAPC  H16Y 9489   7.307   1.255   4.116 -1.9899 -2.2870 -1.1799
   96SAPC  C317 9490   7.297   1.447   4.226 -0.9696  0.9386  0.8259
   96SAPC  H17X 9491   7.295   1.411   4.331  0.8225 -0.9734  0.2909
   96SAPC  H17Y 9492   7.238   1.539   4.209 -2.4861 -0.1454 -0.0755
   96SAPC  C318 9493   7.445   1.487   4.198 -0.5010 -0.0811  0.4162
   96SAPC  H18X 9494   7.449   1.553   4.108 -1.9426  1.5312  1.4512
   96SAPC  H18Y 9495   7.508   1.398   4.180  0.3835  0.6120 -0.0050
   96SAPC  H18Z 9496   7.480   1.543   4.288  1.6045 -1.5496  0.5581
   97SAPC     N 9497   5.346   1.349   2.051 -0.8084  0.0167 -0.5156
   97SAPC   C12 9498   5.345   1.493   2.099  0.0336  0.6993 -0.2018
   97SAPC  H12A 9499   5.242   1.526   2.102 -0.8070 -1.7958  1.2032
   97SAPC  H12B 9500   5.395   1.564   2.034  0.6260  1.3463  0.9348
   97SAPC   C13 9501   5.248   1.268   2.114  0.0344  0.8489 -0.5423
   97SAPC  H13A 9502   5.147   1.307   2.108  0.7767  2.7784 -1.3764
   97SAPC  H13B 9503   5.238   1.169   2.073  3.3615 -0.3177  1.0772
   97SAPC  H13C 9504   5.277   1.266   2.218  1.2986  0.3887 -0.8922
   97SAPC   C14 9505   5.314   1.360   1.911  0.3377  0.3108 -0.1501
   97SAPC  H14A 9506   5.394   1.405   1.854 -0.2779  1.2873 -0.2726
   97SAPC  H14B 9507   5.302   1.265   1.861 -3.5895  1.2128 -1.2971
   97SAPC  H14C 9508   5.222   1.416   1.901 -1.2969 -2.2988 -0.6891
   97SAPC   C15 9509   5.477   1.271   2.055  0.4249 -0.5329 -0.6796
   97SAPC  H15A 9510   5.505   1.247   2.157  0.8647  0.6350 -0.5035
   97SAPC  H15B 9511   5.468   1.177   2.004  0.4284 -1.8151  1.5680
   97SAPC  H15C 9512   5.565   1.324   2.020  1.6537 -2.5698 -0.8397
   97SAPC   C11 9513   5.403   1.515   2.244  0.0316  0.1699  0.3202
   97SAPC  H11A 9514   5.415   1.621   2.274 -0.5820  1.1295 -2.4802
   97SAPC  H11B 9515   5.509   1.482   2.239 -0.7482 -2.6275  0.7957
   97SAPC     P 9516   5.216   1.503   2.419 -0.2939  0.1348 -0.0374
   97SAPC   O13 9517   5.265   1.592   2.527  0.0655 -0.0459 -0.2500
   97SAPC   O14 9518   5.115   1.555   2.321 -0.1901 -0.1745 -0.0859
   97SAPC   O12 9519   5.337   1.438   2.337  0.4284 -0.3538  0.0252
   97SAPC   O11 9520   5.148   1.381   2.481  0.5411  0.3753  0.1944
   97SAPC    C1 9521   5.233   1.277   2.539  0.7529 -0.5124  0.6173
   97SAPC    HA 9522   5.206   1.178   2.497 -0.9467 -0.6933  1.9997
   97SAPC    HB 9523   5.342   1.291   2.526  0.9066 -0.8961  1.4484
   97SAPC    C2 9524   5.209   1.276   2.695  0.0621 -0.0887 -0.0337
   97SAPC    HS 9525   5.103   1.243   2.699  0.5960 -2.0545 -0.9872
   97SAPC   O21 9526   5.232   1.404   2.745  0.1291  0.0869  0.5164
   97SAPC   C21 9527   5.141   1.437   2.833  0.1651 -0.3856  0.0952
   97SAPC   O22 9528   5.054   1.366   2.876  0.3334  0.2994 -0.0323
   97SAPC   C22 9529   5.145   1.587   2.868  0.5147  0.5500  0.2813
   97SAPC   H2R 9530   5.255   1.604   2.874  0.7538 -1.0725  1.2457
   97SAPC   H2S 9531   5.104   1.645   2.783 -2.1665 -1.0063  0.3865
   97SAPC    C3 9532   5.282   1.164   2.776 -0.6404  0.1537 -0.0293
   97SAPC    HX 9533   5.391   1.178   2.760 -0.7236  0.7509 -0.1251
   97SAPC    HY 9534   5.267   1.065   2.728 -0.7192 -1.3938  2.9841
   97SAPC   O31 9535   5.242   1.158   2.913  0.0396  0.2237 -0.1168
   97SAPC   C31 9536   5.138   1.078   2.937  0.1421 -0.3614  0.2198
   97SAPC   O32 9537   5.080   1.007   2.852 -0.2181 -0.3191 -0.0207
   97SAPC   C32 9538   5.094   1.079   3.081 -0.1245 -0.1029  1.1852
   97SAPC   H2X 9539   4.994   1.032   3.081  0.3240 -1.1278  2.5874
   97SAPC   H2Y 9540   5.085   1.181   3.125 -1.9327 -0.3805  1.5159
   97SAPC   C23 9541   5.084   1.626   3.003  0.1429  0.6363  0.4876
   97SAPC   H3R 9542   4.984   1.578   3.012 -0.2335  1.4726  0.8247
   97SAPC   H3S 9543   5.076   1.735   3.022  4.6846  1.5389 -1.4655
   97SAPC   C24 9544   5.171   1.583   3.118 -0.4677 -0.2421 -0.1324
   97SAPC   H4R 9545   5.186   1.473   3.113  1.0127 -0.0136 -1.4812
   97SAPC   H4S 9546   5.108   1.603   3.208 -0.8533  0.4305 -0.5464
   97SAPC   C25 9547   5.300   1.659   3.132 -0.1325 -0.2566  0.1757
   97SAPC   H5R 9548   5.281   1.768   3.133 -0.4765 -0.3046 -0.8556
   97SAPC   C26 9549   5.419   1.618   3.096  0.1485  0.5207  0.4070
   97SAPC   H6R 9550   5.505   1.687   3.098  1.7293 -1.1796 -2.5858
   97SAPC   C27 9551   5.459   1.475   3.059  0.0551  0.1161 -0.3840
   97SAPC   H7R 9552   5.427   1.453   2.955 -1.3621 -2.2442  0.4666
   97SAPC   H7S 9553   5.398   1.410   3.125  1.3550  1.0224  1.8149
   97SAPC   C28 9554   5.611   1.461   3.078  0.5365 -0.4141 -0.1425
   97SAPC   H8R 9555   5.675   1.492   2.994  1.5116  0.4403  0.8810
   97SAPC   C29 9556   5.679   1.418   3.182 -0.4715  0.4349  0.2371
   97SAPC   H9R 9557   5.788   1.415   3.193 -0.2408  1.3308 -1.4632
   97SAPC  C210 9558   5.619   1.366   3.310 -0.4477  0.2382  0.0379
   97SAPC  H10R 9559   5.612   1.255   3.300  1.0103  0.0730  0.6625
   97SAPC  H10S 9560   5.517   1.411   3.308 -1.3152 -1.4355 -3.8369
   97SAPC  C211 9561   5.706   1.385   3.437  0.0458  0.2891  0.2725
   97SAPC  H11R 9562   5.814   1.403   3.422 -0.3014  0.8486 -1.9945
   97SAPC  C212 9563   5.657   1.405   3.555 -0.2117  0.2275 -0.2281
   97SAPC  H12R 9564   5.724   1.407   3.642  0.1027 -1.8801 -0.3859
   97SAPC  C213 9565   5.508   1.400   3.596  0.1526  0.2109 -0.4520
   97SAPC  H13R 9566   5.485   1.376   3.702 -3.1867 -0.2943 -1.1727
   97SAPC  H13S 9567   5.455   1.318   3.542 -0.1157  0.2512 -0.2495
   97SAPC  C214 9568   5.447   1.531   3.572  0.7184  0.1282 -0.3100
   97SAPC  H14R 9569   5.520   1.604   3.608 -1.8694  1.4147  2.8799
   97SAPC  C215 9570   5.332   1.575   3.508 -1.1682 -0.5921 -0.3213
   97SAPC  H15R 9571   5.314   1.682   3.492  0.0153 -0.4978 -1.1334
   97SAPC  C216 9572   5.224   1.487   3.449  0.0828  0.5714  0.4135
   97SAPC  H16R 9573   5.250   1.434   3.355  1.7891  1.2956  0.4505
   97SAPC  H16S 9574   5.145   1.559   3.420 -1.2437  0.3846  3.2349
   97SAPC  C217 9575   5.143   1.403   3.549  0.7129 -0.1687 -0.6440
   97SAPC  H17R 9576   5.099   1.464   3.631  2.1733 -0.2197  0.2164
   97SAPC  H17S 9577   5.211   1.337   3.608  0.5898  1.0712  0.9397
   97SAPC  C218 9578   5.030   1.307   3.494 -0.4302  0.1883  0.2957
   97SAPC  H18R 9579   4.966   1.287   3.582  0.5229  1.1497  1.2290
   97SAPC  H18S 9580   5.069   1.208   3.460 -0.1009  0.2678  0.4332
   97SAPC  C219 9581   4.948   1.365   3.378  0.2461  0.3709 -0.7243
   97SAPC  H19R 9582   5.011   1.385   3.288  1.3566  1.1776  0.2046
   97SAPC  H19S 9583   4.912   1.466   3.406  1.6774  1.0197 -1.1218
   97SAPC  C220 9584   4.830   1.273   3.342  0.1321 -0.8176 -0.2724
   97SAPC  H20R 9585   4.867   1.175   3.304  1.9530 -0.8274  1.3981
   97SAPC  H20S 9586   4.768   1.321   3.263 -2.9375 -0.7572  1.9984
   97SAPC  H20T 9587   4.766   1.255   3.431  1.0008 -0.2216  0.4746
   97SAPC   C33 9588   5.189   0.983   3.171  0.7427  0.0705  0.2462
   97SAPC   H3X 9589   5.215   0.903   3.098  2.1128  0.6533  0.0679
   97SAPC   H3Y 9590   5.121   0.944   3.250 -0.2636 -0.5230 -0.8771
   97SAPC   C34 9591   5.301   1.056   3.241 -0.9202 -0.2050  0.9575
   97SAPC   H4X 9592   5.267   1.158   3.271 -1.0692 -0.4179  1.5095
   97SAPC   H4Y 9593   5.380   1.093   3.171 -0.6309  1.2691  2.0082
   97SAPC   C35 9594   5.366   0.974   3.350  0.5518  0.4475  0.7713
   97SAPC   H5X 9595   5.383   0.870   3.315  1.4644  0.5579  0.8754
   97SAPC   H5Y 9596   5.278   0.967   3.418  0.6174 -1.0204  0.7382
   97SAPC   C36 9597   5.495   1.025   3.403 -0.4381 -0.1246 -0.3173
   97SAPC   H6X 9598   5.475   1.134   3.412 -2.3889 -0.3552 -1.3875
   97SAPC   H6Y 9599   5.575   0.997   3.330 -1.2880 -1.5841 -0.7224
   97SAPC   C37 9600   5.541   0.968   3.537  0.6048 -0.3403  0.0158
   97SAPC   H7X 9601   5.563   0.860   3.522 -0.0273 -0.4259 -0.2981
   97SAPC   H7Y 9602   5.461   0.967   3.614  0.1242 -0.7958 -0.4807
   97SAPC   C38 9603   5.663   1.030   3.602 -0.2150  0.6100 -0.1918
   97SAPC   H8X 9604   5.635   1.132   3.637 -0.7514  0.3917  0.0338
   97SAPC   H8Y 9605   5.747   1.029   3.529  1.0922  0.2668  1.2575
   97SAPC   C39 9606   5.742   0.961   3.718  1.0623  0.3732 -0.2761
   97SAPC   H9X 9607   5.807   1.045   3.752 -0.0250  1.1318 -0.0187
   97SAPC   H9Y 9608   5.803   0.872   3.689 -0.0189 -1.2341  2.1133
   97SAPC  C310 9609   5.650   0.922   3.840  0.3362 -0.3447 -0.0852
   97SAPC  H10X 9610   5.562   0.855   3.829 -2.6960  3.3849 -0.4418
   97SAPC  H10Y 9611   5.606   1.019   3.871  0.2438 -0.7571  1.1126
   97SAPC  C311 9612   5.737   0.858   3.948  0.4418 -0.2985  0.1652
   97SAPC  H11X 9613   5.822   0.925   3.975 -1.8575  2.4383  1.2273
   97SAPC  H11Y 9614   5.764   0.757   3.913 -1.0668 -1.1636  1.3723
   97SAPC  C312 9615   5.656   0.855   4.086 -0.4320  0.0738  0.2044
   97SAPC  H12X 9616   5.580   0.775   4.081 -1.2602  0.7980  0.8768
   97SAPC  H12Y 9617   5.605   0.953   4.100 -1.8838 -0.5354 -0.6481
   97SAPC  C313 9618   5.740   0.839   4.217  0.2308  0.1151 -1.3155
   97SAPC  H13X 9619   5.820   0.917   4.220  0.2165  0.1059  1.1400
   97SAPC  H13Y 9620   5.786   0.739   4.227  0.3189  0.2438 -0.2802
   97SAPC  C314 9621   5.657   0.864   4.340 -0.5246  0.1693  0.2231
   97SAPC  H14X 9622   5.564   0.804   4.349  0.1389 -0.9264 -0.0996
   97SAPC  H14Y 9623   5.629   0.971   4.333  0.6913  0.3816 -3.0150
   97SAPC  C315 9624   5.737   0.840   4.473  0.2515 -0.1141  0.3085
   97SAPC  H15X 9625   5.838   0.880   4.453 -0.4825  0.6131 -2.4448
   97SAPC  H15Y 9626   5.742   0.730   4.492  0.5857 -0.3331 -0.9362
   97SAPC  C316 9627   5.667   0.912   4.589 -0.3481 -0.3535 -0.3185
   97SAPC  H16X 9628   5.566   0.866   4.595  0.2029 -1.5199  0.4515
   97SAPC  H16Y 9629   5.652   1.019   4.563 -2.4705 -0.5481 -0.1320
   97SAPC  C317 9630   5.743   0.900   4.719  0.4068 -0.1990 -0.0735
   97SAPC  H17X 9631   5.825   0.975   4.712 -1.9495  2.4777 -1.1295
   97SAPC  H17Y 9632   5.796   0.803   4.721  2.9864  1.1346  1.4506
   97SAPC  C318 9633   5.660   0.936   4.847 -1.1605  0.1321 -0.1796
   97SAPC  H18X 9634   5.565   0.878   4.847 -0.3735 -1.1944  0.1940
   97SAPC  H18Y 9635   5.634   1.044   4.841  0.6071  0.5156 -1.7348
   97SAPC  H18Z 9636   5.718   0.911   4.939  0.9929  0.8303 -1.2951
   98SAPC     N 9637   2.008   3.425   2.786 -0.5143 -0.3407 -0.6265
   98SAPC   C12 9638   1.908   3.367   2.886  0.0132  0.1960  0.0350
   98SAPC  H12A 9639   1.829   3.312   2.837  1.7001 -1.4930 -0.8955
   98SAPC  H12B 9640   1.868   3.456   2.932 -0.6300 -0.5089  0.8880
   98SAPC   C13 9641   1.929   3.497   2.689  0.3489 -0.1847 -0.4285
   98SAPC  H13A 9642   1.860   3.442   2.627 -2.4384  1.1265  1.2729
   98SAPC  H13B 9643   1.872   3.581   2.726 -2.9608 -1.9260 -1.1737
   98SAPC  H13C 9644   1.988   3.545   2.612 -0.5224 -0.0635 -1.0449
   98SAPC   C14 9645   2.107   3.524   2.849  0.1866 -0.0512  0.4554
   98SAPC  H14A 9646   2.183   3.479   2.910  1.3862  2.1330  0.6824
   98SAPC  H14B 9647   2.147   3.574   2.761 -3.0804 -3.2733 -3.2740
   98SAPC  H14C 9648   2.052   3.594   2.909 -2.2858 -2.3868  1.0938
   98SAPC   C15 9649   2.092   3.315   2.720  0.2667 -0.0113  0.3066
   98SAPC  H15A 9650   2.034   3.245   2.663  1.8465 -2.5938  1.6608
   98SAPC  H15B 9651   2.161   3.368   2.656  1.2148  0.6295  1.7940
   98SAPC  H15C 9652   2.142   3.258   2.797  1.3453  0.6055  0.0818
   98SAPC   C11 9653   1.964   3.289   3.005 -0.9998  0.3558 -0.0483
   98SAPC  H11A 9654   1.880   3.269   3.075 -0.2675  0.0012  0.7415
   98SAPC  H11B 9655   2.033   3.360   3.055 -1.2808  0.6104 -0.0164
   98SAPC     P 9656   1.952   3.035   2.922  0.0650 -0.2385 -0.3594
   98SAPC   O13 9657   1.853   3.064   2.811  0.0967  0.4816  0.2417
   98SAPC   O14 9658   2.053   2.927   2.893 -0.2481  0.3337 -0.0998
   98SAPC   O12 9659   2.027   3.166   2.968  0.3156 -0.1909 -0.1955
   98SAPC   O11 9660   1.879   2.991   3.047  0.2709 -0.0536  0.4257
   98SAPC    C1 9661   1.743   3.006   3.070 -0.3982  0.2022 -0.2872
   98SAPC    HA 9662   1.710   3.112   3.060  0.6687  0.4847 -0.9357
   98SAPC    HB 9663   1.671   2.946   3.010  1.5905 -0.9464 -1.6290
   98SAPC    C2 9664   1.716   2.976   3.223 -0.2147  0.1518  1.2348
   98SAPC    HS 9665   1.605   2.981   3.232 -0.4154 -0.3335 -0.5964
   98SAPC   O21 9666   1.774   3.066   3.322  0.0415 -0.1427  0.2412
   98SAPC   C21 9667   1.703   3.182   3.353  0.4823  0.6704  0.1947
   98SAPC   O22 9668   1.599   3.209   3.303  0.5643 -0.0527  0.5032
   98SAPC   C22 9669   1.769   3.251   3.466  0.6677  0.1963 -0.3147
   98SAPC   H2R 9670   1.696   3.323   3.508  1.0810  1.2004 -1.2673
   98SAPC   H2S 9671   1.789   3.175   3.545  0.7707 -0.1130 -0.6351
   98SAPC    C3 9672   1.762   2.831   3.274 -0.5885 -0.7122 -0.0581
   98SAPC    HX 9673   1.871   2.839   3.296 -0.3691 -0.2996 -1.1894
   98SAPC    HY 9674   1.737   2.751   3.201  0.3586 -0.7858 -0.3129
   98SAPC   O31 9675   1.695   2.789   3.391 -0.3770  0.3721 -0.3642
   98SAPC   C31 9676   1.740   2.682   3.459  0.1494  0.1946  0.4952
   98SAPC   O32 9677   1.841   2.622   3.417 -0.5844 -0.5926 -0.4541
   98SAPC   C32 9678   1.667   2.661   3.594  0.3516  0.3181 -1.1690
   98SAPC   H2X 9679   1.567   2.624   3.562  0.3228  0.3567 -1.1238
   98SAPC   H2Y 9680   1.653   2.758   3.646  0.2613  0.4841 -1.4979
   98SAPC   C23 9681   1.897   3.328   3.423 -0.2991  0.0640 -0.0225
   98SAPC   H3R 9682   1.947   3.291   3.331 -1.1016  0.1155 -0.4883
   98SAPC   H3S 9683   1.969   3.316   3.507 -1.1756 -0.1488  0.7166
   98SAPC   C24 9684   1.879   3.479   3.401  0.6421 -0.2463  0.2266
   98SAPC   H4R 9685   1.837   3.518   3.496 -0.6345 -1.7984  0.3391
   98SAPC   H4S 9686   1.804   3.490   3.319  0.6102 -0.1926  0.2626
   98SAPC   C25 9687   2.001   3.568   3.379  0.2343  0.8370  0.8412
   98SAPC   H5R 9688   2.011   3.588   3.271 -2.1042  3.1870  0.9584
   98SAPC   C26 9689   2.091   3.610   3.478  0.0337 -0.5522  0.2920
   98SAPC   H6R 9690   2.166   3.679   3.437 -0.6974 -0.0244 -0.1671
   98SAPC   C27 9691   2.088   3.588   3.631 -0.1370  0.0782  0.5325
   98SAPC   H7R 9692   2.130   3.488   3.652 -0.2762  0.0531  0.6938
   98SAPC   H7S 9693   1.985   3.577   3.672  0.2684  2.3332  2.3829
   98SAPC   C28 9694   2.170   3.682   3.713  0.1930 -0.0755 -0.3265
   98SAPC   H8R 9695   2.242   3.749   3.665  1.1746  0.5567  1.8926
   98SAPC   C29 9696   2.176   3.696   3.843 -0.2321 -0.3475 -0.2870
   98SAPC   H9R 9697   2.263   3.753   3.879 -2.0183  2.5132 -0.2053
   98SAPC  C210 9698   2.076   3.622   3.933 -0.5688  0.2053  0.2853
   98SAPC  H10R 9699   2.026   3.541   3.875  1.1657  0.1877 -1.2502
   98SAPC  H10S 9700   1.997   3.691   3.969  1.3332  1.8813  1.4457
   98SAPC  C211 9701   2.129   3.556   4.056  0.1861 -0.2127  0.0281
   98SAPC  H11R 9702   2.121   3.446   4.057  3.7173 -0.5692  0.6631
   98SAPC  C212 9703   2.163   3.618   4.169 -0.5496 -0.4020  0.1528
   98SAPC  H12R 9704   2.207   3.549   4.242 -0.9601  0.4185  1.2001
   98SAPC  C213 9705   2.173   3.763   4.215 -0.0232  0.0125 -1.0496
   98SAPC  H13R 9706   2.110   3.830   4.153  0.5707 -0.5606 -2.3133
   98SAPC  H13S 9707   2.278   3.798   4.202  0.2836  1.0698  3.0007
   98SAPC  C214 9708   2.138   3.780   4.367  1.3220  0.9360 -0.1320
   98SAPC  H14R 9709   2.206   3.727   4.435 -0.9346 -2.1233 -0.0744
   98SAPC  C215 9710   2.063   3.875   4.415  0.2039  0.3917 -0.5296
   98SAPC  H15R 9711   2.060   3.891   4.524 -0.0055 -0.0681 -0.4661
   98SAPC  C216 9712   1.971   3.967   4.333  0.1805 -0.5666 -0.2639
   98SAPC  H16R 9713   1.978   3.957   4.222  0.9613 -1.0587 -0.1809
   98SAPC  H16S 9714   2.002   4.073   4.341 -0.2958 -0.5816  2.5818
   98SAPC  C217 9715   1.824   3.952   4.379 -0.0775  0.6685  0.7864
   98SAPC  H17R 9716   1.785   3.851   4.352  1.4879 -0.3131  2.0121
   98SAPC  H17S 9717   1.763   4.030   4.328 -1.1213 -0.1524  0.7380
   98SAPC  C218 9718   1.798   3.951   4.528 -0.2195 -0.1330 -1.1725
   98SAPC  H18R 9719   1.863   3.879   4.581 -1.3706 -0.9800 -0.8742
   98SAPC  H18S 9720   1.692   3.922   4.544 -0.9206  3.3265  1.4709
   98SAPC  C219 9721   1.793   4.079   4.605 -0.3655  0.4680 -0.8758
   98SAPC  H19R 9722   1.701   4.140   4.590 -0.7848  0.7810  2.3166
   98SAPC  H19S 9723   1.868   4.141   4.552 -1.7386 -0.4775 -4.2556
   98SAPC  C220 9724   1.817   4.063   4.753 -0.5730  0.3405  0.2013
   98SAPC  H20R 9725   1.804   4.166   4.792  0.3212  1.0048 -1.1667
   98SAPC  H20S 9726   1.922   4.026   4.755 -1.3677 -2.1177 -0.1651
   98SAPC  H20T 9727   1.744   3.988   4.790 -0.9418  1.5967  2.1154
   98SAPC   C33 9728   1.727   2.544   3.674 -0.1864  0.8283 -0.1442
   98SAPC   H3X 9729   1.820   2.575   3.727 -1.8677  1.2492  2.7314
   98SAPC   H3Y 9730   1.745   2.450   3.617  2.2216  0.4241  1.1480
   98SAPC   C34 9731   1.631   2.496   3.790 -0.4397  0.3727 -0.7513
   98SAPC   H4X 9732   1.691   2.425   3.851 -1.1499  0.2085 -0.2260
   98SAPC   H4Y 9733   1.547   2.433   3.751 -0.8151 -0.7229  1.6448
   98SAPC   C35 9734   1.581   2.619   3.879  0.3865 -0.5282 -0.0186
   98SAPC   H5X 9735   1.532   2.691   3.810 -0.5948 -0.1014  1.0982
   98SAPC   H5Y 9736   1.666   2.665   3.934  0.5368 -1.5983  0.6711
   98SAPC   C36 9737   1.479   2.585   3.989 -0.3217  0.4448  0.9371
   98SAPC   H6X 9738   1.393   2.536   3.938  0.9707 -0.9016 -0.0118
   98SAPC   H6Y 9739   1.443   2.676   4.042  0.6048  1.2137  0.2840
   98SAPC   C37 9740   1.534   2.481   4.083  0.5342 -0.2563  0.6763
   98SAPC   H7X 9741   1.626   2.433   4.041 -0.1799  0.4248 -1.8527
   98SAPC   H7Y 9742   1.464   2.398   4.105  0.5382 -0.2218  0.8187
   98SAPC   C38 9743   1.575   2.541   4.217 -0.0690  0.7071 -0.5741
   98SAPC   H8X 9744   1.484   2.549   4.280  0.6247 -0.9200  0.7166
   98SAPC   H8Y 9745   1.619   2.643   4.215  1.6550  0.0531  0.9223
   98SAPC   C39 9746   1.675   2.447   4.290  0.2316 -0.5900 -0.1414
   98SAPC   H9X 9747   1.773   2.458   4.239  0.2995 -1.4476 -0.2240
   98SAPC   H9Y 9748   1.649   2.339   4.276 -3.3642  0.0142  0.7504
   98SAPC  C310 9749   1.684   2.474   4.435  0.2975 -0.2860  0.5043
   98SAPC  H10X 9750   1.593   2.437   4.488  0.1327  2.6559  2.4938
   98SAPC  H10Y 9751   1.697   2.581   4.460  1.2221  0.0579 -1.2799
   98SAPC  C311 9752   1.800   2.394   4.504  0.1215 -0.4856  0.3530
   98SAPC  H11X 9753   1.901   2.409   4.462  0.2208 -0.4586  0.5978
   98SAPC  H11Y 9754   1.755   2.292   4.504 -1.9502  0.3756  0.5649
   98SAPC  C312 9755   1.822   2.428   4.650  0.0497 -0.5380  0.4814
   98SAPC  H12X 9756   1.730   2.406   4.709  0.0926 -2.1585 -0.0014
   98SAPC  H12Y 9757   1.845   2.534   4.676 -1.3734 -0.4965  1.7152
   98SAPC  C313 9758   1.938   2.345   4.698  0.6956 -0.0399  0.0902
   98SAPC  H13X 9759   2.029   2.385   4.648  1.2890  0.8846  1.8261
   98SAPC  H13Y 9760   1.923   2.236   4.681 -0.9218  0.5224 -2.7191
   98SAPC  C314 9761   1.946   2.355   4.853  0.1915 -0.4504 -0.3552
   98SAPC  H14X 9762   1.853   2.316   4.900 -1.0834  0.7022 -1.7891
   98SAPC  H14Y 9763   1.960   2.463   4.877  3.2466 -0.2143 -2.6237
   98SAPC  C315 9764   2.055   2.276   4.923  0.0872 -0.1951 -0.0246
   98SAPC  H15X 9765   2.046   2.167   4.901  1.9633 -0.1035 -1.5643
   98SAPC  H15Y 9766   2.040   2.274   5.033  0.1990  0.0912 -0.0035
   98SAPC  C316 9767   2.187   2.339   4.878 -0.1924 -0.2647 -0.3015
   98SAPC  H16X 9768   2.178   2.397   4.783  0.1163  1.3359  0.6054
   98SAPC  H16Y 9769   2.263   2.258   4.883 -1.4717 -1.4502  0.7528
   98SAPC  C317 9770   2.224   2.449   4.982  0.3266  0.6047 -0.0036
   98SAPC  H17X 9771   2.232   2.387   5.073 -1.7968 -0.7718 -0.6688
   98SAPC  H17Y 9772   2.141   2.522   4.993 -0.6997 -0.5343 -0.0405
   98SAPC  C318 9773   2.351   2.524   4.949  0.1006 -0.6169  0.0826
   98SAPC  H18X 9774   2.368   2.593   5.034 -0.3412 -1.2789  0.7162
   98SAPC  H18Y 9775   2.342   2.586   4.857  2.3561  1.3023  1.0647
   98SAPC  H18Z 9776   2.431   2.447   4.944  0.3196 -0.3438 -1.0170
   99SAPC     N 9777   4.815   4.128   2.508 -0.4176  0.2627  0.2428
   99SAPC   C12 9778   4.712   4.179   2.609 -0.2986  0.9536  0.3309
   99SAPC  H12A 9779   4.681   4.097   2.673 -1.3340  0.8544 -0.2662
   99SAPC  H12B 9780   4.627   4.198   2.545 -1.3652 -2.8319  0.3403
   99SAPC   C13 9781   4.771   3.995   2.454  0.1492 -0.4328  0.1484
   99SAPC  H13A 9782   4.757   3.917   2.527 -0.5644 -1.7638 -1.3570
   99SAPC  H13B 9783   4.678   4.002   2.401  0.1995 -2.3265 -0.2564
   99SAPC  H13C 9784   4.839   3.955   2.380 -0.4388  2.7499 -2.3617
   99SAPC   C14 9785   4.833   4.217   2.391 -0.9534  0.4630 -0.1623
   99SAPC  H14A 9786   4.875   4.310   2.426  2.3898  0.1045 -2.6827
   99SAPC  H14B 9787   4.913   4.177   2.330 -1.4609  3.1359 -2.8266
   99SAPC  H14C 9788   4.741   4.236   2.337 -1.5965  0.2764  0.8294
   99SAPC   C15 9789   4.946   4.101   2.581  0.3028 -0.3933  0.1085
   99SAPC  H15A 9790   4.989   4.197   2.606 -0.4904 -0.2504  0.9489
   99SAPC  H15B 9791   4.930   4.031   2.661 -1.6137 -0.1009  0.0184
   99SAPC  H15C 9792   5.022   4.054   2.519 -1.0869 -1.1192 -1.1066
   99SAPC   C11 9793   4.737   4.307   2.691 -0.6371 -0.1446  0.2350
   99SAPC  H11A 9794   4.831   4.280   2.745  0.8428 -1.3093 -2.6852
   99SAPC  H11B 9795   4.651   4.306   2.761 -0.0417  0.5568  0.9961
   99SAPC     P 9796   4.634   4.515   2.563 -0.1011  0.0459 -0.2039
   99SAPC   O13 9797   4.679   4.559   2.429 -0.4492 -0.1293  0.7064
   99SAPC   O14 9798   4.505   4.452   2.564  0.0892  0.0958  0.0379
   99SAPC   O12 9799   4.748   4.421   2.618 -0.0902  0.0587 -0.0409
   99SAPC   O11 9800   4.642   4.635   2.660  0.0008 -0.1167  0.2482
   99SAPC    C1 9801   4.694   4.616   2.790  0.0678 -0.3414  0.1775
   99SAPC    HA 9802   4.652   4.529   2.844  2.5634 -2.0489 -0.4599
   99SAPC    HB 9803   4.805   4.606   2.781  0.0166 -2.2214  1.2130
   99SAPC    C2 9804   4.656   4.737   2.885  0.1590  0.0567  0.0014
   99SAPC    HS 9805   4.545   4.729   2.894  0.4046 -0.7372  3.9895
   99SAPC   O21 9806   4.693   4.859   2.825 -0.2273  0.5937  0.1431
   99SAPC   C21 9807   4.593   4.916   2.748 -0.0874 -0.5688 -0.4270
   99SAPC   O22 9808   4.494   4.859   2.710 -0.1167  0.2721  0.1597
   99SAPC   C22 9809   4.637   5.054   2.695 -0.0130  0.4527  0.3254
   99SAPC   H2R 9810   4.718   5.039   2.621 -0.9067 -0.5842 -0.4831
   99SAPC   H2S 9811   4.552   5.109   2.649  0.1965  0.1275 -0.4605
   99SAPC    C3 9812   4.711   4.732   3.027  0.1314 -0.5680 -0.4469
   99SAPC    HX 9813   4.676   4.822   3.083  1.1711  0.1324 -0.8835
   99SAPC    HY 9814   4.820   4.754   3.021 -0.3584  2.2360 -0.2884
   99SAPC   O31 9815   4.687   4.603   3.086  0.0760  0.2562 -0.6255
   99SAPC   C31 9816   4.563   4.604   3.137  0.3960  0.3852 -0.1159
   99SAPC   O32 9817   4.486   4.696   3.140  0.7821 -0.4815 -0.3870
   99SAPC   C32 9818   4.533   4.464   3.197  0.4984 -0.1210  0.0764
   99SAPC   H2X 9819   4.623   4.399   3.191 -0.3329 -1.4017  1.0754
   99SAPC   H2Y 9820   4.452   4.424   3.132  1.6807 -1.7725 -0.4430
   99SAPC   C23 9821   4.697   5.152   2.808  0.5833 -0.1907  0.4045
   99SAPC   H3R 9822   4.755   5.230   2.753 -1.0969  0.9744  0.1931
   99SAPC   H3S 9823   4.769   5.095   2.869  1.7051  0.8301  0.0751
   99SAPC   C24 9824   4.590   5.224   2.892 -0.2101 -0.4233  0.5397
   99SAPC   H4R 9825   4.530   5.291   2.827  2.1079  1.0134 -0.2249
   99SAPC   H4S 9826   4.648   5.296   2.954  0.3269  1.8410 -2.4124
   99SAPC   C25 9827   4.515   5.130   2.982 -0.3409  0.8177 -0.1992
   99SAPC   H5R 9828   4.412   5.109   2.950  0.5675  0.8157 -3.4634
   99SAPC   C26 9829   4.555   5.084   3.101 -0.1022 -0.5054 -0.2267
   99SAPC   H6R 9830   4.483   5.015   3.149 -1.4360  0.2173 -1.1365
   99SAPC   C27 9831   4.683   5.121   3.174  0.0931 -0.3536 -0.3593
   99SAPC   H7R 9832   4.722   5.218   3.135  0.1867  0.5295  1.7912
   99SAPC   H7S 9833   4.763   5.046   3.156  1.0205  0.5248 -0.0370
   99SAPC   C28 9834   4.656   5.137   3.320  0.2717  0.2763 -0.6193
   99SAPC   H8R 9835   4.593   5.220   3.354 -0.5159 -0.3161 -0.6159
   99SAPC   C29 9836   4.714   5.054   3.416 -0.4284 -0.3270  1.2954
   99SAPC   H9R 9837   4.681   5.066   3.520 -1.3020 -1.0858  1.1239
   99SAPC  C210 9838   4.816   4.944   3.382 -0.6107 -0.3144  0.1720
   99SAPC  H10R 9839   4.912   4.992   3.354 -1.7905  0.7959 -2.2918
   99SAPC  H10S 9840   4.777   4.888   3.295  1.9456 -2.6415  0.3821
   99SAPC  C211 9841   4.847   4.845   3.496  0.8461  0.1492 -0.1017
   99SAPC  H11R 9842   4.767   4.834   3.570  2.4034  0.9530  1.7844
   99SAPC  C212 9843   4.964   4.789   3.518  0.2017 -0.2810 -0.3379
   99SAPC  H12R 9844   4.970   4.732   3.612  2.9172 -0.4381 -0.5423
   99SAPC  C213 9845   5.082   4.798   3.430  0.1997 -0.3319 -0.0556
   99SAPC  H13R 9846   5.066   4.837   3.327  2.1994  0.2549 -0.1986
   99SAPC  H13S 9847   5.120   4.696   3.408  3.6409  1.1221 -1.5648
   99SAPC  C214 9848   5.189   4.879   3.490 -0.1942  0.4496 -0.1588
   99SAPC  H14R 9849   5.178   4.918   3.592 -0.5249 -1.1003  0.4341
   99SAPC  C215 9850   5.317   4.879   3.450 -0.6930 -0.8239  0.3391
   99SAPC  H15R 9851   5.391   4.945   3.497 -1.0607 -1.6704  2.1812
   99SAPC  C216 9852   5.368   4.804   3.326 -0.6193  0.2034 -0.0465
   99SAPC  H16R 9853   5.404   4.875   3.248 -0.9840  1.5151  0.9332
   99SAPC  H16S 9854   5.293   4.739   3.276  1.5172 -0.5131 -2.4817
   99SAPC  C217 9855   5.475   4.701   3.371  0.0016 -0.6936  0.6724
   99SAPC  H17R 9856   5.563   4.748   3.420  0.7461  0.5588 -1.7075
   99SAPC  H17S 9857   5.522   4.665   3.276  1.9356  2.0763  0.4771
   99SAPC  C218 9858   5.422   4.588   3.454 -0.4415 -0.6181  0.2835
   99SAPC  H18R 9859   5.371   4.509   3.395 -0.0852  0.3514 -1.3717
   99SAPC  H18S 9860   5.347   4.634   3.523 -0.3571  1.1574 -0.7569
   99SAPC  C219 9861   5.538   4.516   3.531 -0.8481  0.1218  0.2404
   99SAPC  H19R 9862   5.503   4.440   3.604 -2.8539 -0.6841 -1.4265
   99SAPC  H19S 9863   5.586   4.596   3.590 -0.0518 -0.5965  0.5837
   99SAPC  C220 9864   5.619   4.436   3.433 -0.2131 -0.4914 -0.6527
   99SAPC  H20R 9865   5.544   4.384   3.370 -3.1282  0.6106  1.6366
   99SAPC  H20S 9866   5.681   4.360   3.486  2.8212  0.5652 -2.4559
   99SAPC  H20T 9867   5.687   4.499   3.373 -0.0383 -1.0370 -1.0338
   99SAPC   C33 9868   4.508   4.469   3.345 -0.4444  0.6077  0.2540
   99SAPC   H3X 9869   4.480   4.372   3.390 -0.6502  0.5722  0.0489
   99SAPC   H3Y 9870   4.423   4.539   3.362 -1.5956 -1.2021  2.3012
   99SAPC   C34 9871   4.627   4.508   3.432  0.2791  0.2698  0.4695
   99SAPC   H4X 9872   4.651   4.614   3.410  1.2155 -0.1718 -0.6997
   99SAPC   H4Y 9873   4.711   4.445   3.397 -0.6629 -1.4139  1.0856
   99SAPC   C35 9874   4.614   4.494   3.584 -0.7565  0.5583  1.4165
   99SAPC   H5X 9875   4.552   4.402   3.594  2.3026 -1.5507  2.3899
   99SAPC   H5Y 9876   4.545   4.574   3.618 -2.6951  0.4220 -1.7743
   99SAPC   C36 9877   4.747   4.485   3.661  0.2366  0.0097 -0.1148
   99SAPC   H6X 9878   4.821   4.559   3.622 -0.3746  0.9789  0.5308
   99SAPC   H6Y 9879   4.783   4.380   3.652  0.2096 -0.1847  1.7751
   99SAPC   C37 9880   4.724   4.524   3.808 -0.2569 -0.0598 -0.6241
   99SAPC   H7X 9881   4.644   4.458   3.850  1.7744 -1.2163  1.7520
   99SAPC   H7Y 9882   4.691   4.629   3.823  2.8827  0.5971  3.7935
   99SAPC   C38 9883   4.845   4.505   3.901  0.0627 -0.3251  0.0889
   99SAPC   H8X 9884   4.884   4.401   3.888 -0.5187 -0.7296  1.4204
   99SAPC   H8Y 9885   4.806   4.509   4.005  0.4096 -0.7365  0.2407
   99SAPC   C39 9886   4.949   4.616   3.893  0.3090 -0.6825 -0.0668
   99SAPC   H9X 9887   4.894   4.713   3.886 -0.5885 -0.9006  2.7744
   99SAPC   H9Y 9888   5.005   4.606   3.797  0.5102  1.9781 -0.3049
   99SAPC  C310 9889   5.055   4.612   4.005  1.1219  0.6984  0.2763
   99SAPC  H10X 9890   5.134   4.536   3.989  0.8233  0.3464  0.4400
   99SAPC  H10Y 9891   5.003   4.587   4.101  0.3617  1.0620 -0.0275
   99SAPC  C311 9892   5.130   4.747   4.010 -0.2057  0.6720  0.0469
   99SAPC  H11X 9893   5.055   4.820   4.046  0.0893  0.1469  1.7923
   99SAPC  H11Y 9894   5.157   4.773   3.905 -1.1659  0.1819 -0.3442
   99SAPC  C312 9895   5.266   4.755   4.091  0.5076  0.5020 -0.3359
   99SAPC  H12X 9896   5.351   4.713   4.034  0.0408  0.8010 -1.2713
   99SAPC  H12Y 9897   5.260   4.696   4.186  0.3952  1.4284  0.2509
   99SAPC  C313 9898   5.307   4.899   4.128 -0.7299  0.2680  0.2170
   99SAPC  H13X 9899   5.229   4.946   4.191  0.8615  0.6160  2.0013
   99SAPC  H13Y 9900   5.316   4.963   4.037 -2.7965 -0.0462 -0.2651
   99SAPC  C314 9901   5.448   4.915   4.200  0.3918  0.9937 -0.4891
   99SAPC  H14X 9902   5.454   5.018   4.240 -1.3321  0.9903 -0.1403
   99SAPC  H14Y 9903   5.534   4.897   4.131  0.3832  0.9156 -0.4795
   99SAPC  C315 9904   5.466   4.819   4.330 -0.5759 -0.0333 -0.3231
   99SAPC  H15X 9905   5.456   4.717   4.287 -3.0736 -0.2061  0.5024
   99SAPC  H15Y 9906   5.379   4.845   4.394  1.4357 -0.2119  2.6731
   99SAPC  C316 9907   5.602   4.840   4.406  0.4699 -0.2152 -0.0829
   99SAPC  H16X 9908   5.632   4.947   4.394  0.7893 -0.4399 -1.4537
   99SAPC  H16Y 9909   5.674   4.765   4.366  1.5218  0.0436  1.2509
   99SAPC  C317 9910   5.591   4.819   4.559  0.3978  0.0466  0.4487
   99SAPC  H17X 9911   5.664   4.741   4.588 -0.2609 -1.3475 -1.3814
   99SAPC  H17Y 9912   5.483   4.790   4.564  0.1281  0.6810 -1.0002
   99SAPC  C318 9913   5.616   4.948   4.647 -0.1397  0.4239  0.4638
   99SAPC  H18X 9914   5.578   4.932   4.750 -0.8747  1.7913  0.4307
   99SAPC  H18Y 9915   5.570   5.045   4.616 -1.4543 -0.0360  0.9086
   99SAPC  H18Z 9916   5.726   4.964   4.651 -0.1071  0.0140  1.2727
  100SAPC     N 9917   4.146   4.592   2.565  0.7416  0.0441 -0.2438
  100SAPC   C12 9918   4.057   4.516   2.658 -0.2097 -0.3686 -0.8566
  100SAPC  H12A 9919   4.105   4.432   2.705  1.6051  0.5548 -0.9589
  100SAPC  H12B 9920   3.987   4.481   2.583  0.1871  0.2274 -1.5217
  100SAPC   C13 9921   4.253   4.668   2.641  0.3944  1.2448  0.4952
  100SAPC  H13A 9922   4.309   4.703   2.556 -1.7977 -0.3633 -1.7748
  100SAPC  H13B 9923   4.213   4.742   2.709 -1.9250 -0.0895  0.6852
  100SAPC  H13C 9924   4.328   4.610   2.694  0.1898 -0.0483 -0.5721
  100SAPC   C14 9925   4.214   4.498   2.470 -0.3002  0.0681 -0.0325
  100SAPC  H14A 9926   4.281   4.541   2.397 -0.3241  2.4096  1.2326
  100SAPC  H14B 9927   4.273   4.432   2.531 -0.2239  1.5628  1.5683
  100SAPC  H14C 9928   4.135   4.441   2.423 -1.1653  1.8528 -0.8149
  100SAPC   C15 9929   4.069   4.693   2.473 -0.3513  0.5938 -0.3656
  100SAPC  H15A 9930   4.134   4.742   2.403 -1.2098  1.0203 -0.8815
  100SAPC  H15B 9931   3.988   4.644   2.420  0.9062  0.9377 -2.7036
  100SAPC  H15C 9932   4.023   4.766   2.538 -0.7511 -0.0037  0.0333
  100SAPC   C11 9933   3.967   4.596   2.764 -0.2012  0.6453 -0.4032
  100SAPC  H11A 9934   4.032   4.671   2.814  0.7914  0.0359 -0.7533
  100SAPC  H11B 9935   3.924   4.516   2.829 -0.6999 -0.3638 -1.9222
  100SAPC     P 9936   3.737   4.608   2.649  0.3742 -0.1821 -0.1868
  100SAPC   O13 9937   3.661   4.703   2.566 -0.1443 -0.3097  0.2960
  100SAPC   O14 9938   3.759   4.475   2.584 -0.1922  0.3856 -0.3791
  100SAPC   O12 9939   3.868   4.668   2.691 -0.9897 -0.2220 -0.1180
  100SAPC   O11 9940   3.658   4.596   2.786 -0.3392  0.0083 -0.3882
  100SAPC    C1 9941   3.634   4.721   2.853  0.1053  0.3137 -1.0782
  100SAPC    HA 9942   3.694   4.804   2.808  0.6491 -0.4229 -1.7584
  100SAPC    HB 9943   3.531   4.755   2.830 -0.0954 -0.1973 -0.9404
  100SAPC    C2 9944   3.666   4.727   3.004  0.2880 -0.1455  0.3779
  100SAPC    HS 9945   3.590   4.798   3.043 -0.2752 -0.6943  0.3072
  100SAPC   O21 9946   3.799   4.777   3.019 -0.0188  0.2524  0.2523
  100SAPC   C21 9947   3.823   4.831   3.136  0.1829  0.1489 -0.6282
  100SAPC   O22 9948   3.735   4.866   3.216  0.1126  0.7407 -0.1458
  100SAPC   C22 9949   3.973   4.839   3.155 -0.4813 -0.2395 -0.0910
  100SAPC   H2R 9950   4.015   4.737   3.144 -0.5466 -0.3363  0.4881
  100SAPC   H2S 9951   4.021   4.903   3.078 -2.5244  0.2450 -1.0345
  100SAPC    C3 9952   3.654   4.583   3.066  0.5402  0.8482 -0.2589
  100SAPC    HX 9953   3.718   4.509   3.014  2.8635 -0.0454  3.5085
  100SAPC    HY 9954   3.555   4.545   3.031  1.2254 -0.7736 -0.5245
  100SAPC   O31 9955   3.661   4.580   3.210  0.2577  0.0296  0.0699
  100SAPC   C31 9956   3.562   4.649   3.269 -0.4146 -0.0614 -0.3760
  100SAPC   O32 9957   3.460   4.692   3.220  0.4546 -0.0133 -0.1697
  100SAPC   C32 9958   3.581   4.647   3.425 -0.6107  0.2433 -0.5603
  100SAPC   H2X 9959   3.538   4.548   3.451 -0.0900 -0.4628 -2.2725
  100SAPC   H2Y 9960   3.518   4.717   3.484 -0.6638 -0.2119 -0.0674
  100SAPC   C23 9961   4.020   4.913   3.285  0.1376  0.3659  0.1771
  100SAPC   H3R 9962   4.028   4.851   3.377 -1.9182 -1.0245 -0.4917
  100SAPC   H3S 9963   3.941   4.989   3.303 -0.3562  0.0181 -0.4781
  100SAPC   C24 9964   4.147   5.009   3.265  0.2403 -0.3765  0.5535
  100SAPC   H4R 9965   4.148   5.090   3.340 -1.3355  0.5042 -0.3230
  100SAPC   H4S 9966   4.124   5.060   3.169 -3.1379 -1.1016  0.8472
  100SAPC   C25 9967   4.268   4.918   3.267 -0.4122  0.1811 -0.0060
  100SAPC   H5R 9968   4.299   4.872   3.172 -0.8491  0.4777 -0.2951
  100SAPC   C26 9969   4.347   4.910   3.378  0.1911 -0.6948 -0.4045
  100SAPC   H6R 9970   4.430   4.838   3.373 -0.4796 -1.4106 -1.4756
  100SAPC   C27 9971   4.323   4.980   3.514  0.5803  0.0376 -0.1087
  100SAPC   H7R 9972   4.376   4.916   3.588  1.6624  0.9847 -0.0353
  100SAPC   H7S 9973   4.215   4.963   3.532  0.7490 -1.1863 -0.1491
  100SAPC   C28 9974   4.351   5.122   3.531 -0.7131  0.2503 -0.5892
  100SAPC   H8R 9975   4.322   5.182   3.443 -1.3573 -2.1506 -2.0935
  100SAPC   C29 9976   4.408   5.192   3.632  0.1771  0.7107 -0.3526
  100SAPC   H9R 9977   4.425   5.299   3.613 -0.6191  0.6612 -1.4702
  100SAPC  C210 9978   4.465   5.135   3.760 -0.8141 -0.2636 -0.6526
  100SAPC  H10R 9979   4.529   5.212   3.808 -0.8096  0.3179 -1.5693
  100SAPC  H10S 9980   4.528   5.044   3.746 -0.7965 -0.2303 -0.7887
  100SAPC  C211 9981   4.352   5.111   3.856 -0.0651 -0.1331  0.2551
  100SAPC  H11R 9982   4.265   5.062   3.808  1.1650 -2.2608  0.0530
  100SAPC  C212 9983   4.332   5.153   3.983 -0.3665  0.2026  0.0652
  100SAPC  H12R 9984   4.234   5.134   4.028 -1.0701 -1.2906 -1.9084
  100SAPC  C213 9985   4.428   5.215   4.078 -0.7650  0.0473  0.6346
  100SAPC  H13R 9986   4.397   5.320   4.099  2.1444  1.0185  0.4959
  100SAPC  H13S 9987   4.524   5.239   4.029 -0.6033  0.8096  1.2933
  100SAPC  C214 9988   4.473   5.122   4.191  0.2897 -0.1261  0.1052
  100SAPC  H14R 9989   4.533   5.036   4.157 -1.5999 -1.4160 -0.1312
  100SAPC  C215 9990   4.463   5.134   4.322  0.3548  0.3012 -0.7446
  100SAPC  H15R 9991   4.522   5.063   4.382 -1.2017 -0.5877 -0.2076
  100SAPC  C216 9992   4.404   5.250   4.404 -0.2631  0.0462  0.4578
  100SAPC  H16R 9993   4.352   5.325   4.339  2.4510  3.2117  1.6326
  100SAPC  H16S 9994   4.480   5.312   4.456 -1.1159  0.3649  1.3553
  100SAPC  C217 9995   4.304   5.204   4.506 -0.4627  0.4517 -0.6775
  100SAPC  H17R 9996   4.233   5.145   4.445 -0.1059 -0.8594  0.1319
  100SAPC  H17S 9997   4.250   5.299   4.528 -0.2015  0.4749 -0.1302
  100SAPC  C218 9998   4.367   5.135   4.634  0.2338  0.2464  0.2693
  100SAPC  H18R 9999   4.450   5.202   4.665  0.6609  0.7652 -1.7938
  100SAPC  H18S10000   4.408   5.033   4.618  2.2837  0.1854  4.7022
  100SAPC  C21910001   4.267   5.101   4.751  0.2178 -0.1307 -0.2344
  100SAPC  H19R10002   4.319   5.074   4.846  0.8797  2.1649  0.1256
  100SAPC  H19S10003   4.199   5.024   4.708  1.0405 -1.0502  0.0605
  100SAPC  C22010004   4.186   5.223   4.784  0.2470  0.1966  0.8778
  100SAPC  H20R10005   4.249   5.313   4.799 -1.0186  1.0259  1.3805
  100SAPC  H20S10006   4.120   5.206   4.871 -2.2716  0.5531 -0.8621
  100SAPC  H20T10007   4.113   5.248   4.705  0.6393  2.2260  1.0992
  100SAPC   C3310008   3.735   4.629   3.466 -0.5281 -0.1960 -0.3730
  100SAPC   H3X10009   3.797   4.686   3.394  0.2819 -2.1227 -1.2644
  100SAPC   H3Y10010   3.763   4.522   3.459 -3.4075 -0.9555 -2.2275
  100SAPC   C3410011   3.761   4.666   3.610  0.2733  0.2104 -0.0466
  100SAPC   H4X10012   3.723   4.769   3.628  0.5689  0.1801  0.8000
  100SAPC   H4Y10013   3.870   4.651   3.628  0.2837 -1.6526 -1.2769
  100SAPC   C3510014   3.690   4.564   3.709  0.3763  0.1714 -0.3012
  100SAPC   H5X10015   3.718   4.462   3.675  0.5186 -0.2278  0.9721
  100SAPC   H5Y10016   3.579   4.558   3.709  0.3433  0.5417 -1.2423
  100SAPC   C3610017   3.734   4.582   3.855 -0.0178  0.2098 -0.5421
  100SAPC   H6X10018   3.845   4.592   3.852 -0.0025 -0.0770 -1.1653
  100SAPC   H6Y10019   3.728   4.487   3.912 -0.1365  0.0914 -0.7513
  100SAPC   C3710020   3.670   4.680   3.953 -0.1213  0.0513 -0.9537
  100SAPC   H7X10021   3.562   4.698   3.938 -0.0389  0.0729 -1.5196
  100SAPC   H7Y10022   3.724   4.776   3.937  0.9674 -0.9366 -3.8834
  100SAPC   C3810023   3.697   4.636   4.098  0.0946 -0.6057 -0.5309
  100SAPC   H8X10024   3.806   4.621   4.111  0.7892  3.7964  0.1766
  100SAPC   H8Y10025   3.639   4.543   4.120 -2.6222  1.2011  0.5123
  100SAPC   C3910026   3.657   4.744   4.204 -0.3721  1.0581  0.4511
  100SAPC   H9X10027   3.551   4.722   4.230 -0.4569  0.3115 -0.4706
  100SAPC   H9Y10028   3.657   4.848   4.164 -0.7406  1.6288  1.8684
  100SAPC  C31010029   3.752   4.743   4.327  0.2320 -0.4623 -0.3988
  100SAPC  H10X10030   3.849   4.785   4.292 -0.4579  2.5845  0.9957
  100SAPC  H10Y10031   3.765   4.639   4.364  3.4437  0.8855  2.8049
  100SAPC  C31110032   3.708   4.826   4.448 -0.4752 -0.3885 -0.2760
  100SAPC  H11X10033   3.609   4.795   4.488 -0.4070  1.8047  1.8369
  100SAPC  H11Y10034   3.697   4.933   4.421  0.5912 -0.1517  0.1879
  100SAPC  C31210035   3.801   4.816   4.570 -0.4909  0.6605 -0.1019
  100SAPC  H12X10036   3.785   4.911   4.625 -0.4754  1.2781 -1.1330
  100SAPC  H12Y10037   3.910   4.818   4.546 -0.7455  0.1959 -1.3982
  100SAPC  C31310038   3.773   4.694   4.668  0.2432  0.0446  0.6332
  100SAPC  H13X10039   3.820   4.605   4.621  0.4091 -0.9701  2.6574
  100SAPC  H13Y10040   3.664   4.675   4.678 -0.0838  0.1753 -1.9649
  100SAPC  C31410041   3.842   4.724   4.802 -0.3239  0.4866 -0.8048
  100SAPC  H14X10042   3.793   4.817   4.839  1.7784  0.9118  1.1171
  100SAPC  H14Y10043   3.949   4.744   4.780 -0.0063  1.3063  1.2810
  100SAPC  C31510044   3.832   4.602   4.898 -0.2054  0.0870 -0.4300
  100SAPC  H15X10045   3.877   4.519   4.839 -0.3134 -1.1197  1.1449
  100SAPC  H15Y10046   3.723   4.585   4.914  0.1303 -0.9816  0.8281
  100SAPC  C31610047   3.922   4.623   5.023  0.6228 -0.3301 -0.4536
  100SAPC  H16X10048   3.956   4.728   5.019  2.4145 -0.9002 -3.5425
  100SAPC  H16Y10049   4.012   4.558   5.012  0.5312 -0.5083 -0.1810
  100SAPC  C31710050   3.867   4.575   5.163 -0.1223 -0.4155  0.0425
  100SAPC  H17X10051   3.788   4.500   5.143  0.1396 -0.7393  0.2139
  100SAPC  H17Y10052   3.825   4.666   5.211  2.6660  0.9967 -0.0205
  100SAPC  C31810053   3.978   4.518   5.255 -0.0839  0.6892  1.0060
  100SAPC  H18X10054   3.992   4.409   5.246  0.5045  0.7141  1.5844
  100SAPC  H18Y10055   3.960   4.535   5.364 -3.7141 -1.9066  0.9831
  100SAPC  H18Z10056   4.074   4.561   5.220  0.3603 -0.9059  0.2145
  101OSM      N10057   6.635   4.112   7.067  0.0613  0.8278 -0.3151
  101OSM    C1510058   6.527   4.089   6.969  0.3922  0.0074  0.0301
  101OSM   H15A10059   6.481   3.994   6.990  0.2886 -0.0184 -0.3127
  101OSM   H15B10060   6.572   4.080   6.871 -0.3300  2.0802 -0.5608
  101OSM   H15C10061   6.455   4.168   6.954  0.4894  0.1938  0.5137
  101OSM    C1410062   6.721   4.217   7.012  0.1491  0.4234  0.2965
  101OSM   H14A10063   6.812   4.222   7.069 -0.6586  0.5679  1.6107
  101OSM   H14B10064   6.680   4.315   6.992  1.3330  0.8005 -0.3427
  101OSM   H14C10065   6.757   4.181   6.916 -0.0005  1.2895 -0.0946
  101OSM    C1310066   6.571   4.164   7.191  0.6463 -0.5261 -0.5357
  101OSM   H13A10067   6.499   4.236   7.155  0.6048  0.1395  0.7931
  101OSM   H13B10068   6.637   4.220   7.256 -0.4205  0.5645 -0.3593
  101OSM   H13C10069   6.525   4.093   7.258  0.0716  1.0261  0.7646
  101OSM    C1210070   6.715   3.988   7.098 -0.3381 -0.6548 -0.8248
  101OSM   H12A10071   6.650   3.915   7.145  0.1371  0.8066  2.4185
  101OSM   H12B10072   6.773   4.026   7.181 -2.0399  0.3746 -0.0464
  101OSM    C1110073   6.805   3.913   6.994  0.0389  0.0769  0.0965
  101OSM   H11A10074   6.867   3.835   7.043  0.2571  1.6780  2.5487
  101OSM   H11B10075   6.878   3.984   6.951 -0.8491 -0.2586 -2.0614
  101OSM      P10076   6.611   3.734   6.924 -0.4548  0.1863 -0.0377
  101OSM    O1310077   6.665   3.635   7.021  1.0420  0.0307  0.2464
  101OSM    O1410078   6.476   3.790   6.958 -0.4976 -0.2655  0.2636
  101OSM    O1110079   6.598   3.666   6.786 -0.3090  0.1036  0.2443
  101OSM    O1210080   6.718   3.851   6.892 -0.7591 -0.0888  0.2787
  101OSM    C1S10081   6.569   3.716   6.658  0.3975  1.0257  0.0977
  101OSM    H1S10082   6.569   3.827   6.644 -0.9948  1.2197  1.3779
  101OSM    H1T10083   6.465   3.686   6.636 -0.0591  1.2672  1.7806
  101OSM     NF10084   6.657   3.706   6.431 -0.3279 -0.3943 -0.2202
  101OSM    HNF10085   6.602   3.669   6.358 -0.7983  2.1885 -1.2973
  101OSM    C2S10086   6.654   3.642   6.561 -0.4411  0.0613 -0.1670
  101OSM    H2S10087   6.759   3.639   6.598  0.4212 -0.5467 -2.4696
  101OSM    C3S10088   6.605   3.492   6.550  0.4056 -0.2855 -0.3475
  101OSM    H3S10089   6.508   3.501   6.497 -1.2027 -1.0696  2.3077
  101OSM     O310090   6.572   3.423   6.667  0.1480 -0.1630  0.2007
  101OSM    HO310091   6.579   3.496   6.729  0.4399 -0.2898  0.3182
  101OSM    C4S10092   6.685   3.400   6.464  0.1773  0.2042 -0.9947
  101OSM    H4S10093   6.658   3.393   6.357  0.0540 -1.4312 -0.8781
  101OSM    C5S10094   6.791   3.340   6.505  0.1969  0.3983 -0.3728
  101OSM    H5S10095   6.836   3.357   6.604  1.0682 -1.4880 -0.4053
  101OSM    C6S10096   6.891   3.271   6.410 -0.6814  0.4983 -0.8032
  101OSM    H6S10097   6.877   3.162   6.420 -0.4057  0.5705  0.6627
  101OSM    H6T10098   6.998   3.292   6.435 -0.6901  0.4250 -0.7037
  101OSM    C7S10099   6.860   3.281   6.266  0.2275 -0.8155  0.2874
  101OSM    H7S10100   6.856   3.385   6.225 -1.1789 -0.5536  1.0234
  101OSM    H7T10101   6.759   3.238   6.253  0.2222 -0.9714  0.8342
  101OSM    C8S10102   6.974   3.197   6.197 -0.3206  0.0550 -0.9050
  101OSM    H8S10103   6.961   3.093   6.236 -0.2783  0.4691  0.2439
  101OSM    H8T10104   7.070   3.232   6.239 -0.7049 -0.0738  0.0945
  101OSM    C9S10105   6.967   3.206   6.043  0.5303  0.6738  0.0812
  101OSM    H9S10106   6.944   3.314   6.025  0.2692  0.4727 -0.8456
  101OSM    H9T10107   6.882   3.144   6.008 -2.5466  3.9407  1.1524
  101OSM   C10S10108   7.089   3.159   5.975 -0.2382  0.1748  0.7707
  101OSM   H10S10109   7.070   3.050   5.981 -0.0557 -0.0781 -2.0152
  101OSM   H10T10110   7.184   3.183   6.029  1.6918  1.3007 -2.8307
  101OSM   C11S10111   7.101   3.209   5.826  0.4085  0.3788 -0.3055
  101OSM   H11S10112   7.131   3.316   5.820  0.6141  0.3779  0.5207
  101OSM   H11T10113   7.002   3.203   5.776  0.6885  2.6546 -1.2631
  101OSM   C12S10114   7.205   3.122   5.751 -0.5858  0.6385 -0.4913
  101OSM   H12S10115   7.199   3.013   5.773 -0.2463  1.1259  2.3674
  101OSM   H12T10116   7.308   3.145   5.786 -0.0574 -1.3216 -0.6346
  101OSM   C13S10117   7.194   3.152   5.605 -0.3917  0.5691 -0.3292
  101OSM   H13S10118   7.221   3.257   5.581  3.7400 -0.3391 -0.3156
  101OSM   H13T10119   7.088   3.131   5.578  0.3354 -1.9577 -1.5063
  101OSM   C14S10120   7.287   3.066   5.523  0.2385 -0.1159 -0.3350
  101OSM   H14S10121   7.260   2.958   5.522  1.0585 -0.3561 -2.6790
  101OSM   H14T10122   7.387   3.079   5.571 -0.1799 -1.6242  1.0326
  101OSM   C15S10123   7.295   3.120   5.376  0.1400 -0.1195 -0.1520
  101OSM   H15S10124   7.311   3.229   5.387  0.5618 -0.2263  0.3455
  101OSM   H15T10125   7.196   3.090   5.336 -0.2177  0.4631  0.2842
  101OSM   C16S10126   7.387   3.050   5.275 -0.6928  0.7220 -0.0913
  101OSM   H16S10127   7.373   2.940   5.277  0.2942  0.5492 -1.2905
  101OSM   H16T10128   7.492   3.066   5.307  0.7882 -0.9508 -3.6090
  101OSM   C17S10129   7.352   3.103   5.136 -0.3499 -0.0781 -0.0916
  101OSM   H17S10130   7.365   3.213   5.142 -0.2711 -0.1107  0.3923
  101OSM   H17T10131   7.243   3.090   5.121 -0.1645 -1.3217 -0.5172
  101OSM   C18S10132   7.448   3.040   5.030  0.2296 -1.1263  0.3815
  101OSM   H18S10133   7.425   3.061   4.924 -0.0086 -1.3336  0.3918
  101OSM   H18T10134   7.460   2.930   5.044 -1.7281 -1.1139  2.9626
  101OSM   H18U10135   7.544   3.090   5.055 -1.3874  2.1342  0.6265
  101OSM    C1F10136   6.712   3.819   6.401 -0.0675 -0.0085 -0.0412
  101OSM     OF10137   6.788   3.875   6.477 -0.2466  0.2409  0.0924
  101OSM    C2F10138   6.674   3.879   6.266  0.5315  0.1709  0.2201
  101OSM    H2F10139   6.599   3.958   6.285  3.0785  2.8900 -0.2843
  101OSM    H2G10140   6.643   3.807   6.187 -1.7981 -0.3660  1.5398
  101OSM    C3F10141   6.804   3.956   6.218  0.7116  0.7032  0.0210
  101OSM    H3F10142   6.886   3.881   6.216  1.1217  1.0888 -2.7679
  101OSM    H3G10143   6.835   4.032   6.292 -0.4118 -0.5410  1.8413
  101OSM    C4F10144   6.788   4.018   6.077 -0.1748  0.1216 -0.3293
  101OSM    H4F10145   6.711   4.098   6.085  1.8293  1.9611  3.2712
  101OSM    H4G10146   6.757   3.945   5.999 -0.5711 -0.0368 -0.0270
  101OSM    C5F10147   6.927   4.070   6.036  0.0935  0.0562  0.0005
  101OSM    H5F10148   7.013   4.003   6.060 -0.8801 -0.4073  2.4662
  101OSM    H5G10149   6.949   4.170   6.080 -0.5704  1.4384 -2.5834
  101OSM    C6F10150   6.907   4.104   5.885 -0.7157  0.2527 -0.0805
  101OSM    H6F10151   6.809   4.152   5.862 -0.6865  0.7032  0.7014
  101OSM    H6G10152   6.926   4.018   5.818 -1.6157  1.1355 -1.5273
  101OSM    C7F10153   7.015   4.208   5.839 -0.1127  0.1059 -0.2801
  101OSM    H7F10154   7.115   4.176   5.875 -0.9901 -0.1975  2.0639
  101OSM    H7G10155   7.001   4.304   5.893 -1.3915 -0.0415 -0.3259
  101OSM    C8F10156   7.019   4.221   5.683 -0.6038  0.2884  0.1640
  101OSM    H8F10157   7.077   4.306   5.640 -0.5024 -0.9276 -2.3309
  101OSM    H8G10158   6.916   4.245   5.649 -0.4716  1.6037  0.6304
  101OSM    C9F10159   7.063   4.086   5.616  0.3838  0.1288  0.3428
  101OSM    H9F10160   7.081   4.007   5.691 -1.3155 -0.9633 -0.3361
  101OSM   C10F10161   7.091   4.068   5.487  0.0272  0.2099 -0.0647
  101OSM   H10F10162   7.139   3.978   5.446  0.4186  0.1058  0.6200
  101OSM   C11F10163   7.064   4.167   5.370  0.3401  0.0310 -0.3574
  101OSM   H11F10164   7.049   4.272   5.404  1.8824  1.0346 -2.5219
  101OSM   H11G10165   6.982   4.121   5.310 -0.9804  0.0684  1.3620
  101OSM   C12F10166   7.177   4.162   5.275 -0.0201  0.6032  0.0347
  101OSM   H12F10167   7.179   4.061   5.229 -1.6647  0.7600 -0.4469
  101OSM   H12G10168   7.276   4.175   5.325  1.8991 -1.2386 -2.9268
  101OSM   C13F10169   7.182   4.278   5.171  0.6618 -0.0431 -0.3639
  101OSM   H13F10170   7.155   4.371   5.224 -0.1700 -0.2146 -0.4632
  101OSM   H13G10171   7.108   4.260   5.089 -1.2113  1.0066  1.0269
  101OSM   C14F10172   7.319   4.303   5.107 -0.3645  0.8341  0.7281
  101OSM   H14F10173   7.367   4.208   5.075 -1.6998 -0.0848  1.3572
  101OSM   H14G10174   7.394   4.335   5.182  2.3428  0.2936 -1.5750
  101OSM   C15F10175   7.315   4.409   4.992  0.2762 -0.1465 -0.7508
  101OSM   H15F10176   7.237   4.485   5.011  0.4349  0.1970 -1.4602
  101OSM   H15G10177   7.289   4.359   4.896 -0.2038 -1.4713  0.0457
  101OSM   C16F10178   7.441   4.496   4.986  0.1664 -0.6979 -0.0783
  101OSM   H16F10179   7.428   4.561   4.897 -0.5515  0.1155  0.6013
  101OSM   H16G10180   7.533   4.433   4.977  1.5607  1.2045  0.2652
  101OSM   C17F10181   7.455   4.603   5.097 -0.4554  0.8590  0.0922
  101OSM   H17F10182   7.475   4.548   5.191 -2.8703  1.8736  1.2764
  101OSM   H17G10183   7.358   4.657   5.101 -0.8939  0.0302  1.0910
  101OSM   C18F10184   7.568   4.695   5.052 -0.3368 -0.1949 -0.6357
  101OSM   H18F10185   7.662   4.636   5.048  0.4348  0.7399  1.7959
  101OSM   H18G10186   7.591   4.774   5.127  1.2617  3.1007 -4.2494
  101OSM   H18H10187   7.550   4.757   4.962  0.4957  0.7011 -0.2017
  102OSM      N10188   0.256   3.404   7.285  0.2371  0.1947  0.2028
  102OSM    C1510189   0.311   3.524   7.361 -0.5800 -0.0977 -0.0965
  102OSM   H15A10190   0.344   3.603   7.296 -0.9173  0.7913  0.7941
  102OSM   H15B10191   0.375   3.503   7.445 -1.2037 -0.2047  0.3542
  102OSM   H15C10192   0.229   3.568   7.415  0.3079  0.8457  0.5037
  102OSM    C1410193   0.356   3.338   7.199  0.9095  0.7526 -0.4780
  102OSM   H14A10194   0.406   3.400   7.126 -1.2450  1.7239 -1.2088
  102OSM   H14B10195   0.318   3.251   7.149  1.4616 -0.3169  0.8969
  102OSM   H14C10196   0.437   3.303   7.262 -0.3911 -2.2201 -0.3251
  102OSM    C1310197   0.195   3.318   7.392  0.7807  0.3885 -0.4429
  102OSM   H13A10198   0.116   3.371   7.443 -0.3684 -0.3467 -1.4052
  102OSM   H13B10199   0.271   3.286   7.461  1.4673 -1.2751 -1.8991
  102OSM   H13C10200   0.155   3.224   7.358  1.2433  0.3073 -0.7764
  102OSM    C1210201   0.145   3.456   7.195 -0.0298  0.1479  0.4303
  102OSM   H12A10202   0.075   3.517   7.250  0.9742 -0.8659  2.9647
  102OSM   H12B10203   0.085   3.369   7.172 -1.9776  0.8587  2.4921
  102OSM    C1110204   0.183   3.526   7.066  0.0299 -0.7097 -0.1043
  102OSM   H11A10205   0.088   3.552   7.015  0.4614 -2.5769 -1.9832
  102OSM   H11B10206   0.232   3.461   6.990 -0.4397  0.1210 -1.1443
  102OSM      P10207   0.387   3.674   7.013  0.3777 -0.0869  0.2593
  102OSM    O1310208   0.436   3.805   7.056 -0.4548  0.1634  0.6755
  102OSM    O1410209   0.479   3.563   7.029  0.1967  0.0617 -0.6375
  102OSM    O1110210   0.340   3.668   6.859 -0.0536  0.0020 -0.4145
  102OSM    O1210211   0.252   3.645   7.088 -0.6081 -1.0518 -0.0996
  102OSM    C1S10212   0.251   3.771   6.814  0.0682 -0.6129 -0.2736
  102OSM    H1S10213   0.293   3.866   6.852  1.3540 -1.5835  0.8182
  102OSM    H1T10214   0.151   3.761   6.860 -0.6424  1.0363 -1.3642
  102OSM     NF10215   0.162   3.917   6.627  0.2140  0.7647 -0.6631
  102OSM    HNF10216   0.080   3.909   6.571 -0.8746  3.4265  0.3745
  102OSM    C2S10217   0.225   3.788   6.662 -0.6664 -0.2314 -0.2061
  102OSM    H2S10218   0.329   3.790   6.623 -0.0157  4.4823  1.1323
  102OSM    C3S10219   0.163   3.649   6.612 -0.2850 -0.4092  0.1615
  102OSM    H3S10220   0.063   3.641   6.660 -0.5255 -2.7525 -0.5669
  102OSM     O310221   0.222   3.525   6.654  0.1165 -0.5222 -0.0568
  102OSM    HO310222   0.283   3.549   6.723  2.5136 -3.0613 -1.1185
  102OSM    C4S10223   0.140   3.645   6.470 -0.3744  0.0392 -0.0851
  102OSM    H4S10224   0.033   3.649   6.447 -0.5942 -0.4226  0.8409
  102OSM    C5S10225   0.228   3.629   6.369  0.3876  1.0253 -0.0940
  102OSM    H5S10226   0.335   3.607   6.382  0.3045  0.9522  0.5078
  102OSM    C6S10227   0.175   3.607   6.226 -0.0816 -0.4252 -0.2826
  102OSM    H6S10228   0.064   3.612   6.223 -0.0371  0.2743 -1.6973
  102OSM    H6T10229   0.208   3.502   6.209  2.3669 -0.0255  1.5280
  102OSM    C7S10230   0.228   3.707   6.128 -0.0528 -0.4198  0.5675
  102OSM    H7S10231   0.338   3.704   6.116  0.1043  2.9506  0.0094
  102OSM    H7T10232   0.236   3.811   6.166  1.4548 -0.5441  0.6235
  102OSM    C8S10233   0.156   3.713   5.992  0.0111  0.0974 -0.5329
  102OSM    H8S10234   0.150   3.819   5.960  2.7063  0.8959  1.2537
  102OSM    H8T10235   0.061   3.659   6.011  2.6520 -4.0105  2.7081
  102OSM    C9S10236   0.231   3.637   5.885  0.0159 -0.1396 -0.3073
  102OSM    H9S10237   0.276   3.548   5.933 -2.3286 -1.7117 -0.8599
  102OSM    H9T10238   0.313   3.702   5.847 -0.8989  0.4347 -1.3711
  102OSM   C10S10239   0.159   3.606   5.760  0.3531  0.1652  0.1915
  102OSM   H10S10240   0.108   3.699   5.727 -1.2681  0.0524  2.2281
  102OSM   H10T10241   0.073   3.535   5.765  0.6408 -0.6102 -3.1532
  102OSM   C11S10242   0.242   3.553   5.639  0.5868  1.1935 -0.0550
  102OSM   H11S10243   0.168   3.522   5.563  1.2592 -1.4950  0.3126
  102OSM   H11T10244   0.301   3.466   5.674 -1.3042 -0.4082 -0.6821
  102OSM   C12S10245   0.337   3.656   5.574 -0.3049  1.0832  0.6944
  102OSM   H12S10246   0.426   3.666   5.640  0.6098  0.0613 -0.3498
  102OSM   H12T10247   0.314   3.764   5.560 -0.1085  0.8238 -2.2806
  102OSM   C13S10248   0.384   3.607   5.434  0.4073 -0.1704 -0.4840
  102OSM   H13S10249   0.409   3.500   5.443  1.4276  0.1065  0.0165
  102OSM   H13T10250   0.483   3.644   5.399  1.4318 -0.4740  1.9299
  102OSM   C14S10251   0.273   3.627   5.330 -0.3231 -0.1822  0.7937
  102OSM   H14S10252   0.272   3.736   5.307  0.2598 -0.7247 -2.3643
  102OSM   H14T10253   0.173   3.591   5.363  0.3185 -1.4604  1.4193
  102OSM   C15S10254   0.323   3.547   5.195 -0.3976 -0.0374 -0.1570
  102OSM   H15S10255   0.312   3.438   5.209 -0.1991 -0.5407 -3.2529
  102OSM   H15T10256   0.433   3.556   5.180 -0.3202  0.5973  0.6909
  102OSM   C16S10257   0.238   3.605   5.076  0.2693  0.1111  0.3731
  102OSM   H16S10258   0.212   3.711   5.094 -1.2385  0.1342 -1.6492
  102OSM   H16T10259   0.136   3.561   5.078  1.5789 -3.3615 -0.7797
  102OSM   C17S10260   0.300   3.592   4.940  0.8136  0.4879 -0.3633
  102OSM   H17S10261   0.408   3.617   4.933  1.5086 -1.4162  1.9951
  102OSM   H17T10262   0.246   3.657   4.868  1.6319 -0.6483 -2.0762
  102OSM   C18S10263   0.279   3.449   4.884 -0.0736  0.5562 -0.9109
  102OSM   H18S10264   0.307   3.438   4.777  2.1671 -0.1736 -0.3160
  102OSM   H18T10265   0.173   3.425   4.902  0.0385  1.2103  0.8071
  102OSM   H18U10266   0.336   3.378   4.948 -1.7185  0.9441  1.0637
  102OSM    C1F10267   0.218   4.043   6.640 -0.9734  0.4521 -0.5042
  102OSM     OF10268   0.336   4.054   6.674 -1.0143 -0.2410 -0.6179
  102OSM    C2F10269   0.127   4.158   6.612 -1.1802 -0.6999  0.1256
  102OSM    H2F10270   0.070   4.181   6.705  1.3277 -0.0888  1.6252
  102OSM    H2G10271   0.053   4.141   6.532  0.0870 -0.1719 -1.2034
  102OSM    C3F10272   0.206   4.280   6.558 -0.1582  0.5971  0.0280
  102OSM    H3F10273   0.303   4.285   6.612 -0.6183 -1.1633  1.0971
  102OSM    H3G10274   0.146   4.368   6.590 -0.5365 -0.5545  2.7650
  102OSM    C4F10275   0.216   4.270   6.405 -0.1825 -0.2902 -0.2864
  102OSM    H4F10276   0.231   4.370   6.360 -0.2128 -0.6071 -1.0178
  102OSM    H4G10277   0.118   4.237   6.364 -0.2598 -0.2430 -0.1395
  102OSM    C5F10278   0.316   4.169   6.356 -0.1743  0.5550 -0.3421
  102OSM    H5F10279   0.268   4.070   6.374  1.9566 -0.3704  0.6000
  102OSM    H5G10280   0.401   4.155   6.427 -1.7131 -1.1280  1.3022
  102OSM    C6F10281   0.368   4.182   6.216 -0.1616 -0.3671 -0.0705
  102OSM    H6F10282   0.435   4.271   6.211  0.2157 -0.7024 -2.6180
  102OSM    H6G10283   0.288   4.198   6.141 -1.5922  0.8615  1.6434
  102OSM    C7F10284   0.448   4.057   6.163  0.0655 -0.1397 -0.4981
  102OSM    H7F10285   0.371   3.977   6.157  0.8819 -1.0694  0.9856
  102OSM    H7G10286   0.515   4.023   6.244 -0.8417 -0.2553  0.2199
  102OSM    C8F10287   0.518   4.075   6.028 -0.2083  0.0179 -0.3009
  102OSM    H8F10288   0.580   4.166   6.043  2.1351 -1.7643  1.5198
  102OSM    H8G10289   0.446   4.101   5.948  0.3406  1.0404 -0.4774
  102OSM    C9F10290   0.620   3.971   5.981 -0.2171 -0.4432 -0.3016
  102OSM    H9F10291   0.692   3.955   6.063 -1.3054  0.3329  0.8206
  102OSM   C10F10292   0.629   3.908   5.866  0.3281  0.3075  0.0037
  102OSM   H10F10293   0.712   3.837   5.852  1.0204  1.0786  0.0385
  102OSM   C11F10294   0.556   3.939   5.742  0.4395 -0.0204 -0.1363
  102OSM   H11F10295   0.500   4.034   5.752  1.4362  0.6198 -0.5030
  102OSM   H11G10296   0.478   3.865   5.713  0.2516 -0.2584  0.9320
  102OSM   C12F10297   0.649   3.961   5.619 -0.7819 -0.3074 -0.0504
  102OSM   H12F10298   0.723   3.877   5.623 -1.6905 -1.1475 -0.3829
  102OSM   H12G10299   0.710   4.054   5.618  0.6744 -1.2052  0.3894
  102OSM   C13F10300   0.595   3.932   5.477 -0.2670  0.0572 -0.1267
  102OSM   H13F10301   0.543   4.022   5.438 -2.2918 -0.6265  0.8628
  102OSM   H13G10302   0.518   3.854   5.495  0.1178 -0.1466  0.7174
  102OSM   C14F10303   0.698   3.890   5.373  0.6478  0.0228  0.4908
  102OSM   H14F10304   0.747   3.792   5.395  0.1900  0.1871  2.3221
  102OSM   H14G10305   0.785   3.959   5.387  0.6466  0.3042 -0.7839
  102OSM   C15F10306   0.660   3.875   5.220 -0.0920  0.6484  0.4549
  102OSM   H15F10307   0.642   3.972   5.168 -1.7318  0.1865  0.0872
  102OSM   H15G10308   0.566   3.817   5.207  0.1568  0.3990 -0.2775
  102OSM   C16F10309   0.768   3.792   5.141 -0.0579 -0.3289  0.5397
  102OSM   H16F10310   0.771   3.686   5.173 -0.3842 -0.1317  1.2335
  102OSM   H16G10311   0.868   3.829   5.171 -0.2393 -0.0559  0.8165
  102OSM   C17F10312   0.746   3.804   4.992 -0.4063 -0.1398 -0.4224
  102OSM   H17F10313   0.719   3.909   4.970 -0.3689  0.6244  2.7066
  102OSM   H17G10314   0.660   3.736   4.979 -0.3156 -0.0123 -1.8350
  102OSM   C18F10315   0.870   3.766   4.910  0.5074 -0.6863  0.0998
  102OSM   H18F10316   0.883   3.658   4.933 -2.8666 -0.9044  1.6803
  102OSM   H18G10317   0.954   3.828   4.948 -1.3958  1.7006  0.7224
  102OSM   H18H10318   0.844   3.790   4.805 -0.7467 -0.8557  0.3513
  103OSM      N10319   6.112   4.602   6.824 -0.0419  0.0272 -0.0075
  103OSM    C1510320   6.184   4.510   6.729 -0.0533 -0.0075 -0.3801
  103OSM   H15A10321   6.217   4.410   6.756 -1.0029 -0.1934  0.1599
  103OSM   H15B10322   6.275   4.561   6.701  0.3578 -0.6955 -0.3288
  103OSM   H15C10323   6.122   4.491   6.643  0.1145  1.1320 -0.7648
  103OSM    C1410324   6.081   4.734   6.750 -0.6273  1.1930  0.4847
  103OSM   H14A10325   6.028   4.720   6.657 -0.0021  3.7220 -0.3142
  103OSM   H14B10326   6.170   4.790   6.727  0.1987 -0.2159  0.1379
  103OSM   H14C10327   6.019   4.792   6.818 -1.4730  0.0694  0.7088
  103OSM    C1310328   5.986   4.529   6.856 -0.1265  0.4131 -0.4823
  103OSM   H13A10329   5.943   4.586   6.938 -0.7227  0.2706 -0.6901
  103OSM   H13B10330   6.008   4.433   6.902  1.0042  0.3583 -1.1187
  103OSM   H13C10331   5.919   4.523   6.772 -3.1254  0.5772  1.7001
  103OSM    C1210332   6.195   4.622   6.943 -0.2838  0.0972  0.4673
  103OSM   H12A10333   6.225   4.529   6.990 -2.0265 -1.0231 -0.5218
  103OSM   H12B10334   6.129   4.672   7.012  0.5105 -1.3819  2.4069
  103OSM    C1110335   6.328   4.701   6.926  0.7062 -0.3398 -1.3665
  103OSM   H11A10336   6.368   4.713   7.029  2.4161 -0.0657 -2.0321
  103OSM   H11B10337   6.319   4.807   6.896 -0.8702 -0.2986 -0.8479
  103OSM      P10338   6.530   4.531   6.917 -0.1946 -0.0018  0.3965
  103OSM    O1310339   6.656   4.596   6.919  0.8407  0.3668 -0.0036
  103OSM    O1410340   6.479   4.474   7.046 -0.5736 -0.4177  0.1202
  103OSM    O1110341   6.545   4.412   6.812 -0.3521 -0.5819 -0.0005
  103OSM    O1210342   6.423   4.627   6.848 -0.3801 -0.3146 -0.2686
  103OSM    C1S10343   6.546   4.439   6.674  0.3289  0.0816 -0.7044
  103OSM    H1S10344   6.637   4.501   6.653  0.1546 -0.0266 -1.8351
  103OSM    H1T10345   6.463   4.498   6.629  2.2824  1.9796 -2.0416
  103OSM     NF10346   6.584   4.340   6.452  0.3358 -0.2679 -0.0436
  103OSM    HNF10347   6.503   4.365   6.398 -0.3640 -1.5873  0.3708
  103OSM    C2S10348   6.553   4.310   6.592 -0.5690  0.3166  0.1746
  103OSM    H2S10349   6.637   4.242   6.620 -1.6109 -1.5624 -1.0293
  103OSM    C3S10350   6.421   4.234   6.605  0.9453 -0.2540  0.0253
  103OSM    H3S10351   6.360   4.309   6.550  2.0195 -0.2209 -1.1751
  103OSM     O310352   6.361   4.238   6.736  0.7515  0.4322  0.4783
  103OSM    HO310353   6.423   4.290   6.787  2.3994 -2.5297  1.7847
  103OSM    C4S10354   6.408   4.102   6.537 -0.1339  0.4528 -0.6668
  103OSM    H4S10355   6.491   4.033   6.558 -1.0843 -0.6756 -0.4919
  103OSM    C5S10356   6.296   4.058   6.473  0.3782 -0.2156  0.1602
  103OSM    H5S10357   6.216   4.133   6.470  1.1596  0.6757  1.0776
  103OSM    C6S10358   6.273   3.922   6.406 -0.0196  0.4936 -0.0007
  103OSM    H6S10359   6.203   3.854   6.459  1.0569 -0.9997 -0.4445
  103OSM    H6T10360   6.373   3.874   6.402 -1.0122 -1.8164  1.2314
  103OSM    C7S10361   6.223   3.947   6.259 -0.1389 -0.0619  0.1049
  103OSM    H7S10362   6.135   4.015   6.250  0.6023  1.1505  1.6592
  103OSM    H7T10363   6.189   3.850   6.214  0.1516 -0.8550  1.5448
  103OSM    C8S10364   6.317   4.012   6.159  0.6939 -0.5292  0.4507
  103OSM    H8S10365   6.406   3.949   6.144  0.7912 -0.1871 -0.4753
  103OSM    H8T10366   6.347   4.108   6.206 -0.0385  1.4186 -2.6926
  103OSM    C9S10367   6.246   4.038   6.025  0.1393  0.1847 -0.3359
  103OSM    H9S10368   6.150   4.093   6.037 -0.7308 -1.5460  1.1386
  103OSM    H9T10369   6.204   3.939   5.999  0.2478  0.3706 -1.2759
  103OSM   C10S10370   6.339   4.071   5.912 -0.3591  0.4717 -0.2687
  103OSM   H10S10371   6.416   3.992   5.904  0.0850  0.7444  1.1387
  103OSM   H10T10372   6.405   4.159   5.930  1.0337 -0.7432  0.7170
  103OSM   C11S10373   6.262   4.097   5.778  0.1206 -0.0660  0.4301
  103OSM   H11S10374   6.227   4.203   5.774 -2.1801 -0.7840 -2.7951
  103OSM   H11T10375   6.172   4.031   5.781  1.2218 -1.6259  0.4391
  103OSM   C12S10376   6.344   4.065   5.658  0.7915 -0.1416  0.7012
  103OSM   H12S10377   6.381   3.960   5.653  0.3894 -0.2486 -0.2783
  103OSM   H12T10378   6.429   4.136   5.662  0.5123  0.2339 -0.0046
  103OSM   C13S10379   6.261   4.110   5.534 -0.7422  0.1453  0.0991
  103OSM   H13S10380   6.233   4.216   5.551 -0.4637  0.2339  0.0080
  103OSM   H13T10381   6.163   4.058   5.522 -1.8031  1.1639  3.3026
  103OSM   C14S10382   6.337   4.112   5.394  0.9113  0.5044 -0.1965
  103OSM   H14S10383   6.371   4.009   5.371 -1.8307 -0.0644 -2.1505
  103OSM   H14T10384   6.433   4.169   5.395  1.6480 -0.7039  0.0774
  103OSM   C15S10385   6.248   4.139   5.271 -0.0296  0.6365  0.1207
  103OSM   H15S10386   6.199   4.235   5.299 -1.2028 -0.0389  0.4510
  103OSM   H15T10387   6.158   4.073   5.266 -0.8079  1.5253  1.4774
  103OSM   C16S10388   6.327   4.131   5.138  0.4095  0.5420 -0.3818
  103OSM   H16S10389   6.394   4.043   5.130 -0.1710 -0.0383  0.9399
  103OSM   H16T10390   6.393   4.219   5.145  0.7370  0.3217 -0.6789
  103OSM   C17S10391   6.242   4.127   5.010 -0.3067  0.2588 -0.0792
  103OSM   H17S10392   6.214   4.233   4.994 -0.2136  0.1052 -1.3015
  103OSM   H17T10393   6.151   4.066   5.028 -0.6030  0.9181  0.7300
  103OSM   C18S10394   6.319   4.078   4.881 -0.3093 -0.8411  0.3747
  103OSM   H18S10395   6.262   4.120   4.796  0.8184  0.9267  0.4540
  103OSM   H18T10396   6.316   3.967   4.872  0.7935 -0.7917 -0.6980
  103OSM   H18U10397   6.423   4.115   4.872 -0.7581  0.3640 -0.0683
  103OSM    C1F10398   6.699   4.381   6.400 -0.0423  0.0959  0.2629
  103OSM     OF10399   6.803   4.381   6.467 -0.2734 -0.2175  0.2122
  103OSM    C2F10400   6.703   4.413   6.248 -0.0604 -0.4954  0.4977
  103OSM    H2F10401   6.616   4.474   6.216  0.7998  0.0651 -0.8670
  103OSM    H2G10402   6.698   4.315   6.196  2.7759 -1.1971  1.3792
  103OSM    C3F10403   6.839   4.489   6.208  0.1779 -0.1257 -0.3221
  103OSM    H3F10404   6.930   4.432   6.239  1.5909  2.0411 -0.3005
  103OSM    H3G10405   6.830   4.577   6.274 -1.2118  0.5823 -1.4007
  103OSM    C4F10406   6.831   4.539   6.068 -0.4719 -0.0729  0.8937
  103OSM    H4F10407   6.726   4.572   6.052 -0.4127  0.1410  0.9434
  103OSM    H4G10408   6.853   4.462   5.991 -0.5387 -0.8098  1.6035
  103OSM    C5F10409   6.915   4.671   6.056  0.5020 -0.6730 -0.6528
  103OSM    H5F10410   7.019   4.657   6.090  0.4230  1.2642  0.5460
  103OSM    H5G10411   6.864   4.747   6.119  0.1020 -0.1662 -1.5495
  103OSM    C6F10412   6.904   4.737   5.914 -0.2856  0.0958 -0.3840
  103OSM    H6F10413   6.937   4.842   5.930  0.8484 -0.5314  1.8704
  103OSM    H6G10414   6.803   4.745   5.869  0.9805 -0.1255 -3.5755
  103OSM    C7F10415   6.985   4.662   5.805 -0.2210  0.2975 -0.0482
  103OSM    H7F10416   6.950   4.558   5.786  2.5926 -0.8692  0.7187
  103OSM    H7G10417   7.090   4.639   5.833  0.4681  1.0137 -1.9074
  103OSM    C8F10418   6.989   4.737   5.664 -0.1780 -0.0956 -0.0344
  103OSM    H8F10419   7.014   4.841   5.692 -0.2208  0.3596 -1.6114
  103OSM    H8G10420   6.884   4.735   5.628 -0.0816  0.0416 -0.3295
  103OSM    C9F10421   7.082   4.672   5.572 -0.4744 -0.2706  0.3548
  103OSM    H9F10422   7.044   4.584   5.519 -0.7874  0.6698 -1.0489
  103OSM   C10F10423   7.199   4.718   5.522  0.2749  0.2863 -0.0720
  103OSM   H10F10424   7.242   4.658   5.441 -2.7925 -2.2073 -0.0355
  103OSM   C11F10425   7.268   4.847   5.558 -0.7235  0.2182  0.5392
  103OSM   H11F10426   7.377   4.832   5.569 -0.9027 -1.2200  0.5973
  103OSM   H11G10427   7.236   4.875   5.661  1.1806  0.3177  1.1516
  103OSM   C12F10428   7.247   4.960   5.457  0.0281  0.0555 -0.0707
  103OSM   H12F10429   7.297   5.055   5.488 -1.8030  1.8069 -2.1678
  103OSM   H12G10430   7.140   4.986   5.446 -0.6798 -2.9137 -0.9607
  103OSM   C13F10431   7.298   4.927   5.313  0.3278  1.6289 -0.0056
  103OSM   H13F10432   7.250   4.840   5.262  0.8101  0.4356  1.4958
  103OSM   H13G10433   7.399   4.883   5.324 -0.9246 -1.4040  0.6502
  103OSM   C14F10434   7.278   5.043   5.217  0.0102  0.2052  0.0361
  103OSM   H14F10435   7.375   5.095   5.228  0.0472  0.0404  0.4909
  103OSM   H14G10436   7.183   5.098   5.232  0.5563  1.1603  0.0703
  103OSM   C15F10437   7.263   4.999   5.068 -0.4349 -0.1142 -0.1361
  103OSM   H15F10438   7.161   4.962   5.044 -0.8811  0.9967 -0.0473
  103OSM   H15G10439   7.334   4.916   5.049 -2.6076 -1.8147 -1.3123
  103OSM   C16F10440   7.307   5.104   4.967  0.3696 -0.5494 -0.5168
  103OSM   H16F10441   7.413   5.129   4.988  0.6249 -1.1001 -1.1259
  103OSM   H16G10442   7.246   5.196   4.979 -1.5743 -1.8550  0.0896
  103OSM   C17F10443   7.288   5.054   4.823 -0.1968 -0.1767 -0.6384
  103OSM   H17F10444   7.182   5.027   4.805  0.2427 -0.3229 -3.2953
  103OSM   H17G10445   7.349   4.963   4.807  0.9237  0.5275 -0.4718
  103OSM   C18F10446   7.327   5.148   4.708 -0.0778  0.8782 -0.0497
  103OSM   H18F10447   7.286   5.250   4.724 -1.9303  0.4965 -1.8564
  103OSM   H18G10448   7.282   5.098   4.619 -0.4095 -2.1436  1.6679
  103OSM   H18H10449   7.437   5.155   4.695  0.4888 -0.7217  2.8902
  104OSM      N10450   5.561   6.180   7.285  0.0249 -0.1994  0.0245
  104OSM    C1510451   5.536   6.323   7.253  0.8835 -0.5561  0.0907
  104OSM   H15A10452   5.604   6.364   7.179  0.7874  0.6155  0.6283
  104OSM   H15B10453   5.536   6.383   7.343 -0.5353  2.3354 -1.6651
  104OSM   H15C10454   5.443   6.332   7.198 -0.1473 -1.9145  1.5386
  104OSM    C1410455   5.684   6.180   7.373 -0.0586 -0.1001 -0.2353
  104OSM   H14A10456   5.760   6.242   7.329 -1.6197  2.5616  0.6389
  104OSM   H14B10457   5.720   6.081   7.399  1.4159  0.8230  1.4153
  104OSM   H14C10458   5.662   6.228   7.467 -1.0118  0.4001 -0.7078
  104OSM    C1310459   5.447   6.133   7.362 -0.1014  0.0874  0.2520
  104OSM   H13A10460   5.356   6.122   7.305  1.2222 -2.2790 -1.6277
  104OSM   H13B10461   5.428   6.200   7.445  1.0092  0.2544  0.3852
  104OSM   H13C10462   5.455   6.035   7.406 -0.1462 -0.3422 -0.6752
  104OSM    C1210463   5.583   6.086   7.162  0.1789 -0.2337 -0.3491
  104OSM   H12A10464   5.605   5.988   7.202 -0.3289 -0.3707 -0.3993
  104OSM   H12B10465   5.674   6.108   7.108 -0.2469  1.5611 -0.4021
  104OSM    C1110466   5.462   6.076   7.062 -0.1862  0.1088  0.0805
  104OSM   H11A10467   5.370   6.047   7.117  0.6901 -0.8679  1.0805
  104OSM   H11B10468   5.477   5.986   6.999 -0.4939  1.0015 -1.3035
  104OSM      P10469   5.309   6.262   6.972 -0.3967 -0.3287 -0.1300
  104OSM    O1310470   5.198   6.179   7.022  0.7550  0.3392 -0.2855
  104OSM    O1410471   5.327   6.394   7.042 -0.3071 -0.1665 -0.2582
  104OSM    O1110472   5.298   6.289   6.817 -0.6330 -0.2180  0.2060
  104OSM    O1210473   5.452   6.198   6.984  0.3500 -0.2252 -0.4606
  104OSM    C1S10474   5.401   6.346   6.746 -0.5317 -0.7445 -0.6164
  104OSM    H1S10475   5.497   6.291   6.756  0.6951  1.2554 -0.9850
  104OSM    H1T10476   5.420   6.447   6.787 -2.1251 -0.7708  0.2913
  104OSM     NF10477   5.498   6.395   6.525 -0.6791  0.0014 -0.5975
  104OSM    HNF10478   5.517   6.490   6.504 -1.2144  0.0279 -0.9867
  104OSM    C2S10479   5.373   6.357   6.596 -0.1302 -0.0627 -0.4475
  104OSM    H2S10480   5.340   6.257   6.560  0.6997 -0.2040 -0.8425
  104OSM    C3S10481   5.251   6.449   6.558  0.2208  0.2321 -0.4548
  104OSM    H3S10482   5.278   6.556   6.567  0.9398  0.1842 -1.8181
  104OSM     O310483   5.139   6.431   6.647 -0.2793  0.2845  0.1111
  104OSM    HO310484   5.171   6.368   6.712 -0.4224 -1.1302 -1.1098
  104OSM    C4S10485   5.205   6.419   6.421 -0.1132 -0.2917  0.4519
  104OSM    H4S10486   5.144   6.328   6.412  3.7740 -3.1833  0.8445
  104OSM    C5S10487   5.237   6.481   6.302  0.7738  0.8527  0.5132
  104OSM    H5S10488   5.307   6.566   6.303 -0.1566  1.6322  0.5276
  104OSM    C6S10489   5.176   6.452   6.168  0.4589  0.1502 -0.2679
  104OSM    H6S10490   5.094   6.526   6.152 -1.2321 -1.3833  0.8197
  104OSM    H6T10491   5.122   6.356   6.180  2.0662 -0.6319  1.0020
  104OSM    C7S10492   5.288   6.444   6.060  0.4888 -0.6381  0.2979
  104OSM    H7S10493   5.352   6.354   6.068  1.6993 -0.1833 -2.6564
  104OSM    H7T10494   5.350   6.536   6.046  0.2115 -0.6902 -1.4772
  104OSM    C8S10495   5.217   6.428   5.926 -0.2984  0.3532 -0.6443
  104OSM    H8S10496   5.133   6.500   5.912 -0.2467  0.4603 -0.4211
  104OSM    H8T10497   5.148   6.342   5.939 -0.7929  0.8333  0.0300
  104OSM    C9S10498   5.305   6.408   5.797  1.0510 -0.0380 -0.4107
  104OSM    H9S10499   5.365   6.314   5.806  0.1777 -0.6765 -1.1019
  104OSM    H9T10500   5.376   6.492   5.785  1.2980 -0.2789 -0.6409
  104OSM   C10S10501   5.216   6.385   5.671 -0.3173 -0.4662 -0.2833
  104OSM   H10S10502   5.152   6.475   5.656  1.4242  1.0747  0.9726
  104OSM   H10T10503   5.151   6.296   5.685 -2.6133  0.9263 -1.4842
  104OSM   C11S10504   5.292   6.361   5.543 -0.2602  0.1191 -0.3644
  104OSM   H11S10505   5.235   6.306   5.465 -0.0674 -1.4407  0.5536
  104OSM   H11T10506   5.381   6.297   5.561 -0.0199  0.4011 -0.5338
  104OSM   C12S10507   5.341   6.486   5.477 -0.2602 -0.5280 -0.0596
  104OSM   H12S10508   5.405   6.536   5.553  0.2262 -0.8136 -0.2811
  104OSM   H12T10509   5.264   6.564   5.455  1.6019  1.3061 -0.3888
  104OSM   C13S10510   5.431   6.469   5.351  0.5627 -0.0846 -0.5089
  104OSM   H13S10511   5.376   6.428   5.264 -0.8335 -2.2979  1.3011
  104OSM   H13T10512   5.524   6.408   5.365  1.1546  0.7204 -0.8897
  104OSM   C14S10513   5.486   6.611   5.320  0.3149  0.0390  0.5883
  104OSM   H14S10514   5.555   6.639   5.403  0.6311 -1.2633  0.7966
  104OSM   H14T10515   5.395   6.674   5.312  0.2859 -0.1490 -0.7810
  104OSM   C15S10516   5.567   6.617   5.188  0.2582  0.1236 -0.4624
  104OSM   H15S10517   5.539   6.708   5.130 -2.1410 -1.5883 -2.1954
  104OSM   H15T10518   5.533   6.529   5.129  3.5215 -0.5440 -1.5202
  104OSM   C16S10519   5.719   6.610   5.207  0.5373 -0.2000 -0.3729
  104OSM   H16S10520   5.744   6.503   5.219  0.0511 -0.2996 -0.1952
  104OSM   H16T10521   5.733   6.658   5.306  0.7764 -3.1308  1.1193
  104OSM   C17S10522   5.791   6.674   5.092 -0.0508 -0.1372 -0.6156
  104OSM   H17S10523   5.899   6.678   5.116 -0.1330 -1.7185  0.1380
  104OSM   H17T10524   5.757   6.779   5.080  3.0613  1.1515  0.7860
  104OSM   C18S10525   5.766   6.605   4.959 -1.0620 -0.1308 -0.5759
  104OSM   H18S10526   5.664   6.623   4.918 -0.6414  3.5970 -0.2946
  104OSM   H18T10527   5.780   6.496   4.973 -1.0538  0.1707  2.3239
  104OSM   H18U10528   5.841   6.640   4.885 -0.1351  2.5648  1.4576
  104OSM    C1F10529   5.580   6.295   6.490  0.1478  0.4901 -0.3196
  104OSM     OF10530   5.564   6.171   6.515  0.2039 -0.2952 -0.6348
  104OSM    C2F10531   5.680   6.328   6.383  0.8785  0.0639  0.6837
  104OSM    H2F10532   5.774   6.276   6.411  1.5856 -0.1756 -1.8747
  104OSM    H2G10533   5.705   6.437   6.384 -0.4159  0.3874  2.1658
  104OSM    C3F10534   5.636   6.293   6.240 -0.6928 -0.2987  0.5512
  104OSM    H3F10535   5.551   6.360   6.214  0.3172  0.6168 -0.4744
  104OSM    H3G10536   5.607   6.186   6.242  0.8270 -0.7602 -0.4387
  104OSM    C4F10537   5.744   6.308   6.134  0.1314  0.4347 -0.1517
  104OSM    H4F10538   5.813   6.388   6.166  0.0945 -0.2868  1.9301
  104OSM    H4G10539   5.685   6.341   6.046  1.4846  1.2525 -0.7740
  104OSM    C5F10540   5.826   6.174   6.095  0.7406 -0.9847  0.5435
  104OSM    H5F10541   5.872   6.133   6.187 -0.2965 -0.7374  1.1848
  104OSM    H5G10542   5.904   6.207   6.022 -1.0781  3.6594  0.3747
  104OSM    C6F10543   5.731   6.065   6.040 -0.3454  0.1516  0.1042
  104OSM    H6F10544   5.645   6.116   5.993 -1.2299 -1.3655  0.0152
  104OSM    H6G10545   5.706   6.017   6.137  1.2259  2.3394  1.7102
  104OSM    C7F10546   5.808   5.966   5.950  0.6370 -0.0396  0.9333
  104OSM    H7F10547   5.866   5.902   6.020 -0.8762 -2.2642  0.2633
  104OSM    H7G10548   5.871   6.013   5.872 -0.0919 -0.7348 -0.1021
  104OSM    C8F10549   5.706   5.866   5.882  0.6955 -0.0988 -0.8500
  104OSM    H8F10550   5.647   5.918   5.803 -1.1588  0.2470  0.6796
  104OSM    H8G10551   5.636   5.835   5.962 -2.1265  0.9477 -2.7642
  104OSM    C9F10552   5.782   5.747   5.831  0.2310  0.1582  0.1040
  104OSM    H9F10553   5.827   5.686   5.910  1.6067  2.4951  1.2450
  104OSM   C10F10554   5.788   5.720   5.694 -0.2248 -0.1063 -0.4897
  104OSM   H10F10555   5.845   5.636   5.652 -3.0962 -1.4478 -1.9718
  104OSM   C11F10556   5.726   5.807   5.586 -0.1562  0.4190  0.0114
  104OSM   H11F10557   5.764   5.911   5.590  2.5062 -0.2846 -2.8781
  104OSM   H11G10558   5.615   5.806   5.598 -0.1628  0.8667  0.0170
  104OSM   C12F10559   5.758   5.767   5.445 -0.2578 -0.3691 -0.2441
  104OSM   H12F10560   5.868   5.787   5.450 -0.5555  1.0837  2.5914
  104OSM   H12G10561   5.709   5.835   5.372  3.4979  0.1713 -2.5370
  104OSM   C13F10562   5.732   5.616   5.406 -0.4282  0.1951 -0.4081
  104OSM   H13F10563   5.646   5.568   5.457 -0.2638  2.1682  1.9327
  104OSM   H13G10564   5.815   5.560   5.452 -1.2203 -1.5012 -0.9665
  104OSM   C14F10565   5.724   5.583   5.255 -0.0873 -0.1451  0.2738
  104OSM   H14F10566   5.637   5.634   5.208  0.5771 -2.0620 -3.5005
  104OSM   H14G10567   5.713   5.473   5.247 -1.4843 -0.0483  0.7201
  104OSM   C15F10568   5.852   5.628   5.187 -0.4076 -0.4779  0.6085
  104OSM   H15F10569   5.937   5.594   5.251 -0.4221 -0.5577  0.5864
  104OSM   H15G10570   5.855   5.738   5.202 -2.1345 -0.3990  0.5671
  104OSM   C16F10571   5.866   5.587   5.039 -0.0154  0.3603  0.1147
  104OSM   H16F10572   5.779   5.627   4.982  1.0805  0.3971 -1.6299
  104OSM   H16G10573   5.875   5.478   5.017  0.5250  0.3122  0.5521
  104OSM   C17F10574   5.985   5.655   4.972 -0.0425  0.1708 -0.3372
  104OSM   H17F10575   6.080   5.617   5.016  0.2504 -1.3514 -2.1661
  104OSM   H17G10576   5.986   5.764   4.989 -0.2132  0.4790 -2.1484
  104OSM   C18F10577   5.983   5.628   4.821  0.1318 -0.1449 -0.0580
  104OSM   H18F10578   5.991   5.519   4.801 -1.0525 -0.5690  1.4920
  104OSM   H18G10579   6.060   5.688   4.769 -0.0866  0.2338  0.0544
  104OSM   H18H10580   5.890   5.673   4.781  0.7903 -0.1173 -1.6085
  105OSM      N10581   0.140   6.105   6.810 -0.2301  0.3741  0.4783
  105OSM    C1510582   0.006   6.095   6.741  0.1811 -0.5963 -0.0735
  105OSM   H15A10583  -0.033   6.195   6.731  3.5742  0.9326  0.5653
  105OSM   H15B10584  -0.067   6.035   6.793 -0.9589  0.5394 -0.2977
  105OSM   H15C10585   0.026   6.058   6.641  0.6039  1.1991 -0.6840
  105OSM    C1410586   0.224   6.184   6.717  0.6089  0.1045  0.2572
  105OSM   H14A10587   0.311   6.226   6.765  0.4136  0.2364  0.4924
  105OSM   H14B10588   0.174   6.274   6.683 -0.2203 -0.2009  0.6509
  105OSM   H14C10589   0.248   6.127   6.628  1.6146 -1.2988  1.3751
  105OSM    C1310590   0.130   6.179   6.942  0.6331 -0.6609 -0.1145
  105OSM   H13A10591   0.073   6.125   7.016 -1.1705  0.9484 -0.2392
  105OSM   H13B10592   0.082   6.275   6.927  0.4081 -0.7119  0.2564
  105OSM   H13C10593   0.224   6.187   6.993  0.9841 -0.8839 -0.7222
  105OSM    C1210594   0.191   5.969   6.841 -0.0079 -0.2098 -0.1970
  105OSM   H12A10595   0.130   5.907   6.906 -0.0442  0.2190  0.1842
  105OSM   H12B10596   0.289   5.989   6.882  0.5641 -1.7067 -0.7617
  105OSM    C1110597   0.215   5.869   6.726  0.2678 -0.2478 -0.1307
  105OSM   H11A10598   0.118   5.868   6.671 -0.3955 -0.0351  1.0002
  105OSM   H11B10599   0.233   5.765   6.762  1.4128 -0.5289 -1.4486
  105OSM      P10600   0.339   5.798   6.512 -0.1476  0.3497 -0.4880
  105OSM    O1310601   0.456   5.846   6.441 -0.4219  0.2519  0.2310
  105OSM    O1410602   0.330   5.660   6.560 -0.2468 -0.0340 -0.6381
  105OSM    O1110603   0.210   5.827   6.422  0.1701 -0.1899  0.0772
  105OSM    O1210604   0.320   5.898   6.627 -0.3355 -0.3530 -0.7140
  105OSM    C1S10605   0.215   5.935   6.324 -0.3806 -0.5573 -0.0938
  105OSM    H1S10606   0.297   5.912   6.252 -0.4720  0.4184 -0.5133
  105OSM    H1T10607   0.236   6.033   6.371 -0.5492 -0.3821 -0.3820
  105OSM     NF10608   0.110   6.031   6.133  0.1538  0.0401 -0.3758
  105OSM    HNF10609   0.076   6.124   6.120  1.6797  0.3201 -3.0743
  105OSM    C2S10610   0.084   5.947   6.247  0.1277  0.2730 -0.6393
  105OSM    H2S10611   0.056   5.844   6.216  0.8599 -0.2521  0.3862
  105OSM    C3S10612  -0.035   5.992   6.340  0.0934  0.6578  0.3238
  105OSM    H3S10613  -0.017   6.095   6.377 -2.4273  0.9417  0.9419
  105OSM     O310614  -0.051   5.911   6.457 -0.0859  0.0375  0.5122
  105OSM    HO310615   0.026   5.854   6.460 -0.9734 -1.1453  2.4821
  105OSM    C4S10616  -0.166   5.997   6.262 -0.2085  0.4364  0.2261
  105OSM    H4S10617  -0.197   5.916   6.195 -1.6191  0.7817  0.4236
  105OSM    C5S10618  -0.245   6.109   6.261 -0.1196 -0.3039  0.3166
  105OSM    H5S10619  -0.213   6.202   6.310 -2.9719  1.3624 -0.7559
  105OSM    C6S10620  -0.368   6.122   6.181 -0.7360  0.6295 -0.2897
  105OSM    H6S10621  -0.449   6.157   6.249 -1.0887  2.7687 -1.6935
  105OSM    H6T10622  -0.402   6.020   6.153  1.1401  0.0148 -0.4117
  105OSM    C7S10623  -0.340   6.212   6.060  0.4764  0.0786  0.1596
  105OSM    H7S10624  -0.295   6.308   6.092 -0.3733  1.0723 -1.4862
  105OSM    H7T10625  -0.428   6.244   6.001  1.8472  0.9428 -1.5288
  105OSM    C8S10626  -0.226   6.151   5.973  0.2248  0.0475 -1.0453
  105OSM    H8S10627  -0.234   6.040   5.977 -0.3808  0.1104  2.0859
  105OSM    H8T10628  -0.131   6.192   6.012 -0.1150 -0.7654  0.7135
  105OSM    C9S10629  -0.217   6.209   5.831 -0.3778  0.2661 -0.6590
  105OSM    H9S10630  -0.120   6.175   5.789  1.4835  1.6929  2.1754
  105OSM    H9T10631  -0.226   6.320   5.839 -1.2128  0.0980  1.4899
  105OSM   C10S10632  -0.331   6.161   5.744  0.6134  0.3990  0.3662
  105OSM   H10S10633  -0.428   6.199   5.784  1.3302  1.7621  0.8967
  105OSM   H10T10634  -0.350   6.052   5.752 -2.5093  0.6103 -2.0944
  105OSM   C11S10635  -0.326   6.202   5.599  0.4285 -0.1573 -0.4890
  105OSM   H11S10636  -0.317   6.313   5.602  0.2079 -0.1500 -0.0246
  105OSM   H11T10637  -0.428   6.192   5.556 -0.3423  1.9517  0.6643
  105OSM   C12S10638  -0.231   6.109   5.517 -0.1187  0.3196  0.5197
  105OSM   H12S10639  -0.282   6.011   5.515  0.9022 -0.2189 -0.7203
  105OSM   H12T10640  -0.130   6.104   5.564 -0.1991  0.3023  0.6886
  105OSM   C13S10641  -0.218   6.157   5.372 -0.0083  0.4806 -0.5252
  105OSM   H13S10642  -0.323   6.162   5.335 -0.7974  0.3721  1.5466
  105OSM   H13T10643  -0.170   6.074   5.317 -0.1600  0.4408 -0.5980
  105OSM   C14S10644  -0.141   6.284   5.345 -0.0189 -0.1886 -0.5496
  105OSM   H14S10645  -0.031   6.268   5.347  0.0793  0.4623 -0.5256
  105OSM   H14T10646  -0.169   6.358   5.423 -0.7442 -1.4951  0.4896
  105OSM   C15S10647  -0.180   6.341   5.210 -0.4314 -0.0504 -0.3505
  105OSM   H15S10648  -0.289   6.362   5.201 -0.2004  0.9376 -1.0720
  105OSM   H15T10649  -0.172   6.260   5.135 -0.7742 -2.6535  2.2251
  105OSM   C16S10650  -0.110   6.470   5.169  0.1888  0.4023  0.4190
  105OSM   H16S10651  -0.002   6.451   5.183 -0.0045 -0.5390  0.7259
  105OSM   H16T10652  -0.130   6.558   5.234  0.4757  0.0607  0.9749
  105OSM   C17S10653  -0.136   6.502   5.020  0.1174 -0.4346 -0.0290
  105OSM   H17S10654  -0.247   6.505   5.018  0.1455  0.7373 -0.7070
  105OSM   H17T10655  -0.090   6.428   4.951  2.0884  1.5413 -0.9269
  105OSM   C18S10656  -0.099   6.644   4.986  0.0493 -0.4525  0.1744
  105OSM   H18S10657  -0.160   6.714   5.047  0.2228  0.0549 -0.2221
  105OSM   H18T10658  -0.127   6.655   4.879 -0.2017  3.0930  0.4857
  105OSM   H18U10659   0.007   6.676   4.992  0.3480 -1.0188 -1.5127
  105OSM    C1F10660   0.180   5.988   6.030  0.3275  0.1935 -0.4632
  105OSM     OF10661   0.251   5.890   6.031 -0.0916  0.0845 -0.0497
  105OSM    C2F10662   0.154   6.056   5.899 -0.4280  0.6609 -0.4983
  105OSM    H2F10663   0.200   6.157   5.908 -0.2800  0.5466  0.0446
  105OSM    H2G10664   0.046   6.076   5.887 -0.5819  0.0207 -0.2309
  105OSM    C3F10665   0.209   5.978   5.780  0.6480 -0.3098 -0.1376
  105OSM    H3F10666   0.140   5.891   5.770 -0.1820  0.4091 -0.8388
  105OSM    H3G10667   0.314   5.944   5.786  0.7124 -0.2046 -0.6072
  105OSM    C4F10668   0.220   6.052   5.643 -0.2973 -0.9657  0.6068
  105OSM    H4F10669   0.325   6.076   5.614  0.1577 -2.7502  0.6459
  105OSM    H4G10670   0.161   6.146   5.642  0.3747 -0.5332  0.3524
  105OSM    C5F10671   0.170   5.969   5.516  0.0810  0.4703  0.1928
  105OSM    H5F10672   0.064   5.945   5.539 -0.0370  1.3020  0.5667
  105OSM    H5G10673   0.226   5.873   5.509  2.5508  1.8738 -0.5148
  105OSM    C6F10674   0.186   6.050   5.385 -0.3978  0.1227 -0.1000
  105OSM    H6F10675   0.292   6.048   5.353 -0.9319  1.7234 -2.2546
  105OSM    H6G10676   0.154   6.150   5.422 -1.4480 -0.7652  1.5361
  105OSM    C7F10677   0.098   5.993   5.278 -0.0718 -0.3657  0.5528
  105OSM    H7F10678   0.000   5.976   5.328 -1.1446  1.4089 -0.8094
  105OSM    H7G10679   0.132   5.890   5.253  0.3508 -0.1646  0.3008
  105OSM    C8F10680   0.083   6.069   5.142 -0.4029 -0.4957  0.1203
  105OSM    H8F10681   0.186   6.076   5.103 -0.0091 -1.2777  1.0037
  105OSM    H8G10682   0.051   6.169   5.180 -1.6002 -0.3054 -1.2998
  105OSM    C9F10683  -0.011   6.017   5.036 -0.2057 -0.0699  0.0615
  105OSM    H9F10684  -0.116   6.030   5.066 -0.0855  0.2740  0.3406
  105OSM   C10F10685   0.017   5.966   4.914 -0.0636  0.1426 -0.1250
  105OSM   H10F10686  -0.070   5.940   4.851 -0.3074 -0.8342  0.5867
  105OSM   C11F10687   0.152   5.945   4.850 -0.3203 -0.0801  0.8683
  105OSM   H11F10688   0.139   5.853   4.788 -0.6627  1.7431 -1.9813
  105OSM   H11G10689   0.244   5.941   4.912  0.3416 -3.1092 -0.1176
  105OSM   C12F10690   0.190   6.050   4.748 -0.1096  0.4505 -0.0644
  105OSM   H12F10691   0.175   6.153   4.787  0.8589 -0.0022  1.6169
  105OSM   H12G10692   0.117   6.037   4.666  0.6815  1.0294 -0.8831
  105OSM   C13F10693   0.324   6.031   4.670 -0.2882 -0.9015 -0.2950
  105OSM   H13F10694   0.315   6.100   4.582 -0.8818 -0.6694 -0.0573
  105OSM   H13G10695   0.328   5.930   4.624  0.0838 -0.3312 -1.5775
  105OSM   C14F10696   0.453   6.062   4.749 -0.2979 -1.0957  0.1315
  105OSM   H14F10697   0.451   5.991   4.834  1.0715 -0.4620  0.7359
  105OSM   H14G10698   0.439   6.166   4.786  1.6884 -1.9767  3.9144
  105OSM   C15F10699   0.588   6.063   4.675 -0.2639 -0.1509  0.7145
  105OSM   H15F10700   0.660   6.136   4.718  0.6712  0.1294 -1.2337
  105OSM   H15G10701   0.576   6.098   4.571 -0.3052 -0.3428  0.6543
  105OSM   C16F10702   0.658   5.918   4.681  0.7670  0.5930 -0.5463
  105OSM   H16F10703   0.715   5.915   4.586  2.4860 -1.2144  0.4652
  105OSM   H16G10704   0.594   5.829   4.662 -0.4160  1.3793 -0.3806
  105OSM   C17F10705   0.754   5.908   4.798 -0.4170  0.0205 -0.9164
  105OSM   H17F10706   0.712   5.963   4.885 -0.2807 -1.6287  0.2442
  105OSM   H17G10707   0.852   5.949   4.766 -1.6267  2.2450 -1.9504
  105OSM   C18F10708   0.794   5.769   4.845 -0.4111 -0.4688 -0.1939
  105OSM   H18F10709   0.883   5.768   4.912 -1.1911  2.8516  1.0887
  105OSM   H18G10710   0.815   5.703   4.759 -0.0642  0.3699 -0.7607
  105OSM   H18H10711   0.708   5.726   4.902 -0.6510  1.1420  0.7332
  106OSM      N10712   4.592   2.305   7.143 -0.1283 -0.4996  0.5562
  106OSM    C1510713   4.647   2.387   7.251 -0.5549 -0.0199 -0.9043
  106OSM   H15A10714   4.752   2.411   7.241 -0.4688  0.8731  1.4704
  106OSM   H15B10715   4.619   2.344   7.346  1.0951 -0.5751 -0.6328
  106OSM   H15C10716   4.602   2.486   7.247  0.4361  0.5758  1.1819
  106OSM    C1410717   4.665   2.170   7.152 -0.4344 -0.3405  0.2827
  106OSM   H14A10718   4.770   2.187   7.172 -0.6317 -0.1398  1.1810
  106OSM   H14B10719   4.629   2.112   7.068 -0.4973 -0.0193  0.0818
  106OSM   H14C10720   4.623   2.115   7.235 -2.1572 -1.0682 -1.0006
  106OSM    C1310721   4.448   2.279   7.148 -0.3692  0.1034 -0.5250
  106OSM   H13A10722   4.381   2.364   7.142 -0.9044 -0.3860 -1.9493
  106OSM   H13B10723   4.423   2.222   7.236  1.6132 -0.4344 -0.2675
  106OSM   H13C10724   4.418   2.215   7.066 -0.7394 -0.3267 -0.0627
  106OSM    C1210725   4.625   2.364   7.006 -0.0599 -0.2585 -0.6779
  106OSM   H12A10726   4.615   2.285   6.933  0.0470 -0.6766 -0.2474
  106OSM   H12B10727   4.726   2.401   7.007  0.8422 -2.5020  0.9459
  106OSM    C1110728   4.539   2.488   6.963  0.1820 -0.7628  0.3548
  106OSM   H11A10729   4.434   2.455   6.948 -0.2910  1.2991 -1.3844
  106OSM   H11B10730   4.558   2.525   6.860 -0.0458 -0.0966  0.5423
  106OSM      P10731   4.665   2.703   7.048 -0.1965 -0.3329  0.0956
  106OSM    O1310732   4.656   2.830   7.125 -0.2023  0.6605  0.3167
  106OSM    O1410733   4.792   2.629   7.067  0.2307  0.2423 -0.4219
  106OSM    O1110734   4.664   2.739   6.891  0.0010  0.2212  0.2803
  106OSM    O1210735   4.544   2.603   7.056  0.2424  0.0552 -0.3600
  106OSM    C1S10736   4.555   2.809   6.833 -0.0054  0.2018  0.1269
  106OSM    H1S10737   4.531   2.902   6.887 -3.4522 -0.0585 -0.7514
  106OSM    H1T10738   4.463   2.747   6.843 -1.6214  2.6228  1.0532
  106OSM     NF10739   4.452   2.906   6.621  0.2996  0.3033 -1.0503
  106OSM    HNF10740   4.406   2.865   6.543 -1.5316 -0.5414  0.4048
  106OSM    C2S10741   4.571   2.833   6.679 -0.4154  0.3157  0.3881
  106OSM    H2S10742   4.663   2.896   6.679  0.6827 -1.1471  2.8409
  106OSM    C3S10743   4.600   2.705   6.605 -0.4572  0.3928  0.1623
  106OSM    H3S10744   4.515   2.635   6.622  1.6108 -2.1371  0.8365
  106OSM     O310745   4.711   2.625   6.655  0.0892 -0.0148 -0.3719
  106OSM    HO310746   4.733   2.668   6.738  1.9813  0.0555 -0.8684
  106OSM    C4S10747   4.618   2.728   6.460 -0.1200  0.2444  0.2864
  106OSM    H4S10748   4.518   2.725   6.415  1.0126 -2.3811 -2.4494
  106OSM    C5S10749   4.725   2.754   6.382  0.0492  0.1508 -0.2462
  106OSM    H5S10750   4.824   2.754   6.430  1.3417  2.0203 -2.6755
  106OSM    C6S10751   4.733   2.785   6.236  0.5692  0.0373  0.0382
  106OSM    H6S10752   4.783   2.702   6.182  2.3703 -1.5960  3.8173
  106OSM    H6T10753   4.802   2.871   6.215 -0.5858  0.4072 -2.5480
  106OSM    C7S10754   4.610   2.819   6.155 -0.1133 -1.0308  0.5117
  106OSM    H7S10755   4.553   2.899   6.207  0.4549 -2.2550  3.2151
  106OSM    H7T10756   4.539   2.733   6.159 -0.3287 -0.8856 -0.1635
  106OSM    C8S10757   4.634   2.852   6.007  0.1262 -0.3211 -0.6364
  106OSM    H8S10758   4.673   2.762   5.954  2.1856 -0.5644  1.1331
  106OSM    H8T10759   4.706   2.936   6.003 -0.3142  0.1826  1.1594
  106OSM    C9S10760   4.509   2.905   5.934  0.8828 -0.7942 -0.1013
  106OSM    H9S10761   4.480   2.999   5.986  0.8485 -0.8418 -0.0345
  106OSM    H9T10762   4.417   2.844   5.944  0.9344 -0.8350  0.1429
  106OSM   C10S10763   4.554   2.936   5.788  0.4335  0.4924  0.1431
  106OSM   H10S10764   4.576   2.838   5.740 -2.2832 -0.8366  1.3907
  106OSM   H10T10765   4.649   2.993   5.781  1.5658 -1.3656 -0.5703
  106OSM   C11S10766   4.440   3.011   5.717  0.7083  0.4880  0.2661
  106OSM   H11S10767   4.435   3.107   5.773 -1.1372  0.4836  0.1657
  106OSM   H11T10768   4.348   2.952   5.737  1.2441 -0.3514  0.3231
  106OSM   C12S10769   4.461   3.038   5.571  0.4548  0.3332  0.5347
  106OSM   H12S10770   4.567   3.064   5.551  0.6606 -1.9427 -1.8096
  106OSM   H12T10771   4.400   3.126   5.540 -0.4298 -0.8614 -1.2567
  106OSM   C13S10772   4.423   2.924   5.477 -0.3628 -0.5471  0.4944
  106OSM   H13S10773   4.312   2.912   5.475 -0.6512  1.6874  0.2644
  106OSM   H13T10774   4.477   2.834   5.513  0.5911  0.5164  1.7840
  106OSM   C14S10775   4.460   2.960   5.325 -0.2126 -0.1163  0.0399
  106OSM   H14S10776   4.570   2.980   5.321  0.2930 -2.1040  1.9391
  106OSM   H14T10777   4.407   3.052   5.292 -0.1520 -0.3481 -0.7163
  106OSM   C15S10778   4.436   2.839   5.245 -0.1466 -0.0910  0.8770
  106OSM   H15S10779   4.338   2.788   5.259 -1.1969  0.7531 -2.3791
  106OSM   H15T10780   4.513   2.763   5.270  1.5657  1.2804 -0.0103
  106OSM   C16S10781   4.444   2.865   5.090  0.2917 -0.3960 -0.4447
  106OSM   H16S10782   4.544   2.910   5.071  0.1723  0.2987  0.4634
  106OSM   H16T10783   4.375   2.943   5.052 -0.9696 -0.3852  1.6994
  106OSM   C17S10784   4.412   2.739   5.014 -0.5085  0.4254  0.1475
  106OSM   H17S10785   4.330   2.689   5.070 -1.1176  1.6629  0.3888
  106OSM   H17T10786   4.509   2.685   5.027 -0.1940  1.1896  1.0769
  106OSM   C18S10787   4.366   2.757   4.867  0.2142 -0.5195  0.2881
  106OSM   H18S10788   4.264   2.799   4.858 -0.0152 -1.0387  0.4340
  106OSM   H18T10789   4.361   2.657   4.819 -1.5390  0.0508 -0.8165
  106OSM   H18U10790   4.438   2.822   4.813 -0.0480 -0.5760 -0.1265
  106OSM    C1F10791   4.423   3.029   6.656  0.1091  0.1556  0.5493
  106OSM     OF10792   4.480   3.082   6.750  0.0188 -0.1657  0.8423
  106OSM    C2F10793   4.325   3.109   6.573  0.0096 -0.2160 -0.4232
  106OSM    H2F10794   4.225   3.094   6.620 -0.4763 -1.7646 -1.8351
  106OSM    H2G10795   4.312   3.068   6.471  0.3784  0.2501 -0.6558
  106OSM    C3F10796   4.341   3.258   6.580 -0.2966 -0.4463  0.2546
  106OSM    H3F10797   4.382   3.290   6.678  2.0965 -0.5192 -0.6457
  106OSM    H3G10798   4.246   3.310   6.553  0.1404  0.0404 -0.3855
  106OSM    C4F10799   4.442   3.292   6.469 -0.3684 -0.2449 -0.5180
  106OSM    H4F10800   4.391   3.273   6.372  0.9710 -0.9489 -1.1221
  106OSM    H4G10801   4.518   3.210   6.475 -0.9707 -0.9272 -1.7486
  106OSM    C5F10802   4.515   3.429   6.481  0.5521  0.2532 -0.0690
  106OSM    H5F10803   4.572   3.427   6.385 -1.1418 -1.3835 -1.0963
  106OSM    H5G10804   4.600   3.424   6.553  1.1755  2.7863 -0.5223
  106OSM    C6F10805   4.429   3.547   6.504  0.3944 -0.4812 -0.0340
  106OSM    H6F10806   4.350   3.542   6.582  0.6722  1.1178  0.3815
  106OSM    H6G10807   4.366   3.559   6.413 -2.3670  1.1960  1.9538
  106OSM    C7F10808   4.496   3.683   6.529 -0.3757  0.5186  0.4193
  106OSM    H7F10809   4.597   3.694   6.484 -0.1481  1.5099  1.1350
  106OSM    H7G10810   4.509   3.676   6.639 -0.8136 -0.7752  0.4041
  106OSM    C8F10811   4.391   3.792   6.493  0.1078  0.7822  0.1633
  106OSM    H8F10812   4.292   3.769   6.537  0.2193 -1.2160 -0.5489
  106OSM    H8G10813   4.372   3.786   6.383 -1.4764 -0.4018  0.4716
  106OSM    C9F10814   4.428   3.928   6.536  0.0958  0.4756  0.9563
  106OSM    H9F10815   4.368   3.969   6.619 -0.0135 -1.7912  2.0622
  106OSM   C10F10816   4.504   4.019   6.469 -0.3416 -0.6295 -0.3988
  106OSM   H10F10817   4.534   4.115   6.514  2.3220 -1.4293 -0.3321
  106OSM   C11F10818   4.578   4.001   6.342  0.4715 -0.2337  0.0716
  106OSM   H11F10819   4.589   3.894   6.315  3.6773  0.5945 -2.5678
  106OSM   H11G10820   4.681   4.040   6.359 -0.0994  0.9972  0.8844
  106OSM   C12F10821   4.511   4.085   6.229 -0.7692 -0.2621  0.2275
  106OSM   H12F10822   4.587   4.096   6.149  2.3404  1.6198  3.2045
  106OSM   H12G10823   4.492   4.190   6.260  1.0582  0.3512 -0.6115
  106OSM   C13F10824   4.379   4.017   6.187  0.3737  0.1965  0.7459
  106OSM   H13F10825   4.295   4.043   6.255  0.8548  1.2768  0.9383
  106OSM   H13G10826   4.398   3.907   6.183 -1.7831 -0.2109 -2.9527
  106OSM   C14F10827   4.339   4.045   6.038  0.4493  0.4250 -0.3074
  106OSM   H14F10828   4.325   4.154   6.022 -1.3679  0.3884  0.7479
  106OSM   H14G10829   4.240   3.997   6.020  1.2559 -0.6800 -1.9597
  106OSM   C15F10830   4.445   3.983   5.942 -0.2489  0.3127  0.2517
  106OSM   H15F10831   4.472   3.884   5.984  0.8699  0.7140  0.4983
  106OSM   H15G10832   4.537   4.044   5.938  0.2873 -0.4661  0.6093
  106OSM   C16F10833   4.391   3.968   5.800 -0.3938  0.0703  0.3410
  106OSM   H16F10834   4.384   4.063   5.743  1.5877 -0.8681 -1.6472
  106OSM   H16G10835   4.292   3.918   5.801  0.1996 -1.1768 -0.1520
  106OSM   C17F10836   4.482   3.888   5.716 -0.2776 -0.1610 -0.5209
  106OSM   H17F10837   4.502   3.787   5.759 -0.3547 -0.7007 -1.7068
  106OSM   H17G10838   4.578   3.942   5.707  0.5028 -0.9946  1.9287
  106OSM   C18F10839   4.420   3.873   5.575 -0.2394  0.0050  0.7196
  106OSM   H18F10840   4.499   3.829   5.509  1.7128  0.2430  2.7855
  106OSM   H18G10841   4.382   3.967   5.530 -3.1635 -1.0977  0.6677
  106OSM   H18H10842   4.332   3.805   5.573  0.6644 -1.2597  1.7538
  107OSM      N10843   6.014   2.932   7.488 -0.2716 -0.2053  0.3513
  107OSM    C1510844   5.903   3.029   7.455  0.0629 -0.0071 -0.2194
  107OSM   H15A10845   5.933   3.129   7.480 -2.7092  0.7423  0.4872
  107OSM   H15B10846   5.813   2.995   7.504 -0.8923 -1.1161 -2.5912
  107OSM   H15C10847   5.880   3.036   7.349  0.9308 -1.4052 -0.5299
  107OSM    C1410848   6.127   2.947   7.391  0.5686  0.1848 -0.3941
  107OSM   H14A10849   6.206   2.875   7.406 -1.2999 -1.4863  2.0355
  107OSM   H14B10850   6.165   3.047   7.410 -0.3421  0.1449  1.8716
  107OSM   H14C10851   6.084   2.950   7.292 -1.2565  1.8902  0.3848
  107OSM    C1310852   6.054   2.951   7.625 -0.0013  0.0844  0.3196
  107OSM   H13A10853   6.038   3.054   7.651  1.5504  0.4663 -0.1535
  107OSM   H13B10854   6.157   2.925   7.646 -0.0909  0.0453  0.7254
  107OSM   H13C10855   5.982   2.907   7.693 -0.3389 -2.1297 -1.3323
  107OSM    C1210856   5.953   2.791   7.480 -0.0335  0.2294  0.5148
  107OSM   H12A10857   5.918   2.770   7.380 -0.4432  3.9220 -0.2728
  107OSM   H12B10858   5.867   2.792   7.545 -1.1750 -0.4952 -0.9331
  107OSM    C1110859   6.038   2.668   7.531  0.5337 -0.2184 -0.1142
  107OSM   H11A10860   5.975   2.579   7.514  1.7542 -0.9024 -1.2530
  107OSM   H11B10861   6.059   2.691   7.638 -1.1896 -0.8034  0.3762
  107OSM      P10862   6.172   2.573   7.324 -0.1028 -0.7621 -0.1993
  107OSM    O1310863   6.281   2.639   7.247 -0.1971 -0.1041  0.4039
  107OSM    O1410864   6.188   2.427   7.356  0.4573  0.4818  0.0673
  107OSM    O1110865   6.030   2.602   7.256 -0.2192 -0.2725  0.5508
  107OSM    O1210866   6.161   2.656   7.456 -0.2400 -0.0813  0.1543
  107OSM    C1S10867   6.037   2.609   7.108 -0.1138  0.1287 -0.0170
  107OSM    H1S10868   6.132   2.602   7.050 -1.4785  1.7456 -2.6813
  107OSM    H1T10869   5.993   2.707   7.080  2.1355  1.0117 -0.6751
  107OSM     NF10870   5.971   2.511   6.885  0.0675 -0.3613 -0.4622
  107OSM    HNF10871   5.908   2.572   6.838  0.2846  0.1678 -0.0658
  107OSM    C2S10872   5.944   2.499   7.025 -0.8404 -0.9474 -0.3473
  107OSM    H2S10873   5.961   2.394   7.058 -0.7158 -0.5473  0.9440
  107OSM    C3S10874   5.794   2.530   7.069 -0.2747 -0.3606  0.0530
  107OSM    H3S10875   5.776   2.638   7.055  1.9401 -0.0328 -0.6933
  107OSM     O310876   5.767   2.516   7.204  0.1687 -0.1546  0.2861
  107OSM    HO310877   5.851   2.487   7.241 -0.5062 -2.2109  0.3666
  107OSM    C4S10878   5.698   2.442   6.993  0.6780 -0.2507  0.4034
  107OSM    H4S10879   5.701   2.334   7.012  2.0060 -0.1993  0.6161
  107OSM    C5S10880   5.618   2.494   6.902  0.6390 -0.1428 -0.0929
  107OSM    H5S10881   5.614   2.602   6.881 -1.0477 -0.4607 -1.6788
  107OSM    C6S10882   5.515   2.403   6.829 -0.5212  0.4974 -0.3532
  107OSM    H6S10883   5.411   2.430   6.856 -1.4684 -2.1870 -1.0171
  107OSM    H6T10884   5.542   2.297   6.849 -1.1790  0.0474 -1.7025
  107OSM    C7S10885   5.523   2.423   6.682  0.6435  0.4308  0.1719
  107OSM    H7S10886   5.625   2.406   6.643  0.6306  1.3359 -0.2813
  107OSM    H7T10887   5.504   2.527   6.648  1.6073 -0.3274 -3.0233
  107OSM    C8S10888   5.440   2.316   6.607  0.7689 -0.0102 -0.7626
  107OSM    H8S10889   5.345   2.297   6.662  1.4885  3.9163  2.3292
  107OSM    H8T10890   5.489   2.216   6.609  1.4691  0.3198  1.1596
  107OSM    C9S10891   5.412   2.347   6.452 -0.7526  0.1620 -0.7682
  107OSM    H9S10892   5.349   2.438   6.448  0.7281  1.3399  1.3882
  107OSM    H9T10893   5.354   2.266   6.402 -1.1141 -0.0918  0.0523
  107OSM   C10S10894   5.544   2.358   6.372 -0.2580 -0.3626  0.1787
  107OSM   H10S10895   5.608   2.270   6.395  0.6896  0.4417  0.7237
  107OSM   H10T10896   5.600   2.444   6.417 -1.5289  1.3953 -1.4466
  107OSM   C11S10897   5.517   2.386   6.215 -0.5026  0.6612 -0.4216
  107OSM   H11S10898   5.471   2.486   6.202  1.1571  1.6099  0.5193
  107OSM   H11T10899   5.447   2.308   6.180 -0.3542  0.0879  0.5191
  107OSM   C12S10900   5.651   2.395   6.131 -0.9582 -0.6411 -0.4190
  107OSM   H12S10901   5.713   2.304   6.142  0.8138  0.5295 -0.3027
  107OSM   H12T10902   5.708   2.484   6.168 -1.2239  0.2653 -2.0861
  107OSM   C13S10903   5.626   2.432   5.981  0.3633 -0.0666 -0.0284
  107OSM   H13S10904   5.557   2.518   5.971  1.6549  1.0194  0.1867
  107OSM   H13T10905   5.566   2.346   5.945 -3.0306  1.6049  1.1379
  107OSM   C14S10906   5.761   2.450   5.904 -0.1541  0.3652 -0.1335
  107OSM   H14S10907   5.810   2.353   5.882 -1.2602  0.0380 -1.2578
  107OSM   H14T10908   5.822   2.519   5.967  1.4136 -1.2240  0.1721
  107OSM   C15S10909   5.742   2.498   5.758 -0.2238 -0.2188 -1.3516
  107OSM   H15S10910   5.682   2.423   5.702 -0.3113 -2.3536  1.3893
  107OSM   H15T10911   5.845   2.516   5.720  1.0874  0.0814  1.9819
  107OSM   C16S10912   5.662   2.631   5.750  0.3142  0.0403  0.8514
  107OSM   H16S10913   5.712   2.720   5.794  1.4972  0.8471 -1.8918
  107OSM   H16T10914   5.564   2.627   5.803 -1.4267  1.0123 -2.0507
  107OSM   C17S10915   5.630   2.663   5.604  0.0113 -0.1920  0.7451
  107OSM   H17S10916   5.564   2.582   5.566  0.8366 -1.4400  1.8637
  107OSM   H17T10917   5.718   2.680   5.538 -1.1426  0.1136 -0.7705
  107OSM   C18S10918   5.542   2.794   5.594 -0.6570  0.4320 -0.2935
  107OSM   H18S10919   5.458   2.790   5.667 -0.8701  0.5487 -0.5316
  107OSM   H18T10920   5.499   2.811   5.493 -0.1857  0.6582 -0.4545
  107OSM   H18U10921   5.614   2.874   5.620 -0.5042 -0.3107  1.8088
  107OSM    C1F10922   6.087   2.464   6.838 -0.4610  0.0857 -0.6518
  107OSM     OF10923   6.159   2.391   6.904 -0.2481  0.0153 -0.1414
  107OSM    C2F10924   6.131   2.510   6.705  0.2344  0.9297  0.1220
  107OSM    H2F10925   6.226   2.566   6.717  0.3543  0.5500  1.0134
  107OSM    H2G10926   6.060   2.578   6.653 -0.3841 -1.7243 -2.8375
  107OSM    C3F10927   6.152   2.392   6.612 -0.2077  0.0440  0.1410
  107OSM    H3F10928   6.054   2.343   6.594  0.3175 -0.1239 -2.5556
  107OSM    H3G10929   6.225   2.322   6.659 -0.6089 -1.1374 -0.9330
  107OSM    C4F10930   6.213   2.428   6.476 -0.2990  0.2666  0.0027
  107OSM    H4F10931   6.225   2.334   6.418 -0.9527  0.1945 -0.0195
  107OSM    H4G10932   6.316   2.469   6.486 -0.3099 -0.0958  2.1469
  107OSM    C5F10933   6.121   2.520   6.396  0.6029  0.0403 -0.1073
  107OSM    H5F10934   6.137   2.622   6.436 -0.9306 -0.1391  1.0506
  107OSM    H5G10935   6.014   2.504   6.420 -0.2043  0.8486 -2.7516
  107OSM    C6F10936   6.152   2.510   6.245 -0.0014 -0.2434 -0.2541
  107OSM    H6F10937   6.137   2.407   6.205 -0.1845  0.5899 -2.5026
  107OSM    H6G10938   6.258   2.541   6.232 -0.1435  1.3565  1.9542
  107OSM    C7F10939   6.067   2.599   6.154  0.5617 -0.8743 -0.0711
  107OSM    H7F10940   6.095   2.702   6.184  1.8808 -0.9167 -1.0636
  107OSM    H7G10941   5.964   2.575   6.187  0.7925 -0.4939  0.9571
  107OSM    C8F10942   6.084   2.566   6.003 -0.4937 -0.5938 -0.1734
  107OSM    H8F10943   5.992   2.601   5.952 -0.8325  0.5813  1.2141
  107OSM    H8G10944   6.087   2.457   5.979  1.7810 -0.6523  0.2015
  107OSM    C9F10945   6.202   2.625   5.930  0.2882 -0.1411  0.0485
  107OSM    H9F10946   6.293   2.629   5.990  0.7060  0.2207 -0.5919
  107OSM   C10F10947   6.205   2.665   5.806 -0.0098 -0.1543  0.1635
  107OSM   H10F10948   6.304   2.700   5.772  0.6264 -0.3362  1.7509
  107OSM   C11F10949   6.093   2.675   5.708 -0.1616  1.1640  0.8306
  107OSM   H11F10950   6.037   2.769   5.724  1.2157  2.2980 -0.6955
  107OSM   H11G10951   6.040   2.577   5.716 -0.6535  1.0231 -2.5433
  107OSM   C12F10952   6.154   2.669   5.560  0.2092 -0.8292  0.3853
  107OSM   H12F10953   6.201   2.570   5.541  1.5595 -0.4545  1.5790
  107OSM   H12G10954   6.235   2.745   5.554  0.3689 -0.8980  1.5677
  107OSM   C13F10955   6.046   2.706   5.450 -0.4039  0.8387  0.0368
  107OSM   H13F10956   6.102   2.748   5.364  0.8733 -1.8803 -0.5596
  107OSM   H13G10957   5.990   2.796   5.483 -2.2145 -0.8748  1.9408
  107OSM   C14F10958   5.953   2.594   5.406 -0.7223 -0.2641  0.6533
  107OSM   H14F10959   5.886   2.547   5.481 -2.3944  0.2378 -0.4519
  107OSM   H14G10960   6.012   2.511   5.364  0.5634  0.8569  0.1747
  107OSM   C15F10961   5.862   2.645   5.288  0.5088 -0.2407 -0.0234
  107OSM   H15F10962   5.939   2.667   5.211 -0.1807  0.5199 -0.5182
  107OSM   H15G10963   5.819   2.739   5.329 -0.1482 -0.8099  0.6174
  107OSM   C16F10964   5.755   2.534   5.254 -0.3763 -0.4886 -0.6941
  107OSM   H16F10965   5.710   2.503   5.351  1.0352 -0.6369 -0.0591
  107OSM   H16G10966   5.822   2.454   5.214  1.0217 -0.4085  1.3179
  107OSM   C17F10967   5.635   2.571   5.169 -0.2847 -0.2765 -0.0184
  107OSM   H17F10968   5.575   2.644   5.228  0.3836 -0.0535  0.3903
  107OSM   H17G10969   5.571   2.480   5.163 -0.5943 -0.0328 -0.4075
  107OSM   C18F10970   5.668   2.631   5.042 -0.6279 -0.3752  0.1333
  107OSM   H18F10971   5.738   2.717   5.046  0.8521 -1.3748 -2.1333
  107OSM   H18G10972   5.580   2.666   4.983  0.4989 -0.6863 -1.8397
  107OSM   H18H10973   5.730   2.568   4.975 -0.5971 -2.8627  2.3402
  108OSM      N10974   0.971   2.322   7.123  0.1717  0.1699 -0.4881
  108OSM    C1510975   0.919   2.230   7.229  0.4183  0.3525 -0.3302
  108OSM   H15A10976   0.982   2.154   7.272 -0.4465  0.4368  1.1597
  108OSM   H15B10977   0.824   2.194   7.191 -0.9915  2.7076  0.6993
  108OSM   H15C10978   0.886   2.289   7.314 -0.5501  1.1319 -1.2251
  108OSM    C1410979   1.049   2.421   7.194 -0.2547  0.4479  0.4666
  108OSM   H14A10980   1.122   2.370   7.255  1.6795  1.9819 -0.4758
  108OSM   H14B10981   0.992   2.479   7.264 -2.1909 -1.1468  0.3072
  108OSM   H14C10982   1.104   2.480   7.123 -2.2631 -0.5724 -2.1043
  108OSM    C1310983   1.059   2.238   7.038  0.1456 -0.3873  0.9600
  108OSM   H13A10984   1.100   2.288   6.951 -2.1132 -2.4411 -1.4898
  108OSM   H13B10985   0.993   2.157   7.010 -0.8108  0.9453 -0.8853
  108OSM   H13C10986   1.142   2.192   7.089  1.3722  1.0445  0.3068
  108OSM    C1210987   0.865   2.392   7.044  0.3592 -0.2318  0.2905
  108OSM   H12A10988   0.917   2.479   7.005  0.3095  0.4109  1.6107
  108OSM   H12B10989   0.779   2.424   7.101 -1.1638 -2.5345 -0.5524
  108OSM    C1110990   0.794   2.328   6.923  0.5744 -0.1840  0.8810
  108OSM   H11A10991   0.873   2.304   6.849 -0.2346 -0.5262  0.1105
  108OSM   H11B10992   0.735   2.404   6.869  1.9271 -0.5095 -1.1717
  108OSM      P10993   0.712   2.072   6.904 -0.6338  0.3663 -0.0046
  108OSM    O1310994   0.780   1.980   6.985  0.1318  0.0944 -0.9403
  108OSM    O1410995   0.575   2.035   6.867 -0.4363 -0.5015  0.0980
  108OSM    O1110996   0.799   2.094   6.771  0.5828 -0.3631  0.0033
  108OSM    O1210997   0.717   2.214   6.972  0.0208  0.0973 -0.4534
  108OSM    C1S10998   0.750   2.153   6.648 -0.0813  0.0528 -0.8365
  108OSM    H1S10999   0.795   2.253   6.630  1.5439 -0.2737  1.0922
  108OSM    H1T11000   0.639   2.164   6.653  0.0630  1.1872  0.4854
  108OSM     NF11001   0.711   2.143   6.395  0.3528  0.4970  0.5183
  108OSM    HNF11002   0.613   2.129   6.391  0.6053 -3.2334  2.8859
  108OSM    C2S11003   0.763   2.073   6.509  0.1078 -0.0671  0.1508
  108OSM    H2S11004   0.872   2.058   6.495  0.2810 -1.6409  2.5240
  108OSM    C3S11005   0.720   1.927   6.518 -0.8346  0.0161  0.1198
  108OSM    H3S11006   0.611   1.915   6.538 -0.8157 -2.0065 -0.6688
  108OSM     O311007   0.794   1.853   6.625  0.2424 -0.6933 -0.0493
  108OSM    HO311008   0.836   1.919   6.680  0.8223 -0.6098 -0.5890
  108OSM    C4S11009   0.754   1.852   6.395  0.4007 -0.0969  0.6843
  108OSM    H4S11010   0.863   1.844   6.376  0.8160  2.1550  1.8597
  108OSM    C5S11011   0.676   1.798   6.300 -0.1035 -0.5257  0.1432
  108OSM    H5S11012   0.566   1.802   6.307 -0.3029 -0.5916 -2.2603
  108OSM    C6S11013   0.728   1.725   6.184  0.0521 -0.3071 -0.1196
  108OSM    H6S11014   0.677   1.626   6.185 -0.2271 -0.1847  1.6868
  108OSM    H6T11015   0.836   1.700   6.180 -0.0828 -1.0443  0.4497
  108OSM    C7S11016   0.704   1.792   6.046 -0.1622  0.1701 -0.3736
  108OSM    H7S11017   0.751   1.893   6.048 -1.7162  0.9036  0.6191
  108OSM    H7T11018   0.594   1.806   6.052 -0.1498 -0.3678  1.6648
  108OSM    C8S11019   0.745   1.713   5.924  0.1923  0.0852  0.3343
  108OSM    H8S11020   0.705   1.609   5.926  3.1942 -1.2905 -1.9577
  108OSM    H8T11021   0.856   1.712   5.921  0.2113 -0.9797  0.8291
  108OSM    C9S11022   0.708   1.794   5.792  0.4061 -0.6550  0.2370
  108OSM    H9S11023   0.772   1.885   5.787 -0.3687  0.0446  2.1441
  108OSM    H9T11024   0.602   1.827   5.794  0.3385 -0.8616  0.1625
  108OSM   C10S11025   0.723   1.712   5.670 -0.6101 -0.3029  0.4930
  108OSM   H10S11026   0.634   1.646   5.667 -0.7115 -0.1627  0.4004
  108OSM   H10T11027   0.816   1.651   5.676  0.7269  1.1375 -2.7655
  108OSM   C11S11028   0.735   1.802   5.539  0.1155 -0.1997 -0.1767
  108OSM   H11S11029   0.827   1.861   5.556  0.0409  0.6385 -2.3905
  108OSM   H11T11030   0.649   1.871   5.528  0.6795  0.9418  2.0234
  108OSM   C12S11031   0.760   1.715   5.411  0.3699 -0.1036 -0.9032
  108OSM   H12S11032   0.661   1.666   5.397  0.4157 -1.3591  2.3293
  108OSM   H12T11033   0.843   1.642   5.426  0.5764 -0.0213 -1.6221
  108OSM   C13S11034   0.786   1.798   5.286  0.9964  0.2472 -0.3614
  108OSM   H13S11035   0.884   1.849   5.301  0.8019  0.1051  1.7390
  108OSM   H13T11036   0.716   1.881   5.260 -0.7455 -0.4289  1.8468
  108OSM   C14S11037   0.816   1.706   5.163 -0.0438  1.0155  0.2862
  108OSM   H14S11038   0.716   1.666   5.134 -0.2156  0.7985  1.1429
  108OSM   H14T11039   0.880   1.621   5.198 -1.3558  0.3831  1.2204
  108OSM   C15S11040   0.895   1.775   5.044  0.8624 -0.3400 -0.9410
  108OSM   H15S11041   0.990   1.807   5.091 -0.6474  0.6009  1.7137
  108OSM   H15T11042   0.843   1.867   5.008 -0.6226 -0.9925 -0.5645
  108OSM   C16S11043   0.922   1.688   4.926  0.7767 -0.1094  0.3530
  108OSM   H16S11044   0.823   1.647   4.899  1.2802 -1.1710  0.0507
  108OSM   H16T11045   0.991   1.605   4.953 -1.2741 -2.2876 -0.7056
  108OSM   C17S11046   0.971   1.765   4.798  0.2293  0.4532 -0.6465
  108OSM   H17S11047   0.888   1.830   4.765 -1.8620 -0.1895  2.8189
  108OSM   H17T11048   0.980   1.694   4.713 -0.9242  1.5031 -1.6944
  108OSM   C18S11049   1.093   1.843   4.818 -0.4470  0.7245  0.0768
  108OSM   H18S11050   1.129   1.882   4.721  0.0231 -0.5238 -0.2669
  108OSM   H18T11051   1.170   1.778   4.865 -1.4239 -0.2840  0.3366
  108OSM   H18U11052   1.076   1.933   4.881 -2.4315 -0.0079  0.6886
  108OSM    C1F11053   0.770   2.261   6.366 -1.1268 -0.1600  0.4285
  108OSM     OF11054   0.884   2.288   6.402  0.2422 -0.7869  0.6062
  108OSM    C2F11055   0.692   2.366   6.291  0.3131 -0.0465  0.3789
  108OSM    H2F11056   0.665   2.456   6.351  0.0396 -0.3227  0.6754
  108OSM    H2G11057   0.596   2.315   6.267 -0.0071  1.7083 -2.5250
  108OSM    C3F11058   0.755   2.418   6.158 -0.4985 -0.8466  0.3376
  108OSM    H3F11059   0.857   2.448   6.192  0.7897 -1.1203 -2.9486
  108OSM    H3G11060   0.698   2.506   6.122  1.5477 -0.1545 -1.3623
  108OSM    C4F11061   0.769   2.304   6.060  0.4115 -0.4321  0.7018
  108OSM    H4F11062   0.670   2.257   6.047  0.3384  0.3682 -2.2481
  108OSM    H4G11063   0.841   2.227   6.095 -0.7673 -0.9125  2.1700
  108OSM    C5F11064   0.821   2.352   5.930  0.4507 -0.2186  0.5852
  108OSM    H5F11065   0.932   2.347   5.938  0.5419 -1.0156 -0.8879
  108OSM    H5G11066   0.799   2.459   5.913  0.2310  0.0788  2.5087
  108OSM    C6F11067   0.768   2.273   5.815 -0.1143 -0.2457 -0.3792
  108OSM    H6F11068   0.659   2.293   5.805 -0.3566 -1.3288 -0.1207
  108OSM    H6G11069   0.780   2.164   5.833  1.3191 -0.0249  0.1090
  108OSM    C7F11070   0.837   2.306   5.681 -0.1846 -0.3571 -0.4249
  108OSM    H7F11071   0.947   2.312   5.689 -0.0526 -0.5425 -1.9561
  108OSM    H7G11072   0.798   2.408   5.659 -0.8656 -0.5646 -0.2234
  108OSM    C8F11073   0.797   2.212   5.564 -0.4642 -0.4906 -0.0841
  108OSM    H8F11074   0.686   2.206   5.564 -0.4273 -1.2200  0.0923
  108OSM    H8G11075   0.826   2.109   5.594 -1.7338 -0.6993  0.4766
  108OSM    C9F11076   0.864   2.264   5.443  0.2900 -1.2521  0.1478
  108OSM    H9F11077   0.965   2.307   5.457  0.7658 -1.9045 -1.1268
  108OSM   C10F11078   0.821   2.270   5.317 -0.1122  0.1931 -0.2990
  108OSM   H10F11079   0.884   2.307   5.235 -1.4268 -0.8929 -1.8800
  108OSM   C11F11080   0.694   2.205   5.260  0.5066 -0.4026 -0.2428
  108OSM   H11F11081   0.613   2.281   5.266  0.3809 -0.6096  1.1542
  108OSM   H11G11082   0.660   2.135   5.340  0.2849  1.6587  1.5663
  108OSM   C12F11083   0.710   2.147   5.122 -0.5815 -0.2128 -0.2024
  108OSM   H12F11084   0.782   2.063   5.112 -1.4996 -0.8723 -1.6017
  108OSM   H12G11085   0.738   2.230   5.053  0.6502 -0.6399 -0.2464
  108OSM   C13F11086   0.571   2.105   5.071  0.7108 -0.0237  0.0601
  108OSM   H13F11087   0.499   2.189   5.085  1.6502  0.9448 -0.7654
  108OSM   H13G11088   0.541   2.022   5.138  0.7426 -0.0483  0.0436
  108OSM   C14F11089   0.560   2.060   4.925 -0.4215  0.7752 -0.1706
  108OSM   H14F11090   0.642   1.989   4.901 -0.8179  0.8294 -1.8185
  108OSM   H14G11091   0.578   2.154   4.869 -1.0999  2.3667  2.1333
  108OSM   C15F11092   0.419   2.015   4.866 -0.2927 -0.3874  0.9403
  108OSM   H15F11093   0.428   2.018   4.756  2.6979 -1.8400  1.0323
  108OSM   H15G11094   0.343   2.094   4.880 -0.2266 -0.2646  0.5937
  108OSM   C16F11095   0.365   1.886   4.917  0.0773  0.9473 -0.1855
  108OSM   H16F11096   0.262   1.886   4.875 -0.1565 -0.6154  0.3349
  108OSM   H16G11097   0.346   1.894   5.026 -2.5593  0.7472 -0.5578
  108OSM   C17F11098   0.437   1.760   4.880 -0.6072  0.3284 -0.5188
  108OSM   H17F11099   0.539   1.761   4.925 -0.2369  2.6724 -1.2362
  108OSM   H17G11100   0.454   1.758   4.770 -1.0884 -0.4251 -0.5847
  108OSM   C18F11101   0.360   1.629   4.904 -0.0416 -0.5331  0.1569
  108OSM   H18F11102   0.324   1.621   5.009 -1.4807 -1.2104 -0.3642
  108OSM   H18G11103   0.415   1.535   4.882 -2.0757 -1.8791  0.5283
  108OSM   H18H11104   0.267   1.627   4.843 -1.9918  0.8466  2.8169
  109OSM      N11105   6.271   3.449   6.921 -0.4652 -0.1068 -0.0868
  109OSM    C1511106   6.147   3.462   7.008 -0.2835  0.0186  0.0437
  109OSM   H15A11107   6.145   3.544   7.079 -3.5081  0.2340 -0.1182
  109OSM   H15B11108   6.134   3.367   7.058 -0.0307 -0.1269 -0.1689
  109OSM   H15C11109   6.068   3.485   6.938 -1.4324  0.8767  1.5578
  109OSM    C1411110   6.292   3.575   6.839  0.2211 -0.4628  0.1378
  109OSM   H14A11111   6.315   3.658   6.904 -4.0567 -0.6654  2.2471
  109OSM   H14B11112   6.203   3.608   6.787  2.4127  4.4620 -1.0692
  109OSM   H14C11113   6.375   3.565   6.770 -0.5093  0.4046 -0.8991
  109OSM    C1311114   6.393   3.427   7.007 -0.6107 -0.6298 -0.3087
  109OSM   H13A11115   6.371   3.337   7.064 -1.5477  0.2473  0.7721
  109OSM   H13B11116   6.414   3.513   7.068  0.5850 -2.1856  1.5940
  109OSM   H13C11117   6.485   3.416   6.952  0.2028  2.0872  0.3664
  109OSM    C1211118   6.273   3.330   6.820 -0.7140  0.9728 -0.0272
  109OSM   H12A11119   6.360   3.332   6.756 -0.1658  0.9800  0.7009
  109OSM   H12B11120   6.189   3.347   6.754 -0.7722  0.0496 -0.2092
  109OSM    C1111121   6.246   3.184   6.872 -0.4310 -0.1809 -0.2786
  109OSM   H11A11122   6.310   3.158   6.959 -3.3603 -1.8443  1.5682
  109OSM   H11B11123   6.269   3.113   6.790 -0.0240  0.6763 -0.9278
  109OSM      P11124   6.067   3.073   7.019  0.1323  0.4929  0.0976
  109OSM    O1311125   6.149   2.957   6.997 -0.2032 -0.2022 -0.3514
  109OSM    O1411126   6.070   3.136   7.154  0.2883  0.7995  0.8874
  109OSM    O1111127   5.921   3.026   6.982  0.1434  0.2832  0.4413
  109OSM    O1211128   6.106   3.179   6.909  0.0812  0.1637  0.4619
  109OSM    C1S11129   5.840   3.109   6.890  0.3459 -0.0829  0.3917
  109OSM    H1S11130   5.868   3.216   6.882  1.9929 -0.4794  0.6003
  109OSM    H1T11131   5.735   3.103   6.928  0.0431 -1.2723 -0.5729
  109OSM     NF11132   5.758   3.133   6.648  0.2756  0.0950 -0.1470
  109OSM    HNF11133   5.662   3.104   6.641 -0.2667  1.8118 -0.3008
  109OSM    C2S11134   5.834   3.046   6.744  0.2384  0.2201  0.3127
  109OSM    H2S11135   5.938   3.043   6.707  0.1664  1.8053 -0.1192
  109OSM    C3S11136   5.784   2.905   6.760 -0.0397 -0.1012 -0.7808
  109OSM    H3S11137   5.691   2.907   6.821 -1.1616 -1.5940 -2.3548
  109OSM     O311138   5.882   2.822   6.817  0.3478  0.4511  0.4071
  109OSM    HO311139   5.922   2.883   6.880 -2.3970  2.3022  0.5383
  109OSM    C4S11140   5.742   2.846   6.631  0.4346  0.0035  0.4035
  109OSM    H4S11141   5.633   2.850   6.619  0.4676 -0.2355 -0.0094
  109OSM    C5S11142   5.824   2.773   6.547  0.1597 -0.4213 -0.4156
  109OSM    H5S11143   5.925   2.748   6.581 -0.6042  0.9961  3.2692
  109OSM    C6S11144   5.789   2.700   6.424  0.5772  0.2186  1.5992
  109OSM    H6S11145   5.808   2.593   6.447  0.8847 -0.3181 -0.8516
  109OSM    H6T11146   5.852   2.713   6.334 -2.0247  0.1279 -0.3596
  109OSM    C7S11147   5.645   2.741   6.372 -0.7751  0.1159 -0.6091
  109OSM    H7S11148   5.569   2.711   6.448 -0.0783 -0.8362 -0.2587
  109OSM    H7T11149   5.629   2.672   6.287 -1.6532  0.6127 -0.8572
  109OSM    C8S11150   5.638   2.888   6.339  0.7042 -0.0137  0.1693
  109OSM    H8S11151   5.647   2.943   6.435 -0.0778 -1.1899  0.9449
  109OSM    H8T11152   5.537   2.916   6.302  0.1402 -2.6085 -0.5045
  109OSM    C9S11153   5.732   2.930   6.228  0.3414 -0.0089  0.2668
  109OSM    H9S11154   5.841   2.928   6.248  0.7667  1.7376 -1.4798
  109OSM    H9T11155   5.722   3.039   6.206 -2.3499 -0.2999 -0.2646
  109OSM   C10S11156   5.699   2.848   6.100 -0.2446 -0.1409 -1.0838
  109OSM   H10S11157   5.700   2.738   6.118  3.3031  0.1075  1.2730
  109OSM   H10T11158   5.784   2.872   6.032  0.5357  1.5267  0.3885
  109OSM   C11S11159   5.572   2.880   6.027  0.6358  0.3631 -0.7998
  109OSM   H11S11160   5.480   2.843   6.077  1.6740  0.5615  1.3679
  109OSM   H11T11161   5.566   2.826   5.930  1.5947  0.3831 -0.8794
  109OSM   C12S11162   5.554   3.030   6.004 -0.0399  0.0607 -0.1042
  109OSM   H12S11163   5.645   3.064   5.949 -2.5188  1.0394 -4.0034
  109OSM   H12T11164   5.533   3.090   6.094 -1.9465  1.6711 -1.5239
  109OSM   C13S11165   5.427   3.054   5.923  0.2337  0.2454  0.2193
  109OSM   H13S11166   5.343   2.998   5.969  0.0954  0.3114  0.0464
  109OSM   H13T11167   5.432   3.000   5.826 -2.5611  2.4488 -1.2933
  109OSM   C14S11168   5.401   3.197   5.903  0.9886 -0.7100 -0.3921
  109OSM   H14S11169   5.493   3.239   5.860  0.8917 -0.6544 -0.5457
  109OSM   H14T11170   5.385   3.243   6.003  3.0718  2.3779 -1.3242
  109OSM   C15S11171   5.273   3.228   5.816 -0.0432 -0.4249 -0.6021
  109OSM   H15S11172   5.240   3.334   5.820  0.2312 -0.3254 -0.9185
  109OSM   H15T11173   5.191   3.159   5.846  1.5093 -2.0787  0.0754
  109OSM   C16S11174   5.305   3.193   5.665 -0.3411  0.1399 -0.4413
  109OSM   H16S11175   5.222   3.219   5.595  0.5416  1.8573 -0.9155
  109OSM   H16T11176   5.312   3.084   5.649 -3.5867 -0.4032  0.9679
  109OSM   C17S11177   5.425   3.281   5.603 -0.4522  0.0599 -0.0076
  109OSM   H17S11178   5.522   3.246   5.644 -0.1149  2.4133  1.3395
  109OSM   H17T11179   5.419   3.388   5.633  1.1263  0.0982  0.2688
  109OSM   C18S11180   5.426   3.265   5.456  0.5834 -0.4960  0.3434
  109OSM   H18S11181   5.525   3.220   5.430  0.6473  0.1120 -0.5384
  109OSM   H18T11182   5.416   3.365   5.409 -0.5697 -0.6690  0.2073
  109OSM   H18U11183   5.348   3.196   5.417  0.8413 -1.8044  2.0219
  109OSM    C1F11184   5.797   3.243   6.597 -0.5646 -0.4820  1.0268
  109OSM     OF11185   5.904   3.288   6.628  0.2104 -0.2514 -0.7765
  109OSM    C2F11186   5.709   3.300   6.490 -0.1857 -0.0833  0.1872
  109OSM    H2F11187   5.621   3.347   6.540 -0.0058  0.1903  0.2514
  109OSM    H2G11188   5.664   3.215   6.436 -0.4605  0.9591 -1.2975
  109OSM    C3F11189   5.784   3.404   6.405  0.0189 -0.3387  0.4349
  109OSM    H3F11190   5.868   3.352   6.354 -1.8539 -2.8071 -0.3176
  109OSM    H3G11191   5.831   3.480   6.472 -0.0350 -1.2336  1.5033
  109OSM    C4F11192   5.692   3.478   6.305  0.1733 -0.2336  0.1675
  109OSM    H4F11193   5.605   3.524   6.358  0.2663  3.4752 -2.5243
  109OSM    H4G11194   5.663   3.401   6.230 -1.3476  1.1568 -0.7389
  109OSM    C5F11195   5.752   3.599   6.232 -1.1915  0.2463 -0.8640
  109OSM    H5F11196   5.825   3.655   6.295 -1.7231 -0.1313  0.1121
  109OSM    H5G11197   5.675   3.670   6.196 -0.4955  2.3018  1.4531
  109OSM    C6F11198   5.835   3.556   6.107  0.2876  0.4777 -0.6905
  109OSM    H6F11199   5.754   3.523   6.039  0.2093  1.3627 -1.0412
  109OSM    H6G11200   5.898   3.466   6.125  0.4484  0.7944  0.4143
  109OSM    C7F11201   5.929   3.670   6.069  0.6571 -0.1038 -0.4961
  109OSM    H7F11202   5.987   3.695   6.160 -1.2375  0.9984  0.4576
  109OSM    H7G11203   5.874   3.765   6.050 -0.8693 -0.7823  0.3223
  109OSM    C8F11204   6.026   3.639   5.951 -0.5483  0.0771 -0.5957
  109OSM    H8F11205   6.088   3.547   5.959 -0.5141  0.1550  0.1802
  109OSM    H8G11206   6.094   3.723   5.926  2.0062 -1.4098  0.9086
  109OSM    C9F11207   5.946   3.610   5.828  0.6239 -0.4118 -0.3719
  109OSM    H9F11208   5.837   3.592   5.835  0.7395 -0.6702  1.0880
  109OSM   C10F11209   5.995   3.621   5.702  0.2439  0.4452 -0.1482
  109OSM   H10F11210   5.940   3.583   5.615  0.1924 -1.8219  0.7880
  109OSM   C11F11211   6.139   3.660   5.668 -0.1003 -0.0431 -0.2945
  109OSM   H11F11212   6.191   3.565   5.645 -0.0223  0.2434 -1.3899
  109OSM   H11G11213   6.182   3.727   5.746 -0.7666  1.0864 -0.8614
  109OSM   C12F11214   6.162   3.746   5.541 -0.0458 -0.2355  0.2102
  109OSM   H12F11215   6.256   3.805   5.541 -1.0011  1.5899 -3.4408
  109OSM   H12G11216   6.084   3.824   5.532  2.6948  2.7478  0.4362
  109OSM   C13F11217   6.148   3.664   5.411 -0.2032 -0.0917 -0.0761
  109OSM   H13F11218   6.069   3.587   5.421 -2.0412  1.8798  1.7461
  109OSM   H13G11219   6.245   3.614   5.390 -0.4411 -1.2229  1.3618
  109OSM   C14F11220   6.119   3.761   5.295  0.3151  0.7775  0.4099
  109OSM   H14F11221   6.191   3.842   5.318  0.8168  0.2479  0.7274
  109OSM   H14G11222   6.015   3.796   5.313 -0.6368 -1.4742 -0.3293
  109OSM   C15F11223   6.142   3.699   5.158 -1.1565  0.8316 -0.2695
  109OSM   H15F11224   6.251   3.677   5.152 -1.0632  0.6199  1.5819
  109OSM   H15G11225   6.133   3.783   5.085  1.4187  2.2241  0.8663
  109OSM   C16F11226   6.041   3.588   5.112 -0.0735 -0.3176 -0.2642
  109OSM   H16F11227   5.936   3.617   5.133  0.1592  1.5693 -1.4580
  109OSM   H16G11228   6.062   3.506   5.185 -1.2754 -0.3056  0.1246
  109OSM   C17F11229   6.063   3.540   4.963  0.3910  0.0418 -0.3613
  109OSM   H17F11230   6.041   3.628   4.899  0.4128 -1.0500 -1.9482
  109OSM   H17G11231   5.989   3.461   4.937 -0.1587  0.1138  0.9478
  109OSM   C18F11232   6.208   3.500   4.931  0.3336 -0.5091  0.2100
  109OSM   H18F11233   6.288   3.562   4.977  0.3188 -0.3050 -0.0391
  109OSM   H18G11234   6.219   3.484   4.822 -2.5617 -1.7633  0.0054
  109OSM   H18H11235   6.216   3.401   4.980 -0.6968  0.4666  2.4621
  110OSM      N11236   6.273   0.882   6.673  0.0873 -0.4523 -0.4003
  110OSM    C1511237   6.268   0.969   6.796  0.2389 -0.8842 -0.3259
  110OSM   H15A11238   6.363   0.974   6.847 -0.3719  1.3013  0.7141
  110OSM   H15B11239   6.192   0.934   6.864 -0.2811 -0.2646 -0.5796
  110OSM   H15C11240   6.236   1.068   6.768 -0.8820 -1.1542 -0.0756
  110OSM    C1411241   6.356   0.960   6.580 -0.5230  0.4152 -0.3407
  110OSM   H14A11242   6.382   0.906   6.490 -0.1036  0.1878 -0.0880
  110OSM   H14B11243   6.449   0.989   6.627  0.0644 -3.9707  1.6745
  110OSM   H14C11244   6.308   1.049   6.542 -2.1503 -0.2897 -0.0044
  110OSM    C1311245   6.332   0.748   6.707  0.0613 -0.1692 -0.2407
  110OSM   H13A11246   6.366   0.693   6.620 -1.3719 -0.9612 -0.3270
  110OSM   H13B11247   6.271   0.681   6.765  0.6797 -1.2445 -0.8010
  110OSM   H13C11248   6.409   0.771   6.779 -1.4366 -0.5627  1.5577
  110OSM    C1211249   6.132   0.867   6.620  0.4016  0.1151  0.6779
  110OSM   H12A11250   6.093   0.959   6.580  0.7476 -0.8890 -2.2369
  110OSM   H12B11251   6.066   0.830   6.697  0.9990 -0.9285  0.7089
  110OSM    C1111252   6.122   0.764   6.502 -1.2396 -0.5001  0.0045
  110OSM   H11A11253   6.204   0.763   6.426 -1.1188  0.9871  0.0778
  110OSM   H11B11254   6.034   0.786   6.438 -2.1334 -0.6750  1.1375
  110OSM      P11255   5.970   0.592   6.600  0.0826 -0.0238  0.0714
  110OSM    O1311256   5.983   0.447   6.628 -0.0000 -0.1570 -0.1742
  110OSM    O1411257   5.924   0.685   6.706  0.4615  0.3478 -0.4741
  110OSM    O1111258   5.868   0.616   6.484  0.1559  0.6826 -0.0726
  110OSM    O1211259   6.113   0.631   6.552 -0.3902 -0.6051  0.1556
  110OSM    C1S11260   5.905   0.537   6.371 -0.3506 -0.2453  0.1290
  110OSM    H1S11261   5.889   0.429   6.393  1.7753 -0.2990  1.6459
  110OSM    H1T11262   6.008   0.551   6.334  0.4859  1.3896  2.8429
  110OSM     NF11263   5.862   0.462   6.144 -0.4508  0.0953  0.3135
  110OSM    HNF11264   5.922   0.491   6.070 -0.5630 -0.3644  0.0400
  110OSM    C2S11265   5.823   0.561   6.238 -0.1883  0.4494 -0.3824
  110OSM    H2S11266   5.716   0.546   6.267  0.2755 -1.1229  0.6377
  110OSM    C3S11267   5.834   0.712   6.198  0.1284  0.2034  0.5856
  110OSM    H3S11268   5.936   0.734   6.158  0.2033 -1.2649 -0.0790
  110OSM     O311269   5.819   0.811   6.299 -0.4869 -0.0850  0.2585
  110OSM    HO311270   5.805   0.757   6.377 -2.8439 -0.8758 -0.6207
  110OSM    C4S11271   5.737   0.735   6.080  0.6324 -0.8909 -0.1220
  110OSM    H4S11272   5.787   0.713   5.984 -0.2940  0.5006 -0.9512
  110OSM    C5S11273   5.614   0.775   6.097 -0.3712  0.0170  0.1023
  110OSM    H5S11274   5.572   0.792   6.198 -2.2935  1.0461 -0.8183
  110OSM    C6S11275   5.522   0.791   5.980 -0.0167 -0.4099 -0.2548
  110OSM    H6S11276   5.430   0.734   6.005 -0.4495 -0.4852 -1.9322
  110OSM    H6T11277   5.565   0.747   5.888  3.4954  0.1161  0.9650
  110OSM    C7S11278   5.477   0.935   5.936  0.1532 -0.5085 -0.7058
  110OSM    H7S11279   5.565   0.966   5.876  0.6877 -1.4407 -0.4338
  110OSM    H7T11280   5.460   0.989   6.032 -1.7798 -0.8084 -0.8463
  110OSM    C8S11281   5.356   0.931   5.844 -0.2391  0.3847  0.3500
  110OSM    H8S11282   5.325   1.031   5.808  0.1867 -0.8084 -4.0373
  110OSM    H8T11283   5.266   0.889   5.894 -0.3019 -1.2418 -1.0029
  110OSM    C9S11284   5.375   0.845   5.720 -0.1706  0.3509  0.1306
  110OSM    H9S11285   5.376   0.739   5.753 -0.4060 -0.4019 -2.1471
  110OSM    H9T11286   5.475   0.866   5.675 -0.8810  0.9786 -1.2218
  110OSM   C10S11287   5.277   0.860   5.601 -0.3734  0.6744 -0.3994
  110OSM   H10S11288   5.319   0.808   5.512  2.9237 -1.1206  1.9616
  110OSM   H10T11289   5.273   0.970   5.587 -1.0206  1.2453  3.1397
  110OSM   C11S11290   5.135   0.816   5.632  0.0382 -0.4552  0.1851
  110OSM   H11S11291   5.111   0.855   5.733 -0.6819 -1.0499  0.2487
  110OSM   H11T11292   5.144   0.706   5.639 -1.4726 -0.6545 -0.5316
  110OSM   C12S11293   5.027   0.858   5.533 -0.4514  0.3506  0.0793
  110OSM   H12S11294   5.057   0.826   5.431 -0.9978  0.6684 -0.1876
  110OSM   H12T11295   5.019   0.969   5.538  2.2769  0.6051  0.3823
  110OSM   C13S11296   4.891   0.804   5.563  0.6985  0.4348  0.4652
  110OSM   H13S11297   4.879   0.826   5.671  0.6344 -0.7248  0.7037
  110OSM   H13T11298   4.880   0.694   5.558 -0.7342  0.5602  0.4590
  110OSM   C14S11299   4.781   0.875   5.470 -0.0637  0.3494 -0.1467
  110OSM   H14S11300   4.809   0.976   5.431  0.2714 -0.5417 -2.3974
  110OSM   H14T11301   4.688   0.903   5.523 -0.6868  0.3136 -1.2015
  110OSM   C15S11302   4.743   0.799   5.346 -0.4490 -0.6258  0.4044
  110OSM   H15S11303   4.685   0.706   5.365 -1.2382  0.2758  2.8468
  110OSM   H15T11304   4.838   0.762   5.302 -1.5813  0.1306 -3.0350
  110OSM   C16S11305   4.674   0.892   5.244 -0.4451  0.2476  0.5230
  110OSM   H16S11306   4.750   0.963   5.205  0.1088 -0.0763  1.0051
  110OSM   H16T11307   4.600   0.958   5.296 -0.1953 -0.3202  1.6193
  110OSM   C17S11308   4.593   0.823   5.138  0.2306 -0.2408 -0.0973
  110OSM   H17S11309   4.502   0.776   5.181 -0.1523  0.8520  0.3136
  110OSM   H17T11310   4.663   0.745   5.100  1.5322  1.6155 -1.7552
  110OSM   C18S11311   4.541   0.906   5.017 -0.2591 -0.9003  0.0725
  110OSM   H18S11312   4.620   0.953   4.955 -0.6011 -1.1977 -0.5958
  110OSM   H18T11313   4.473   0.986   5.055 -1.0889 -0.9802 -1.2143
  110OSM   H18U11314   4.483   0.844   4.946  1.3507 -1.4568 -0.8156
  110OSM    C1F11315   5.829   0.337   6.154 -0.2506  0.2423 -0.1213
  110OSM     OF11316   5.740   0.311   6.231 -0.3478 -1.0745 -0.2666
  110OSM    C2F11317   5.905   0.226   6.084 -0.1787 -0.8784  0.3164
  110OSM    H2F11318   5.929   0.148   6.159 -4.0528 -0.7015  1.9633
  110OSM    H2G11319   5.991   0.275   6.033  0.3903  0.0105  2.0695
  110OSM    C3F11320   5.813   0.156   5.977  0.0127 -0.3259 -0.0366
  110OSM    H3F11321   5.734   0.085   6.009  1.5074 -2.1858 -0.3320
  110OSM    H3G11322   5.880   0.093   5.914  0.1913 -0.9294  0.7484
  110OSM    C4F11323   5.746   0.252   5.875  0.0186 -0.1550 -0.5002
  110OSM    H4F11324   5.811   0.338   5.847  0.8011 -1.5625 -3.3569
  110OSM    H4G11325   5.661   0.297   5.930  1.3127 -0.3336  1.7790
  110OSM    C5F11326   5.683   0.176   5.759 -0.6794  0.8047  0.3847
  110OSM    H5F11327   5.608   0.235   5.702  0.1579  0.5511 -1.0430
  110OSM    H5G11328   5.630   0.084   5.793  1.5728 -0.5866  0.3520
  110OSM    C6F11329   5.771   0.136   5.645 -0.3314 -0.3745  1.1429
  110OSM    H6F11330   5.865   0.092   5.683  0.4467 -2.4059 -2.6774
  110OSM    H6G11331   5.807   0.230   5.598 -1.4188  0.3240  1.6646
  110OSM    C7F11332   5.717   0.039   5.530  0.4919 -0.5619 -0.5208
  110OSM    H7F11333   5.613   0.026   5.567  0.4221  1.1013 -0.0475
  110OSM    H7G11334   5.769  -0.059   5.545  1.2564 -0.2264 -0.9191
  110OSM    C8F11335   5.708   0.087   5.387 -0.6150  0.0509 -0.0002
  110OSM    H8F11336   5.671   0.015   5.311  1.3201  0.8936 -1.8825
  110OSM    H8G11337   5.810   0.119   5.356 -0.8628 -0.7902 -1.8493
  110OSM    C9F11338   5.608   0.197   5.382  0.1666 -0.7743  0.1732
  110OSM    H9F11339   5.526   0.190   5.455  1.6416  1.1605  2.1265
  110OSM   C10F11340   5.612   0.303   5.292 -0.3054  0.1708 -0.2864
  110OSM   H10F11341   5.524   0.368   5.290 -2.6477 -2.7245  1.3754
  110OSM   C11F11342   5.706   0.325   5.183 -1.0574 -0.6637  0.8344
  110OSM   H11F11343   5.769   0.237   5.158 -0.2623  0.8106 -3.0596
  110OSM   H11G11344   5.777   0.408   5.205 -0.1008 -0.0117 -3.7028
  110OSM   C12F11345   5.626   0.372   5.061  0.1628 -0.1982  0.9760
  110OSM   H12F11346   5.536   0.311   5.039  0.8984 -0.2286 -2.6218
  110OSM   H12G11347   5.697   0.374   4.976  0.4865  0.1568  1.2521
  110OSM   C13F11348   5.571   0.516   5.084  0.8120  0.1249  0.4943
  110OSM   H13F11349   5.632   0.576   5.155  1.8080 -0.2393 -0.0346
  110OSM   H13G11350   5.471   0.508   5.130  0.5161  0.1841 -0.1277
  110OSM   C14F11351   5.548   0.604   4.955  0.7683 -0.0265 -0.7969
  110OSM   H14F11352   5.644   0.632   4.907  1.2800 -1.2749 -0.5531
  110OSM   H14G11353   5.507   0.703   4.982  0.4785  0.0666 -1.5508
  110OSM   C15F11354   5.473   0.523   4.847 -0.2253  0.7023 -0.4431
  110OSM   H15F11355   5.371   0.487   4.873 -0.0008  0.0882 -0.3905
  110OSM   H15G11356   5.522   0.429   4.815  0.1452  0.3088  1.2057
  110OSM   C16F11357   5.459   0.607   4.718  0.3238 -0.3037 -0.3514
  110OSM   H16F11358   5.548   0.595   4.653 -0.4445 -0.5994 -1.3684
  110OSM   H16G11359   5.442   0.712   4.749 -0.2681 -0.6169  0.4248
  110OSM   C17F11360   5.342   0.568   4.624  0.3319 -0.6292  0.2564
  110OSM   H17F11361   5.343   0.625   4.529  0.0480 -2.7668 -1.1069
  110OSM   H17G11362   5.247   0.599   4.674  0.0324 -1.3824  0.1670
  110OSM   C18F11363   5.325   0.424   4.590 -0.4088 -0.6462 -0.3020
  110OSM   H18F11364   5.413   0.389   4.532 -0.2392 -0.5847 -0.0847
  110OSM   H18G11365   5.235   0.398   4.530 -1.9350  2.7788  0.2670
  110OSM   H18H11366   5.316   0.360   4.681  1.0703 -0.5794 -0.0814
  111OSM      N11367   1.275   6.394   6.991  0.7581 -0.5084  0.5214
  111OSM    C1511368   1.170   6.314   7.072 -0.3744 -0.7976 -0.1206
  111OSM   H15A11369   1.124   6.376   7.147  0.5519  0.5802 -0.6514
  111OSM   H15B11370   1.219   6.229   7.118  0.3948  0.2640  1.0714
  111OSM   H15C11371   1.090   6.283   7.006  0.5905 -0.8045 -1.3117
  111OSM    C1411372   1.373   6.451   7.086 -0.1077  0.2215 -0.3346
  111OSM   H14A11373   1.447   6.376   7.114  0.0590  0.3513 -0.4220
  111OSM   H14B11374   1.328   6.498   7.172 -0.7014  1.4382 -1.2755
  111OSM   H14C11375   1.434   6.518   7.027  2.0253 -3.6199 -3.0220
  111OSM    C1311376   1.337   6.296   6.893 -0.4704  0.5731  0.3044
  111OSM   H13A11377   1.381   6.217   6.953  1.3521  0.4770 -1.0802
  111OSM   H13B11378   1.422   6.338   6.841  0.1601  0.7967  1.4990
  111OSM   H13C11379   1.268   6.253   6.822  0.6199  1.2114 -1.1925
  111OSM    C1211380   1.201   6.510   6.915  0.4997 -0.1367 -0.1967
  111OSM   H12A11381   1.118   6.467   6.862 -0.4195  0.3363  0.8141
  111OSM   H12B11382   1.265   6.544   6.835  0.1320  4.0914  1.0381
  111OSM    C1111383   1.172   6.642   7.001  0.4173  0.1018  0.1078
  111OSM   H11A11384   1.127   6.590   7.089 -1.9882 -0.8122 -1.5500
  111OSM   H11B11385   1.096   6.707   6.954  0.0317  0.9883  1.8539
  111OSM      P11386   1.362   6.806   6.923 -0.0144  0.4874 -0.2082
  111OSM    O1311387   1.269   6.894   6.855 -0.2758  0.4181  0.8381
  111OSM    O1411388   1.475   6.866   6.988 -0.4786  0.4022 -0.2532
  111OSM    O1111389   1.414   6.699   6.818 -0.6529  0.5585  0.0905
  111OSM    O1211390   1.289   6.716   7.029  0.3352  0.4011 -0.0395
  111OSM    C1S11391   1.428   6.720   6.680 -0.0847  0.3363 -0.2422
  111OSM    H1S11392   1.389   6.820   6.653 -1.5751  0.0787  0.8347
  111OSM    H1T11393   1.377   6.645   6.615  1.0539  0.6177 -1.5054
  111OSM     NF11394   1.598   6.784   6.521 -0.2372  0.8683  0.7092
  111OSM    HNF11395   1.594   6.736   6.433 -2.7875 -0.7660  1.6271
  111OSM    C2S11396   1.573   6.708   6.642  0.4536  0.3142 -0.2240
  111OSM    H2S11397   1.637   6.758   6.718 -0.0134 -0.4046  0.6553
  111OSM    C3S11398   1.610   6.552   6.640  0.1074  0.2775  0.1906
  111OSM    H3S11399   1.536   6.503   6.573 -1.7594  1.2873  1.4297
  111OSM     O311400   1.589   6.479   6.763 -0.7164 -0.2266  0.1673
  111OSM    HO311401   1.531   6.535   6.814 -1.5682 -1.2875  0.3985
  111OSM    C4S11402   1.757   6.545   6.596 -1.0680  0.0098  0.7899
  111OSM    H4S11403   1.768   6.549   6.487 -0.9835 -1.5774  0.7222
  111OSM    C5S11404   1.871   6.548   6.667  0.1510 -0.0698 -0.5692
  111OSM    H5S11405   1.871   6.536   6.776 -1.1432  0.6138 -0.4782
  111OSM    C6S11406   1.999   6.545   6.590 -0.4168 -0.2294  0.0444
  111OSM    H6S11407   2.054   6.451   6.611 -1.6696 -1.9582 -3.5277
  111OSM    H6T11408   2.068   6.621   6.632 -0.6044 -0.6158  1.0941
  111OSM    C7S11409   2.004   6.553   6.432 -0.3441 -0.3078 -0.2543
  111OSM    H7S11410   1.957   6.647   6.396 -2.8113 -1.1968  0.4310
  111OSM    H7T11411   1.935   6.473   6.398 -1.6764  0.8212 -0.3397
  111OSM    C8S11412   2.147   6.550   6.372  0.0461  0.6165 -0.0708
  111OSM    H8S11413   2.215   6.618   6.429  1.0244  0.9789 -1.6095
  111OSM    H8T11414   2.135   6.594   6.271 -0.3335  1.6912  0.4256
  111OSM    C9S11415   2.192   6.405   6.365 -0.4128 -0.6970  0.0007
  111OSM    H9S11416   2.114   6.349   6.309 -1.4022 -0.0850  0.7396
  111OSM    H9T11417   2.206   6.361   6.466  1.9820 -0.3276 -0.1016
  111OSM   C10S11418   2.319   6.387   6.273  0.6140 -0.2573  0.4366
  111OSM   H10S11419   2.329   6.281   6.239  0.3730 -0.0205 -0.4043
  111OSM   H10T11420   2.405   6.409   6.339  1.4683  0.6314 -0.9144
  111OSM   C11S11421   2.320   6.487   6.154  0.1194 -0.3482 -0.6031
  111OSM   H11S11422   2.353   6.584   6.198  0.2950 -0.9810  0.7062
  111OSM   H11T11423   2.225   6.507   6.100 -0.4959  1.7628  1.0626
  111OSM   C12S11424   2.422   6.449   6.042  0.3494  0.2901 -1.2047
  111OSM   H12S11425   2.397   6.345   6.010 -0.3218 -0.5453  1.6621
  111OSM   H12T11426   2.520   6.432   6.093 -0.1714 -0.1116 -0.3073
  111OSM   C13S11427   2.431   6.553   5.932  0.2563  0.1636 -0.6149
  111OSM   H13S11428   2.442   6.649   5.986 -0.9309 -1.3153  2.5032
  111OSM   H13T11429   2.334   6.571   5.881  0.5578  2.1294 -0.5628
  111OSM   C14S11430   2.555   6.536   5.846  0.5288  0.4219 -0.7213
  111OSM   H14S11431   2.635   6.500   5.914 -0.0616  2.9136  1.4636
  111OSM   H14T11432   2.588   6.637   5.814 -0.5270  1.4676  1.2792
  111OSM   C15S11433   2.529   6.447   5.720 -0.1667  0.6771 -0.1433
  111OSM   H15S11434   2.484   6.352   5.755  0.2743  0.5051 -0.0383
  111OSM   H15T11435   2.628   6.427   5.675  0.3576 -0.0748  1.2879
  111OSM   C16S11436   2.449   6.513   5.606 -0.1845  0.2844  0.2766
  111OSM   H16S11437   2.490   6.614   5.587 -0.9949  0.7221  0.7819
  111OSM   H16T11438   2.341   6.531   5.622 -0.5069 -0.0358 -1.3710
  111OSM   C17S11439   2.465   6.449   5.461 -0.5280  0.2799 -0.5662
  111OSM   H17S11440   2.420   6.349   5.448 -0.9179  0.1769  1.2468
  111OSM   H17T11441   2.575   6.436   5.450 -0.6097 -1.8627  0.5953
  111OSM   C18S11442   2.411   6.530   5.356 -0.3884  0.1005 -0.0515
  111OSM   H18S11443   2.460   6.499   5.262 -0.2810 -2.7832  0.8516
  111OSM   H18T11444   2.436   6.635   5.383  1.0804 -0.1980 -0.1958
  111OSM   H18U11445   2.301   6.517   5.363 -0.2530 -1.4956 -0.5872
  111OSM    C1F11446   1.588   6.920   6.514 -0.4362  1.0074 -0.7033
  111OSM     OF11447   1.595   6.993   6.612  0.4187 -0.2735  0.2544
  111OSM    C2F11448   1.566   6.979   6.381 -0.1392  0.1127 -0.0500
  111OSM    H2F11449   1.472   7.037   6.383  0.8587  1.7803  0.2834
  111OSM    H2G11450   1.544   6.894   6.312 -0.8694 -0.7809  1.2394
  111OSM    C3F11451   1.690   7.065   6.346  0.0612  0.4830 -0.0089
  111OSM    H3F11452   1.718   7.123   6.437 -1.2434 -1.6378  1.8308
  111OSM    H3G11453   1.655   7.137   6.269  1.0124  0.4296 -0.5044
  111OSM    C4F11454   1.824   6.991   6.309  0.5109  0.0332  0.7602
  111OSM    H4F11455   1.854   6.930   6.397  2.0847 -0.4547 -0.0777
  111OSM    H4G11456   1.909   7.059   6.286 -1.8170  3.8323  2.4245
  111OSM    C5F11457   1.811   6.892   6.187  0.2571 -0.3469 -0.2224
  111OSM    H5F11458   1.777   6.949   6.098 -2.6416 -0.7052  0.5294
  111OSM    H5G11459   1.741   6.816   6.227  0.5641  0.4125  1.8623
  111OSM    C6F11460   1.930   6.804   6.147  0.1405  0.2885  0.6401
  111OSM    H6F11461   1.897   6.716   6.089  2.1936  1.2306 -2.1889
  111OSM    H6G11462   1.982   6.762   6.236 -0.7502 -0.8614  0.6387
  111OSM    C7F11463   2.031   6.879   6.058  0.5235 -0.4923  0.0835
  111OSM    H7F11464   2.067   6.970   6.110  0.5430  0.5518 -1.6553
  111OSM    H7G11465   1.974   6.915   5.970 -0.9089 -0.0555  1.1619
  111OSM    C8F11466   2.153   6.788   6.025  0.3300 -0.2043  0.3650
  111OSM    H8F11467   2.119   6.700   5.965 -0.2342 -1.7107  2.7700
  111OSM    H8G11468   2.181   6.751   6.126  0.2623 -0.0043  0.4587
  111OSM    C9F11469   2.256   6.878   5.968  0.7431 -0.6106  0.4010
  111OSM    H9F11470   2.333   6.906   6.042  1.8550 -1.7602 -0.2888
  111OSM   C10F11471   2.295   6.887   5.840  0.4968 -0.3586  1.3059
  111OSM   H10F11472   2.381   6.955   5.828 -0.1825  0.1359 -1.4557
  111OSM   C11F11473   2.235   6.823   5.713  0.1084  0.3035  0.5794
  111OSM   H11F11474   2.195   6.722   5.737 -2.8122  0.6970 -1.9708
  111OSM   H11G11475   2.313   6.810   5.635  0.8728 -1.6469  1.6112
  111OSM   C12F11476   2.124   6.912   5.654  0.1734 -0.5210  0.3291
  111OSM   H12F11477   2.147   7.020   5.667 -1.6819 -0.0172 -0.3249
  111OSM   H12G11478   2.026   6.895   5.703 -0.8520  0.0829 -1.4376
  111OSM   C13F11479   2.108   6.895   5.500  0.0235 -0.1013  0.2600
  111OSM   H13F11480   2.007   6.927   5.465 -0.5405 -1.9029  0.1105
  111OSM   H13G11481   2.119   6.790   5.467  0.8099  0.3954 -1.1317
  111OSM   C14F11482   2.219   6.961   5.412  0.4744  0.5892  0.0635
  111OSM   H14F11483   2.312   6.910   5.444  0.6219  1.4162  1.0030
  111OSM   H14G11484   2.225   7.071   5.424 -1.0281  0.6675  0.3025
  111OSM   C15F11485   2.206   6.931   5.259  0.3470  0.0808 -0.8746
  111OSM   H15F11486   2.106   6.968   5.228 -0.9429 -2.2141  0.2504
  111OSM   H15G11487   2.216   6.823   5.236 -0.5609 -0.2414  0.1566
  111OSM   C16F11488   2.297   7.019   5.173  0.0272 -0.7163 -0.6450
  111OSM   H16F11489   2.397   6.970   5.173 -0.1858 -1.2185  0.8528
  111OSM   H16G11490   2.314   7.117   5.222  0.7103 -0.6475 -0.9980
  111OSM   C17F11491   2.254   7.034   5.031  0.2301 -0.1240 -0.4518
  111OSM   H17F11492   2.342   7.072   4.974 -0.6217  1.8449 -0.5503
  111OSM   H17G11493   2.169   7.106   5.022 -1.2928 -1.3426  2.5687
  111OSM   C18F11494   2.206   6.901   4.969  0.1326 -0.8474 -0.4784
  111OSM   H18F11495   2.113   6.865   5.018 -1.8416  0.8899 -2.6788
  111OSM   H18G11496   2.283   6.821   4.976  1.4315  0.4227  0.1742
  111OSM   H18H11497   2.184   6.912   4.860 -0.8563 -0.6911 -0.2701
  112OSM      N11498   3.664   1.248   7.267  0.0236  0.1472  0.9101
  112OSM    C1511499   3.771   1.217   7.358 -0.3490 -0.1288  0.1145
  112OSM   H15A11500   3.752   1.133   7.423 -0.0664  0.8224  1.4753
  112OSM   H15B11501   3.798   1.294   7.429  0.9781  0.4567 -0.9696
  112OSM   H15C11502   3.867   1.195   7.313 -0.8994  1.6608 -2.1378
  112OSM    C1411503   3.647   1.143   7.164 -0.5474 -0.0932 -0.2151
  112OSM   H14A11504   3.740   1.126   7.112 -0.6156 -0.8669 -0.0918
  112OSM   H14B11505   3.575   1.171   7.089 -4.6839 -2.0872  2.6550
  112OSM   H14C11506   3.621   1.045   7.199 -0.1084 -0.9921 -2.2587
  112OSM    C1311507   3.536   1.250   7.353  0.9427  0.0090 -0.2942
  112OSM   H13A11508   3.529   1.342   7.410 -0.0844  1.6269 -2.8229
  112OSM   H13B11509   3.530   1.158   7.408  2.7495  0.7219  1.2007
  112OSM   H13C11510   3.453   1.267   7.286 -0.9057  2.7934  2.4527
  112OSM    C1211511   3.674   1.384   7.189 -0.4224 -0.2972 -0.0422
  112OSM   H12A11512   3.725   1.456   7.253 -1.3475 -0.6172  1.0870
  112OSM   H12B11513   3.583   1.420   7.144  0.1879  1.7987  0.2559
  112OSM    C1111514   3.768   1.389   7.068  0.6010 -0.0326  0.9104
  112OSM   H11A11515   3.758   1.486   7.015  0.8223  0.6299  2.0412
  112OSM   H11B11516   3.766   1.304   6.996  1.3038  2.8806 -2.8686
  112OSM      P11517   3.993   1.475   7.197  0.4257 -0.0254  0.1622
  112OSM    O1311518   3.898   1.568   7.270 -0.2757 -0.6303  0.0225
  112OSM    O1411519   4.092   1.398   7.278  0.5885  0.4603 -0.3268
  112OSM    O1111520   4.071   1.550   7.083 -0.3416  0.7468 -0.0362
  112OSM    O1211521   3.902   1.371   7.117  0.1600 -0.2228 -0.0481
  112OSM    C1S11522   4.163   1.478   7.007 -0.0673  0.2222  0.3218
  112OSM    H1S11523   4.138   1.370   6.997 -1.4762  0.6688 -1.4744
  112OSM    H1T11524   4.258   1.474   7.064 -0.5451 -1.0752  1.0574
  112OSM     NF11525   4.274   1.424   6.799 -0.0261 -0.7509  0.3791
  112OSM    HNF11526   4.370   1.451   6.799  0.3181 -1.8243  2.4126
  112OSM    C2S11527   4.190   1.530   6.865  0.5311  0.1962 -0.0034
  112OSM    H2S11528   4.094   1.527   6.809 -0.2269 -2.3234  1.2490
  112OSM    C3S11529   4.250   1.682   6.864 -0.2813 -0.5484 -0.1066
  112OSM    H3S11530   4.355   1.679   6.900 -0.6822 -1.2611  1.0879
  112OSM     O311531   4.185   1.782   6.955  0.1059  0.2231  0.1684
  112OSM    HO311532   4.128   1.731   7.013  0.0696  2.3035  2.1321
  112OSM    C4S11533   4.260   1.721   6.716 -0.4844 -0.3570  0.0615
  112OSM    H4S11534   4.335   1.659   6.665  2.0063  3.0184 -0.7240
  112OSM    C5S11535   4.217   1.829   6.649  0.1326  1.0190  0.4848
  112OSM    H5S11536   4.152   1.905   6.694 -0.7572  2.0124 -2.3045
  112OSM    C6S11537   4.246   1.854   6.501 -0.0892  0.8093 -0.2932
  112OSM    H6S11538   4.320   1.936   6.485  0.8839 -0.3455 -2.0698
  112OSM    H6T11539   4.152   1.891   6.456  0.1019  2.5215  0.6300
  112OSM    C7S11540   4.303   1.738   6.416  1.2062  0.4607  0.6351
  112OSM    H7S11541   4.216   1.669   6.418  0.7154  1.0721  1.2628
  112OSM    H7T11542   4.396   1.705   6.466  1.5232  2.2722  1.3166
  112OSM    C8S11543   4.329   1.780   6.275 -0.4694 -0.3825 -0.6192
  112OSM    H8S11544   4.371   1.692   6.221  0.4270  0.4071 -1.2468
  112OSM    H8T11545   4.407   1.859   6.275 -0.7031 -0.1406  0.3004
  112OSM    C9S11546   4.219   1.838   6.189  0.1100  0.4088 -0.2981
  112OSM    H9S11547   4.180   1.932   6.233 -0.4970 -0.0909  0.2590
  112OSM    H9T11548   4.130   1.770   6.189  0.1446  0.3070  1.8597
  112OSM   C10S11549   4.263   1.873   6.044  0.2574  0.8818  0.6243
  112OSM   H10S11550   4.329   1.788   6.018 -1.7468 -1.8060  3.5872
  112OSM   H10T11551   4.332   1.959   6.047  2.1003 -0.4621 -0.8064
  112OSM   C11S11552   4.146   1.886   5.955 -0.0769 -0.2803  0.0528
  112OSM   H11S11553   4.067   1.944   6.007 -1.5230 -1.1667 -1.0565
  112OSM   H11T11554   4.105   1.784   5.938  2.0964 -0.9475 -1.7150
  112OSM   C12S11555   4.161   1.959   5.817 -0.4181 -0.8772  0.4236
  112OSM   H12S11556   4.208   1.883   5.750 -2.1494 -2.2106  0.6496
  112OSM   H12T11557   4.231   2.042   5.838  1.1726 -2.1912  0.4822
  112OSM   C13S11558   4.022   1.985   5.747 -0.0520 -0.1171  0.6702
  112OSM   H13S11559   3.969   2.054   5.816  1.0573  1.5788 -0.1003
  112OSM   H13T11560   3.960   1.894   5.733  1.4322 -1.1371  0.4705
  112OSM   C14S11561   4.040   2.059   5.614  0.4994 -0.2577  0.4105
  112OSM   H14S11562   3.990   2.000   5.534 -1.0906 -1.7888  2.4194
  112OSM   H14T11563   4.149   2.051   5.590  0.4358  0.1408 -0.0110
  112OSM   C15S11564   4.022   2.211   5.620 -0.0662 -0.3148  0.2396
  112OSM   H15S11565   4.074   2.250   5.530 -1.2564 -0.5398 -0.5754
  112OSM   H15T11566   4.090   2.247   5.700 -1.3209  0.0521  1.1862
  112OSM   C16S11567   3.884   2.260   5.643  0.1781 -0.1915  0.1477
  112OSM   H16S11568   3.871   2.369   5.626  1.4713  0.0880  0.8439
  112OSM   H16T11569   3.849   2.240   5.747 -0.1172  1.3804  0.3731
  112OSM   C17S11570   3.783   2.206   5.540  0.1142 -0.0834  0.1021
  112OSM   H17S11571   3.682   2.231   5.578  1.3029  1.5636  2.5053
  112OSM   H17T11572   3.785   2.095   5.534  0.3674 -0.0458 -0.6444
  112OSM   C18S11573   3.795   2.262   5.399  0.2055 -0.3318 -0.2674
  112OSM   H18S11574   3.791   2.372   5.412  0.0980 -0.1494 -1.6058
  112OSM   H18T11575   3.717   2.218   5.332  0.3695 -0.5106 -0.3416
  112OSM   H18U11576   3.896   2.246   5.357 -0.6284 -0.3932 -2.3849
  112OSM    C1F11577   4.235   1.309   6.755 -0.2577  0.0654  0.1458
  112OSM     OF11578   4.121   1.265   6.761  0.2962  0.3667 -0.4036
  112OSM    C2F11579   4.345   1.224   6.691  0.4648 -0.4803  0.1131
  112OSM    H2F11580   4.356   1.134   6.755 -2.5663 -0.6448  0.5611
  112OSM    H2G11581   4.441   1.280   6.685  1.1917 -1.6602  0.4711
  112OSM    C3F11582   4.314   1.178   6.544  0.2870  1.1102  0.1790
  112OSM    H3F11583   4.228   1.108   6.541  0.4596  0.9233 -0.8078
  112OSM    H3G11584   4.404   1.118   6.517  2.2105  4.3109 -1.1274
  112OSM    C4F11585   4.292   1.295   6.451  0.5182 -0.0944 -0.4474
  112OSM    H4F11586   4.358   1.375   6.490 -2.6897  2.7337 -0.4566
  112OSM    H4G11587   4.197   1.350   6.461 -0.2770 -1.4182 -0.4153
  112OSM    C5F11588   4.316   1.254   6.303 -0.2076 -0.1985 -0.0790
  112OSM    H5F11589   4.263   1.161   6.276 -1.2116  0.3570 -0.0808
  112OSM    H5G11590   4.423   1.232   6.280 -0.0818  1.7465 -1.6827
  112OSM    C6F11591   4.261   1.363   6.210  0.3321  0.1130  0.9059
  112OSM    H6F11592   4.334   1.444   6.234  0.8355  0.1761 -0.6878
  112OSM    H6G11593   4.161   1.400   6.242 -0.4342  0.5367 -1.7143
  112OSM    C7F11594   4.270   1.325   6.065 -0.1536 -0.1890  0.1700
  112OSM    H7F11595   4.228   1.409   6.005  0.6872 -0.5111 -0.8994
  112OSM    H7G11596   4.210   1.234   6.042 -0.3876  0.5917 -2.6544
  112OSM    C8F11597   4.425   1.303   6.019  0.8238  0.2673 -0.3304
  112OSM    H8F11598   4.440   1.262   5.917  2.1004  2.5778 -1.1495
  112OSM    H8G11599   4.462   1.220   6.083 -3.0361 -0.5992  1.0780
  112OSM    C9F11600   4.501   1.429   6.043  0.7727 -0.8313  0.0901
  112OSM    H9F11601   4.550   1.444   6.140  2.3905  2.7576 -1.0977
  112OSM   C10F11602   4.537   1.518   5.949  0.7335 -0.5230  0.5227
  112OSM   H10F11603   4.597   1.605   5.981  1.8036 -0.3903 -1.6388
  112OSM   C11F11604   4.481   1.522   5.812  0.8343 -0.5556  0.3541
  112OSM   H11F11605   4.371   1.509   5.823  0.6729  0.7168  0.3713
  112OSM   H11G11606   4.522   1.447   5.741 -1.3911  0.0486 -1.7120
  112OSM   C12F11607   4.505   1.648   5.718 -0.3785  0.8505 -0.0273
  112OSM   H12F11608   4.610   1.665   5.687 -0.3812  1.1446  0.1204
  112OSM   H12G11609   4.462   1.733   5.774 -1.1396  0.8740 -0.6184
  112OSM   C13F11610   4.426   1.635   5.583 -0.0740 -1.1871 -0.2452
  112OSM   H13F11611   4.326   1.590   5.603 -0.3534 -0.7503 -0.6132
  112OSM   H13G11612   4.490   1.575   5.515  1.1172 -1.4157  1.0332
  112OSM   C14F11613   4.408   1.768   5.520  0.1086  0.6777 -0.0917
  112OSM   H14F11614   4.506   1.821   5.527 -0.1571  1.1782 -0.1247
  112OSM   H14G11615   4.340   1.825   5.586 -3.1923 -2.2418 -0.7067
  112OSM   C15F11616   4.353   1.769   5.373 -0.7278 -0.0297 -0.6617
  112OSM   H15F11617   4.246   1.743   5.389 -0.4251  0.5627  3.9091
  112OSM   H15G11618   4.414   1.697   5.316  0.0779 -1.2686  1.6538
  112OSM   C16F11619   4.365   1.908   5.302  0.4153  0.4159 -0.1070
  112OSM   H16F11620   4.469   1.940   5.324 -0.0961  1.4977  0.8612
  112OSM   H16G11621   4.296   1.975   5.358 -0.7850  0.3828 -1.4823
  112OSM   C17F11622   4.327   1.904   5.146  0.0770  0.5615 -0.8515
  112OSM   H17F11623   4.391   1.820   5.111  1.7776  1.3194  0.2684
  112OSM   H17G11624   4.350   1.994   5.086  0.6675  1.4437  0.6488
  112OSM   C18F11625   4.174   1.867   5.131  0.0533  0.6697 -0.1229
  112OSM   H18F11626   4.145   1.853   5.025 -1.3219 -0.8920  0.3971
  112OSM   H18G11627   4.119   1.947   5.186  0.9367 -0.5406  2.7497
  112OSM   H18H11628   4.149   1.780   5.197 -2.2360  0.8145 -0.6900
  113OSM      N11629   0.777   5.750   6.622 -0.0312  0.9402  0.0444
  113OSM    C1511630   0.898   5.660   6.626  0.8421  0.6246  0.0269
  113OSM   H15A11631   0.872   5.556   6.636  2.4818  0.2815  1.2336
  113OSM   H15B11632   0.949   5.673   6.721  0.8233  1.4798 -0.0732
  113OSM   H15C11633   0.969   5.671   6.545  0.0270 -0.5634 -0.8869
  113OSM    C1411634   0.733   5.745   6.477 -1.2094  0.0500  0.4238
  113OSM   H14A11635   0.726   5.646   6.434 -0.1609  0.5949 -1.0781
  113OSM   H14B11636   0.802   5.810   6.426 -2.3265  1.2429  0.3743
  113OSM   H14C11637   0.631   5.778   6.472 -2.0202 -2.2891  0.1004
  113OSM    C1311638   0.672   5.698   6.718  0.0464 -0.1281  0.5764
  113OSM   H13A11639   0.716   5.696   6.816  1.3790 -0.0293  0.0007
  113OSM   H13B11640   0.634   5.603   6.682  2.0951 -0.2706 -1.4399
  113OSM   H13C11641   0.594   5.772   6.727 -0.7603 -1.2369  3.8369
  113OSM    C1211642   0.822   5.893   6.665  0.3188 -0.3590  0.2553
  113OSM   H12A11643   0.754   5.968   6.629  2.1682  0.5555 -1.5713
  113OSM   H12B11644   0.915   5.919   6.616  0.5734 -1.6743 -0.0008
  113OSM    C1111645   0.853   5.911   6.815  0.1628  0.3163  0.3111
  113OSM   H11A11646   0.780   5.859   6.881  0.8490 -1.4630 -0.2708
  113OSM   H11B11647   0.846   6.018   6.844 -0.2068  1.0275 -2.1647
  113OSM      P11648   1.101   5.952   6.846  0.0711  0.1029  0.5739
  113OSM    O1311649   1.059   6.075   6.920  0.1847  0.1581 -0.2979
  113OSM    O1411650   1.217   5.876   6.895 -0.5887  0.2761  0.1455
  113OSM    O1111651   1.125   5.993   6.695  0.2135 -0.1482  0.2194
  113OSM    O1211652   0.979   5.854   6.840 -0.4409  1.0098 -0.4341
  113OSM    C1S11653   1.199   5.906   6.610 -0.6330 -0.7280  0.0499
  113OSM    H1S11654   1.123   5.851   6.551 -1.8729  0.1152  0.8184
  113OSM    H1T11655   1.270   5.844   6.668  0.2901 -0.2299 -0.5108
  113OSM     NF11656   1.383   5.892   6.446 -0.2610  0.6103 -1.1688
  113OSM    HNF11657   1.475   5.883   6.483 -0.5305  2.9478  0.3078
  113OSM    C2S11658   1.290   5.989   6.515  0.0695  0.0859 -0.4275
  113OSM    H2S11659   1.222   6.037   6.441 -0.6964  0.5852  0.5821
  113OSM    C3S11660   1.354   6.113   6.578 -0.2448 -0.4592 -0.9760
  113OSM    H3S11661   1.382   6.095   6.684  0.0105  3.0594 -0.3164
  113OSM     O311662   1.267   6.227   6.583  0.5892 -0.1716 -0.5839
  113OSM    HO311663   1.182   6.185   6.600  0.8520 -1.0437 -1.3357
  113OSM    C4S11664   1.481   6.153   6.499 -0.3320 -0.3923 -0.4893
  113OSM    H4S11665   1.461   6.186   6.396 -0.6548  1.1260  0.0263
  113OSM    C5S11666   1.607   6.139   6.546  0.1588 -0.2092  0.6923
  113OSM    H5S11667   1.616   6.071   6.632 -1.3889 -1.3807 -0.0238
  113OSM    C6S11668   1.734   6.140   6.464 -0.0066 -0.1566 -0.1568
  113OSM    H6S11669   1.755   6.040   6.420  1.1467  0.3753 -0.8571
  113OSM    H6T11670   1.817   6.163   6.534 -0.5968 -0.3405  0.6189
  113OSM    C7S11671   1.726   6.226   6.339  0.1699  0.4591  0.5038
  113OSM    H7S11672   1.751   6.328   6.374  1.8914  0.0366  0.6395
  113OSM    H7T11673   1.621   6.227   6.304 -0.1628  1.8902  1.4550
  113OSM    C8S11674   1.813   6.171   6.229 -0.1026 -0.5665  0.4302
  113OSM    H8S11675   1.781   6.068   6.202 -0.3969 -0.4916  0.4969
  113OSM    H8T11676   1.915   6.161   6.272 -0.5262 -1.5998  1.2584
  113OSM    C9S11677   1.805   6.250   6.100  0.6369  0.0064 -0.1758
  113OSM    H9S11678   1.832   6.356   6.121 -0.5499  0.4960 -1.0292
  113OSM    H9T11679   1.700   6.256   6.064  0.6648  0.7800 -0.1422
  113OSM   C10S11680   1.894   6.193   5.991  0.1995 -0.3571  0.2582
  113OSM   H10S11681   1.835   6.114   5.940  1.3635 -1.1979  0.1865
  113OSM   H10T11682   1.980   6.144   6.040  0.6105 -1.0219 -1.0903
  113OSM   C11S11683   1.940   6.294   5.889 -0.3004  0.0995  0.6857
  113OSM   H11S11684   1.990   6.247   5.801 -1.2793 -0.0224  0.1733
  113OSM   H11T11685   2.014   6.363   5.934  0.8015 -0.4997 -0.1495
  113OSM   C12S11686   1.833   6.382   5.830 -0.0828  0.3639  0.2797
  113OSM   H12S11687   1.785   6.453   5.900 -0.3776  0.4067  0.0387
  113OSM   H12T11688   1.746   6.319   5.804 -0.1611 -0.4981  2.4545
  113OSM   C13S11689   1.897   6.459   5.713  0.3345  0.0233  0.5599
  113OSM   H13S11690   1.928   6.390   5.632 -1.2187 -1.3040  1.0389
  113OSM   H13T11691   1.978   6.527   5.749 -1.2610  2.8423 -0.8815
  113OSM   C14S11692   1.784   6.538   5.640  0.5578  0.0317 -0.3856
  113OSM   H14S11693   1.745   6.617   5.708 -1.1857  0.7291 -2.1288
  113OSM   H14T11694   1.691   6.482   5.622 -0.9409  1.6006  1.8706
  113OSM   C15S11695   1.825   6.593   5.506 -0.3409  0.1980 -0.0226
  113OSM   H15S11696   1.830   6.503   5.441  1.3054  0.5406 -0.4123
  113OSM   H15T11697   1.921   6.648   5.502 -0.5839  0.6660  0.5208
  113OSM   C16S11698   1.731   6.705   5.447  0.2763  0.5062  0.3768
  113OSM   H16S11699   1.747   6.778   5.528  1.8171 -0.8891  1.3995
  113OSM   H16T11700   1.626   6.672   5.433  1.3113 -2.2007 -1.9558
  113OSM   C17S11701   1.785   6.735   5.307  0.4969  0.4301 -0.3845
  113OSM   H17S11702   1.895   6.743   5.317  1.0747 -4.8624  0.2151
  113OSM   H17T11703   1.747   6.835   5.275  0.5339 -0.0525 -2.0365
  113OSM   C18S11704   1.755   6.635   5.199 -0.3665  0.3325 -0.4727
  113OSM   H18S11705   1.645   6.624   5.186 -0.7832  0.7197  2.0867
  113OSM   H18T11706   1.810   6.544   5.231 -0.0380  0.6264 -0.1878
  113OSM   H18U11707   1.796   6.677   5.105  0.4477  0.5635 -0.0236
  113OSM    C1F11708   1.338   5.813   6.353  0.7220 -0.2450  0.6653
  113OSM     OF11709   1.225   5.831   6.309  0.0373  0.0656 -0.3063
  113OSM    C2F11710   1.437   5.713   6.298 -0.0971 -0.5516 -0.3723
  113OSM    H2F11711   1.435   5.627   6.368 -3.1572 -1.0313 -0.9225
  113OSM    H2G11712   1.540   5.754   6.310 -0.9740  1.0133  3.0378
  113OSM    C3F11713   1.419   5.683   6.146 -0.1146 -0.3497 -0.0513
  113OSM    H3F11714   1.315   5.647   6.134  0.3209 -1.6780 -0.0814
  113OSM    H3G11715   1.493   5.611   6.103 -0.1297 -0.3731 -0.0388
  113OSM    C4F11716   1.432   5.807   6.051  0.2032  0.6093 -0.1787
  113OSM    H4F11717   1.388   5.895   6.103  0.7690 -0.5318  2.4029
  113OSM    H4G11718   1.365   5.785   5.965 -1.4719  1.1430  0.9436
  113OSM    C5F11719   1.577   5.835   6.018 -0.0976 -0.2409  0.4836
  113OSM    H5F11720   1.633   5.744   5.988 -0.8692 -0.5795  0.0178
  113OSM    H5G11721   1.627   5.858   6.114  2.1441 -1.7985 -0.2374
  113OSM    C6F11722   1.582   5.943   5.906 -0.5212  0.2158  0.4094
  113OSM    H6F11723   1.690   5.963   5.893 -0.4494  1.4366  2.4685
  113OSM    H6G11724   1.541   6.043   5.932 -1.2914 -0.3432  1.4225
  113OSM    C7F11725   1.537   5.897   5.768  0.3508 -0.6600 -0.6657
  113OSM    H7F11726   1.428   5.913   5.753  0.5846  2.2582  0.2173
  113OSM    H7G11727   1.548   5.786   5.768  0.0869 -0.7230  1.2611
  113OSM    C8F11728   1.618   5.954   5.651 -0.7500  0.3382 -0.0350
  113OSM    H8F11729   1.720   5.916   5.674 -0.3641  1.0173 -0.5431
  113OSM    H8G11730   1.638   6.060   5.678 -2.2580  0.1934  1.8088
  113OSM    C9F11731   1.550   5.944   5.513 -0.0370  0.1644 -0.1019
  113OSM    H9F11732   1.511   5.842   5.501  0.9586 -0.0625 -1.6889
  113OSM   C10F11733   1.541   6.034   5.416 -0.4451 -0.4299 -0.6435
  113OSM   H10F11734   1.489   6.000   5.325  1.1732  0.1807 -1.8591
  113OSM   C11F11735   1.586   6.176   5.423 -0.5029 -0.4530 -0.4065
  113OSM   H11F11736   1.666   6.182   5.499 -1.1842  0.4553  0.2515
  113OSM   H11G11737   1.510   6.246   5.465 -0.8467 -0.8717 -0.3162
  113OSM   C12F11738   1.645   6.222   5.296 -0.0304 -0.4624  0.2140
  113OSM   H12F11739   1.703   6.136   5.255  1.1868 -1.1230  3.0698
  113OSM   H12G11740   1.724   6.295   5.320 -1.1832  0.0431  2.8024
  113OSM   C13F11741   1.542   6.278   5.195 -0.0191 -0.6657  0.0318
  113OSM   H13F11742   1.506   6.381   5.216  1.1420 -0.4690  1.2266
  113OSM   H13G11743   1.457   6.208   5.194 -0.3375 -0.3646 -3.4300
  113OSM   C14F11744   1.603   6.268   5.050  0.8226 -0.3238 -0.2015
  113OSM   H14F11745   1.698   6.326   5.053  0.9121 -0.4911  2.2978
  113OSM   H14G11746   1.535   6.325   4.983  0.5202 -0.8484 -0.3424
  113OSM   C15F11747   1.620   6.129   4.982  0.2880  0.3744 -0.0960
  113OSM   H15F11748   1.521   6.099   4.940 -0.9628  3.5422  0.3464
  113OSM   H15G11749   1.659   6.057   5.057 -0.2651  0.8482  0.6606
  113OSM   C16F11750   1.724   6.143   4.871  0.1389  0.3659  0.2697
  113OSM   H16F11751   1.756   6.037   4.859 -2.3204 -0.5738  1.2662
  113OSM   H16G11752   1.814   6.197   4.906  2.4246 -2.2190 -1.2135
  113OSM   C17F11753   1.659   6.206   4.737 -0.5412  0.1739  0.3450
  113OSM   H17F11754   1.661   6.317   4.737 -0.2810  0.1722  0.9466
  113OSM   H17G11755   1.557   6.161   4.725 -0.2054 -0.0160 -2.3667
  113OSM   C18F11756   1.746   6.166   4.619  0.1759  0.9556  0.6889
  113OSM   H18F11757   1.760   6.056   4.622 -0.2438  0.9164  1.6427
  113OSM   H18G11758   1.847   6.213   4.616  0.2992  0.6850  0.6128
  113OSM   H18H11759   1.689   6.190   4.527  1.3152  0.1546 -0.2493
  114OSM      N11760   1.489   2.016   7.617 -0.1923 -0.3531 -0.4369
  114OSM    C1511761   1.400   2.131   7.637  0.0420  0.2754 -0.2172
  114OSM   H15A11762   1.446   2.227   7.654 -0.4182  0.4277  0.2121
  114OSM   H15B11763   1.338   2.093   7.717 -0.5438 -0.8427 -1.1687
  114OSM   H15C11764   1.343   2.152   7.547 -0.5298  1.7978  0.4808
  114OSM    C1411765   1.572   1.992   7.740  0.1244  0.2630  0.0337
  114OSM   H14A11766   1.613   2.087   7.772  0.7969  0.9927 -2.7276
  114OSM   H14B11767   1.650   1.922   7.712 -0.1788  0.5095 -1.4774
  114OSM   H14C11768   1.510   1.951   7.818  0.2030  0.1559  0.0402
  114OSM    C1311769   1.411   1.888   7.582  0.9974  0.5221  0.2665
  114OSM   H13A11770   1.337   1.864   7.657  0.3436  1.7543  0.0414
  114OSM   H13B11771   1.478   1.806   7.562  0.9625  0.4568  0.4127
  114OSM   H13C11772   1.360   1.909   7.489 -1.9168  1.2134  1.8751
  114OSM    C1211773   1.586   2.055   7.499 -0.4438 -0.0564 -0.7294
  114OSM   H12A11774   1.668   1.986   7.509 -1.0025 -0.4973  1.0574
  114OSM   H12B11775   1.636   2.149   7.517 -1.8222  0.4449  0.7222
  114OSM    C1111776   1.531   2.052   7.356 -0.3290  0.1636  0.7429
  114OSM   H11A11777   1.488   1.954   7.326 -0.8193  0.4862  0.3747
  114OSM   H11B11778   1.619   2.061   7.288  0.4953  0.4804  1.8201
  114OSM      P11779   1.471   2.304   7.320  0.2369  0.0187 -0.1235
  114OSM    O1311780   1.351   2.388   7.329  0.1849 -0.1689 -0.1777
  114OSM    O1411781   1.584   2.354   7.401  0.4066  0.4409 -0.5008
  114OSM    O1111782   1.511   2.308   7.166 -0.2054  0.2184  0.3906
  114OSM    O1211783   1.431   2.154   7.341 -0.2191 -0.3962  0.1557
  114OSM    C1S11784   1.456   2.226   7.062 -1.2129 -0.5830 -0.1125
  114OSM    H1S11785   1.349   2.254   7.058 -0.8068  1.0196 -0.5194
  114OSM    H1T11786   1.458   2.119   7.092 -2.6665 -0.3426  0.9725
  114OSM     NF11787   1.456   2.205   6.814  0.3560 -0.5419 -0.2906
  114OSM    HNF11788   1.496   2.156   6.737  0.4584  2.4352 -2.3083
  114OSM    C2S11789   1.528   2.256   6.928 -0.3544  0.3634 -0.0333
  114OSM    H2S11790   1.538   2.366   6.919 -0.6644  0.6519  2.5101
  114OSM    C3S11791   1.674   2.204   6.929 -0.2320 -0.2638  0.7298
  114OSM    H3S11792   1.665   2.095   6.907 -3.7966  0.3818 -1.9525
  114OSM     O311793   1.737   2.205   7.056 -0.8558  0.1663  0.2099
  114OSM    HO311794   1.679   2.261   7.108  0.1924  0.4673  1.1135
  114OSM    C4S11795   1.764   2.265   6.820 -0.3321 -0.2077 -0.2360
  114OSM    H4S11796   1.758   2.217   6.721  0.9072  2.6302 -1.7979
  114OSM    C5S11797   1.854   2.365   6.845 -0.0526  0.2490  0.2729
  114OSM    H5S11798   1.855   2.401   6.949 -3.5203 -1.8354  1.1746
  114OSM    C6S11799   1.957   2.425   6.754 -0.4733  0.2097  0.4507
  114OSM    H6S11800   2.060   2.418   6.796 -1.3404  0.9969  2.8642
  114OSM    H6T11801   1.939   2.534   6.742 -1.4491  0.4526  3.3077
  114OSM    C7S11802   1.969   2.371   6.609 -0.6870 -0.1313  0.0355
  114OSM    H7S11803   2.029   2.439   6.543 -0.2585 -1.0678 -0.5704
  114OSM    H7T11804   1.870   2.374   6.559 -0.5396 -1.1839 -0.3360
  114OSM    C8S11805   2.029   2.229   6.585 -0.2230 -0.4684  0.4334
  114OSM    H8S11806   1.936   2.170   6.591  1.3500 -3.1314  0.1128
  114OSM    H8T11807   2.098   2.185   6.660 -1.7462 -1.8853  1.0406
  114OSM    C9S11808   2.098   2.213   6.447  0.4342 -0.5861 -0.2546
  114OSM    H9S11809   2.108   2.103   6.435 -0.6408 -0.6639 -0.5535
  114OSM    H9T11810   2.204   2.246   6.445  0.7237 -1.5122 -1.5129
  114OSM   C10S11811   2.019   2.273   6.330  0.0142  0.2041 -0.2070
  114OSM   H10S11812   2.017   2.384   6.333 -0.2550  0.2005 -0.2258
  114OSM   H10T11813   1.914   2.237   6.338  0.7121 -1.9702 -0.0661
  114OSM   C11S11814   2.078   2.249   6.195  0.3443  0.7902  0.0461
  114OSM   H11S11815   2.079   2.142   6.165  0.6845  1.3916 -2.3036
  114OSM   H11T11816   2.181   2.289   6.190 -1.1222  4.8051 -2.2191
  114OSM   C12S11817   2.004   2.322   6.090 -0.7467 -0.5569 -0.1604
  114OSM   H12S11818   2.035   2.427   6.110  0.9693 -0.3710 -3.1575
  114OSM   H12T11819   1.893   2.323   6.099 -0.8963 -1.1140 -1.6015
  114OSM   C13S11820   2.052   2.304   5.941 -0.4461 -0.2713  0.0304
  114OSM   H13S11821   2.015   2.208   5.899  1.6658 -1.1381  0.0493
  114OSM   H13T11822   2.162   2.305   5.954 -0.0996  0.8903 -2.4149
  114OSM   C14S11823   2.015   2.422   5.844 -0.0073  0.0158 -1.2878
  114OSM   H14S11824   2.057   2.515   5.887 -1.0921 -0.5726  1.1979
  114OSM   H14T11825   1.907   2.442   5.831  0.4145  1.2546 -3.5477
  114OSM   C15S11826   2.064   2.408   5.695 -0.1134  0.3141  0.3141
  114OSM   H15S11827   2.160   2.352   5.696 -0.2428  0.0333 -1.1424
  114OSM   H15T11828   2.087   2.509   5.654  1.6060  0.1107  0.6915
  114OSM   C16S11829   1.963   2.333   5.602 -0.5925  0.1458 -0.6157
  114OSM   H16S11830   1.866   2.372   5.637  0.4845 -0.0958  3.0550
  114OSM   H16T11831   1.960   2.223   5.616 -0.8357  0.1478 -0.6569
  114OSM   C17S11832   1.992   2.371   5.458  0.6280  0.0213 -0.7724
  114OSM   H17S11833   2.098   2.349   5.437  0.1186 -1.5125 -1.9159
  114OSM   H17T11834   1.985   2.482   5.452  1.4457  0.0599 -0.9996
  114OSM   C18S11835   1.907   2.320   5.339 -1.0697  0.0241  0.1005
  114OSM   H18S11836   1.814   2.379   5.354 -2.4862 -1.9032 -0.5948
  114OSM   H18T11837   1.892   2.210   5.352 -0.4283 -0.0661  0.0994
  114OSM   H18U11838   1.953   2.338   5.239 -1.3074 -1.9238 -0.4054
  114OSM    C1F11839   1.331   2.244   6.787  0.3160  0.1933 -0.2266
  114OSM     OF11840   1.273   2.336   6.845 -0.3333  0.4570  0.2448
  114OSM    C2F11841   1.253   2.170   6.685  0.1268 -0.2508  0.1949
  114OSM    H2F11842   1.185   2.098   6.735  0.7318 -2.4286 -1.9434
  114OSM    H2G11843   1.318   2.111   6.617 -2.8869 -0.8326 -2.4599
  114OSM    C3F11844   1.154   2.260   6.604 -0.4776 -0.1611  0.7105
  114OSM    H3F11845   1.081   2.310   6.671 -0.9902  0.2833 -0.1581
  114OSM    H3G11846   1.096   2.185   6.546  0.4521 -2.3007  2.4016
  114OSM    C4F11847   1.243   2.361   6.526  0.4292  0.1242  0.6239
  114OSM    H4F11848   1.328   2.312   6.476  2.6093  3.2600  0.9431
  114OSM    H4G11849   1.298   2.420   6.603  0.3960  0.7886  0.1444
  114OSM    C5F11850   1.175   2.459   6.431 -0.4511 -0.1653  0.6001
  114OSM    H5F11851   1.128   2.544   6.485 -0.9154  0.0702 -0.1606
  114OSM    H5G11852   1.098   2.397   6.381  1.9515 -2.9944  0.0905
  114OSM    C6F11853   1.278   2.535   6.352 -0.1025 -1.0574 -0.0327
  114OSM    H6F11854   1.316   2.455   6.285 -2.5329 -1.0271 -1.5976
  114OSM    H6G11855   1.357   2.571   6.421  1.3194 -2.5148 -0.8578
  114OSM    C7F11856   1.225   2.647   6.261 -0.1879  0.0613 -0.0539
  114OSM    H7F11857   1.313   2.696   6.215 -0.0339 -0.4924 -0.3648
  114OSM    H7G11858   1.174   2.717   6.330 -1.2825  0.0147 -0.8001
  114OSM    C8F11859   1.119   2.602   6.158 -0.3787  0.0032 -0.5340
  114OSM    H8F11860   1.082   2.703   6.130  1.6620  1.1124  0.5565
  114OSM    H8G11861   1.040   2.547   6.214 -0.2052  0.3559  0.0688
  114OSM    C9F11862   1.181   2.520   6.051 -0.1837  0.4498  0.1502
  114OSM    H9F11863   1.215   2.427   6.097  0.1640  0.1309 -0.7204
  114OSM   C10F11864   1.223   2.557   5.926 -0.3924  0.6036 -0.9738
  114OSM   H10F11865   1.282   2.480   5.876 -0.1390 -1.3716  2.0755
  114OSM   C11F11866   1.220   2.696   5.871  0.4863  0.4062 -0.1999
  114OSM   H11F11867   1.329   2.718   5.865  0.9857 -2.0194 -1.5110
  114OSM   H11G11868   1.152   2.758   5.932  1.0361  1.6042 -0.7691
  114OSM   C12F11869   1.178   2.715   5.731 -0.3344 -0.3832 -0.4457
  114OSM   H12F11870   1.176   2.822   5.699 -1.5608 -0.7017 -1.5031
  114OSM   H12G11871   1.074   2.680   5.714 -1.1492  2.4961 -2.2561
  114OSM   C13F11872   1.269   2.647   5.619  0.6551  0.2307  0.1515
  114OSM   H13F11873   1.277   2.537   5.635 -3.5351 -0.2917 -0.3179
  114OSM   H13G11874   1.371   2.689   5.628  1.7627 -2.3622  0.5557
  114OSM   C14F11875   1.233   2.677   5.471 -0.2439  0.5142 -0.2602
  114OSM   H14F11876   1.320   2.665   5.403 -1.1399 -0.5139 -1.2611
  114OSM   H14G11877   1.192   2.780   5.467 -2.9583 -0.4539  0.2891
  114OSM   C15F11878   1.120   2.586   5.417  0.9965  0.1718  0.3797
  114OSM   H15F11879   1.030   2.591   5.482  0.3260  0.0754 -0.5237
  114OSM   H15G11880   1.161   2.483   5.416  0.0959 -0.2545  2.5333
  114OSM   C16F11881   1.087   2.625   5.269 -0.1659 -0.7177  0.2367
  114OSM   H16F11882   1.009   2.561   5.223  0.1563  0.6362 -2.4178
  114OSM   H16G11883   1.185   2.617   5.218  1.5185 -0.6382  3.2332
  114OSM   C17F11884   1.033   2.772   5.261 -0.7119  0.0620 -0.8913
  114OSM   H17F11885   1.101   2.849   5.303 -0.2777  0.4025 -2.1995
  114OSM   H17G11886   0.946   2.775   5.331  0.1552  2.9543  0.2261
  114OSM   C18F11887   1.009   2.808   5.114 -0.0470 -0.7025 -0.0155
  114OSM   H18F11888   0.933   2.888   5.106  0.3787 -0.3354 -0.4703
  114OSM   H18G11889   0.977   2.723   5.050  2.9650 -0.1117 -2.5989
  114OSM   H18H11890   1.105   2.834   5.065 -1.2026 -0.2965 -2.1661
  115OSM      N11891   0.029   5.062   6.710  0.3132  0.1535  0.1649
  115OSM    C1511892  -0.039   5.042   6.577  0.0709  0.8316 -0.4373
  115OSM   H15A11893  -0.145   5.060   6.576 -0.2608 -0.5554 -3.5797
  115OSM   H15B11894  -0.028   4.937   6.555 -1.7128  0.3789  0.6796
  115OSM   H15C11895   0.007   5.097   6.496  0.5386  0.5974 -0.3342
  115OSM    C1411896  -0.039   4.969   6.810 -0.3013 -0.1178 -0.7107
  115OSM   H14A11897  -0.035   4.864   6.787 -1.1373 -0.7390  1.6900
  115OSM   H14B11898  -0.142   5.002   6.816  0.1036  1.0399  0.2572
  115OSM   H14C11899   0.007   4.976   6.907  1.0560  1.7330 -1.4286
  115OSM    C1311900   0.173   5.030   6.692 -0.6005  0.0770 -0.2495
  115OSM   H13A11901   0.239   5.081   6.760  0.0247  0.0028 -0.7883
  115OSM   H13B11902   0.209   5.057   6.594  2.1663 -0.4117  0.5543
  115OSM   H13C11903   0.195   4.924   6.698 -0.1358  0.0823 -1.5330
  115OSM    C1211904   0.010   5.207   6.752 -0.3181  0.7630 -0.0656
  115OSM   H12A11905   0.025   5.261   6.660  1.8133 -0.8183 -0.7268
  115OSM   H12B11906   0.089   5.241   6.818 -1.3806 -0.6388  2.0396
  115OSM    C1111907  -0.123   5.255   6.802  0.4815  0.3131 -0.6694
  115OSM   H11A11908  -0.110   5.365   6.809 -0.4320  0.4307 -0.6623
  115OSM   H11B11909  -0.142   5.214   6.904 -0.5871 -0.5435 -1.1892
  115OSM      P11910  -0.368   5.175   6.753 -0.1669  0.0366 -0.3063
  115OSM    O1311911  -0.351   5.030   6.800 -0.2619 -0.4251  0.0083
  115OSM    O1411912  -0.433   5.267   6.855 -0.1687 -0.6141  0.5631
  115OSM    O1111913  -0.454   5.176   6.617 -0.2447 -0.3020  1.1964
  115OSM    O1211914  -0.226   5.229   6.706 -0.1739 -0.1130 -0.7154
  115OSM    C1S11915  -0.402   5.139   6.490 -0.2257 -0.3630  0.4321
  115OSM    H1S11916  -0.393   5.028   6.490  2.2288 -0.2267  1.6366
  115OSM    H1T11917  -0.308   5.192   6.462  1.1085 -1.8057  1.9623
  115OSM     NF11918  -0.439   5.129   6.252  0.3386 -0.4015  0.4170
  115OSM    HNF11919  -0.392   5.191   6.189 -1.7518 -0.5806 -1.4231
  115OSM    C2S11920  -0.503   5.172   6.374  0.2676 -0.2028  0.2222
  115OSM    H2S11921  -0.586   5.103   6.400 -0.8048  0.8606 -0.2901
  115OSM    C3S11922  -0.552   5.323   6.375 -0.0886  0.7757 -0.6349
  115OSM    H3S11923  -0.473   5.401   6.372  0.1179  0.5540 -1.1279
  115OSM     O311924  -0.635   5.351   6.486 -0.2473  0.3996 -0.1279
  115OSM    HO311925  -0.632   5.266   6.530 -2.6738  0.4940  0.3798
  115OSM    C4S11926  -0.640   5.341   6.254  0.0328  0.2840 -0.7640
  115OSM    H4S11927  -0.737   5.290   6.257  0.3166 -0.2237  1.6167
  115OSM    C5S11928  -0.596   5.410   6.146  0.1881 -0.3483 -0.3962
  115OSM    H5S11929  -0.497   5.457   6.135  0.5509 -1.4303 -2.0811
  115OSM    C6S11930  -0.684   5.430   6.021  0.2930  0.7313 -0.6408
  115OSM    H6S11931  -0.729   5.531   6.029 -2.9996 -0.6516 -0.3300
  115OSM    H6T11932  -0.771   5.361   6.021  0.3723  0.6283 -1.2536
  115OSM    C7S11933  -0.603   5.426   5.899 -0.5127 -0.3633  0.3288
  115OSM    H7S11934  -0.538   5.336   5.887 -1.3625 -1.0612  0.8242
  115OSM    H7T11935  -0.532   5.511   5.900 -0.7322 -0.1718  1.8616
  115OSM    C8S11936  -0.681   5.448   5.766 -0.0200 -0.2138 -0.3220
  115OSM    H8S11937  -0.715   5.554   5.765  0.4777 -0.0578 -1.9819
  115OSM    H8T11938  -0.775   5.392   5.787  0.0238  0.7983  3.2569
  115OSM    C9S11939  -0.609   5.397   5.641 -0.0628  0.7148 -0.1739
  115OSM    H9S11940  -0.580   5.292   5.660  1.3462  1.1314  0.1128
  115OSM    H9T11941  -0.510   5.445   5.629  0.0238  0.6593  0.3195
  115OSM   C10S11942  -0.688   5.410   5.518  0.8561  0.0627 -0.1847
  115OSM   H10S11943  -0.693   5.520   5.505 -0.0745 -0.1399 -1.8137
  115OSM   H10T11944  -0.790   5.367   5.533  0.4909  1.0384  0.2377
  115OSM   C11S11945  -0.624   5.340   5.401 -0.1813 -0.3922 -0.3903
  115OSM   H11S11946  -0.608   5.238   5.443 -0.0849  0.5252  1.9437
  115OSM   H11T11947  -0.521   5.378   5.385  0.2689 -2.0118 -1.6951
  115OSM   C12S11948  -0.697   5.347   5.272  0.1016 -0.2160 -0.0216
  115OSM   H12S11949  -0.707   5.450   5.230 -0.1017 -0.3504 -0.3099
  115OSM   H12T11950  -0.803   5.325   5.298 -1.3563  3.2892 -2.1673
  115OSM   C13S11951  -0.655   5.246   5.163 -0.5114  0.2522 -0.6380
  115OSM   H13S11952  -0.672   5.142   5.198 -1.1646 -0.2560 -2.3752
  115OSM   H13T11953  -0.548   5.263   5.140 -0.2810  0.9515  0.8579
  115OSM   C14S11954  -0.726   5.276   5.025 -0.2111 -0.3155  0.3714
  115OSM   H14S11955  -0.692   5.378   4.997 -2.5380  0.4576  0.1650
  115OSM   H14T11956  -0.834   5.279   5.051 -0.1359  1.2453  0.6056
  115OSM   C15S11957  -0.708   5.159   4.931 -0.3434 -0.0629 -0.3816
  115OSM   H15S11958  -0.792   5.144   4.859  0.3588  1.1480 -1.4771
  115OSM   H15T11959  -0.708   5.066   4.992  1.7639  0.0013 -0.2155
  115OSM   C16S11960  -0.580   5.164   4.841  0.9384 -0.1404 -1.0133
  115OSM   H16S11961  -0.497   5.166   4.914  1.1330 -0.2334 -1.2339
  115OSM   H16T11962  -0.575   5.258   4.782  0.9469  0.2709 -0.3711
  115OSM   C17S11963  -0.562   5.044   4.747 -0.2979  0.4535  0.2865
  115OSM   H17S11964  -0.515   5.091   4.658  0.3635  1.2966  1.0518
  115OSM   H17T11965  -0.658   5.000   4.713  0.1097  0.7184 -1.2447
  115OSM   C18S11966  -0.470   4.934   4.811  0.0062  0.2177  0.6069
  115OSM   H18S11967  -0.375   4.986   4.833  0.0094  0.1749  0.6972
  115OSM   H18T11968  -0.456   4.849   4.741  0.1826 -1.5483  2.6718
  115OSM   H18U11969  -0.517   4.891   4.902 -1.8356  0.2545 -0.2778
  115OSM    C1F11970  -0.437   5.001   6.219  0.1654 -0.2511 -0.1867
  115OSM     OF11971  -0.480   4.920   6.294  0.2893 -0.0776  0.1884
  115OSM    C2F11972  -0.379   4.953   6.090  0.1263 -0.3661  0.2372
  115OSM    H2F11973  -0.270   4.972   6.106 -0.2307  1.2101  0.9993
  115OSM    H2G11974  -0.421   5.012   6.006  0.1131  0.5433  0.8614
  115OSM    C3F11975  -0.372   4.801   6.050 -0.1501  0.8797 -0.4452
  115OSM    H3F11976  -0.330   4.741   6.133 -1.3258 -0.7956 -0.9852
  115OSM    H3G11977  -0.298   4.787   5.968  1.0431  1.4004  0.5251
  115OSM    C4F11978  -0.500   4.730   6.016 -0.6897  0.6547  0.3211
  115OSM    H4F11979  -0.549   4.797   5.941  0.3614 -0.0130 -0.9984
  115OSM    H4G11980  -0.560   4.723   6.109  0.4503  1.1393  1.1082
  115OSM    C5F11981  -0.470   4.594   5.952 -0.0146  0.1948 -0.2020
  115OSM    H5F11982  -0.564   4.536   5.965  0.1145 -0.4853 -1.9969
  115OSM    H5G11983  -0.396   4.538   6.014 -0.4320  0.7340  0.8002
  115OSM    C6F11984  -0.423   4.593   5.799  0.2595  0.2917 -0.0615
  115OSM    H6F11985  -0.325   4.644   5.792  0.3708 -0.0744 -1.5918
  115OSM    H6G11986  -0.495   4.651   5.737  0.3002  0.1126 -0.2776
  115OSM    C7F11987  -0.408   4.445   5.750  0.2197 -0.0179  0.6986
  115OSM    H7F11988  -0.501   4.391   5.774 -0.3308  1.9661  3.5133
  115OSM    H7G11989  -0.321   4.391   5.794  1.3569 -1.0699 -2.5247
  115OSM    C8F11990  -0.386   4.452   5.596  0.1465 -0.2851 -0.3417
  115OSM    H8F11991  -0.460   4.532   5.571  0.2012  0.4664  1.6873
  115OSM    H8G11992  -0.415   4.361   5.539 -1.3426 -0.5307  0.7239
  115OSM    C9F11993  -0.250   4.499   5.553 -0.0107 -0.7630  0.0115
  115OSM    H9F11994  -0.207   4.584   5.607 -0.0775  0.0276 -1.1448
  115OSM   C10F11995  -0.182   4.448   5.444 -0.3981 -0.6629 -0.4000
  115OSM   H10F11996  -0.080   4.476   5.414 -0.9896  0.7213 -1.2589
  115OSM   C11F11997  -0.232   4.350   5.340  0.0771  0.9548  0.4434
  115OSM   H11F11998  -0.342   4.346   5.326  0.2498 -2.0331 -0.7256
  115OSM   H11G11999  -0.197   4.252   5.378 -0.7993 -0.0057 -1.1210
  115OSM   C12F12000  -0.156   4.375   5.203  0.5034 -0.4200 -0.3410
  115OSM   H12F12001  -0.045   4.372   5.212  0.7130  2.3971 -1.1392
  115OSM   H12G12002  -0.182   4.475   5.161  0.8294 -1.0941 -2.2617
  115OSM   C13F12003  -0.200   4.284   5.080  0.0631 -0.6647 -0.1499
  115OSM   H13F12004  -0.160   4.328   4.986 -0.9817  3.3329  1.0905
  115OSM   H13G12005  -0.310   4.276   5.070 -0.1192  1.7976 -0.8433
  115OSM   C14F12006  -0.138   4.144   5.080 -0.0199 -0.4449 -0.4468
  115OSM   H14F12007  -0.165   4.088   5.172  0.1737 -0.8077 -0.6071
  115OSM   H14G12008  -0.027   4.149   5.077 -0.0925  1.0116 -1.4676
  115OSM   C15F12009  -0.179   4.058   4.958 -0.5317 -0.1095  0.1852
  115OSM   H15F12010  -0.134   4.086   4.860 -3.1841 -0.2212 -1.1544
  115OSM   H15G12011  -0.284   4.091   4.941  0.2190  2.8264  0.7656
  115OSM   C16F12012  -0.184   3.913   4.982  0.1846 -0.4064  0.0878
  115OSM   H16F12013  -0.245   3.887   5.071 -0.9650 -0.4403 -0.6866
  115OSM   H16G12014  -0.080   3.877   4.999  0.8920  0.5908 -1.8244
  115OSM   C17F12015  -0.229   3.847   4.854  0.4988 -0.1046 -0.1551
  115OSM   H17F12016  -0.319   3.892   4.806  0.6643 -1.0881 -1.4454
  115OSM   H17G12017  -0.261   3.746   4.886  1.0389 -0.3751 -0.4513
  115OSM   C18F12018  -0.128   3.836   4.744 -0.1601  0.2811  0.2990
  115OSM   H18F12019  -0.057   3.921   4.751 -0.4235  0.3529  4.3645
  115OSM   H18G12020  -0.188   3.817   4.652 -1.6214 -0.3886  1.3540
  115OSM   H18H12021  -0.073   3.739   4.753  0.4515  0.5158 -0.6817
  116OSM      N12022   2.911   3.166   6.840 -0.0726 -0.1709 -0.8575
  116OSM    C1512023   3.004   3.073   6.920 -0.3948  0.3067 -0.2124
  116OSM   H15A12024   2.959   2.995   6.981  0.2853  1.1909  1.5034
  116OSM   H15B12025   3.078   3.122   6.981  1.6746 -2.9584  0.1498
  116OSM   H15C12026   3.064   3.022   6.847 -0.7408 -0.9353  0.3340
  116OSM    C1412027   2.835   3.070   6.747 -0.3667  0.0430 -0.1395
  116OSM   H14A12028   2.789   2.997   6.811  1.8336 -1.0648  0.2793
  116OSM   H14B12029   2.900   3.019   6.677 -0.4223 -1.1409  0.6491
  116OSM   H14C12030   2.763   3.123   6.685  0.3364  1.8731  0.5331
  116OSM    C1312031   2.824   3.240   6.935  0.1275 -0.3036 -0.2231
  116OSM   H13A12032   2.768   3.323   6.894  0.1200 -0.7584 -1.1500
  116OSM   H13B12033   2.893   3.279   7.008  1.0801  0.1099 -1.3309
  116OSM   H13C12034   2.753   3.179   6.989  0.0225  0.0150  0.0015
  116OSM    C1212035   2.999   3.259   6.757  0.2086 -0.3197  0.5645
  116OSM   H12A12036   2.938   3.326   6.699  1.5498  1.0068  0.6246
  116OSM   H12B12037   3.057   3.208   6.682 -0.8433  2.6290 -2.5179
  116OSM    C1112038   3.094   3.357   6.833 -0.1302  0.6469  0.1408
  116OSM   H11A12039   3.035   3.421   6.903  0.7443  0.2112  1.3211
  116OSM   H11B12040   3.134   3.421   6.752 -1.2439 -0.4854 -1.3369
  116OSM      P12041   3.340   3.333   6.919 -0.0015  0.1813  0.1227
  116OSM    O1312042   3.352   3.476   6.966  0.2268 -0.0449  0.2212
  116OSM    O1412043   3.419   3.237   7.001 -0.1920 -0.1188 -0.1396
  116OSM    O1112044   3.396   3.325   6.771 -0.4675  0.3238  0.8288
  116OSM    O1212045   3.195   3.288   6.909  0.3673  0.2070 -0.2224
  116OSM    C1S12046   3.356   3.210   6.696  0.3433  0.1319 -0.2549
  116OSM    H1S12047   3.248   3.193   6.714 -0.2612  4.7918  1.9898
  116OSM    H1T12048   3.414   3.119   6.721  1.2707  0.7216 -0.1905
  116OSM     NF12049   3.323   3.118   6.465 -0.3006 -0.0500 -0.3898
  116OSM    HNF12050   3.395   3.053   6.441  0.9271 -0.3029  3.2434
  116OSM    C2S12051   3.372   3.237   6.541  0.4109  0.3006 -0.0608
  116OSM    H2S12052   3.302   3.321   6.518  0.9910  0.6418 -0.6130
  116OSM    C3S12053   3.517   3.269   6.499 -0.1907  0.0696  0.3790
  116OSM    H3S12054   3.582   3.180   6.516  0.6736 -0.0556 -2.9207
  116OSM     O312055   3.575   3.376   6.570 -0.6447 -0.2641  0.0554
  116OSM    HO312056   3.507   3.389   6.636 -0.6284  0.5983 -0.0939
  116OSM    C4S12057   3.520   3.294   6.356 -0.1011  0.2180  0.6150
  116OSM    H4S12058   3.428   3.339   6.316  0.2227  1.0946  0.8282
  116OSM    C5S12059   3.607   3.243   6.260 -0.0274  0.0761 -0.1250
  116OSM    H5S12060   3.689   3.178   6.293 -0.4206 -0.1705  0.3735
  116OSM    C6S12061   3.570   3.262   6.115  0.0570  0.4039 -0.2126
  116OSM    H6S12062   3.616   3.357   6.077 -2.1703  1.9029  0.6555
  116OSM    H6T12063   3.461   3.279   6.110 -0.6039 -2.8748  1.1239
  116OSM    C7S12064   3.591   3.143   6.029 -0.2738  0.3316 -0.2381
  116OSM    H7S12065   3.531   3.055   6.059 -2.1976  1.6753 -0.0080
  116OSM    H7T12066   3.698   3.112   6.031 -0.0260  0.7521 -2.8472
  116OSM    C8S12067   3.563   3.167   5.872 -0.0725 -0.0615 -0.1488
  116OSM    H8S12068   3.645   3.235   5.842  0.4092 -0.5181  0.1150
  116OSM    H8T12069   3.466   3.219   5.859  0.6334  0.9402 -1.7204
  116OSM    C9S12070   3.576   3.038   5.793  0.5137 -0.2533  0.5489
  116OSM    H9S12071   3.476   2.991   5.808 -0.1467  1.6373  2.4784
  116OSM    H9T12072   3.665   2.980   5.825  1.3074  0.5980 -0.0614
  116OSM   C10S12073   3.578   3.062   5.639  0.1776 -0.6853 -0.2530
  116OSM   H10S12074   3.671   3.113   5.607 -0.1173 -0.7178 -1.1813
  116OSM   H10T12075   3.502   3.138   5.609  3.3038  1.5489 -3.1709
  116OSM   C11S12076   3.569   2.936   5.550 -0.4287 -0.1728 -0.0768
  116OSM   H11S12077   3.494   2.867   5.596  1.8014 -0.2280  3.9062
  116OSM   H11T12078   3.666   2.885   5.569 -1.4802 -1.5141  2.2037
  116OSM   C12S12079   3.559   2.956   5.404  0.2813 -0.1363 -0.5943
  116OSM   H12S12080   3.469   3.016   5.378  2.0762  3.6970  1.1444
  116OSM   H12T12081   3.555   2.862   5.345  1.2918 -1.8386  1.8408
  116OSM   C13S12082   3.683   3.025   5.339 -0.5880 -0.9298  0.3829
  116OSM   H13S12083   3.775   2.970   5.368  0.3263 -0.1651 -0.9798
  116OSM   H13T12084   3.692   3.131   5.374 -0.6505 -0.1195 -1.8948
  116OSM   C14S12085   3.679   3.033   5.188 -0.0965  0.1176  0.1349
  116OSM   H14S12086   3.766   3.093   5.155 -0.3002  1.0627  1.2382
  116OSM   H14T12087   3.599   3.106   5.160  2.4893  3.3930  0.6501
  116OSM   C15S12088   3.672   2.899   5.115  0.5629  0.4108 -0.0869
  116OSM   H15S12089   3.588   2.831   5.139  0.6983 -0.5608 -2.1577
  116OSM   H15T12090   3.748   2.829   5.156 -1.5474 -0.3818  2.8360
  116OSM   C16S12091   3.694   2.896   4.962  0.0712  0.0843 -0.3490
  116OSM   H16S12092   3.698   2.792   4.924 -1.2470 -0.5742  1.1355
  116OSM   H16T12093   3.793   2.939   4.940  0.7674 -2.6106 -3.2661
  116OSM   C17S12094   3.587   2.960   4.882 -0.0265  0.2041 -0.2106
  116OSM   H17S12095   3.574   3.065   4.914  2.2944  0.2416  0.7967
  116OSM   H17T12096   3.490   2.909   4.901 -0.2892  0.9041  0.3386
  116OSM   C18S12097   3.614   2.949   4.739  0.7601 -0.0487  0.4914
  116OSM   H18S12098   3.559   3.020   4.674  1.0699  2.5121  2.8435
  116OSM   H18T12099   3.589   2.849   4.698  0.2693  0.8880 -1.5921
  116OSM   H18U12100   3.720   2.979   4.724  0.8737  0.6851  2.4201
  116OSM    C1F12101   3.198   3.086   6.438  0.4748 -0.2520 -0.2328
  116OSM     OF12102   3.110   3.145   6.501  0.1186  0.6003  0.5122
  116OSM    C2F12103   3.165   2.985   6.345 -0.4352  0.5715  0.0026
  116OSM    H2F12104   3.054   2.978   6.340 -0.4111  0.7194 -0.7711
  116OSM    H2G12105   3.195   2.885   6.384 -0.0100  0.7760  0.2149
  116OSM    C3F12106   3.213   3.013   6.205  0.3970 -0.5225  0.2101
  116OSM    H3F12107   3.323   2.999   6.211  0.3953 -0.2112  1.1914
  116OSM    H3G12108   3.197   3.116   6.166 -2.5919 -0.9439  0.0937
  116OSM    C4F12109   3.157   2.906   6.100 -0.2166  0.1013  0.0098
  116OSM    H4F12110   3.049   2.923   6.080 -0.6338 -0.5203  1.5586
  116OSM    H4G12111   3.174   2.807   6.147 -0.6015  1.5040  3.3785
  116OSM    C5F12112   3.215   2.932   5.966 -0.1917  0.5514  0.2128
  116OSM    H5F12113   3.326   2.926   5.971  0.0512  1.5169 -2.3994
  116OSM    H5G12114   3.197   3.040   5.944  0.9516  0.9265  1.0200
  116OSM    C6F12115   3.175   2.832   5.857 -0.2974  0.2859 -0.2482
  116OSM    H6F12116   3.069   2.807   5.879  0.3450 -1.0995  1.5369
  116OSM    H6G12117   3.230   2.735   5.853 -2.2669 -0.8495 -2.2921
  116OSM    C7F12118   3.182   2.895   5.713  0.6299  0.4072  0.1257
  116OSM    H7F12119   3.273   2.957   5.698 -0.0737  1.5097  0.3285
  116OSM    H7G12120   3.094   2.962   5.702  0.8087  0.5146 -0.6878
  116OSM    C8F12121   3.183   2.781   5.608 -0.0495 -0.2869 -0.0528
  116OSM    H8F12122   3.095   2.714   5.620  1.0976 -1.7681  0.4031
  116OSM    H8G12123   3.275   2.723   5.627 -0.0933 -0.4299 -0.2657
  116OSM    C9F12124   3.200   2.840   5.473 -0.4291  1.1032 -0.1940
  116OSM    H9F12125   3.225   2.947   5.458  0.6806  1.2028  1.9684
  116OSM   C10F12126   3.163   2.767   5.366 -0.2331 -0.0904  0.4349
  116OSM   H10F12127   3.183   2.809   5.266  1.5792 -1.0375  0.3600
  116OSM   C11F12128   3.110   2.625   5.356  0.9305  0.7694 -0.4954
  116OSM   H11F12129   3.008   2.609   5.315  0.8321  1.2968 -0.4629
  116OSM   H11G12130   3.097   2.576   5.455 -0.1357  1.1644 -0.4282
  116OSM   C12F12131   3.213   2.540   5.280 -0.1140  0.0285 -0.7221
  116OSM   H12F12132   3.201   2.580   5.177 -2.8091 -1.7199 -1.1992
  116OSM   H12G12133   3.179   2.435   5.293  0.4084 -0.0274  0.2278
  116OSM   C13F12134   3.354   2.540   5.348  0.3543 -0.2075  0.3060
  116OSM   H13F12135   3.343   2.526   5.457 -0.3046 -2.6296 -0.0088
  116OSM   H13G12136   3.398   2.641   5.333 -1.3298  0.4561 -0.3380
  116OSM   C14F12137   3.446   2.432   5.290  0.3939  0.3997 -0.6984
  116OSM   H14F12138   3.402   2.329   5.289 -1.3363  1.0059  2.0564
  116OSM   H14G12139   3.529   2.437   5.364 -2.2775  1.9381  2.4468
  116OSM   C15F12140   3.498   2.472   5.153  0.2422 -0.1901  0.1785
  116OSM   H15F12141   3.544   2.573   5.162 -0.0939 -0.0314  0.1062
  116OSM   H15G12142   3.410   2.476   5.086 -0.8501 -0.3992  1.5366
  116OSM   C16F12143   3.606   2.377   5.087 -1.1741 -0.3504  0.4158
  116OSM   H16F12144   3.708   2.386   5.130 -1.1678  1.7564  0.0729
  116OSM   H16G12145   3.615   2.410   4.981  1.3637 -0.3928  0.5566
  116OSM   C17F12146   3.560   2.229   5.083 -0.5261 -0.4172  0.0774
  116OSM   H17F12147   3.575   2.185   5.183  0.6192  0.7694  0.4563
  116OSM   H17G12148   3.627   2.164   5.023 -0.0701  0.1176  0.0021
  116OSM   C18F12149   3.409   2.207   5.039 -0.3863  0.0030 -0.2460
  116OSM   H18F12150   3.393   2.253   4.939 -0.7229 -0.4328 -0.3963
  116OSM   H18G12151   3.337   2.267   5.098 -0.3206  1.5211 -1.6373
  116OSM   H18H12152   3.384   2.099   5.033  1.9869 -0.5962 -0.6510
  117OSM      N12153   0.555   6.560   6.877  0.5354 -0.6198 -0.0611
  117OSM    C1512154   0.556   6.491   7.006 -0.7222 -0.2666  0.2821
  117OSM   H15A12155   0.640   6.527   7.063 -0.5622  0.2623 -0.2776
  117OSM   H15B12156   0.571   6.384   6.997 -0.1081 -0.2557  1.0575
  117OSM   H15C12157   0.464   6.506   7.062 -2.0539 -1.8509 -1.3777
  117OSM    C1412158   0.454   6.485   6.789 -0.3010 -0.2512  0.8596
  117OSM   H14A12159   0.361   6.474   6.843 -0.1919 -1.3110  0.8538
  117OSM   H14B12160   0.501   6.388   6.777 -1.1905 -0.6038  0.1399
  117OSM   H14C12161   0.437   6.532   6.694 -0.6088 -2.1460 -0.0865
  117OSM    C1312162   0.502   6.694   6.898 -0.0672  0.4353  0.1622
  117OSM   H13A12163   0.492   6.752   6.808 -2.7818  1.9480  1.3067
  117OSM   H13B12164   0.554   6.752   6.973  1.0750 -1.3356  0.8193
  117OSM   H13C12165   0.399   6.687   6.932  0.1488 -0.8806  0.5942
  117OSM    C1212166   0.696   6.569   6.814 -0.1874  0.4702 -0.2223
  117OSM   H12A12167   0.751   6.479   6.836 -2.0943 -0.7766 -0.3430
  117OSM   H12B12168   0.749   6.655   6.850  1.7870  0.0746 -1.9700
  117OSM    C1112169   0.693   6.580   6.660  0.1482 -0.0619 -0.3695
  117OSM   H11A12170   0.626   6.667   6.642  1.6503  1.1267 -0.3455
  117OSM   H11B12171   0.647   6.490   6.613  2.3026 -0.3112 -2.1298
  117OSM      P12172   0.923   6.481   6.622 -0.2229  0.0744  0.2504
  117OSM    O1312173   1.044   6.506   6.540 -0.2787  0.2382  0.0157
  117OSM    O1412174   0.945   6.432   6.761 -0.3191 -0.3228  0.2635
  117OSM    O1112175   0.844   6.364   6.543 -0.0286  0.7935  0.0768
  117OSM    O1212176   0.827   6.610   6.613 -0.2881  0.3892 -0.4358
  117OSM    C1S12177   0.806   6.379   6.402  0.1265 -0.0152  0.6862
  117OSM    H1S12178   0.763   6.480   6.385  0.4446  0.2946  1.6428
  117OSM    H1T12179   0.728   6.302   6.383  0.4735  0.2326 -2.0803
  117OSM     NF12180   0.887   6.422   6.171  0.2502  0.1525 -0.2375
  117OSM    HNF12181   0.873   6.356   6.097 -0.6919  0.5279 -0.4088
  117OSM    C2S12182   0.921   6.357   6.294  0.3046  0.2481  0.0348
  117OSM    H2S12183   1.007   6.411   6.339  0.8128  0.3298 -1.0139
  117OSM    C3S12184   0.953   6.200   6.288 -0.3392  0.1354  0.7595
  117OSM    H3S12185   0.857   6.146   6.277 -0.1199  0.1099 -1.3361
  117OSM     O312186   1.008   6.154   6.412  0.3949 -0.1035  0.1125
  117OSM    HO312187   0.998   6.227   6.473 -2.0635 -0.5635  0.3869
  117OSM    C4S12188   1.047   6.170   6.181 -0.0671 -0.2596 -0.4102
  117OSM    H4S12189   1.135   6.233   6.199 -0.6595  0.4235  0.1762
  117OSM    C5S12190   1.023   6.091   6.072  0.2253 -0.1445 -0.6588
  117OSM    H5S12191   0.923   6.045   6.066 -0.6543  1.6234 -0.2057
  117OSM    C6S12192   1.125   6.087   5.958 -0.5323  0.5027 -0.1815
  117OSM    H6S12193   1.178   5.989   5.957  0.9496  1.2393  0.9783
  117OSM    H6T12194   1.218   6.139   5.989 -0.5010 -0.3676  1.3094
  117OSM    C7S12195   1.083   6.138   5.823  0.0307 -0.0792  0.7236
  117OSM    H7S12196   1.070   6.248   5.825  0.9990  0.3146 -3.5633
  117OSM    H7T12197   0.983   6.096   5.799 -0.4053  1.9844 -1.4600
  117OSM    C8S12198   1.185   6.113   5.708 -0.0756 -0.3797  0.1361
  117OSM    H8S12199   1.215   6.006   5.712  0.5003 -0.2120  0.4176
  117OSM    H8T12200   1.275   6.177   5.706  0.2965 -0.6313  3.2141
  117OSM    C9S12201   1.112   6.136   5.580 -0.3726  0.3760  0.4020
  117OSM    H9S12202   1.083   6.243   5.567  1.0144  0.6947 -0.2503
  117OSM    H9T12203   1.021   6.073   5.588 -0.4616  0.0759 -2.0599
  117OSM   C10S12204   1.187   6.093   5.455  0.7576  0.0844 -0.6828
  117OSM   H10S12205   1.229   5.990   5.455 -0.6256 -0.5350  1.2817
  117OSM   H10T12206   1.275   6.160   5.440 -0.4033  1.5946 -1.0647
  117OSM   C11S12207   1.085   6.111   5.336 -0.1440  0.0928 -1.1985
  117OSM   H11S12208   1.134   6.092   5.238 -0.1560 -0.2416 -1.1404
  117OSM   H11T12209   1.059   6.219   5.328 -0.8948  0.1730  1.4313
  117OSM   C12S12210   0.958   6.032   5.336  0.9596 -0.4403  0.1522
  117OSM   H12S12211   0.894   6.079   5.414  1.5592 -2.9327  2.2929
  117OSM   H12T12212   0.974   5.926   5.364 -0.8989 -0.3681  1.6781
  117OSM   C13S12213   0.881   6.049   5.209 -0.2229  0.4965  0.0636
  117OSM   H13S12214   0.958   6.031   5.131  0.3206  0.9350  0.4807
  117OSM   H13T12215   0.851   6.156   5.203  3.2979  1.5384 -2.1695
  117OSM   C14S12216   0.769   5.949   5.188  0.4192 -0.0491  0.6311
  117OSM   H14S12217   0.801   5.843   5.187  0.0908 -0.1498 -0.2419
  117OSM   H14T12218   0.722   5.969   5.089 -2.4204  0.4888  1.9839
  117OSM   C15S12219   0.651   5.972   5.283 -0.0206 -0.1103  0.0889
  117OSM   H15S12220   0.618   6.074   5.254  0.7773 -0.0966 -0.8440
  117OSM   H15T12221   0.680   5.982   5.390 -1.2358  0.4942  0.3850
  117OSM   C16S12222   0.540   5.874   5.269  0.9765  0.4209 -0.2801
  117OSM   H16S12223   0.473   5.886   5.357  0.2319  2.4742 -1.0803
  117OSM   H16T12224   0.582   5.772   5.274  1.2215  0.5344  0.0270
  117OSM   C17S12225   0.459   5.891   5.139 -0.8760 -0.3117 -0.0469
  117OSM   H17S12226   0.533   5.899   5.057  0.4796 -0.5814  1.1086
  117OSM   H17T12227   0.393   5.981   5.143  1.5208  1.5048  1.8403
  117OSM   C18S12228   0.380   5.767   5.100 -0.0390 -0.0380  0.1847
  117OSM   H18S12229   0.295   5.761   5.172 -2.2283  0.5405 -2.1982
  117OSM   H18T12230   0.437   5.671   5.095 -0.1632 -0.1005 -0.0209
  117OSM   H18U12231   0.329   5.769   5.001  0.0566 -2.0703  0.0447
  117OSM    C1F12232   0.876   6.554   6.149 -0.2978 -0.1533  0.5080
  117OSM     OF12233   0.904   6.638   6.232  0.4281  0.2355 -0.3079
  117OSM    C2F12234   0.823   6.592   6.015  0.0050  0.1725  0.1718
  117OSM    H2F12235   0.728   6.536   6.005  0.4922 -0.3088 -2.2312
  117OSM    H2G12236   0.902   6.554   5.947 -0.4607 -1.0389  0.2812
  117OSM    C3F12237   0.801   6.743   6.005  0.2433 -1.1835 -0.5443
  117OSM    H3F12238   0.895   6.801   6.017 -0.8411  1.1888 -2.6813
  117OSM    H3G12239   0.735   6.783   6.085  0.8230 -0.3529 -0.4689
  117OSM    C4F12240   0.741   6.795   5.879 -0.0115  0.7639 -0.5308
  117OSM    H4F12241   0.821   6.791   5.802  0.0644  1.2725 -0.4846
  117OSM    H4G12242   0.730   6.905   5.896  2.1456  0.8586  0.6174
  117OSM    C5F12243   0.615   6.714   5.827 -0.4144 -1.0998 -0.3473
  117OSM    H5F12244   0.551   6.688   5.914 -0.6523  1.3161  0.2740
  117OSM    H5G12245   0.661   6.620   5.790  1.1542  0.1448 -1.7484
  117OSM    C6F12246   0.539   6.779   5.710 -0.3412 -0.0553  0.3414
  117OSM    H6F12247   0.496   6.694   5.653  0.5146  0.0883 -0.5499
  117OSM    H6G12248   0.610   6.823   5.637 -2.7432  1.9982 -0.9185
  117OSM    C7F12249   0.429   6.879   5.745 -0.4442 -0.1743  0.5475
  117OSM    H7F12250   0.458   6.942   5.831  1.2688 -0.8942  0.5542
  117OSM    H7G12251   0.341   6.824   5.785  0.5468 -0.5232  2.3591
  117OSM    C8F12252   0.402   6.970   5.633 -0.3177  0.3395  0.6201
  117OSM    H8F12253   0.366   6.897   5.557  0.2528  0.6218  0.0701
  117OSM    H8G12254   0.497   7.010   5.591 -0.9535  0.5457 -0.6767
  117OSM    C9F12255   0.305   7.075   5.656  0.6178 -0.8629  0.6004
  117OSM    H9F12256   0.348   7.148   5.726 -0.8566  1.2957 -0.6491
  117OSM   C10F12257   0.178   7.082   5.610  0.1316 -0.1982 -0.3218
  117OSM   H10F12258   0.123   7.174   5.635  2.1189  0.9561  0.0378
  117OSM   C11F12259   0.118   7.000   5.502 -0.4993 -0.4915 -0.4562
  117OSM   H11F12260   0.051   6.918   5.535  0.2383 -1.5665 -1.5246
  117OSM   H11G12261   0.192   6.931   5.456  0.2047  0.7050 -1.1783
  117OSM   C12F12262   0.049   7.085   5.395 -0.0279  0.1141  0.8196
  117OSM   H12F12263  -0.028   7.154   5.437 -2.0270 -0.9348 -0.9219
  117OSM   H12G12264  -0.012   7.017   5.332 -0.1534  1.5318 -0.6694
  117OSM   C13F12265   0.153   7.159   5.315 -0.5015  0.3409 -0.1229
  117OSM   H13F12266   0.227   7.082   5.282  0.0016  0.1451  1.4016
  117OSM   H13G12267   0.188   7.223   5.398  0.6396 -0.8969  0.4041
  117OSM   C14F12268   0.108   7.240   5.186 -0.2983  0.5189 -0.6958
  117OSM   H14F12269   0.197   7.276   5.129  0.2143 -1.1886 -1.0495
  117OSM   H14G12270   0.056   7.332   5.219 -0.4089 -0.0621  0.8098
  117OSM   C15F12271   0.032   7.161   5.073  0.2713 -0.0514 -0.4843
  117OSM   H15F12272  -0.001   7.246   5.009 -1.3248  0.5582  1.0662
  117OSM   H15G12273  -0.058   7.115   5.119 -0.8168  0.9513 -1.5256
  117OSM   C16F12274   0.112   7.053   4.998  0.2806  0.8204  0.9480
  117OSM   H16F12275   0.128   6.976   5.076 -2.6208  1.1655  2.0102
  117OSM   H16G12276   0.204   7.098   4.955 -0.1181  0.4831 -0.3178
  117OSM   C17F12277   0.024   7.004   4.885 -0.6051 -0.7026 -0.1930
  117OSM   H17F12278  -0.006   7.094   4.828 -1.3002  1.3085  3.1362
  117OSM   H17G12279  -0.067   6.952   4.922 -1.6323  0.2822 -1.2456
  117OSM   C18F12280   0.095   6.894   4.799 -0.2411 -0.1577 -0.1369
  117OSM   H18F12281   0.181   6.936   4.741  0.0862 -1.2050 -0.4320
  117OSM   H18G12282   0.023   6.845   4.730 -0.2044 -1.2758  0.5934
  117OSM   H18H12283   0.124   6.808   4.862 -1.0755 -0.5008 -0.2196
  118OSM      N12284   2.505   4.730   6.868 -0.1634  0.2825 -0.7803
  118OSM    C1512285   2.552   4.604   6.924 -0.4855  0.1943 -0.1401
  118OSM   H15A12286   2.579   4.628   7.026  0.9716  1.2231 -0.7244
  118OSM   H15B12287   2.639   4.570   6.869 -0.6045 -0.9986  0.3861
  118OSM   H15C12288   2.480   4.523   6.924  1.1907 -1.4886  3.1038
  118OSM    C1412289   2.614   4.826   6.872 -0.6810 -0.1195  0.1002
  118OSM   H14A12290   2.582   4.924   6.839 -0.1594  0.6249  1.7049
  118OSM   H14B12291   2.689   4.790   6.804 -0.9227 -2.2225  0.8598
  118OSM   H14C12292   2.658   4.842   6.969  2.3782  0.7067 -1.2991
  118OSM    C1312293   2.468   4.715   6.724 -0.7725  0.2563 -0.2970
  118OSM   H13A12294   2.555   4.701   6.662 -0.5024 -0.5802  0.2434
  118OSM   H13B12295   2.405   4.800   6.701 -3.1089 -0.8514  1.5044
  118OSM   H13C12296   2.410   4.625   6.708 -1.7852  0.4390  1.9349
  118OSM    C1212297   2.383   4.783   6.949  0.2454 -0.0607 -0.1908
  118OSM   H12A12298   2.414   4.767   7.051  0.7588  0.1433 -0.3097
  118OSM   H12B12299   2.293   4.726   6.933  0.1541  0.3548 -1.2193
  118OSM    C1112300   2.347   4.931   6.925 -0.3686  0.4326  0.3688
  118OSM   H11A12301   2.255   4.949   6.985 -0.0944  0.4432  0.7888
  118OSM   H11B12302   2.336   4.947   6.816  1.0467 -1.1096 -0.0489
  118OSM      P12303   2.426   5.128   7.090 -0.0056  0.2095  0.3102
  118OSM    O1312304   2.356   5.056   7.206 -0.6115  1.0080  0.6378
  118OSM    O1412305   2.568   5.172   7.110  0.1036  0.2961 -0.2345
  118OSM    O1112306   2.340   5.244   7.029 -0.5866  0.3695 -0.0395
  118OSM    O1212307   2.449   5.021   6.973 -0.2188 -0.3590 -0.6965
  118OSM    C1S12308   2.393   5.348   6.947  0.5883 -0.9173 -0.1643
  118OSM    H1S12309   2.503   5.355   6.947  0.4567  2.9083 -0.2897
  118OSM    H1T12310   2.358   5.442   6.995 -1.9801 -1.3371 -1.0143
  118OSM     NF12311   2.407   5.445   6.726  0.3973  0.6778 -0.2989
  118OSM    HNF12312   2.341   5.518   6.711  0.2882  0.7593  0.5416
  118OSM    C2S12313   2.351   5.327   6.798 -0.3138  0.2489 -0.6809
  118OSM    H2S12314   2.393   5.231   6.759 -0.9321  0.0923 -0.9869
  118OSM    C3S12315   2.197   5.313   6.775 -0.0548  0.9715 -0.2281
  118OSM    H3S12316   2.148   5.402   6.820 -1.5485  1.1186 -1.9987
  118OSM     O312317   2.136   5.197   6.846  0.8569 -0.0131  0.3256
  118OSM    HO312318   2.199   5.173   6.915  0.8862 -0.3109  0.1954
  118OSM    C4S12319   2.158   5.310   6.632 -0.3747 -0.3971  0.2036
  118OSM    H4S12320   2.106   5.398   6.592 -1.5959 -1.3346 -0.3741
  118OSM    C5S12321   2.180   5.203   6.547  0.1298 -0.4783 -1.0440
  118OSM    H5S12322   2.204   5.102   6.582  1.2826 -0.6052 -2.1370
  118OSM    C6S12323   2.138   5.206   6.400 -0.6237 -0.0760 -0.0854
  118OSM    H6S12324   2.028   5.206   6.381 -0.0748 -1.2158 -4.2302
  118OSM    H6T12325   2.174   5.116   6.345 -0.9415  0.0767 -0.5550
  118OSM    C7S12326   2.181   5.334   6.331 -0.1916  0.6335  0.2181
  118OSM    H7S12327   2.291   5.351   6.340  0.2641 -1.3429 -1.0074
  118OSM    H7T12328   2.130   5.419   6.380 -1.3591 -0.1273  0.3830
  118OSM    C8S12329   2.147   5.340   6.177  0.2892  0.3275  0.5841
  118OSM    H8S12330   2.038   5.346   6.156 -0.0266  0.2690  2.1471
  118OSM    H8T12331   2.174   5.247   6.122 -0.7922  1.2662 -1.6721
  118OSM    C9S12332   2.229   5.449   6.100 -0.0082 -0.1247 -0.0115
  118OSM    H9S12333   2.334   5.435   6.133 -0.2581 -1.0079  0.4499
  118OSM    H9T12334   2.192   5.551   6.124  3.0555  1.1502 -0.2442
  118OSM   C10S12335   2.220   5.426   5.951 -0.7341 -0.4719 -0.0793
  118OSM   H10S12336   2.121   5.466   5.920  0.2379  2.1040 -0.1178
  118OSM   H10T12337   2.213   5.319   5.923  0.5797 -0.6328  0.1396
  118OSM   C11S12338   2.325   5.516   5.874  0.0865  0.7694 -0.3067
  118OSM   H11S12339   2.432   5.492   5.896 -0.1770  0.5120  0.7508
  118OSM   H11T12340   2.313   5.617   5.919  2.6959 -0.2125  3.0803
  118OSM   C12S12341   2.306   5.519   5.722  0.4739 -0.0899 -0.0171
  118OSM   H12S12342   2.203   5.559   5.711 -0.1017 -1.1406  1.2359
  118OSM   H12T12343   2.314   5.415   5.683  0.1882  0.0838 -0.5634
  118OSM   C13S12344   2.407   5.606   5.658 -0.0422 -0.4004 -0.8376
  118OSM   H13S12345   2.507   5.558   5.664  1.0890  1.7552 -1.3090
  118OSM   H13T12346   2.408   5.700   5.718 -1.0536  0.4416 -2.0810
  118OSM   C14S12347   2.388   5.643   5.506 -0.3299 -0.4589 -0.0682
  118OSM   H14S12348   2.388   5.548   5.448  1.8586 -1.7481  1.8433
  118OSM   H14T12349   2.478   5.694   5.467  1.1534 -2.1541  0.9780
  118OSM   C15S12350   2.269   5.722   5.471 -0.2947  0.4228  0.5475
  118OSM   H15S12351   2.285   5.821   5.518  0.9697  0.6537 -0.3367
  118OSM   H15T12352   2.184   5.664   5.513 -0.4523 -0.1791 -0.5430
  118OSM   C16S12353   2.247   5.739   5.317 -0.0526  0.0466 -0.8507
  118OSM   H16S12354   2.173   5.816   5.287 -1.6097 -0.7365  0.8222
  118OSM   H16T12355   2.195   5.650   5.275  0.4646 -0.1266 -1.1292
  118OSM   C17S12356   2.380   5.775   5.245 -0.0210 -0.5596  0.1582
  118OSM   H17S12357   2.446   5.687   5.229 -0.1207 -0.4106 -1.1895
  118OSM   H17T12358   2.444   5.846   5.302  1.6710 -1.2155 -0.8408
  118OSM   C18S12359   2.354   5.842   5.113  0.4290 -0.8152  0.3827
  118OSM   H18S12360   2.445   5.849   5.050 -0.3561  0.2627 -0.6978
  118OSM   H18T12361   2.323   5.948   5.117 -0.5705 -1.1114  0.7878
  118OSM   H18U12362   2.275   5.789   5.055  0.8336 -1.3766  0.3307
  118OSM    C1F12363   2.530   5.459   6.696 -0.6733  0.3865 -0.5630
  118OSM     OF12364   2.608   5.364   6.713 -0.7105 -0.4433  0.3040
  118OSM    C2F12365   2.562   5.600   6.653  0.6730 -0.5651  0.2374
  118OSM    H2F12366   2.659   5.630   6.697  1.4329 -1.2881 -0.8935
  118OSM    H2G12367   2.487   5.671   6.695  2.6072  1.9366 -0.3327
  118OSM    C3F12368   2.565   5.616   6.500  0.4951 -0.0379 -0.3895
  118OSM    H3F12369   2.624   5.543   6.441 -1.0141 -0.7820 -1.0360
  118OSM    H3G12370   2.602   5.720   6.488  1.1519  0.1562  2.5041
  118OSM    C4F12371   2.429   5.608   6.427 -0.4266 -0.3069 -0.1619
  118OSM    H4F12372   2.398   5.503   6.410 -0.4531  0.1701 -4.1158
  118OSM    H4G12373   2.450   5.648   6.326  4.4520 -0.2627  0.6190
  118OSM    C5F12374   2.309   5.684   6.481 -0.1499 -0.1514 -0.6530
  118OSM    H5F12375   2.347   5.780   6.523 -1.2215  0.2453 -0.5702
  118OSM    H5G12376   2.265   5.632   6.569  3.4351  1.6843  2.5505
  118OSM    C6F12377   2.206   5.710   6.374  0.6738  0.4265 -0.4124
  118OSM    H6F12378   2.154   5.618   6.340  0.8614 -0.3212  1.2456
  118OSM    H6G12379   2.248   5.763   6.286 -1.4987  0.3834 -1.5458
  118OSM    C7F12380   2.102   5.811   6.431  0.1554 -0.2633 -0.0298
  118OSM    H7F12381   2.165   5.878   6.493 -0.9766 -1.9270  3.1078
  118OSM    H7G12382   2.035   5.751   6.495  1.6060 -2.1746 -0.2046
  118OSM    C8F12383   2.031   5.877   6.318  0.5361  0.1039  0.3859
  118OSM    H8F12384   2.101   5.921   6.245 -0.7003 -2.6254 -2.7276
  118OSM    H8G12385   1.961   5.947   6.368 -0.2252 -1.1111  1.0981
  118OSM    C9F12386   1.937   5.781   6.249 -0.0170  0.3934 -0.0500
  118OSM    H9F12387   1.873   5.724   6.318  1.2858 -0.5661  0.3879
  118OSM   C10F12388   1.928   5.762   6.113  0.5470  0.4587 -0.6319
  118OSM   H10F12389   1.860   5.684   6.075 -2.4680  2.5229  0.1618
  118OSM   C11F12390   2.008   5.830   6.005  0.0490 -0.5171  0.1864
  118OSM   H11F12391   2.112   5.844   6.041  0.1099 -1.1014  0.2422
  118OSM   H11G12392   1.966   5.929   5.976  0.3866 -0.9368 -1.8443
  118OSM   C12F12393   1.999   5.755   5.872  0.2979  0.1357  0.3104
  118OSM   H12F12394   1.900   5.727   5.829  0.3855 -1.9316  1.3042
  118OSM   H12G12395   2.051   5.657   5.885 -1.1635 -0.8527 -0.8565
  118OSM   C13F12396   2.072   5.812   5.751  0.8893 -0.0416  0.2179
  118OSM   H13F12397   2.056   5.733   5.674  1.3316 -0.5599  0.6529
  118OSM   H13G12398   2.178   5.819   5.782  0.3698  1.1913  1.8542
  118OSM   C14F12399   2.029   5.945   5.704  0.0938  0.0738  0.4092
  118OSM   H14F12400   2.067   6.029   5.766 -0.7749  0.2396  0.7318
  118OSM   H14G12401   1.918   5.952   5.703  0.1162  0.4276 -0.3508
  118OSM   C15F12402   2.073   5.984   5.560 -0.2767  0.3868  0.3457
  118OSM   H15F12403   2.039   5.900   5.496  0.9271  1.6754 -2.1553
  118OSM   H15G12404   2.183   5.998   5.552 -0.3202  0.1318 -0.8814
  118OSM   C16F12405   1.993   6.104   5.504  0.9483 -0.3841 -0.6744
  118OSM   H16F12406   2.013   6.193   5.567  0.2203 -0.4927 -0.2823
  118OSM   H16G12407   1.885   6.081   5.500  0.3849  2.0767 -1.3946
  118OSM   C17F12408   2.048   6.146   5.367  0.7447 -0.6232  0.0029
  118OSM   H17F12409   2.005   6.244   5.336 -1.6191 -0.5140  3.1918
  118OSM   H17G12410   2.028   6.066   5.293  1.5700 -0.9344  0.1136
  118OSM   C18F12411   2.198   6.142   5.353  0.0883  0.1838 -0.6039
  118OSM   H18F12412   2.249   6.186   5.442  1.7235 -1.0952 -0.8483
  118OSM   H18G12413   2.211   6.201   5.260 -2.4017 -0.5867 -1.5046
  118OSM   H18H12414   2.243   6.041   5.340  2.5551  0.9605  1.0938
  119OSM      N12415   2.511   2.527   7.205  0.3238 -0.0507 -0.1460
  119OSM    C1512416   2.525   2.485   7.062  0.7559 -0.1623 -0.8288
  119OSM   H15A12417   2.606   2.415   7.052  1.5675  0.5324  0.5866
  119OSM   H15B12418   2.541   2.568   6.995  0.1931  1.0295  0.4586
  119OSM   H15C12419   2.433   2.436   7.033 -2.0001  3.3319  1.2029
  119OSM    C1412420   2.402   2.630   7.211  0.4963 -0.1512  0.1823
  119OSM   H14A12421   2.393   2.669   7.311 -0.0082 -2.5005  1.1326
  119OSM   H14B12422   2.310   2.584   7.179  0.8061 -0.8553  0.2854
  119OSM   H14C12423   2.420   2.713   7.145  1.0430 -0.7174 -0.4007
  119OSM    C1312424   2.478   2.410   7.294 -0.0492 -0.0136 -0.6427
  119OSM   H13A12425   2.396   2.352   7.253  0.0642 -0.4302 -0.2899
  119OSM   H13B12426   2.457   2.434   7.397 -0.7621 -1.8960 -0.2958
  119OSM   H13C12427   2.558   2.338   7.289 -1.4847 -1.7612  0.0411
  119OSM    C1212428   2.643   2.583   7.254 -0.8534 -0.2381  0.3703
  119OSM   H12A12429   2.720   2.509   7.238  0.6987  1.0992  1.3220
  119OSM   H12B12430   2.632   2.604   7.359 -0.4217  1.4995  0.1163
  119OSM    C1112431   2.691   2.723   7.194  0.6012  0.1743  0.3923
  119OSM   H11A12432   2.783   2.751   7.248  1.0797 -0.6841  0.0468
  119OSM   H11B12433   2.620   2.803   7.223  0.6694  1.1113 -1.8283
  119OSM      P12434   2.829   2.674   6.971  0.2902 -0.1053  0.5118
  119OSM    O1312435   2.938   2.775   6.985  0.1357  0.1206  0.2452
  119OSM    O1412436   2.858   2.534   7.015 -0.3912  0.1291  0.2862
  119OSM    O1112437   2.785   2.652   6.817  0.0154 -0.1782  0.3596
  119OSM    O1212438   2.696   2.730   7.049 -0.2798  0.2984 -0.2360
  119OSM    C1S12439   2.656   2.714   6.782 -0.3429 -0.6860 -0.6003
  119OSM    H1S12440   2.657   2.821   6.809  1.1161 -0.3196 -1.9796
  119OSM    H1T12441   2.571   2.668   6.837  0.2823  1.1301  2.0665
  119OSM     NF12442   2.490   2.726   6.599 -0.3184  0.1729  0.6916
  119OSM    HNF12443   2.404   2.679   6.584 -0.1450  0.4715 -1.4644
  119OSM    C2S12444   2.608   2.658   6.646  0.2841  1.2320  0.0368
  119OSM    H2S12445   2.695   2.685   6.582  0.0722  1.4870 -0.1463
  119OSM    C3S12446   2.612   2.502   6.640 -0.0612 -0.2292  0.4235
  119OSM    H3S12447   2.541   2.455   6.710 -0.5483  0.5201  0.4475
  119OSM     O312448   2.739   2.446   6.663 -0.7412  0.1669  0.1837
  119OSM    HO312449   2.780   2.515   6.715  0.5979 -2.3309  2.7348
  119OSM    C4S12450   2.573   2.472   6.497 -0.4262  0.4472 -0.0574
  119OSM    H4S12451   2.638   2.518   6.421 -0.2333  0.2950  0.0155
  119OSM    C5S12452   2.471   2.385   6.463 -0.4140 -0.3078 -0.1408
  119OSM    H5S12453   2.410   2.338   6.542  0.6006 -2.3427 -0.5003
  119OSM    C6S12454   2.434   2.345   6.322  0.2778  0.4510  0.2585
  119OSM    H6S12455   2.334   2.390   6.306  1.1267  2.5180  0.5191
  119OSM    H6T12456   2.416   2.235   6.318  1.4845  0.2044  0.8953
  119OSM    C7S12457   2.552   2.375   6.227 -0.0079 -0.6550  0.6573
  119OSM    H7S12458   2.649   2.342   6.271 -0.2112 -0.2576  1.4258
  119OSM    H7T12459   2.569   2.479   6.194  1.6109 -1.2528 -0.5091
  119OSM    C8S12460   2.536   2.283   6.094  0.5115 -0.7219 -0.1875
  119OSM    H8S12461   2.430   2.249   6.099 -0.1546  1.4162  2.3351
  119OSM    H8T12462   2.595   2.189   6.107 -0.3976 -1.2013  0.6208
  119OSM    C9S12463   2.544   2.343   5.958 -0.4002 -0.3406 -0.1525
  119OSM    H9S12464   2.649   2.351   5.922  0.3900 -0.4182  1.9769
  119OSM    H9T12465   2.508   2.448   5.949  1.6492  0.2671 -2.3225
  119OSM   C10S12466   2.481   2.265   5.839  0.0364  0.4746 -0.8365
  119OSM   H10S12467   2.377   2.254   5.877 -0.0082  0.6711 -0.9014
  119OSM   H10T12468   2.522   2.163   5.826  0.4996  0.2343  1.8831
  119OSM   C11S12469   2.479   2.331   5.706 -0.1562  0.1961 -0.1093
  119OSM   H11S12470   2.584   2.355   5.676 -0.1568  2.2235  1.3171
  119OSM   H11T12471   2.427   2.429   5.707  2.0474  1.4780 -1.6500
  119OSM   C12S12472   2.443   2.234   5.598 -0.0586  0.2552 -0.3052
  119OSM   H12S12473   2.341   2.191   5.611  0.9628 -2.7842 -1.4645
  119OSM   H12T12474   2.495   2.137   5.612  0.3430  0.6164  0.8876
  119OSM   C13S12475   2.468   2.293   5.458  0.1535 -0.2020  0.6377
  119OSM   H13S12476   2.579   2.297   5.449 -0.0129  1.1452 -1.5977
  119OSM   H13T12477   2.442   2.401   5.460 -0.5241 -0.3045 -1.1924
  119OSM   C14S12478   2.394   2.229   5.344  0.0350 -0.3767 -0.5672
  119OSM   H14S12479   2.287   2.257   5.331  0.3921  1.6474  0.4261
  119OSM   H14T12480   2.407   2.119   5.355 -1.4733 -0.5621 -0.4206
  119OSM   C15S12481   2.460   2.276   5.211 -0.0321 -0.3151 -0.4106
  119OSM   H15S12482   2.568   2.298   5.222 -0.1093  0.1958 -0.6065
  119OSM   H15T12483   2.411   2.372   5.182 -0.5478 -0.4967 -0.1428
  119OSM   C16S12484   2.437   2.176   5.094 -0.5359 -0.0403 -0.1007
  119OSM   H16S12485   2.458   2.217   4.993 -0.3572  1.0201  0.3514
  119OSM   H16T12486   2.331   2.141   5.094 -0.1626 -1.3397  1.6293
  119OSM   C17S12487   2.517   2.043   5.107  0.8056 -0.9343  0.1380
  119OSM   H17S12488   2.471   1.979   5.186 -1.3587  1.6399  1.1234
  119OSM   H17T12489   2.620   2.068   5.140  1.1899 -1.7041 -0.4468
  119OSM   C18S12490   2.515   1.948   4.990  0.4699 -0.7561 -0.4683
  119OSM   H18S12491   2.406   1.934   4.975 -0.0973  1.5145  1.0595
  119OSM   H18T12492   2.557   1.849   5.020  0.9898 -0.2415  0.5864
  119OSM   H18U12493   2.570   2.003   4.911 -2.0571 -0.0725 -1.8348
  119OSM    C1F12494   2.489   2.858   6.580 -0.2541  0.6836 -0.0220
  119OSM     OF12495   2.596   2.920   6.582  0.2645 -0.4956 -0.3632
  119OSM    C2F12496   2.347   2.915   6.568  0.1696  0.1678  0.3089
  119OSM    H2F12497   2.334   3.010   6.512  0.8370 -0.5740 -1.1722
  119OSM    H2G12498   2.310   2.936   6.671  0.1295 -0.3825  0.4100
  119OSM    C3F12499   2.244   2.827   6.496 -0.3777  0.5423 -1.1165
  119OSM    H3F12500   2.142   2.865   6.521 -2.2584 -2.3829 -3.6126
  119OSM    H3G12501   2.238   2.724   6.538  1.0980  1.2766  1.0613
  119OSM    C4F12502   2.247   2.833   6.341 -0.8338 -0.5298  0.5951
  119OSM    H4F12503   2.348   2.809   6.303 -0.4413  1.2495  0.4256
  119OSM    H4G12504   2.221   2.936   6.310  0.2154 -0.7874 -1.2708
  119OSM    C5F12505   2.155   2.728   6.276 -0.0646  0.3502 -0.1085
  119OSM    H5F12506   2.051   2.761   6.297 -0.0724 -0.0011  0.4185
  119OSM    H5G12507   2.159   2.626   6.320 -1.3320 -0.7114 -2.2947
  119OSM    C6F12508   2.175   2.709   6.126 -0.6100 -0.6532  0.8174
  119OSM    H6F12509   2.097   2.644   6.082 -1.2520  2.0414 -2.4874
  119OSM    H6G12510   2.270   2.654   6.107  0.2373  0.8685  0.4097
  119OSM    C7F12511   2.177   2.840   6.045  0.4119 -0.3305 -0.0662
  119OSM    H7F12512   2.275   2.891   6.057  0.9730 -1.6159  1.0673
  119OSM    H7G12513   2.096   2.900   6.092 -0.8876 -1.7035 -0.4559
  119OSM    C8F12514   2.154   2.827   5.892 -0.4533 -1.1863 -0.0115
  119OSM    H8F12515   2.158   2.927   5.845 -1.2479 -1.0412  0.2075
  119OSM    H8G12516   2.048   2.801   5.871 -0.5377 -0.7738 -0.0946
  119OSM    C9F12517   2.243   2.724   5.825 -0.1643  0.2626  0.3539
  119OSM    H9F12518   2.278   2.634   5.876 -0.1657 -0.2117 -0.4625
  119OSM   C10F12519   2.268   2.725   5.693  0.3236 -0.5238 -0.7438
  119OSM   H10F12520   2.336   2.652   5.647  0.3579 -0.3887 -0.9122
  119OSM   C11F12521   2.229   2.830   5.590 -0.4572  0.5318  0.5818
  119OSM   H11F12522   2.311   2.876   5.532 -1.2147 -0.5452 -1.4463
  119OSM   H11G12523   2.157   2.907   5.623 -0.6705  0.1523  1.0346
  119OSM   C12F12524   2.169   2.740   5.483  0.0154 -0.6115  0.2507
  119OSM   H12F12525   2.071   2.695   5.510 -1.2939  0.2403 -2.6298
  119OSM   H12G12526   2.240   2.661   5.451  1.1631  1.2649 -2.1543
  119OSM   C13F12527   2.140   2.814   5.350  0.1675 -0.4672  0.3523
  119OSM   H13F12528   2.222   2.879   5.311 -2.8021  3.2542 -0.2315
  119OSM   H13G12529   2.064   2.894   5.361 -0.2153  0.0666 -4.3036
  119OSM   C14F12530   2.081   2.731   5.240  0.1920  0.2852 -0.2406
  119OSM   H14F12531   2.011   2.658   5.286  1.7352 -0.4019  1.1428
  119OSM   H14G12532   2.153   2.683   5.170  0.3046  0.6880 -0.4043
  119OSM   C15F12533   1.983   2.808   5.140 -0.1851 -0.6888  0.4118
  119OSM   H15F12534   1.912   2.854   5.213 -1.2193  0.7531 -1.4272
  119OSM   H15G12535   1.929   2.736   5.075 -1.2383  0.3399  0.1097
  119OSM   C16F12536   2.056   2.905   5.042  0.4368 -0.7048  0.5006
  119OSM   H16F12537   2.151   2.952   5.077 -0.2245  0.8689  0.2769
  119OSM   H16G12538   1.983   2.986   5.018  0.6919 -0.7427 -0.4152
  119OSM   C17F12539   2.100   2.842   4.911  0.5635  0.5617 -0.2388
  119OSM   H17F12540   2.011   2.790   4.869  0.2218  1.9602 -1.3144
  119OSM   H17G12541   2.182   2.773   4.940 -0.6817 -0.8249  0.1057
  119OSM   C18F12542   2.149   2.937   4.803 -0.0539 -0.5104 -0.0247
  119OSM   H18F12543   2.067   2.955   4.730 -0.5137 -0.6927  0.4477
  119OSM   H18G12544   2.231   2.891   4.743  0.5233 -2.7393  2.3265
  119OSM   H18H12545   2.189   3.027   4.854  0.6103 -0.7513 -0.1093
  120OSM      N12546   5.598   1.248   7.151  0.1965  0.3656  0.1855
  120OSM    C1512547   5.580   1.188   7.292 -0.7547  0.3818  0.3941
  120OSM   H15A12548   5.600   1.269   7.360  0.6052  1.6409 -1.3967
  120OSM   H15B12549   5.644   1.102   7.301 -1.2014 -0.2927 -2.1058
  120OSM   H15C12550   5.478   1.171   7.321 -1.2833  1.9012 -0.4306
  120OSM    C1412551   5.560   1.393   7.164 -0.5569  0.4452  0.0066
  120OSM   H14A12552   5.456   1.409   7.187 -0.2581  2.2904  0.2459
  120OSM   H14B12553   5.573   1.443   7.069 -0.8912 -1.6717 -1.2348
  120OSM   H14C12554   5.627   1.443   7.233 -0.5989  0.0877  0.3090
  120OSM    C1312555   5.740   1.239   7.116 -0.2531 -0.2293  0.8037
  120OSM   H13A12556   5.773   1.267   7.017  1.5226  1.1668  1.7456
  120OSM   H13B12557   5.776   1.139   7.138 -0.6895 -0.4159  0.7005
  120OSM   H13C12558   5.802   1.305   7.173  1.3615  1.0690 -2.2256
  120OSM    C1212559   5.518   1.175   7.045  0.1746 -0.6484 -0.5124
  120OSM   H12A12560   5.564   1.085   7.007 -3.3576 -2.5890 -0.6375
  120OSM   H12B12561   5.522   1.242   6.960 -0.0193 -0.2930 -0.2441
  120OSM    C1112562   5.364   1.152   7.053  0.2839 -0.1485 -0.0267
  120OSM   H11A12563   5.341   1.121   6.949  0.0444 -2.1185  0.5577
  120OSM   H11B12564   5.310   1.248   7.067  1.0809  0.7832 -2.7227
  120OSM      P12565   5.339   0.906   7.147  0.2901  0.0536  0.1490
  120OSM    O1312566   5.476   0.870   7.180 -0.0882  0.2743 -0.1833
  120OSM    O1412567   5.235   0.852   7.239 -0.3351  0.8860  1.3303
  120OSM    O1112568   5.310   0.866   6.996 -0.0381 -0.2053  0.1719
  120OSM    O1212569   5.330   1.062   7.159  0.1764 -0.7409 -0.1193
  120OSM    C1S12570   5.282   0.732   6.959  0.1446 -0.1326  0.7897
  120OSM    H1S12571   5.203   0.690   7.026  0.3401 -0.2148  0.9703
  120OSM    H1T12572   5.373   0.669   6.963  0.1078 -0.4335 -1.5527
  120OSM     NF12573   5.198   0.587   6.773 -0.2521  0.1470 -0.4590
  120OSM    HNF12574   5.264   0.541   6.715 -0.2594  0.0069 -0.3570
  120OSM    C2S12575   5.222   0.729   6.808  0.3298  0.5069 -0.4927
  120OSM    H2S12576   5.128   0.785   6.827  0.2453  0.5560 -1.0451
  120OSM    C3S12577   5.315   0.802   6.709  0.2786  0.3897 -0.0387
  120OSM    H3S12578   5.418   0.765   6.694 -0.5925 -2.1485 -0.2471
  120OSM     O312579   5.335   0.936   6.745  0.2775 -0.2985  0.8128
  120OSM    HO312580   5.312   0.942   6.839 -2.3845 -0.3520  0.2587
  120OSM    C4S12581   5.247   0.804   6.571 -0.1191  0.0755 -0.3686
  120OSM    H4S12582   5.157   0.866   6.562  0.2614  0.4863 -1.4680
  120OSM    C5S12583   5.294   0.750   6.464 -0.4648 -0.5698 -0.5261
  120OSM    H5S12584   5.391   0.700   6.476  0.4267  1.0428 -0.7328
  120OSM    C6S12585   5.242   0.772   6.324  0.7445 -0.4995  0.4714
  120OSM    H6S12586   5.184   0.682   6.295 -0.0672  0.4660 -1.0235
  120OSM    H6T12587   5.332   0.773   6.258 -0.2462  0.1377 -0.9042
  120OSM    C7S12588   5.171   0.911   6.313 -0.2755  0.5065 -0.1313
  120OSM    H7S12589   5.238   0.989   6.354  1.4800 -0.1451 -1.6229
  120OSM    H7T12590   5.075   0.913   6.369 -0.0055  1.7183  0.3192
  120OSM    C8S12591   5.130   0.947   6.168 -0.5667 -0.1264 -0.2330
  120OSM    H8S12592   5.218   0.939   6.101 -0.8612 -1.9240 -0.4574
  120OSM    H8T12593   5.098   1.053   6.159 -2.0637 -0.6495 -1.6847
  120OSM    C9S12594   5.015   0.862   6.129  0.0252  0.4565 -0.1785
  120OSM    H9S12595   4.928   0.864   6.198 -1.8219 -0.5433 -2.3325
  120OSM    H9T12596   5.053   0.757   6.125 -1.9284 -0.2542 -1.7626
  120OSM   C10S12597   4.938   0.917   6.001  0.7385  0.1439  0.3726
  120OSM   H10S12598   4.838   0.871   5.987  0.2457  1.1479  0.5521
  120OSM   H10T12599   5.002   0.879   5.918  2.2701 -0.7891  1.9179
  120OSM   C11S12600   4.926   1.081   5.992  0.2694  0.4504  0.4047
  120OSM   H11S12601   5.031   1.115   5.978  0.2275 -0.4685 -3.0119
  120OSM   H11T12602   4.883   1.105   6.092 -0.6798  0.2045  0.0666
  120OSM   C12S12603   4.850   1.131   5.870  0.3812 -0.5767 -0.1528
  120OSM   H12S12604   4.741   1.138   5.889  0.4993  0.1580  0.2786
  120OSM   H12T12605   4.876   1.062   5.786  0.8411  1.2457 -1.5653
  120OSM   C13S12606   4.892   1.275   5.832 -0.3232  0.0964 -0.4849
  120OSM   H13S12607   5.003   1.277   5.830 -0.3183  0.0974 -0.2241
  120OSM   H13T12608   4.856   1.343   5.912  0.7263  0.3218 -0.1907
  120OSM   C14S12609   4.840   1.315   5.690  0.4896 -0.6749 -0.2998
  120OSM   H14S12610   4.846   1.425   5.676  3.4084 -0.6564  0.5776
  120OSM   H14T12611   4.734   1.288   5.669  0.6096 -0.4362 -1.2558
  120OSM   C15S12612   4.915   1.247   5.579  0.1769 -0.1126 -0.4010
  120OSM   H15S12613   4.861   1.150   5.571  0.6801 -0.5289  0.9695
  120OSM   H15T12614   5.021   1.217   5.596  0.0512 -1.0056 -1.0965
  120OSM   C16S12615   4.917   1.329   5.450  0.0612  0.6197  0.0316
  120OSM   H16S12616   4.988   1.414   5.452  0.1951  0.8253 -3.9141
  120OSM   H16T12617   4.819   1.379   5.432 -0.4503 -0.7421 -1.1440
  120OSM   C17S12618   4.947   1.250   5.320 -0.2347  0.4918 -0.0234
  120OSM   H17S12619   4.873   1.171   5.296  0.4962 -0.9041  1.9933
  120OSM   H17T12620   5.038   1.190   5.342  0.3104 -0.0127 -3.2520
  120OSM   C18S12621   4.967   1.339   5.200  0.3603 -0.4322  0.5007
  120OSM   H18S12622   5.050   1.411   5.215 -1.5619  2.2283 -0.8575
  120OSM   H18T12623   4.873   1.389   5.169  0.3255  0.2794  1.7139
  120OSM   H18U12624   4.986   1.275   5.111 -1.2117  2.4800 -2.1163
  120OSM    C1F12625   5.102   0.508   6.815  0.5943 -0.4317  0.7867
  120OSM     OF12626   5.024   0.551   6.897  0.2674 -0.2377 -0.2211
  120OSM    C2F12627   5.103   0.374   6.763 -0.1074  0.0921  0.3084
  120OSM    H2F12628   5.093   0.305   6.849 -1.4975 -0.4690 -0.2734
  120OSM    H2G12629   5.206   0.349   6.728 -0.6316  0.4984 -1.6842
  120OSM    C3F12630   4.991   0.344   6.661  0.4266  0.5881  0.0943
  120OSM    H3F12631   4.884   0.353   6.690  0.1365 -1.0546 -0.3825
  120OSM    H3G12632   5.000   0.238   6.630 -0.3316  0.4195  0.4341
  120OSM    C4F12633   4.984   0.437   6.532 -0.0723 -0.7914  0.4826
  120OSM    H4F12634   5.079   0.426   6.474 -0.3529  0.0537 -0.1655
  120OSM    H4G12635   4.998   0.542   6.566  1.5010 -1.8636  3.4136
  120OSM    C5F12636   4.871   0.416   6.438  0.4453  0.4707  0.7090
  120OSM    H5F12637   4.770   0.389   6.477  0.7044 -2.3620 -0.3520
  120OSM    H5G12638   4.892   0.324   6.380 -0.9684 -1.1535  2.6010
  120OSM    C6F12639   4.866   0.526   6.331  0.4323 -0.4877  0.3879
  120OSM    H6F12640   4.974   0.539   6.308  0.5196  0.1321  1.1073
  120OSM    H6G12641   4.848   0.631   6.364  0.6126 -0.5304  0.6268
  120OSM    C7F12642   4.780   0.486   6.207  0.5746 -0.1927 -0.1288
  120OSM    H7F12643   4.671   0.495   6.229  0.7235 -0.9327  0.9855
  120OSM    H7G12644   4.799   0.379   6.187  1.8081 -0.8970  3.9485
  120OSM    C8F12645   4.821   0.555   6.077  0.2884 -0.1090 -0.1875
  120OSM    H8F12646   4.920   0.517   6.045  1.3773  0.9418  1.7367
  120OSM    H8G12647   4.822   0.664   6.098  0.1404  0.3307 -2.2843
  120OSM    C9F12648   4.725   0.519   5.968 -0.4486  0.2286 -0.2015
  120OSM    H9F12649   4.621   0.545   5.989  0.1401  1.7375  0.9856
  120OSM   C10F12650   4.739   0.439   5.863 -0.6326  0.4580 -0.0736
  120OSM   H10F12651   4.653   0.418   5.798  0.4359  0.2516 -1.4692
  120OSM   C11F12652   4.859   0.367   5.805  0.4005  0.0712 -0.1131
  120OSM   H11F12653   4.845   0.258   5.818  0.3389 -0.0531 -1.1275
  120OSM   H11G12654   4.948   0.398   5.865  0.6375 -1.2616  0.2452
  120OSM   C12F12655   4.861   0.385   5.651  0.7745  0.1135 -0.0824
  120OSM   H12F12656   4.967   0.363   5.630  1.4915  2.2122  1.0047
  120OSM   H12G12657   4.844   0.490   5.618 -0.3740  0.3357  1.1218
  120OSM   C13F12658   4.774   0.294   5.567  0.5393 -0.1077  0.2587
  120OSM   H13F12659   4.674   0.343   5.570  1.8114  2.7841 -1.0044
  120OSM   H13G12660   4.758   0.195   5.616  0.9653 -0.7268 -0.8206
  120OSM   C14F12661   4.813   0.284   5.415  0.2243 -0.2036 -0.0586
  120OSM   H14F12662   4.911   0.235   5.400  0.0063 -0.2048 -1.6569
  120OSM   H14G12663   4.834   0.388   5.381  2.2713 -0.2792  0.8399
  120OSM   C15F12664   4.709   0.214   5.318 -0.4169  0.0915  0.2475
  120OSM   H15F12665   4.608   0.248   5.349 -0.4838  1.2089 -1.1148
  120OSM   H15G12666   4.716   0.105   5.339  2.1355 -0.0037 -0.7247
  120OSM   C16F12667   4.740   0.241   5.171 -0.6877 -0.2960 -0.6386
  120OSM   H16F12668   4.850   0.225   5.175 -0.7779 -0.8154 -0.1566
  120OSM   H16G12669   4.720   0.349   5.153 -1.1249 -0.5083 -1.4613
  120OSM   C17F12670   4.666   0.160   5.061 -0.5135  0.1074  0.0268
  120OSM   H17F12671   4.652   0.218   4.966  1.4639 -1.0233 -1.0188
  120OSM   H17G12672   4.560   0.141   5.087 -0.6143 -3.2465 -2.2341
  120OSM   C18F12673   4.733   0.022   5.027 -0.2840 -0.2258 -0.4528
  120OSM   H18F12674   4.828   0.022   4.970 -0.1088  0.3753 -0.1742
  120OSM   H18G12675   4.655  -0.037   4.975  0.2940  0.4854 -2.1879
  120OSM   H18H12676   4.774  -0.027   5.119 -0.0550  0.7742 -0.0065
  121OSM      N12677   1.406   3.407   7.536 -0.5071  0.2655 -0.2507
  121OSM    C1512678   1.554   3.438   7.535  0.0093 -0.4297  0.0873
  121OSM   H15A12679   1.585   3.500   7.452 -1.2265 -0.6779 -0.5922
  121OSM   H15B12680   1.606   3.344   7.526  2.2837  0.6246  1.3130
  121OSM   H15C12681   1.587   3.471   7.632 -0.5350 -0.2374  0.2100
  121OSM    C1412682   1.381   3.301   7.638  0.0502  0.3272 -0.6849
  121OSM   H14A12683   1.276   3.292   7.660  0.4983 -2.6165  0.6582
  121OSM   H14B12684   1.430   3.321   7.732  2.3483  1.3964 -2.0266
  121OSM   H14C12685   1.421   3.215   7.587  1.4793  0.9027 -0.5861
  121OSM    C1312686   1.345   3.530   7.578  0.7740 -0.3397  0.0317
  121OSM   H13A12687   1.370   3.611   7.510 -0.9671  0.8563  0.7392
  121OSM   H13B12688   1.368   3.553   7.682  2.4393 -0.8304 -0.1908
  121OSM   H13C12689   1.238   3.526   7.583  0.8326 -0.9968  3.2530
  121OSM    C1212690   1.366   3.357   7.397  0.5034  0.0134 -0.4647
  121OSM   H12A12691   1.267   3.317   7.413  0.7614 -0.0837  1.0203
  121OSM   H12B12692   1.440   3.281   7.377  1.2069  0.6510 -0.3165
  121OSM    C1112693   1.362   3.455   7.280  0.6514  0.4555  0.0488
  121OSM   H11A12694   1.291   3.539   7.299  2.0699  2.0907 -1.5724
  121OSM   H11B12695   1.312   3.402   7.196  0.5320 -0.0561  0.4321
  121OSM      P12696   1.596   3.420   7.168 -0.3353  0.2463 -0.2661
  121OSM    O1312697   1.724   3.498   7.176  0.6125  0.0952 -0.4878
  121OSM    O1412698   1.604   3.282   7.220 -0.1333  0.0945  0.4711
  121OSM    O1112699   1.545   3.416   7.019  0.0545 -0.4822 -0.8829
  121OSM    O1212700   1.490   3.501   7.251  0.1906 -0.0516  0.4419
  121OSM    C1S12701   1.533   3.530   6.944 -0.2832  0.4247  0.4439
  121OSM    H1S12702   1.567   3.620   7.000 -0.9171 -0.1692  1.8404
  121OSM    H1T12703   1.429   3.531   6.904  0.8259  0.6700 -2.7187
  121OSM     NF12704   1.622   3.620   6.738 -0.0033 -0.2160 -0.6146
  121OSM    HNF12705   1.584   3.606   6.647  0.4013  2.0090 -1.1920
  121OSM    C2S12706   1.617   3.508   6.814  0.4838 -0.1836  0.0048
  121OSM    H2S12707   1.717   3.478   6.851  0.2689 -0.4722  0.3567
  121OSM    C3S12708   1.561   3.389   6.737  0.2482 -0.2812  0.5904
  121OSM    H3S12709   1.465   3.421   6.690  0.4865 -0.8550 -0.2947
  121OSM     O312710   1.534   3.275   6.812 -0.4123  0.1330  0.0336
  121OSM    HO312711   1.514   3.311   6.898 -1.1411 -0.7445  0.2466
  121OSM    C4S12712   1.658   3.359   6.624  0.2448 -0.6356 -0.0489
  121OSM    H4S12713   1.616   3.393   6.528 -1.5096  1.8349  1.4759
  121OSM    C5S12714   1.763   3.270   6.630 -0.3206 -0.3400  0.1192
  121OSM    H5S12715   1.792   3.220   6.723 -0.7331  0.6333  0.7878
  121OSM    C6S12716   1.841   3.219   6.514  0.1967 -0.1123 -0.4422
  121OSM    H6S12717   1.828   3.109   6.504  0.5200 -0.1041 -0.9505
  121OSM    H6T12718   1.949   3.222   6.540  0.6307  1.6272 -2.2609
  121OSM    C7S12719   1.831   3.289   6.372  0.5866  0.0790 -0.0402
  121OSM    H7S12720   1.881   3.386   6.391 -0.9957  0.8453  0.3695
  121OSM    H7T12721   1.721   3.295   6.359  0.5369  1.2280  0.7984
  121OSM    C8S12722   1.901   3.215   6.259  0.6505 -0.1451  0.1951
  121OSM    H8S12723   1.843   3.122   6.241  0.6666  0.0283 -0.7740
  121OSM    H8T12724   2.009   3.200   6.282  1.0701  1.2703 -0.7765
  121OSM    C9S12725   1.879   3.295   6.126 -0.3238 -0.0102 -0.2386
  121OSM    H9S12726   1.895   3.402   6.147 -2.9142  0.1092  1.6545
  121OSM    H9T12727   1.775   3.272   6.094  0.5837 -2.4607 -1.7232
  121OSM   C10S12728   1.981   3.251   6.025  0.4084  0.4611 -0.1326
  121OSM   H10S12729   2.005   3.143   6.039 -2.2392 -0.3267 -0.9966
  121OSM   H10T12730   2.074   3.311   6.024  2.2139 -2.1269  0.9816
  121OSM   C11S12731   1.908   3.246   5.885 -0.4442 -0.0332 -0.3553
  121OSM   H11S12732   1.871   3.349   5.866 -1.3831 -0.3509 -0.2960
  121OSM   H11T12733   1.824   3.173   5.887  0.2145 -0.7881  0.3650
  121OSM   C12S12734   2.003   3.210   5.775  0.6675  0.0631  0.3134
  121OSM   H12S12735   2.027   3.101   5.781 -0.2972 -0.3739 -2.5215
  121OSM   H12T12736   2.097   3.266   5.789  0.3583  0.7258 -0.2344
  121OSM   C13S12737   1.933   3.233   5.641  0.3322  0.4447  0.8322
  121OSM   H13S12738   1.892   3.336   5.638 -2.5761 -0.5563  2.1448
  121OSM   H13T12739   1.845   3.164   5.644 -0.9295  2.0469  2.1214
  121OSM   C14S12740   2.023   3.180   5.521 -0.1103  0.1051  0.2788
  121OSM   H14S12741   2.050   3.076   5.547 -1.3117 -0.5112 -0.8531
  121OSM   H14T12742   2.115   3.243   5.514 -0.6542  0.8185 -0.8580
  121OSM   C15S12743   1.971   3.191   5.372  0.7376  0.5337  0.4992
  121OSM   H15S12744   1.894   3.270   5.382 -0.6217 -0.7375  0.4144
  121OSM   H15T12745   1.914   3.102   5.339 -0.8315  1.7886 -0.2609
  121OSM   C16S12746   2.073   3.233   5.270 -0.4597  0.5310  0.4812
  121OSM   H16S12747   2.132   3.142   5.247 -1.3184  0.0908 -0.0203
  121OSM   H16T12748   2.125   3.316   5.322  0.2619 -0.0098  0.6217
  121OSM   C17S12749   2.013   3.278   5.134  0.0402 -0.4633 -0.1484
  121OSM   H17S12750   1.947   3.361   5.167  1.0212 -0.1689  1.1781
  121OSM   H17T12751   1.957   3.194   5.088 -4.4293  1.0671  1.9917
  121OSM   C18S12752   2.120   3.339   5.043 -0.5045  0.7819 -0.1927
  121OSM   H18S12753   2.182   3.412   5.099  0.5972 -0.5221  0.3402
  121OSM   H18T12754   2.077   3.380   4.949 -1.5233 -0.1569 -0.1569
  121OSM   H18U12755   2.187   3.259   5.006 -1.4203  0.4180 -1.1207
  121OSM    C1F12756   1.687   3.734   6.769  0.2506 -0.3691 -0.4924
  121OSM     OF12757   1.728   3.752   6.886 -0.4117 -0.3283  0.0865
  121OSM    C2F12758   1.700   3.844   6.665  0.2552  0.1519 -0.7811
  121OSM    H2F12759   1.640   3.931   6.697  1.1750  1.2392 -1.9094
  121OSM    H2G12760   1.656   3.801   6.572 -0.8083 -0.5005  0.0021
  121OSM    C3F12761   1.840   3.908   6.650 -0.3140 -0.4943  0.3191
  121OSM    H3F12762   1.865   3.983   6.729  0.7467  0.8851 -1.2648
  121OSM    H3G12763   1.833   3.972   6.560 -0.2303 -0.4991  0.3088
  121OSM    C4F12764   1.954   3.806   6.636  0.3053 -0.0140 -0.5262
  121OSM    H4F12765   1.968   3.766   6.739 -0.1060  1.0486 -0.0408
  121OSM    H4G12766   2.043   3.872   6.628  0.5513 -0.0530  1.2987
  121OSM    C5F12767   1.936   3.707   6.521 -0.2160  0.5573  0.1889
  121OSM    H5F12768   1.842   3.649   6.536  1.4633 -1.9967  1.6152
  121OSM    H5G12769   2.018   3.632   6.516  1.0682  1.9447 -0.0724
  121OSM    C6F12770   1.925   3.775   6.394 -0.4384 -0.3498  0.6276
  121OSM    H6F12771   2.004   3.852   6.377 -0.3562 -0.5852 -0.0790
  121OSM    H6G12772   1.827   3.827   6.388  1.1732  2.9284  0.3501
  121OSM    C7F12773   1.925   3.672   6.281  0.5233  0.3055  0.3446
  121OSM    H7F12774   1.860   3.586   6.309 -0.5839  1.1870  0.5704
  121OSM    H7G12775   2.025   3.623   6.278 -0.3186 -1.5401  1.2245
  121OSM    C8F12776   1.888   3.726   6.143  0.2605 -0.2833  0.1953
  121OSM    H8F12777   1.797   3.790   6.145  0.0578 -0.4527 -1.8612
  121OSM    H8G12778   1.857   3.640   6.079 -0.9460  1.0373 -1.0783
  121OSM    C9F12779   2.010   3.800   6.078  0.5377 -0.0567  0.0564
  121OSM    H9F12780   2.026   3.901   6.119 -1.1161  0.2043  0.1514
  121OSM   C10F12781   2.089   3.754   5.982 -0.8889 -0.6271 -0.4641
  121OSM   H10F12782   2.168   3.821   5.944 -2.0253  0.4643 -0.9803
  121OSM   C11F12783   2.073   3.619   5.912  0.5280  0.2947  0.0200
  121OSM   H11F12784   2.005   3.553   5.969  0.6055  1.5237  1.6311
  121OSM   H11G12785   2.173   3.573   5.925 -0.4930 -2.2616 -0.7264
  121OSM   C12F12786   2.054   3.619   5.761  0.5945  0.4273  0.3840
  121OSM   H12F12787   1.954   3.663   5.739  0.4067 -0.1465  0.0581
  121OSM   H12G12788   2.042   3.517   5.719  1.8544 -0.6109  2.3711
  121OSM   C13F12789   2.169   3.692   5.689  0.8046 -0.4393  0.1112
  121OSM   H13F12790   2.265   3.636   5.702  1.5423  0.8051  0.1543
  121OSM   H13G12791   2.183   3.799   5.713  2.0683 -0.2118 -1.4709
  121OSM   C14F12792   2.137   3.697   5.544  0.2674  0.9139  0.2268
  121OSM   H14F12793   2.044   3.755   5.533  0.1688  1.6335  3.7788
  121OSM   H14G12794   2.121   3.588   5.526 -0.7699  1.0860  0.0540
  121OSM   C15F12795   2.243   3.763   5.465 -0.7366 -0.0343 -0.0539
  121OSM   H15F12796   2.346   3.725   5.482 -0.7740  0.3619  1.1911
  121OSM   H15G12797   2.237   3.871   5.487 -2.1540  0.0880 -0.8999
  121OSM   C16F12798   2.215   3.751   5.313  0.7115 -0.0667 -0.7030
  121OSM   H16F12799   2.107   3.758   5.286  0.4708  1.6496  0.5506
  121OSM   H16G12800   2.255   3.652   5.281  0.0954 -0.7710  0.6513
  121OSM   C17F12801   2.285   3.858   5.238 -0.0828 -0.0136 -0.3070
  121OSM   H17F12802   2.396   3.846   5.236 -0.1567 -1.0554  0.9432
  121OSM   H17G12803   2.273   3.954   5.294 -1.7342 -0.1519 -0.4034
  121OSM   C18F12804   2.238   3.867   5.098  0.2240 -0.1098 -0.3579
  121OSM   H18F12805   2.256   3.775   5.038  2.1666 -0.2659  0.3894
  121OSM   H18G12806   2.298   3.941   5.040 -1.4049  1.9491  0.4447
  121OSM   H18H12807   2.129   3.892   5.096  0.2579  0.5045  2.3293
  122OSM      N12808   5.431   0.387   7.325 -0.0628  0.1803  0.3041
  122OSM    C1512809   5.583   0.401   7.342 -0.4529  0.0471 -0.0168
  122OSM   H15A12810   5.627   0.302   7.336 -0.6142 -0.1361  1.4039
  122OSM   H15B12811   5.609   0.457   7.431 -2.5501 -0.6509  1.0984
  122OSM   H15C12812   5.621   0.464   7.263  1.9656 -0.0710  0.9554
  122OSM    C1412813   5.382   0.278   7.413 -0.1869  0.2732  0.1439
  122OSM   H14A12814   5.417   0.299   7.513 -0.8679 -1.7816  0.8619
  122OSM   H14B12815   5.415   0.181   7.379 -0.0069 -0.3266  1.9270
  122OSM   H14C12816   5.275   0.273   7.405 -0.1740 -1.7726  0.6540
  122OSM    C1312817   5.356   0.518   7.368  0.5433  0.8027  0.1685
  122OSM   H13A12818   5.251   0.495   7.370  0.4759  1.1675  1.5033
  122OSM   H13B12819   5.376   0.599   7.299  1.2245  0.0851 -0.5000
  122OSM   H13C12820   5.380   0.553   7.467  1.3390  1.4670 -0.2382
  122OSM    C1212821   5.397   0.357   7.178 -0.5304  0.7482  0.3036
  122OSM   H12A12822   5.290   0.352   7.164 -0.7464 -0.1057  1.9520
  122OSM   H12B12823   5.428   0.255   7.161 -1.2802  0.9674 -3.0950
  122OSM    C1112824   5.465   0.444   7.072  0.5051  0.2412 -0.7791
  122OSM   H11A12825   5.461   0.548   7.109  0.2325 -0.6590  1.9150
  122OSM   H11B12826   5.396   0.441   6.985  0.7250  1.2917 -1.0009
  122OSM      P12827   5.644   0.266   6.961 -0.0674  0.2786 -0.6836
  122OSM    O1312828   5.791   0.260   6.958 -0.2426  0.2370  0.5767
  122OSM    O1412829   5.567   0.156   7.022  0.5045  0.1174  0.3802
  122OSM    O1112830   5.584   0.302   6.820  0.2603 -0.7391  1.1410
  122OSM    O1212831   5.600   0.402   7.037 -0.0431  0.0082  0.0881
  122OSM    C1S12832   5.645   0.243   6.702 -0.2730 -0.3106 -0.1975
  122OSM    H1S12833   5.683   0.139   6.714  0.6331 -0.1845 -1.7871
  122OSM    H1T12834   5.726   0.301   6.654 -2.6402  0.8130 -3.1185
  122OSM     NF12835   5.627   0.185   6.461  0.6137  0.2001 -0.1682
  122OSM    HNF12836   5.647   0.250   6.387  0.0297  2.0801  1.2451
  122OSM    C2S12837   5.549   0.237   6.578 -0.2528 -0.1175 -0.3559
  122OSM    H2S12838   5.475   0.160   6.610  0.0494  0.0243  0.7344
  122OSM    C3S12839   5.482   0.380   6.551 -0.4042 -0.4089  1.1573
  122OSM    H3S12840   5.559   0.451   6.514 -0.5344 -0.2200  1.2485
  122OSM     O312841   5.416   0.441   6.658 -0.4051  0.0246  0.0397
  122OSM    HO312842   5.439   0.382   6.730 -0.0389  1.3702  1.0819
  122OSM    C4S12843   5.391   0.378   6.434 -0.4951 -0.0380  0.8941
  122OSM    H4S12844   5.289   0.353   6.468 -0.7031 -0.2276  0.1403
  122OSM    C5S12845   5.412   0.415   6.300 -0.1901 -0.0172 -0.2137
  122OSM    H5S12846   5.516   0.441   6.276  0.1710 -0.5919  0.6654
  122OSM    C6S12847   5.314   0.423   6.194 -0.0491 -0.1726  0.2931
  122OSM    H6S12848   5.277   0.527   6.181 -2.3115 -0.8834  0.5739
  122OSM    H6T12849   5.227   0.359   6.221 -0.2700  0.0949  0.2154
  122OSM    C7S12850   5.371   0.398   6.056  0.0600 -0.5078 -0.0558
  122OSM    H7S12851   5.391   0.289   6.064  1.9011 -0.0500  3.0025
  122OSM    H7T12852   5.473   0.441   6.055 -0.6528  1.3659 -2.2506
  122OSM    C8S12853   5.284   0.425   5.936 -0.3373 -0.2636 -0.2808
  122OSM    H8S12854   5.263   0.534   5.924  1.0555  0.1958  1.1644
  122OSM    H8T12855   5.184   0.376   5.936 -1.2000  1.4109  0.3623
  122OSM    C9S12856   5.356   0.391   5.811 -0.0178  0.3728  0.5704
  122OSM    H9S12857   5.397   0.289   5.795  0.2675  0.5549  0.1230
  122OSM    H9T12858   5.444   0.456   5.791 -1.0254  0.8947 -2.9503
  122OSM   C10S12859   5.265   0.419   5.696 -0.1192  0.5942  0.6613
  122OSM   H10S12860   5.265   0.529   5.680  2.0375  0.5276 -0.2273
  122OSM   H10T12861   5.165   0.377   5.720 -0.3544 -0.6711 -2.0738
  122OSM   C11S12862   5.320   0.348   5.566  0.1610 -0.4256 -0.1634
  122OSM   H11S12863   5.318   0.242   5.601 -1.6469 -0.2710  0.3220
  122OSM   H11T12864   5.425   0.383   5.551  0.1431  0.3633  1.2841
  122OSM   C12S12865   5.227   0.353   5.445  0.8889  0.5102 -0.1612
  122OSM   H12S12866   5.122   0.340   5.478  1.3164 -2.0088  0.3676
  122OSM   H12T12867   5.247   0.263   5.384 -0.8670 -0.2652  0.3502
  122OSM   C13S12868   5.237   0.485   5.358  0.2418 -0.4426 -0.4573
  122OSM   H13S12869   5.342   0.497   5.324  0.3086 -0.6654 -0.3265
  122OSM   H13T12870   5.220   0.573   5.423 -1.8460 -1.2178  0.1493
  122OSM   C14S12871   5.135   0.494   5.248 -0.8301 -0.2599 -0.7125
  122OSM   H14S12872   5.147   0.594   5.201 -0.1142  0.7216  1.4122
  122OSM   H14T12873   5.034   0.477   5.289 -1.0194  1.2421 -0.4831
  122OSM   C15S12874   5.154   0.387   5.139 -0.6527  0.6683 -0.3826
  122OSM   H15S12875   5.131   0.289   5.185 -0.7370  0.7819 -0.1830
  122OSM   H15T12876   5.260   0.385   5.105 -0.4680 -0.2707  0.2215
  122OSM   C16S12877   5.069   0.417   5.012  0.4299  0.6410  0.3038
  122OSM   H16S12878   5.105   0.511   4.965  1.1467  0.8523  1.2455
  122OSM   H16T12879   4.963   0.421   5.045  0.3959 -0.1921  0.3341
  122OSM   C17S12880   5.070   0.305   4.898 -0.2567 -0.0356 -0.6012
  122OSM   H17S12881   5.041   0.205   4.937  0.2001 -0.3388 -1.0328
  122OSM   H17T12882   5.174   0.302   4.860  0.0829 -2.3930  0.3550
  122OSM   C18S12883   4.979   0.333   4.784  0.5991  0.9071 -0.3649
  122OSM   H18S12884   4.970   0.441   4.761 -1.2665  0.4074 -2.2591
  122OSM   H18T12885   4.878   0.295   4.811  0.4868  1.4366 -0.0341
  122OSM   H18U12886   5.005   0.276   4.692  0.2389  0.3564 -0.1335
  122OSM    C1F12887   5.669   0.057   6.454 -0.1578 -0.2072 -0.2901
  122OSM     OF12888   5.641  -0.019   6.547  0.5796 -0.6502  0.0425
  122OSM    C2F12889   5.730   0.003   6.324  0.2401 -0.0057 -0.5665
  122OSM    H2F12890   5.823   0.060   6.303  0.2058  0.4429  0.4680
  122OSM    H2G12891   5.651   0.022   6.248 -0.0830 -1.0373 -0.5044
  122OSM    C3F12892   5.750  -0.149   6.312  0.4307 -0.1584 -0.2426
  122OSM    H3F12893   5.648  -0.186   6.333 -0.7069  0.9160 -3.2327
  122OSM    H3G12894   5.815  -0.176   6.398 -0.1891  1.7828  0.8997
  122OSM    C4F12895   5.804  -0.198   6.180  0.5942 -0.0899  1.0976
  122OSM    H4F12896   5.850  -0.299   6.189  4.1278  0.9017 -2.7746
  122OSM    H4G12897   5.890  -0.135   6.147  1.6826 -0.8989  2.2682
  122OSM    C5F12898   5.693  -0.217   6.072  0.7899 -0.1846  0.7208
  122OSM    H5F12899   5.641  -0.122   6.047  3.5761  1.6141  1.3135
  122OSM    H5G12900   5.621  -0.279   6.129 -1.2638  3.3021  2.2472
  122OSM    C6F12901   5.743  -0.292   5.948 -0.0630 -0.4468 -0.6440
  122OSM    H6F12902   5.798  -0.378   5.992  3.2665  1.5297 -0.6601
  122OSM    H6G12903   5.825  -0.237   5.897 -0.0012 -1.2169 -1.3896
  122OSM    C7F12904   5.642  -0.343   5.847  0.0779  0.6104 -0.8441
  122OSM    H7F12905   5.583  -0.257   5.807  1.1074  1.2096 -1.1139
  122OSM    H7G12906   5.579  -0.410   5.909  1.5943  0.1063  0.2368
  122OSM    C8F12907   5.695  -0.406   5.714  0.4884 -0.7664 -0.9990
  122OSM    H8F12908   5.764  -0.332   5.667  0.7489  0.2720  0.9328
  122OSM    H8G12909   5.617  -0.445   5.645  0.5004 -2.5963 -0.0337
  122OSM    C9F12910   5.777  -0.524   5.753  0.0791  0.1167 -0.0963
  122OSM    H9F12911   5.854  -0.501   5.828  1.6161  1.9661 -2.1071
  122OSM   C10F12912   5.774  -0.644   5.696 -0.0803 -0.3373 -0.2743
  122OSM   H10F12913   5.863  -0.702   5.725  0.2348  0.5749  0.6410
  122OSM   C11F12914   5.678  -0.713   5.600 -0.2573 -0.7051  0.2227
  122OSM   H11F12915   5.589  -0.647   5.589  0.4497  0.4909  1.4305
  122OSM   H11G12916   5.637  -0.807   5.641  1.5511 -1.0570  1.2930
  122OSM   C12F12917   5.737  -0.733   5.462 -0.0175 -0.8690 -0.1914
  122OSM   H12F12918   5.823  -0.804   5.454  1.1716  0.5795 -0.6851
  122OSM   H12G12919   5.786  -0.639   5.429  2.8287 -1.4693  1.9338
  122OSM   C13F12920   5.622  -0.775   5.369 -0.0453  0.1895  0.7488
  122OSM   H13F12921   5.530  -0.714   5.386 -0.7502 -1.0449  1.5118
  122OSM   H13G12922   5.596  -0.880   5.394  1.8756 -0.6297 -0.4797
  122OSM   C14F12923   5.657  -0.767   5.219  0.1059  0.1180 -0.0997
  122OSM   H14F12924   5.742  -0.835   5.195  0.7516  0.5989  0.7346
  122OSM   H14G12925   5.666  -0.658   5.198 -2.0558  0.2111 -0.7471
  122OSM   C15F12926   5.542  -0.801   5.122 -0.1026 -0.3415 -0.8496
  122OSM   H15F12927   5.495  -0.889   5.171 -1.3058  0.5213 -0.4114
  122OSM   H15G12928   5.589  -0.831   5.025  0.0719  0.8994 -1.1652
  122OSM   C16F12929   5.441  -0.683   5.094 -0.6264 -0.0598 -0.0321
  122OSM   H16F12930   5.492  -0.594   5.050 -0.0681 -0.8239 -0.9496
  122OSM   H16G12931   5.401  -0.662   5.196 -1.2006  0.3760 -0.3432
  122OSM   C17F12932   5.326  -0.724   5.000  0.3979  0.6914  0.2540
  122OSM   H17F12933   5.365  -0.751   4.900 -2.4854  1.6403 -1.2454
  122OSM   H17G12934   5.263  -0.633   4.988 -0.7842 -0.2181 -0.7315
  122OSM   C18F12935   5.235  -0.843   5.044 -0.1612 -0.4032 -0.7162
  122OSM   H18F12936   5.288  -0.941   5.047 -1.0765 -1.0075  3.7655
  122OSM   H18G12937   5.142  -0.857   4.986 -1.1957 -0.0127  0.7935
  122OSM   H18H12938   5.203  -0.828   5.150 -0.1079 -0.5049 -0.6859
  123OSM      N12939   4.363   1.419   2.686 -0.1867  0.1395 -0.1034
  123OSM    C1512940   4.482   1.340   2.737 -0.5871  0.2718  0.0525
  123OSM   H15A12941   4.571   1.400   2.745 -1.1385  0.9299  1.4818
  123OSM   H15B12942   4.527   1.267   2.671  0.3595  0.6188  0.2981
  123OSM   H15C12943   4.460   1.293   2.831 -1.5243 -0.8175 -0.6757
  123OSM    C1412944   4.389   1.494   2.558 -0.4357 -0.0061  0.4017
  123OSM   H14A12945   4.298   1.551   2.544 -1.5323 -1.4932  1.1941
  123OSM   H14B12946   4.394   1.434   2.468 -4.0792 -2.4033  1.5518
  123OSM   H14C12947   4.475   1.558   2.559  1.3881 -2.2684 -0.9879
  123OSM    C1312948   4.256   1.314   2.649 -0.6994 -0.3728  0.0441
  123OSM   H13A12949   4.293   1.254   2.567 -0.5844 -1.9077  1.1750
  123OSM   H13B12950   4.169   1.363   2.609 -1.0345  0.3432  1.5546
  123OSM   H13C12951   4.228   1.255   2.735  1.1139  0.4568  1.2814
  123OSM    C1212952   4.309   1.510   2.797 -0.0094  0.4221 -0.0782
  123OSM   H12A12953   4.280   1.448   2.881  1.4463  0.5362  0.5462
  123OSM   H12B12954   4.227   1.566   2.757  0.7962  0.5245 -1.6501
  123OSM    C1112955   4.404   1.617   2.857  0.6802  0.0029 -0.2206
  123OSM   H11A12956   4.490   1.554   2.889 -0.7973 -2.2643 -0.4542
  123OSM   H11B12957   4.361   1.674   2.942  0.9545  2.2094 -1.5004
  123OSM      P12958   4.380   1.852   2.737 -0.0220  0.0308  0.0125
  123OSM    O1312959   4.482   1.950   2.692 -0.8168  0.5930 -0.6771
  123OSM    O1412960   4.258   1.837   2.649 -0.4830 -0.4909 -0.0451
  123OSM    O1112961   4.339   1.908   2.883  0.2123  0.4406  0.7999
  123OSM    O1212962   4.441   1.707   2.757  0.3521  0.1757  0.1130
  123OSM    C1S12963   4.423   2.017   2.932  0.2996  0.2717 -0.3545
  123OSM    H1S12964   4.420   2.104   2.862  1.9262  0.9004  0.3062
  123OSM    H1T12965   4.527   1.983   2.945  0.4202  0.4767 -0.7537
  123OSM     NF12966   4.452   2.185   3.105 -0.1637  0.2730 -0.3550
  123OSM    HNF12967   4.532   2.181   3.164  1.2134 -1.1490 -2.1992
  123OSM    C2S12968   4.370   2.072   3.069 -0.0954 -0.3162 -1.1701
  123OSM    H2S12969   4.264   2.105   3.062 -0.3489 -0.9995 -0.5991
  123OSM    C3S12970   4.375   1.952   3.165 -0.0998 -0.4857 -0.1999
  123OSM    H3S12971   4.477   1.917   3.191  0.7390  0.7531 -1.6421
  123OSM     O312972   4.308   1.833   3.124  0.1875  0.0511 -0.0227
  123OSM    HO312973   4.271   1.847   3.037  2.9066 -0.9200 -1.4614
  123OSM    C4S12974   4.313   1.994   3.296 -0.1323  0.1717  0.2379
  123OSM    H4S12975   4.204   1.982   3.300 -0.0751 -1.4842 -1.4064
  123OSM    C5S12976   4.377   2.046   3.397  0.1840  0.5584 -0.1464
  123OSM    H5S12977   4.487   2.046   3.397  0.2033 -0.4809  0.9697
  123OSM    C6S12978   4.310   2.076   3.521  0.7777 -0.2413  0.1035
  123OSM    H6S12979   4.303   2.187   3.532  0.2042 -0.3345  0.7609
  123OSM    H6T12980   4.378   2.039   3.600 -0.1812 -0.2799  0.9369
  123OSM    C7S12981   4.171   2.019   3.557 -0.4212 -0.1102 -0.0944
  123OSM    H7S12982   4.168   1.909   3.546  5.0833 -0.3849 -2.2068
  123OSM    H7T12983   4.087   2.047   3.489  0.1425 -2.3750 -1.8499
  123OSM    C8S12984   4.123   2.060   3.702 -0.3690  0.5245  0.0526
  123OSM    H8S12985   4.015   2.035   3.710 -0.1305 -0.4178  0.4635
  123OSM    H8T12986   4.138   2.169   3.720 -0.6621  0.5467  0.1680
  123OSM    C9S12987   4.199   1.988   3.816 -0.0003 -0.0047 -0.0610
  123OSM    H9S12988   4.306   2.017   3.806  0.6523 -2.6775 -1.9021
  123OSM    H9T12989   4.192   1.877   3.808 -0.6312  0.1622 -2.8807
  123OSM   C10S12990   4.155   2.035   3.956  0.2644  0.3587  0.2742
  123OSM   H10S12991   4.070   1.969   3.983  0.8630 -0.2231  0.8028
  123OSM   H10T12992   4.122   2.141   3.956 -1.1968 -0.0421  2.0585
  123OSM   C11S12993   4.260   2.026   4.068 -0.1450 -0.2347  0.6615
  123OSM   H11S12994   4.326   2.115   4.081  0.0815 -0.2776 -0.1160
  123OSM   H11T12995   4.338   1.957   4.029  2.1806  2.2619  0.5666
  123OSM   C12S12996   4.215   1.988   4.210 -0.4466 -0.2008  0.4177
  123OSM   H12S12997   4.305   1.972   4.273 -0.9363 -0.4385  1.0757
  123OSM   H12T12998   4.157   1.894   4.203  0.5096 -0.7733  0.1802
  123OSM   C13S12999   4.129   2.099   4.275 -0.2389  1.1038 -0.0989
  123OSM   H13S13000   4.043   2.119   4.208 -1.3664  0.8557  1.2360
  123OSM   H13T13001   4.190   2.191   4.285  1.4035  0.2606 -1.6226
  123OSM   C14S13002   4.083   2.052   4.415  0.0464  0.0031 -0.2636
  123OSM   H14S13003   4.164   1.990   4.459  0.6713  0.8597 -0.1940
  123OSM   H14T13004   4.003   1.976   4.397  3.9013 -3.9017 -3.1173
  123OSM   C15S13005   4.048   2.167   4.503  0.3764  0.1974 -0.4587
  123OSM   H15S13006   3.997   2.249   4.449  1.7459  1.7895  0.5813
  123OSM   H15T13007   4.139   2.207   4.553  0.9817 -0.7267 -0.7758
  123OSM   C16S13008   3.948   2.112   4.614  0.3597  0.3408  0.5408
  123OSM   H16S13009   4.007   2.039   4.673 -0.5905 -0.8144  0.1021
  123OSM   H16T13010   3.863   2.074   4.553  1.0243  3.2425 -2.4679
  123OSM   C17S13011   3.896   2.232   4.696  0.3723  0.0330  0.0241
  123OSM   H17S13012   3.837   2.293   4.625  0.1847 -1.3473 -1.0618
  123OSM   H17T13013   3.967   2.300   4.748 -1.4723  1.4662  0.7915
  123OSM   C18S13014   3.800   2.182   4.804  0.0821 -0.2806  0.0957
  123OSM   H18S13015   3.852   2.112   4.873  1.2158  0.3086 -0.1406
  123OSM   H18T13016   3.716   2.129   4.753 -0.9728  0.5312  0.9469
  123OSM   H18U13017   3.767   2.262   4.874  2.6119 -0.2715  1.3999
  123OSM    C1F13018   4.426   2.305   3.048  0.3446  0.3375 -0.2758
  123OSM     OF13019   4.325   2.321   2.978 -0.9456  0.8650  0.3962
  123OSM    C2F13020   4.532   2.415   3.058 -0.0836  0.7861  0.0616
  123OSM    H2F13021   4.552   2.453   2.956 -0.4498 -1.1287 -0.7729
  123OSM    H2G13022   4.622   2.368   3.103 -0.7232 -1.7737 -1.1599
  123OSM    C3F13023   4.494   2.528   3.155  0.1757 -0.0008 -0.0850
  123OSM    H3F13024   4.403   2.583   3.123  0.7036  0.6804 -0.4852
  123OSM    H3G13025   4.584   2.595   3.154  0.7633 -0.5773  3.3972
  123OSM    C4F13026   4.494   2.473   3.298  0.4781 -0.3882 -0.0899
  123OSM    H4F13027   4.602   2.460   3.319  0.5501  2.6635  2.1735
  123OSM    H4G13028   4.439   2.376   3.304 -0.7862  0.3656  1.2583
  123OSM    C5F13029   4.439   2.570   3.405  0.3563  0.9475  0.0031
  123OSM    H5F13030   4.334   2.582   3.372  0.8158  1.8217 -1.2443
  123OSM    H5G13031   4.503   2.660   3.399  1.0728  0.4075 -0.7920
  123OSM    C6F13032   4.471   2.501   3.539 -0.1665 -0.9389 -0.8840
  123OSM    H6F13033   4.577   2.468   3.532  0.4330  0.1995  1.6633
  123OSM    H6G13034   4.411   2.408   3.532 -0.3498 -0.8310 -0.7655
  123OSM    C7F13035   4.432   2.595   3.659 -0.6622  0.5040 -0.0917
  123OSM    H7F13036   4.321   2.600   3.663 -0.7677 -0.7778 -0.9273
  123OSM    H7G13037   4.477   2.692   3.629  0.9369 -0.1464  0.1229
  123OSM    C8F13038   4.495   2.545   3.794 -0.2106 -0.9823 -0.3654
  123OSM    H8F13039   4.484   2.626   3.869  1.2311  2.5244 -3.6175
  123OSM    H8G13040   4.604   2.533   3.777  0.0649 -1.2317  1.4170
  123OSM    C9F13041   4.424   2.415   3.826  0.3493 -0.2858  0.4729
  123OSM    H9F13042   4.455   2.330   3.764 -2.8756 -0.2012 -1.4377
  123OSM   C10F13043   4.341   2.396   3.929 -0.2563 -0.0504 -0.4102
  123OSM   H10F13044   4.296   2.296   3.940 -0.2715  0.0563  0.6406
  123OSM   C11F13045   4.282   2.500   4.016 -0.3769  0.4940  0.7509
  123OSM   H11F13046   4.204   2.546   3.952 -0.8774  1.3396  1.9388
  123OSM   H11G13047   4.353   2.584   4.032 -2.2725  2.4697 -0.6436
  123OSM   C12F13048   4.224   2.447   4.148  1.0296  0.5102  0.6321
  123OSM   H12F13049   4.292   2.379   4.204  1.5925 -0.0343 -0.6470
  123OSM   H12G13050   4.134   2.387   4.125  1.6685 -0.0598 -0.5153
  123OSM   C13F13051   4.197   2.555   4.250  0.0426 -1.4378  1.3289
  123OSM   H13F13052   4.118   2.623   4.212  1.9519 -0.3006 -0.9250
  123OSM   H13G13053   4.286   2.621   4.252 -0.4451 -0.6113 -1.1678
  123OSM   C14F13054   4.152   2.516   4.385 -0.3102 -0.8679 -0.3626
  123OSM   H14F13055   4.242   2.473   4.435  0.0834 -0.8383 -1.0379
  123OSM   H14G13056   4.079   2.432   4.387 -0.8255 -0.4384  1.7951
  123OSM   C15F13057   4.110   2.642   4.464  0.5975 -0.0748 -0.3415
  123OSM   H15F13058   4.010   2.679   4.432 -0.3325  0.2048  2.5883
  123OSM   H15G13059   4.186   2.722   4.452  1.3021 -0.2844  2.2267
  123OSM   C16F13060   4.107   2.599   4.612 -0.1229 -0.5542 -0.5186
  123OSM   H16F13061   4.206   2.603   4.662 -1.1217 -1.0280  1.6240
  123OSM   H16G13062   4.066   2.498   4.635 -2.8928  0.1158 -2.0549
  123OSM   C17F13063   4.012   2.679   4.709  0.6402  0.4139  0.5648
  123OSM   H17F13064   4.038   2.787   4.699  0.0565  0.3813 -2.6368
  123OSM   H17G13065   4.033   2.651   4.814 -0.0342 -0.7243  0.4179
  123OSM   C18F13066   3.862   2.667   4.682  0.4240 -0.2400 -0.1947
  123OSM   H18F13067   3.822   2.568   4.712  1.5532 -1.6236 -2.8160
  123OSM   H18G13068   3.843   2.674   4.572 -1.3344  2.6259  0.1881
  123OSM   H18H13069   3.810   2.753   4.730 -0.4841 -0.5703 -0.5710
  124OSM      N13070   3.388   3.413   2.566  0.0532 -0.1587 -0.1914
  124OSM    C1513071   3.249   3.465   2.588 -0.1376 -0.7140 -0.0038
  124OSM   H15A13072   3.176   3.449   2.510 -0.5706 -3.6499  0.8874
  124OSM   H15B13073   3.261   3.569   2.615 -2.6520 -0.1461 -0.7790
  124OSM   H15C13074   3.206   3.403   2.665  0.3576 -0.7637  0.2389
  124OSM    C1413075   3.374   3.269   2.533 -0.4153  0.2635 -0.0136
  124OSM   H14A13076   3.473   3.229   2.521 -0.2748  0.1361  1.3915
  124OSM   H14B13077   3.316   3.259   2.443 -0.4133  1.7135 -0.2110
  124OSM   H14C13078   3.331   3.204   2.607  0.1434  1.0828  1.0621
  124OSM    C1313079   3.452   3.485   2.455  0.8418 -0.0376  0.1109
  124OSM   H13A13080   3.484   3.575   2.505  0.1782 -0.9559  2.3135
  124OSM   H13B13081   3.387   3.503   2.371  1.9276  2.0357 -0.3647
  124OSM   H13C13082   3.540   3.430   2.421  0.6972  0.6740 -1.5272
  124OSM    C1213083   3.479   3.445   2.684 -0.0523  0.1413  0.3847
  124OSM   H12A13084   3.572   3.412   2.639 -1.1545  0.0903 -1.9927
  124OSM   H12B13085   3.440   3.384   2.765 -1.3438  0.2611 -0.1314
  124OSM    C1113086   3.505   3.589   2.736 -0.3633 -0.2082 -0.1161
  124OSM   H11A13087   3.557   3.572   2.832 -1.0570  1.5736  0.6184
  124OSM   H11B13088   3.409   3.634   2.769 -0.2878 -0.5816  0.6140
  124OSM      P13089   3.731   3.656   2.634 -0.4852 -0.2315 -0.2712
  124OSM    O1313090   3.760   3.516   2.607 -0.4038  0.4814  0.6187
  124OSM    O1413091   3.778   3.753   2.538  0.5363  0.0528  0.4635
  124OSM    O1113092   3.787   3.688   2.774  0.1748 -0.2515  0.1310
  124OSM    O1213093   3.578   3.676   2.647  0.3166 -0.3885  0.4736
  124OSM    C1S13094   3.780   3.819   2.836 -0.1435 -0.3411 -0.5579
  124OSM    H1S13095   3.677   3.861   2.822 -0.8983 -1.8468  0.2684
  124OSM    H1T13096   3.868   3.878   2.804 -1.2225  2.4795  1.2100
  124OSM     NF13097   3.753   3.920   3.064  0.4728 -0.2672  0.2187
  124OSM    HNF13098   3.832   3.974   3.091  1.3093 -0.5378 -1.5113
  124OSM    C2S13099   3.786   3.801   2.995  0.7505  0.1740 -0.5016
  124OSM    H2S13100   3.711   3.723   3.020  1.9296 -1.3020 -1.3799
  124OSM    C3S13101   3.913   3.729   3.056 -0.2493 -0.6887  0.3552
  124OSM    H3S13102   3.991   3.804   3.030 -3.1610  1.5966 -2.6905
  124OSM     O313103   3.938   3.601   3.002 -0.2567  0.2523  0.4627
  124OSM    HO313104   3.870   3.591   2.935  1.2850  1.4382 -1.3880
  124OSM    C4S13105   3.912   3.735   3.204 -0.6371  0.1437 -0.1686
  124OSM    H4S13106   3.949   3.834   3.234  1.3767 -0.7778  0.6285
  124OSM    C5S13107   3.872   3.636   3.288 -0.5490 -0.0952  0.1711
  124OSM    H5S13108   3.848   3.535   3.251  2.4735 -1.8647  2.4911
  124OSM    C6S13109   3.859   3.665   3.437  0.7627 -0.2423  0.1808
  124OSM    H6S13110   3.952   3.710   3.478  0.7855  1.6059 -1.7180
  124OSM    H6T13111   3.855   3.568   3.491 -1.7906  0.1165  0.7742
  124OSM    C7S13112   3.759   3.773   3.477  0.1248 -0.1383 -0.0906
  124OSM    H7S13113   3.656   3.733   3.466  0.1780 -0.6686  1.1232
  124OSM    H7T13114   3.763   3.862   3.410  1.2232  0.7358  1.0750
  124OSM    C8S13115   3.783   3.825   3.624 -0.1067  0.1641  0.2895
  124OSM    H8S13116   3.696   3.893   3.634  0.3765  0.6942  1.0127
  124OSM    H8T13117   3.878   3.882   3.623  0.4588 -0.7130 -1.5430
  124OSM    C9S13118   3.786   3.728   3.740  0.2912 -0.5443 -0.1969
  124OSM    H9S13119   3.878   3.666   3.728  0.3558 -0.7310  1.0982
  124OSM    H9T13120   3.699   3.659   3.742  1.2835 -1.8871 -0.8961
  124OSM   C10S13121   3.803   3.798   3.880 -0.1148  0.6653 -0.2470
  124OSM   H10S13122   3.819   3.719   3.956  1.5006  1.2101  0.0203
  124OSM   H10T13123   3.708   3.847   3.912  0.1959 -0.4714  2.7340
  124OSM   C11S13124   3.929   3.890   3.889  0.4551  0.2721  0.0748
  124OSM   H11S13125   3.930   3.910   3.998 -1.7513 -2.4598  0.6890
  124OSM   H11T13126   3.905   3.986   3.837  1.0991 -0.9377 -2.6677
  124OSM   C12S13127   4.067   3.836   3.856 -0.2063 -0.5980  0.0188
  124OSM   H12S13128   4.072   3.808   3.748  0.8171 -1.3749  0.2486
  124OSM   H12T13129   4.073   3.748   3.923  3.3101  0.1365  0.8748
  124OSM   C13S13130   4.185   3.935   3.890 -0.3781 -0.1563 -0.2012
  124OSM   H13S13131   4.176   4.039   3.852  0.1759 -0.6609 -1.7978
  124OSM   H13T13132   4.274   3.900   3.833 -0.7656  0.0994 -0.9857
  124OSM   C14S13133   4.210   3.940   4.043  0.4470 -0.3047 -0.0099
  124OSM   H14S13134   4.211   3.841   4.092 -0.3383  1.3237  3.6018
  124OSM   H14T13135   4.125   3.995   4.088  1.0445 -0.3933  1.2682
  124OSM   C15S13136   4.334   4.021   4.068 -0.3732  0.6043  0.0539
  124OSM   H15S13137   4.335   4.127   4.035 -0.9780 -0.1047 -2.4888
  124OSM   H15T13138   4.408   3.975   4.000 -0.7427 -0.3319  0.2760
  124OSM   C16S13139   4.376   3.999   4.219 -0.3169  0.0636  0.7373
  124OSM   H16S13140   4.464   4.058   4.254 -0.0807 -0.5719  1.2184
  124OSM   H16T13141   4.392   3.894   4.249 -0.3774 -0.0828  0.2638
  124OSM   C17S13142   4.265   4.041   4.326  0.0016  0.2357 -0.1520
  124OSM   H17S13143   4.177   3.974   4.311  0.9205 -1.1588  0.4177
  124OSM   H17T13144   4.233   4.146   4.310 -0.6284  0.2580  1.1158
  124OSM   C18S13145   4.319   4.014   4.463  0.1724 -0.5231 -0.4680
  124OSM   H18S13146   4.242   4.011   4.543 -3.1081 -0.7279 -3.3832
  124OSM   H18T13147   4.383   4.102   4.481  0.8469 -0.5931 -2.3339
  124OSM   H18U13148   4.375   3.919   4.473  1.7264  0.3952 -0.1992
  124OSM    C1F13149   3.638   3.986   3.052  0.0076 -0.0123 -0.6506
  124OSM     OF13150   3.531   3.926   3.034 -0.2460  0.3167 -0.3339
  124OSM    C2F13151   3.647   4.142   3.056  0.4539  0.3355  0.7636
  124OSM    H2F13152   3.611   4.185   2.960  0.3916 -0.4567  0.4253
  124OSM    H2G13153   3.752   4.169   3.077  0.3982 -0.3890  2.1149
  124OSM    C3F13154   3.566   4.206   3.171 -0.1986  0.4695 -0.0467
  124OSM    H3F13155   3.457   4.184   3.166 -0.2656  0.9409 -0.8812
  124OSM    H3G13156   3.583   4.315   3.158  0.6511  0.0724 -2.9588
  124OSM    C4F13157   3.616   4.164   3.307 -0.6161  0.6197 -0.4061
  124OSM    H4F13158   3.722   4.196   3.321  0.0839  0.5106 -4.3249
  124OSM    H4G13159   3.618   4.053   3.311 -0.8563  0.6356  0.2354
  124OSM    C5F13160   3.526   4.212   3.422  0.1715 -0.0199  0.6914
  124OSM    H5F13161   3.419   4.184   3.415  0.9175 -3.1857  0.3739
  124OSM    H5G13162   3.521   4.323   3.425 -2.0036 -0.0425  0.0018
  124OSM    C6F13163   3.580   4.162   3.556  0.2978 -0.0897  0.6229
  124OSM    H6F13164   3.685   4.192   3.571 -0.0872  1.3334  0.6065
  124OSM    H6G13165   3.560   4.053   3.570  0.1130  0.0047  1.1514
  124OSM    C7F13166   3.500   4.213   3.687 -0.7573 -0.3958  0.2312
  124OSM    H7F13167   3.393   4.181   3.686 -0.8157 -0.2668 -1.6167
  124OSM    H7G13168   3.503   4.323   3.691 -0.1301 -0.3393 -1.1875
  124OSM    C8F13169   3.556   4.167   3.824 -0.2399  0.2489  0.5570
  124OSM    H8F13170   3.565   4.057   3.823  0.7049  0.3240 -0.0925
  124OSM    H8G13171   3.482   4.182   3.906 -0.0734  0.4389  0.6744
  124OSM    C9F13172   3.692   4.228   3.854  0.1612  0.3055 -0.3506
  124OSM    H9F13173   3.740   4.277   3.768  1.6641 -1.0855 -0.3490
  124OSM   C10F13174   3.768   4.221   3.972  0.4139 -0.2511  0.1558
  124OSM   H10F13175   3.860   4.279   3.989  0.0300  0.2910  0.4283
  124OSM   C11F13176   3.712   4.142   4.095  0.4571 -0.0960 -0.0349
  124OSM   H11F13177   3.760   4.043   4.081  2.8132  1.1751 -1.6669
  124OSM   H11G13178   3.602   4.129   4.093  0.5372 -0.8113 -0.0570
  124OSM   C12F13179   3.752   4.230   4.216  0.8589 -0.4991  0.6126
  124OSM   H12F13180   3.706   4.202   4.313  0.7213 -0.2214  0.6288
  124OSM   H12G13181   3.711   4.332   4.204  0.6358 -0.7248 -0.7017
  124OSM   C13F13182   3.907   4.235   4.240  0.2867 -0.6599 -0.2156
  124OSM   H13F13183   3.950   4.304   4.164 -0.7974 -0.7477 -0.9220
  124OSM   H13G13184   3.961   4.139   4.221  1.4552 -0.1003  0.1735
  124OSM   C14F13185   3.945   4.279   4.378 -0.2470 -0.0593 -0.6596
  124OSM   H14F13186   3.881   4.361   4.420  0.5701  0.2543  0.0100
  124OSM   H14G13187   4.046   4.324   4.382  0.7361 -2.1737 -0.0872
  124OSM   C15F13188   3.937   4.162   4.477  0.3472 -0.3115  0.1724
  124OSM   H15F13189   4.027   4.100   4.455  0.2879 -0.4192  0.2340
  124OSM   H15G13190   3.841   4.107   4.466 -0.0435  0.1032  1.3607
  124OSM   C16F13191   3.935   4.201   4.628  0.3333 -0.0752  0.4790
  124OSM   H16F13192   3.846   4.268   4.637  0.7275  0.7077 -1.0914
  124OSM   H16G13193   4.027   4.258   4.654  0.8876  0.0718 -1.5588
  124OSM   C17F13194   3.920   4.079   4.721 -0.2037  0.0114  0.1560
  124OSM   H17F13195   4.004   4.014   4.687  2.2617  2.1905  1.6449
  124OSM   H17G13196   3.822   4.031   4.702 -0.7298  1.1148 -0.0323
  124OSM   C18F13197   3.935   4.109   4.867 -0.2289 -0.2656 -0.3825
  124OSM   H18F13198   3.935   4.018   4.931 -0.8117  0.2780  0.4165
  124OSM   H18G13199   3.857   4.184   4.893 -1.7489 -1.4464 -1.3879
  124OSM   H18H13200   4.034   4.151   4.897 -1.1369  0.3660  2.0161
  125OSM      N13201   4.426   0.661   2.439  0.0815  0.0853  0.0253
  125OSM    C1513202   4.420   0.523   2.498 -0.5802 -0.1267  0.6358
  125OSM   H15A13203   4.324   0.476   2.484 -0.4934 -0.2520  0.4600
  125OSM   H15B13204   4.452   0.526   2.601 -1.9025 -0.3951  1.0735
  125OSM   H15C13205   4.501   0.465   2.457 -1.0098 -0.4655  0.2610
  125OSM    C1413206   4.407   0.644   2.291  0.4253  0.1402 -0.5094
  125OSM   H14A13207   4.422   0.735   2.234  0.0609 -0.5504 -1.7525
  125OSM   H14B13208   4.310   0.601   2.268  0.6112 -0.3320 -0.4249
  125OSM   H14C13209   4.469   0.571   2.241 -3.0439 -2.7067 -1.0633
  125OSM    C1313210   4.313   0.734   2.501 -0.9857  0.1141  0.2372
  125OSM   H13A13211   4.235   0.750   2.429  1.5729  0.8842 -2.5421
  125OSM   H13B13212   4.347   0.828   2.543  0.2728  0.4993 -1.5051
  125OSM   H13C13213   4.267   0.669   2.574 -0.5887 -2.4299 -1.6538
  125OSM    C1213214   4.561   0.721   2.469 -0.5102 -0.2776 -0.7168
  125OSM   H12A13215   4.554   0.822   2.432  1.9649  0.1327 -0.2186
  125OSM   H12B13216   4.644   0.670   2.424  0.0557  1.4136 -1.6765
  125OSM    C1113217   4.612   0.736   2.616  2.0791  0.0914  0.8621
  125OSM   H11A13218   4.709   0.789   2.605  1.0497  1.7995 -0.4111
  125OSM   H11B13219   4.634   0.633   2.651  0.8024 -0.7996 -0.8300
  125OSM      P13220   4.529   0.964   2.710  0.7927 -0.1457 -0.4414
  125OSM    O1313221   4.665   1.017   2.667 -0.2321 -0.2499  0.4248
  125OSM    O1413222   4.406   1.009   2.635 -0.5281  0.4451 -0.2382
  125OSM    O1113223   4.509   1.003   2.864  0.2081 -0.7124 -0.8146
  125OSM    O1213224   4.526   0.805   2.709 -0.1794 -0.1097  0.2459
  125OSM    C1S13225   4.394   0.953   2.930  0.2317  0.2321 -0.6244
  125OSM    H1S13226   4.365   0.852   2.895 -2.8536  1.2512 -1.3539
  125OSM    H1T13227   4.303   1.016   2.921  0.3212  1.0145  2.6843
  125OSM     NF13228   4.314   0.869   3.152 -0.4785 -0.3034 -0.1520
  125OSM    HNF13229   4.238   0.916   3.196  0.5899  1.0714  0.3139
  125OSM    C2S13230   4.414   0.946   3.089  0.0452 -0.2617  0.4558
  125OSM    H2S13231   4.510   0.891   3.098  1.5060  2.0987 -0.2099
  125OSM    C3S13232   4.432   1.090   3.146 -0.3859 -0.7800 -0.5013
  125OSM    H3S13233   4.329   1.129   3.159  0.3291  0.7136  1.1397
  125OSM     O313234   4.492   1.186   3.056 -0.2462 -0.2942  0.4134
  125OSM    HO313235   4.488   1.134   2.975 -1.0193 -1.1033  0.9462
  125OSM    C4S13236   4.504   1.086   3.286 -0.3884  0.2916  0.9544
  125OSM    H4S13237   4.591   1.019   3.291  0.5291  1.5361  2.2374
  125OSM    C5S13238   4.451   1.143   3.393  0.7272  0.4344  0.0323
  125OSM    H5S13239   4.352   1.188   3.404 -0.2924 -1.9668  1.3359
  125OSM    C6S13240   4.515   1.127   3.523  0.7017  0.1462 -0.3433
  125OSM    H6S13241   4.436   1.118   3.601  0.1334 -0.2367 -0.9474
  125OSM    H6T13242   4.587   1.209   3.541  0.9147  0.2845 -1.7404
  125OSM    C7S13243   4.600   1.006   3.545  0.1605  0.6891 -0.5244
  125OSM    H7S13244   4.692   1.008   3.483 -0.2924 -3.3277 -1.6053
  125OSM    H7T13245   4.552   0.910   3.517  1.0665 -0.0131  0.2568
  125OSM    C8S13246   4.646   0.992   3.691  0.3087 -0.0256  0.1869
  125OSM    H8S13247   4.551   0.966   3.744  0.7529  1.5232  1.8678
  125OSM    H8T13248   4.690   1.087   3.728  1.3064 -0.3285 -0.1882
  125OSM    C9S13249   4.757   0.887   3.702  0.2709  0.3577  0.1415
  125OSM    H9S13250   4.741   0.804   3.630  3.9066  0.7943 -1.4144
  125OSM    H9T13251   4.762   0.844   3.804  2.8395  1.4245  0.5550
  125OSM   C10S13252   4.900   0.940   3.667 -0.5769 -0.1945  0.2466
  125OSM   H10S13253   4.877   0.970   3.563 -1.2881 -0.2560  0.3832
  125OSM   H10T13254   4.978   0.861   3.662 -0.0587  0.2767  0.7061
  125OSM   C11S13255   4.948   1.048   3.766  0.1414  0.2978 -0.2900
  125OSM   H11S13256   4.910   1.016   3.865 -1.0912  0.5715 -0.6630
  125OSM   H11T13257   4.901   1.145   3.741 -0.1615 -0.1986 -1.7534
  125OSM   C12S13258   5.103   1.072   3.776  0.8626  0.1290  0.7329
  125OSM   H12S13259   5.143   1.103   3.677  1.8093  1.2579  1.4452
  125OSM   H12T13260   5.154   0.977   3.803  2.0156  0.6872  0.5910
  125OSM   C13S13261   5.136   1.185   3.865 -0.4552  0.0419  0.3882
  125OSM   H13S13262   5.102   1.156   3.967 -0.8944 -0.6462  0.0460
  125OSM   H13T13263   5.085   1.279   3.835 -1.0165 -0.6872 -1.0042
  125OSM   C14S13264   5.289   1.227   3.871 -0.2633  0.5317 -0.0828
  125OSM   H14S13265   5.310   1.260   3.766  1.3234 -0.1399 -0.0036
  125OSM   H14T13266   5.345   1.138   3.907  0.9877  0.5037 -1.9252
  125OSM   C15S13267   5.321   1.346   3.962  1.1120  0.0145  0.6285
  125OSM   H15S13268   5.428   1.371   3.946  0.1715  3.1308 -1.7854
  125OSM   H15T13269   5.290   1.318   4.065 -3.5151 -0.2018 -0.6015
  125OSM   C16S13270   5.247   1.484   3.924 -0.7724  0.3252  0.0537
  125OSM   H16S13271   5.138   1.467   3.938 -0.3586 -0.9886  2.0683
  125OSM   H16T13272   5.276   1.498   3.818  0.2262 -1.1939  0.0988
  125OSM   C17S13273   5.306   1.595   4.011 -0.3502 -0.4069  0.3044
  125OSM   H17S13274   5.416   1.596   3.992 -0.2479 -1.1398  0.8167
  125OSM   H17T13275   5.301   1.563   4.117 -0.6089  0.0955  0.4452
  125OSM   C18S13276   5.236   1.731   3.988  0.0440 -0.2602 -0.2911
  125OSM   H18S13277   5.240   1.758   3.880 -2.8339  0.0414 -0.4126
  125OSM   H18T13278   5.269   1.810   4.059  0.1543 -0.7573  0.2117
  125OSM   H18U13279   5.127   1.725   4.011  0.0375  2.8294  1.0218
  125OSM    C1F13280   4.310   0.737   3.149 -0.1145 -0.3163 -0.3990
  125OSM     OF13281   4.392   0.668   3.092  0.0720  0.1277 -0.4406
  125OSM    C2F13282   4.210   0.675   3.233  0.4128  0.4068  0.1791
  125OSM    H2F13283   4.201   0.570   3.199  0.2356 -0.2515  2.1263
  125OSM    H2G13284   4.108   0.717   3.227 -1.0686 -2.8052  0.7106
  125OSM    C3F13285   4.266   0.678   3.378 -0.0168  0.1993  0.4469
  125OSM    H3F13286   4.371   0.642   3.375 -1.8004 -6.2206 -0.6559
  125OSM    H3G13287   4.203   0.600   3.427 -0.2151 -1.3137 -2.0697
  125OSM    C4F13288   4.224   0.804   3.457 -0.1285 -0.2917 -0.0267
  125OSM    H4F13289   4.115   0.824   3.450 -0.1744 -0.4843  0.1069
  125OSM    H4G13290   4.271   0.889   3.405 -3.1100  1.8619  0.5533
  125OSM    C5F13291   4.258   0.806   3.609 -0.4269  0.9949  0.0045
  125OSM    H5F13292   4.199   0.895   3.640  0.1185  0.6936  2.0760
  125OSM    H5G13293   4.366   0.819   3.627 -0.6493  0.2649  2.0921
  125OSM    C6F13294   4.211   0.688   3.690 -0.0883  0.0930  0.0369
  125OSM    H6F13295   4.265   0.599   3.651 -0.2606 -0.3293  0.7406
  125OSM    H6G13296   4.103   0.679   3.667 -0.7258 -0.5700  2.8896
  125OSM    C7F13297   4.220   0.705   3.843 -0.1925 -0.3912  0.0946
  125OSM    H7F13298   4.135   0.655   3.895 -1.2308 -0.4181 -1.5601
  125OSM    H7G13299   4.196   0.813   3.853 -1.7096 -0.7432  0.6125
  125OSM    C8F13300   4.349   0.662   3.899 -0.4996  0.1922  0.2895
  125OSM    H8F13301   4.419   0.719   3.834 -1.1135  2.9025  1.8674
  125OSM    H8G13302   4.366   0.552   3.898 -1.2132  0.0675 -1.9053
  125OSM    C9F13303   4.361   0.709   4.047  0.0329  0.5698 -0.0122
  125OSM    H9F13304   4.290   0.657   4.112  0.4104 -1.7106 -1.3036
  125OSM   C10F13305   4.445   0.795   4.101  0.1358  0.3855  0.1015
  125OSM   H10F13306   4.430   0.825   4.206  0.5646 -1.2028  0.6450
  125OSM   C11F13307   4.552   0.871   4.033 -0.4978  0.2704 -0.8035
  125OSM   H11F13308   4.531   0.978   4.010  0.9910  1.6999  3.4757
  125OSM   H11G13309   4.588   0.821   3.941 -0.6692 -0.0788 -0.6801
  125OSM   C12F13310   4.677   0.883   4.123 -0.6360 -0.0865  0.0057
  125OSM   H12F13311   4.754   0.918   4.050  0.0624  2.2763  1.7448
  125OSM   H12G13312   4.695   0.786   4.172  2.4909 -0.4072 -1.5309
  125OSM   C13F13313   4.670   0.999   4.228 -0.0339  0.6646 -0.2732
  125OSM   H13F13314   4.587   0.989   4.301 -1.8032  1.5750 -2.0332
  125OSM   H13G13315   4.653   1.093   4.170  2.4100  1.7261  0.5939
  125OSM   C14F13316   4.802   1.017   4.306  0.3382  0.1827 -0.2776
  125OSM   H14F13317   4.854   1.115   4.301  1.1014 -0.2710 -1.8565
  125OSM   H14G13318   4.885   0.957   4.264  0.4574 -0.0229  0.2486
  125OSM   C15F13319   4.783   0.980   4.450  0.0176  0.4652  0.6115
  125OSM   H15F13320   4.761   0.871   4.455 -0.3094  0.5350  0.7700
  125OSM   H15G13321   4.685   1.021   4.484 -0.8581  1.4397 -2.7035
  125OSM   C16F13322   4.897   1.014   4.543  0.5341 -0.7631  0.1161
  125OSM   H16F13323   4.920   1.120   4.516 -1.4180 -0.1796  0.6342
  125OSM   H16G13324   4.984   0.953   4.511 -0.3905 -2.0034 -0.0742
  125OSM   C17F13325   4.870   0.985   4.690  0.0519  0.4285  0.2804
  125OSM   H17F13326   4.859   0.876   4.708 -3.3641  0.6630  0.1515
  125OSM   H17G13327   4.771   1.028   4.716  0.5326  0.2652  2.5798
  125OSM   C18F13328   4.978   1.044   4.779  0.4534  0.5587  0.4407
  125OSM   H18F13329   4.999   1.150   4.756 -1.4558  0.7526 -0.5978
  125OSM   H18G13330   5.069   0.980   4.779  0.5133  0.5479 -1.9677
  125OSM   H18H13331   4.939   1.043   4.883  1.0515 -0.7006  0.6702
  126OSM      N13332   3.453   6.883   2.813  0.0833  0.4489 -0.1581
  126OSM    C1513333   3.579   6.966   2.797  0.3676 -0.3009  0.7678
  126OSM   H15A13334   3.620   6.961   2.697 -1.9379 -0.6703 -0.2417
  126OSM   H15B13335   3.660   6.943   2.864  1.4516 -2.4865 -1.1552
  126OSM   H15C13336   3.544   7.067   2.818  0.2625 -0.9720  4.4366
  126OSM    C1413337   3.415   6.884   2.962 -0.1186 -0.4935 -0.0543
  126OSM   H14A13338   3.392   6.982   3.002 -0.2010 -0.3802 -0.3776
  126OSM   H14B13339   3.498   6.842   3.017 -0.8596 -0.0740  1.4336
  126OSM   H14C13340   3.325   6.825   2.969 -2.2365  2.4054 -0.9064
  126OSM    C1313341   3.348   6.951   2.725 -0.0007 -0.1344 -0.6637
  126OSM   H13A13342   3.324   7.050   2.762  1.6892  0.3776 -0.8716
  126OSM   H13B13343   3.264   6.884   2.735  1.0120 -1.4609 -0.7938
  126OSM   H13C13344   3.369   6.954   2.620 -0.8382  0.7535 -0.8219
  126OSM    C1213345   3.482   6.740   2.766 -0.1825 -0.2300 -1.0049
  126OSM   H12A13346   3.576   6.720   2.816  0.0293  2.1248 -0.3766
  126OSM   H12B13347   3.513   6.737   2.662  2.0888  0.5316 -0.4176
  126OSM    C1113348   3.379   6.627   2.800 -0.1616 -0.1550 -0.4779
  126OSM   H11A13349   3.381   6.601   2.908  1.2990  2.7138  0.3070
  126OSM   H11B13350   3.410   6.539   2.740  0.5401 -0.8585  0.8916
  126OSM      P13351   3.118   6.591   2.793 -0.0437  0.2681  0.4434
  126OSM    O1313352   2.998   6.653   2.720 -0.5548 -0.2819  1.0694
  126OSM    O1413353   3.146   6.449   2.766 -0.2103  0.3307 -0.1809
  126OSM    O1113354   3.102   6.614   2.957  0.4777  0.2963  0.6942
  126OSM    O1213355   3.251   6.676   2.766 -0.6988  0.0716  0.3519
  126OSM    C1S13356   3.048   6.729   3.017  0.9091  0.4101  0.3950
  126OSM    H1S13357   2.953   6.756   2.966  0.9080 -0.1280  0.1066
  126OSM    H1T13358   3.120   6.814   3.010  2.2635 -0.8053 -1.1585
  126OSM     NF13359   2.903   6.808   3.198  0.1593  0.1276 -0.4864
  126OSM    HNF13360   2.925   6.875   3.269 -1.1186 -0.3849  0.4163
  126OSM    C2S13361   3.014   6.715   3.162 -0.2070  0.3976  0.6027
  126OSM    H2S13362   2.983   6.609   3.170  1.8463 -0.8443 -4.3660
  126OSM    C3S13363   3.144   6.729   3.242 -0.6428 -0.1502 -0.1186
  126OSM    H3S13364   3.170   6.837   3.243 -0.0892 -0.2295  2.8240
  126OSM     O313365   3.257   6.660   3.196  0.4703 -0.2027 -0.0284
  126OSM    HO313366   3.231   6.627   3.110 -0.8302 -0.7256  0.5320
  126OSM    C4S13367   3.123   6.715   3.389 -0.5273 -0.5649 -0.7376
  126OSM    H4S13368   3.055   6.794   3.423  0.5603  1.2042 -2.4775
  126OSM    C5S13369   3.166   6.612   3.470 -0.0585 -0.3322 -0.1679
  126OSM    H5S13370   3.226   6.524   3.442  2.1506 -0.1376  3.3331
  126OSM    C6S13371   3.131   6.588   3.612  0.2704 -0.2434 -0.2389
  126OSM    H6S13372   3.225   6.555   3.661 -1.4026 -4.5766  0.5856
  126OSM    H6T13373   3.072   6.493   3.612 -1.8675  1.0159 -0.0932
  126OSM    C7S13374   3.059   6.692   3.704 -0.1935 -0.1137 -0.3232
  126OSM    H7S13375   2.961   6.726   3.665  0.0891  3.9464  1.9506
  126OSM    H7T13376   3.115   6.788   3.712 -0.7969  0.2572 -0.4319
  126OSM    C8S13377   3.044   6.645   3.847  0.9425  0.3463 -0.0482
  126OSM    H8S13378   3.038   6.535   3.861 -1.1243  0.6586  2.2796
  126OSM    H8T13379   2.948   6.683   3.889 -0.0518 -1.8161 -0.2240
  126OSM    C9S13380   3.150   6.705   3.941  0.1548  0.5601  0.1933
  126OSM    H9S13381   3.162   6.815   3.942  1.0015  0.4697  0.6051
  126OSM    H9T13382   3.250   6.667   3.914  0.2294 -0.3338  1.5972
  126OSM   C10S13383   3.123   6.670   4.093  0.1405  0.3023 -0.0672
  126OSM   H10S13384   3.020   6.692   4.127  0.3381 -0.3985  1.0364
  126OSM   H10T13385   3.196   6.719   4.160  2.3754 -0.6038 -1.6959
  126OSM   C11S13386   3.136   6.516   4.114  0.1122 -0.4379  0.1337
  126OSM   H11S13387   3.233   6.484   4.070  0.7698 -0.1448  1.3250
  126OSM   H11T13388   3.058   6.456   4.063  0.1292  0.2930 -0.7749
  126OSM   C12S13389   3.130   6.478   4.268  0.0668 -0.1077  0.0858
  126OSM   H12S13390   3.210   6.530   4.323  0.2369 -0.2848  0.0068
  126OSM   H12T13391   3.157   6.370   4.265  1.3893  0.2034  0.2503
  126OSM   C13S13392   2.995   6.500   4.330  0.8023 -0.0133 -0.2513
  126OSM   H13S13393   2.913   6.444   4.279  0.1777 -0.0722  0.7890
  126OSM   H13T13394   2.971   6.608   4.317  0.1087  0.0867  1.5828
  126OSM   C14S13395   2.998   6.470   4.487  0.4836  0.7089  0.5180
  126OSM   H14S13396   3.040   6.566   4.525  2.0536  1.0958 -2.0126
  126OSM   H14T13397   3.062   6.379   4.490 -0.1889  0.1716 -0.8484
  126OSM   C15S13398   2.858   6.444   4.554 -0.2741 -0.1017 -0.2879
  126OSM   H15S13399   2.814   6.349   4.516 -0.3522  0.9108 -2.9226
  126OSM   H15T13400   2.790   6.525   4.520  0.0726  0.5602  0.5579
  126OSM   C16S13401   2.864   6.425   4.708 -0.4186 -0.0090  1.2005
  126OSM   H16S13402   2.940   6.351   4.742 -0.4261  0.1333  1.5272
  126OSM   H16T13403   2.764   6.396   4.746 -1.9614  2.8759 -0.3302
  126OSM   C17S13404   2.904   6.559   4.771 -0.1192 -0.7457 -0.3232
  126OSM   H17S13405   2.817   6.626   4.763 -0.7820 -1.6210 -0.6543
  126OSM   H17T13406   2.985   6.619   4.723 -0.7964 -0.6660 -1.3790
  126OSM   C18S13407   2.943   6.539   4.922  0.1518  0.5399 -0.2870
  126OSM   H18S13408   3.031   6.474   4.938 -0.4584 -0.1275  0.4264
  126OSM   H18T13409   2.863   6.479   4.971 -0.5157  0.5441 -1.3226
  126OSM   H18U13410   2.952   6.631   4.984 -0.4892  0.6494 -0.3435
  126OSM    C1F13411   2.778   6.794   3.152 -0.0544 -0.3222  0.0639
  126OSM     OF13412   2.745   6.696   3.085 -0.4599  0.6146 -0.0031
  126OSM    C2F13413   2.685   6.909   3.163 -0.5814 -0.4949 -0.0927
  126OSM    H2F13414   2.750   6.998   3.151 -1.6216  0.1576 -1.0033
  126OSM    H2G13415   2.665   6.909   3.272  0.9658  0.0599  0.2162
  126OSM    C3F13416   2.563   6.898   3.067 -0.0381 -0.5953 -0.2901
  126OSM    H3F13417   2.516   6.804   3.103  0.4277 -0.2607  1.2942
  126OSM    H3G13418   2.603   6.884   2.964  2.3109  2.2105  0.1024
  126OSM    C4F13419   2.461   7.019   3.070  0.3646  0.4213 -0.1037
  126OSM    H4F13420   2.390   7.008   2.985 -2.6279 -0.0027  2.2621
  126OSM    H4G13421   2.513   7.115   3.054  0.2155  0.3918 -0.8249
  126OSM    C5F13422   2.375   7.032   3.198 -0.6776 -0.7523 -0.3995
  126OSM    H5F13423   2.376   6.937   3.256  1.5683 -0.9325 -0.6634
  126OSM    H5G13424   2.269   7.039   3.164 -1.5166 -1.1078  1.9293
  126OSM    C6F13425   2.404   7.154   3.289  1.0109 -0.5465 -0.1078
  126OSM    H6F13426   2.424   7.255   3.247  0.4837 -0.4146 -0.0521
  126OSM    H6G13427   2.493   7.133   3.352  1.7667  1.9415 -0.2138
  126OSM    C7F13428   2.285   7.172   3.393 -0.0769  0.2448 -1.1887
  126OSM    H7F13429   2.254   7.071   3.427 -1.2277  0.8334 -0.4285
  126OSM    H7G13430   2.202   7.209   3.329 -0.6005 -3.6792 -3.0728
  126OSM    C8F13431   2.322   7.269   3.503 -0.1387  0.5649  0.2164
  126OSM    H8F13432   2.353   7.369   3.465 -0.5675  0.1949 -1.1355
  126OSM    H8G13433   2.405   7.230   3.567  0.2545 -0.5569 -0.9434
  126OSM    C9F13434   2.203   7.289   3.595  0.3029  0.8092  0.8433
  126OSM    H9F13435   2.133   7.363   3.555  0.3957  2.2985  3.2508
  126OSM   C10F13436   2.191   7.241   3.718  0.4033 -0.6185 -0.1048
  126OSM   H10F13437   2.095   7.265   3.766  1.3368  2.1913  0.5374
  126OSM   C11F13438   2.275   7.134   3.792  0.3634 -0.1082  0.4060
  126OSM   H11F13439   2.382   7.163   3.802  0.4970 -0.5468  0.2749
  126OSM   H11G13440   2.269   7.039   3.735  3.4745  0.2072 -0.6429
  126OSM   C12F13441   2.207   7.101   3.929  0.7738 -0.1251 -0.3624
  126OSM   H12F13442   2.254   7.010   3.971 -1.5105 -0.7561  1.0164
  126OSM   H12G13443   2.099   7.077   3.914  0.9253  0.2180 -2.2951
  126OSM   C13F13444   2.213   7.211   4.036 -0.2878  0.3610 -0.3674
  126OSM   H13F13445   2.179   7.308   3.994 -0.9379  0.4089  0.2514
  126OSM   H13G13446   2.317   7.210   4.075 -0.5768  0.6997  0.4398
  126OSM   C14F13447   2.116   7.169   4.149  0.0825  0.3219  0.3317
  126OSM   H14F13448   2.016   7.152   4.105  0.0856  2.9653 -0.9458
  126OSM   H14G13449   2.115   7.243   4.232 -0.3316  1.4914 -0.6780
  126OSM   C15F13450   2.145   7.032   4.227 -0.3400  0.9278 -0.1971
  126OSM   H15F13451   2.118   6.946   4.162  0.3550  0.5894 -0.0442
  126OSM   H15G13452   2.069   7.042   4.308  0.9306  1.7869  0.9360
  126OSM   C16F13453   2.280   7.006   4.294  0.0355 -0.8576  0.1581
  126OSM   H16F13454   2.369   7.008   4.228 -1.6399 -1.4395 -2.2701
  126OSM   H16G13455   2.273   6.897   4.314  1.0679 -1.1432 -0.9238
  126OSM   C17F13456   2.307   7.086   4.424  0.4774 -0.5382 -0.4680
  126OSM   H17F13457   2.310   7.196   4.410 -0.4945  0.0756  3.0126
  126OSM   H17G13458   2.408   7.075   4.469 -0.2730  0.5331  1.5927
  126OSM   C18F13459   2.202   7.059   4.540  0.0363  0.1315  0.2817
  126OSM   H18F13460   2.197   6.949   4.550 -0.6566 -0.1313 -2.1606
  126OSM   H18G13461   2.101   7.097   4.512  0.4965  1.0230 -0.2246
  126OSM   H18H13462   2.234   7.105   4.636  0.8006 -0.6401  0.3996
  127OSM      N13463   3.571   2.681   2.725  0.4529  0.4216 -0.2129
  127OSM    C1513464   3.542   2.674   2.581 -0.0620  0.0268  0.1397
  127OSM   H15A13465   3.609   2.599   2.541 -0.3295  0.0791 -0.4129
  127OSM   H15B13466   3.557   2.770   2.533  1.9789 -0.6268 -0.6577
  127OSM   H15C13467   3.442   2.635   2.572  0.5097 -1.9072  1.5197
  127OSM    C1413468   3.569   2.535   2.770 -0.2446 -0.2121 -0.0578
  127OSM   H14A13469   3.590   2.529   2.876  0.7218 -2.6971 -0.2996
  127OSM   H14B13470   3.656   2.487   2.725  0.4622  0.8931  0.0854
  127OSM   H14C13471   3.483   2.477   2.740 -0.0760 -0.6726  0.3271
  127OSM    C1313472   3.702   2.731   2.747 -0.4035  0.0402 -0.2316
  127OSM   H13A13473   3.779   2.692   2.682 -0.0052  0.4778 -0.0320
  127OSM   H13B13474   3.746   2.723   2.846 -0.7680  1.6145  0.0812
  127OSM   H13C13475   3.703   2.838   2.734 -0.3516  0.0970  0.2137
  127OSM    C1213476   3.458   2.760   2.806 -0.1513  0.7788 -0.6058
  127OSM   H12A13477   3.486   2.756   2.910 -0.6946  1.5916 -0.4203
  127OSM   H12B13478   3.368   2.704   2.789 -0.5950  1.4561 -0.5040
  127OSM    C1113479   3.420   2.902   2.770  0.6630 -0.4572 -0.3290
  127OSM   H11A13480   3.350   2.932   2.851 -0.7381 -1.9407 -0.9458
  127OSM   H11B13481   3.360   2.913   2.678  0.2495 -1.5631 -0.2057
  127OSM      P13482   3.545   3.121   2.851 -0.3522 -0.2716 -0.1955
  127OSM    O1313483   3.672   3.190   2.813  0.7243  0.4658  0.2807
  127OSM    O1413484   3.424   3.204   2.864 -0.2671  0.1238  0.7421
  127OSM    O1113485   3.572   3.056   2.997  0.4910 -0.4935  0.4393
  127OSM    O1213486   3.528   2.991   2.757  0.3339  0.1231  0.3222
  127OSM    C1S13487   3.699   2.994   3.029 -0.0495 -0.0859  0.0636
  127OSM    H1S13488   3.780   3.070   3.038 -0.8560  0.7826  0.0903
  127OSM    H1T13489   3.728   2.922   2.949  0.9610  0.7396 -0.3515
  127OSM     NF13490   3.827   2.891   3.211  0.7243  0.6593 -0.2625
  127OSM    HNF13491   3.865   2.799   3.204  3.1475  1.5609  0.1409
  127OSM    C2S13492   3.693   2.916   3.159  0.2757  0.8327  0.0218
  127OSM    H2S13493   3.638   2.987   3.225 -0.8401  0.6067 -0.6514
  127OSM    C3S13494   3.611   2.794   3.155  0.0446  0.5351  0.2690
  127OSM    H3S13495   3.652   2.720   3.083 -2.5531  0.4695 -1.2731
  127OSM     O313496   3.491   2.816   3.083  0.0245 -0.3188 -0.0914
  127OSM    HO313497   3.510   2.901   3.043  2.0620 -0.8150 -0.2800
  127OSM    C4S13498   3.593   2.726   3.287 -0.0567 -0.3658 -0.0777
  127OSM    H4S13499   3.646   2.630   3.293  0.8823  0.1477 -0.0473
  127OSM    C5S13500   3.502   2.748   3.386 -0.4638  0.7791  0.1881
  127OSM    H5S13501   3.432   2.831   3.369  0.6382  1.4969 -0.9933
  127OSM    C6S13502   3.476   2.653   3.504 -0.1362 -0.1025 -0.0596
  127OSM    H6S13503   3.553   2.573   3.502 -0.3757 -0.3411  0.1949
  127OSM    H6T13504   3.378   2.607   3.481  0.4428 -2.4054  1.7233
  127OSM    C7S13505   3.454   2.723   3.638 -0.3820  0.0772 -0.5945
  127OSM    H7S13506   3.379   2.805   3.635  0.8569  1.2787 -0.0982
  127OSM    H7T13507   3.546   2.780   3.665  0.1977  0.8840 -3.7694
  127OSM    C8S13508   3.420   2.624   3.757  0.0382 -0.2187  0.5201
  127OSM    H8S13509   3.498   2.545   3.750 -0.5415 -0.6608 -1.5989
  127OSM    H8T13510   3.328   2.568   3.730 -0.0102  0.0154  0.1916
  127OSM    C9S13511   3.384   2.690   3.889  0.5389  0.0181  0.3330
  127OSM    H9S13512   3.295   2.755   3.883  0.2933 -0.4097 -1.2943
  127OSM    H9T13513   3.465   2.762   3.915 -0.2761  0.8640  0.5708
  127OSM   C10S13514   3.370   2.597   4.004  0.6244  0.0810  0.5422
  127OSM   H10S13515   3.431   2.506   3.988 -1.6824 -1.6099  0.8509
  127OSM   H10T13516   3.260   2.579   4.001  0.7568 -0.6746 -1.1625
  127OSM   C11S13517   3.393   2.665   4.135 -0.5346 -0.5267 -0.0843
  127OSM   H11S13518   3.424   2.770   4.120 -1.5385 -0.2958 -0.6625
  127OSM   H11T13519   3.480   2.619   4.186  1.1621  1.1341 -1.3542
  127OSM   C12S13520   3.264   2.670   4.217  0.3709  0.3070  0.0423
  127OSM   H12S13521   3.249   2.569   4.260  3.3585 -0.4238 -0.4235
  127OSM   H12T13522   3.169   2.695   4.163 -1.4170 -4.5658  0.4424
  127OSM   C13S13523   3.267   2.774   4.335 -0.2356 -0.2636 -0.1556
  127OSM   H13S13524   3.249   2.882   4.316 -0.4662 -0.2456  0.1452
  127OSM   H13T13525   3.364   2.761   4.388 -0.4172 -1.5141 -0.1074
  127OSM   C14S13526   3.161   2.742   4.451 -0.0058 -0.4757  0.3579
  127OSM   H14S13527   3.171   2.633   4.470  1.3694 -1.0161 -2.7949
  127OSM   H14T13528   3.063   2.770   4.407 -0.3270 -1.5369  0.3784
  127OSM   C15S13529   3.190   2.820   4.580 -0.0442 -0.2493 -0.2112
  127OSM   H15S13530   3.146   2.922   4.582 -0.0441 -0.2052 -1.4543
  127OSM   H15T13531   3.300   2.834   4.589 -0.3188  2.2951 -0.0818
  127OSM   C16S13532   3.131   2.746   4.702 -0.2650 -0.0630  0.6695
  127OSM   H16S13533   3.189   2.653   4.721  4.7007  2.4281 -0.7384
  127OSM   H16T13534   3.021   2.745   4.685 -0.0316 -0.0850 -1.0657
  127OSM   C17S13535   3.154   2.822   4.839 -0.7601  0.3689 -0.8649
  127OSM   H17S13536   3.092   2.913   4.824  0.8971  1.8171  0.5103
  127OSM   H17T13537   3.251   2.873   4.855 -1.1594  1.1131 -0.7652
  127OSM   C18S13538   3.104   2.753   4.966 -0.4288 -0.5996  0.2843
  127OSM   H18S13539   3.140   2.810   5.055 -1.5923  2.7021 -1.1974
  127OSM   H18T13540   3.155   2.655   4.979 -0.8249 -0.6759  1.4334
  127OSM   H18U13541   2.995   2.731   4.974 -0.0729 -2.4483  0.5191
  127OSM    C1F13542   3.917   2.978   3.246 -0.3393 -0.1555 -0.0054
  127OSM     OF13543   4.037   2.945   3.240  0.1397  0.4523  0.2663
  127OSM    C2F13544   3.873   3.116   3.306 -0.5861 -0.3076  0.3151
  127OSM    H2F13545   3.813   3.098   3.398 -2.2780  1.9968 -0.2343
  127OSM    H2G13546   3.802   3.162   3.233 -0.5340 -1.9511 -0.8323
  127OSM    C3F13547   3.987   3.213   3.337  0.4028  0.1635 -0.1882
  127OSM    H3F13548   4.015   3.263   3.241 -1.7896  0.8954 -0.5120
  127OSM    H3G13549   4.076   3.160   3.377  0.0486 -0.1476  0.1956
  127OSM    C4F13550   3.946   3.317   3.437 -0.4441 -0.8351 -0.3134
  127OSM    H4F13551   3.845   3.356   3.414 -0.3925 -0.6779 -0.2744
  127OSM    H4G13552   4.019   3.400   3.426 -1.1058 -0.0323  1.1133
  127OSM    C5F13553   3.968   3.270   3.584 -0.1565  0.2512  1.1144
  127OSM    H5F13554   4.067   3.219   3.591 -0.8572 -1.3377  0.0780
  127OSM    H5G13555   3.907   3.178   3.599  0.4282  0.0045  2.0239
  127OSM    C6F13556   3.966   3.367   3.699 -0.1016 -0.0137  0.9409
  127OSM    H6F13557   3.886   3.444   3.693 -0.0209  0.2205  2.4067
  127OSM    H6G13558   4.053   3.436   3.696 -1.2554  1.5018 -2.2827
  127OSM    C7F13559   3.978   3.304   3.831  0.3693  0.9597 -0.6930
  127OSM    H7F13560   4.087   3.282   3.835  0.4152  1.3405  1.6165
  127OSM    H7G13561   3.926   3.208   3.850  0.5935  1.0740  0.6165
  127OSM    C8F13562   3.953   3.409   3.934 -0.6136  0.1165 -0.0155
  127OSM    H8F13563   3.850   3.449   3.932 -1.4437 -1.7793  1.4991
  127OSM    H8G13564   4.024   3.493   3.922  0.0634 -0.1576  1.7631
  127OSM    C9F13565   3.977   3.357   4.080 -0.0716  0.1084  0.3530
  127OSM    H9F13566   4.020   3.256   4.089  2.5247  0.7853 -2.5095
  127OSM   C10F13567   3.960   3.433   4.191 -0.7484  0.5930  0.0657
  127OSM   H10F13568   3.973   3.380   4.286  0.6332 -1.2739 -1.0828
  127OSM   C11F13569   3.910   3.574   4.207  0.2941  0.6093  0.5269
  127OSM   H11F13570   3.925   3.621   4.107  1.6683 -1.2732 -0.2180
  127OSM   H11G13571   3.968   3.634   4.281  1.7447  2.8907 -2.2649
  127OSM   C12F13572   3.763   3.570   4.258 -0.3144 -0.1354  0.7433
  127OSM   H12F13573   3.746   3.515   4.354  1.5676  0.4831  1.4791
  127OSM   H12G13574   3.702   3.520   4.180 -1.2155 -2.0628  2.5755
  127OSM   C13F13575   3.713   3.717   4.273 -1.2746  0.1925 -0.3179
  127OSM   H13F13576   3.738   3.783   4.187 -2.0661  0.0600 -0.6559
  127OSM   H13G13577   3.744   3.756   4.372 -0.1538  0.0349 -0.6011
  127OSM   C14F13578   3.554   3.729   4.269 -0.3861 -0.0497  0.2533
  127OSM   H14F13579   3.517   3.660   4.347 -2.3106  0.0073 -0.5660
  127OSM   H14G13580   3.515   3.682   4.176  0.3899  1.9230 -1.1644
  127OSM   C15F13581   3.497   3.874   4.279 -0.3074 -0.0515 -0.4837
  127OSM   H15F13582   3.386   3.872   4.272 -0.2900  0.2212 -0.8755
  127OSM   H15G13583   3.515   3.926   4.183 -2.2155 -0.4727 -1.1119
  127OSM   C16F13584   3.533   3.961   4.398  0.6352  0.1608 -0.5627
  127OSM   H16F13585   3.504   4.067   4.381  2.1782  0.7345  0.1847
  127OSM   H16G13586   3.643   3.968   4.408  0.6898 -0.7001 -0.4673
  127OSM   C17F13587   3.481   3.900   4.527 -0.1842 -0.6344 -0.8762
  127OSM   H17F13588   3.510   3.793   4.534 -1.2255 -0.8303  0.7934
  127OSM   H17G13589   3.371   3.914   4.532 -0.2315 -1.3758  0.8894
  127OSM   C18F13590   3.567   3.953   4.644  0.5807  0.1310 -0.0192
  127OSM   H18F13591   3.539   4.060   4.656  1.0669  0.2771 -0.1394
  127OSM   H18G13592   3.674   3.945   4.616  0.0742  1.7886 -2.8236
  127OSM   H18H13593   3.545   3.897   4.737 -0.0907  1.2564  0.5123
  128OSM      N13594   3.459   1.085   2.518  0.0435 -0.1712 -0.0133
  128OSM    C1513595   3.403   0.947   2.532  0.1894  0.5177 -0.8313
  128OSM   H15A13596   3.472   0.867   2.512 -2.3700 -1.9450 -0.4829
  128OSM   H15B13597   3.325   0.928   2.459 -0.8143 -0.9615  0.5387
  128OSM   H15C13598   3.356   0.935   2.628 -1.0496  2.0960 -1.2031
  128OSM    C1413599   3.591   1.081   2.593  0.5748  0.2142  0.4036
  128OSM   H14A13600   3.626   1.180   2.618  0.0537  0.6633 -0.5837
  128OSM   H14B13601   3.657   1.021   2.532 -0.9387 -0.7803 -0.3370
  128OSM   H14C13602   3.583   1.034   2.690  2.4571  0.5449  0.7590
  128OSM    C1313603   3.478   1.111   2.370 -0.7478  0.3964 -0.6201
  128OSM   H13A13604   3.546   1.048   2.316 -1.6088 -1.0346 -0.0805
  128OSM   H13B13605   3.526   1.206   2.350 -2.8753  1.9987  1.2764
  128OSM   H13C13606   3.383   1.124   2.319 -0.6844  0.4976 -0.7123
  128OSM    C1213607   3.367   1.185   2.585 -0.9943 -0.0768 -0.0761
  128OSM   H12A13608   3.269   1.183   2.539 -0.4881  1.4177 -1.3202
  128OSM   H12B13609   3.410   1.278   2.550  3.1982 -1.7870 -0.0157
  128OSM    C1113610   3.362   1.188   2.737  0.0720  0.1605 -0.0010
  128OSM   H11A13611   3.293   1.265   2.778  0.2903  0.9346 -1.0407
  128OSM   H11B13612   3.466   1.199   2.775  1.0073 -4.3699 -0.7042
  128OSM      P13613   3.166   1.011   2.821  0.3578  0.2803  0.0504
  128OSM    O1313614   3.060   1.087   2.753  0.5549  0.0328  1.0654
  128OSM    O1413615   3.166   0.865   2.809  0.1692  0.2842  0.1052
  128OSM    O1113616   3.151   1.034   2.976 -0.0590 -0.0393 -0.4384
  128OSM    O1213617   3.314   1.070   2.791 -0.6101  0.1843 -0.3033
  128OSM    C1S13618   3.166   1.173   3.026 -0.0958  0.1793 -0.2698
  128OSM    H1S13619   3.133   1.248   2.951  0.0153 -0.2294 -0.7367
  128OSM    H1T13620   3.274   1.188   3.050 -0.3993  0.6470  0.8518
  128OSM     NF13621   3.107   1.357   3.194  0.0232  0.2229  0.4052
  128OSM    HNF13622   3.169   1.377   3.270 -0.1987  1.8481  0.1857
  128OSM    C2S13623   3.096   1.217   3.162 -0.4671 -0.1667 -0.0794
  128OSM    H2S13624   2.990   1.183   3.154 -0.1498 -1.0413 -0.7112
  128OSM    C3S13625   3.153   1.125   3.269 -0.0170 -0.1664 -0.4331
  128OSM    H3S13626   3.253   1.166   3.294 -1.2416  2.2736  0.9036
  128OSM     O313627   3.168   0.985   3.236 -0.2504 -0.3754 -0.4370
  128OSM    HO313628   3.183   0.992   3.141  0.0774 -4.8361 -0.9011
  128OSM    C4S13629   3.066   1.139   3.395  0.8183 -0.7418  0.2242
  128OSM    H4S13630   3.110   1.199   3.475  0.1624  1.2591 -0.8527
  128OSM    C5S13631   2.944   1.080   3.426 -0.9251  0.1689 -0.2632
  128OSM    H5S13632   2.902   1.000   3.363 -0.7813 -0.5254  0.5011
  128OSM    C6S13633   2.869   1.098   3.553 -0.2214 -0.5594  0.0808
  128OSM    H6S13634   2.853   0.995   3.591  3.4366 -1.1004  0.5327
  128OSM    H6T13635   2.776   1.152   3.525  0.2323 -0.4728 -1.3261
  128OSM    C7S13636   2.936   1.173   3.675  0.7542 -0.6864 -0.2343
  128OSM    H7S13637   2.985   1.268   3.646  1.8496 -1.4201 -0.8702
  128OSM    H7T13638   3.023   1.109   3.701 -1.2694 -3.1770  0.8903
  128OSM    C8S13639   2.860   1.172   3.810 -0.3948 -0.5434 -0.4286
  128OSM    H8S13640   2.835   1.071   3.851  0.3032  0.8369  3.8318
  128OSM    H8T13641   2.760   1.218   3.792 -0.4547 -0.6828 -0.4611
  128OSM    C9S13642   2.935   1.244   3.928 -0.1806 -0.3678  0.9565
  128OSM    H9S13643   2.934   1.352   3.903 -1.7761 -0.2006  1.6160
  128OSM    H9T13644   3.037   1.202   3.928 -0.2147 -0.5110 -0.7835
  128OSM   C10S13645   2.874   1.220   4.066 -0.0952  0.2608  0.6886
  128OSM   H10S13646   2.882   1.109   4.065  2.2595  0.3279 -2.1233
  128OSM   H10T13647   2.766   1.248   4.060 -0.1341 -0.1323 -1.3696
  128OSM   C11S13648   2.949   1.277   4.183 -0.2090 -0.2114 -0.7814
  128OSM   H11S13649   2.987   1.378   4.157 -0.0113 -0.2394 -0.6061
  128OSM   H11T13650   3.048   1.232   4.207 -0.0180  1.0431  1.0014
  128OSM   C12S13651   2.879   1.287   4.322 -1.0981 -0.1963 -0.1140
  128OSM   H12S13652   2.852   1.186   4.358  1.1180 -0.7150  0.2148
  128OSM   H12T13653   2.791   1.355   4.317  0.2523  1.5714 -1.2909
  128OSM   C13S13654   2.974   1.345   4.433  0.2381 -0.2068  0.3439
  128OSM   H13S13655   3.004   1.445   4.398 -2.9554  0.7577  0.0962
  128OSM   H13T13656   3.065   1.281   4.431  0.3341 -0.1849  1.9686
  128OSM   C14S13657   2.906   1.361   4.573 -0.4333 -0.4921 -0.3529
  128OSM   H14S13658   2.885   1.263   4.621  0.0293  0.3144  1.5911
  128OSM   H14T13659   2.808   1.414   4.570 -0.6500 -0.9195 -1.1604
  128OSM   C15S13660   2.998   1.422   4.685 -0.1820 -0.1687  1.0786
  128OSM   H15S13661   2.992   1.533   4.693  0.5728 -0.2512  3.1905
  128OSM   H15T13662   3.101   1.394   4.655 -0.7641 -1.3210  0.0708
  128OSM   C16S13663   2.971   1.373   4.820 -0.8042  0.9504 -0.4107
  128OSM   H16S13664   2.935   1.267   4.817  0.5748  0.3182  2.5359
  128OSM   H16T13665   2.884   1.420   4.871 -0.5389  1.5104 -0.4706
  128OSM   C17S13666   3.094   1.362   4.916 -0.9040 -0.4645 -0.1700
  128OSM   H17S13667   3.168   1.441   4.890 -1.2406  0.5978  1.9072
  128OSM   H17T13668   3.139   1.261   4.901 -0.2994 -0.1589 -0.4801
  128OSM   C18S13669   3.060   1.385   5.057 -0.4389  0.3119 -0.1167
  128OSM   H18S13670   2.992   1.305   5.091 -0.4771 -0.2702 -1.4928
  128OSM   H18T13671   3.006   1.482   5.057 -0.8956  0.0652 -0.8103
  128OSM   H18U13672   3.150   1.380   5.121  0.3928 -0.5628 -1.3024
  128OSM    C1F13673   3.038   1.452   3.125  0.2257  0.5215 -0.2047
  128OSM     OF13674   2.981   1.419   3.020 -0.0137 -0.1249 -0.7877
  128OSM    C2F13675   3.033   1.600   3.177 -0.1634  0.3297 -0.5359
  128OSM    H2F13676   2.954   1.653   3.120 -1.1338 -0.5993 -0.0799
  128OSM    H2G13677   3.130   1.646   3.149  0.5949  0.8357  2.5690
  128OSM    C3F13678   3.026   1.619   3.330 -0.6134 -0.1456 -0.3334
  128OSM    H3F13679   3.028   1.730   3.337 -2.3790 -0.1243  0.1226
  128OSM    H3G13680   3.109   1.580   3.393 -0.8160 -0.0662 -0.0155
  128OSM    C4F13681   2.895   1.554   3.386  0.1225 -0.0580 -1.0838
  128OSM    H4F13682   2.911   1.446   3.407 -3.2206 -0.7456 -1.5543
  128OSM    H4G13683   2.810   1.570   3.316  1.2454  0.6109 -2.3243
  128OSM    C5F13684   2.854   1.615   3.524  0.0837  0.4875  0.1928
  128OSM    H5F13685   2.833   1.722   3.501  1.9393  0.6215 -1.1040
  128OSM    H5G13686   2.934   1.600   3.601 -0.1288  0.4903  0.4159
  128OSM    C6F13687   2.731   1.534   3.575  0.5774  0.0799  0.2692
  128OSM    H6F13688   2.742   1.424   3.573  0.5155  0.0364  1.4193
  128OSM    H6G13689   2.645   1.547   3.506 -0.1167 -0.0447  1.0976
  128OSM    C7F13690   2.689   1.557   3.722  0.5908 -0.2338 -0.4993
  128OSM    H7F13691   2.676   1.667   3.732 -1.9995 -0.5208  0.0164
  128OSM    H7G13692   2.771   1.520   3.786  0.0692 -0.6937 -0.0863
  128OSM    C8F13693   2.557   1.483   3.769 -0.2179 -0.5477  0.0895
  128OSM    H8F13694   2.574   1.374   3.758 -0.1533 -0.4588 -0.7857
  128OSM    H8G13695   2.468   1.518   3.712 -0.0266  0.7790  0.5742
  128OSM    C9F13696   2.541   1.514   3.916  0.2720 -0.2154  0.0582
  128OSM    H9F13697   2.630   1.495   3.978  0.4560 -0.2364 -0.2115
  128OSM   C10F13698   2.428   1.562   3.980 -0.2715 -0.2290  0.4430
  128OSM   H10F13699   2.434   1.567   4.090  0.1145  1.3881  0.3749
  128OSM   C11F13700   2.298   1.603   3.914  0.6053  0.3974 -0.1059
  128OSM   H11F13701   2.210   1.547   3.954 -1.4340  3.0488 -0.5956
  128OSM   H11G13702   2.298   1.567   3.809 -0.8879  0.2956 -0.1054
  128OSM   C12F13703   2.281   1.757   3.919 -0.0215 -0.0987  0.3409
  128OSM   H12F13704   2.180   1.774   3.875 -0.1745 -2.9814 -0.5788
  128OSM   H12G13705   2.357   1.810   3.857  2.4667 -2.4922  1.1515
  128OSM   C13F13706   2.281   1.819   4.059 -0.1224  0.6547  0.0222
  128OSM   H13F13707   2.284   1.929   4.047 -0.3985  0.4549 -2.3841
  128OSM   H13G13708   2.372   1.783   4.113 -1.5427 -1.8034  0.9474
  128OSM   C14F13709   2.162   1.771   4.134 -0.3625  0.0503 -0.5936
  128OSM   H14F13710   2.171   1.661   4.140 -0.2262  0.1345  2.7457
  128OSM   H14G13711   2.067   1.795   4.081 -0.0429  0.0113 -1.1942
  128OSM   C15F13712   2.158   1.822   4.280 -0.1000 -0.7817 -0.3210
  128OSM   H15F13713   2.252   1.799   4.334 -0.5917  0.1502  0.9798
  128OSM   H15G13714   2.086   1.770   4.347 -0.1514  1.9678  1.9637
  128OSM   C16F13715   2.125   1.973   4.296  0.2057 -0.5647  0.2031
  128OSM   H16F13716   2.022   1.992   4.260 -0.0427 -0.2748  1.0475
  128OSM   H16G13717   2.197   2.028   4.231 -0.0898 -1.0162 -0.5136
  128OSM   C17F13718   2.143   2.040   4.429  0.3054  0.2775 -0.7185
  128OSM   H17F13719   2.248   2.028   4.464  0.5562 -0.8861 -1.8132
  128OSM   H17G13720   2.072   1.998   4.503  0.1435  0.7845 -0.5831
  128OSM   C18F13721   2.112   2.186   4.419  0.1005  0.2387 -0.3892
  128OSM   H18F13722   2.005   2.212   4.428 -0.5392 -2.0251 -0.8408
  128OSM   H18G13723   2.144   2.229   4.322  0.9635  0.2435 -0.1179
  128OSM   H18H13724   2.177   2.241   4.491 -1.4095  1.8318 -0.1884
  129OSM      N13725   4.856   1.904   2.651  0.0540  0.5713 -0.0514
  129OSM    C1513726   4.998   1.893   2.691  0.1175 -0.4073 -0.1088
  129OSM   H15A13727   5.010   1.835   2.782  1.7622 -2.3615 -1.4673
  129OSM   H15B13728   5.043   1.989   2.708  2.1336 -0.9012 -2.1649
  129OSM   H15C13729   5.057   1.850   2.610 -0.5558 -1.2799 -0.1527
  129OSM    C1413730   4.844   2.001   2.539 -0.3750 -0.6947  0.1151
  129OSM   H14A13731   4.887   2.097   2.562  2.7736 -2.3650  1.8408
  129OSM   H14B13732   4.745   2.007   2.495 -0.9867  3.0659  1.5882
  129OSM   H14C13733   4.910   1.956   2.467  0.7406 -2.0548  1.8932
  129OSM    C1313734   4.814   1.768   2.597 -0.6618  0.0296  0.0074
  129OSM   H13A13735   4.708   1.760   2.583 -0.9925 -1.5458  2.6852
  129OSM   H13B13736   4.845   1.688   2.663 -0.9245 -1.0839 -1.1727
  129OSM   H13C13737   4.866   1.753   2.504 -2.5831  2.2277 -1.5156
  129OSM    C1213738   4.769   1.947   2.766 -0.5019  0.1352  0.4140
  129OSM   H12A13739   4.765   1.869   2.840 -1.4337 -0.1343  0.0979
  129OSM   H12B13740   4.667   1.955   2.729 -0.3234 -2.4922 -0.9036
  129OSM    C1113741   4.800   2.086   2.839 -0.4055 -0.0663 -0.0937
  129OSM   H11A13742   4.901   2.068   2.880 -0.1811 -0.2101 -0.6978
  129OSM   H11B13743   4.727   2.082   2.923  0.2833  0.5844  0.5533
  129OSM      P13744   4.901   2.306   2.748 -0.3546 -0.1959 -0.4891
  129OSM    O1313745   4.994   2.240   2.656  1.0228  0.0769 -0.3532
  129OSM    O1413746   4.842   2.439   2.718 -0.3600  0.1990 -0.2786
  129OSM    O1113747   4.969   2.316   2.890 -0.2267  0.1151 -0.1103
  129OSM    O1213748   4.777   2.208   2.767  0.3308  0.4106 -0.3865
  129OSM    C1S13749   4.896   2.358   3.006 -0.2949 -0.0656 -0.0129
  129OSM    H1S13750   4.865   2.268   3.063 -1.7762 -0.1296 -0.8847
  129OSM    H1T13751   4.807   2.420   2.982  0.8613  1.9566  0.6440
  129OSM     NF13752   4.932   2.454   3.224 -0.3051 -0.2090  0.3170
  129OSM    HNF13753   4.910   2.550   3.242 -1.3566 -0.0740 -1.4912
  129OSM    C2S13754   4.997   2.443   3.095  0.6846  0.3963 -0.0625
  129OSM    H2S13755   5.088   2.381   3.108  0.1078  0.0253  3.1853
  129OSM    C3S13756   5.044   2.570   3.033 -0.7416 -0.7179 -0.4026
  129OSM    H3S13757   4.948   2.626   3.020 -0.6355 -0.4337  0.0182
  129OSM     O313758   5.100   2.555   2.901  0.4631  0.2724 -0.1271
  129OSM    HO313759   5.064   2.474   2.865  0.8503 -0.6318  1.4157
  129OSM    C4S13760   5.133   2.652   3.129 -0.4806  0.0221  0.1430
  129OSM    H4S13761   5.081   2.747   3.148 -0.0422 -0.0788  2.0098
  129OSM    C5S13762   5.267   2.636   3.167 -0.3855 -0.3032  0.5483
  129OSM    H5S13763   5.326   2.559   3.115 -0.4523  2.0466 -3.4271
  129OSM    C6S13764   5.349   2.736   3.253 -0.1909  0.3980  0.4051
  129OSM    H6S13765   5.291   2.831   3.255 -0.4899  0.2037  1.3957
  129OSM    H6T13766   5.443   2.748   3.195 -0.8425 -0.9230 -0.9908
  129OSM    C7S13767   5.378   2.705   3.401  0.0498  0.3164 -0.3179
  129OSM    H7S13768   5.440   2.787   3.444  1.0825  0.1465 -1.4284
  129OSM    H7T13769   5.437   2.612   3.413 -0.1326  0.1643 -0.5935
  129OSM    C8S13770   5.246   2.682   3.488  0.0376 -0.1323  0.4497
  129OSM    H8S13771   5.174   2.623   3.427  1.5671 -0.5140 -1.0476
  129OSM    H8T13772   5.198   2.780   3.510 -1.4261 -0.3190 -1.6353
  129OSM    C9S13773   5.273   2.604   3.616  0.0972 -0.3065  0.1739
  129OSM    H9S13774   5.300   2.499   3.595  2.5080 -0.1294  1.9613
  129OSM    H9T13775   5.177   2.615   3.672 -0.0715  2.5078 -0.4899
  129OSM   C10S13776   5.367   2.682   3.706  1.0355  0.4456 -0.6779
  129OSM   H10S13777   5.334   2.788   3.713 -0.3048 -0.0132  0.3639
  129OSM   H10T13778   5.467   2.665   3.659  1.5212 -0.2231  0.5310
  129OSM   C11S13779   5.355   2.632   3.847  0.4237 -0.1771 -0.3677
  129OSM   H11S13780   5.365   2.521   3.852  1.0466 -0.0897  0.7670
  129OSM   H11T13781   5.249   2.655   3.871  0.1283 -1.2076 -0.6133
  129OSM   C12S13782   5.448   2.694   3.950 -0.2288  0.0578 -0.4181
  129OSM   H12S13783   5.458   2.803   3.929 -0.1907 -0.1218 -1.4142
  129OSM   H12T13784   5.548   2.648   3.934 -0.5546 -1.2960  1.2275
  129OSM   C13S13785   5.415   2.667   4.096 -0.8812 -0.1571  0.0850
  129OSM   H13S13786   5.354   2.575   4.111 -0.3898 -0.0815  3.1165
  129OSM   H13T13787   5.357   2.751   4.140  1.2664  0.7051  1.4115
  129OSM   C14S13788   5.540   2.659   4.186 -0.0059 -0.3607 -0.0528
  129OSM   H14S13789   5.609   2.745   4.171  0.0012 -0.7821 -3.0059
  129OSM   H14T13790   5.604   2.576   4.147  0.4946 -0.6461  1.3314
  129OSM   C15S13791   5.503   2.641   4.331  0.3275 -0.2171 -0.2546
  129OSM   H15S13792   5.407   2.585   4.328 -0.2930  0.6440  1.7907
  129OSM   H15T13793   5.472   2.736   4.380  2.6837  0.6810 -0.3485
  129OSM   C16S13794   5.606   2.565   4.406  0.4326 -0.2081 -0.0115
  129OSM   H16S13795   5.691   2.631   4.432  0.8448  0.3303 -2.4706
  129OSM   H16T13796   5.642   2.481   4.342  2.4675  1.1749 -0.7919
  129OSM   C17S13797   5.554   2.511   4.543  0.2389  0.3144  0.0784
  129OSM   H17S13798   5.629   2.445   4.592 -0.5750  1.3244  2.9037
  129OSM   H17T13799   5.466   2.450   4.512  1.3408 -0.5272 -1.5440
  129OSM   C18S13800   5.493   2.615   4.642  0.3767 -0.5803  0.2528
  129OSM   H18S13801   5.390   2.646   4.616  1.4132  1.8798 -1.2943
  129OSM   H18T13802   5.563   2.700   4.659  1.1467 -1.5187  2.1699
  129OSM   H18U13803   5.492   2.579   4.747 -1.1309  0.3956  0.6012
  129OSM    C1F13804   4.911   2.353   3.316 -1.1416 -0.1765 -0.1871
  129OSM     OF13805   4.943   2.237   3.293 -0.0866 -0.6033 -0.1364
  129OSM    C2F13806   4.879   2.396   3.454 -0.1026  0.4437  0.0354
  129OSM    H2F13807   4.798   2.473   3.450  0.2105  0.7444 -1.1302
  129OSM    H2G13808   4.975   2.440   3.487 -0.8497  2.5381 -0.4089
  129OSM    C3F13809   4.816   2.279   3.536 -0.7187 -0.4458  0.5196
  129OSM    H3F13810   4.880   2.188   3.541  0.6552  0.4694  0.4343
  129OSM    H3G13811   4.717   2.249   3.497 -0.4714 -1.1674  0.4272
  129OSM    C4F13812   4.794   2.314   3.688 -0.3696  0.3170  0.5166
  129OSM    H4F13813   4.716   2.393   3.698  1.7288  2.5066  0.4943
  129OSM    H4G13814   4.888   2.360   3.726 -0.0690 -1.3023  1.8580
  129OSM    C5F13815   4.746   2.193   3.772  0.3022 -0.4338  0.2702
  129OSM    H5F13816   4.817   2.110   3.753  2.0339  0.9374  0.5094
  129OSM    H5G13817   4.649   2.163   3.727  2.1362 -3.0463 -2.2588
  129OSM    C6F13818   4.719   2.236   3.919  0.0785  0.4236 -0.1072
  129OSM    H6F13819   4.637   2.308   3.935 -0.6820 -0.5309  0.4136
  129OSM    H6G13820   4.812   2.282   3.960  0.5505 -0.9154  0.3979
  129OSM    C7F13821   4.697   2.111   4.005  0.4748  0.5927 -0.3095
  129OSM    H7F13822   4.753   2.021   3.972  0.3573  1.0209 -1.7294
  129OSM    H7G13823   4.593   2.078   3.987  1.1003 -2.1259  0.5331
  129OSM    C8F13824   4.725   2.151   4.154 -0.7009 -0.0343 -0.1842
  129OSM    H8F13825   4.664   2.242   4.174 -1.6262 -0.2231 -1.9504
  129OSM    H8G13826   4.832   2.179   4.149 -0.9257  0.7282 -0.8529
  129OSM    C9F13827   4.699   2.037   4.255  0.2893  0.4179  0.3275
  129OSM    H9F13828   4.597   1.997   4.259 -0.0905  1.4620  1.5910
  129OSM   C10F13829   4.786   1.986   4.343  1.0202 -0.2142 -0.1375
  129OSM   H10F13830   4.749   1.907   4.411  0.6707  0.3216  0.3032
  129OSM   C11F13831   4.926   2.042   4.361  0.2996 -0.6167 -0.3641
  129OSM   H11F13832   4.904   2.149   4.381  2.0381 -0.0715 -1.2183
  129OSM   H11G13833   4.989   2.034   4.270  0.5617 -0.5291 -0.1906
  129OSM   C12F13834   5.008   1.992   4.485  0.3227  0.0317 -0.3635
  129OSM   H12F13835   4.946   2.006   4.576 -0.1548 -0.3493 -0.6287
  129OSM   H12G13836   5.109   2.039   4.494  0.5467 -0.5074  0.0337
  129OSM   C13F13837   5.035   1.841   4.471  0.0329  0.1531  0.6346
  129OSM   H13F13838   4.944   1.788   4.437  0.7655 -0.1559 -0.9459
  129OSM   H13G13839   5.059   1.793   4.569  1.3888 -2.5223 -0.8812
  129OSM   C14F13840   5.159   1.805   4.386 -0.1120  0.3006 -0.2537
  129OSM   H14F13841   5.243   1.876   4.402  0.0853 -0.0725  0.3669
  129OSM   H14G13842   5.121   1.817   4.282 -1.4024  0.4317  0.2132
  129OSM   C15F13843   5.208   1.657   4.405  0.0701  0.7231  0.5538
  129OSM   H15F13844   5.248   1.639   4.507  2.3907  0.7954 -0.2846
  129OSM   H15G13845   5.292   1.645   4.333 -0.5640  0.9404 -0.2463
  129OSM   C16F13846   5.093   1.562   4.369  0.5083  0.7664 -0.6389
  129OSM   H16F13847   5.055   1.594   4.269 -0.9910  3.4594  0.7048
  129OSM   H16G13848   5.009   1.574   4.440  2.2103 -0.4378  1.7268
  129OSM   C17F13849   5.138   1.420   4.366  1.0646  0.1759  0.1682
  129OSM   H17F13850   5.152   1.384   4.470  0.1130 -3.0556 -0.6814
  129OSM   H17G13851   5.237   1.411   4.316 -0.2809 -0.8367 -2.5648
  129OSM   C18F13852   5.042   1.316   4.298 -0.2402 -0.1625  0.9143
  129OSM   H18F13853   5.022   1.361   4.198 -0.6464  1.5076  1.7064
  129OSM   H18G13854   4.950   1.312   4.359 -0.9754 -0.6121 -0.1932
  129OSM   H18H13855   5.086   1.215   4.281  0.9026  0.6280 -1.1416
  130OSM      N13856   4.162   3.704   2.620  0.1837  0.0955  0.5126
  130OSM    C1513857   4.174   3.847   2.654 -0.4555 -0.0874  0.7610
  130OSM   H15A13858   4.078   3.896   2.646  0.1987  1.1611  0.4485
  130OSM   H15B13859   4.251   3.902   2.603  0.7951 -0.7480  1.8763
  130OSM   H15C13860   4.211   3.856   2.755  0.4554 -1.7932  0.6185
  130OSM    C1413861   4.092   3.626   2.730  0.4054 -0.1520  0.6426
  130OSM   H14A13862   3.991   3.665   2.733  0.6794  1.8558 -5.0473
  130OSM   H14B13863   4.154   3.630   2.818  2.1565  0.6936 -0.5692
  130OSM   H14C13864   4.093   3.523   2.697 -2.7640  0.3668 -1.6038
  130OSM    C1313865   4.083   3.708   2.490 -0.1097 -0.2572 -0.3216
  130OSM   H13A13866   4.090   3.609   2.449  0.4900 -0.7778  0.9769
  130OSM   H13B13867   4.129   3.778   2.421 -0.6115  3.3012  2.6205
  130OSM   H13C13868   3.984   3.749   2.502  0.9600  3.2370 -1.9573
  130OSM    C1213869   4.295   3.641   2.598 -0.3084 -0.3876  0.5333
  130OSM   H12A13870   4.274   3.544   2.556 -1.1388  0.9800 -2.4561
  130OSM   H12B13871   4.352   3.624   2.688  1.1403 -3.7604 -0.8498
  130OSM    C1113872   4.395   3.717   2.510 -0.1674  0.8867 -0.0632
  130OSM   H11A13873   4.342   3.741   2.416 -0.9854  0.8187  0.3691
  130OSM   H11B13874   4.476   3.646   2.484 -0.8773 -0.1164  0.4086
  130OSM      P13875   4.568   3.799   2.683 -0.3407  0.7203  0.3003
  130OSM    O1313876   4.690   3.742   2.616  0.6414 -0.3626 -1.0950
  130OSM    O1413877   4.589   3.924   2.756  1.0465 -0.1070  0.2234
  130OSM    O1113878   4.500   3.693   2.775 -0.2521 -0.2884  0.2869
  130OSM    O1213879   4.451   3.823   2.582 -0.2558  0.9732  0.5047
  130OSM    C1S13880   4.572   3.589   2.845 -0.4249  0.3388 -0.2610
  130OSM    H1S13881   4.677   3.619   2.864 -1.3191  2.2857  2.0768
  130OSM    H1T13882   4.568   3.489   2.796 -0.9337 -1.0144  2.3601
  130OSM     NF13883   4.572   3.440   3.042  0.0811 -0.0260  0.3412
  130OSM    HNF13884   4.517   3.358   3.032 -2.1898  1.4583 -0.1264
  130OSM    C2S13885   4.513   3.561   2.990  0.2507  0.2198 -0.0011
  130OSM    H2S13886   4.546   3.641   3.060  0.5091 -1.2533  1.6306
  130OSM    C3S13887   4.356   3.571   3.001  0.7511  0.7524  0.3325
  130OSM    H3S13888   4.312   3.492   2.936 -0.0558  1.0841  0.4645
  130OSM     O313889   4.305   3.693   2.945  0.2629  0.1044  0.0013
  130OSM    HO313890   4.370   3.715   2.878  1.1469 -4.6220 -1.0332
  130OSM    C4S13891   4.311   3.565   3.145 -0.1644  0.2703 -0.2320
  130OSM    H4S13892   4.224   3.499   3.156 -0.1466  0.1005 -1.0982
  130OSM    C5S13893   4.348   3.640   3.258  0.8543  0.2774  0.3930
  130OSM    H5S13894   4.427   3.714   3.245  2.1725 -1.3378 -1.5181
  130OSM    C6S13895   4.288   3.619   3.390 -0.5264 -0.0834  0.2270
  130OSM    H6S13896   4.216   3.534   3.394 -0.8658  0.2143  0.6140
  130OSM    H6T13897   4.224   3.705   3.422 -1.5397 -1.0487  0.8720
  130OSM    C7S13898   4.404   3.596   3.491  0.5563 -0.2612  0.2258
  130OSM    H7S13899   4.477   3.678   3.478  0.7087 -0.4249  0.0391
  130OSM    H7T13900   4.459   3.505   3.459 -2.0341 -1.7668 -0.2963
  130OSM    C8S13901   4.354   3.599   3.636 -0.3459 -0.7521  0.1022
  130OSM    H8S13902   4.256   3.547   3.634  0.8873 -3.2079 -0.7648
  130OSM    H8T13903   4.335   3.705   3.662  3.8952 -0.3537  2.5292
  130OSM    C9S13904   4.455   3.538   3.730  0.3773 -0.1046 -0.2148
  130OSM    H9S13905   4.553   3.588   3.720  0.7903 -0.5469  1.3093
  130OSM    H9T13906   4.461   3.430   3.704  1.1765  0.1079 -0.9657
  130OSM   C10S13907   4.414   3.560   3.872  0.0054 -0.1552 -0.3636
  130OSM   H10S13908   4.315   3.517   3.899  0.1199  0.2489  0.7647
  130OSM   H10T13909   4.397   3.669   3.879  0.9925 -0.0455  0.6011
  130OSM   C11S13910   4.518   3.516   3.972  0.3347  0.2224 -0.3779
  130OSM   H11S13911   4.616   3.550   3.933  0.1139  0.6065 -0.6061
  130OSM   H11T13912   4.514   3.407   3.991 -1.7594  0.4526  0.8336
  130OSM   C12S13913   4.491   3.569   4.120  0.5177  0.8569 -0.1401
  130OSM   H12S13914   4.461   3.676   4.115  0.8693  0.9516 -0.2402
  130OSM   H12T13915   4.589   3.556   4.172 -0.0405  1.0179  0.9785
  130OSM   C13S13916   4.377   3.488   4.188  0.6424  0.6676  0.2111
  130OSM   H13S13917   4.395   3.380   4.169 -0.1576  0.8331 -1.6469
  130OSM   H13T13918   4.280   3.518   4.143  0.8206  0.5626 -0.2505
  130OSM   C14S13919   4.363   3.507   4.337 -0.6152 -0.6590  0.2349
  130OSM   H14S13920   4.274   3.445   4.364 -1.1468 -0.1437 -0.3202
  130OSM   H14T13921   4.334   3.612   4.357  0.1003 -0.1273 -1.4074
  130OSM   C15S13922   4.482   3.473   4.424  0.1706  0.1959 -0.3356
  130OSM   H15S13923   4.565   3.542   4.400  2.6759 -1.9486  1.5648
  130OSM   H15T13924   4.507   3.366   4.409  0.5069  0.3362 -0.7675
  130OSM   C16S13925   4.438   3.493   4.574  0.8850  0.3320  0.1275
  130OSM   H16S13926   4.338   3.451   4.598  1.0191 -2.1136 -2.9932
  130OSM   H16T13927   4.431   3.602   4.590  1.8929  0.3537  0.5072
  130OSM   C17S13928   4.536   3.441   4.676  0.5133 -0.5035 -0.4449
  130OSM   H17S13929   4.513   3.334   4.698  1.4602 -0.9424 -1.4544
  130OSM   H17T13930   4.512   3.498   4.768  1.1244 -1.9611  0.6603
  130OSM   C18S13931   4.680   3.459   4.636 -0.6286  0.0182 -0.0477
  130OSM   H18S13932   4.705   3.381   4.561 -0.8570  1.7495 -2.0110
  130OSM   H18T13933   4.738   3.444   4.730  0.0257  0.1331 -0.4297
  130OSM   H18U13934   4.710   3.559   4.598  1.7613 -1.1096 -1.3527
  130OSM    C1F13935   4.694   3.430   3.073 -0.6210  0.1969  0.2737
  130OSM     OF13936   4.784   3.504   3.029 -0.1842  0.9583 -0.1188
  130OSM    C2F13937   4.742   3.322   3.166 -0.1648 -0.7007 -0.0676
  130OSM    H2F13938   4.838   3.287   3.123 -0.1187 -1.4169  0.6068
  130OSM    H2G13939   4.673   3.236   3.152 -0.3053 -0.2222 -2.7764
  130OSM    C3F13940   4.744   3.369   3.310 -0.1054  0.5581  0.5289
  130OSM    H3F13941   4.638   3.402   3.318 -0.6135 -0.5555 -1.1272
  130OSM    H3G13942   4.809   3.459   3.311  1.8801 -0.8242  0.9737
  130OSM    C4F13943   4.781   3.266   3.412 -0.6746  0.0290  0.2651
  130OSM    H4F13944   4.891   3.252   3.404 -0.7483 -3.0976  2.8239
  130OSM    H4G13945   4.718   3.179   3.384 -1.6394 -0.3700  3.3425
  130OSM    C5F13946   4.744   3.308   3.558  0.2896  0.2291  0.3024
  130OSM    H5F13947   4.634   3.325   3.550  0.3985  0.9309  0.1935
  130OSM    H5G13948   4.804   3.397   3.585  0.4107  0.6242 -1.1510
  130OSM    C6F13949   4.785   3.209   3.669 -0.0202  0.2869 -0.1021
  130OSM    H6F13950   4.893   3.181   3.670 -0.5481 -2.1783  2.1101
  130OSM    H6G13951   4.740   3.111   3.642  0.7611  0.6722 -3.0966
  130OSM    C7F13952   4.741   3.255   3.810 -0.1730 -0.1636 -0.0848
  130OSM    H7F13953   4.641   3.304   3.804  0.1432  0.5371  0.2407
  130OSM    H7G13954   4.801   3.343   3.840  0.9026 -0.0887 -2.2779
  130OSM    C8F13955   4.759   3.145   3.921  0.0817  0.2662  0.0349
  130OSM    H8F13956   4.865   3.113   3.912 -0.2776 -0.6205 -1.6309
  130OSM    H8G13957   4.708   3.055   3.880 -0.6086 -0.5513  2.5319
  130OSM    C9F13958   4.701   3.179   4.057 -0.0870 -0.2461 -0.1357
  130OSM    H9F13959   4.593   3.159   4.062 -0.0768  0.0007  1.8414
  130OSM   C10F13960   4.769   3.201   4.170 -0.1938  0.0408 -0.4645
  130OSM   H10F13961   4.708   3.209   4.262 -0.3882  0.8548 -0.6538
  130OSM   C11F13962   4.925   3.209   4.177  0.1754 -0.4344  0.6765
  130OSM   H11F13963   4.976   3.204   4.079  0.1632 -1.4038  0.7079
  130OSM   H11G13964   4.974   3.121   4.224  0.7346  0.9011  2.7182
  130OSM   C12F13965   4.978   3.328   4.257 -1.1815 -0.6603  0.0027
  130OSM   H12F13966   5.086   3.306   4.248 -0.6147  1.6394  0.6719
  130OSM   H12G13967   4.943   3.330   4.363 -1.8882  1.0485 -0.2260
  130OSM   C13F13968   4.946   3.462   4.196  0.1559 -0.7318 -0.8627
  130OSM   H13F13969   4.849   3.499   4.235 -1.1182 -3.6363 -1.0290
  130OSM   H13G13970   4.930   3.437   4.089  0.3009 -2.0415 -0.5838
  130OSM   C14F13971   5.052   3.573   4.214  0.6154 -0.2609 -0.4383
  130OSM   H14F13972   5.009   3.670   4.181  0.7612  0.3426  1.0477
  130OSM   H14G13973   5.140   3.542   4.154  0.8973 -0.2150 -0.0548
  130OSM   C15F13974   5.090   3.596   4.360 -0.1521 -0.2129  1.1619
  130OSM   H15F13975   5.000   3.606   4.425 -0.5401  2.7344  0.2955
  130OSM   H15G13976   5.135   3.697   4.360 -0.8525  0.1801  3.5912
  130OSM   C16F13977   5.192   3.502   4.428  0.4917 -0.1785  0.1443
  130OSM   H16F13978   5.264   3.455   4.357 -1.0620 -0.5052 -1.2707
  130OSM   H16G13979   5.132   3.419   4.471  1.2945 -0.4920  0.7036
  130OSM   C17F13980   5.281   3.574   4.532 -0.8215 -0.0279 -0.3191
  130OSM   H17F13981   5.206   3.625   4.597 -0.1306  0.8701 -0.2094
  130OSM   H17G13982   5.341   3.650   4.478  0.5012 -0.2806  0.7539
  130OSM   C18F13983   5.379   3.486   4.607 -0.5679 -0.5772  0.0014
  130OSM   H18F13984   5.410   3.405   4.537  1.3468  2.2453 -2.6969
  130OSM   H18G13985   5.327   3.442   4.694 -0.7119 -0.1116  0.1516
  130OSM   H18H13986   5.470   3.546   4.629 -0.6685  0.2961 -1.8068
  131OSM      N13987   2.844   0.092   2.566  0.3657  0.6792  0.0725
  131OSM    C1513988   2.916   0.042   2.448  0.6164  0.3505  0.9203
  131OSM   H15A13989   2.926  -0.064   2.464 -1.8143  0.0754  0.9279
  131OSM   H15B13990   3.008   0.095   2.429 -0.8263  1.9098 -2.7237
  131OSM   H15C13991   2.864   0.051   2.354 -0.3283  1.3761  1.5145
  131OSM    C1413992   2.832   0.238   2.560  0.6334  0.5272  0.6857
  131OSM   H14A13993   2.929   0.284   2.574  0.2424  1.2072  1.2002
  131OSM   H14B13994   2.754   0.277   2.623  0.8886  1.0431  0.6888
  131OSM   H14C13995   2.798   0.272   2.463  0.6065  0.3504  0.6337
  131OSM    C1313996   2.708   0.033   2.566  0.3420  0.4534  0.2463
  131OSM   H13A13997   2.660   0.055   2.472 -1.9250 -2.5244  0.5440
  131OSM   H13B13998   2.651   0.085   2.641  2.0067  1.6690  0.7495
  131OSM   H13C13999   2.708  -0.072   2.593  0.8217  0.6779  1.1747
  131OSM    C1214000   2.912   0.048   2.693 -0.9826 -0.0933  0.3864
  131OSM   H12A14001   3.019   0.052   2.678 -1.3824  2.1037 -2.8186
  131OSM   H12B14002   2.892  -0.058   2.693  0.5191 -0.4014  0.1390
  131OSM    C1114003   2.870   0.107   2.833 -0.1957  0.1877 -0.9644
  131OSM   H11A14004   2.923   0.050   2.912 -1.2869  0.0209 -0.3404
  131OSM   H11B14005   2.762   0.082   2.844 -0.0392  0.0600  0.4766
  131OSM      P14006   3.032   0.311   2.863  0.0528 -0.2258  0.3909
  131OSM    O1314007   3.125   0.256   2.756  0.2766  0.0864  0.1013
  131OSM    O1414008   3.012   0.457   2.871  0.0429  0.1811  0.2927
  131OSM    O1114009   3.080   0.264   3.007  0.3460  0.3969  0.1678
  131OSM    O1214010   2.900   0.243   2.844  0.7870  0.2296  0.3641
  131OSM    C1S14011   3.006   0.297   3.122 -0.0925  0.1121  0.7717
  131OSM    H1S14012   2.906   0.249   3.121 -1.2984  2.3258 -2.9590
  131OSM    H1T14013   2.992   0.407   3.119  1.4372  0.4520  3.1812
  131OSM     NF14014   3.008   0.301   3.374 -0.3281  0.2477  0.1568
  131OSM    HNF14015   3.048   0.376   3.426  0.3034  1.5248 -2.0178
  131OSM    C2S14016   3.081   0.257   3.252 -0.3118  0.0300 -0.9421
  131OSM    H2S14017   3.084   0.146   3.259  1.0051  0.1275  0.7974
  131OSM    C3S14018   3.224   0.317   3.256  0.5282  0.1286  0.5196
  131OSM    H3S14019   3.213   0.425   3.232  2.8115  0.6477  1.5465
  131OSM     O314020   3.305   0.275   3.151  0.2463 -0.2415 -0.6441
  131OSM    HO314021   3.239   0.251   3.087 -0.3670  1.2092 -0.5880
  131OSM    C4S14022   3.294   0.300   3.391 -0.9171  0.1546  0.6522
  131OSM    H4S14023   3.289   0.385   3.460  1.4690  0.6935  0.2560
  131OSM    C5S14024   3.357   0.186   3.433  0.8872 -0.1558  0.7979
  131OSM    H5S14025   3.374   0.100   3.366  0.6351 -0.8638  1.6215
  131OSM    C6S14026   3.414   0.165   3.567  0.1041 -0.2459 -0.0231
  131OSM    H6S14027   3.440   0.266   3.605  1.0044 -0.4931  0.0370
  131OSM    H6T14028   3.513   0.115   3.557  2.1522  3.4510 -0.2610
  131OSM    C7S14029   3.328   0.088   3.666 -0.2708 -0.2889 -0.2567
  131OSM    H7S14030   3.302  -0.007   3.614  1.1173 -1.3756  0.9461
  131OSM    H7T14031   3.245   0.152   3.702  0.4615  1.6115 -1.7576
  131OSM    C8S14032   3.409   0.045   3.797  0.1200  0.4161  0.3254
  131OSM    H8S14033   3.515   0.027   3.767  0.6477  2.4101  0.8162
  131OSM    H8T14034   3.354  -0.048   3.823 -2.9513  2.0175  0.0218
  131OSM    C9S14035   3.403   0.146   3.911 -0.4386 -0.7450  0.1942
  131OSM    H9S14036   3.298   0.183   3.911 -0.8312 -1.7963 -0.4043
  131OSM    H9T14037   3.453   0.241   3.882 -1.8670 -0.5831 -2.0102
  131OSM   C10S14038   3.448   0.091   4.041 -0.3077  0.4452  0.2231
  131OSM   H10S14039   3.542   0.035   4.025 -1.3363 -0.9497 -1.2244
  131OSM   H10T14040   3.381   0.009   4.075  0.1177 -0.3931 -0.9055
  131OSM   C11S14041   3.471   0.187   4.160  0.0442 -0.1821  0.0829
  131OSM   H11S14042   3.369   0.232   4.162  0.3149  0.6149 -1.6162
  131OSM   H11T14043   3.524   0.276   4.118 -0.7827  0.6577  0.7762
  131OSM   C12S14044   3.530   0.135   4.292  0.5086  0.6314  0.7495
  131OSM   H12S14045   3.636   0.105   4.275  0.3810  2.0422 -3.7007
  131OSM   H12T14046   3.480   0.042   4.327 -0.7422  0.8681 -0.3041
  131OSM   C13S14047   3.520   0.231   4.409 -0.0739 -0.1559  0.5892
  131OSM   H13S14048   3.418   0.274   4.400  0.1735  0.1824 -0.9198
  131OSM   H13T14049   3.598   0.310   4.405 -0.7928  0.5050 -1.3212
  131OSM   C14S14050   3.537   0.151   4.540 -0.0308  0.5661  0.1645
  131OSM   H14S14051   3.633   0.095   4.533  0.0883  0.6621  0.9789
  131OSM   H14T14052   3.455   0.076   4.539  2.2734 -2.1296 -1.2593
  131OSM   C15S14053   3.535   0.244   4.655  0.2834 -0.4292 -0.3536
  131OSM   H15S14054   3.597   0.336   4.644 -2.1534  1.6538  1.9118
  131OSM   H15T14055   3.579   0.183   4.736  1.0730 -0.2652 -0.6452
  131OSM   C16S14056   3.393   0.285   4.700 -0.1955 -0.0038  0.0061
  131OSM   H16S14057   3.328   0.202   4.736  1.5799  0.2261  4.3508
  131OSM   H16T14058   3.337   0.340   4.622 -0.6308  0.5151  0.6675
  131OSM   C17S14059   3.388   0.386   4.819  0.3881  0.9016  0.6924
  131OSM   H17S14060   3.452   0.475   4.799  1.8155 -0.4874 -1.3503
  131OSM   H17T14061   3.420   0.344   4.916  0.2359  0.3135  0.4939
  131OSM   C18S14062   3.245   0.446   4.844 -0.7136 -0.1813  0.1761
  131OSM   H18S14063   3.188   0.489   4.759  0.8935 -1.1836 -1.4872
  131OSM   H18T14064   3.264   0.532   4.912 -2.1952  0.0800  0.2890
  131OSM   H18U14065   3.172   0.372   4.883 -0.3233 -0.5573  0.2034
  131OSM    C1F14066   2.909   0.228   3.424 -0.7136 -0.0892  0.2521
  131OSM     OF14067   2.885   0.113   3.382  0.0023 -0.1088  0.0585
  131OSM    C2F14068   2.819   0.284   3.531  0.3972 -0.5833 -0.5379
  131OSM    H2F14069   2.740   0.339   3.476 -0.1497 -0.4591  0.3536
  131OSM    H2G14070   2.880   0.356   3.590 -0.8645  0.7556 -0.8166
  131OSM    C3F14071   2.750   0.175   3.620  0.0836  0.0059  0.4878
  131OSM    H3F14072   2.701   0.100   3.553 -0.1350 -0.1068  0.7703
  131OSM    H3G14073   2.663   0.227   3.667 -0.8369 -0.3107 -0.8021
  131OSM    C4F14074   2.842   0.101   3.716 -0.2846 -1.0292 -0.8974
  131OSM    H4F14075   2.933   0.067   3.662  0.2236 -1.8808  0.4289
  131OSM    H4G14076   2.787   0.010   3.750  0.0395 -0.6544  0.7314
  131OSM    C5F14077   2.871   0.202   3.831  0.2935  0.0303 -0.4889
  131OSM    H5F14078   2.779   0.239   3.881  1.9673  1.0787  2.0031
  131OSM    H5G14079   2.919   0.294   3.792 -0.1269 -0.3935 -2.1230
  131OSM    C6F14080   2.953   0.133   3.940  0.1221 -0.1120  0.4823
  131OSM    H6F14081   3.048   0.104   3.891  0.1814  2.3070 -1.0190
  131OSM    H6G14082   2.897   0.045   3.977 -0.6424  0.0631 -0.2308
  131OSM    C7F14083   2.985   0.220   4.057 -0.1355  0.5261  0.0692
  131OSM    H7F14084   2.885   0.245   4.099 -0.1731  2.3408 -0.9753
  131OSM    H7G14085   3.030   0.318   4.027  0.5336 -0.0147 -0.7404
  131OSM    C8F14086   3.076   0.141   4.159 -0.3514 -0.1521 -0.6266
  131OSM    H8F14087   3.174   0.128   4.109  1.5038  0.4312  2.5115
  131OSM    H8G14088   3.034   0.040   4.176 -1.0497  0.4629  1.6913
  131OSM    C9F14089   3.102   0.228   4.278 -0.0844  0.1951  0.4940
  131OSM    H9F14090   3.119   0.333   4.251  1.5808 -0.7176 -2.5272
  131OSM   C10F14091   3.123   0.176   4.398 -0.4646  0.3470  0.0423
  131OSM   H10F14092   3.161   0.243   4.477  1.7757 -2.5360  1.5879
  131OSM   C11F14093   3.114   0.034   4.438 -0.5622 -0.0015 -0.0081
  131OSM   H11F14094   3.210  -0.002   4.393  0.7688  1.8374  1.2085
  131OSM   H11G14095   3.030  -0.016   4.385 -0.4985  0.8194 -0.9175
  131OSM   C12F14096   3.108   0.004   4.589  0.5519  0.6311  0.3626
  131OSM   H12F14097   3.204   0.042   4.629  1.3624  0.6618 -1.5033
  131OSM   H12G14098   3.109  -0.101   4.623  0.6995  0.5572  0.1317
  131OSM   C13F14099   3.012   0.094   4.678 -0.1863  0.5926  0.1209
  131OSM   H13F14100   2.906   0.071   4.653 -0.3709 -0.7440  2.0192
  131OSM   H13G14101   3.024   0.204   4.662  1.8609  0.6739  1.7547
  131OSM   C14F14102   3.028   0.071   4.831  0.1749  0.4473  0.3346
  131OSM   H14F14103   3.136   0.074   4.859  0.5571 -2.2884 -0.5189
  131OSM   H14G14104   2.991  -0.030   4.856  0.5998  0.5786  1.5982
  131OSM   C15F14105   2.952   0.167   4.928  0.0288  0.1264 -0.1180
  131OSM   H15F14106   2.986   0.271   4.909 -1.3584  0.5312 -0.4674
  131OSM   H15G14107   2.971   0.137   5.034 -0.4256  1.5515  0.3882
  131OSM   C16F14108   2.801   0.169   4.915  0.3761  0.6485 -0.1174
  131OSM   H16F14109   2.763   0.076   4.962  1.4387  0.0145 -0.4659
  131OSM   H16G14110   2.770   0.165   4.808  0.3251  2.4417 -0.1960
  131OSM   C17F14111   2.736   0.288   4.976  0.8838  0.1871 -0.5839
  131OSM   H17F14112   2.769   0.378   4.920 -0.5381  1.5410  0.6435
  131OSM   H17G14113   2.773   0.311   5.078 -0.7899 -1.2497  0.4097
  131OSM   C18F14114   2.582   0.296   4.986 -0.0518 -0.0948 -0.9209
  131OSM   H18F14115   2.519   0.254   4.904 -0.5996  0.0839 -0.5993
  131OSM   H18G14116   2.554   0.403   4.997  0.1350  0.2154 -3.0785
  131OSM   H18H14117   2.560   0.234   5.076  0.8014  1.9027  0.7404
  132OSM      N14118   2.194   1.845   2.094  0.1235 -0.6386 -0.0755
  132OSM    C1514119   2.318   1.778   2.128 -0.1426 -0.3319  0.5659
  132OSM   H15A14120   2.403   1.844   2.118  1.7513 -2.8632 -1.8059
  132OSM   H15B14121   2.333   1.690   2.067 -1.1258  0.6532 -1.1439
  132OSM   H15C14122   2.319   1.750   2.232  1.0249 -0.4539  0.5400
  132OSM    C1414123   2.211   1.917   1.961  0.3968  0.1649 -0.3194
  132OSM   H14A14124   2.250   1.854   1.882 -2.1237 -2.9037  0.6602
  132OSM   H14B14125   2.274   2.002   1.985  1.7784 -0.3328 -1.9601
  132OSM   H14C14126   2.117   1.961   1.934 -0.8204 -1.0191  1.6678
  132OSM    C1314127   2.082   1.753   2.083  0.5397  0.4716 -0.8191
  132OSM   H13A14128   2.114   1.663   2.031  4.0798  1.1497 -0.1144
  132OSM   H13B14129   1.994   1.802   2.046 -1.1894 -1.3231  0.7162
  132OSM   H13C14130   2.051   1.713   2.178  2.6635  0.8507  0.0976
  132OSM    C1214131   2.158   1.962   2.190 -0.1533  0.2690 -0.6040
  132OSM   H12A14132   2.061   2.003   2.169 -0.0269  1.7079  1.3129
  132OSM   H12B14133   2.231   2.039   2.168 -1.0919  1.4337  0.2475
  132OSM    C1114134   2.156   1.940   2.348 -0.1992 -0.1716 -0.3070
  132OSM   H11A14135   2.071   1.873   2.371  1.7375 -2.2315  1.2309
  132OSM   H11B14136   2.118   2.034   2.394 -2.5406 -0.7539 -0.9132
  132OSM      P14137   2.387   1.945   2.473 -0.0244  0.4689 -0.0101
  132OSM    O1314138   2.513   1.874   2.443 -0.0152  0.1995 -0.2112
  132OSM    O1414139   2.384   2.081   2.439  0.2379  0.3503 -0.0511
  132OSM    O1114140   2.356   1.935   2.627 -0.1598 -0.0585  0.6239
  132OSM    O1214141   2.269   1.868   2.398  0.2176 -0.6815  0.3287
  132OSM    C1S14142   2.223   1.963   2.677 -0.0766 -0.4165 -0.0437
  132OSM    H1S14143   2.171   1.865   2.674 -2.7070  0.8471  0.5061
  132OSM    H1T14144   2.158   2.024   2.610 -1.1407  0.2209  1.5031
  132OSM     NF14145   2.069   2.045   2.865 -0.5254 -0.2337 -0.3933
  132OSM    HNF14146   2.032   2.138   2.865  2.0278  0.8803 -2.0353
  132OSM    C2S14147   2.209   2.018   2.826  0.2054  0.3809 -0.0113
  132OSM    H2S14148   2.245   1.934   2.889  0.2025  1.2222  1.1516
  132OSM    C3S14149   2.301   2.138   2.852 -0.8612 -0.8121  0.5306
  132OSM    H3S14150   2.269   2.224   2.790  2.1916  0.7702  0.9823
  132OSM     O314151   2.437   2.118   2.830 -0.4155  0.0810 -0.2781
  132OSM    HO314152   2.425   2.037   2.780 -0.2077  0.5984 -1.1877
  132OSM    C4S14153   2.300   2.185   2.994 -0.2486 -0.4183 -0.1333
  132OSM    H4S14154   2.298   2.102   3.066 -1.3627  0.0691  0.4212
  132OSM    C5S14155   2.310   2.312   3.037  0.0065 -0.4958 -0.4077
  132OSM    H5S14156   2.319   2.400   2.972 -0.3569 -0.2539 -0.1314
  132OSM    C6S14157   2.310   2.341   3.185 -0.4957 -0.0693  0.3692
  132OSM    H6S14158   2.286   2.254   3.250  0.1618 -0.5989 -0.0732
  132OSM    H6T14159   2.240   2.421   3.214  1.2698  0.9589  1.9838
  132OSM    C7S14160   2.448   2.391   3.231 -0.2309 -0.3540  0.0916
  132OSM    H7S14161   2.468   2.494   3.194 -2.2077 -0.8309 -2.5714
  132OSM    H7T14162   2.533   2.324   3.204  0.6779  0.7470  0.1311
  132OSM    C8S14163   2.461   2.390   3.385  0.1009 -0.4319  0.1576
  132OSM    H8S14164   2.490   2.289   3.422  2.8141  0.4928  0.8230
  132OSM    H8T14165   2.365   2.430   3.422  0.5155  1.7162 -0.9324
  132OSM    C9S14166   2.562   2.493   3.430  0.2987 -0.2236  0.3147
  132OSM    H9S14167   2.516   2.594   3.432  0.6490 -0.0688  1.2171
  132OSM    H9T14168   2.643   2.492   3.353  0.9189 -1.3626  0.9588
  132OSM   C10S14169   2.625   2.481   3.561 -0.5142  0.0949  0.0301
  132OSM   H10S14170   2.683   2.574   3.583  0.4284 -0.9454  2.2322
  132OSM   H10T14171   2.698   2.397   3.563  1.5438  1.8084  1.9844
  132OSM   C11S14172   2.519   2.466   3.672 -0.0196  0.2778 -0.1526
  132OSM   H11S14173   2.482   2.361   3.664  2.6401 -0.8514  1.2078
  132OSM   H11T14174   2.432   2.532   3.654 -0.0367 -0.4048 -3.0827
  132OSM   C12S14175   2.577   2.496   3.809  0.6956 -0.0755 -1.2667
  132OSM   H12S14176   2.615   2.601   3.811  2.1286 -0.5868 -0.6803
  132OSM   H12T14177   2.661   2.427   3.830  0.0893 -0.2466  0.7155
  132OSM   C13S14178   2.475   2.482   3.927 -0.4772 -0.0316  0.0284
  132OSM   H13S14179   2.527   2.504   4.023 -1.2231  0.2585  0.3749
  132OSM   H13T14180   2.444   2.375   3.934  1.2218 -0.4925  1.4167
  132OSM   C14S14181   2.357   2.578   3.921 -0.0848  0.5783 -0.4232
  132OSM   H14S14182   2.297   2.535   3.838 -0.2512 -0.7999  0.3834
  132OSM   H14T14183   2.393   2.682   3.905 -0.7884  1.1603  1.5557
  132OSM   C15S14184   2.269   2.561   4.045 -0.7223 -0.7753 -0.2673
  132OSM   H15S14185   2.315   2.614   4.131 -0.9436 -0.7375 -0.1702
  132OSM   H15T14186   2.262   2.459   4.087  1.3643 -0.3442  1.2975
  132OSM   C16S14187   2.138   2.638   4.024 -0.1057 -0.7970  0.2304
  132OSM   H16S14188   2.100   2.594   3.929  1.1525  0.8776 -1.1239
  132OSM   H16T14189   2.174   2.743   4.009  0.1204 -0.4926  2.5996
  132OSM   C17S14190   2.043   2.617   4.135  0.6436  0.5673  0.3667
  132OSM   H17S14191   2.092   2.637   4.233  1.6642 -0.4697  0.1008
  132OSM   H17T14192   2.010   2.511   4.144  0.7606  0.4063 -0.8819
  132OSM   C18S14193   1.921   2.703   4.115 -0.2285  0.8085 -0.5145
  132OSM   H18S14194   1.865   2.659   4.030 -1.3278  2.1790 -0.5254
  132OSM   H18T14195   1.942   2.808   4.084 -2.3211  1.5647  0.4545
  132OSM   H18U14196   1.856   2.701   4.205  0.3508 -2.3338 -0.0423
  132OSM    C1F14197   1.995   1.942   2.894  0.1941  0.2656 -0.2668
  132OSM     OF14198   2.038   1.829   2.863  0.6375 -0.2484  0.1918
  132OSM    C2F14199   1.865   1.962   2.959  0.6128  0.3186 -0.3948
  132OSM    H2F14200   1.778   1.938   2.894 -0.0995  0.8409  0.3439
  132OSM    H2G14201   1.849   2.068   2.988  0.6492  0.2778 -0.2203
  132OSM    C3F14202   1.837   1.876   3.082  0.0796  0.4918 -0.4676
  132OSM    H3F14203   1.925   1.890   3.148  0.9099 -0.6858 -1.2937
  132OSM    H3G14204   1.848   1.767   3.065  0.7085 -0.1579  3.3184
  132OSM    C4F14205   1.693   1.910   3.134 -0.2618  0.6118 -0.6643
  132OSM    H4F14206   1.615   1.842   3.092 -0.0099 -0.4323  0.4852
  132OSM    H4G14207   1.661   2.008   3.093  3.5351  2.0685 -0.5449
  132OSM    C5F14208   1.695   1.903   3.286 -0.4321 -0.1046 -0.6674
  132OSM    H5F14209   1.793   1.933   3.330 -0.4947 -0.4902 -0.2529
  132OSM    H5G14210   1.683   1.798   3.319  4.9709 -0.6380  0.5272
  132OSM    C6F14211   1.579   1.983   3.340  0.6759  0.0805 -0.9921
  132OSM    H6F14212   1.495   1.962   3.271  0.6887  2.0683 -1.6665
  132OSM    H6G14213   1.606   2.091   3.336 -0.7933  0.5270  0.2731
  132OSM    C7F14214   1.541   1.944   3.479 -0.6602  0.3371 -0.5827
  132OSM    H7F14215   1.629   1.941   3.546  0.2651 -1.6862 -1.7932
  132OSM    H7G14216   1.524   1.834   3.476 -0.0081  0.1565  1.2617
  132OSM    C8F14217   1.422   2.018   3.535  1.1398 -0.5760  0.0194
  132OSM    H8F14218   1.338   2.010   3.463 -1.6702 -0.4172  3.0462
  132OSM    H8G14219   1.445   2.126   3.548  2.6588 -0.5830 -1.9919
  132OSM    C9F14220   1.372   1.954   3.662  0.0370  0.5652 -0.4330
  132OSM    H9F14221   1.382   1.845   3.660 -2.0862  0.2244  1.9471
  132OSM   C10F14222   1.327   2.010   3.779 -0.7061 -0.0917 -0.0269
  132OSM   H10F14223   1.301   1.945   3.864 -0.1612  1.3257  1.2710
  132OSM   C11F14224   1.324   2.157   3.814  0.3417 -0.4253 -0.0477
  132OSM   H11F14225   1.344   2.225   3.729  0.4617  0.0060  0.3220
  132OSM   H11G14226   1.405   2.176   3.887  0.2216 -1.9658  0.5327
  132OSM   C12F14227   1.182   2.216   3.869 -0.3861  0.2818  0.0682
  132OSM   H12F14228   1.103   2.196   3.793 -2.1749  2.5162  1.1996
  132OSM   H12G14229   1.191   2.327   3.871 -0.6395  0.2952  0.6185
  132OSM   C13F14230   1.148   2.147   4.009  0.5449 -0.6632  0.8436
  132OSM   H13F14231   1.164   2.037   4.000 -0.7114 -0.7977  0.1335
  132OSM   H13G14232   1.042   2.164   4.038  0.8250  0.2761  1.3590
  132OSM   C14F14233   1.238   2.201   4.125 -0.3155  0.3465  0.9482
  132OSM   H14F14234   1.224   2.311   4.131  0.9104  0.6313 -0.7236
  132OSM   H14G14235   1.346   2.176   4.112 -0.1980  0.5191  1.5378
  132OSM   C15F14236   1.220   2.137   4.266 -0.2586 -0.3606  0.1177
  132OSM   H15F14237   1.219   2.026   4.261 -2.9037 -0.3686 -1.2293
  132OSM   H15G14238   1.115   2.146   4.301 -0.2368 -2.0164  0.6863
  132OSM   C16F14239   1.300   2.207   4.370  0.0039 -0.0425  0.2491
  132OSM   H16F14240   1.270   2.314   4.380  1.5429  0.6905 -2.2209
  132OSM   H16G14241   1.408   2.220   4.346  0.2546  1.1531  1.8267
  132OSM   C17F14242   1.288   2.135   4.502 -0.1417 -0.2632 -0.2103
  132OSM   H17F14243   1.333   2.034   4.492 -1.0153 -0.8238  1.2406
  132OSM   H17G14244   1.182   2.112   4.527 -0.4897  2.0534  0.6696
  132OSM   C18F14245   1.334   2.209   4.628 -0.9089  0.4458 -0.3314
  132OSM   H18F14246   1.445   2.210   4.625 -0.7931  0.8229  2.0477
  132OSM   H18G14247   1.300   2.162   4.722 -1.4343  1.1535 -0.1631
  132OSM   H18H14248   1.283   2.308   4.627  2.7207  2.5821  2.6958
  133OSM      N14249   1.228   1.336   2.047 -0.0610  0.0212  0.3188
  133OSM    C1514250   1.127   1.411   1.971 -0.1179  0.1985  0.3694
  133OSM   H15A14251   1.164   1.459   1.881  0.4061  0.3862  0.6741
  133OSM   H15B14252   1.077   1.488   2.029  1.7088  1.0454  0.9105
  133OSM   H15C14253   1.052   1.343   1.935  0.8953 -0.1158 -1.2595
  133OSM    C1414254   1.251   1.199   1.986 -0.2730 -0.4054 -0.2782
  133OSM   H14A14255   1.166   1.134   1.972 -0.6327 -0.1033  0.4729
  133OSM   H14B14256   1.323   1.146   2.046  0.7091 -0.5117 -1.5145
  133OSM   H14C14257   1.303   1.220   1.894  1.8306  1.8944  1.3010
  133OSM    C1314258   1.359   1.411   2.046  0.3646 -0.1006  0.0269
  133OSM   H13A14259   1.392   1.439   1.947 -0.5577  1.0014  0.0141
  133OSM   H13B14260   1.433   1.354   2.100 -0.8875 -0.2689  1.6070
  133OSM   H13C14261   1.338   1.503   2.098  2.1210 -0.8665  2.2816
  133OSM    C1214262   1.189   1.305   2.189 -0.2122 -0.1791 -0.1953
  133OSM   H12A14263   1.259   1.234   2.231  0.9870  0.3345 -1.2838
  133OSM   H12B14264   1.099   1.246   2.182  0.5916 -1.5711  0.7116
  133OSM    C1114265   1.174   1.421   2.293 -0.5204 -0.6688 -0.4985
  133OSM   H11A14266   1.277   1.462   2.299  0.3772 -2.8026 -0.4726
  133OSM   H11B14267   1.153   1.371   2.390 -0.0947  1.3077  0.6631
  133OSM      P14268   0.928   1.491   2.293  0.5566 -0.3757 -0.3370
  133OSM    O1314269   0.845   1.607   2.255  0.0032  0.3598  0.7472
  133OSM    O1414270   0.892   1.356   2.241 -0.4600  0.6797 -0.0176
  133OSM    O1114271   0.944   1.485   2.456  0.0576 -0.3301 -0.4896
  133OSM    O1214272   1.076   1.522   2.246 -0.2303 -0.6475  0.0857
  133OSM    C1S14273   0.954   1.614   2.522  0.3616  0.4640  0.5997
  133OSM    H1S14274   0.861   1.674   2.514  0.6589  0.6990 -2.7560
  133OSM    H1T14275   1.040   1.673   2.482 -0.7088  1.2973 -0.5621
  133OSM     NF14276   0.987   1.750   2.724  0.4462 -0.2429 -0.1686
  133OSM    HNF14277   1.079   1.789   2.723  0.0276  0.8231  0.9068
  133OSM    C2S14278   0.989   1.614   2.678  0.1244  0.7954  0.0284
  133OSM    H2S14279   0.908   1.569   2.739  1.7578  0.8960  2.3803
  133OSM    C3S14280   1.118   1.543   2.703  0.0326  0.4659  0.2983
  133OSM    H3S14281   1.208   1.592   2.659  2.6239 -2.4161  2.0023
  133OSM     O314282   1.134   1.423   2.624  0.1473  0.1947 -0.3064
  133OSM    HO314283   1.053   1.415   2.573 -0.7411 -1.0852  1.1804
  133OSM    C4S14284   1.146   1.523   2.846  0.5592 -0.2834  0.1697
  133OSM    H4S14285   1.065   1.466   2.894  1.1412 -1.0541  0.2455
  133OSM    C5S14286   1.249   1.583   2.902  0.0395 -0.1759 -0.2367
  133OSM    H5S14287   1.311   1.656   2.847  0.8546 -0.6033  0.1004
  133OSM    C6S14288   1.266   1.587   3.056  0.2543  0.0227 -0.2986
  133OSM    H6S14289   1.368   1.564   3.094 -0.2431  0.2058  1.2365
  133OSM    H6T14290   1.202   1.505   3.095  2.0872 -0.7682  1.1950
  133OSM    C7S14291   1.214   1.726   3.099 -0.3668  0.2270  0.1516
  133OSM    H7S14292   1.106   1.738   3.075 -0.1660 -1.4590 -1.8993
  133OSM    H7T14293   1.265   1.808   3.043 -0.6139  1.6441  1.9005
  133OSM    C8S14294   1.218   1.739   3.254  1.1769  0.1306 -0.3163
  133OSM    H8S14295   1.169   1.832   3.288 -0.9524 -1.0211 -0.0464
  133OSM    H8T14296   1.320   1.739   3.298  0.8204  1.6284  0.5605
  133OSM    C9S14297   1.134   1.630   3.343 -0.0588  0.1018  0.2680
  133OSM    H9S14298   1.181   1.533   3.319  2.8327  1.2675  0.8469
  133OSM    H9T14299   1.036   1.639   3.291 -0.0159 -0.2015  0.1374
  133OSM   C10S14300   1.121   1.662   3.482  0.7407  0.5558 -0.0085
  133OSM   H10S14301   1.049   1.746   3.493 -0.5660 -0.2297 -1.9978
  133OSM   H10T14302   1.218   1.689   3.529  0.8287  0.2921 -0.0401
  133OSM   C11S14303   1.061   1.536   3.558  0.4878 -0.4922 -0.5165
  133OSM   H11S14304   1.127   1.454   3.522  0.9606 -0.4959  0.3436
  133OSM   H11T14305   0.951   1.522   3.549  0.0134  0.2625  2.8750
  133OSM   C12S14306   1.076   1.559   3.714 -0.3520  0.6549  0.6026
  133OSM   H12S14307   1.010   1.647   3.731  0.9449  2.0388 -1.1823
  133OSM   H12T14308   1.181   1.585   3.739  0.0283 -0.4128  0.1457
  133OSM   C13S14309   1.033   1.441   3.801  1.0559  0.5462  0.8707
  133OSM   H13S14310   1.086   1.358   3.749 -0.3585  0.4555 -0.5132
  133OSM   H13T14311   0.927   1.409   3.789  1.9961 -2.1332 -1.5908
  133OSM   C14S14312   1.075   1.455   3.943  0.3899 -0.3505  0.2847
  133OSM   H14S14313   1.184   1.478   3.944  0.0452  1.9011 -1.6107
  133OSM   H14T14314   1.049   1.360   3.993 -0.7756 -0.0924  0.1868
  133OSM   C15S14315   0.982   1.557   4.015 -0.4629  0.8403 -0.2832
  133OSM   H15S14316   0.878   1.518   4.013  0.4458 -1.7777  0.0032
  133OSM   H15T14317   0.975   1.651   3.956 -0.9774  0.7611 -0.3570
  133OSM   C16S14318   1.036   1.603   4.156  0.3114  0.0139  0.1575
  133OSM   H16S14319   1.042   1.513   4.221  0.0620  0.4613  0.8063
  133OSM   H16T14320   0.970   1.675   4.208  0.9732  0.4284  0.4352
  133OSM   C17S14321   1.157   1.702   4.148  0.3742 -0.4983 -0.0997
  133OSM   H17S14322   1.112   1.798   4.114 -0.1724 -0.4052  0.8488
  133OSM   H17T14323   1.232   1.667   4.073  0.8388  0.2672  0.0009
  133OSM   C18S14324   1.220   1.722   4.281  0.6306 -0.2993  0.3407
  133OSM   H18S14325   1.280   1.816   4.277  0.1294 -0.0057 -1.3455
  133OSM   H18T14326   1.283   1.638   4.316 -1.3395 -0.9918  2.4770
  133OSM   H18U14327   1.152   1.733   4.368 -0.4834 -0.3965 -0.5003
  133OSM    C1F14328   0.878   1.816   2.768  0.0117 -0.4731 -0.9029
  133OSM     OF14329   0.769   1.795   2.722 -0.1344  0.1367 -0.3960
  133OSM    C2F14330   0.893   1.901   2.888  0.4921  0.1547 -0.4629
  133OSM    H2F14331   0.878   2.006   2.853  1.4309  0.1351 -0.9623
  133OSM    H2G14332   0.989   1.883   2.940 -0.4941  0.5209  1.5752
  133OSM    C3F14333   0.782   1.870   2.998  0.0030  0.0838 -0.0854
  133OSM    H3F14334   0.686   1.892   2.948 -0.2999  2.5553  1.4003
  133OSM    H3G14335   0.796   1.945   3.079  0.0496  1.0172 -0.9401
  133OSM    C4F14336   0.794   1.727   3.045 -0.8002 -0.2984 -0.0767
  133OSM    H4F14337   0.896   1.719   3.088 -1.7655 -0.9316  2.2342
  133OSM    H4G14338   0.770   1.662   2.957  2.2476 -1.1574 -0.3686
  133OSM    C5F14339   0.701   1.687   3.160 -0.2556  0.0505  0.3324
  133OSM    H5F14340   0.715   1.580   3.185  0.2861  0.4725  1.9946
  133OSM    H5G14341   0.594   1.692   3.130 -0.4232 -1.8995  0.5023
  133OSM    C6F14342   0.723   1.769   3.284 -0.2854  0.0770 -0.2194
  133OSM    H6F14343   0.663   1.862   3.271 -0.5393 -0.0457  0.0480
  133OSM    H6G14344   0.830   1.795   3.296  0.3931 -2.3924 -0.5235
  133OSM    C7F14345   0.669   1.683   3.403  1.1343  0.3935 -0.6653
  133OSM    H7F14346   0.721   1.585   3.406  1.3685  0.5294 -0.2005
  133OSM    H7G14347   0.561   1.668   3.383  0.6689  1.1999  1.0201
  133OSM    C8F14348   0.716   1.755   3.532  0.0809 -0.0202  0.0536
  133OSM    H8F14349   0.663   1.852   3.542  1.4801  0.9779 -1.6854
  133OSM    H8G14350   0.825   1.777   3.530 -0.1997  1.5604  0.6291
  133OSM    C9F14351   0.682   1.668   3.651 -0.7515  0.4632 -0.5884
  133OSM    H9F14352   0.673   1.560   3.634  1.9872 -0.2037  1.5390
  133OSM   C10F14353   0.647   1.717   3.775 -0.9820 -0.0456  0.0819
  133OSM   H10F14354   0.620   1.642   3.850  1.4580 -0.5945  0.4653
  133OSM   C11F14355   0.639   1.859   3.817 -0.7763  1.4727  0.9135
  133OSM   H11F14356   0.564   1.868   3.898 -0.9202  2.1246  0.7188
  133OSM   H11G14357   0.613   1.931   3.736 -1.9301 -1.0677 -1.1393
  133OSM   C12F14358   0.783   1.901   3.855  0.0299 -0.7670  0.0974
  133OSM   H12F14359   0.772   2.012   3.849  0.0774 -0.8333 -1.6824
  133OSM   H12G14360   0.864   1.865   3.788  0.6103 -0.1672  0.4693
  133OSM   C13F14361   0.812   1.868   4.007 -0.6714 -0.6694  0.3864
  133OSM   H13F14362   0.916   1.888   4.039 -0.9741 -1.7403  2.1859
  133OSM   H13G14363   0.800   1.758   4.014 -2.0523 -0.4655  1.6562
  133OSM   C14F14364   0.729   1.942   4.114 -0.0199  0.0874 -0.1625
  133OSM   H14F14365   0.630   1.891   4.117 -0.1992  0.4286 -0.2688
  133OSM   H14G14366   0.714   2.049   4.087 -0.1091  0.2084  0.3443
  133OSM   C15F14367   0.797   1.935   4.253 -0.2567  0.1397  0.0872
  133OSM   H15F14368   0.897   1.980   4.238 -0.8153  0.9568 -1.3969
  133OSM   H15G14369   0.810   1.830   4.285 -2.2308 -0.2445 -0.2541
  133OSM   C16F14370   0.725   2.007   4.355  0.3497  0.1739 -0.1733
  133OSM   H16F14371   0.618   1.977   4.357  0.4124 -0.5354  5.0199
  133OSM   H16G14372   0.723   2.116   4.334 -1.6823  0.4816  1.2787
  133OSM   C17F14373   0.757   1.993   4.504 -0.2604  0.8891 -0.1113
  133OSM   H17F14374   0.763   1.885   4.533  0.0625  0.6264 -1.1096
  133OSM   H17G14375   0.687   2.051   4.567 -2.0532 -0.4573 -0.7631
  133OSM   C18F14376   0.897   2.053   4.532 -0.9518  0.2048  0.0052
  133OSM   H18F14377   0.967   1.987   4.476  0.0408  0.3802  0.9960
  133OSM   H18G14378   0.918   2.043   4.641  1.8513 -0.1309 -0.4718
  133OSM   H18H14379   0.906   2.161   4.507  0.0815 -0.2200 -1.5953
  134OSM      N14380   5.757   2.854   2.224 -0.7639 -0.1221 -0.3641
  134OSM    C1514381   5.724   2.996   2.177 -0.6268  0.5999  0.0601
  134OSM   H15A14382   5.660   2.984   2.090 -0.8197 -0.0549  0.2905
  134OSM   H15B14383   5.810   3.051   2.141 -0.3258 -1.4295 -2.6944
  134OSM   H15C14384   5.676   3.053   2.255 -2.6555  0.2548 -0.8694
  134OSM    C1414385   5.628   2.782   2.258 -0.5770  0.1164 -0.2601
  134OSM   H14A14386   5.648   2.682   2.293 -0.4160  0.3865  0.4231
  134OSM   H14B14387   5.562   2.772   2.173  1.1794 -1.2739 -1.5127
  134OSM   H14C14388   5.571   2.828   2.338  0.4998  2.4790 -0.7462
  134OSM    C1314389   5.804   2.792   2.096  0.2795  0.5807  0.6203
  134OSM   H13A14390   5.880   2.852   2.049  1.4234 -2.1010 -1.2317
  134OSM   H13B14391   5.720   2.786   2.028  0.0700  0.0733  0.9097
  134OSM   H13C14392   5.846   2.692   2.103  0.1754  0.5101  0.2562
  134OSM    C1214393   5.855   2.840   2.341  0.1225  0.4034  0.4755
  134OSM   H12A14394   5.945   2.894   2.317  1.3128 -1.7911 -0.2750
  134OSM   H12B14395   5.888   2.737   2.339  0.8652  0.6440 -0.1608
  134OSM    C1114396   5.804   2.876   2.480 -0.5220 -0.3611  0.1496
  134OSM   H11A14397   5.880   2.863   2.560  0.6924 -1.6624 -1.1636
  134OSM   H11B14398   5.715   2.821   2.517  0.2077 -0.3041  2.1358
  134OSM      P14399   5.836   3.147   2.471 -0.0839 -0.1848 -0.3433
  134OSM    O1314400   5.976   3.121   2.425 -0.1060  1.0099  0.7868
  134OSM    O1414401   5.759   3.243   2.389 -0.6476  0.0226 -0.4165
  134OSM    O1114402   5.827   3.200   2.624 -0.4213  0.2970 -0.2199
  134OSM    O1214403   5.754   3.008   2.476 -0.0372  0.0345 -0.4254
  134OSM    C1S14404   5.845   3.098   2.732  0.0220  0.5859  0.0252
  134OSM    H1S14405   5.940   3.046   2.706 -1.1053 -1.2285 -0.6061
  134OSM    H1T14406   5.765   3.021   2.728 -0.0578  0.7454 -2.7201
  134OSM     NF14407   5.880   3.030   2.957  0.5921  0.1214  0.3482
  134OSM    HNF14408   5.802   2.990   3.005 -0.0244 -1.2758 -1.6829
  134OSM    C2S14409   5.852   3.147   2.879  0.0333 -0.2530  0.3297
  134OSM    H2S14410   5.936   3.219   2.881  1.0346 -1.1808 -2.8919
  134OSM    C3S14411   5.727   3.229   2.917 -0.7929  0.1590  0.7852
  134OSM    H3S14412   5.634   3.168   2.926 -0.8402 -0.3825 -2.2474
  134OSM     O314413   5.683   3.313   2.810  0.4148 -0.4787  0.3194
  134OSM    HO314414   5.735   3.283   2.735 -1.6781 -1.8392 -0.6706
  134OSM    C4S14415   5.745   3.300   3.050 -0.1432 -0.0413  0.0588
  134OSM    H4S14416   5.721   3.234   3.135 -0.8220 -1.4397 -1.1744
  134OSM    C5S14417   5.754   3.430   3.060  0.7393 -0.1376 -0.3161
  134OSM    H5S14418   5.732   3.493   2.973 -0.4017  1.0812  0.8079
  134OSM    C6S14419   5.749   3.511   3.188 -1.0764  0.0419  0.0570
  134OSM    H6S14420   5.651   3.564   3.195 -2.2277 -2.0297  0.4861
  134OSM    H6T14421   5.820   3.591   3.159 -1.3568  0.5124  0.6591
  134OSM    C7S14422   5.772   3.438   3.325  0.5680  0.0306  0.2080
  134OSM    H7S14423   5.870   3.387   3.325  1.1797  1.1870  0.5149
  134OSM    H7T14424   5.686   3.374   3.353 -0.4695  1.8755  1.4825
  134OSM    C8S14425   5.777   3.533   3.451  0.7181 -0.5272  0.1274
  134OSM    H8S14426   5.682   3.591   3.453 -0.1528 -1.9111  1.0744
  134OSM    H8T14427   5.854   3.612   3.442 -0.0787  0.3616  0.8190
  134OSM    C9S14428   5.771   3.461   3.590  0.2519  0.0545 -0.4806
  134OSM    H9S14429   5.863   3.398   3.591 -0.0873 -0.4427 -0.4928
  134OSM    H9T14430   5.683   3.394   3.588  0.9020 -0.9768  1.8148
  134OSM   C10S14431   5.785   3.542   3.716  0.0959  0.0889 -0.0491
  134OSM   H10S14432   5.693   3.603   3.723 -1.1262 -1.7747  0.8007
  134OSM   H10T14433   5.860   3.621   3.695 -0.0392  0.0683 -0.6152
  134OSM   C11S14434   5.820   3.463   3.847 -0.0655 -0.6759  0.1028
  134OSM   H11S14435   5.907   3.397   3.831  1.8422  1.7883 -0.2527
  134OSM   H11T14436   5.733   3.402   3.881  0.7366 -3.0008 -1.7676
  134OSM   C12S14437   5.875   3.547   3.964  0.4362  0.3695 -0.1060
  134OSM   H12S14438   5.820   3.643   3.968 -0.3212 -0.0466 -0.4105
  134OSM   H12T14439   5.977   3.579   3.933  0.8627 -0.5778  0.2807
  134OSM   C13S14440   5.875   3.473   4.104 -0.7495 -0.8700  0.4849
  134OSM   H13S14441   5.938   3.381   4.100  0.3212 -0.1314 -0.2611
  134OSM   H13T14442   5.769   3.451   4.129 -1.4529  2.2847  0.7329
  134OSM   C14S14443   5.922   3.571   4.208 -0.4612  0.5206  0.2346
  134OSM   H14S14444   5.850   3.654   4.223 -1.3367  0.5528 -3.1842
  134OSM   H14T14445   6.024   3.607   4.182 -0.2515  0.1790  0.5764
  134OSM   C15S14446   5.939   3.494   4.343  0.4683  0.0307  0.8326
  134OSM   H15S14447   5.975   3.569   4.417  0.2282  0.4861  0.4947
  134OSM   H15T14448   5.998   3.401   4.328 -1.1161 -0.6909 -1.7535
  134OSM   C16S14449   5.806   3.454   4.412 -0.4437  0.0346 -0.5701
  134OSM   H16S14450   5.758   3.378   4.346  1.5456 -2.6011  0.8049
  134OSM   H16T14451   5.746   3.546   4.423  1.7234  1.3567  0.9059
  134OSM   C17S14452   5.828   3.384   4.547 -1.0434  0.5252 -0.3764
  134OSM   H17S14453   5.921   3.324   4.536 -3.0042 -2.6446 -0.9291
  134OSM   H17T14454   5.736   3.326   4.573 -1.2376  1.4878  1.2038
  134OSM   C18S14455   5.848   3.476   4.670  0.2621 -0.1033 -0.0636
  134OSM   H18S14456   5.757   3.537   4.686 -0.4080 -0.8402 -0.9695
  134OSM   H18T14457   5.942   3.534   4.655 -0.3269  0.6578 -0.8875
  134OSM   H18U14458   5.862   3.424   4.767  0.3805  3.7679  2.1670
  134OSM    C1F14459   6.004   2.979   2.970  0.3459  0.5867 -0.0132
  134OSM     OF14460   6.101   3.035   2.920 -0.4340 -0.2995  0.1057
  134OSM    C2F14461   6.026   2.854   3.041  0.6282  0.1043 -0.0353
  134OSM    H2F14462   6.073   2.787   2.967  2.4779  0.9128  0.3615
  134OSM    H2G14463   5.926   2.819   3.075  0.2489  0.0562 -1.1670
  134OSM    C3F14464   6.114   2.876   3.163 -0.3101  0.1423 -0.6067
  134OSM    H3F14465   6.207   2.928   3.131  0.3200 -0.8762 -0.4605
  134OSM    H3G14466   6.154   2.783   3.210  0.9178  0.0344 -1.8132
  134OSM    C4F14467   6.050   2.967   3.271  0.3933 -0.3179 -0.2787
  134OSM    H4F14468   6.033   3.069   3.231 -0.0726 -0.5881 -0.7842
  134OSM    H4G14469   6.115   2.986   3.359 -0.1245  1.2136 -0.2026
  134OSM    C5F14470   5.912   2.916   3.327  0.4521  0.1425 -0.3882
  134OSM    H5F14471   5.914   2.807   3.349  0.8730  0.2253  0.0105
  134OSM    H5G14472   5.839   2.907   3.244  1.0696  1.5287 -1.1149
  134OSM    C6F14473   5.864   2.999   3.445  0.2162  0.2135 -0.3808
  134OSM    H6F14474   5.866   3.106   3.416  1.8554  0.9071  2.0225
  134OSM    H6G14475   5.922   2.985   3.539 -1.6968  1.6078  1.0811
  134OSM    C7F14476   5.717   2.953   3.464  0.4767 -0.1184 -0.5976
  134OSM    H7F14477   5.724   2.852   3.509 -0.8709  0.0691  0.0823
  134OSM    H7G14478   5.659   2.952   3.369  0.0951 -2.2230 -0.3998
  134OSM    C8F14479   5.636   3.052   3.553  0.3936 -0.4481 -0.6790
  134OSM    H8F14480   5.536   3.070   3.508  0.0379 -0.2472  0.1842
  134OSM    H8G14481   5.696   3.139   3.587 -1.4800  0.7163 -0.1851
  134OSM    C9F14482   5.594   2.995   3.685 -0.0440  0.2803  0.3159
  134OSM    H9F14483   5.495   2.947   3.686  0.2871 -0.6060 -1.9549
  134OSM   C10F14484   5.663   2.993   3.796  0.1380 -0.3107 -0.1316
  134OSM   H10F14485   5.621   2.936   3.880 -2.3115 -0.0197 -1.0827
  134OSM   C11F14486   5.803   3.051   3.816 -0.7804 -0.1590 -0.6331
  134OSM   H11F14487   5.843   3.122   3.740  0.4255  1.0461  1.0580
  134OSM   H11G14488   5.877   2.969   3.811  0.0496  0.6069 -1.5393
  134OSM   C12F14489   5.811   3.122   3.951  0.1437 -0.6257 -0.3033
  134OSM   H12F14490   5.729   3.195   3.970  1.2145  0.3734  0.6490
  134OSM   H12G14491   5.904   3.182   3.960  0.7954 -1.8374  1.8223
  134OSM   C13F14492   5.807   3.017   4.069 -0.4673 -0.2013  0.2288
  134OSM   H13F14493   5.892   2.946   4.068  0.5187  0.9487  0.6857
  134OSM   H13G14494   5.719   2.950   4.056  1.2185 -2.4777  0.0601
  134OSM   C14F14495   5.802   3.088   4.210 -0.5205  0.0943 -0.0769
  134OSM   H14F14496   5.739   3.179   4.205 -1.1425 -0.1852  1.7730
  134OSM   H14G14497   5.907   3.121   4.224 -0.9549  2.8267 -2.3414
  134OSM   C15F14498   5.760   2.976   4.315  0.4626 -1.1344  0.1562
  134OSM   H15F14499   5.833   2.896   4.289 -0.2725 -0.9959 -2.7039
  134OSM   H15G14500   5.657   2.937   4.296  1.1729 -2.2398 -1.6724
  134OSM   C16F14501   5.767   3.032   4.457 -0.0922  0.1569  0.6785
  134OSM   H16F14502   5.702   3.121   4.461  0.6165  0.8262 -1.3825
  134OSM   H16G14503   5.864   3.072   4.492 -0.6182  1.9550  0.1648
  134OSM   C17F14504   5.720   2.931   4.554  0.2215  0.0222  0.2270
  134OSM   H17F14505   5.793   2.849   4.569  0.3375 -0.2813 -1.7101
  134OSM   H17G14506   5.627   2.881   4.518  0.3465  0.6831 -1.0750
  134OSM   C18F14507   5.683   2.993   4.691  0.1117 -0.1221  0.5288
  134OSM   H18F14508   5.772   3.029   4.747 -0.1500  3.3598 -1.0278
  134OSM   H18G14509   5.636   2.927   4.767  0.9828  1.4278  2.5146
  134OSM   H18H14510   5.614   3.079   4.682  1.0819  0.5933 -0.4001
  135OSM      N14511   2.330   3.495   2.088 -0.3813  0.2326  0.2772
  135OSM    C1514512   2.402   3.570   1.977  0.1254 -0.1303  0.1399
  135OSM   H15A14513   2.429   3.670   2.005 -0.0163  0.0401 -0.3369
  135OSM   H15B14514   2.333   3.570   1.894 -1.3202 -0.5909  1.2890
  135OSM   H15C14515   2.492   3.520   1.945 -0.1039 -1.0817  0.9319
  135OSM    C1414516   2.207   3.572   2.128 -0.6965  0.0002 -0.1572
  135OSM   H14A14517   2.125   3.544   2.063 -0.7728  1.3124 -0.6589
  135OSM   H14B14518   2.225   3.678   2.114  0.4827  0.0454  1.4260
  135OSM   H14C14519   2.178   3.554   2.230  2.1571  1.2634  0.9945
  135OSM    C1314520   2.287   3.358   2.042 -0.2619 -0.5968 -0.4219
  135OSM   H13A14521   2.219   3.364   1.958 -1.6855  0.6762  0.7565
  135OSM   H13B14522   2.239   3.305   2.123  0.5358  1.3469  1.4298
  135OSM   H13C14523   2.374   3.308   2.004  0.1681  1.0346 -1.6843
  135OSM    C1214524   2.433   3.476   2.198  0.0024  0.5279  0.2780
  135OSM   H12A14525   2.520   3.435   2.148  0.5198  2.1495 -0.2199
  135OSM   H12B14526   2.393   3.397   2.260 -0.5261 -0.2001 -0.9546
  135OSM    C1114527   2.463   3.593   2.288 -0.0528  0.3636  0.5809
  135OSM   H11A14528   2.480   3.682   2.223  1.6100  1.9201  2.9464
  135OSM   H11B14529   2.554   3.585   2.351  0.5618 -0.3944 -0.3642
  135OSM      P14530   2.292   3.543   2.489 -0.0327 -0.2877 -0.0484
  135OSM    O1314531   2.157   3.601   2.521 -0.2472  0.3576 -0.0847
  135OSM    O1414532   2.293   3.400   2.460 -0.7789  0.3393 -0.1523
  135OSM    O1114533   2.399   3.575   2.602  0.0729  0.2576 -0.1065
  135OSM    O1214534   2.350   3.624   2.366 -0.8220 -0.5803 -0.0531
  135OSM    C1S14535   2.411   3.706   2.663 -0.8027  0.1464  0.3886
  135OSM    H1S14536   2.314   3.759   2.665 -1.1640 -0.4843  0.1240
  135OSM    H1T14537   2.477   3.768   2.598 -1.1068  0.0749  0.0028
  135OSM     NF14538   2.462   3.829   2.877 -0.4976 -0.1312  0.8718
  135OSM    HNF14539   2.543   3.886   2.863 -0.6289 -0.2359 -0.4137
  135OSM    C2S14540   2.469   3.701   2.805  0.1873  0.4455 -0.3871
  135OSM    H2S14541   2.404   3.624   2.851  0.4958 -0.4890 -1.4641
  135OSM    C3S14542   2.607   3.627   2.803  0.0601 -0.0105  0.3895
  135OSM    H3S14543   2.679   3.680   2.737 -0.0567  0.2870  0.4968
  135OSM     O314544   2.604   3.496   2.751 -0.0104  0.1802  0.8997
  135OSM    HO314545   2.525   3.503   2.696  0.7596  0.0984 -0.2601
  135OSM    C4S14546   2.654   3.598   2.945 -0.2444  0.1766 -0.6090
  135OSM    H4S14547   2.621   3.506   2.995  1.8267 -0.1022  0.3648
  135OSM    C5S14548   2.748   3.677   3.005 -0.1715 -0.6020 -0.8749
  135OSM    H5S14549   2.781   3.770   2.956 -2.5072  0.6538 -0.1754
  135OSM    C6S14550   2.816   3.642   3.135 -0.9543 -0.0591  0.3756
  135OSM    H6S14551   2.776   3.711   3.213 -0.5840  1.2752 -0.5834
  135OSM    H6T14552   2.923   3.668   3.128 -1.6247  2.6029 -1.8971
  135OSM    C7S14553   2.790   3.506   3.199 -0.2388  0.6976 -0.3732
  135OSM    H7S14554   2.822   3.419   3.138 -0.9020 -1.4815  2.1733
  135OSM    H7T14555   2.680   3.511   3.211 -0.2499  2.9110 -0.9494
  135OSM    C8S14556   2.856   3.497   3.337  0.3643  0.7844  0.3797
  135OSM    H8S14557   2.812   3.575   3.402 -0.3284  0.5215  0.2266
  135OSM    H8T14558   2.962   3.519   3.313 -0.0328  1.6496 -0.6297
  135OSM    C9S14559   2.824   3.360   3.399  1.1336  0.2943 -0.0074
  135OSM    H9S14560   2.869   3.278   3.338  1.1919 -1.0385  1.7477
  135OSM    H9T14561   2.713   3.353   3.396  1.0094  1.9739 -2.7048
  135OSM   C10S14562   2.863   3.359   3.545 -0.3936  0.5450  0.8030
  135OSM   H10S14563   2.793   3.419   3.608 -0.7087  1.4246 -0.3554
  135OSM   H10T14564   2.959   3.415   3.552 -0.5803  0.8299  1.1770
  135OSM   C11S14565   2.868   3.214   3.590 -0.0911 -0.8703 -0.7424
  135OSM   H11S14566   2.948   3.170   3.527  2.7002 -0.3522  2.1591
  135OSM   H11T14567   2.768   3.166   3.579  1.0104 -3.3095 -0.7273
  135OSM   C12S14568   2.929   3.207   3.730  0.2579 -0.1199 -0.5997
  135OSM   H12S14569   2.986   3.300   3.752  2.7509 -1.4542 -1.0388
  135OSM   H12T14570   3.010   3.132   3.740  0.8069  0.6737  1.5403
  135OSM   C13S14571   2.831   3.175   3.850  0.1936 -0.5352  0.7500
  135OSM   H13S14572   2.773   3.082   3.836  4.3835 -3.3450  0.0884
  135OSM   H13T14573   2.760   3.260   3.860 -1.8959 -2.1424  0.1515
  135OSM   C14S14574   2.891   3.163   3.989  0.4125 -0.8173 -0.3605
  135OSM   H14S14575   2.952   3.252   4.012  1.4274 -1.4007 -0.7328
  135OSM   H14T14576   2.938   3.063   4.003 -1.4848 -1.7076 -0.0077
  135OSM   C15S14577   2.793   3.167   4.099  0.0241  0.0509 -0.0169
  135OSM   H15S14578   2.718   3.090   4.071 -0.0541  0.4061 -0.8156
  135OSM   H15T14579   2.735   3.260   4.118 -2.3813 -1.4048  0.2706
  135OSM   C16S14580   2.843   3.121   4.235  0.1164  0.8903  0.8062
  135OSM   H16S14581   2.886   3.019   4.224 -1.9942  0.0381  0.0508
  135OSM   H16T14582   2.757   3.093   4.299 -0.6674 -3.0224 -1.6877
  135OSM   C17S14583   2.926   3.228   4.310 -0.1925 -0.0978  0.0602
  135OSM   H17S14584   2.866   3.320   4.324 -0.2679 -0.3256  1.3005
  135OSM   H17T14585   3.027   3.258   4.273 -0.1820  1.0186  0.9305
  135OSM   C18S14586   2.954   3.188   4.457 -0.2954 -0.2290  0.0757
  135OSM   H18S14587   2.859   3.173   4.512 -0.5790 -1.5660 -0.7346
  135OSM   H18T14588   3.018   3.267   4.503  0.7938 -0.1382 -1.4858
  135OSM   H18U14589   3.016   3.096   4.459 -2.2996 -1.6501 -0.1776
  135OSM    C1F14590   2.349   3.891   2.899  0.0413 -0.4339  0.8948
  135OSM     OF14591   2.239   3.835   2.880 -0.3820 -0.4554 -0.1909
  135OSM    C2F14592   2.360   4.036   2.937  0.0080  0.4947  0.2451
  135OSM    H2F14593   2.330   4.094   2.846  0.4865 -0.0622 -0.2782
  135OSM    H2G14594   2.465   4.065   2.958  0.1999  1.0023 -1.2888
  135OSM    C3F14595   2.251   4.066   3.050  0.1219  0.0268  0.0139
  135OSM    H3F14596   2.157   4.010   3.028  0.7686 -2.2788  2.5872
  135OSM    H3G14597   2.227   4.174   3.055 -2.3391 -0.5020  1.3715
  135OSM    C4F14598   2.301   4.031   3.190  0.1953 -0.0872  0.4837
  135OSM    H4F14599   2.393   4.088   3.217  0.3082  0.2172 -0.5203
  135OSM    H4G14600   2.328   3.924   3.198  0.9133  0.0610  0.1528
  135OSM    C5F14601   2.190   4.043   3.291 -0.3107  0.1322  0.2526
  135OSM    H5F14602   2.118   3.967   3.254 -0.8065  0.7624 -0.1054
  135OSM    H5G14603   2.134   4.140   3.289 -2.2232 -0.9372 -0.7804
  135OSM    C6F14604   2.235   4.008   3.437  0.5139  0.4445 -0.7739
  135OSM    H6F14605   2.303   3.920   3.428  1.3667  1.2098 -1.9698
  135OSM    H6G14606   2.144   3.981   3.495  0.7456  0.1248 -0.5571
  135OSM    C7F14607   2.308   4.127   3.498 -0.0554 -0.4726  0.4341
  135OSM    H7F14608   2.253   4.223   3.491  2.0830  0.7633 -0.6654
  135OSM    H7G14609   2.403   4.136   3.441 -1.1578 -0.4886 -1.5070
  135OSM    C8F14610   2.344   4.094   3.648  0.5649 -0.5882 -0.5796
  135OSM    H8F14611   2.431   4.152   3.684 -1.2183  0.6790  2.0094
  135OSM    H8G14612   2.379   3.991   3.627  1.1416 -0.2530 -1.3182
  135OSM    C9F14613   2.235   4.102   3.752 -0.6308  0.2691 -0.3777
  135OSM    H9F14614   2.133   4.094   3.712 -0.4437  1.4196 -1.1316
  135OSM   C10F14615   2.263   4.119   3.883  0.5436 -0.3539 -0.3296
  135OSM   H10F14616   2.180   4.125   3.954  2.3046  2.6807  1.7387
  135OSM   C11F14617   2.400   4.122   3.946 -0.0903 -0.3563 -0.2640
  135OSM   H11F14618   2.450   4.221   3.940 -0.5820  0.0719  1.8621
  135OSM   H11G14619   2.463   4.056   3.882 -1.4025 -0.2770 -1.7106
  135OSM   C12F14620   2.388   4.086   4.100 -0.1590 -0.1196  0.0159
  135OSM   H12F14621   2.491   4.102   4.137 -1.0993  0.7110  2.4908
  135OSM   H12G14622   2.353   3.985   4.127 -2.1818 -0.1818 -2.4734
  135OSM   C13F14623   2.312   4.187   4.185 -0.7306  0.4741 -0.2020
  135OSM   H13F14624   2.205   4.156   4.182 -0.4111 -0.6013 -1.3117
  135OSM   H13G14625   2.331   4.280   4.128  0.2872  0.2331 -0.2799
  135OSM   C14F14626   2.372   4.208   4.328  1.2232 -0.5688  0.0646
  135OSM   H14F14627   2.470   4.260   4.325  0.2050  1.4660 -0.2115
  135OSM   H14G14628   2.392   4.112   4.379  0.6126 -0.5730  0.3088
  135OSM   C15F14629   2.278   4.298   4.417  0.1796  0.4983  0.2267
  135OSM   H15F14630   2.328   4.329   4.511 -1.9421 -0.1015  1.6309
  135OSM   H15G14631   2.184   4.239   4.427  0.6553 -1.0909 -3.2043
  135OSM   C16F14632   2.239   4.419   4.331 -0.1045 -0.3694 -0.4290
  135OSM   H16F14633   2.187   4.387   4.238  0.5356 -0.2669 -0.8261
  135OSM   H16G14634   2.332   4.469   4.298 -0.5186  1.3476  0.8823
  135OSM   C17F14635   2.170   4.522   4.428  0.0758  0.7025 -0.0540
  135OSM   H17F14636   2.244   4.554   4.505  1.7200 -2.7622 -0.0345
  135OSM   H17G14637   2.075   4.496   4.477 -0.0426 -0.2487 -0.7568
  135OSM   C18F14638   2.131   4.649   4.339 -0.2242  0.0966 -0.2795
  135OSM   H18F14639   2.225   4.690   4.296 -0.2471  0.8193  0.3278
  135OSM   H18G14640   2.067   4.727   4.385  0.8655  2.4542 -2.5129
  135OSM   H18H14641   2.080   4.621   4.245  3.3127  0.0476 -2.3841
  136OSM      N14642   6.224   6.469   2.101 -0.5703  0.1488  0.2973
  136OSM    C1514643   6.119   6.535   2.026 -0.5105 -0.6547 -0.6815
  136OSM   H15A14644   6.129   6.530   1.919 -0.0698 -0.3415 -0.6608
  136OSM   H15B14645   6.116   6.638   2.061  1.2841 -0.8630  0.2197
  136OSM   H15C14646   6.024   6.490   2.051 -1.4052  0.9037 -1.0784
  136OSM    C1414647   6.257   6.348   2.018  0.3162  0.2540  0.0786
  136OSM   H14A14648   6.305   6.374   1.925  0.7835  0.3279  0.3374
  136OSM   H14B14649   6.170   6.288   1.993  1.8384 -1.8295 -0.4807
  136OSM   H14C14650   6.313   6.271   2.069  0.2933 -1.5013 -2.3703
  136OSM    C1314651   6.355   6.555   2.123  0.0689  0.8248 -0.2507
  136OSM   H13A14652   6.368   6.604   2.028  1.2425  0.2095 -0.4211
  136OSM   H13B14653   6.442   6.493   2.140  0.0054  0.2430 -1.8938
  136OSM   H13C14654   6.343   6.621   2.207 -4.2453 -0.7091  0.5960
  136OSM    C1214655   6.180   6.424   2.238  0.0607  0.0833 -0.5967
  136OSM   H12A14656   6.125   6.502   2.289 -1.8985 -1.8850  0.5191
  136OSM   H12B14657   6.261   6.394   2.303 -1.3024  0.7201  1.5094
  136OSM    C1114658   6.079   6.306   2.261  0.3234 -0.8473 -0.3579
  136OSM   H11A14659   6.059   6.309   2.371  2.3343 -3.3612  0.1650
  136OSM   H11B14660   6.120   6.207   2.232  0.0714 -1.4860  1.3445
  136OSM      P14661   5.845   6.425   2.247 -0.1913  0.1250 -0.4013
  136OSM    O1314662   5.833   6.545   2.157 -0.4414 -0.3175 -0.4833
  136OSM    O1414663   5.723   6.346   2.281 -0.3891  0.7476  0.2174
  136OSM    O1114664   5.912   6.477   2.382 -0.0319 -0.1756  0.1641
  136OSM    O1214665   5.960   6.336   2.184  0.2272  0.3946 -0.0206
  136OSM    C1S14666   5.826   6.528   2.478  0.2524 -1.2235 -0.5131
  136OSM    H1S14667   5.769   6.445   2.524  2.9037 -1.6318  2.3968
  136OSM    H1T14668   5.764   6.611   2.438 -1.1338 -2.4383 -0.9657
  136OSM     NF14669   5.812   6.627   2.692  0.5564  0.5488 -0.7034
  136OSM    HNF14670   5.789   6.724   2.697  1.7602  0.8388 -0.4316
  136OSM    C2S14671   5.908   6.586   2.600  0.2822  0.2452 -0.2536
  136OSM    H2S14672   5.947   6.494   2.649 -1.6413 -0.4349  0.0822
  136OSM    C3S14673   6.011   6.693   2.555  0.6705 -0.5225 -0.1275
  136OSM    H3S14674   5.947   6.774   2.514  0.2450  0.0713  1.6173
  136OSM     O314675   6.096   6.646   2.455 -0.5622 -0.0480  0.0424
  136OSM    HO314676   6.042   6.574   2.422 -1.2597 -0.0289  1.1040
  136OSM    C4S14677   6.089   6.752   2.664  0.9666 -0.1398  0.2199
  136OSM    H4S14678   6.031   6.841   2.693  0.4082  0.1675 -1.6551
  136OSM    C5S14679   6.209   6.719   2.714 -0.8748 -0.1635  0.2045
  136OSM    H5S14680   6.268   6.639   2.667 -0.4639  0.0374  0.3729
  136OSM    C6S14681   6.277   6.798   2.828 -0.4679 -0.1621 -0.4848
  136OSM    H6S14682   6.242   6.903   2.826 -2.6641 -0.8413 -0.0548
  136OSM    H6T14683   6.385   6.802   2.803 -0.1978  0.4147  0.6705
  136OSM    C7S14684   6.246   6.749   2.968 -0.7581 -0.7847 -0.0144
  136OSM    H7S14685   6.274   6.643   2.978 -1.0756 -1.0658 -1.8059
  136OSM    H7T14686   6.138   6.757   2.993 -0.3899  0.6939  1.3045
  136OSM    C8S14687   6.331   6.831   3.079  0.6854  0.6136  1.0259
  136OSM    H8S14688   6.299   6.938   3.084  0.7954  0.6435  1.1011
  136OSM    H8T14689   6.438   6.836   3.049  0.4563 -1.9700 -0.4774
  136OSM    C9S14690   6.320   6.774   3.217  0.7417  0.0945 -0.2464
  136OSM    H9S14691   6.333   6.664   3.209  0.0421  0.0994 -1.9424
  136OSM    H9T14692   6.216   6.801   3.246  1.2907  1.0506  0.8968
  136OSM   C10S14693   6.417   6.842   3.317  0.3282  0.0577 -0.3448
  136OSM   H10S14694   6.401   6.952   3.322 -0.0055  0.2639 -3.8089
  136OSM   H10T14695   6.524   6.830   3.291  0.9850  3.4287  0.3070
  136OSM   C11S14696   6.381   6.786   3.455  0.2360 -0.1259  0.5827
  136OSM   H11S14697   6.379   6.676   3.441 -0.1475 -0.0107 -0.3366
  136OSM   H11T14698   6.280   6.811   3.495  0.6721  0.4248  1.3695
  136OSM   C12S14699   6.484   6.819   3.569  0.2551  0.2137  0.2923
  136OSM   H12S14700   6.587   6.791   3.541  0.2508 -0.0280  0.5107
  136OSM   H12T14701   6.440   6.766   3.657 -1.4894  0.8839 -0.1276
  136OSM   C13S14702   6.496   6.972   3.614  0.8949  0.0380  0.9479
  136OSM   H13S14703   6.488   7.043   3.528 -0.1597 -0.7642  0.3572
  136OSM   H13T14704   6.590   6.990   3.671  2.3437 -1.6094 -0.7517
  136OSM   C14S14705   6.376   7.010   3.703  0.8769 -0.7140 -1.1869
  136OSM   H14S14706   6.361   6.933   3.782  1.0879  2.2932  2.0478
  136OSM   H14T14707   6.289   7.010   3.634 -0.3147 -2.2872  0.2066
  136OSM   C15S14708   6.373   7.146   3.762 -0.6278 -0.8576  0.3095
  136OSM   H15S14709   6.349   7.224   3.686 -0.1017 -1.1985 -0.2103
  136OSM   H15T14710   6.476   7.169   3.795 -0.5507  0.3547 -0.6741
  136OSM   C16S14711   6.265   7.143   3.882 -0.1350  0.5922 -0.7491
  136OSM   H16S14712   6.271   7.236   3.942  0.2562 -0.0670  0.2610
  136OSM   H16T14713   6.271   7.052   3.946 -0.5527  1.1312  0.0641
  136OSM   C17S14714   6.121   7.134   3.820 -0.2413  0.0242 -0.5136
  136OSM   H17S14715   6.124   7.039   3.763  3.0109 -0.3053 -0.0194
  136OSM   H17T14716   6.088   7.217   3.754 -1.9887 -0.0352  0.2284
  136OSM   C18S14717   6.018   7.114   3.932  0.4016 -0.4143  0.1415
  136OSM   H18S14718   6.008   7.206   3.994 -0.8083  1.3528 -2.4975
  136OSM   H18T14719   6.047   7.033   4.003  0.6685  0.3399  0.9054
  136OSM   H18U14720   5.919   7.100   3.884  1.1962 -0.0997 -1.6534
  136OSM    C1F14721   5.743   6.543   2.775  0.5804  0.1858 -0.3520
  136OSM     OF14722   5.736   6.423   2.749  0.2283  0.2127  0.6726
  136OSM    C2F14723   5.686   6.603   2.904 -0.2599 -0.2905 -0.2540
  136OSM    H2F14724   5.593   6.663   2.890 -0.0286 -0.0062 -0.5902
  136OSM    H2G14725   5.749   6.686   2.942  1.1260 -1.5110  0.1935
  136OSM    C3F14726   5.684   6.492   3.015 -0.1515 -1.2449  0.7284
  136OSM    H3F14727   5.771   6.423   3.014  1.4837  0.6306 -2.5388
  136OSM    H3G14728   5.599   6.429   2.980 -0.9476  0.4162 -0.4822
  136OSM    C4F14729   5.663   6.548   3.150  0.3917  0.0939 -0.2236
  136OSM    H4F14730   5.578   6.618   3.138  1.9233  1.8838 -1.1758
  136OSM    H4G14731   5.749   6.608   3.186 -0.4097  0.4745  1.1199
  136OSM    C5F14732   5.609   6.435   3.246  0.2828  0.1136 -0.6327
  136OSM    H5F14733   5.662   6.340   3.226 -2.1619 -1.8006  1.3060
  136OSM    H5G14734   5.499   6.425   3.239  0.1198  2.3177 -1.9963
  136OSM    C6F14735   5.625   6.483   3.396  0.0840  0.3843  0.2119
  136OSM    H6F14736   5.572   6.580   3.388  0.2930  0.4357 -0.6389
  136OSM    H6G14737   5.734   6.501   3.407  0.2192 -0.7256  0.8650
  136OSM    C7F14738   5.559   6.389   3.495 -0.6713 -0.8211  0.2158
  136OSM    H7F14739   5.602   6.290   3.467  0.5578 -0.4810  0.8358
  136OSM    H7G14740   5.448   6.386   3.485 -0.7833  1.2225  0.4856
  136OSM    C8F14741   5.605   6.413   3.646  0.6766 -0.2586  0.5876
  136OSM    H8F14742   5.551   6.504   3.678  1.1072  0.1117  0.2694
  136OSM    H8G14743   5.708   6.452   3.644  0.0039  1.6443 -1.9885
  136OSM    C9F14744   5.589   6.308   3.753  0.1678 -0.3246  0.0568
  136OSM    H9F14745   5.494   6.310   3.809  0.2899  0.8854  0.2386
  136OSM   C10F14746   5.678   6.206   3.775  0.8749 -0.3668  0.0691
  136OSM   H10F14747   5.666   6.155   3.872 -0.9114  0.2480  0.2096
  136OSM   C11F14748   5.802   6.181   3.696  0.2384 -0.2207 -0.6274
  136OSM   H11F14749   5.817   6.238   3.602  0.4906 -0.0561 -0.4873
  136OSM   H11G14750   5.801   6.074   3.666 -2.1705 -0.5310  0.3193
  136OSM   C12F14751   5.925   6.191   3.793  0.3675  0.7979  0.6557
  136OSM   H12F14752   5.906   6.136   3.888  0.2381 -1.2467 -0.4837
  136OSM   H12G14753   5.933   6.298   3.820  2.0366  0.5221  1.3525
  136OSM   C13F14754   6.060   6.127   3.741  0.1627 -0.2128  0.1992
  136OSM   H13F14755   6.088   6.195   3.657  1.9744 -0.1970  0.7924
  136OSM   H13G14756   6.026   6.026   3.707 -0.9569  0.6477 -1.3868
  136OSM   C14F14757   6.166   6.130   3.850 -0.8751 -0.9112  0.1026
  136OSM   H14F14758   6.138   6.073   3.941 -4.2700  0.3786 -0.0103
  136OSM   H14G14759   6.184   6.236   3.878 -0.4028 -0.3175 -2.2386
  136OSM   C15F14760   6.291   6.062   3.799  0.0474  0.4308  0.3802
  136OSM   H15F14761   6.306   6.079   3.690 -1.7860  1.5426  0.2640
  136OSM   H15G14762   6.286   5.952   3.813 -0.8699  0.1529 -1.7803
  136OSM   C16F14763   6.421   6.098   3.867  0.3068  0.1514 -0.0473
  136OSM   H16F14764   6.410   6.089   3.977 -1.2010 -1.6171 -0.2901
  136OSM   H16G14765   6.440   6.206   3.848 -1.8419 -0.0382 -4.4766
  136OSM   C17F14766   6.539   6.029   3.792 -0.5763 -0.0597  0.5487
  136OSM   H17F14767   6.513   5.927   3.757  2.4333 -0.5819 -0.4372
  136OSM   H17G14768   6.629   6.031   3.857 -0.3394  2.6208  0.2636
  136OSM   C18F14769   6.593   6.106   3.666  0.3351 -0.9939  0.1020
  136OSM   H18F14770   6.508   6.128   3.598  0.4972  1.9037  0.7161
  136OSM   H18G14771   6.663   6.054   3.597 -0.2470  1.5717 -2.6639
  136OSM   H18H14772   6.631   6.207   3.691 -0.3631  0.3305 -3.5496
  137OSM      N14773   1.335   4.580   2.292  0.2989  0.3866  0.1236
  137OSM    C1514774   1.479   4.537   2.312 -0.1305  0.4142  0.2715
  137OSM   H15A14775   1.543   4.615   2.273  1.0908 -0.9477 -0.5478
  137OSM   H15B14776   1.514   4.450   2.259 -1.3507 -0.1767  0.3959
  137OSM   H15C14777   1.507   4.505   2.412  0.7391 -0.3666 -0.2070
  137OSM    C1414778   1.320   4.612   2.145  0.0048 -0.0076 -0.1498
  137OSM   H14A14779   1.222   4.650   2.118  0.6122 -0.5516 -3.5594
  137OSM   H14B14780   1.333   4.518   2.095 -1.7375 -1.1725  1.4325
  137OSM   H14C14781   1.394   4.688   2.125  0.1608 -0.2134 -0.3595
  137OSM    C1314782   1.253   4.459   2.318 -0.5708  0.0948 -0.2819
  137OSM   H13A14783   1.258   4.398   2.229  1.1305  0.8295 -0.7382
  137OSM   H13B14784   1.150   4.482   2.341 -0.2383 -0.6465  2.3029
  137OSM   H13C14785   1.283   4.400   2.403  0.4234 -2.4102 -2.2566
  137OSM    C1214786   1.303   4.693   2.380 -0.1155 -0.6290  0.9954
  137OSM   H12A14787   1.355   4.781   2.346 -3.1845  1.9484  2.4002
  137OSM   H12B14788   1.339   4.674   2.480 -1.2258  0.8807  1.7231
  137OSM    C1114789   1.150   4.732   2.395 -0.4186  0.6732 -0.3671
  137OSM   H11A14790   1.117   4.752   2.291  1.6533  0.8590 -1.0468
  137OSM   H11B14791   1.140   4.830   2.446  0.1485  1.7936 -2.3043
  137OSM      P14792   1.093   4.622   2.619  0.0225  0.5824 -0.5781
  137OSM    O1314793   1.015   4.498   2.664  0.2914  0.2482 -0.1328
  137OSM    O1414794   1.237   4.620   2.663  0.1249 -0.0683 -0.4979
  137OSM    O1114795   1.030   4.757   2.662  0.5931  0.2233 -0.2361
  137OSM    O1214796   1.082   4.631   2.461 -0.4834  0.3392 -0.3944
  137OSM    C1S14797   0.974   4.779   2.793 -0.1278  0.5036 -0.2103
  137OSM    H1S14798   0.892   4.704   2.805  0.0842  0.2715 -0.1909
  137OSM    H1T14799   0.922   4.877   2.794 -0.6285  0.2353  0.5233
  137OSM     NF14800   0.999   4.799   3.035  0.3053 -0.3871 -0.3784
  137OSM    HNF14801   0.968   4.884   3.077 -0.3881 -0.7284 -0.1730
  137OSM    C2S14802   1.087   4.798   2.913  0.6286  0.0439  0.3429
  137OSM    H2S14803   1.152   4.708   2.920 -1.0284 -1.3416 -0.8272
  137OSM    C3S14804   1.178   4.917   2.885  0.1048  0.0788 -0.0659
  137OSM    H3S14805   1.122   5.010   2.911  0.6765  0.0384  1.3971
  137OSM     O314806   1.236   4.923   2.761 -0.0905  0.4270  0.2486
  137OSM    HO314807   1.179   4.866   2.709 -0.4524  0.3692  0.6967
  137OSM    C4S14808   1.286   4.933   2.992 -0.7569  0.3934  0.0016
  137OSM    H4S14809   1.240   4.969   3.086 -2.4930 -0.7627 -0.3650
  137OSM    C5S14810   1.422   4.892   2.989  0.3497  0.0082 -0.3317
  137OSM    H5S14811   1.470   4.860   2.896  1.1908  0.2415  0.0140
  137OSM    C6S14812   1.530   4.919   3.090 -0.1149  0.6171  0.3739
  137OSM    H6S14813   1.556   4.818   3.126 -1.6006  0.5952  1.4645
  137OSM    H6T14814   1.490   4.972   3.179  2.0450 -1.0389  2.4688
  137OSM    C7S14815   1.655   4.997   3.037 -0.1088  0.4069 -0.1184
  137OSM    H7S14816   1.636   5.098   2.995  4.1485  1.9641  1.1184
  137OSM    H7T14817   1.702   4.926   2.966 -0.8431 -1.5069  1.2208
  137OSM    C8S14818   1.758   5.020   3.153 -0.4300 -0.7860  0.0918
  137OSM    H8S14819   1.833   4.937   3.157  1.6286  0.8676 -1.7256
  137OSM    H8T14820   1.700   5.026   3.247  2.1069 -2.0616  1.8659
  137OSM    C9S14821   1.837   5.148   3.133  0.3970 -0.5835  0.1906
  137OSM    H9S14822   1.777   5.240   3.116  1.2900  0.0971  0.6226
  137OSM    H9T14823   1.891   5.137   3.037 -0.2401 -1.8082 -0.0471
  137OSM   C10S14824   1.942   5.163   3.248 -0.2868  0.4527  0.0582
  137OSM   H10S14825   2.011   5.076   3.244  1.7512  2.0153 -1.2460
  137OSM   H10T14826   1.894   5.182   3.346  0.9771 -0.0666  0.8002
  137OSM   C11S14827   2.037   5.278   3.218 -0.1449 -0.5531 -0.8452
  137OSM   H11S14828   1.985   5.375   3.203 -0.5796 -0.2984  1.8128
  137OSM   H11T14829   2.098   5.263   3.126  1.3514 -1.1737  0.1998
  137OSM   C12S14830   2.124   5.309   3.342 -0.5264 -0.6241 -0.1113
  137OSM   H12S14831   2.206   5.383   3.328 -0.9322  0.3664  2.3272
  137OSM   H12T14832   2.162   5.210   3.377 -1.5685 -0.3096  2.0747
  137OSM   C13S14833   2.054   5.367   3.467  0.7066  0.6968 -0.4979
  137OSM   H13S14834   1.981   5.304   3.522 -0.6460  2.1864 -0.5096
  137OSM   H13T14835   1.999   5.457   3.433 -0.7661  0.0117 -0.0114
  137OSM   C14S14836   2.151   5.411   3.577  0.1472 -0.4651  0.1519
  137OSM   H14S14837   2.185   5.514   3.552 -2.1189  0.4550  0.6397
  137OSM   H14T14838   2.228   5.331   3.586  0.1690 -0.5356 -0.6093
  137OSM   C15S14839   2.088   5.428   3.722 -0.9556  0.7863  0.7933
  137OSM   H15S14840   2.005   5.355   3.735 -0.4754  0.2532  0.9612
  137OSM   H15T14841   2.036   5.525   3.713 -1.2058  0.5637 -0.3083
  137OSM   C16S14842   2.197   5.426   3.825 -0.3957  0.0305  0.2263
  137OSM   H16S14843   2.289   5.482   3.797  0.2022 -1.1247 -0.2036
  137OSM   H16T14844   2.231   5.320   3.828  3.0665  1.0133  3.0522
  137OSM   C17S14845   2.158   5.475   3.968  0.0808  0.2479 -0.1541
  137OSM   H17S14846   2.051   5.450   3.983  0.2917 -1.2873 -1.0298
  137OSM   H17T14847   2.175   5.585   3.963 -2.7079  0.7289 -1.1768
  137OSM   C18S14848   2.242   5.416   4.082 -0.2907 -0.4666 -0.2377
  137OSM   H18S14849   2.347   5.437   4.054  0.1128 -1.7597  0.2347
  137OSM   H18T14850   2.219   5.307   4.089 -0.7999 -0.3611 -0.2051
  137OSM   H18U14851   2.226   5.458   4.184 -0.7517 -3.7225  1.1715
  137OSM    C1F14852   0.948   4.692   3.078 -0.0078  0.2936 -0.0066
  137OSM     OF14853   0.970   4.585   3.014 -0.3271 -1.0080  0.1979
  137OSM    C2F14854   0.847   4.695   3.191  0.7414  0.0733  0.1219
  137OSM    H2F14855   0.795   4.792   3.175  0.1219 -0.6068 -2.3992
  137OSM    H2G14856   0.906   4.702   3.285 -0.5883 -1.6009  1.1429
  137OSM    C3F14857   0.753   4.571   3.185 -0.0624 -0.0744 -0.6517
  137OSM    H3F14858   0.800   4.473   3.208 -0.5473 -0.2850 -0.5216
  137OSM    H3G14859   0.707   4.556   3.085 -0.0906 -2.1384 -0.3766
  137OSM    C4F14860   0.640   4.593   3.279  1.2186  0.1489 -0.0881
  137OSM    H4F14861   0.571   4.507   3.264 -0.6060  0.9269  2.8854
  137OSM    H4G14862   0.578   4.680   3.249 -0.3823 -0.9543 -0.1600
  137OSM    C5F14863   0.673   4.624   3.426 -0.1266 -0.5641  0.4591
  137OSM    H5F14864   0.574   4.646   3.473 -0.1516  2.3668 -0.7689
  137OSM    H5G14865   0.722   4.724   3.431 -2.5260  0.7721 -0.8315
  137OSM    C6F14866   0.739   4.508   3.495 -0.8568  1.2552 -0.5360
  137OSM    H6F14867   0.843   4.514   3.456  0.6639  0.5520  2.9418
  137OSM    H6G14868   0.685   4.415   3.468  0.3469  0.2005  0.5415
  137OSM    C7F14869   0.731   4.518   3.646  0.6786  0.6986 -0.0243
  137OSM    H7F14870   0.624   4.530   3.672  0.6819 -1.8544  1.5155
  137OSM    H7G14871   0.772   4.613   3.686 -0.4313  1.1731  0.0145
  137OSM    C8F14872   0.797   4.403   3.721 -0.3926 -0.3847 -0.9715
  137OSM    H8F14873   0.809   4.437   3.826  3.6755 -3.3000 -0.2886
  137OSM    H8G14874   0.900   4.383   3.686  0.5342 -0.3783  1.5647
  137OSM    C9F14875   0.723   4.278   3.712  0.0620  0.2189 -0.4151
  137OSM    H9F14876   0.672   4.247   3.619  0.9828  0.2751 -0.9484
  137OSM   C10F14877   0.704   4.183   3.805  0.3037  0.5163  0.1829
  137OSM   H10F14878   0.645   4.095   3.776 -0.7132  0.4061  2.3817
  137OSM   C11F14879   0.764   4.171   3.943  0.1215 -0.4860 -0.0447
  137OSM   H11F14880   0.680   4.153   4.013  0.0648 -0.8019 -0.1924
  137OSM   H11G14881   0.809   4.269   3.967 -0.2322 -0.7109  1.6497
  137OSM   C12F14882   0.874   4.065   3.962 -0.6162 -0.6712 -0.5574
  137OSM   H12F14883   0.944   4.090   4.044 -1.5076 -2.1665  0.7191
  137OSM   H12G14884   0.943   4.070   3.875 -1.0270 -1.2104 -0.9203
  137OSM   C13F14885   0.829   3.917   3.988 -0.2352  0.1031 -0.0922
  137OSM   H13F14886   0.906   3.850   3.944  0.1023  0.4980 -0.1082
  137OSM   H13G14887   0.731   3.902   3.938 -0.8242 -0.7598  1.2651
  137OSM   C14F14888   0.823   3.876   4.134  0.1309 -0.3495 -0.8867
  137OSM   H14F14889   0.771   3.778   4.134  1.4544 -1.0770  0.0889
  137OSM   H14G14890   0.765   3.961   4.176 -0.6101 -1.8593  1.3708
  137OSM   C15F14891   0.949   3.859   4.215 -0.1861 -0.5798  0.3642
  137OSM   H15F14892   0.995   3.959   4.230 -1.5639  0.2799 -0.9500
  137OSM   H15G14893   1.019   3.804   4.148 -0.2061 -0.8810  0.5890
  137OSM   C16F14894   0.939   3.788   4.347 -0.3146 -0.0402 -0.0230
  137OSM   H16F14895   0.881   3.848   4.421  2.2674  2.9052 -0.1735
  137OSM   H16G14896   1.040   3.783   4.393 -0.3324 -0.6122 -0.0458
  137OSM   C17F14897   0.884   3.647   4.335 -0.0168  0.2438  0.0653
  137OSM   H17F14898   0.922   3.608   4.238 -1.2245  0.0793 -0.3654
  137OSM   H17G14899   0.773   3.643   4.330  0.0229 -1.6840  0.0170
  137OSM   C18F14900   0.918   3.552   4.449 -0.3412 -0.0780  0.5798
  137OSM   H18F14901   1.022   3.534   4.483  0.0732  1.2535  0.0699
  137OSM   H18G14902   0.878   3.450   4.427 -0.8884  0.1615  0.4521
  137OSM   H18H14903   0.861   3.579   4.540 -0.5945 -0.5437  0.5677
  138OSM      N14904   0.754   4.870   2.440 -0.1735 -0.6461  0.8889
  138OSM    C1514905   0.647   4.958   2.377  0.6705 -0.7368  0.3311
  138OSM   H15A14906   0.700   5.039   2.329  4.1316 -2.7702  0.3833
  138OSM   H15B14907   0.571   4.994   2.445  1.7252 -1.1236  1.7529
  138OSM   H15C14908   0.596   4.908   2.296 -0.0305  0.7438 -0.1701
  138OSM    C1414909   0.684   4.756   2.512  0.0565  0.1492 -1.1153
  138OSM   H14A14910   0.635   4.696   2.436  0.0592  0.1068 -1.0834
  138OSM   H14B14911   0.613   4.804   2.578  2.2256  0.3493  1.1910
  138OSM   H14C14912   0.750   4.697   2.573  1.6115  3.4021  0.6285
  138OSM    C1314913   0.840   4.813   2.335  0.0279  1.0185  0.6846
  138OSM   H13A14914   0.774   4.753   2.274 -0.7932 -1.2635  3.5971
  138OSM   H13B14915   0.929   4.762   2.369  0.6519  1.8568  0.3577
  138OSM   H13C14916   0.896   4.884   2.275  1.8991 -1.7782 -1.1187
  138OSM    C1214917   0.838   4.944   2.535  0.4099  0.6480 -0.3161
  138OSM   H12A14918   0.899   4.876   2.593 -1.5251  0.6564  1.8318
  138OSM   H12B14919   0.774   4.984   2.612  2.3620  1.9730  0.7210
  138OSM    C1114920   0.928   5.057   2.492 -0.6183 -0.1179  0.2162
  138OSM   H11A14921   0.862   5.129   2.439  0.8428  1.8582  0.9617
  138OSM   H11B14922   1.014   5.027   2.428 -0.7928 -0.6190  0.2068
  138OSM      P14923   1.025   5.268   2.606  0.3331  0.1548 -0.0342
  138OSM    O1314924   1.171   5.274   2.578  0.6337  0.2377 -0.1348
  138OSM    O1414925   0.944   5.348   2.507 -0.2695 -0.5678 -0.3523
  138OSM    O1114926   1.004   5.317   2.753  0.0277  0.0460 -0.9077
  138OSM    O1214927   0.974   5.119   2.613 -0.3072  0.0076 -0.4072
  138OSM    C1S14928   0.929   5.245   2.845 -0.1409  0.1678  0.6612
  138OSM    H1S14929   0.965   5.140   2.851  1.6279  0.7283  0.3776
  138OSM    H1T14930   0.823   5.235   2.811  0.5523  0.2436 -1.6404
  138OSM     NF14931   0.801   5.250   3.056  0.0030  0.2483  0.0040
  138OSM    HNF14932   0.714   5.300   3.063 -0.7745 -0.9888 -0.5053
  138OSM    C2S14933   0.914   5.319   2.980  0.1406  0.1893  0.4003
  138OSM    H2S14934   1.009   5.321   3.038 -0.2803 -0.9710  1.1707
  138OSM    C3S14935   0.884   5.466   2.945  0.3536 -0.2427 -0.2093
  138OSM    H3S14936   0.796   5.475   2.879 -0.5690 -0.4178  0.9525
  138OSM     O314937   0.989   5.539   2.887 -0.2975 -0.0885  0.0385
  138OSM    HO314938   1.042   5.471   2.844 -0.0994  0.2330 -0.2236
  138OSM    C4S14939   0.827   5.538   3.070  0.1087  1.1579  0.6530
  138OSM    H4S14940   0.718   5.551   3.080  0.3442  2.8195  1.4381
  138OSM    C5S14941   0.904   5.578   3.172 -0.2217 -0.6716 -0.5636
  138OSM    H5S14942   1.013   5.566   3.163 -0.2991 -0.9746 -1.1207
  138OSM    C6S14943   0.859   5.635   3.308 -0.4055  0.5774  0.2824
  138OSM    H6S14944   0.750   5.622   3.326 -0.7294 -0.1074 -1.9224
  138OSM    H6T14945   0.869   5.746   3.306 -0.2702  0.5519 -1.0188
  138OSM    C7S14946   0.930   5.581   3.430  0.1102 -0.5963  0.5193
  138OSM    H7S14947   1.039   5.565   3.410  0.1415 -0.5138  0.6266
  138OSM    H7T14948   0.887   5.483   3.461  0.9829 -1.0706  0.2893
  138OSM    C8S14949   0.912   5.672   3.554  0.1383 -0.3610 -0.1116
  138OSM    H8S14950   0.807   5.698   3.580 -0.4019 -2.0791 -0.4233
  138OSM    H8T14951   0.969   5.766   3.539  1.0172 -0.9922 -0.8439
  138OSM    C9S14952   0.952   5.605   3.688 -0.1152 -0.4475  0.0291
  138OSM    H9S14953   1.054   5.563   3.680 -0.1524 -0.1479 -3.3579
  138OSM    H9T14954   0.886   5.522   3.719 -1.0084  0.6160  1.1068
  138OSM   C10S14955   0.948   5.700   3.804  0.5490 -0.4204 -0.4006
  138OSM   H10S14956   0.841   5.719   3.829  1.0894  1.2657  0.7954
  138OSM   H10T14957   1.000   5.794   3.778  1.1280 -0.2318  1.2793
  138OSM   C11S14958   1.013   5.649   3.930  0.5740 -0.0218  0.1361
  138OSM   H11S14959   1.123   5.652   3.911  0.5302  2.5438 -0.0844
  138OSM   H11T14960   0.974   5.548   3.954 -0.1211  0.4857  1.2454
  138OSM   C12S14961   0.981   5.738   4.055 -0.4467  0.3297 -0.0331
  138OSM   H12S14962   0.871   5.738   4.070 -1.1565  3.7311 -3.5600
  138OSM   H12T14963   1.013   5.843   4.040 -1.5831  0.7271  0.2010
  138OSM   C13S14964   1.050   5.679   4.178  0.2807  0.3416  0.1742
  138OSM   H13S14965   1.151   5.725   4.180  0.1310  0.6687  2.5618
  138OSM   H13T14966   1.059   5.569   4.170 -2.3498 -0.0014  1.1037
  138OSM   C14S14967   0.989   5.732   4.311  0.1135 -0.3371 -0.6853
  138OSM   H14S14968   0.880   5.711   4.316 -0.4974  1.3574 -3.8476
  138OSM   H14T14969   1.016   5.839   4.326  0.6039 -0.4080 -1.0347
  138OSM   C15S14970   1.060   5.651   4.423  0.1515 -0.6970 -0.8559
  138OSM   H15S14971   1.165   5.635   4.392  0.7701  0.3517  0.6191
  138OSM   H15T14972   1.020   5.548   4.426 -0.8653 -0.2931 -0.0049
  138OSM   C16S14973   1.057   5.730   4.559 -0.3618  0.3102 -0.1221
  138OSM   H16S14974   0.955   5.732   4.602  0.1581 -1.8030  1.3986
  138OSM   H16T14975   1.087   5.835   4.542 -0.2032 -0.0352 -2.2996
  138OSM   C17S14976   1.155   5.665   4.667  0.4442 -0.0165 -0.3225
  138OSM   H17S14977   1.156   5.731   4.757 -1.0869  0.4325 -0.6092
  138OSM   H17T14978   1.259   5.658   4.630  0.3430  0.4409 -0.6963
  138OSM   C18S14979   1.116   5.529   4.719 -0.4518 -0.0674 -0.2699
  138OSM   H18S14980   1.096   5.462   4.632 -0.6145 -0.2271 -0.1105
  138OSM   H18T14981   1.019   5.536   4.772 -0.8970 -1.3114 -0.8603
  138OSM   H18U14982   1.201   5.494   4.781 -1.6879  1.5424  2.5198
  138OSM    C1F14983   0.826   5.133   3.116  0.1133  0.0113 -0.1981
  138OSM     OF14984   0.942   5.086   3.123 -0.1013 -0.0302  0.3624
  138OSM    C2F14985   0.705   5.068   3.188  0.0235 -0.2050 -0.4186
  138OSM    H2F14986   0.690   4.964   3.153  0.0424  0.4537 -2.5177
  138OSM    H2G14987   0.621   5.132   3.152  1.5763  2.4152  0.3999
  138OSM    C3F14988   0.722   5.080   3.340  0.1514 -0.3220  0.1227
  138OSM    H3F14989   0.805   5.019   3.382 -0.5922 -0.0592  2.0749
  138OSM    H3G14990   0.639   5.029   3.394  2.2302 -1.6164  2.3261
  138OSM    C4F14991   0.726   5.223   3.403  0.2185  0.8073  0.7535
  138OSM    H4F14992   0.631   5.271   3.371 -0.2872 -1.7117 -1.9119
  138OSM    H4G14993   0.819   5.267   3.361 -0.6475  1.9483 -0.0372
  138OSM    C5F14994   0.729   5.240   3.558  0.1892  0.0439 -0.0093
  138OSM    H5F14995   0.639   5.204   3.613 -0.8622  2.8354  0.2919
  138OSM    H5G14996   0.736   5.349   3.582 -0.0328 -0.3199  1.8281
  138OSM    C6F14997   0.840   5.158   3.626 -0.1671 -0.9440  0.1639
  138OSM    H6F14998   0.931   5.169   3.563 -0.7024  3.0182 -0.1576
  138OSM    H6G14999   0.810   5.053   3.650  2.0572 -1.6899 -0.0745
  138OSM    C7F15000   0.886   5.204   3.766  0.6131 -0.4560  0.3151
  138OSM    H7F15001   0.799   5.183   3.832 -1.3231 -1.0552 -2.2725
  138OSM    H7G15002   0.890   5.314   3.777 -0.3250 -0.2666 -1.0573
  138OSM    C8F15003   1.016   5.145   3.825 -0.4399 -0.0135  0.0857
  138OSM    H8F15004   1.102   5.162   3.757 -0.9680  0.3071 -0.5204
  138OSM    H8G15005   1.010   5.035   3.829  0.3090 -0.2330 -2.7104
  138OSM    C9F15006   1.057   5.215   3.949 -0.2321 -0.0662  0.1969
  138OSM    H9F15007   1.076   5.322   3.932 -0.5876 -0.2481 -1.4378
  138OSM   C10F15008   1.063   5.168   4.072  0.6300  0.1898 -0.4761
  138OSM   H10F15009   1.091   5.229   4.160 -0.7094  0.0032  0.1046
  138OSM   C11F15010   1.041   5.028   4.116  0.7764  0.1130 -0.9110
  138OSM   H11F15011   1.129   4.997   4.176 -2.2467 -1.1667  3.3363
  138OSM   H11G15012   1.036   4.953   4.034  2.5843  0.6197 -1.5425
  138OSM   C12F15013   0.913   5.016   4.207  0.1876 -0.3128 -0.4888
  138OSM   H12F15014   0.824   5.029   4.141  0.2337  0.3684 -0.4248
  138OSM   H12G15015   0.905   5.111   4.264  1.3895 -1.0304  0.9329
  138OSM   C13F15016   0.891   4.881   4.282  0.3309  0.8145  0.2362
  138OSM   H13F15017   0.988   4.851   4.327 -0.1607 -0.9487  0.1892
  138OSM   H13G15018   0.863   4.797   4.215 -2.5872  0.6052  1.5761
  138OSM   C14F15019   0.787   4.902   4.391  0.0815  0.1916  0.7663
  138OSM   H14F15020   0.698   4.962   4.362  0.6885  1.1405  0.8151
  138OSM   H14G15021   0.838   4.962   4.469 -1.4379  3.0224 -0.2680
  138OSM   C15F15022   0.734   4.776   4.456  0.3335 -0.8294 -0.6550
  138OSM   H15F15023   0.822   4.714   4.482 -0.9213 -2.2226  0.3799
  138OSM   H15G15024   0.678   4.707   4.390  0.8332 -1.3833 -0.5117
  138OSM   C16F15025   0.648   4.816   4.579 -0.0945  0.3880  0.1230
  138OSM   H16F15026   0.553   4.854   4.536  0.9461 -0.1997 -2.9098
  138OSM   H16G15027   0.706   4.893   4.635 -0.4810  2.1528 -1.7581
  138OSM   C17F15028   0.608   4.693   4.662  0.0010 -0.2209 -0.3341
  138OSM   H17F15029   0.553   4.727   4.753 -0.9397 -1.4110 -0.4335
  138OSM   H17G15030   0.699   4.643   4.701 -0.3527 -0.3266  0.3824
  138OSM   C18F15031   0.525   4.595   4.582 -0.1939 -0.4740  0.3128
  138OSM   H18F15032   0.473   4.523   4.649  1.2901 -1.8095  0.0921
  138OSM   H18G15033   0.587   4.533   4.514  0.6185  1.6830 -1.0157
  138OSM   H18H15034   0.456   4.640   4.507  0.5846  0.3657  0.0798
  139OSM      N15035   2.850   2.348   2.488 -0.0517  0.0090 -0.1545
  139OSM    C1515036   2.962   2.404   2.403 -0.4161 -0.2256 -0.9337
  139OSM   H15A15037   2.989   2.505   2.432  1.0000 -0.4131 -1.5384
  139OSM   H15B15038   2.934   2.414   2.299  0.3363 -0.3823 -1.1537
  139OSM   H15C15039   3.042   2.332   2.404  0.4042  0.5728  2.0330
  139OSM    C1415040   2.722   2.427   2.466 -0.1216 -0.2973 -0.4587
  139OSM   H14A15041   2.749   2.528   2.492 -0.2923 -0.2626 -0.4197
  139OSM   H14B15042   2.630   2.387   2.507 -1.4555  2.4866 -0.5139
  139OSM   H14C15043   2.697   2.437   2.361  1.9376  1.9183 -0.8320
  139OSM    C1315044   2.819   2.205   2.452 -0.1969  0.0653 -0.3001
  139OSM   H13A15045   2.731   2.168   2.503  1.1627 -2.1772  0.5884
  139OSM   H13B15046   2.899   2.134   2.471  0.0969  0.3602 -0.4447
  139OSM   H13C15047   2.801   2.195   2.346  0.6085  1.5343 -0.5921
  139OSM    C1215048   2.881   2.358   2.640  0.8051 -0.7196  0.7344
  139OSM   H12A15049   2.973   2.304   2.654  1.5581  0.1443 -0.5923
  139OSM   H12B15050   2.797   2.314   2.691 -0.2345  1.2996  0.8734
  139OSM    C1115051   2.912   2.496   2.703 -0.1622 -0.4481 -0.3403
  139OSM   H11A15052   2.926   2.476   2.811  0.7675 -1.1812 -0.5797
  139OSM   H11B15053   2.826   2.565   2.692 -0.0109 -0.1869  0.0869
  139OSM      P15054   3.173   2.499   2.661 -0.0684  0.6300 -0.2516
  139OSM    O1315055   3.176   2.351   2.665 -0.1199  0.4518  0.5284
  139OSM    O1415056   3.260   2.570   2.572  0.3359 -0.6408 -0.1972
  139OSM    O1115057   3.206   2.542   2.805 -1.0471 -0.0672  0.4549
  139OSM    O1215058   3.022   2.552   2.641 -0.0175 -0.0725 -0.7230
  139OSM    C1S15059   3.211   2.451   2.916 -0.6076  0.0765  0.0264
  139OSM    H1S15060   3.297   2.383   2.902 -1.7219 -2.1536  3.0607
  139OSM    H1T15061   3.120   2.388   2.928 -0.3218 -0.9271 -2.3934
  139OSM     NF15062   3.300   2.444   3.141  0.5520  0.1018 -0.4013
  139OSM    HNF15063   3.226   2.414   3.201  0.9597  2.1150  1.2277
  139OSM    C2S15064   3.250   2.529   3.044 -0.3734  0.1816  0.7125
  139OSM    H2S15065   3.333   2.601   3.027 -0.8076  1.5384  3.7532
  139OSM    C3S15066   3.128   2.617   3.085 -0.6518 -0.5370 -0.1129
  139OSM    H3S15067   3.045   2.545   3.101  1.4139 -3.0009  0.3395
  139OSM     O315068   3.082   2.693   2.971 -0.2111  0.0694 -0.1600
  139OSM    HO315069   3.119   2.644   2.898 -0.2886 -0.3466  0.0752
  139OSM    C4S15070   3.159   2.704   3.201 -0.0397 -0.0809 -0.2250
  139OSM    H4S15071   3.264   2.726   3.225  0.2378 -2.9316  1.7201
  139OSM    C5S15072   3.069   2.753   3.290 -0.3066 -1.0541  0.3125
  139OSM    H5S15073   2.964   2.726   3.272 -0.2893 -0.3116 -1.0211
  139OSM    C6S15074   3.122   2.858   3.387 -0.4426 -0.0294  0.9146
  139OSM    H6S15075   3.035   2.927   3.378 -0.0432  0.4081  0.3861
  139OSM    H6T15076   3.214   2.907   3.349 -0.4267 -0.5194  0.3218
  139OSM    C7S15077   3.131   2.828   3.545  0.4485  0.0285  0.7618
  139OSM    H7S15078   3.186   2.912   3.591 -0.4573  0.1366  1.6826
  139OSM    H7T15079   3.179   2.728   3.554 -0.1548 -0.1557  2.0805
  139OSM    C8S15080   2.998   2.817   3.612  0.1252  0.6791  0.5390
  139OSM    H8S15081   2.927   2.740   3.574 -1.1995  2.0227  0.1700
  139OSM    H8T15082   2.947   2.910   3.577 -1.1527 -0.6065 -1.1779
  139OSM    C9S15083   3.013   2.818   3.760  0.2868  0.9602  0.7057
  139OSM    H9S15084   3.041   2.916   3.806 -2.5050  1.5303  1.3346
  139OSM    H9T15085   3.070   2.729   3.792  1.4235  1.7376  0.9251
  139OSM   C10S15086   2.881   2.783   3.833 -0.7910 -0.9440  0.0852
  139OSM   H10S15087   2.847   2.685   3.793  0.9181 -1.5262 -0.0050
  139OSM   H10T15088   2.811   2.865   3.808 -0.5982 -0.7636  0.1375
  139OSM   C11S15089   2.896   2.774   3.985 -0.1442 -0.2623 -0.9274
  139OSM   H11S15090   2.923   2.875   4.024 -2.0340 -0.0873  0.0480
  139OSM   H11T15091   2.981   2.704   4.000 -1.1712 -1.5259 -0.7999
  139OSM   C12S15092   2.772   2.714   4.060 -0.0232  0.8521  0.4333
  139OSM   H12S15093   2.744   2.614   4.022 -0.9699  2.0791 -2.3131
  139OSM   H12T15094   2.694   2.793   4.056 -1.1978 -0.3034 -0.3250
  139OSM   C13S15095   2.800   2.696   4.210  0.2331 -0.6403  0.1565
  139OSM   H13S15096   2.814   2.799   4.252 -3.6232  0.3404 -0.5747
  139OSM   H13T15097   2.898   2.645   4.215  1.1807  0.7861 -2.2677
  139OSM   C14S15098   2.693   2.612   4.281  0.8968  0.1025 -0.3368
  139OSM   H14S15099   2.737   2.590   4.381 -0.1608 -0.7519 -0.0317
  139OSM   H14T15100   2.666   2.512   4.241  0.7148 -0.4912  1.2065
  139OSM   C15S15101   2.568   2.704   4.306 -0.8699  0.2522  0.0781
  139OSM   H15S15102   2.487   2.658   4.246 -0.1533  1.8558 -2.2496
  139OSM   H15T15103   2.573   2.806   4.263  0.9057  1.0572  2.0048
  139OSM   C16S15104   2.528   2.707   4.454  0.1592 -0.0709 -0.6314
  139OSM   H16S15105   2.615   2.721   4.522  0.9488 -1.1266 -1.3672
  139OSM   H16T15106   2.482   2.607   4.471  0.3644  0.0225  0.5439
  139OSM   C17S15107   2.419   2.809   4.483 -0.4684  0.5941 -0.5105
  139OSM   H17S15108   2.464   2.907   4.457 -2.5288  1.9774  0.7753
  139OSM   H17T15109   2.394   2.830   4.590  1.5960  1.1951 -0.1077
  139OSM   C18S15110   2.285   2.792   4.399 -0.4529 -0.1982 -0.3580
  139OSM   H18S15111   2.246   2.689   4.406  1.0817 -0.7276  1.1520
  139OSM   H18T15112   2.309   2.803   4.291  0.7485 -0.3669 -0.1288
  139OSM   H18U15113   2.216   2.873   4.431 -0.0340  0.5059 -1.2057
  139OSM    C1F15114   3.414   2.371   3.134  0.3461  0.0767 -0.2378
  139OSM     OF15115   3.489   2.370   3.037  0.1829 -0.4254  0.3021
  139OSM    C2F15116   3.433   2.265   3.237  0.3430 -0.2727 -0.0171
  139OSM    H2F15117   3.460   2.175   3.179  0.5943  0.2199 -0.6724
  139OSM    H2G15118   3.337   2.243   3.289  0.3258  1.3291  0.7123
  139OSM    C3F15119   3.543   2.290   3.348  0.4381  0.0325  0.6955
  139OSM    H3F15120   3.495   2.380   3.394 -1.8020 -0.5991 -0.2740
  139OSM    H3G15121   3.637   2.324   3.300 -0.2165 -0.6624 -1.1545
  139OSM    C4F15122   3.554   2.164   3.439 -0.1944  0.0256 -0.4588
  139OSM    H4F15123   3.582   2.080   3.372  0.5059 -0.7068  0.7087
  139OSM    H4G15124   3.454   2.146   3.486 -0.4737  1.5647 -0.4131
  139OSM    C5F15125   3.678   2.155   3.529 -0.2398 -0.2727 -0.0833
  139OSM    H5F15126   3.770   2.182   3.472  0.0159 -0.3456  0.2934
  139OSM    H5G15127   3.701   2.053   3.567  2.1394  0.7731  1.4946
  139OSM    C6F15128   3.671   2.249   3.649  0.4196  0.2869  0.5947
  139OSM    H6F15129   3.578   2.242   3.710  0.1993  2.7809  0.6609
  139OSM    H6G15130   3.652   2.344   3.595 -0.7683 -1.5156 -2.3867
  139OSM    C7F15131   3.793   2.256   3.736  0.2246  0.2017  0.1032
  139OSM    H7F15132   3.891   2.251   3.684 -1.3102  1.2031 -3.1196
  139OSM    H7G15133   3.789   2.158   3.788 -1.6359  0.7397  1.0614
  139OSM    C8F15134   3.778   2.368   3.842 -0.0392 -0.1197  0.0758
  139OSM    H8F15135   3.675   2.361   3.883  0.9480  0.7106  2.9140
  139OSM    H8G15136   3.773   2.469   3.797  0.3446  0.3134  0.9812
  139OSM    C9F15137   3.889   2.351   3.946 -0.3195  0.0662 -0.4507
  139OSM    H9F15138   3.974   2.415   3.917 -1.8563  2.8627  0.7663
  139OSM   C10F15139   3.887   2.282   4.061 -0.0810 -0.2958 -0.4447
  139OSM   H10F15140   3.966   2.289   4.136 -0.0631  1.0614 -0.5666
  139OSM   C11F15141   3.771   2.197   4.106 -0.3790 -0.1392  0.2709
  139OSM   H11F15142   3.786   2.087   4.107 -0.6831 -0.1915 -0.3434
  139OSM   H11G15143   3.689   2.207   4.031 -0.8475 -1.3340  0.5997
  139OSM   C12F15144   3.703   2.236   4.239  0.0217 -0.0435  0.8063
  139OSM   H12F15145   3.784   2.245   4.314  0.3244  0.2879  0.4454
  139OSM   H12G15146   3.633   2.153   4.262 -0.5493 -0.4492 -2.0335
  139OSM   C13F15147   3.629   2.373   4.247 -0.5181  0.1037 -0.2417
  139OSM   H13F15148   3.529   2.370   4.198 -0.6692 -0.3827  0.0910
  139OSM   H13G15149   3.701   2.432   4.187  1.5162 -1.1620  0.8799
  139OSM   C14F15150   3.623   2.435   4.385  0.4476 -0.2680  0.2128
  139OSM   H14F15151   3.590   2.541   4.376  1.3914 -0.0197 -0.4045
  139OSM   H14G15152   3.730   2.437   4.414  1.0117 -0.9373 -1.6933
  139OSM   C15F15153   3.521   2.368   4.483 -0.3912 -0.3470  0.6140
  139OSM   H15F15154   3.545   2.261   4.470  0.6201  0.1986 -3.9120
  139OSM   H15G15155   3.420   2.389   4.441  1.4857  2.0221 -3.3036
  139OSM   C16F15156   3.529   2.413   4.623 -0.7056 -0.0067 -1.0348
  139OSM   H16F15157   3.637   2.409   4.646  0.0622 -0.5709 -4.1536
  139OSM   H16G15158   3.464   2.346   4.684 -0.1196  0.8702  0.6007
  139OSM   C17F15159   3.484   2.554   4.634 -0.2357 -0.1168 -0.1241
  139OSM   H17F15160   3.390   2.552   4.574 -1.4588 -2.0833  1.7162
  139OSM   H17G15161   3.561   2.618   4.586  0.8310 -0.7099  0.7479
  139OSM   C18F15162   3.456   2.599   4.779  0.4197  0.5645  0.0966
  139OSM   H18F15163   3.435   2.708   4.778  0.6021  0.6070  0.6428
  139OSM   H18G15164   3.549   2.584   4.838 -0.6489  2.5854  2.4484
  139OSM   H18H15165   3.371   2.540   4.819  0.8006 -1.5774 -2.0021
  140OSM      N15166   1.613   6.121   2.574  0.4451 -0.4460  0.3660
  140OSM    C1515167   1.636   5.974   2.563  0.5211 -0.2386 -0.3170
  140OSM   H15A15168   1.706   5.920   2.625 -1.3598 -2.4286  0.0556
  140OSM   H15B15169   1.661   5.957   2.459 -0.6932 -0.3024 -0.6169
  140OSM   H15C15170   1.540   5.926   2.576  0.7816 -0.5425  0.5552
  140OSM    C1415171   1.738   6.197   2.548  0.3615 -0.0042 -0.2327
  140OSM   H14A15172   1.796   6.143   2.474 -0.3734 -1.7894  0.4226
  140OSM   H14B15173   1.805   6.190   2.633  0.7807 -0.3595 -0.5851
  140OSM   H14C15174   1.730   6.303   2.532  0.6517 -0.1043 -1.0883
  140OSM    C1315175   1.510   6.163   2.469 -0.2827 -0.1419 -0.1792
  140OSM   H13A15176   1.496   6.270   2.472  0.3480 -0.0867  1.3059
  140OSM   H13B15177   1.417   6.110   2.485  0.3644 -1.0604  0.6444
  140OSM   H13C15178   1.553   6.132   2.375  1.8556 -0.2253  0.7674
  140OSM    C1215179   1.577   6.143   2.721 -0.0468 -0.1870 -0.9431
  140OSM   H12A15180   1.659   6.097   2.776  1.0349 -0.0202 -2.3496
  140OSM   H12B15181   1.490   6.090   2.755 -0.0417 -0.3462 -1.1717
  140OSM    C1115182   1.565   6.290   2.766 -0.4558 -0.2190 -0.5731
  140OSM   H11A15183   1.666   6.337   2.770  0.1325 -1.5191  0.8156
  140OSM   H11B15184   1.535   6.290   2.873  2.0878  1.6802  0.2404
  140OSM      P15185   1.509   6.510   2.634  0.1434  0.3575  0.0452
  140OSM    O1315186   1.637   6.485   2.560  0.2471  0.3678 -0.3366
  140OSM    O1415187   1.403   6.578   2.552  0.2262  0.2489 -0.1830
  140OSM    O1115188   1.545   6.598   2.765  0.3395 -0.2648  0.2017
  140OSM    O1215189   1.468   6.366   2.687  0.4199 -0.6837 -1.1963
  140OSM    C1S15190   1.443   6.652   2.845 -0.0091  0.5655  0.4119
  140OSM    H1S15191   1.342   6.647   2.799  0.5845 -1.3148 -0.8269
  140OSM    H1T15192   1.463   6.761   2.854 -1.3222  1.2927 -3.3254
  140OSM     NF15193   1.358   6.684   3.086 -0.3139 -0.1374 -0.6142
  140OSM    HNF15194   1.405   6.732   3.160 -2.8721  1.3953  0.1417
  140OSM    C2S15195   1.438   6.604   3.004  0.0747 -0.1453  0.8101
  140OSM    H2S15196   1.390   6.505   2.988 -1.0546  0.3337  1.1032
  140OSM    C3S15197   1.588   6.588   3.056 -0.0086  0.4631  0.2142
  140OSM    H3S15198   1.633   6.689   3.066 -0.0611  0.4201  0.9011
  140OSM     O315199   1.678   6.509   2.980 -0.2612 -0.3904  0.7861
  140OSM    HO315200   1.645   6.507   2.890  2.1920  0.0337 -0.2082
  140OSM    C4S15201   1.581   6.526   3.195  0.5480 -0.1885 -0.1784
  140OSM    H4S15202   1.550   6.609   3.260 -0.1347 -0.9837  0.5316
  140OSM    C5S15203   1.592   6.397   3.237  1.3093  0.1375 -0.3944
  140OSM    H5S15204   1.613   6.316   3.167 -2.0060 -1.2641  0.0467
  140OSM    C6S15205   1.581   6.366   3.383  0.3420  0.3570  0.0868
  140OSM    H6S15206   1.590   6.255   3.394 -0.9106  0.3646  1.6284
  140OSM    H6T15207   1.475   6.391   3.408 -0.0199 -0.3749 -0.6475
  140OSM    C7S15208   1.672   6.431   3.485  0.1165 -0.3305 -0.1191
  140OSM    H7S15209   1.690   6.540   3.467  3.6427 -0.2926  2.5691
  140OSM    H7T15210   1.766   6.374   3.500  0.7569  1.0398  1.5686
  140OSM    C8S15211   1.608   6.425   3.635 -0.7210 -0.1451  0.7182
  140OSM    H8S15212   1.519   6.491   3.634  0.0858  1.0067  1.6894
  140OSM    H8T15213   1.686   6.475   3.696  0.3410  1.0441 -1.4735
  140OSM    C9S15214   1.571   6.288   3.681 -0.1807 -0.1493  1.1991
  140OSM    H9S15215   1.668   6.234   3.672 -0.0152  0.3220 -0.0177
  140OSM    H9T15216   1.494   6.239   3.617  1.7379  1.3903 -2.6752
  140OSM   C10S15217   1.533   6.268   3.828  0.4115  0.5755  0.1913
  140OSM   H10S15218   1.523   6.161   3.856  1.0469  0.8436  1.5176
  140OSM   H10T15219   1.430   6.306   3.848  0.1574 -0.0034  0.0318
  140OSM   C11S15220   1.638   6.341   3.924 -0.0931  0.0547  0.7186
  140OSM   H11S15221   1.619   6.447   3.897  0.6169 -0.0298 -0.1401
  140OSM   H11T15222   1.737   6.307   3.886 -2.0094 -0.8038 -4.1735
  140OSM   C12S15223   1.638   6.316   4.071  0.6695  0.6052 -0.5474
  140OSM   H12S15224   1.740   6.349   4.101  0.5379  0.1119  0.4917
  140OSM   H12T15225   1.615   6.215   4.111 -0.5270  1.8764  2.2690
  140OSM   C13S15226   1.538   6.406   4.143  0.1753 -0.2904  0.1821
  140OSM   H13S15227   1.436   6.365   4.126  0.0043  0.3150 -0.3009
  140OSM   H13T15228   1.534   6.508   4.098 -0.6228  0.5550  2.0476
  140OSM   C14S15229   1.581   6.430   4.290 -0.5286 -0.3404 -0.8254
  140OSM   H14S15230   1.663   6.504   4.292  0.0704 -1.0064  0.5356
  140OSM   H14T15231   1.615   6.337   4.341 -0.4994 -0.2724 -0.7219
  140OSM   C15S15232   1.473   6.489   4.389 -0.4872  0.5353  0.5068
  140OSM   H15S15233   1.375   6.440   4.370  0.4575 -0.7901 -1.2482
  140OSM   H15T15234   1.459   6.596   4.363  4.3961  1.0559 -1.1072
  140OSM   C16S15235   1.499   6.462   4.535  0.1195 -0.1910 -0.6669
  140OSM   H16S15236   1.604   6.493   4.554  0.2514 -0.5050 -0.8698
  140OSM   H16T15237   1.483   6.354   4.557 -0.7036  0.4568  2.3292
  140OSM   C17S15238   1.413   6.552   4.628 -1.0181 -0.5394  0.7405
  140OSM   H17S15239   1.310   6.513   4.614 -0.6587 -1.9623  1.8539
  140OSM   H17T15240   1.430   6.659   4.602 -0.9829 -1.3944 -3.3793
  140OSM   C18S15241   1.463   6.537   4.769 -0.4204  0.5312 -0.3623
  140OSM   H18S15242   1.471   6.429   4.793  0.6263  0.7732  0.4408
  140OSM   H18T15243   1.390   6.587   4.837  0.8913  0.9719  0.7847
  140OSM   H18U15244   1.564   6.580   4.784 -0.3851  0.0237  1.0701
  140OSM    C1F15245   1.227   6.710   3.069 -0.5674 -0.3964  1.0025
  140OSM     OF15246   1.169   6.647   2.980 -0.2620 -0.0163 -0.0556
  140OSM    C2F15247   1.158   6.798   3.163  0.2557  0.2349  0.2971
  140OSM    H2F15248   1.140   6.897   3.116 -0.2931 -0.3693 -0.8171
  140OSM    H2G15249   1.217   6.810   3.256 -1.3900 -0.0708  1.4243
  140OSM    C3F15250   1.029   6.731   3.211 -0.3684 -0.0184  0.2499
  140OSM    H3F15251   1.045   6.624   3.235 -1.2439 -0.0933  0.5622
  140OSM    H3G15252   0.957   6.732   3.126 -1.0796  0.1355  0.8485
  140OSM    C4F15253   0.969   6.819   3.328 -0.3388  0.5447  0.3302
  140OSM    H4F15254   0.954   6.921   3.286 -0.2943 -0.8553 -3.5100
  140OSM    H4G15255   1.052   6.822   3.401  1.4156 -0.5804 -1.4934
  140OSM    C5F15256   0.836   6.765   3.380 -0.3662 -0.2833 -0.7014
  140OSM    H5F15257   0.833   6.654   3.384 -1.0482 -0.2445  0.8809
  140OSM    H5G15258   0.751   6.800   3.317  0.3516  4.5152  0.6105
  140OSM    C6F15259   0.804   6.831   3.512 -0.2939  0.2140  0.6298
  140OSM    H6F15260   0.826   6.940   3.503 -1.5001  0.3039 -2.5003
  140OSM    H6G15261   0.875   6.783   3.583 -1.4738 -0.6745  1.2503
  140OSM    C7F15262   0.666   6.800   3.572  0.5823  0.4242  0.2605
  140OSM    H7F15263   0.661   6.689   3.571 -0.3995  0.4343 -1.6321
  140OSM    H7G15264   0.591   6.840   3.500  0.7201 -0.5984 -0.4667
  140OSM    C8F15265   0.648   6.859   3.714  0.0850  0.5369 -0.2541
  140OSM    H8F15266   0.541   6.844   3.740  0.9005 -1.5681  2.3877
  140OSM    H8G15267   0.660   6.969   3.704 -0.4517  0.6310  0.0833
  140OSM    C9F15268   0.737   6.799   3.821  0.1231  0.4457  0.4140
  140OSM    H9F15269   0.834   6.753   3.798  0.2194 -0.7898  2.8980
  140OSM   C10F15270   0.703   6.814   3.954  0.5139 -0.0387 -0.3046
  140OSM   H10F15271   0.781   6.788   4.027  0.8597 -1.3863 -1.1249
  140OSM   C11F15272   0.581   6.865   4.021  0.1467 -0.4908  0.2388
  140OSM   H11F15273   0.555   6.961   3.971  1.0170 -1.4108 -2.1076
  140OSM   H11G15274   0.605   6.884   4.128  2.5284 -0.8813 -0.1674
  140OSM   C12F15275   0.458   6.766   4.010  0.1921 -0.4510  0.0154
  140OSM   H12F15276   0.451   6.724   3.907  0.7685 -1.7689  0.5030
  140OSM   H12G15277   0.367   6.830   4.019 -0.6227 -1.4541 -0.8111
  140OSM   C13F15278   0.458   6.646   4.109  0.2657 -0.0531  0.2700
  140OSM   H13F15279   0.496   6.668   4.211 -3.1380 -3.7419  2.6525
  140OSM   H13G15280   0.532   6.570   4.075  1.4807  1.7897 -1.3724
  140OSM   C14F15281   0.322   6.571   4.111 -0.5481  0.2381  0.1247
  140OSM   H14F15282   0.316   6.520   4.012  2.4202 -0.2227  0.0834
  140OSM   H14G15283   0.241   6.645   4.128 -0.1006  0.4759  1.2668
  140OSM   C15F15284   0.327   6.453   4.211 -0.4833 -0.3599  0.6836
  140OSM   H15F15285   0.433   6.443   4.244 -0.3099 -0.8447  0.0066
  140OSM   H15G15286   0.287   6.361   4.164  2.5437 -1.2979 -0.3012
  140OSM   C16F15287   0.239   6.488   4.325 -0.6186 -0.3123 -0.1649
  140OSM   H16F15288   0.130   6.492   4.302 -0.3769 -0.5838 -1.4115
  140OSM   H16G15289   0.273   6.591   4.347  0.8945 -0.1732 -2.8051
  140OSM   C17F15290   0.271   6.390   4.440  0.2252  0.1185  0.1807
  140OSM   H17F15291   0.380   6.370   4.444 -0.0224 -1.0857  1.2790
  140OSM   H17G15292   0.226   6.292   4.413  0.9007 -0.1559  0.0377
  140OSM   C18F15293   0.226   6.428   4.584  0.4938  0.2255  0.3007
  140OSM   H18F15294   0.124   6.393   4.610  0.3341  0.7595  0.3950
  140OSM   H18G15295   0.252   6.534   4.602 -0.2210  0.9128 -2.3240
  140OSM   H18H15296   0.286   6.362   4.651  0.5628  0.1527  0.1698
  141OSM      N15297   3.429   4.467   2.311 -0.2617 -0.0961 -0.8590
  141OSM    C1515298   3.452   4.329   2.259 -0.0379 -0.7749  0.1747
  141OSM   H15A15299   3.550   4.286   2.276  0.6045  1.3184  2.1946
  141OSM   H15B15300   3.426   4.321   2.154 -0.1656 -2.1094  0.2931
  141OSM   H15C15301   3.383   4.267   2.314 -1.0013  0.6360  0.5806
  141OSM    C1415302   3.456   4.448   2.465  0.2355 -0.1324 -0.4246
  141OSM   H14A15303   3.560   4.430   2.486  0.2263  1.2373  0.9660
  141OSM   H14B15304   3.402   4.363   2.505  0.8382  0.0042  0.7260
  141OSM   H14C15305   3.429   4.534   2.525 -2.5437 -0.1985 -1.4240
  141OSM    C1315306   3.532   4.559   2.249  0.1731 -0.6561 -0.2576
  141OSM   H13A15307   3.635   4.533   2.267  0.2583 -0.1801 -0.0506
  141OSM   H13B15308   3.521   4.661   2.284  0.6410 -1.0533  1.0994
  141OSM   H13C15309   3.522   4.568   2.142  0.6781 -2.3317 -0.4719
  141OSM    C1215310   3.284   4.504   2.286 -0.0358 -0.3429 -0.1900
  141OSM   H12A15311   3.220   4.441   2.345 -1.0587  0.9089  0.0801
  141OSM   H12B15312   3.262   4.484   2.182 -0.1519  1.3362 -0.5206
  141OSM    C1115313   3.242   4.652   2.323  0.5346 -0.4247  0.6098
  141OSM   H11A15314   3.141   4.668   2.280  1.3335  2.0374 -0.5604
  141OSM   H11B15315   3.301   4.731   2.271  0.2631 -2.1967 -2.6614
  141OSM      P15316   3.113   4.661   2.543  0.4269  0.0170  0.0084
  141OSM    O1315317   3.041   4.792   2.552  0.2978  0.2590  0.4904
  141OSM    O1415318   3.037   4.542   2.494  0.3880 -0.0074  0.0879
  141OSM    O1115319   3.164   4.617   2.681 -0.2459 -0.3652  0.1820
  141OSM    O1215320   3.243   4.674   2.461 -0.1059  0.0847 -0.2700
  141OSM    C1S15321   3.249   4.691   2.770  0.3419  0.2196 -0.3768
  141OSM    H1S15322   3.246   4.800   2.750  1.7993  0.6352  1.3475
  141OSM    H1T15323   3.354   4.656   2.758  0.5154  0.7411 -0.3743
  141OSM     NF15324   3.275   4.774   3.012  0.2745  0.4077  0.0758
  141OSM    HNF15325   3.331   4.739   3.087 -0.0691 -1.7856 -0.6014
  141OSM    C2S15326   3.205   4.679   2.919  0.1764  0.0013  0.4116
  141OSM    H2S15327   3.096   4.693   2.933  0.1065 -2.3354  3.0051
  141OSM    C3S15328   3.216   4.529   2.958 -0.6408 -0.3793 -0.2803
  141OSM    H3S15329   3.325   4.506   2.965 -0.5620 -0.0496 -0.3742
  141OSM     O315330   3.154   4.439   2.873 -0.0198  0.1163  0.6935
  141OSM    HO315331   3.125   4.491   2.798 -1.8327 -2.1941 -0.3313
  141OSM    C4S15332   3.160   4.498   3.090 -0.2402  0.0139 -0.3490
  141OSM    H4S15333   3.062   4.546   3.104 -1.0364 -1.4827 -0.6057
  141OSM    C5S15334   3.193   4.433   3.202 -0.6143 -0.3503  0.5552
  141OSM    H5S15335   3.287   4.376   3.201 -1.6867 -2.3289 -2.9398
  141OSM    C6S15336   3.118   4.428   3.325  0.1325  0.1105 -0.4553
  141OSM    H6S15337   3.084   4.322   3.333  0.7104 -0.0697 -0.3836
  141OSM    H6T15338   3.025   4.490   3.329  0.0681 -0.0355  1.2062
  141OSM    C7S15339   3.209   4.479   3.439  0.4001  0.4401  0.2979
  141OSM    H7S15340   3.249   4.576   3.404 -1.1572 -0.0452 -3.2274
  141OSM    H7T15341   3.290   4.405   3.462 -1.1350 -1.2725  0.4312
  141OSM    C8S15342   3.137   4.493   3.573 -0.5285 -0.4614 -0.0391
  141OSM    H8S15343   3.127   4.395   3.625  2.5047 -0.3986  0.8364
  141OSM    H8T15344   3.042   4.548   3.555 -0.6970 -1.2522 -1.7565
  141OSM    C9S15345   3.219   4.569   3.674 -0.3191 -0.9287 -0.6188
  141OSM    H9S15346   3.216   4.677   3.647  0.8441 -0.7447 -0.0625
  141OSM    H9T15347   3.326   4.548   3.652 -0.0444 -2.6317  1.9067
  141OSM   C10S15348   3.178   4.554   3.822  0.2257 -0.3061  0.6179
  141OSM   H10S15349   3.158   4.445   3.829  1.5763 -0.5402  1.1731
  141OSM   H10T15350   3.083   4.610   3.836 -0.1853 -0.7489 -0.3151
  141OSM   C11S15351   3.289   4.590   3.919  0.2909 -0.9450 -0.0590
  141OSM   H11S15352   3.308   4.698   3.901 -2.8282 -0.4418 -1.1171
  141OSM   H11T15353   3.381   4.532   3.899  1.2533  0.9342 -1.3107
  141OSM   C12S15354   3.230   4.561   4.058  0.1076 -0.5467 -0.3067
  141OSM   H12S15355   3.134   4.616   4.067 -0.1026 -1.2629  2.9103
  141OSM   H12T15356   3.299   4.614   4.126 -0.8063 -0.6024  0.6868
  141OSM   C13S15357   3.226   4.413   4.111 -0.3770 -1.5222  0.7102
  141OSM   H13S15358   3.185   4.341   4.037 -1.3856  1.2059 -1.5832
  141OSM   H13T15359   3.155   4.419   4.197  0.0623  3.2909  1.0493
  141OSM   C14S15360   3.361   4.360   4.152  0.3715 -0.2389  0.1315
  141OSM   H14S15361   3.442   4.401   4.089  1.5831 -0.5113  1.4620
  141OSM   H14T15362   3.373   4.249   4.149  1.9238 -0.1887  2.1772
  141OSM   C15S15363   3.398   4.399   4.299 -0.5198  0.6269  0.3980
  141OSM   H15S15364   3.415   4.509   4.309  1.7205  0.4577 -0.7251
  141OSM   H15T15365   3.492   4.342   4.315 -0.1222  1.3275  0.6146
  141OSM   C16S15366   3.297   4.349   4.412  0.6142 -0.3983  0.1440
  141OSM   H16S15367   3.262   4.249   4.377 -0.8613 -0.7490  2.3557
  141OSM   H16T15368   3.207   4.414   4.402  0.3022 -0.8502 -0.0532
  141OSM   C17S15369   3.363   4.344   4.552  0.5118  0.1433 -0.4505
  141OSM   H17S15370   3.448   4.273   4.559 -0.2462 -0.6185  3.3764
  141OSM   H17T15371   3.288   4.302   4.622  0.9672  0.1421  0.0402
  141OSM   C18S15372   3.416   4.478   4.606 -0.2227 -0.3352  0.1714
  141OSM   H18S15373   3.346   4.536   4.670 -2.4443  1.5091 -3.5788
  141OSM   H18T15374   3.434   4.540   4.516 -0.7850 -0.1134  0.2064
  141OSM   H18U15375   3.512   4.470   4.660  0.0540  1.4156 -0.0221
  141OSM    C1F15376   3.252   4.907   3.014 -0.6386 -0.6179 -0.8788
  141OSM     OF15377   3.174   4.966   2.943  0.2304  0.9085  0.0370
  141OSM    C2F15378   3.331   4.987   3.110  0.5837 -0.2195  0.2255
  141OSM    H2F15379   3.315   5.093   3.082  0.4098 -0.1534  0.5726
  141OSM    H2G15380   3.438   4.956   3.118 -0.0756 -2.2818  1.8890
  141OSM    C3F15381   3.269   4.977   3.252 -0.2222 -0.6760 -0.1594
  141OSM    H3F15382   3.272   4.869   3.277 -0.6283 -0.5084  0.6620
  141OSM    H3G15383   3.164   5.011   3.260 -0.1454 -0.7572  1.6500
  141OSM    C4F15384   3.364   5.053   3.358  0.0593 -0.6569  0.1207
  141OSM    H4F15385   3.363   5.163   3.342 -0.6880 -0.4399  1.4872
  141OSM    H4G15386   3.469   5.017   3.366  0.9696  1.3757 -1.6129
  141OSM    C5F15387   3.307   5.022   3.496  0.4676  0.3943 -1.0589
  141OSM    H5F15388   3.266   4.919   3.505 -0.9605  0.8007 -2.5067
  141OSM    H5G15389   3.214   5.080   3.515 -0.8038 -1.3150 -1.8558
  141OSM    C6F15390   3.412   5.037   3.605  0.4704  0.0911  0.1574
  141OSM    H6F15391   3.448   5.142   3.604  1.2640 -0.1616  1.0496
  141OSM    H6G15392   3.495   4.971   3.572 -0.7373 -0.1969 -2.5482
  141OSM    C7F15393   3.366   4.989   3.747 -0.1791 -0.1968 -0.1592
  141OSM    H7F15394   3.333   4.885   3.731  1.8026 -0.7576 -0.9362
  141OSM    H7G15395   3.292   5.064   3.783  1.1924  1.1555 -0.0100
  141OSM    C8F15396   3.481   4.988   3.843  0.0477  0.5510 -0.8116
  141OSM    H8F15397   3.565   4.930   3.798  1.6019  1.9165  0.1929
  141OSM    H8G15398   3.452   4.943   3.941 -1.6740  2.5882 -0.3116
  141OSM    C9F15399   3.534   5.127   3.863 -0.4341  0.2489 -0.0897
  141OSM    H9F15400   3.618   5.149   3.795  1.7083  2.0499  2.9088
  141OSM   C10F15401   3.488   5.219   3.944 -0.6599 -0.3256 -0.1917
  141OSM   H10F15402   3.538   5.317   3.948 -1.3299  0.0598 -1.0025
  141OSM   C11F15403   3.373   5.202   4.044  0.4507  0.2975 -0.1699
  141OSM   H11F15404   3.401   5.190   4.151  0.3547  1.9608  0.0665
  141OSM   H11G15405   3.310   5.112   4.025 -0.7998  0.7155  1.8172
  141OSM   C12F15406   3.264   5.325   4.029 -0.4926  0.5618  0.4388
  141OSM   H12F15407   3.303   5.410   4.089 -0.4629 -1.3970  3.3719
  141OSM   H12G15408   3.176   5.277   4.076 -0.4145 -2.0769 -1.8410
  141OSM   C13F15409   3.225   5.348   3.879  0.6983 -0.2094 -0.2329
  141OSM   H13F15410   3.225   5.244   3.840  1.5518 -0.2585 -0.1354
  141OSM   H13G15411   3.299   5.413   3.826  2.3122 -0.0264  2.0895
  141OSM   C14F15412   3.091   5.406   3.860 -0.5835  0.3692  0.2228
  141OSM   H14F15413   3.095   5.505   3.911 -0.1388  0.8583 -0.7212
  141OSM   H14G15414   3.015   5.344   3.912 -1.1751  1.2289  0.4087
  141OSM   C15F15415   3.046   5.450   3.716  0.3895  0.6214 -0.1456
  141OSM   H15F15416   3.114   5.535   3.691  0.0477  1.1013  0.5301
  141OSM   H15G15417   2.941   5.487   3.719 -0.3372 -1.0158 -2.5769
  141OSM   C16F15418   3.058   5.348   3.601  0.1058  0.0378 -0.3349
  141OSM   H16F15419   3.023   5.247   3.631 -1.2297 -0.1560 -2.3594
  141OSM   H16G15420   3.160   5.344   3.559  0.3106 -1.6167  0.2482
  141OSM   C17F15421   2.976   5.400   3.485 -0.2594  0.5503  0.4747
  141OSM   H17F15422   3.013   5.503   3.467 -1.0801  1.8358  4.9489
  141OSM   H17G15423   2.871   5.412   3.518 -0.7877  0.9464 -1.2698
  141OSM   C18F15424   2.984   5.305   3.364 -0.2126 -1.0352 -0.4179
  141OSM   H18F15425   2.941   5.353   3.274  1.1480 -0.7108 -0.9171
  141OSM   H18G15426   2.955   5.200   3.384  1.8190 -1.8207 -1.3112
  141OSM   H18H15427   3.091   5.285   3.341  0.2199  0.8078 -0.1684
  142OSM      N15428   4.382   6.334   2.348  0.1412  0.1183 -0.3440
  142OSM    C1515429   4.502   6.242   2.342 -0.0362  0.0753 -0.4061
  142OSM   H15A15430   4.588   6.293   2.303 -0.1480  0.5321 -0.0758
  142OSM   H15B15431   4.479   6.146   2.300  0.6271  0.4595 -1.7088
  142OSM   H15C15432   4.516   6.223   2.447 -0.5770 -0.3968 -0.4145
  142OSM    C1415433   4.319   6.342   2.209 -0.1124 -0.1158 -0.4095
  142OSM   H14A15434   4.389   6.386   2.140 -0.9424  2.0542  0.0465
  142OSM   H14B15435   4.231   6.404   2.201 -1.0584 -1.1885  1.1594
  142OSM   H14C15436   4.288   6.244   2.175  2.9872 -1.2195 -0.3850
  142OSM    C1315437   4.264   6.279   2.431  0.2158 -0.5233  0.0138
  142OSM   H13A15438   4.204   6.211   2.372 -0.9126  0.3331  0.1273
  142OSM   H13B15439   4.198   6.355   2.472  0.0708 -0.4952 -0.2710
  142OSM   H13C15440   4.293   6.216   2.514 -0.9253 -0.4043  0.5302
  142OSM    C1215441   4.427   6.471   2.396 -0.0130  0.1817  0.0047
  142OSM   H12A15442   4.340   6.534   2.400 -0.6598 -0.7496  1.0784
  142OSM   H12B15443   4.493   6.512   2.321 -1.9379  0.6236 -1.5180
  142OSM    C1115444   4.482   6.465   2.540  0.3069 -0.3504 -0.0531
  142OSM   H11A15445   4.422   6.401   2.608 -1.7593 -2.0138 -3.2032
  142OSM   H11B15446   4.489   6.564   2.590 -1.1579 -1.0850  1.7295
  142OSM      P15447   4.741   6.495   2.518 -0.0778 -0.1064  0.0779
  142OSM    O1315448   4.856   6.404   2.478  0.3037 -0.3966  0.0327
  142OSM    O1415449   4.707   6.596   2.418  1.1083 -0.5009  0.3215
  142OSM    O1115450   4.754   6.552   2.664  0.5136 -0.0607  0.2302
  142OSM    O1215451   4.609   6.414   2.538  0.0101 -0.3602 -0.0273
  142OSM    C1S15452   4.812   6.467   2.769 -0.1871 -0.6881  0.0870
  142OSM    H1S15453   4.922   6.467   2.755  0.2847  1.7817  3.0111
  142OSM    H1T15454   4.773   6.363   2.755  0.9414 -0.8428 -2.4915
  142OSM     NF15455   4.859   6.455   3.018  0.3356  0.0533 -1.0258
  142OSM    HNF15456   4.804   6.412   3.088  0.8768  1.4685  0.3216
  142OSM    C2S15457   4.795   6.531   2.910 -0.2929 -0.9163  0.1934
  142OSM    H2S15458   4.848   6.628   2.915  2.9983 -2.4616 -1.7269
  142OSM    C3S15459   4.643   6.562   2.938 -0.4925  0.3026 -0.0053
  142OSM    H3S15460   4.592   6.464   2.950  0.6623 -0.4419 -0.9754
  142OSM     O315461   4.572   6.631   2.832  0.3792 -0.2019 -0.2986
  142OSM    HO315462   4.632   6.627   2.757  2.3422 -0.3071  1.1917
  142OSM    C4S15463   4.644   6.640   3.061 -0.0214  0.5006 -0.4751
  142OSM    H4S15464   4.653   6.571   3.146 -0.1937  2.9138  1.6284
  142OSM    C5S15465   4.605   6.770   3.086 -1.0627  1.1937  0.9775
  142OSM    H5S15466   4.561   6.824   3.001 -0.1403 -0.9814 -0.9790
  142OSM    C6S15467   4.595   6.825   3.226  0.1289 -0.1984  0.6243
  142OSM    H6S15468   4.489   6.850   3.245 -0.3800 -0.7358 -1.3368
  142OSM    H6T15469   4.644   6.925   3.230 -0.2405 -0.0187  0.6232
  142OSM    C7S15470   4.654   6.743   3.342 -0.6179  1.0252 -0.2372
  142OSM    H7S15471   4.763   6.731   3.324 -0.2523  2.2210  0.9661
  142OSM    H7T15472   4.606   6.643   3.348 -0.4406  0.9933  0.7462
  142OSM    C8S15473   4.636   6.814   3.481  0.3067  0.0221 -0.2487
  142OSM    H8S15474   4.527   6.824   3.502  0.7440  3.3821  0.8813
  142OSM    H8T15475   4.667   6.918   3.462  0.9050 -0.1184 -0.0529
  142OSM    C9S15476   4.719   6.750   3.596  0.1978 -0.6004  0.6963
  142OSM    H9S15477   4.826   6.752   3.566  0.8475  0.3662  2.9192
  142OSM    H9T15478   4.702   6.640   3.598  1.0005 -0.7222  2.1292
  142OSM   C10S15479   4.710   6.819   3.732  0.0133  0.4406  0.4017
  142OSM   H10S15480   4.609   6.797   3.772  0.3443 -0.7398  0.6349
  142OSM   H10T15481   4.714   6.926   3.702 -1.5759  0.9292  1.8050
  142OSM   C11S15482   4.821   6.777   3.837  0.6011 -0.0871  0.0757
  142OSM   H11S15483   4.917   6.782   3.780  1.4347  1.2582  1.5178
  142OSM   H11T15484   4.825   6.671   3.870  1.0526  0.2947  1.3032
  142OSM   C12S15485   4.807   6.873   3.964  0.0971 -0.2043  0.3022
  142OSM   H12S15486   4.804   6.980   3.935 -0.6966  0.1882  1.6948
  142OSM   H12T15487   4.891   6.871   4.036  1.3359  1.0632 -1.0503
  142OSM   C13S15488   4.669   6.853   4.032 -0.3496  0.0126 -0.0616
  142OSM   H13S15489   4.652   6.748   4.066 -4.8028  0.9707  1.2927
  142OSM   H13T15490   4.585   6.877   3.964  1.1279  0.1654 -1.9371
  142OSM   C14S15491   4.643   6.943   4.158  0.1756  0.4112  0.5446
  142OSM   H14S15492   4.557   6.892   4.207 -1.0662 -0.0181 -1.9494
  142OSM   H14T15493   4.605   7.044   4.134 -3.4708 -1.1670 -1.0667
  142OSM   C15S15494   4.755   6.966   4.256  0.4375  0.7103  0.2946
  142OSM   H15S15495   4.835   7.023   4.205 -0.6771 -0.4537 -3.1053
  142OSM   H15T15496   4.804   6.868   4.277 -1.8983 -0.8240 -0.9141
  142OSM   C16S15497   4.719   7.030   4.386 -0.8066  0.5313 -0.4801
  142OSM   H16S15498   4.690   7.134   4.360 -0.7930  0.6741  0.0775
  142OSM   H16T15499   4.820   7.046   4.428 -0.3628 -1.1335 -0.8342
  142OSM   C17S15500   4.615   6.965   4.473 -0.4278 -0.9082 -0.8648
  142OSM   H17S15501   4.630   6.857   4.497  0.7370 -0.4422  0.6651
  142OSM   H17T15502   4.519   6.966   4.417  0.0981  0.8238 -1.8021
  142OSM   C18S15503   4.599   7.047   4.604 -0.0006  1.0329  0.2084
  142OSM   H18S15504   4.601   6.981   4.694  0.2339  0.5016 -0.1840
  142OSM   H18T15505   4.495   7.085   4.607 -0.2869  0.2604  0.3498
  142OSM   H18U15506   4.679   7.122   4.625  2.8464 -1.6500 -0.2413
  142OSM    C1F15507   4.996   6.436   3.007  0.8644 -0.1941 -0.3647
  142OSM     OF15508   5.073   6.494   2.933  0.3036  0.1983  0.2798
  142OSM    C2F15509   5.056   6.340   3.106 -0.1222 -0.3179 -0.6718
  142OSM    H2F15510   5.070   6.240   3.059 -1.8190  0.0540 -2.0417
  142OSM    H2G15511   4.993   6.331   3.197  2.7121  2.0828  1.7482
  142OSM    C3F15512   5.196   6.394   3.166  0.5769  0.2590 -0.3421
  142OSM    H3F15513   5.268   6.416   3.085 -0.7061  1.7792 -1.1218
  142OSM    H3G15514   5.247   6.318   3.229  0.7617 -0.4578 -1.3371
  142OSM    C4F15515   5.177   6.524   3.242 -0.2563 -0.4122 -0.4982
  142OSM    H4F15516   5.155   6.600   3.164 -0.0088 -0.6476 -0.7992
  142OSM    H4G15517   5.276   6.542   3.289  0.2645 -2.5974 -0.6454
  142OSM    C5F15518   5.072   6.536   3.358 -0.0781  0.0707  0.4261
  142OSM    H5F15519   4.972   6.508   3.317 -1.7740  1.6398  3.2157
  142OSM    H5G15520   5.065   6.644   3.384 -1.6350  0.2599 -0.6070
  142OSM    C6F15521   5.102   6.442   3.478 -0.6768 -0.3496  0.2884
  142OSM    H6F15522   5.207   6.444   3.513 -1.5775  0.8827  3.2045
  142OSM    H6G15523   5.087   6.337   3.446 -0.9799  0.2137 -1.5274
  142OSM    C7F15524   5.023   6.463   3.607 -0.0035  0.0350  0.5342
  142OSM    H7F15525   4.912   6.466   3.598 -0.0033  3.7333  0.3693
  142OSM    H7G15526   5.051   6.568   3.626  0.9898 -0.5294  2.4463
  142OSM    C8F15527   5.067   6.390   3.733 -0.2113 -1.1151  0.7949
  142OSM    H8F15528   5.176   6.408   3.730 -0.4093  0.3348  1.3706
  142OSM    H8G15529   5.042   6.286   3.704  1.0398 -0.7966 -1.6844
  142OSM    C9F15530   4.992   6.444   3.853 -0.8954 -0.1266 -0.2153
  142OSM    H9F15531   4.885   6.418   3.857 -1.1699  1.1275  1.4121
  142OSM   C10F15532   5.045   6.505   3.958 -0.3475  0.1716 -0.3633
  142OSM   H10F15533   4.977   6.537   4.038 -0.2994 -0.6693  0.0300
  142OSM   C11F15534   5.186   6.545   3.981 -0.3267  0.4263  0.4944
  142OSM   H11F15535   5.198   6.634   4.047  0.4054  0.5847  0.1586
  142OSM   H11G15536   5.239   6.559   3.884  3.1423 -2.9173  1.6149
  142OSM   C12F15537   5.266   6.428   4.024 -0.9818 -0.1214 -0.4128
  142OSM   H12F15538   5.268   6.344   3.951 -2.6989  2.1948 -3.3345
  142OSM   H12G15539   5.218   6.386   4.116 -1.2735 -0.6870 -0.8158
  142OSM   C13F15540   5.412   6.459   4.063 -0.7226  0.2630  0.0140
  142OSM   H13F15541   5.420   6.547   4.130 -1.8858  1.8235 -1.8011
  142OSM   H13G15542   5.478   6.486   3.977 -1.6721  1.1726 -0.4507
  142OSM   C14F15543   5.483   6.338   4.127 -0.0299  0.1932  0.0245
  142OSM   H14F15544   5.461   6.244   4.072  0.8663  0.8781 -1.5339
  142OSM   H14G15545   5.452   6.331   4.234 -2.8298 -2.7407 -0.8125
  142OSM   C15F15546   5.635   6.344   4.134 -0.1582  0.3119 -0.6101
  142OSM   H15F15547   5.674   6.420   4.205  1.3773 -1.4615  0.5501
  142OSM   H15G15548   5.681   6.362   4.035 -0.4659  1.7768 -0.5080
  142OSM   C16F15549   5.704   6.225   4.202 -0.9465 -0.0791 -0.4179
  142OSM   H16F15550   5.682   6.124   4.160 -1.3149 -0.1072 -0.1652
  142OSM   H16G15551   5.667   6.221   4.306  0.0032 -3.1484 -0.0955
  142OSM   C17F15552   5.856   6.256   4.209  0.1848 -0.0851  0.7406
  142OSM   H17F15553   5.867   6.345   4.276 -0.2238 -1.6014  2.9294
  142OSM   H17G15554   5.900   6.292   4.114 -1.3235 -0.5413 -0.1745
  142OSM   C18F15555   5.943   6.140   4.270  0.4009  0.4178 -0.1989
  142OSM   H18F15556   6.050   6.169   4.268  0.2139  1.2032  0.4930
  142OSM   H18G15557   5.924   6.044   4.218  0.6542  0.4844 -0.4192
  142OSM   H18H15558   5.915   6.134   4.377 -0.7696 -1.3757 -0.5584
  143OSM      N15559   2.404   6.568   2.192 -0.1083  0.0737 -0.2689
  143OSM    C1515560   2.525   6.531   2.107  0.3071  0.3452  0.0628
  143OSM   H15A15561   2.490   6.487   2.014  2.5492  0.0499 -0.7081
  143OSM   H15B15562   2.598   6.473   2.161 -0.0019 -0.7451 -0.6506
  143OSM   H15C15563   2.584   6.617   2.077  1.3195 -0.3116  0.1293
  143OSM    C1415564   2.315   6.664   2.127 -0.6559  0.2970 -0.2615
  143OSM   H14A15565   2.272   6.615   2.041  2.4261  0.4728 -2.0545
  143OSM   H14B15566   2.377   6.748   2.100  1.7541 -1.0311  0.8543
  143OSM   H14C15567   2.239   6.694   2.198  0.0037 -0.8416  0.9863
  143OSM    C1315568   2.339   6.436   2.213  0.1350  0.1912 -0.3071
  143OSM   H13A15569   2.403   6.380   2.279 -1.8755 -2.0026 -0.0991
  143OSM   H13B15570   2.326   6.395   2.115  0.1317 -0.0631 -0.2003
  143OSM   H13C15571   2.247   6.461   2.264  1.1686  0.1503  1.6969
  143OSM    C1215572   2.454   6.628   2.322 -0.6401 -0.2271 -0.2705
  143OSM   H12A15573   2.371   6.667   2.380 -1.5225  1.0870 -2.3121
  143OSM   H12B15574   2.517   6.708   2.287 -1.6756  1.2603  1.1136
  143OSM    C1115575   2.537   6.533   2.411 -0.9408 -0.6559 -0.0275
  143OSM   H11A15576   2.581   6.603   2.486  0.6885 -0.9195 -0.6805
  143OSM   H11B15577   2.624   6.491   2.356 -0.1029  1.4260 -0.4145
  143OSM      P15578   2.384   6.473   2.608 -0.0859 -0.3913  0.1706
  143OSM    O1315579   2.327   6.612   2.586 -0.6770  0.0236  0.1411
  143OSM    O1415580   2.286   6.368   2.650 -0.1650 -0.1348 -0.1254
  143OSM    O1115581   2.506   6.476   2.714 -0.5039 -0.2900  0.5994
  143OSM    O1215582   2.458   6.428   2.477 -0.2363  0.8409  0.2666
  143OSM    C1S15583   2.482   6.513   2.851 -0.2326 -0.6818 -1.0053
  143OSM    H1S15584   2.377   6.511   2.885 -0.1983  2.1867 -0.4928
  143OSM    H1T15585   2.512   6.620   2.857 -2.1645 -0.1489 -0.2515
  143OSM     NF15586   2.570   6.486   3.082 -0.6748 -0.0542  0.3364
  143OSM    HNF15587   2.644   6.550   3.102 -0.3136 -0.8159  1.5420
  143OSM    C2S15588   2.568   6.426   2.948 -0.2779  0.1408 -0.2686
  143OSM    H2S15589   2.519   6.328   2.964 -1.7649  0.9927  0.5988
  143OSM    C3S15590   2.714   6.399   2.892 -0.2843 -0.3146 -0.2896
  143OSM    H3S15591   2.778   6.489   2.887  4.0692 -2.9407  1.9268
  143OSM     O315592   2.715   6.327   2.768  0.1194 -0.5043 -0.1871
  143OSM    HO315593   2.634   6.357   2.726  1.2436 -0.0610 -2.1706
  143OSM    C4S15594   2.790   6.305   2.979 -0.4970  0.0736  0.1376
  143OSM    H4S15595   2.743   6.206   2.983 -1.1615  0.3696 -0.1930
  143OSM    C5S15596   2.895   6.317   3.062  0.4417 -0.2494 -0.7727
  143OSM    H5S15597   2.945   6.414   3.071  1.0392 -0.5243 -1.0439
  143OSM    C6S15598   2.963   6.208   3.150  0.5568 -0.3473  0.2381
  143OSM    H6S15599   3.070   6.218   3.121  0.9544  0.9888  1.9672
  143OSM    H6T15600   2.934   6.104   3.125 -2.0972  0.2537  0.5900
  143OSM    C7S15601   2.977   6.250   3.305  0.8551  0.1753  0.3314
  143OSM    H7S15602   3.024   6.350   3.313 -0.2937  0.7787 -0.1283
  143OSM    H7T15603   3.053   6.180   3.343  2.4936 -0.4275 -3.5868
  143OSM    C8S15604   2.839   6.248   3.376  0.6834  0.5159  0.0796
  143OSM    H8S15605   2.812   6.141   3.372  0.4989  0.5779 -0.4635
  143OSM    H8T15606   2.759   6.306   3.325 -0.1397 -0.3305  0.3927
  143OSM    C9S15607   2.849   6.301   3.514 -0.0393 -0.1143  0.0908
  143OSM    H9S15608   2.843   6.410   3.496  0.7813 -0.0441  0.2081
  143OSM    H9T15609   2.940   6.278   3.575  1.1297 -0.1485 -1.5969
  143OSM   C10S15610   2.734   6.264   3.605 -0.2237  0.3668 -0.1413
  143OSM   H10S15611   2.749   6.159   3.640 -1.4905  0.8786  2.0869
  143OSM   H10T15612   2.631   6.269   3.564 -0.0651  0.2215 -0.5629
  143OSM   C11S15613   2.731   6.346   3.740 -0.3511 -0.3698 -0.4907
  143OSM   H11S15614   2.628   6.338   3.781 -0.7020 -0.1623 -1.3211
  143OSM   H11T15615   2.742   6.454   3.715  0.2588 -0.1523  0.6162
  143OSM   C12S15616   2.831   6.307   3.846  0.2946 -0.4507 -0.2192
  143OSM   H12S15617   2.841   6.394   3.915  0.9660  0.3568 -1.2973
  143OSM   H12T15618   2.928   6.289   3.794  0.0413 -1.5033 -0.3501
  143OSM   C13S15619   2.787   6.192   3.933  0.1525 -0.1144 -0.2870
  143OSM   H13S15620   2.821   6.093   3.898  1.0794 -0.6350  1.9239
  143OSM   H13T15621   2.677   6.191   3.947 -0.0565  1.7161 -1.3973
  143OSM   C14S15622   2.831   6.210   4.082  0.5503 -0.5056  0.3145
  143OSM   H14S15623   2.777   6.291   4.135 -1.1815 -1.2017 -0.3202
  143OSM   H14T15624   2.938   6.236   4.094  0.3942 -0.4763  1.7988
  143OSM   C15S15625   2.803   6.081   4.171 -0.8642 -0.0350  0.4098
  143OSM   H15S15626   2.855   5.991   4.131 -2.9410 -0.6706 -0.9878
  143OSM   H15T15627   2.698   6.051   4.152  0.0871 -2.4082 -1.8179
  143OSM   C16S15628   2.837   6.104   4.317  0.2488 -1.0158 -0.2287
  143OSM   H16S15629   2.764   6.177   4.357  0.8469  2.1905 -4.3605
  143OSM   H16T15630   2.933   6.157   4.331 -0.4275  0.7492 -1.8689
  143OSM   C17S15631   2.827   5.979   4.395 -0.4102  0.0816  0.3003
  143OSM   H17S15632   2.924   5.927   4.383  0.8091  1.8673  1.8591
  143OSM   H17T15633   2.751   5.913   4.347  0.0591 -0.8556  0.8144
  143OSM   C18S15634   2.798   5.980   4.545 -0.4030 -1.0470 -0.2147
  143OSM   H18S15635   2.863   6.050   4.602 -2.3937  0.2764  0.5443
  143OSM   H18T15636   2.813   5.881   4.593  2.2166 -0.6764 -0.0954
  143OSM   H18U15637   2.694   6.014   4.566 -0.1461  0.6067 -1.4104
  143OSM    C1F15638   2.466   6.488   3.152 -0.0963  0.4212  0.7032
  143OSM     OF15639   2.366   6.419   3.121  0.4254  0.3337  0.4592
  143OSM    C2F15640   2.463   6.581   3.268  0.2381  0.3672  0.3970
  143OSM    H2F15641   2.357   6.616   3.270 -0.1882 -0.6658 -1.7819
  143OSM    H2G15642   2.538   6.663   3.267  0.3480  0.3049 -2.1990
  143OSM    C3F15643   2.478   6.491   3.395  0.0164 -0.3322 -0.1276
  143OSM    H3F15644   2.587   6.467   3.395 -0.1924 -1.3299 -0.4384
  143OSM    H3G15645   2.410   6.404   3.390  0.1150 -0.3572 -1.1738
  143OSM    C4F15646   2.458   6.561   3.535 -0.3431 -0.3895 -0.0990
  143OSM    H4F15647   2.487   6.483   3.607  1.6500  0.6801  0.3328
  143OSM    H4G15648   2.351   6.583   3.556 -0.5519  1.1438 -2.3182
  143OSM    C5F15649   2.543   6.687   3.546  0.6089 -0.2015  0.1195
  143OSM    H5F15650   2.512   6.758   3.467  0.2667  0.0399  0.4683
  143OSM    H5G15651   2.653   6.673   3.538  1.3764  4.2727  0.2384
  143OSM    C6F15652   2.526   6.749   3.688  0.4210  0.1371  0.1439
  143OSM    H6F15653   2.418   6.743   3.714  0.5406  0.9426  0.8428
  143OSM    H6G15654   2.559   6.855   3.685 -0.7529  0.5784  1.6831
  143OSM    C7F15655   2.585   6.662   3.798 -0.5932 -0.6941 -0.0457
  143OSM    H7F15656   2.694   6.639   3.794 -0.6667 -1.2289  0.7369
  143OSM    H7G15657   2.546   6.558   3.787  0.9576 -1.1620 -1.4341
  143OSM    C8F15658   2.553   6.721   3.933 -1.0583  0.3415  0.1534
  143OSM    H8F15659   2.445   6.732   3.956 -1.5299  0.3357 -1.8471
  143OSM    H8G15660   2.591   6.826   3.933 -0.3269  0.0856 -0.1707
  143OSM    C9F15661   2.634   6.646   4.042  0.2939  0.3508 -0.5977
  143OSM    H9F15662   2.664   6.543   4.017 -0.6471  0.3182 -1.7212
  143OSM   C10F15663   2.662   6.699   4.158 -0.2869  0.6827 -0.1099
  143OSM   H10F15664   2.694   6.641   4.246 -1.6557  3.4382  2.4059
  143OSM   C11F15665   2.624   6.837   4.192 -0.0401 -1.0454 -0.2380
  143OSM   H11F15666   2.519   6.860   4.163  0.9104 -1.3008 -4.6428
  143OSM   H11G15667   2.680   6.912   4.132 -0.9575  0.8224  1.1618
  143OSM   C12F15668   2.654   6.867   4.340 -0.2014 -0.3297 -0.4402
  143OSM   H12F15669   2.649   6.976   4.360  3.7040 -0.0305 -0.2818
  143OSM   H12G15670   2.758   6.837   4.363  0.1015  1.9469  1.5422
  143OSM   C13F15671   2.574   6.784   4.440  0.0707  0.2302  0.1560
  143OSM   H13F15672   2.577   6.675   4.418 -0.2167  0.7952 -3.1374
  143OSM   H13G15673   2.468   6.814   4.424 -0.3637 -1.1464  0.3263
  143OSM   C14F15674   2.611   6.825   4.581 -0.3433  0.1509 -0.4802
  143OSM   H14F15675   2.574   6.928   4.601  1.2944  0.5590  0.7089
  143OSM   H14G15676   2.722   6.820   4.585 -0.3050  0.3427 -1.1144
  143OSM   C15F15677   2.552   6.729   4.685  0.2939  0.1108  0.7715
  143OSM   H15F15678   2.593   6.626   4.677 -1.1484 -0.4361 -0.0904
  143OSM   H15G15679   2.444   6.706   4.668  0.7605 -1.2483 -0.5987
  143OSM   C16F15680   2.586   6.783   4.825  0.4901 -0.5661  0.0642
  143OSM   H16F15681   2.518   6.868   4.849  2.4925  0.7557  1.4150
  143OSM   H16G15682   2.691   6.820   4.827  0.6205 -0.8590  3.0835
  143OSM   C17F15683   2.562   6.674   4.929 -0.1323 -0.0624 -0.1783
  143OSM   H17F15684   2.640   6.595   4.917  0.1188  0.0928  0.4174
  143OSM   H17G15685   2.460   6.637   4.905 -0.6855 -0.3118  2.3507
  143OSM   C18F15686   2.580   6.721   5.077  0.3162 -0.4361 -0.5516
  143OSM   H18F15687   2.585   6.634   5.146  0.1159  1.5224  2.0917
  143OSM   H18G15688   2.503   6.798   5.098  1.0999 -0.1254  1.3601
  143OSM   H18H15689   2.683   6.763   5.082 -0.5746  1.7509  0.3518
  144OSM      N15690   2.483   5.862   2.148  0.8295  0.8154 -0.4070
  144OSM    C1515691   2.572   5.857   2.025  0.1576 -0.8829  0.0548
  144OSM   H15A15692   2.521   5.875   1.931  0.0221  3.1697  0.7228
  144OSM   H15B15693   2.631   5.767   2.025 -0.2125 -1.1286  0.8393
  144OSM   H15C15694   2.638   5.942   2.033 -0.5423 -0.0625 -2.1811
  144OSM    C1415695   2.576   5.864   2.268  0.9579  0.0428  0.4987
  144OSM   H14A15696   2.630   5.957   2.270  1.0203 -0.0004  1.4013
  144OSM   H14B15697   2.642   5.778   2.274 -1.1019 -1.6784 -0.2607
  144OSM   H14C15698   2.515   5.864   2.357  1.4436  3.3507  0.9528
  144OSM    C1315699   2.407   5.992   2.134  0.4089 -0.5622 -0.1197
  144OSM   H13A15700   2.333   5.971   2.057  1.0245  2.3905 -1.6584
  144OSM   H13B15701   2.465   6.079   2.107  1.2713 -0.7596  1.0056
  144OSM   H13C15702   2.353   6.003   2.227 -2.0671  0.3555 -1.5669
  144OSM    C1215703   2.386   5.740   2.142  0.7039 -0.6675 -0.0476
  144OSM   H12A15704   2.444   5.649   2.146 -1.8172 -2.3266  1.5455
  144OSM   H12B15705   2.345   5.753   2.043  2.7221  1.1993 -0.7159
  144OSM    C1115706   2.275   5.733   2.243  0.2579  0.7416  0.6178
  144OSM   H11A15707   2.210   5.656   2.195  4.2150 -0.4688 -3.5136
  144OSM   H11B15708   2.211   5.823   2.242  0.6774  1.0395 -0.0215
  144OSM      P15709   2.354   5.551   2.404 -0.3481  0.0641  0.3081
  144OSM    O1315710   2.230   5.475   2.397  0.1381 -0.0982  0.9707
  144OSM    O1415711   2.472   5.519   2.320  0.2899 -0.0403  0.2276
  144OSM    O1115712   2.381   5.543   2.555  0.4918 -0.4052 -0.5351
  144OSM    O1215713   2.323   5.701   2.377 -0.1771 -0.0858 -0.3842
  144OSM    C1S15714   2.292   5.619   2.635 -0.7267  0.1513  0.0589
  144OSM    H1S15715   2.184   5.618   2.607 -0.9620 -0.2993  0.9201
  144OSM    H1T15716   2.313   5.728   2.637 -1.5713  0.3617  3.4501
  144OSM     NF15717   2.260   5.703   2.870 -0.4805  0.8684  0.0974
  144OSM    HNF15718   2.333   5.759   2.907 -1.3705  1.7715  0.5396
  144OSM    C2S15719   2.310   5.594   2.789 -0.0705  0.5802  0.1036
  144OSM    H2S15720   2.239   5.510   2.805 -1.5974  1.9288  0.7053
  144OSM    C3S15721   2.464   5.555   2.830 -0.1840  0.5102  0.0062
  144OSM    H3S15722   2.529   5.645   2.820  1.2689 -0.6492 -1.5122
  144OSM     O315723   2.521   5.450   2.751 -0.2637  0.1172 -0.5342
  144OSM    HO315724   2.466   5.464   2.673  0.0341  1.9622 -0.4622
  144OSM    C4S15725   2.469   5.519   2.979  0.3044  0.3014 -0.2878
  144OSM    H4S15726   2.495   5.610   3.035  1.0558  1.1351 -1.9204
  144OSM    C5S15727   2.455   5.390   3.025  0.2858 -0.3887  0.0965
  144OSM    H5S15728   2.438   5.308   2.954  1.1219 -0.8287  0.3812
  144OSM    C6S15729   2.451   5.350   3.172 -0.3788 -0.3118 -0.3824
  144OSM    H6S15730   2.375   5.269   3.173 -0.5212 -0.1824 -0.6619
  144OSM    H6T15731   2.427   5.429   3.245  0.9567  0.2465 -0.5185
  144OSM    C7S15732   2.587   5.290   3.214 -0.6241  0.4466  0.1310
  144OSM    H7S15733   2.671   5.358   3.186  1.4767 -1.7666  0.7155
  144OSM    H7T15734   2.582   5.191   3.165 -4.1339  0.3180  0.5078
  144OSM    C8S15735   2.612   5.268   3.369 -0.3027 -0.1474 -0.2628
  144OSM    H8S15736   2.583   5.367   3.410  0.3259 -0.0028 -0.1489
  144OSM    H8T15737   2.720   5.261   3.397 -0.0731  0.8657 -0.8340
  144OSM    C9S15738   2.538   5.147   3.418 -0.1828  1.3332  0.5637
  144OSM    H9S15739   2.562   5.060   3.353  2.1680  1.4190  1.2396
  144OSM    H9T15740   2.428   5.155   3.406 -0.2142  0.3688  0.0725
  144OSM   C10S15741   2.565   5.108   3.562  0.1424 -0.5366 -0.0065
  144OSM   H10S15742   2.669   5.142   3.578 -0.5921  0.9915  1.9515
  144OSM   H10T15743   2.553   4.998   3.572 -3.4283 -0.2199  0.4928
  144OSM   C11S15744   2.473   5.167   3.665  0.2159  0.0345 -0.9425
  144OSM   H11S15745   2.373   5.122   3.650  1.4499 -3.1520 -0.5392
  144OSM   H11T15746   2.462   5.278   3.662 -1.0775 -0.0977 -1.4796
  144OSM   C12S15747   2.507   5.115   3.811  0.5141  0.3913  0.4020
  144OSM   H12S15748   2.598   5.171   3.841  0.9748 -0.8212  1.3245
  144OSM   H12T15749   2.534   5.008   3.799 -0.4377  0.1977 -0.0635
  144OSM   C13S15750   2.396   5.129   3.912  0.3427  0.2805  0.4292
  144OSM   H13S15751   2.299   5.110   3.861  0.4849  2.1643 -0.6209
  144OSM   H13T15752   2.392   5.227   3.964 -2.2702  0.2409  0.4426
  144OSM   C14S15753   2.412   5.022   4.021  0.9125  0.1464  0.6989
  144OSM   H14S15754   2.414   4.927   3.964 -0.4367  1.8285 -2.4463
  144OSM   H14T15755   2.321   5.031   4.084 -0.7917  3.3331 -1.8980
  144OSM   C15S15756   2.539   5.028   4.113  0.1528 -0.1713  0.4570
  144OSM   H15S15757   2.632   5.006   4.055 -0.6118  3.3902 -2.4630
  144OSM   H15T15758   2.516   4.953   4.192  0.9713 -2.0640 -1.0070
  144OSM   C16S15759   2.569   5.164   4.187  1.0575 -0.2692  0.0792
  144OSM   H16S15760   2.547   5.238   4.107  0.1110 -1.1030 -0.4630
  144OSM   H16T15761   2.679   5.172   4.202  1.1096  0.4060 -0.5859
  144OSM   C17S15762   2.488   5.183   4.317  0.0174  0.6221 -0.0594
  144OSM   H17S15763   2.524   5.110   4.392 -0.1355 -0.4062 -0.9633
  144OSM   H17T15764   2.381   5.161   4.295 -0.2811  2.1404 -0.2355
  144OSM   C18S15765   2.507   5.325   4.374 -0.3952  0.2709 -0.1750
  144OSM   H18S15766   2.458   5.318   4.474  1.7195 -0.6196  0.8771
  144OSM   H18T15767   2.458   5.407   4.317  2.8430  4.1680  2.0573
  144OSM   H18U15768   2.610   5.359   4.401  0.2556 -1.1244 -0.7849
  144OSM    C1F15769   2.135   5.723   2.892 -0.8662 -0.2244  0.4171
  144OSM     OF15770   2.055   5.640   2.855 -0.0464 -0.4917  0.4186
  144OSM    C2F15771   2.089   5.852   2.946 -0.7825  0.0557  1.2990
  144OSM    H2F15772   2.017   5.894   2.873 -1.6870 -1.4260  1.2985
  144OSM    H2G15773   2.179   5.917   2.955 -0.2875 -0.1313 -1.3760
  144OSM    C3F15774   2.015   5.827   3.077  0.1719  0.4379 -0.8203
  144OSM    H3F15775   1.923   5.770   3.052 -0.6332 -0.1213  2.8327
  144OSM    H3G15776   1.991   5.928   3.116  0.6686  0.9415 -1.7836
  144OSM    C4F15777   2.097   5.749   3.179 -0.4503  0.0107 -0.4066
  144OSM    H4F15778   2.200   5.791   3.172  0.4838 -2.3894 -4.0749
  144OSM    H4G15779   2.104   5.642   3.151 -0.6659  0.3909 -2.0253
  144OSM    C5F15780   2.035   5.757   3.316 -0.5517  0.7698  0.0747
  144OSM    H5F15781   2.100   5.706   3.390  2.3887  3.6280 -0.3020
  144OSM    H5G15782   1.941   5.700   3.324  1.3878 -2.6481  0.3733
  144OSM    C6F15783   2.027   5.897   3.372  0.0065 -0.1303  0.1177
  144OSM    H6F15784   1.965   5.964   3.309 -1.0770 -0.6678  0.5911
  144OSM    H6G15785   2.122   5.951   3.388  0.2900 -1.0808  1.8705
  144OSM    C7F15786   1.954   5.881   3.500  0.5080 -0.0146 -0.5176
  144OSM    H7F15787   2.011   5.823   3.575 -0.5918  0.0050  0.3572
  144OSM    H7G15788   1.858   5.827   3.485 -0.3071  0.7946  1.4159
  144OSM    C8F15789   1.898   6.007   3.567 -0.0401 -0.7465  0.3327
  144OSM    H8F15790   1.845   6.060   3.485  0.4137  0.2416  0.6676
  144OSM    H8G15791   1.981   6.079   3.586 -1.7555  1.2611  0.6009
  144OSM    C9F15792   1.809   5.967   3.687 -0.3477 -0.4870 -0.3481
  144OSM    H9F15793   1.706   5.936   3.665 -0.3303 -1.7748  1.1653
  144OSM   C10F15794   1.834   5.986   3.821 -0.5308 -0.0653  0.5246
  144OSM   H10F15795   1.760   5.949   3.893 -1.5162 -1.4852 -1.1463
  144OSM   C11F15796   1.966   6.034   3.875  0.6959  0.3976  0.3397
  144OSM   H11F15797   1.970   6.145   3.867  2.3795  0.5658  2.3667
  144OSM   H11G15798   2.042   5.995   3.805  0.3495 -0.6099  0.5082
  144OSM   C12F15799   1.992   5.992   4.023 -0.6942 -0.2339 -0.7856
  144OSM   H12F15800   2.096   6.016   4.054 -1.2366  0.0340  0.8812
  144OSM   H12G15801   1.989   5.881   4.025  3.0889 -0.5505 -2.6970
  144OSM   C13F15802   1.880   6.039   4.125 -0.3691  0.1787  0.0485
  144OSM   H13F15803   1.800   5.964   4.141 -0.5414  0.0300 -1.3390
  144OSM   H13G15804   1.816   6.120   4.083  0.8072  2.2598  2.0644
  144OSM   C14F15805   1.934   6.076   4.265 -0.2036 -0.4482  0.6969
  144OSM   H14F15806   1.861   6.135   4.326 -0.2333 -2.1947  2.4788
  144OSM   H14G15807   2.022   6.142   4.249 -0.3706 -0.0271  1.4719
  144OSM   C15F15808   1.963   5.948   4.354 -0.0198 -0.3599 -0.5029
  144OSM   H15F15809   2.023   5.870   4.302  1.9250  1.6955 -1.5126
  144OSM   H15G15810   1.868   5.894   4.376  1.9494 -3.1834  2.0238
  144OSM   C16F15811   2.034   5.987   4.484 -0.0633 -0.6887 -0.0534
  144OSM   H16F15812   1.962   6.042   4.548 -1.6559  1.2340 -3.2456
  144OSM   H16G15813   2.114   6.062   4.464  0.6738 -1.3654  0.3470
  144OSM   C17F15814   2.107   5.870   4.542 -0.1719  0.0740 -0.4918
  144OSM   H17F15815   2.163   5.833   4.453  0.0725 -2.4900  0.6206
  144OSM   H17G15816   2.037   5.793   4.581  2.1361 -0.8225  2.2513
  144OSM   C18F15817   2.207   5.914   4.653  0.2570 -0.0615 -0.2400
  144OSM   H18F15818   2.141   5.965   4.726  1.4130  2.7964 -1.0442
  144OSM   H18G15819   2.286   5.985   4.621  0.1244  0.0132 -0.4075
  144OSM   H18H15820   2.260   5.824   4.691  0.7825  0.2566 -0.2103
  145SAPE     N15821   5.157   3.980   7.214 -0.0140  0.0690  0.0798
  145SAPE   HN115822   5.055   3.962   7.223 -0.1732  0.4123 -0.8873
  145SAPE   HN215823   5.191   3.934   7.126 -0.4590  1.1890 -0.6983
  145SAPE   HN315824   5.195   3.918   7.289 -1.8408 -3.2575 -1.5413
  145SAPE   C1215825   5.194   4.124   7.214 -0.8823 -0.4314 -0.9959
  145SAPE  H12A15826   5.126   4.171   7.289  0.3779 -0.7624  0.4010
  145SAPE  H12B15827   5.181   4.155   7.108 -0.6260  1.9250 -0.3996
  145SAPE   C1115828   5.342   4.149   7.264  0.2453  0.5190  0.1835
  145SAPE  H11A15829   5.415   4.081   7.215 -0.1241 -0.5447  1.0686
  145SAPE  H11B15830   5.356   4.117   7.369  1.0088 -0.4446 -0.1972
  145SAPE     P15831   5.424   4.344   7.109 -0.2728  0.4086 -0.2429
  145SAPE   O1315832   5.317   4.426   7.043 -0.3667  0.5923 -0.5464
  145SAPE   O1415833   5.553   4.409   7.143 -0.4560 -0.6651 -0.2762
  145SAPE   O1215834   5.373   4.286   7.246  0.2156  0.3431  0.8880
  145SAPE   O1115835   5.441   4.214   7.018  0.3962  0.1820 -0.4454
  145SAPE    C115836   5.557   4.200   6.929  1.0359  0.0779 -0.7018
  145SAPE    HA15837   5.654   4.197   6.984  0.6637  0.3056 -0.0322
  145SAPE    HB15838   5.547   4.097   6.889  3.2596 -0.6387  0.4234
  145SAPE    C215839   5.573   4.299   6.809  0.4238  0.1571 -0.3165
  145SAPE    HS15840   5.587   4.407   6.833  1.6853  0.2517 -1.3174
  145SAPE   O2115841   5.451   4.282   6.741 -0.1928  0.1738  0.5107
  145SAPE   C2115842   5.370   4.383   6.718 -0.4264  0.7194  0.4742
  145SAPE   O2215843   5.385   4.499   6.749 -0.4893 -0.1622 -0.5957
  145SAPE   C2215844   5.234   4.336   6.659 -0.7743  0.1475 -0.5196
  145SAPE   H2R15845   5.255   4.238   6.610  0.7246  1.1536 -1.9961
  145SAPE   H2S15846   5.172   4.319   6.750 -0.3873 -0.2605 -0.3262
  145SAPE    C315847   5.695   4.256   6.726  0.6254  0.0902 -0.8097
  145SAPE    HX15848   5.689   4.145   6.724  1.9025 -0.0292  0.4298
  145SAPE    HY15849   5.785   4.295   6.779 -0.8446  0.8513  1.2576
  145SAPE   O3115850   5.693   4.292   6.590  0.6819 -0.2545  0.0306
  145SAPE   C3115851   5.750   4.407   6.563 -0.0962 -0.1609 -0.0620
  145SAPE   O3215852   5.784   4.492   6.643 -0.0245  0.2250  0.0129
  145SAPE   C3215853   5.758   4.417   6.416 -0.2373 -0.3237 -0.0324
  145SAPE   H2X15854   5.766   4.319   6.364 -1.1142 -1.3524  1.6764
  145SAPE   H2Y15855   5.847   4.481   6.396 -0.8619  0.3120 -0.8029
  145SAPE   C2315856   5.181   4.427   6.555 -0.1256  0.0259 -0.5310
  145SAPE   H3R15857   5.247   4.422   6.466  0.6814 -0.5216  0.0878
  145SAPE   H3S15858   5.186   4.531   6.595  0.8045 -0.6132  1.0612
  145SAPE   C2415859   5.032   4.397   6.520 -0.4217 -0.0415  0.3222
  145SAPE   H4R15860   4.976   4.354   6.606 -0.8956  1.5770  0.8562
  145SAPE   H4S15861   5.045   4.327   6.435  1.7425  0.8648 -0.1442
  145SAPE   C2515862   4.957   4.514   6.468 -0.1039  0.1167  0.1113
  145SAPE   H5R15863   4.917   4.579   6.547  0.1309 -3.1544  3.1877
  145SAPE   C2615864   4.926   4.535   6.340 -0.7395 -0.3080  0.0578
  145SAPE   H6R15865   4.875   4.630   6.318 -1.2983 -0.9057 -1.3830
  145SAPE   C2715866   4.974   4.457   6.218  0.3439  0.0087 -0.8773
  145SAPE   H7R15867   5.085   4.443   6.221  0.5691  1.4557 -1.4842
  145SAPE   H7S15868   4.968   4.519   6.125 -1.0129  1.7556  0.3036
  145SAPE   C2815869   4.906   4.328   6.193 -0.0779 -0.1983  0.1205
  145SAPE   H8R15870   4.866   4.284   6.286 -2.0595  0.4733 -0.3735
  145SAPE   C2915871   4.875   4.260   6.077  0.0170 -0.7104  0.1922
  145SAPE   H9R15872   4.805   4.175   6.079  1.2204 -1.9818 -3.4242
  145SAPE  C21015873   4.914   4.315   5.935  0.2796  0.0615  1.1455
  145SAPE  H10R15874   4.970   4.411   5.936  0.4568  0.0912 -2.1552
  145SAPE  H10S15875   4.822   4.335   5.876  0.5344  1.8923  1.3279
  145SAPE  C21115876   5.002   4.220   5.860 -0.2291  0.1977  0.3429
  145SAPE  H11R15877   5.076   4.165   5.921 -1.8364 -2.5200  0.0063
  145SAPE  C21215878   4.994   4.196   5.727 -0.0742 -0.2990  0.9591
  145SAPE  H12R15879   5.067   4.128   5.681 -0.4099 -0.5162  0.7437
  145SAPE  C21315880   4.894   4.272   5.633 -0.1589  0.2691 -0.1344
  145SAPE  H13R15881   4.940   4.289   5.533 -2.1266 -0.5672 -1.2512
  145SAPE  H13S15882   4.884   4.379   5.659 -1.2329 -0.0669  0.9333
  145SAPE  C21415883   4.756   4.216   5.614 -0.2927  0.0648  0.3069
  145SAPE  H14R15884   4.709   4.178   5.707 -0.1691 -1.4916 -0.2266
  145SAPE  C21515885   4.696   4.216   5.495 -0.5407  0.5513 -0.1337
  145SAPE  H15R15886   4.595   4.172   5.494  0.4663 -1.9344  1.1220
  145SAPE  C21615887   4.733   4.272   5.355 -0.4732 -0.2673  0.1392
  145SAPE  H16R15888   4.791   4.366   5.369 -1.8742  0.5407  0.6811
  145SAPE  H16S15889   4.643   4.304   5.299 -0.8016  2.0069  1.8306
  145SAPE  C21715890   4.811   4.165   5.273  0.1331  0.3397 -0.8093
  145SAPE  H17R15891   4.902   4.130   5.326  0.0011  0.2920 -0.6149
  145SAPE  H17S15892   4.853   4.218   5.184  0.3666  1.5233 -0.0192
  145SAPE  C21815893   4.723   4.043   5.227 -0.7252  0.0905 -0.3988
  145SAPE  H18R15894   4.650   4.091   5.159 -1.3605  0.0119  0.2147
  145SAPE  H18S15895   4.673   3.997   5.315 -3.0455 -1.4712 -2.4066
  145SAPE  C21915896   4.810   3.932   5.152 -0.3978 -0.0007  1.0644
  145SAPE  H19R15897   4.726   3.864   5.127 -0.4864  0.6949 -0.6713
  145SAPE  H19S15898   4.895   3.889   5.208  1.0523  0.0187 -0.9951
  145SAPE  C22015899   4.890   3.992   5.035 -0.1833  0.7061 -0.4538
  145SAPE  H20R15900   4.831   4.043   4.956 -1.6332  0.6580  0.5447
  145SAPE  H20S15901   4.942   3.911   4.980  1.1911  2.7791 -2.3440
  145SAPE  H20T15902   4.970   4.061   5.069  0.2603  0.4579 -0.9798
  145SAPE   C3315903   5.641   4.507   6.355 -0.1575 -0.2689  0.7400
  145SAPE   H3X15904   5.682   4.545   6.259  0.2321 -2.1820  0.0922
  145SAPE   H3Y15905   5.626   4.592   6.424  1.1833 -1.1519  2.1845
  145SAPE   C3415906   5.513   4.432   6.327  0.3338  0.5390 -0.4553
  145SAPE   H4X15907   5.455   4.397   6.415  0.9970 -1.1170 -0.6270
  145SAPE   H4Y15908   5.546   4.334   6.285  1.0311  0.0510  1.1579
  145SAPE   C3515909   5.413   4.502   6.234 -0.7505  1.1853 -0.2425
  145SAPE   H5X15910   5.389   4.604   6.272 -1.6170  1.5527 -1.6987
  145SAPE   H5Y15911   5.317   4.446   6.235 -0.9244  1.2459 -3.2276
  145SAPE   C3615912   5.453   4.499   6.087 -0.3554 -0.9148  0.4022
  145SAPE   H6X15913   5.469   4.392   6.059 -0.2392 -1.1694  1.4150
  145SAPE   H6Y15914   5.546   4.559   6.087 -1.5871  1.1106 -0.8930
  145SAPE   C3715915   5.357   4.560   5.978 -0.2273 -0.2932 -0.1008
  145SAPE   H7X15916   5.361   4.666   6.011  1.4042 -0.9915  2.2277
  145SAPE   H7Y15917   5.257   4.517   5.997 -0.0426  0.2434  2.4340
  145SAPE   C3815918   5.396   4.543   5.831 -0.3837  0.1772 -1.2852
  145SAPE   H8X15919   5.498   4.581   5.808  1.5753 -3.3488  0.7025
  145SAPE   H8Y15920   5.327   4.596   5.762 -2.8571 -0.8527  0.2448
  145SAPE   C3915921   5.376   4.394   5.783  0.5626 -0.7494  0.4644
  145SAPE   H9X15922   5.310   4.342   5.855 -1.5946 -0.2410 -1.0315
  145SAPE   H9Y15923   5.470   4.339   5.804  1.4571  0.4208 -0.3435
  145SAPE  C31015924   5.325   4.374   5.639 -0.0570 -0.3029  0.1785
  145SAPE  H10X15925   5.389   4.436   5.574  0.5985 -1.5861 -0.4395
  145SAPE  H10Y15926   5.227   4.423   5.618  0.5110  1.2997  1.0855
  145SAPE  C31115927   5.336   4.228   5.600  0.4462  0.1419  0.5472
  145SAPE  H11X15928   5.264   4.164   5.656 -1.0792  0.2489 -1.2041
  145SAPE  H11Y15929   5.438   4.189   5.622  0.2877 -0.6193 -0.0288
  145SAPE  C31215930   5.303   4.215   5.450 -0.3304 -0.8455 -0.2731
  145SAPE  H12X15931   5.367   4.281   5.388 -1.6379 -0.1618 -0.9568
  145SAPE  H12Y15932   5.199   4.251   5.436  0.0055  1.7269  2.7463
  145SAPE  C31315933   5.318   4.072   5.402 -0.5480  0.1945 -0.2376
  145SAPE  H13X15934   5.252   4.010   5.467 -2.5244  1.6119 -0.8216
  145SAPE  H13Y15935   5.422   4.038   5.423 -0.1330  1.0128 -0.9067
  145SAPE  C31415936   5.294   4.069   5.257 -1.3847  0.7011  0.4135
  145SAPE  H14X15937   5.368   4.127   5.198 -2.2689 -0.3845 -1.8591
  145SAPE  H14Y15938   5.195   4.114   5.233 -0.6366  1.4457 -1.5467
  145SAPE  C31515939   5.310   3.926   5.209  0.2831  0.1740 -0.6844
  145SAPE  H15X15940   5.237   3.874   5.274 -0.9047  1.3650 -1.0250
  145SAPE  H15Y15941   5.412   3.883   5.215 -1.1053 -3.4471 -0.5849
  145SAPE  C31615942   5.256   3.920   5.069  0.4166  0.2312 -0.6516
  145SAPE  H16X15943   5.317   3.978   4.996  0.3446 -0.5863 -1.3806
  145SAPE  H16Y15944   5.158   3.972   5.062  0.1501  0.2343  1.9430
  145SAPE  C31715945   5.255   3.776   5.014  0.0513  0.3306 -0.1774
  145SAPE  H17X15946   5.152   3.744   4.985  0.7605 -0.2181 -2.2879
  145SAPE  H17Y15947   5.293   3.697   5.083  0.5012  1.5265  0.9806
  145SAPE  C31815948   5.330   3.762   4.883 -0.6578  0.4779  0.0763
  145SAPE  H18X15949   5.287   3.842   4.819 -1.1889  1.6915  1.9045
  145SAPE  H18Y15950   5.315   3.666   4.829 -0.6197  1.3779 -1.6115
  145SAPE  H18Z15951   5.440   3.770   4.886 -0.5417 -0.7674 -0.0905
  146SAPE     N15952   0.816   4.056   6.878  0.4114  0.7277  0.4239
  146SAPE   HN115953   0.714   4.067   6.860 -0.0993 -3.3717  0.0738
  146SAPE   HN215954   0.870   4.144   6.861  0.1039  1.0528  1.0925
  146SAPE   HN315955   0.849   4.002   6.795 -0.6165  0.0925  0.4076
  146SAPE   C1215956   0.840   3.995   7.005  0.2059  0.4220 -0.6624
  146SAPE  H12A15957   0.796   3.894   7.019  0.2158  0.5239  0.1723
  146SAPE  H12B15958   0.815   4.065   7.088  0.1734 -0.8296  0.4365
  146SAPE   C1115959   0.994   3.973   7.037 -0.3315 -0.3348  0.6785
  146SAPE  H11A15960   1.024   3.915   6.947  0.0417 -2.2988  2.0034
  146SAPE  H11B15961   0.984   3.910   7.128 -2.4709  0.5745  1.1264
  146SAPE     P15962   1.204   4.111   7.072 -0.3439 -0.0194 -0.2201
  146SAPE   O1315963   1.244   4.205   6.967  0.0445 -0.2251  0.1722
  146SAPE   O1415964   1.224   4.151   7.212 -0.4227  0.2518 -0.3846
  146SAPE   O1215965   1.050   4.098   7.056 -0.4069  0.0114 -0.3122
  146SAPE   O1115966   1.260   3.960   7.052 -0.0564 -0.4129 -0.0445
  146SAPE    C115967   1.374   3.920   6.982 -0.4696  0.0703 -0.2176
  146SAPE    HA15968   1.438   4.006   6.955  0.3490 -0.2321  0.6917
  146SAPE    HB15969   1.442   3.860   7.047 -2.5100 -0.1185  1.8655
  146SAPE    C215970   1.330   3.843   6.854  0.0517 -0.1020 -0.1283
  146SAPE    HS15971   1.425   3.810   6.808 -0.5296 -0.7113 -0.9235
  146SAPE   O2115972   1.260   3.939   6.770 -0.5075 -0.1253  0.2021
  146SAPE   C2115973   1.306   3.954   6.648  0.1394  0.0876 -0.3596
  146SAPE   O2215974   1.385   3.878   6.599  0.1602 -0.0820  0.2803
  146SAPE   C2215975   1.238   4.070   6.575 -0.3471  0.2951  0.5056
  146SAPE   H2R15976   1.127   4.060   6.583 -0.2145 -2.7365 -0.1788
  146SAPE   H2S15977   1.268   4.163   6.628 -1.0388 -0.0466  1.5290
  146SAPE    C315978   1.231   3.726   6.899  0.0432 -0.0419 -1.1977
  146SAPE    HX15979   1.133   3.759   6.941  0.9314 -0.3219  1.2323
  146SAPE    HY15980   1.274   3.690   6.995  1.1130 -0.4036 -1.8066
  146SAPE   O3115981   1.232   3.600   6.830 -0.1116 -0.3525 -0.8507
  146SAPE   C3115982   1.153   3.599   6.724  0.1160 -1.1004 -0.0290
  146SAPE   O3215983   1.120   3.699   6.664  0.5489  0.4489  0.8426
  146SAPE   C3215984   1.130   3.454   6.680 -0.2412 -0.2773  0.7892
  146SAPE   H2X15985   1.050   3.420   6.748 -2.5424  2.2828 -0.4292
  146SAPE   H2Y15986   1.225   3.397   6.683 -1.2430 -2.1737 -1.0788
  146SAPE   C2315987   1.251   4.071   6.426  0.5336 -0.4356 -0.5847
  146SAPE   H3R15988   1.179   4.138   6.375  0.4331  0.7124  0.9829
  146SAPE   H3S15989   1.235   3.968   6.388 -1.6148  0.2464 -1.7126
  146SAPE   C2415990   1.388   4.131   6.380  0.1923 -0.2120  0.4008
  146SAPE   H4R15991   1.387   4.098   6.274 -2.2238  0.7890  0.0457
  146SAPE   H4S15992   1.476   4.078   6.424  0.5758  0.0671 -0.0228
  146SAPE   C2515993   1.402   4.274   6.422 -0.2056 -0.2127  0.9562
  146SAPE   H5R15994   1.437   4.286   6.526  2.6812  0.1083  0.0347
  146SAPE   C2615995   1.366   4.381   6.351 -0.0114  0.2706  0.0025
  146SAPE   H6R15996   1.374   4.481   6.396 -0.8721  0.8151 -0.9997
  146SAPE   C2715997   1.304   4.381   6.214  0.3715  0.4121 -0.4928
  146SAPE   H7R15998   1.199   4.354   6.239  0.8681 -0.6333  0.5600
  146SAPE   H7S15999   1.339   4.304   6.143 -2.9892  1.1501 -3.2372
  146SAPE   C2816000   1.323   4.518   6.150  0.8582 -0.3450  0.5026
  146SAPE   H8R16001   1.421   4.542   6.106 -0.5061  0.1290 -2.5204
  146SAPE   C2916002   1.236   4.630   6.148 -0.1799  0.1557  0.6965
  146SAPE   H9R16003   1.268   4.707   6.075 -0.8297 -1.9815 -2.0343
  146SAPE  C21016004   1.097   4.625   6.214 -0.3371 -0.4080  0.0903
  146SAPE  H10R16005   1.109   4.703   6.292 -3.1841 -0.8411  1.0629
  146SAPE  H10S16006   1.079   4.533   6.274 -0.0906  1.0867  2.5638
  146SAPE  C21116007   0.985   4.661   6.114  0.1292  0.3732 -0.2803
  146SAPE  H11R16008   0.956   4.767   6.127  2.7051  1.2907 -1.3548
  146SAPE  C21216009   0.915   4.588   6.030  0.1974  0.2243  0.3517
  146SAPE  H12R16010   0.842   4.630   5.959 -0.1442 -1.6829 -0.4684
  146SAPE  C21316011   0.927   4.443   6.014 -0.2239  0.0051 -0.2448
  146SAPE  H13R16012   0.850   4.391   6.076  1.8141 -1.4353  1.1951
  146SAPE  H13S16013   1.027   4.410   6.048 -0.0195 -0.2110 -1.0244
  146SAPE  C21416014   0.915   4.389   5.865  0.7274 -0.4228 -0.2890
  146SAPE  H14R16015   0.818   4.342   5.843  0.3861 -0.0208  0.3237
  146SAPE  C21516016   1.001   4.407   5.771 -0.7262  0.7417  0.6281
  146SAPE  H15R16017   0.970   4.377   5.670  0.1244  0.5938  0.4019
  146SAPE  C21616018   1.143   4.473   5.776  0.3928  0.4212  0.0260
  146SAPE  H16R16019   1.159   4.524   5.874 -0.2695  0.5547  0.0678
  146SAPE  H16S16020   1.143   4.552   5.698 -0.9144  0.5222  0.0957
  146SAPE  C21716021   1.250   4.369   5.751 -0.0954  0.3533  0.6193
  146SAPE  H17R16022   1.242   4.317   5.654  0.8350  0.6918  0.3545
  146SAPE  H17S16023   1.231   4.286   5.822  0.0055  0.2423  0.5160
  146SAPE  C21816024   1.395   4.428   5.767 -0.2029 -0.2348 -0.1734
  146SAPE  H18R16025   1.402   4.491   5.858 -2.0623 -0.7930  0.3920
  146SAPE  H18S16026   1.420   4.493   5.681  2.4464 -1.1902 -0.2163
  146SAPE  C21916027   1.511   4.319   5.774  0.3220  0.0322  0.4458
  146SAPE  H19R16028   1.492   4.252   5.687 -0.7506  1.2770 -0.3163
  146SAPE  H19S16029   1.505   4.262   5.869  0.0797 -0.5028  0.1102
  146SAPE  C22016030   1.651   4.396   5.776 -0.2280 -0.1788  0.3066
  146SAPE  H20R16031   1.658   4.465   5.690 -1.5646  0.0544  0.3585
  146SAPE  H20S16032   1.735   4.324   5.777  0.4086  0.5362 -0.3704
  146SAPE  H20T16033   1.656   4.462   5.865 -1.3775  1.8158 -1.0207
  146SAPE   C3316034   1.062   3.447   6.547  0.0413  0.8017 -0.2375
  146SAPE   H3X16035   0.976   3.516   6.535 -0.9562 -0.7445 -2.5675
  146SAPE   H3Y16036   1.025   3.343   6.535 -0.0798  0.9444 -1.1545
  146SAPE   C3416037   1.158   3.456   6.425  0.3000  0.1367 -0.4328
  146SAPE   H4X16038   1.249   3.396   6.448 -0.8956 -1.2233  1.0282
  146SAPE   H4Y16039   1.192   3.560   6.405 -0.1725  0.4130  0.1984
  146SAPE   C3516040   1.101   3.404   6.289  0.1457 -0.5015  0.2237
  146SAPE   H5X16041   1.166   3.440   6.206 -0.1429  1.0646  0.6466
  146SAPE   H5Y16042   1.004   3.454   6.269 -0.2860 -0.5729  2.0489
  146SAPE   C3616043   1.100   3.253   6.281 -0.5346  0.3006  0.1426
  146SAPE   H6X16044   1.017   3.209   6.342  0.3004 -1.7382 -0.1257
  146SAPE   H6Y16045   1.193   3.218   6.330  0.4763  3.4973  0.7672
  146SAPE   C3716046   1.088   3.192   6.139 -0.7257 -0.4947  0.1499
  146SAPE   H7X16047   0.993   3.220   6.089 -2.0686 -1.2931  2.1522
  146SAPE   H7Y16048   1.093   3.082   6.156  1.2435 -0.6208 -0.9364
  146SAPE   C3816049   1.203   3.221   6.042 -0.6180  0.5171 -0.0290
  146SAPE   H8X16050   1.306   3.204   6.079 -1.5498 -1.1723  2.0202
  146SAPE   H8Y16051   1.187   3.329   6.021 -1.1889  0.4809  0.1899
  146SAPE   C3916052   1.180   3.149   5.905 -0.0636 -0.4843 -0.1304
  146SAPE   H9X16053   1.084   3.189   5.867 -0.0268 -0.4951 -0.2343
  146SAPE   H9Y16054   1.180   3.039   5.919  1.7497 -0.2895  2.0796
  146SAPE  C31016055   1.285   3.190   5.803  0.2576 -0.4617  0.0322
  146SAPE  H10X16056   1.377   3.141   5.842 -0.2996 -2.1536 -0.6475
  146SAPE  H10Y16057   1.296   3.300   5.805  1.3149 -0.5746  0.7033
  146SAPE  C31116058   1.266   3.135   5.662  0.2093 -0.3175 -0.3568
  146SAPE  H11X16059   1.164   3.160   5.623  0.9450  0.1493 -2.0695
  146SAPE  H11Y16060   1.286   3.025   5.657  2.1176  0.0489 -1.8521
  146SAPE  C31216061   1.360   3.204   5.565 -0.4388 -0.5309  0.7836
  146SAPE  H12X16062   1.467   3.180   5.582  0.3367  1.6771 -0.4995
  146SAPE  H12Y16063   1.337   3.313   5.562 -3.0106 -1.0188  0.1714
  146SAPE  C31316064   1.342   3.157   5.419  0.2067  0.4227 -0.1232
  146SAPE  H13X16065   1.247   3.191   5.373 -0.0825  2.0723  1.5844
  146SAPE  H13Y16066   1.342   3.046   5.419  2.4225  0.3589  0.3817
  146SAPE  C31416067   1.467   3.190   5.334  0.4450 -0.1054  0.4137
  146SAPE  H14X16068   1.564   3.171   5.385  1.4478 -1.3420 -1.8553
  146SAPE  H14Y16069   1.460   3.296   5.300 -1.3682 -0.2788  0.1438
  146SAPE  C31516070   1.471   3.111   5.207 -0.4270 -0.1279  0.6427
  146SAPE  H15X16071   1.376   3.131   5.152 -0.2031  1.1186  0.6793
  146SAPE  H15Y16072   1.486   3.003   5.229  1.0922 -0.1933 -0.5010
  146SAPE  C31616073   1.579   3.131   5.098  0.1694  0.7901  0.3462
  146SAPE  H16X16074   1.566   3.061   5.013  0.4937  1.6213 -0.4036
  146SAPE  H16Y16075   1.681   3.118   5.139  1.1491 -1.1385 -2.4103
  146SAPE  C31716076   1.567   3.269   5.034 -0.2383  0.7415  0.6331
  146SAPE  H17X16077   1.590   3.334   5.122 -1.6484  2.5162 -0.2523
  146SAPE  H17Y16078   1.464   3.293   5.001 -0.6817 -0.4393  1.0826
  146SAPE  C31816079   1.669   3.311   4.932 -0.5005 -0.4412  0.2111
  146SAPE  H18X16080   1.681   3.246   4.843  0.1905 -0.6957  0.4838
  146SAPE  H18Y16081   1.773   3.323   4.970  0.0547  1.7737 -1.7508
  146SAPE  H18Z16082   1.653   3.416   4.898  1.0321  0.1886  1.2961
  147SAPE     N16083   3.279   1.964   7.186  0.0391  0.2017  0.6588
  147SAPE   HN116084   3.359   2.030   7.175 -0.7680  0.9951 -0.8037
  147SAPE   HN216085   3.186   2.006   7.166 -0.5814  0.0306  2.8929
  147SAPE   HN316086   3.278   1.931   7.285  1.6642  2.4371  1.4953
  147SAPE   C1216087   3.293   1.841   7.103  0.0838 -0.1624 -0.2691
  147SAPE  H12A16088   3.396   1.802   7.115  0.0616 -0.3830 -0.7924
  147SAPE  H12B16089   3.276   1.879   7.000 -2.6661 -0.3194  0.0395
  147SAPE   C1116090   3.183   1.734   7.131  0.2226 -0.1291  0.2378
  147SAPE  H11A16091   3.194   1.655   7.054 -0.8848 -1.7794  1.6870
  147SAPE  H11B16092   3.077   1.765   7.116 -0.2070 -2.2693 -1.8161
  147SAPE     P16093   3.089   1.570   7.306 -0.1834 -0.2530 -0.0278
  147SAPE   O1316094   3.115   1.540   7.453 -0.6479  0.3299  0.1337
  147SAPE   O1416095   2.959   1.631   7.269  0.6692  0.1344  0.5014
  147SAPE   O1216096   3.193   1.676   7.261 -0.2479  0.2315 -0.5861
  147SAPE   O1116097   3.131   1.450   7.210 -0.0168 -1.0461 -0.3919
  147SAPE    C116098   3.018   1.387   7.148  0.2810 -0.0301  0.4338
  147SAPE    HA16099   2.962   1.322   7.218 -1.0340  1.9182  1.2819
  147SAPE    HB16100   2.964   1.465   7.090  1.2570  0.0146 -0.4529
  147SAPE    C216101   3.066   1.284   7.037  0.7600 -0.1001 -0.3280
  147SAPE    HS16102   3.141   1.220   7.088  0.1587  0.5338  1.4406
  147SAPE   O2116103   3.126   1.359   6.925  0.2047  0.0128  0.6053
  147SAPE   C2116104   3.225   1.306   6.855  0.1726  0.3446 -0.6173
  147SAPE   O2216105   3.278   1.196   6.876 -0.0896  0.5409 -0.1797
  147SAPE   C2216106   3.263   1.403   6.754  0.2932  0.2735  0.2968
  147SAPE   H2R16107   3.244   1.508   6.783  0.9527  0.5210 -0.1241
  147SAPE   H2S16108   3.373   1.389   6.748  0.2130 -1.7477  2.3683
  147SAPE    C316109   2.947   1.191   6.998  0.8391  1.7708 -0.2620
  147SAPE    HX16110   2.861   1.250   6.959 -0.5507 -0.8814 -1.4365
  147SAPE    HY16111   2.912   1.136   7.088 -1.8808  1.5893 -1.3366
  147SAPE   O3116112   2.997   1.107   6.889  0.8004  0.3599  0.2712
  147SAPE   C3116113   3.024   0.977   6.918  0.8167 -0.2946  0.5704
  147SAPE   O3216114   3.028   0.931   7.028 -0.6286  0.2648 -0.4288
  147SAPE   C3216115   3.066   0.903   6.792  0.0041 -0.4406 -0.2253
  147SAPE   H2X16116   3.146   0.958   6.738 -0.1870 -1.6451 -1.7922
  147SAPE   H2Y16117   2.975   0.902   6.728  0.3385  0.6345 -0.7556
  147SAPE   C2316118   3.188   1.359   6.622  0.2755 -0.6214 -0.5249
  147SAPE   H3R16119   3.194   1.251   6.598  0.8818 -1.2431  2.0719
  147SAPE   H3S16120   3.237   1.409   6.536 -0.5335 -1.1511 -1.3160
  147SAPE   C2416121   3.043   1.418   6.634  0.1930  0.3626  0.5077
  147SAPE   H4R16122   3.045   1.525   6.665  0.3013 -0.0095  1.8541
  147SAPE   H4S16123   2.988   1.377   6.722 -0.3638  0.4538  0.2064
  147SAPE   C2516124   2.964   1.412   6.509  0.1044 -0.0673 -0.0868
  147SAPE   H5R16125   2.927   1.498   6.452  0.1952 -0.6831 -1.1149
  147SAPE   C2616126   2.929   1.290   6.443  0.1709 -0.4543 -0.4784
  147SAPE   H6R16127   2.874   1.297   6.348 -3.2447  0.7580  1.4020
  147SAPE   C2716128   2.971   1.149   6.481 -0.1871  0.5791  0.2642
  147SAPE   H7R16129   2.985   1.143   6.591  0.4762  2.9342  0.3580
  147SAPE   H7S16130   3.073   1.124   6.445 -0.1544 -1.0631  1.4114
  147SAPE   C2816131   2.884   1.043   6.427  0.3549  0.1062  0.1618
  147SAPE   H8R16132   2.798   1.022   6.493 -1.6629  1.6760 -1.7855
  147SAPE   C2916133   2.900   0.978   6.310  0.5925  0.6730 -0.1144
  147SAPE   H9R16134   2.826   0.908   6.270  0.9213 -0.6956  1.5743
  147SAPE  C21016135   3.014   1.005   6.219  0.4347 -0.0941 -0.0477
  147SAPE  H10R16136   3.038   1.113   6.232 -2.9737  0.9469 -1.2695
  147SAPE  H10S16137   2.978   0.988   6.115 -1.7710 -0.6172  0.7366
  147SAPE  C21116138   3.137   0.921   6.254  0.0126 -0.5202  0.1790
  147SAPE  H11R16139   3.142   0.882   6.356 -0.9606 -4.2128 -1.0498
  147SAPE  C21216140   3.238   0.883   6.176 -0.0491  0.8604  0.2978
  147SAPE  H12R16141   3.327   0.831   6.213 -0.7742 -1.5420 -1.1136
  147SAPE  C21316142   3.244   0.910   6.027  0.0014 -0.2639 -0.2052
  147SAPE  H13R16143   3.173   0.852   5.965 -1.7319 -0.7206  2.0512
  147SAPE  H13S16144   3.347   0.881   6.000  0.0258  0.2675 -0.7063
  147SAPE  C21416145   3.241   1.055   5.999  0.5959  0.2197 -0.2280
  147SAPE  H14R16146   3.256   1.123   6.085 -0.3625  1.3633 -0.9245
  147SAPE  C21516147   3.215   1.106   5.877 -0.1859  0.3166 -0.0716
  147SAPE  H15R16148   3.227   1.214   5.860  3.9749 -0.3036 -2.6389
  147SAPE  C21616149   3.192   1.024   5.754  0.4734  0.3576  0.0675
  147SAPE  H16R16150   3.191   0.914   5.774 -0.8356  0.3134 -0.1751
  147SAPE  H16S16151   3.271   1.037   5.677  0.0001 -3.2417 -1.2243
  147SAPE  C21716152   3.060   1.061   5.690  0.9896  0.1054 -0.0531
  147SAPE  H17R16153   2.990   1.084   5.774  1.3078 -0.6775  0.4404
  147SAPE  H17S16154   3.020   0.981   5.623  0.7829  2.2150 -2.5965
  147SAPE  C21816155   3.075   1.190   5.605  0.1762 -0.2703 -0.5471
  147SAPE  H18R16156   3.148   1.160   5.526  1.7069  2.0852 -0.1102
  147SAPE  H18S16157   3.117   1.264   5.676  1.3208 -0.6924 -0.7639
  147SAPE  C21916158   2.954   1.233   5.526 -0.3072  0.3428  0.1472
  147SAPE  H19R16159   2.875   1.260   5.600 -0.4747  1.7223 -0.5093
  147SAPE  H19S16160   2.907   1.142   5.481 -1.1588 -0.3391  2.2893
  147SAPE  C22016161   2.980   1.346   5.429  0.3843  0.4376 -0.2650
  147SAPE  H20R16162   3.068   1.315   5.368  0.5147 -0.6402  0.4550
  147SAPE  H20S16163   3.003   1.440   5.482  2.0140 -0.1375  0.0977
  147SAPE  H20T16164   2.888   1.353   5.366 -0.0928 -1.7623  0.0970
  147SAPE   C3316165   3.110   0.763   6.817  0.4649 -0.4875 -0.6242
  147SAPE   H3X16166   3.035   0.705   6.874 -1.7668  1.5534 -1.2901
  147SAPE   H3Y16167   3.196   0.775   6.885  0.9246 -0.0053 -1.2708
  147SAPE   C3416168   3.151   0.677   6.692 -0.4164  0.0586  0.0925
  147SAPE   H4X16169   3.198   0.581   6.724  2.0105  1.2396  0.2337
  147SAPE   H4Y16170   3.236   0.737   6.653 -0.2810  0.4070  0.8945
  147SAPE   C3516171   3.042   0.644   6.587 -0.5304  0.0182 -0.4672
  147SAPE   H5X16172   2.987   0.740   6.570 -0.3891  0.4035  1.1114
  147SAPE   H5Y16173   2.968   0.571   6.625  1.2817 -0.8901  1.4860
  147SAPE   C3616174   3.088   0.595   6.458 -0.6954 -0.1216  0.2620
  147SAPE   H6X16175   3.135   0.496   6.477 -3.1647 -1.3552  0.4006
  147SAPE   H6Y16176   3.167   0.663   6.420 -0.8000  0.6154  1.3250
  147SAPE   C3716177   2.972   0.596   6.360 -0.4571  0.5068  0.2789
  147SAPE   H7X16178   2.937   0.700   6.340 -1.7728 -0.2798 -1.9283
  147SAPE   H7Y16179   2.893   0.528   6.398  0.2931 -0.5475 -0.0121
  147SAPE   C3816180   3.016   0.538   6.232 -0.7139  0.0500  0.1420
  147SAPE   H8X16181   3.035   0.431   6.211  0.7599  0.1280  0.9437
  147SAPE   H8Y16182   3.111   0.592   6.211 -1.7504  1.4334 -1.2853
  147SAPE   C3916183   2.929   0.592   6.117 -0.5863 -0.0413 -0.7489
  147SAPE   H9X16184   2.916   0.702   6.113 -0.5774  0.0068  0.2842
  147SAPE   H9Y16185   2.826   0.552   6.111 -1.8100  2.9870 -1.6706
  147SAPE  C31016186   2.984   0.546   5.985 -0.1655 -0.2876  0.0466
  147SAPE  H10X16187   2.997   0.437   6.003  1.7573  0.0684  1.0963
  147SAPE  H10Y16188   3.086   0.585   5.965 -0.3870 -0.7863 -2.4377
  147SAPE  C31116189   2.896   0.587   5.863  0.3836 -0.2076 -0.3450
  147SAPE  H11X16190   2.832   0.670   5.901 -0.5074 -1.4495  1.0045
  147SAPE  H11Y16191   2.832   0.497   5.850 -1.1232  0.4120  2.0736
  147SAPE  C31216192   2.973   0.625   5.742 -0.6916  0.5295  0.5516
  147SAPE  H12X16193   3.028   0.536   5.703  0.1971  0.4707  1.8740
  147SAPE  H12Y16194   3.050   0.703   5.760  0.6138 -0.4224 -0.6002
  147SAPE  C31316195   2.886   0.671   5.622 -0.7294 -0.0054 -0.7260
  147SAPE  H13X16196   2.953   0.723   5.550 -1.6755  0.8185 -1.0261
  147SAPE  H13Y16197   2.813   0.741   5.668  2.1779  2.9438 -0.2310
  147SAPE  C31416198   2.813   0.564   5.542  1.4691 -0.0234  0.3480
  147SAPE  H14X16199   2.744   0.618   5.474  0.4482 -1.0879  0.4977
  147SAPE  H14Y16200   2.749   0.503   5.610  0.2874 -0.1387 -0.8086
  147SAPE  C31516201   2.895   0.465   5.460 -0.1643  0.3493 -0.7869
  147SAPE  H15X16202   2.816   0.405   5.411 -0.8324 -0.1426  0.8520
  147SAPE  H15Y16203   2.964   0.403   5.520  1.6559  2.5844 -0.4106
  147SAPE  C31616204   2.967   0.530   5.348 -0.4127 -0.1871  0.3186
  147SAPE  H16X16205   3.043   0.596   5.395  1.5729 -2.3843  0.3713
  147SAPE  H16Y16206   2.909   0.585   5.271  2.6175  2.0882 -0.5594
  147SAPE  C31716207   3.059   0.432   5.273 -0.7763 -0.1559 -0.3834
  147SAPE  H17X16208   3.006   0.360   5.207 -0.9519 -1.8619  1.5113
  147SAPE  H17Y16209   3.117   0.371   5.346  0.2951  1.0960 -0.1342
  147SAPE  C31816210   3.169   0.507   5.196 -0.4683 -0.0170  0.5711
  147SAPE  H18X16211   3.219   0.577   5.266 -1.5619  0.9153  0.4548
  147SAPE  H18Y16212   3.124   0.564   5.112  0.3078 -0.0371  0.1338
  147SAPE  H18Z16213   3.240   0.443   5.139 -0.5875  0.5240 -0.2051
  148SAPE     N16214   5.112   5.885   7.152  0.3240 -0.4092  1.3410
  148SAPE   HN116215   5.124   5.832   7.241  0.5874 -0.7672  1.0962
  148SAPE   HN216216   5.166   5.974   7.148 -0.5224  0.0855  0.6987
  148SAPE   HN316217   5.011   5.903   7.138 -0.4475 -3.3672  2.3391
  148SAPE   C1216218   5.149   5.795   7.040  0.5836  0.6344  0.1077
  148SAPE  H12A16219   5.258   5.772   7.039  0.4292 -0.7557  3.2645
  148SAPE  H12B16220   5.116   5.844   6.947 -1.7519 -2.3779 -0.8269
  148SAPE   C1116221   5.060   5.670   7.038 -0.8021 -0.5779 -0.3408
  148SAPE  H11A16222   5.075   5.628   6.936 -1.9930 -1.6976 -0.0878
  148SAPE  H11B16223   4.953   5.696   7.055 -0.7586 -1.4520  1.5737
  148SAPE     P16224   5.022   5.446   7.170 -0.0734 -0.1551 -0.3043
  148SAPE   O1316225   5.108   5.331   7.165 -0.0690  0.1754  0.3224
  148SAPE   O1416226   4.955   5.479   7.297  0.7030  0.4704 -0.1275
  148SAPE   O1216227   5.098   5.575   7.132 -0.0332  0.0309  0.4972
  148SAPE   O1116228   4.916   5.427   7.053 -0.4702 -0.0783  0.2487
  148SAPE    C116229   4.850   5.302   7.028  0.2896  0.3471  0.6801
  148SAPE    HA16230   4.897   5.217   7.081 -0.7407 -1.7344 -1.5275
  148SAPE    HB16231   4.745   5.314   7.063 -0.2605  0.1216 -0.7880
  148SAPE    C216232   4.849   5.255   6.878 -0.6755  0.2950  0.0275
  148SAPE    HS16233   4.954   5.241   6.842 -0.0217 -0.4349  2.0876
  148SAPE   O2116234   4.760   5.342   6.806  0.1553 -0.4392 -0.0992
  148SAPE   C2116235   4.827   5.398   6.700  0.0155 -0.0162 -0.5228
  148SAPE   O2216236   4.940   5.373   6.666 -0.1764  0.2169 -0.0031
  148SAPE   C2216237   4.745   5.502   6.624  0.3343 -0.0218  0.1811
  148SAPE   H2R16238   4.659   5.447   6.581  1.0885 -1.8508  0.9443
  148SAPE   H2S16239   4.705   5.575   6.697 -0.2324 -0.0241 -0.1224
  148SAPE    C316240   4.784   5.116   6.862 -0.3169 -0.0738  0.0517
  148SAPE    HX16241   4.678   5.118   6.894 -0.6622  2.3195 -1.0096
  148SAPE    HY16242   4.835   5.040   6.924  0.8358  1.8217  1.5289
  148SAPE   O3116243   4.792   5.093   6.724 -0.1520 -0.0868  0.5828
  148SAPE   C3116244   4.888   5.015   6.679  0.2721  0.6391 -0.5698
  148SAPE   O3216245   4.983   4.970   6.734  0.5024  0.2570  0.5692
  148SAPE   C3216246   4.855   4.978   6.538 -0.1085 -0.1194  0.4327
  148SAPE   H2X16247   4.807   5.067   6.492 -0.4158 -0.9818 -0.9804
  148SAPE   H2Y16248   4.771   4.907   6.547  0.0870 -0.2012  1.9563
  148SAPE   C2316249   4.811   5.578   6.506 -1.1909 -1.5464 -0.3546
  148SAPE   H3R16250   4.844   5.499   6.435  4.0739  0.3099 -0.3783
  148SAPE   H3S16251   4.899   5.630   6.549 -0.8924 -3.4130  1.4614
  148SAPE   C2416252   4.715   5.674   6.430 -0.3176  0.2680  0.3159
  148SAPE   H4R16253   4.756   5.723   6.339 -0.9778  1.3731  0.5973
  148SAPE   H4S16254   4.711   5.761   6.499  1.7945  0.5329  0.1939
  148SAPE   C2516255   4.573   5.631   6.401 -0.4297  0.4093 -0.5433
  148SAPE   H5R16256   4.498   5.664   6.475  1.2059  0.7069  1.0566
  148SAPE   C2616257   4.533   5.580   6.285  0.1615  0.0394 -0.5013
  148SAPE   H6R16258   4.426   5.554   6.276 -0.4519  2.4032 -0.6471
  148SAPE   C2716259   4.620   5.543   6.166  0.4972  0.6846 -0.2510
  148SAPE   H7R16260   4.688   5.460   6.197  1.6306  1.9450  0.8258
  148SAPE   H7S16261   4.691   5.628   6.152  2.5496 -0.4504  2.2968
  148SAPE   C2816262   4.543   5.516   6.039  0.5848  0.4995  0.2230
  148SAPE   H8R16263   4.441   5.555   6.026  0.5647 -0.2016 -2.2069
  148SAPE   C2916264   4.588   5.431   5.937  0.1411  0.6461  0.4132
  148SAPE   H9R16265   4.507   5.410   5.865  1.5194 -0.6129 -0.8258
  148SAPE  C21016266   4.716   5.355   5.932  0.1331 -0.4818 -1.0221
  148SAPE  H10R16267   4.689   5.249   5.909  0.3960 -0.4805 -1.3444
  148SAPE  H10S16268   4.762   5.355   6.033 -2.1358 -0.9431  0.0877
  148SAPE  C21116269   4.813   5.423   5.839 -0.5478  0.0989  0.1611
  148SAPE  H11R16270   4.877   5.504   5.878 -0.9737  1.2673 -1.4263
  148SAPE  C21216271   4.835   5.397   5.706 -0.2338 -0.7779 -0.0355
  148SAPE  H12R16272   4.909   5.454   5.647  0.8924 -0.5999  1.4946
  148SAPE  C21316273   4.763   5.286   5.634  0.4180  0.1229 -0.1199
  148SAPE  H13R16274   4.690   5.328   5.561  1.2005  0.7617 -0.5499
  148SAPE  H13S16275   4.697   5.221   5.694 -0.4672  1.8940  0.8976
  148SAPE  C21416276   4.862   5.187   5.575  0.5596  0.2986  0.3687
  148SAPE  H14R16277   4.891   5.113   5.651 -1.0049  0.5675  1.2867
  148SAPE  C21516278   4.901   5.183   5.446  0.0163 -0.6233  0.5918
  148SAPE  H15R16279   4.976   5.106   5.421  0.5273  0.3552 -1.0568
  148SAPE  C21616280   4.862   5.283   5.339 -0.5815 -0.2761  0.6675
  148SAPE  H16R16281   4.958   5.308   5.290 -1.1196 -0.4369 -0.5155
  148SAPE  H16S16282   4.826   5.379   5.380  1.4627  1.4172 -1.2609
  148SAPE  C21716283   4.765   5.230   5.233 -1.0178 -0.4016 -0.4243
  148SAPE  H17R16284   4.716   5.327   5.207  0.6447  0.4945 -0.3494
  148SAPE  H17S16285   4.683   5.164   5.267 -0.6485 -1.0615 -0.7872
  148SAPE  C21816286   4.822   5.174   5.100 -0.3856 -0.1209 -0.3450
  148SAPE  H18R16287   4.906   5.239   5.069  0.1977 -0.8801 -0.4013
  148SAPE  H18S16288   4.743   5.169   5.022 -0.7599  0.9838 -0.0578
  148SAPE  C21916289   4.893   5.035   5.127 -0.3832 -0.1147  0.1533
  148SAPE  H19R16290   4.833   4.946   5.153  1.4853 -1.3867  0.3547
  148SAPE  H19S16291   4.975   5.040   5.202  1.3041 -2.2090 -1.4187
  148SAPE  C22016292   4.960   4.996   4.998  0.5732  0.2361 -0.2590
  148SAPE  H20R16293   4.887   4.985   4.915 -0.3109 -1.3757  0.6938
  148SAPE  H20S16294   5.017   4.904   5.022  0.6127  0.5197  0.7411
  148SAPE  H20T16295   5.034   5.070   4.961 -0.7054  1.1183 -1.1489
  148SAPE   C3316296   4.987   4.941   6.467  0.7610  0.0483 -0.8857
  148SAPE   H3X16297   5.012   4.837   6.496 -0.7177 -0.5388 -1.6086
  148SAPE   H3Y16298   5.067   5.011   6.499 -0.5881  1.3507 -0.2434
  148SAPE   C3416299   4.975   4.937   6.319 -0.0061  0.5671  0.2365
  148SAPE   H4X16300   4.939   5.036   6.285 -0.8747  0.3393  0.4574
  148SAPE   H4Y16301   4.892   4.867   6.293 -1.1718  1.7791  0.5874
  148SAPE   C3516302   5.103   4.894   6.259 -0.2658  0.4484 -0.3425
  148SAPE   H5X16303   5.148   4.796   6.286  2.0218  1.1890 -1.2708
  148SAPE   H5Y16304   5.182   4.964   6.293 -0.6985  0.4908  0.6062
  148SAPE   C3616305   5.108   4.896   6.109 -0.1563 -0.0216  0.7663
  148SAPE   H6X16306   5.211   4.885   6.070 -0.7664 -1.7815 -0.4685
  148SAPE   H6Y16307   5.071   4.997   6.081 -1.2104 -1.1430 -2.4126
  148SAPE   C3716308   5.027   4.782   6.043  0.3213 -0.9424  0.0517
  148SAPE   H7X16309   4.925   4.777   6.087  1.0922  0.1914  2.1353
  148SAPE   H7Y16310   5.076   4.683   6.053 -1.6324 -2.0543 -0.6829
  148SAPE   C3816311   5.016   4.807   5.889 -0.3110 -0.2146  0.3308
  148SAPE   H8X16312   5.123   4.822   5.861 -0.5468 -1.0940 -1.1326
  148SAPE   H8Y16313   4.958   4.900   5.875  0.8950  0.7532  1.4635
  148SAPE   C3916314   4.952   4.680   5.825  0.5456  0.1710 -0.5192
  148SAPE   H9X16315   4.886   4.631   5.899  2.5777 -0.3974  1.0059
  148SAPE   H9Y16316   5.038   4.611   5.805  0.6498 -0.6034  2.1805
  148SAPE  C31016317   4.877   4.684   5.691 -0.0062 -1.3367  0.0755
  148SAPE  H10X16318   4.778   4.733   5.702  1.1227  1.3078 -0.7392
  148SAPE  H10Y16319   4.869   4.581   5.650  0.4009 -0.6565 -1.8340
  148SAPE  C31116320   4.953   4.765   5.583  0.2097  0.0047  0.0037
  148SAPE  H11X16321   5.058   4.733   5.566  0.2497 -0.4807  1.1206
  148SAPE  H11Y16322   4.952   4.872   5.613  0.4859 -0.4993  1.9260
  148SAPE  C31216323   4.880   4.754   5.441  0.0536 -0.4039  0.1715
  148SAPE  H12X16324   4.901   4.856   5.403 -1.4219  0.6170  1.9051
  148SAPE  H12Y16325   4.771   4.747   5.462  0.3053  0.3415  1.8338
  148SAPE  C31316326   4.931   4.655   5.340 -0.3890 -0.0943 -0.2102
  148SAPE  H13X16327   4.951   4.552   5.378 -1.2472 -0.2371 -0.1206
  148SAPE  H13Y16328   5.028   4.688   5.298  0.1269 -1.2432  0.0426
  148SAPE  C31416329   4.829   4.636   5.223  0.2720 -0.0259  0.5238
  148SAPE  H14X16330   4.789   4.737   5.202 -0.1335 -0.7476 -2.6976
  148SAPE  H14Y16331   4.744   4.582   5.271  0.1336 -0.1555  0.1406
  148SAPE  C31516332   4.873   4.562   5.096  0.1005  0.0200 -0.1030
  148SAPE  H15X16333   4.934   4.477   5.132 -0.2363  0.3413  1.2716
  148SAPE  H15Y16334   4.952   4.621   5.045  0.1260  0.1553  0.0921
  148SAPE  C31616335   4.759   4.528   4.999 -0.4359  0.1463  0.3054
  148SAPE  H16X16336   4.708   4.624   4.974 -1.5916 -0.0822  1.6612
  148SAPE  H16Y16337   4.682   4.482   5.064  0.9907 -0.9530  1.2629
  148SAPE  C31716338   4.818   4.437   4.887 -0.4808  0.2573  0.2722
  148SAPE  H17X16339   4.875   4.354   4.934 -1.0470  0.0231  0.5530
  148SAPE  H17Y16340   4.886   4.481   4.811 -0.7405  0.4579  0.1531
  148SAPE  C31816341   4.696   4.377   4.807 -0.1728 -0.1980 -0.2450
  148SAPE  H18X16342   4.649   4.462   4.754  2.4340  1.4951 -0.0269
  148SAPE  H18Y16343   4.626   4.330   4.879  0.3353 -2.5473 -1.1741
  148SAPE  H18Z16344   4.730   4.296   4.737 -0.3319  0.1579 -0.7379
  149SAPE     N16345   2.814   5.084   7.128  0.1269  0.4819 -0.0765
  149SAPE   HN116346   2.717   5.122   7.125 -0.9966 -1.8951  1.8557
  149SAPE   HN216347   2.898   5.144   7.127 -0.5420  1.4477  0.5216
  149SAPE   HN316348   2.839   5.021   7.049  2.5186  1.0745  0.1289
  149SAPE   C1216349   2.823   5.005   7.255  0.1744  0.3082  0.5145
  149SAPE  H12A16350   2.769   5.056   7.337 -2.6560  0.0103 -1.0216
  149SAPE  H12B16351   2.930   4.997   7.282  0.1005 -2.1476  0.3188
  149SAPE   C1116352   2.775   4.863   7.225 -0.2312  0.4758  0.2207
  149SAPE  H11A16353   2.665   4.865   7.209  0.0559  0.2066 -2.0593
  149SAPE  H11B16354   2.792   4.800   7.315 -0.0621  1.0419  0.5977
  149SAPE     P16355   2.941   4.692   7.103  0.3531  0.0376 -0.0033
  149SAPE   O1316356   2.975   4.641   7.239 -0.2363  0.1975 -0.2237
  149SAPE   O1416357   2.876   4.601   7.009  0.7300 -0.2183  0.0348
  149SAPE   O1216358   2.848   4.817   7.114 -0.1759 -0.0847  0.7689
  149SAPE   O1116359   3.067   4.750   7.039 -0.2578 -0.3203 -0.4010
  149SAPE    C116360   3.058   4.819   6.916  0.2135 -0.4290  0.0891
  149SAPE    HA16361   2.971   4.888   6.924 -1.4426 -2.5724  2.2125
  149SAPE    HB16362   3.142   4.890   6.908  1.4344 -1.7331  0.9326
  149SAPE    C216363   3.039   4.738   6.786 -0.2812 -0.0126 -0.5408
  149SAPE    HS16364   2.946   4.684   6.811 -0.6636  1.5437  1.7685
  149SAPE   O2116365   3.164   4.655   6.776  0.4155  0.1737 -0.2037
  149SAPE   C2116366   3.130   4.549   6.700  0.1469  0.3949  0.1863
  149SAPE   O2216367   3.024   4.511   6.660 -0.1219 -0.3082 -0.4669
  149SAPE   C2216368   3.261   4.496   6.654  0.2640  0.0865 -0.4251
  149SAPE   H2R16369   3.339   4.569   6.681 -0.8061  1.2324 -0.3458
  149SAPE   H2S16370   3.266   4.400   6.711  0.2981  1.1033  1.3478
  149SAPE    C316371   3.037   4.832   6.655  0.5986 -0.2420  0.5740
  149SAPE    HX16372   3.140   4.873   6.651  0.8910 -0.9427  0.8675
  149SAPE    HY16373   2.965   4.916   6.661 -0.5764 -1.1072 -0.6783
  149SAPE   O3116374   3.010   4.766   6.526  0.6855  0.3021  0.3821
  149SAPE   C3116375   2.884   4.720   6.530  0.2821 -0.1767 -0.3062
  149SAPE   O3216376   2.802   4.747   6.617 -0.5619  0.1914 -0.2124
  149SAPE   C3216377   2.859   4.640   6.400  0.2455  0.0238 -0.0888
  149SAPE   H2X16378   2.899   4.538   6.415 -0.0522  0.1256  1.5635
  149SAPE   H2Y16379   2.910   4.693   6.317 -1.4124 -0.2365 -1.3344
  149SAPE   C2316380   3.245   4.473   6.498 -0.2179 -0.2657 -0.6481
  149SAPE   H3R16381   3.184   4.556   6.456  0.8991  1.3695  0.7891
  149SAPE   H3S16382   3.213   4.367   6.492 -1.1823 -0.1752  1.7591
  149SAPE   C2416383   3.377   4.477   6.421 -0.2894 -0.4009 -0.0453
  149SAPE   H4R16384   3.424   4.574   6.446 -0.4783  0.4265 -2.6695
  149SAPE   H4S16385   3.350   4.483   6.314 -0.1752 -0.5504 -0.0817
  149SAPE   C2516386   3.470   4.366   6.465  0.3401  0.0778  0.1555
  149SAPE   H5R16387   3.512   4.375   6.566  1.3677 -2.9272  0.1109
  149SAPE   C2616388   3.523   4.273   6.386  0.8384  0.5654  0.6877
  149SAPE   H6R16389   3.588   4.196   6.431  0.1095 -0.5888 -0.1807
  149SAPE   C2716390   3.498   4.255   6.234 -0.4040  0.8460  0.3412
  149SAPE   H7R16391   3.595   4.262   6.180 -0.0264 -0.5822  0.7781
  149SAPE   H7S16392   3.444   4.345   6.199 -0.5315  0.8447  0.5338
  149SAPE   C2816393   3.420   4.130   6.185 -0.1044  0.1991  0.5733
  149SAPE   H8R16394   3.349   4.100   6.265 -0.1823  2.5376  1.4542
  149SAPE   C2916395   3.425   4.069   6.063  0.4363  0.3527 -0.0149
  149SAPE   H9R16396   3.360   3.982   6.044 -0.1568  0.0903  2.7511
  149SAPE  C21016397   3.515   4.112   5.948 -0.3040 -0.0130 -0.4844
  149SAPE  H10R16398   3.602   4.172   5.982 -1.6191  0.8043  1.6746
  149SAPE  H10S16399   3.447   4.178   5.890 -1.0255 -0.1352  0.1940
  149SAPE  C21116400   3.544   4.003   5.846  0.1819  0.4686 -0.6311
  149SAPE  H11R16401   3.570   3.911   5.901 -1.4717  0.6610  0.5437
  149SAPE  C21216402   3.562   4.014   5.710  0.3185 -0.7370 -0.0393
  149SAPE  H12R16403   3.588   3.921   5.657  1.2583 -1.1655  1.1281
  149SAPE  C21316404   3.535   4.129   5.625  0.0915  0.1142  0.1083
  149SAPE  H13R16405   3.518   4.225   5.678 -1.1191 -0.2734  0.4453
  149SAPE  H13S16406   3.445   4.106   5.564 -0.7574 -0.4942  1.5351
  149SAPE  C21416407   3.662   4.141   5.536 -0.5011  0.4672  0.8134
  149SAPE  H14R16408   3.730   4.218   5.576 -2.1462  1.7638  1.2608
  149SAPE  C21516409   3.692   4.081   5.417  1.1840  0.7528  0.8402
  149SAPE  H15R16410   3.782   4.112   5.362  0.1697  0.0951 -1.3018
  149SAPE  C21616411   3.598   3.987   5.349 -0.6642 -0.4600 -0.7601
  149SAPE  H16R16412   3.533   3.934   5.423 -0.9508 -0.4716 -1.0166
  149SAPE  H16S16413   3.650   3.905   5.296  1.4521 -1.3967  2.4467
  149SAPE  C21716414   3.504   4.051   5.251  0.0297  0.6117 -0.6933
  149SAPE  H17R16415   3.464   4.139   5.307 -1.3467  0.5162 -1.4983
  149SAPE  H17S16416   3.428   3.973   5.230 -0.0835 -0.0616  1.8193
  149SAPE  C21816417   3.578   4.089   5.116 -0.0800  0.5796  0.7077
  149SAPE  H18R16418   3.567   4.002   5.048  0.9908  0.5120  0.5951
  149SAPE  H18S16419   3.682   4.122   5.140  0.1174 -1.2353  2.6448
  149SAPE  C21916420   3.514   4.203   5.037 -0.1275  0.1373 -0.3109
  149SAPE  H19R16421   3.514   4.298   5.096  0.6260 -0.4333  0.6401
  149SAPE  H19S16422   3.406   4.183   5.021 -0.3559 -1.4027  2.5235
  149SAPE  C22016423   3.581   4.241   4.914 -0.1256 -0.5570  0.6140
  149SAPE  H20R16424   3.517   4.309   4.852 -3.3257 -2.5666  1.4433
  149SAPE  H20S16425   3.609   4.153   4.853 -0.6839 -0.1754 -0.2248
  149SAPE  H20T16426   3.669   4.297   4.952 -0.4438  0.1355  0.3645
  149SAPE   C3316427   2.708   4.634   6.378 -0.4803 -0.4752 -0.0099
  149SAPE   H3X16428   2.665   4.736   6.367 -0.3814 -0.5439 -1.2201
  149SAPE   H3Y16429   2.651   4.586   6.460  1.7025 -2.0902  0.6551
  149SAPE   C3416430   2.674   4.556   6.247  0.5055  0.2676 -0.8525
  149SAPE   H4X16431   2.564   4.570   6.237  0.2193 -1.1178 -0.0039
  149SAPE   H4Y16432   2.683   4.445   6.253  0.1116  0.2760  0.3850
  149SAPE   C3516433   2.733   4.619   6.120  0.3443  0.0390 -0.5107
  149SAPE   H5X16434   2.844   4.625   6.118  0.3686  0.9284  1.4355
  149SAPE   H5Y16435   2.686   4.719   6.107 -1.7316 -0.6075  1.3823
  149SAPE   C3616436   2.691   4.530   6.011  0.0584  0.3809  0.0438
  149SAPE   H6X16437   2.591   4.483   6.020  0.7852 -1.1776  0.2774
  149SAPE   H6Y16438   2.753   4.438   6.016 -1.0575 -0.3142  3.6117
  149SAPE   C3716439   2.713   4.599   5.878  0.6441 -0.4192  0.3883
  149SAPE   H7X16440   2.822   4.620   5.868  0.2398  1.7896  0.2898
  149SAPE   H7Y16441   2.648   4.689   5.870  1.5124  0.2610  0.8292
  149SAPE   C3816442   2.658   4.514   5.759 -0.4538 -0.1679 -0.1579
  149SAPE   H8X16443   2.551   4.485   5.775 -0.0862 -1.2682  0.4761
  149SAPE   H8Y16444   2.707   4.414   5.750 -0.1544  0.1593 -3.1373
  149SAPE   C3916445   2.664   4.587   5.623 -0.0600  0.2187  0.0202
  149SAPE   H9X16446   2.771   4.591   5.594 -0.2791 -1.8358 -1.3004
  149SAPE   H9Y16447   2.627   4.691   5.618 -0.1914  0.1796  0.1452
  149SAPE  C31016448   2.597   4.514   5.508 -0.2472  0.2676 -0.2234
  149SAPE  H10X16449   2.492   4.490   5.534  0.5629 -1.4009  1.8062
  149SAPE  H10Y16450   2.654   4.422   5.484 -0.6520  0.2994 -1.3468
  149SAPE  C31116451   2.588   4.603   5.391  0.1557  0.4239  0.5171
  149SAPE  H11X16452   2.687   4.647   5.368  0.2870  0.3722  0.9699
  149SAPE  H11Y16453   2.524   4.688   5.422 -0.6037  0.3985 -0.9440
  149SAPE  C31216454   2.526   4.546   5.261  0.0122  0.6184  0.8089
  149SAPE  H12X16455   2.423   4.506   5.272  0.4702 -1.2395 -0.9970
  149SAPE  H12Y16456   2.592   4.471   5.212 -1.0708  0.2144 -0.0772
  149SAPE  C31316457   2.522   4.660   5.154 -0.6504  0.0037 -0.4222
  149SAPE  H13X16458   2.618   4.716   5.148 -0.7924  0.5182  1.5380
  149SAPE  H13Y16459   2.441   4.727   5.189 -0.8265  0.7185 -2.0759
  149SAPE  C31416460   2.481   4.616   5.011  0.0914  0.2025 -0.7864
  149SAPE  H14X16461   2.395   4.547   5.026  0.2934  0.4837  2.2164
  149SAPE  H14Y16462   2.564   4.557   4.966  0.3151 -1.2127  1.3253
  149SAPE  C31516463   2.428   4.738   4.934  0.3896 -0.0544  0.2538
  149SAPE  H15X16464   2.517   4.791   4.892 -0.5427  1.3370 -0.0237
  149SAPE  H15Y16465   2.363   4.804   4.995  1.7860 -0.5768  2.4242
  149SAPE  C31616466   2.335   4.689   4.819  0.8492 -0.5826 -0.2048
  149SAPE  H16X16467   2.249   4.635   4.865  0.6384  0.0038  0.0993
  149SAPE  H16Y16468   2.376   4.601   4.766  3.3182  0.3786  0.0045
  149SAPE  C31716469   2.288   4.805   4.731  0.1722 -0.0086 -0.8021
  149SAPE  H17X16470   2.265   4.890   4.799 -0.6658 -1.5863  0.9840
  149SAPE  H17Y16471   2.203   4.771   4.668 -0.1944  2.1321 -1.5641
  149SAPE  C31816472   2.389   4.846   4.621  0.0958 -0.6106  0.0089
  149SAPE  H18X16473   2.345   4.903   4.536  0.6550 -3.2405 -2.1600
  149SAPE  H18Y16474   2.436   4.756   4.579 -0.0367 -0.8285  0.3220
  149SAPE  H18Z16475   2.479   4.898   4.660  0.6115 -0.5043 -1.2847
  150SAPE     N16476   2.316   4.322   7.322  0.6446  0.2481 -0.3364
  150SAPE   HN116477   2.406   4.297   7.277 -0.2201 -2.4040 -0.7695
  150SAPE   HN216478   2.339   4.399   7.388  0.8337 -1.0456  1.1605
  150SAPE   HN316479   2.280   4.251   7.389  0.0778  2.9867  2.5162
  150SAPE   C1216480   2.209   4.368   7.219  0.6170 -0.1248 -0.3832
  150SAPE  H12A16481   2.138   4.440   7.265 -3.0567 -1.2895 -3.6444
  150SAPE  H12B16482   2.159   4.275   7.184  0.9880  0.4814 -2.6689
  150SAPE   C1116483   2.275   4.444   7.096 -0.0497  0.1840  0.6813
  150SAPE  H11A16484   2.300   4.545   7.136  1.7822  0.2537 -0.5399
  150SAPE  H11B16485   2.198   4.461   7.018  0.5862 -1.7599 -0.4509
  150SAPE     P16486   2.376   4.262   6.921 -0.1790  0.2193  0.3162
  150SAPE   O1316487   2.406   4.346   6.806 -0.1824 -0.4527  0.2487
  150SAPE   O1416488   2.472   4.153   6.936  0.3188 -0.3865  0.1058
  150SAPE   O1216489   2.392   4.365   7.042 -0.7357  0.4251 -0.2544
  150SAPE   O1116490   2.227   4.207   6.923 -0.0355  0.0221  0.0258
  150SAPE    C116491   2.200   4.099   6.834  0.5041 -0.3431  0.3095
  150SAPE    HA16492   2.290   4.040   6.807  0.6509  0.2816 -0.5933
  150SAPE    HB16493   2.133   4.028   6.887 -1.4406  1.8648  1.0109
  150SAPE    C216494   2.114   4.160   6.715  0.4580  0.0503  0.1242
  150SAPE    HS16495   2.078   4.062   6.675  1.7939 -1.1700  1.7808
  150SAPE   O2116496   2.202   4.224   6.628 -0.0767 -0.7435  0.7210
  150SAPE   C2116497   2.264   4.139   6.540  0.7700  0.1022 -0.0910
  150SAPE   O2216498   2.226   4.027   6.508  0.7657  0.0478 -0.4891
  150SAPE   C2216499   2.360   4.221   6.458  0.8449  0.3200  0.0787
  150SAPE   H2R16500   2.401   4.304   6.519  2.2445 -1.1685  1.2645
  150SAPE   H2S16501   2.441   4.150   6.428  0.0302 -0.7439  0.3414
  150SAPE    C316502   1.997   4.246   6.757  0.0849 -0.6262 -0.3049
  150SAPE    HX16503   2.046   4.342   6.782  0.8585 -1.3329  1.0037
  150SAPE    HY16504   1.953   4.211   6.853 -0.2295  2.3478  0.7193
  150SAPE   O3116505   1.897   4.250   6.658 -0.1238 -0.6335  0.3298
  150SAPE   C3116506   1.896   4.343   6.561  0.3820  0.5152  0.8972
  150SAPE   O3216507   1.987   4.423   6.544 -0.0913 -0.0721 -0.1161
  150SAPE   C3216508   1.758   4.329   6.484 -0.5646  0.9230 -0.0872
  150SAPE   H2X16509   1.695   4.392   6.549  0.1672 -0.7471  2.3645
  150SAPE   H2Y16510   1.726   4.224   6.502 -1.1242  0.9952 -0.6190
  150SAPE   C2316511   2.289   4.278   6.332  0.3229  0.2087  0.4302
  150SAPE   H3R16512   2.226   4.365   6.363 -0.3788  0.0116 -0.3834
  150SAPE   H3S16513   2.225   4.197   6.290  2.2391 -1.2212  0.1424
  150SAPE   C2416514   2.384   4.337   6.221 -0.1989  0.4933 -0.0224
  150SAPE   H4R16515   2.430   4.419   6.280 -1.2642  1.6972 -0.8242
  150SAPE   H4S16516   2.330   4.380   6.134  3.0137  3.2713 -0.8756
  150SAPE   C2516517   2.489   4.249   6.164 -0.1764  0.0471  0.0379
  150SAPE   H5R16518   2.584   4.241   6.218  0.3853 -1.3921 -1.0875
  150SAPE   C2616519   2.469   4.178   6.049 -0.5465  0.0519 -0.3287
  150SAPE   H6R16520   2.556   4.124   6.010 -0.9711 -0.1749 -0.9929
  150SAPE   C2716521   2.354   4.176   5.953  0.1269  0.1346 -0.1114
  150SAPE   H7R16522   2.363   4.268   5.891 -2.0153 -1.7646 -3.5910
  150SAPE   H7S16523   2.268   4.179   6.022  1.4531 -3.5868  1.9910
  150SAPE   C2816524   2.352   4.053   5.864 -0.4964 -0.3862 -0.0263
  150SAPE   H8R16525   2.353   3.959   5.920 -0.5909 -1.4726 -1.7707
  150SAPE   C2916526   2.372   4.043   5.737  0.1745  0.1045  0.2487
  150SAPE   H9R16527   2.357   3.942   5.694 -1.2847 -0.2013  1.3952
  150SAPE  C21016528   2.404   4.149   5.633 -1.0213  0.5038  0.8240
  150SAPE  H10R16529   2.354   4.246   5.656  1.6748  1.4701  3.2444
  150SAPE  H10S16530   2.353   4.105   5.545  2.1263 -0.5861 -0.6041
  150SAPE  C21116531   2.552   4.176   5.603  0.2497 -0.4075 -1.0360
  150SAPE  H11R16532   2.612   4.210   5.689 -0.3740  0.2842 -0.8624
  150SAPE  C21216533   2.614   4.152   5.487 -0.2562  0.0648 -0.7051
  150SAPE  H12R16534   2.717   4.188   5.477  0.4637 -1.0699  1.9042
  150SAPE  C21316535   2.548   4.091   5.365 -0.2603  0.1190 -0.0641
  150SAPE  H13R16536   2.493   3.998   5.391  4.6078 -2.5145  2.4172
  150SAPE  H13S16537   2.633   4.051   5.305  0.7204 -1.1985  2.0814
  150SAPE  C21416538   2.451   4.176   5.295  0.2912 -0.6099  0.2211
  150SAPE  H14R16539   2.380   4.229   5.359  1.6806  0.3525  1.0316
  150SAPE  C21516540   2.455   4.206   5.162  0.0248 -0.4734 -0.1186
  150SAPE  H15R16541   2.388   4.280   5.114  0.4059  0.7348  1.1498
  150SAPE  C21616542   2.540   4.137   5.059  0.5147 -0.8603 -0.1094
  150SAPE  H16R16543   2.484   4.067   4.994  0.3580 -0.9313  0.1017
  150SAPE  H16S16544   2.630   4.084   5.099  2.3013  1.3125 -1.0419
  150SAPE  C21716545   2.582   4.259   4.970  0.0507  0.4298 -0.0981
  150SAPE  H17R16546   2.635   4.339   5.025  1.1359  0.6391 -1.3923
  150SAPE  H17S16547   2.490   4.302   4.925  0.5973  0.4887 -1.1949
  150SAPE  C21816548   2.666   4.222   4.845  0.6253 -0.1050 -0.4649
  150SAPE  H18R16549   2.602   4.146   4.795 -1.6400  2.2682 -1.4147
  150SAPE  H18S16550   2.765   4.175   4.858  0.2116 -0.7629  0.4328
  150SAPE  C21916551   2.702   4.342   4.751 -0.0253 -0.1299 -0.4109
  150SAPE  H19R16552   2.807   4.336   4.716  0.0021  0.0301 -0.3547
  150SAPE  H19S16553   2.691   4.437   4.808  1.8794  0.9035 -1.6706
  150SAPE  C22016554   2.613   4.343   4.628 -0.1320  0.0810  0.4035
  150SAPE  H20R16555   2.611   4.251   4.566  0.4315  0.4970 -0.2411
  150SAPE  H20S16556   2.663   4.409   4.555 -3.0444  1.7404 -0.2718
  150SAPE  H20T16557   2.511   4.384   4.645 -0.8971 -2.3304  2.2020
  150SAPE   C3316558   1.756   4.360   6.335  0.2093  0.2183  0.1167
  150SAPE   H3X16559   1.797   4.462   6.317 -1.0228  1.0942  1.8818
  150SAPE   H3Y16560   1.648   4.357   6.309  0.3366 -1.4895 -0.3313
  150SAPE   C3416561   1.819   4.260   6.246 -0.2663 -0.2418  0.4056
  150SAPE   H4X16562   1.801   4.158   6.287  0.7599 -1.0387 -1.0380
  150SAPE   H4Y16563   1.928   4.271   6.224 -0.6535 -0.8031 -2.0365
  150SAPE   C3516564   1.759   4.254   6.100  0.3715 -0.0307  0.6714
  150SAPE   H5X16565   1.783   4.352   6.052  0.3213 -0.2942  0.1016
  150SAPE   H5Y16566   1.649   4.242   6.093  0.2868  1.3314 -2.2180
  150SAPE   C3616567   1.811   4.141   6.010  0.0831  0.2493  0.1385
  150SAPE   H6X16568   1.736   4.131   5.930  0.1597 -1.9430  0.2803
  150SAPE   H6Y16569   1.814   4.043   6.061  1.7336  1.0892  1.8132
  150SAPE   C3716570   1.947   4.172   5.952 -0.0688  0.9106  0.5737
  150SAPE   H7X16571   2.016   4.150   6.036  0.4013 -1.3826 -0.3395
  150SAPE   H7Y16572   1.956   4.272   5.905  0.2338  0.3137 -0.6947
  150SAPE   C3816573   1.984   4.065   5.844  0.8080  0.1220 -0.4814
  150SAPE   H8X16574   1.927   3.976   5.879  1.6222  0.2245  1.2357
  150SAPE   H8Y16575   2.095   4.061   5.841  0.7548 -1.2025 -2.8649
  150SAPE   C3916576   1.931   4.101   5.704  0.2379 -0.9331 -0.8940
  150SAPE   H9X16577   1.820   4.103   5.704  0.1228  0.7379  2.9235
  150SAPE   H9Y16578   1.958   4.020   5.632 -1.4692 -0.2554 -2.3776
  150SAPE  C31016579   1.988   4.236   5.650  0.0794 -0.1569 -0.3847
  150SAPE  H10X16580   2.098   4.233   5.664  0.1496  1.6053 -0.3298
  150SAPE  H10Y16581   1.952   4.330   5.698 -0.0735  0.3300 -1.4245
  150SAPE  C31116582   1.954   4.256   5.497 -0.3309  0.3607 -0.1029
  150SAPE  H11X16583   1.989   4.357   5.465 -1.1727  0.7256  0.0834
  150SAPE  H11Y16584   1.845   4.250   5.476 -0.8372  1.0085  2.0904
  150SAPE  C31216585   2.026   4.154   5.414  0.1394  0.4590  0.1505
  150SAPE  H12X16586   1.967   4.063   5.440 -2.2609  1.5700 -1.0338
  150SAPE  H12Y16587   2.132   4.151   5.447 -0.2252  2.3799  1.7178
  150SAPE  C31316588   2.013   4.144   5.259  0.0038  0.1259  0.6664
  150SAPE  H13X16589   1.908   4.127   5.228  0.4110  1.9240 -2.1001
  150SAPE  H13Y16590   2.081   4.064   5.222 -0.7968  1.1335 -3.5171
  150SAPE  C31416591   2.058   4.261   5.179 -0.2932  0.3196 -0.0044
  150SAPE  H14X16592   2.166   4.280   5.200 -0.1257  0.1386 -0.6717
  150SAPE  H14Y16593   2.013   4.359   5.204  2.4275  2.0176 -1.2657
  150SAPE  C31516594   2.045   4.232   5.030 -0.2720  0.4390 -0.0753
  150SAPE  H15X16595   1.939   4.227   4.999 -0.1286 -1.4596 -0.3944
  150SAPE  H15Y16596   2.087   4.129   5.031  0.7695  0.8475 -0.6815
  150SAPE  C31616597   2.126   4.332   4.952  0.0622  0.6251 -0.3031
  150SAPE  H16X16598   2.233   4.325   4.979 -0.1760 -2.4619  0.1727
  150SAPE  H16Y16599   2.093   4.437   4.969  1.2834  0.7716  1.5267
  150SAPE  C31716600   2.114   4.298   4.800  0.1833  0.4148 -0.8183
  150SAPE  H17X16601   2.151   4.390   4.749  0.3870  2.1743  2.2529
  150SAPE  H17Y16602   2.010   4.270   4.773  0.6287 -2.0810 -0.1354
  150SAPE  C31816603   2.203   4.182   4.755 -0.2134  0.1921  0.5354
  150SAPE  H18X16604   2.196   4.175   4.645  1.7788 -0.4054  0.4016
  150SAPE  H18Y16605   2.184   4.086   4.809 -3.1089  0.6627  0.5104
  150SAPE  H18Z16606   2.309   4.211   4.769  0.2772 -1.2144 -0.0619
  151SAPE     N16607   5.418   1.478   6.670  0.6899 -0.5930  0.6957
  151SAPE   HN116608   5.467   1.408   6.729 -0.0845 -0.8905  1.0047
  151SAPE   HN216609   5.318   1.451   6.658  0.5926  0.7376 -2.2864
  151SAPE   HN316610   5.451   1.459   6.573 -1.5928 -0.2801 -0.2027
  151SAPE   C1216611   5.442   1.623   6.714  0.5422  0.2645  0.7585
  151SAPE  H12A16612   5.345   1.675   6.704  0.2856 -0.3286  0.1141
  151SAPE  H12B16613   5.514   1.669   6.643  0.4441 -0.2904  0.2951
  151SAPE   C1116614   5.504   1.631   6.853 -0.5209 -0.1237  0.3006
  151SAPE  H11A16615   5.516   1.739   6.873  0.1758 -0.2358  0.5106
  151SAPE  H11B16616   5.607   1.591   6.840  0.5152  2.4008  0.1376
  151SAPE     P16617   5.305   1.632   7.029  0.2311 -0.5106  0.5915
  151SAPE   O1316618   5.191   1.533   7.039 -0.2197 -0.1194  1.0607
  151SAPE   O1416619   5.341   1.692   7.158 -0.5213  0.0754  0.1305
  151SAPE   O1216620   5.430   1.559   6.947 -0.4436 -0.0820 -0.5317
  151SAPE   O1116621   5.263   1.749   6.930 -0.3542 -0.4586  0.9191
  151SAPE    C116622   5.137   1.804   6.936 -0.3411  0.1279  0.1059
  151SAPE    HA16623   5.095   1.805   7.039 -1.0820  0.6416 -0.1941
  151SAPE    HB16624   5.156   1.911   6.912  0.9117  0.0125  0.5239
  151SAPE    C216625   5.048   1.752   6.823  0.0875 -0.4662  0.5756
  151SAPE    HS16626   5.030   1.647   6.853  0.9258 -0.4731  1.0866
  151SAPE   O2116627   5.113   1.770   6.698  0.0238 -0.0395 -0.3838
  151SAPE   C2116628   5.051   1.725   6.586  0.1654 -0.3130 -0.6710
  151SAPE   O2216629   4.957   1.647   6.582 -0.3473 -0.2950 -0.2533
  151SAPE   C2216630   5.128   1.789   6.466 -0.1381  0.7071  0.5603
  151SAPE   H2R16631   5.082   1.886   6.437  0.6752  0.2802 -2.6149
  151SAPE   H2S16632   5.234   1.802   6.499 -1.0502  0.7901  3.7510
  151SAPE    C316633   4.902   1.827   6.826  0.2158  0.2158 -0.3557
  151SAPE    HX16634   4.873   1.827   6.933  1.0676  1.1598 -0.1034
  151SAPE    HY16635   4.824   1.757   6.790 -2.9568  1.6457  2.9863
  151SAPE   O3116636   4.890   1.953   6.762 -0.6870 -0.5258  0.0123
  151SAPE   C3116637   4.879   2.060   6.834  0.3631 -0.0345 -0.0895
  151SAPE   O3216638   4.868   2.067   6.954  0.4790 -0.3333 -0.3100
  151SAPE   C3216639   4.860   2.182   6.738 -0.2947 -0.4916 -0.4257
  151SAPE   H2X16640   4.888   2.278   6.787 -1.6581 -0.0048 -0.5456
  151SAPE   H2Y16641   4.751   2.198   6.722 -0.9000 -2.1217  1.7585
  151SAPE   C2316642   5.124   1.701   6.335 -0.4947 -0.0806 -0.1727
  151SAPE   H3R16643   5.018   1.706   6.303  0.3278 -0.9593 -3.3862
  151SAPE   H3S16644   5.156   1.597   6.360  2.3374  1.0696  1.4720
  151SAPE   C2416645   5.224   1.747   6.227  0.1271 -0.1639  0.0738
  151SAPE   H4R16646   5.213   1.858   6.224 -1.3073 -0.2542  1.0272
  151SAPE   H4S16647   5.185   1.709   6.130  0.1035  1.5205 -0.6184
  151SAPE   C2516648   5.365   1.702   6.261  0.3053  0.4378 -0.0746
  151SAPE   H5R16649   5.381   1.595   6.280 -0.7218  0.2854 -0.0104
  151SAPE   C2616650   5.472   1.782   6.282  0.5459  0.5167  0.0272
  151SAPE   H6R16651   5.566   1.730   6.304 -0.2183 -0.4917  1.0340
  151SAPE   C2716652   5.475   1.931   6.287 -0.4526 -0.3232  0.1860
  151SAPE   H7R16653   5.377   1.977   6.263 -1.1994 -0.3593  2.8433
  151SAPE   H7S16654   5.531   1.977   6.203  0.2513 -2.5362 -0.6359
  151SAPE   C2816655   5.514   1.990   6.418 -0.3464 -0.2965 -0.0549
  151SAPE   H8R16656   5.432   2.010   6.488  0.4609 -1.6821  1.3412
  151SAPE   C2916657   5.641   2.014   6.466 -0.0321  0.3908 -0.1673
  151SAPE   H9R16658   5.648   2.065   6.563  1.8355  1.1578 -0.6784
  151SAPE  C21016659   5.762   2.001   6.383 -0.4905  0.1193 -0.0643
  151SAPE  H10R16660   5.739   1.970   6.279 -0.8684 -2.1465  0.6203
  151SAPE  H10S16661   5.818   1.914   6.424  1.2950  2.3415  2.5336
  151SAPE  C21116662   5.853   2.123   6.377 -0.1456 -0.0584 -1.0019
  151SAPE  H11R16663   5.833   2.202   6.451 -1.9252 -1.2417 -0.1406
  151SAPE  C21216664   5.962   2.144   6.297  0.4017 -0.1315 -0.0962
  151SAPE  H12R16665   6.015   2.239   6.309 -1.3903  0.6780  2.2118
  151SAPE  C21316666   6.022   2.052   6.200 -0.1299  0.1249  0.4741
  151SAPE  H13R16667   5.974   2.076   6.102 -0.3259  0.5309  0.6670
  151SAPE  H13S16668   5.989   1.948   6.221  0.8482  0.1296  2.1578
  151SAPE  C21416669   6.170   2.062   6.185 -0.2240 -0.5949  0.4820
  151SAPE  H14R16670   6.222   2.088   6.279 -3.5697  2.1965  1.7730
  151SAPE  C21516671   6.236   2.020   6.069 -0.0706 -0.5676 -0.9692
  151SAPE  H15R16672   6.345   2.031   6.080 -0.5588  1.9557  3.3052
  151SAPE  C21616673   6.170   1.981   5.934 -0.4148 -0.3537 -0.1000
  151SAPE  H16R16674   6.088   1.907   5.945 -0.2734 -0.7174 -1.3490
  151SAPE  H16S16675   6.241   1.934   5.862 -1.0913  0.5688 -1.4258
  151SAPE  C21716676   6.106   2.105   5.854  0.5039  0.0630  0.4314
  151SAPE  H17R16677   6.178   2.190   5.851 -0.6240  1.0376 -1.4178
  151SAPE  H17S16678   6.025   2.148   5.917 -0.4988 -1.2729  0.0953
  151SAPE  C21816679   6.056   2.070   5.717  0.3712 -0.4722  0.2811
  151SAPE  H18R16680   5.976   1.994   5.722  0.0298 -0.2196 -0.9832
  151SAPE  H18S16681   6.141   2.029   5.658  0.9757 -0.3496  1.0465
  151SAPE  C21916682   6.008   2.196   5.649 -0.1457  0.0397  0.4460
  151SAPE  H19R16683   6.094   2.266   5.642 -0.6365  0.5350 -1.1100
  151SAPE  H19S16684   5.940   2.253   5.717  0.6277 -0.8144  1.9926
  151SAPE  C22016685   5.942   2.179   5.513 -0.5621 -0.3433  0.3910
  151SAPE  H20R16686   5.936   2.278   5.463  0.2762 -1.0962 -1.2637
  151SAPE  H20S16687   5.838   2.144   5.534 -0.4960 -0.3036  0.7906
  151SAPE  H20T16688   6.001   2.111   5.450  1.4115  3.0319 -1.6919
  151SAPE   C3316689   4.929   2.172   6.598  0.1554 -0.5695  0.1699
  151SAPE   H3X16690   4.891   2.093   6.530  2.3995 -0.2730 -1.5627
  151SAPE   H3Y16691   5.037   2.150   6.612 -0.1559 -1.3919  1.4206
  151SAPE   C3416692   4.912   2.300   6.518  0.8043 -0.4168 -0.4069
  151SAPE   H4X16693   4.999   2.368   6.534  0.7229 -0.4676  0.2739
  151SAPE   H4Y16694   4.822   2.353   6.554  2.0216  1.2214  0.3565
  151SAPE   C3516695   4.899   2.286   6.368 -0.0947 -0.0871 -0.5557
  151SAPE   H5X16696   4.878   2.382   6.316 -1.4082 -1.3415 -2.4648
  151SAPE   H5Y16697   4.815   2.219   6.341 -0.7634  0.4949  0.0353
  151SAPE   C3616698   5.020   2.215   6.317 -0.7618 -0.0309  0.4825
  151SAPE   H6X16699   5.031   2.113   6.362 -0.4883  0.8819  2.5888
  151SAPE   H6Y16700   5.112   2.270   6.347 -0.8587 -0.6873  2.0556
  151SAPE   C3716701   5.019   2.205   6.168  0.7439  0.1268 -0.2076
  151SAPE   H7X16702   4.915   2.182   6.137  0.7709 -0.6484  0.2307
  151SAPE   H7Y16703   5.078   2.121   6.124  1.4584 -0.4469  1.7520
  151SAPE   C3816704   5.063   2.330   6.089  0.1807 -0.3305  0.5311
  151SAPE   H8X16705   5.172   2.349   6.104  0.0236  0.8682  0.2627
  151SAPE   H8Y16706   5.003   2.414   6.131  0.2540 -0.6279  1.2335
  151SAPE   C3916707   5.052   2.327   5.935  0.5859 -0.6803  0.2166
  151SAPE   H9X16708   5.046   2.434   5.904  1.1991  0.1553  2.7911
  151SAPE   H9Y16709   4.964   2.265   5.908  0.2268  0.1306 -0.5368
  151SAPE  C31016710   5.181   2.256   5.882 -0.2674  0.8618  0.6794
  151SAPE  H10X16711   5.178   2.152   5.921  2.1373  0.2394 -0.5932
  151SAPE  H10Y16712   5.267   2.308   5.931  1.4559 -2.7624  1.8896
  151SAPE  C31116713   5.184   2.260   5.732 -0.6297 -0.3475 -0.6192
  151SAPE  H11X16714   5.098   2.203   5.690 -1.0741 -0.4108  0.3456
  151SAPE  H11Y16715   5.279   2.210   5.704  0.7038  1.2805  0.7783
  151SAPE  C31216716   5.192   2.397   5.672 -0.5719 -0.8771  0.9364
  151SAPE  H12X16717   5.281   2.450   5.714 -2.4841  1.6546  2.0843
  151SAPE  H12Y16718   5.107   2.465   5.693 -0.2192 -0.5983  1.4802
  151SAPE  C31316719   5.201   2.396   5.520 -0.3026  0.3039 -0.1580
  151SAPE  H13X16720   5.108   2.348   5.481 -0.5350  1.0413 -0.5475
  151SAPE  H13Y16721   5.285   2.335   5.482 -1.0329 -0.3550 -0.7282
  151SAPE  C31416722   5.204   2.542   5.466  0.0122  0.2644 -0.2868
  151SAPE  H14X16723   5.283   2.588   5.529 -0.1024  0.2176 -0.1057
  151SAPE  H14Y16724   5.111   2.597   5.491  0.0832  0.2212  0.0796
  151SAPE  C31516725   5.236   2.549   5.320 -0.7226  0.0494 -0.4191
  151SAPE  H15X16726   5.141   2.505   5.282 -1.3865  0.0915  1.1043
  151SAPE  H15Y16727   5.322   2.489   5.284 -0.3118  0.5366 -0.2666
  151SAPE  C31616728   5.263   2.693   5.282 -0.0724 -1.1359  0.1383
  151SAPE  H16X16729   5.367   2.717   5.311 -0.3199 -0.4012  0.4368
  151SAPE  H16Y16730   5.184   2.747   5.339 -1.0187 -0.9954 -1.2469
  151SAPE  C31716731   5.254   2.706   5.138  0.3248 -0.3691  0.7239
  151SAPE  H17X16732   5.153   2.674   5.104  0.8997 -0.5687 -0.9078
  151SAPE  H17Y16733   5.319   2.636   5.081 -0.8327 -0.7062 -0.2336
  151SAPE  C31816734   5.283   2.849   5.081  0.0085 -0.3827 -0.1679
  151SAPE  H18X16735   5.235   2.862   4.981 -0.1723  0.7214  0.0539
  151SAPE  H18Y16736   5.393   2.863   5.073 -0.2807  1.4107 -2.1785
  151SAPE  H18Z16737   5.237   2.926   5.146  0.2747  1.6413 -2.2406
  152SAPE     N16738   0.380   5.524   6.118  0.1632  0.0074 -0.1516
  152SAPE   HN116739   0.424   5.586   6.047  1.4365  2.2570  2.4636
  152SAPE   HN216740   0.443   5.522   6.200 -0.0136 -3.2933  0.0702
  152SAPE   HN316741   0.372   5.423   6.090 -1.2480  0.2154 -0.6176
  152SAPE   C1216742   0.244   5.584   6.150  0.5860  0.3808 -0.0129
  152SAPE  H12A16743   0.191   5.575   6.053  2.4364  0.0048 -1.0329
  152SAPE  H12B16744   0.261   5.693   6.163  3.9657 -0.0576  0.2547
  152SAPE   C1116745   0.176   5.513   6.272  0.1628 -0.4010  0.0332
  152SAPE  H11A16746   0.076   5.559   6.286  0.2621 -0.6226  1.7695
  152SAPE  H11B16747   0.222   5.536   6.371 -0.3814 -2.1329  0.7296
  152SAPE     P16748   0.104   5.280   6.362 -0.1786  0.0515  0.3546
  152SAPE   O1316749   0.072   5.343   6.492  0.0724 -0.3186 -0.1669
  152SAPE   O1416750  -0.005   5.203   6.293  0.0216 -0.9220  0.4195
  152SAPE   O1216751   0.167   5.375   6.251 -0.3968  0.9542  0.1742
  152SAPE   O1116752   0.220   5.176   6.389  0.0168 -0.0092 -0.0199
  152SAPE    C116753   0.363   5.204   6.406 -0.2108 -0.0656  0.0649
  152SAPE    HA16754   0.379   5.313   6.393  2.0335 -0.3216  0.2264
  152SAPE    HB16755   0.392   5.166   6.506  2.7584  0.8413 -0.3586
  152SAPE    C216756   0.462   5.139   6.303 -0.3564  0.1269  0.2434
  152SAPE    HS16757   0.526   5.215   6.253  2.1277 -3.0438 -1.8128
  152SAPE   O2116758   0.385   5.074   6.210  0.2700 -0.0055 -0.1266
  152SAPE   C2116759   0.354   5.135   6.106 -0.1868 -0.3680 -0.1326
  152SAPE   O2216760   0.396   5.251   6.078 -0.7430 -0.6971 -0.5501
  152SAPE   C2216761   0.257   5.050   6.025  0.0394  0.3722  0.3169
  152SAPE   H2R16762   0.300   4.948   6.017 -2.3091 -0.6975  0.3779
  152SAPE   H2S16763   0.162   5.035   6.082  1.1832 -2.9609  1.6385
  152SAPE    C316764   0.549   5.043   6.388  0.1279  0.0069 -0.3432
  152SAPE    HX16765   0.489   4.958   6.427  1.7610 -0.1535  1.9943
  152SAPE    HY16766   0.574   5.099   6.481 -5.3877  0.9725  0.9488
  152SAPE   O3116767   0.657   4.983   6.315 -0.2670  0.7518 -0.0473
  152SAPE   C3116768   0.752   5.079   6.283 -0.4228  0.9380  0.4062
  152SAPE   O3216769   0.751   5.196   6.312  0.0100 -0.3001 -0.2165
  152SAPE   C3216770   0.871   5.010   6.217  0.4219 -0.8773  0.3013
  152SAPE   H2X16771   0.863   5.028   6.108 -0.2808 -1.6510  0.2157
  152SAPE   H2Y16772   0.861   4.902   6.238  1.9426 -0.8776  1.1647
  152SAPE   C2316773   0.224   5.101   5.887 -0.2167 -0.0198  0.1336
  152SAPE   H3R16774   0.217   5.010   5.822  0.5795  0.7884 -1.1291
  152SAPE   H3S16775   0.304   5.162   5.841  0.1402 -0.8068 -0.3243
  152SAPE   C2416776   0.090   5.175   5.870 -0.0565  0.3529  0.2921
  152SAPE   H4R16777   0.111   5.236   5.780  2.6666 -0.0402  0.5793
  152SAPE   H4S16778   0.082   5.247   5.955  1.8884 -0.7089  1.4630
  152SAPE   C2516779  -0.037   5.087   5.850  0.3601 -0.4228 -0.3939
  152SAPE   H5R16780  -0.079   5.046   5.943  2.0109 -0.2456  0.4731
  152SAPE   C2616781  -0.103   5.055   5.734 -0.3962  0.0077  0.9066
  152SAPE   H6R16782  -0.193   4.995   5.749  1.4927 -3.4190 -0.3089
  152SAPE   C2716783  -0.060   5.086   5.590  0.3657  0.4632 -0.5089
  152SAPE   H7R16784   0.005   5.002   5.559  1.6169  0.7266  1.2555
  152SAPE   H7S16785   0.008   5.173   5.578  0.6263  0.4789  0.9135
  152SAPE   C2816786  -0.177   5.115   5.501  0.5605  0.5777  0.7465
  152SAPE   H8R16787  -0.263   5.167   5.547 -0.7472  1.7747 -2.7311
  152SAPE   C2916788  -0.187   5.073   5.372 -0.1127  0.8204 -0.6103
  152SAPE   H9R16789  -0.282   5.099   5.322 -0.8256  0.6344  0.5933
  152SAPE  C21016790  -0.091   4.985   5.297 -0.6460 -1.2995 -0.0238
  152SAPE  H10R16791   0.011   5.021   5.322  0.2916 -2.8066 -1.4424
  152SAPE  H10S16792  -0.103   5.008   5.188 -1.3029 -1.2261  0.0624
  152SAPE  C21116793  -0.110   4.840   5.311 -0.3687 -0.4124  0.2224
  152SAPE  H11R16794  -0.191   4.806   5.377  2.0951  0.6234  4.1023
  152SAPE  C21216795  -0.048   4.748   5.233  0.2602  0.6066 -0.2266
  152SAPE  H12R16796  -0.073   4.644   5.258 -0.8654  1.1819  1.1648
  152SAPE  C21316797   0.046   4.776   5.121 -0.6222  0.8509  0.0137
  152SAPE  H13R16798   0.147   4.804   5.158 -0.0102  0.3204 -1.2082
  152SAPE  H13S16799   0.012   4.863   5.062  2.3430  1.4951 -0.8939
  152SAPE  C21416800   0.062   4.644   5.048 -0.3702  0.5948  0.0350
  152SAPE  H14R16801   0.108   4.564   5.107 -0.4271  0.2300 -0.4041
  152SAPE  C21516802   0.031   4.635   4.915  0.4307  0.0311  0.0580
  152SAPE  H15R16803   0.040   4.540   4.861  0.2058  1.8086 -3.4013
  152SAPE  C21616804  -0.047   4.741   4.834 -0.1485  0.2893  0.0641
  152SAPE  H16R16805  -0.031   4.845   4.872 -1.5554 -0.3345  2.6240
  152SAPE  H16S16806  -0.156   4.721   4.841 -0.0314 -0.9641 -1.3766
  152SAPE  C21716807  -0.005   4.751   4.684  0.5624  0.9168  0.3855
  152SAPE  H17R16808  -0.064   4.830   4.634  1.4030  0.2826 -1.6965
  152SAPE  H17S16809  -0.020   4.654   4.631  2.4325  0.9565 -0.2641
  152SAPE  C21816810   0.134   4.798   4.659  0.0098 -0.2842  0.2029
  152SAPE  H18R16811   0.211   4.726   4.695 -1.5360 -2.6466 -0.9608
  152SAPE  H18S16812   0.151   4.898   4.705 -2.3788 -0.7262  2.2500
  152SAPE  C21916813   0.147   4.806   4.510 -0.1581  0.4717 -0.3757
  152SAPE  H19R16814   0.047   4.822   4.465  0.1623  0.2004 -1.2085
  152SAPE  H19S16815   0.178   4.704   4.479 -0.0071 -0.1042  1.4969
  152SAPE  C22016816   0.241   4.914   4.464  0.8683  0.4269 -0.3417
  152SAPE  H20R16817   0.254   4.937   4.356  1.1319 -0.8443 -0.5944
  152SAPE  H20S16818   0.343   4.900   4.507  1.4384  0.9256 -1.4919
  152SAPE  H20T16819   0.207   5.005   4.519  0.5693  0.7049 -0.9780
  152SAPE   C3316820   1.005   5.041   6.288 -0.2726  0.1599  0.5593
  152SAPE   H3X16821   1.025   5.006   6.392 -0.8323 -1.2927  0.2051
  152SAPE   H3Y16822   1.005   5.151   6.301  1.9935  0.2089  0.6270
  152SAPE   C3416823   1.125   5.013   6.193  0.1243 -0.3940 -0.4410
  152SAPE   H4X16824   1.118   4.911   6.151 -2.1452 -0.0130 -1.1131
  152SAPE   H4Y16825   1.222   5.021   6.247  0.2317 -0.6290 -0.5998
  152SAPE   C3516826   1.128   5.108   6.075 -0.3849 -0.0037 -0.4197
  152SAPE   H5X16827   1.036   5.084   6.018  0.8569 -4.4185 -0.9503
  152SAPE   H5Y16828   1.215   5.075   6.015  0.2718  1.0101 -0.0549
  152SAPE   C3616829   1.169   5.253   6.127 -0.2702  0.8075  0.5309
  152SAPE   H6X16830   1.269   5.249   6.174 -0.2877  1.6961  0.6739
  152SAPE   H6Y16831   1.094   5.291   6.200 -2.7299  0.6557 -1.7674
  152SAPE   C3716832   1.182   5.349   6.009 -0.3032 -0.1132  0.0382
  152SAPE   H7X16833   1.246   5.311   5.926  0.3043 -0.1678  0.5245
  152SAPE   H7Y16834   1.225   5.440   6.056 -0.3871  1.0181 -1.9490
  152SAPE   C3816835   1.049   5.393   5.939  0.4080 -0.5699  0.5958
  152SAPE   H8X16836   0.989   5.455   6.009 -0.6823 -0.4479 -0.4158
  152SAPE   H8Y16837   0.992   5.303   5.907  0.4255 -0.1842 -0.5947
  152SAPE   C3916838   1.070   5.479   5.809 -0.6867 -0.4346 -0.6249
  152SAPE   H9X16839   0.970   5.483   5.761 -0.6107 -3.2893 -1.1644
  152SAPE   H9Y16840   1.140   5.425   5.742  1.1659  1.7236 -0.5409
  152SAPE  C31016841   1.132   5.618   5.841 -0.2515 -0.6947 -0.7940
  152SAPE  H10X16842   1.237   5.594   5.866 -0.9593 -0.6470  2.6965
  152SAPE  H10Y16843   1.082   5.659   5.932 -0.1610  1.7882 -1.7788
  152SAPE  C31116844   1.114   5.725   5.730 -0.5886  0.0723 -0.0795
  152SAPE  H11X16845   1.172   5.817   5.755 -0.7185 -0.3001  1.6769
  152SAPE  H11Y16846   1.008   5.757   5.719 -0.2450  1.5698  0.6450
  152SAPE  C31216847   1.159   5.669   5.594 -0.0392  0.4401 -0.1210
  152SAPE  H12X16848   1.109   5.743   5.528 -0.3131  0.8183  0.4960
  152SAPE  H12Y16849   1.109   5.571   5.577 -1.2909  1.2533 -1.3474
  152SAPE  C31316850   1.303   5.650   5.578  1.0209 -0.0607 -0.4103
  152SAPE  H13X16851   1.331   5.583   5.662  2.0444 -0.1011 -0.7718
  152SAPE  H13Y16852   1.350   5.747   5.603  1.0045  0.0015 -0.6221
  152SAPE  C31416853   1.346   5.604   5.439  0.0246 -0.0462 -0.4934
  152SAPE  H14X16854   1.317   5.499   5.419  1.3742 -0.0790 -2.5866
  152SAPE  H14Y16855   1.456   5.617   5.430  0.3234 -2.9908 -2.6272
  152SAPE  C31516856   1.302   5.702   5.323  0.9376  0.1865 -0.4102
  152SAPE  H15X16857   1.323   5.805   5.357  0.5613 -0.0267  0.5032
  152SAPE  H15Y16858   1.193   5.682   5.313  0.8818 -2.3149  3.1538
  152SAPE  C31616859   1.372   5.684   5.190 -0.2510  0.3584  0.2149
  152SAPE  H16X16860   1.324   5.599   5.137 -0.9543  1.1360 -0.4149
  152SAPE  H16Y16861   1.480   5.672   5.215 -0.3775 -1.2809  0.1230
  152SAPE  C31716862   1.352   5.809   5.102  0.4402 -0.1721  0.1459
  152SAPE  H17X16863   1.398   5.769   5.009 -0.0457 -1.9793  0.6432
  152SAPE  H17Y16864   1.408   5.902   5.125 -2.6746  1.9058 -0.1360
  152SAPE  C31816865   1.210   5.847   5.078  1.1343 -0.5009  0.0185
  152SAPE  H18X16866   1.145   5.863   5.167 -1.0820  0.1786 -1.6456
  152SAPE  H18Y16867   1.162   5.766   5.019  1.2698 -0.4001 -0.2311
  152SAPE  H18Z16868   1.208   5.944   5.025  0.3208 -0.4415  0.1439
  153SAPE     N16869   0.379   2.524   6.902  0.0626  0.2277 -0.1406
  153SAPE   HN116870   0.287   2.483   6.877 -0.1255  0.4493  0.1854
  153SAPE   HN216871   0.436   2.538   6.815 -0.1658  0.6081 -0.2301
  153SAPE   HN316872   0.434   2.463   6.965 -1.2879 -1.0513 -0.1657
  153SAPE   C1216873   0.361   2.650   6.983  0.0600 -0.4986 -0.0536
  153SAPE  H12A16874   0.379   2.624   7.089 -0.2171 -0.6779 -0.0503
  153SAPE  H12B16875   0.259   2.691   6.965  0.6005  1.4363  0.9910
  153SAPE   C1116876   0.468   2.757   6.941  0.1510 -0.3046  0.4351
  153SAPE  H11A16877   0.468   2.843   7.011 -0.1775  1.7268 -1.9057
  153SAPE  H11B16878   0.438   2.806   6.845 -0.5057  1.5081  1.5192
  153SAPE     P16879   0.724   2.763   6.973  0.1040 -0.1668 -0.2136
  153SAPE   O1316880   0.679   2.832   7.098 -0.1186 -0.0577 -0.9209
  153SAPE   O1416881   0.834   2.663   6.996  0.1107 -0.6259 -0.7658
  153SAPE   O1216882   0.596   2.703   6.909 -0.4842 -0.0101  0.2453
  153SAPE   O1116883   0.776   2.864   6.872 -0.1164  0.5089 -0.0001
  153SAPE    C116884   0.745   2.999   6.856  0.5670 -0.5348  0.5450
  153SAPE    HA16885   0.648   3.005   6.801 -0.0548 -2.8042  1.2748
  153SAPE    HB16886   0.731   3.047   6.955  0.4626  0.9351 -0.1602
  153SAPE    C216887   0.849   3.076   6.773  0.2197  0.1994 -0.2809
  153SAPE    HS16888   0.827   3.184   6.768  2.0126  0.5714 -0.8225
  153SAPE   O2116889   0.861   3.026   6.638 -0.4058  0.0666 -0.5597
  153SAPE   C2116890   0.759   3.065   6.565  0.1195  0.5644  0.1786
  153SAPE   O2216891   0.664   3.135   6.599 -0.1158  0.3677  0.5261
  153SAPE   C2216892   0.775   3.006   6.430 -0.6100 -0.2890  1.3557
  153SAPE   H2R16893   0.697   3.060   6.372  0.0437  0.5601  1.2427
  153SAPE   H2S16894   0.865   3.044   6.378 -1.1747  1.9375  1.8574
  153SAPE    C316895   0.990   3.075   6.848  0.5259  0.1786 -0.1034
  153SAPE    HX16896   1.007   2.974   6.890  0.6338  0.2018 -0.0885
  153SAPE    HY16897   0.989   3.142   6.937  0.5714 -0.1128  0.1185
  153SAPE   O3116898   1.088   3.120   6.759 -0.5459 -0.3054  0.0112
  153SAPE   C3116899   1.167   3.025   6.707  0.5044  0.3400 -0.3817
  153SAPE   O3216900   1.163   2.902   6.729  0.6932 -0.5142 -0.4093
  153SAPE   C3216901   1.262   3.076   6.604 -0.1784  0.8485  0.1811
  153SAPE   H2X16902   1.284   3.185   6.610  0.5658  0.7384 -0.4486
  153SAPE   H2Y16903   1.211   3.045   6.511 -0.5634 -0.5996  0.8449
  153SAPE   C2316904   0.761   2.848   6.412  0.7915  0.4370  0.5388
  153SAPE   H3R16905   0.671   2.808   6.464  0.5855  0.5364  0.2626
  153SAPE   H3S16906   0.843   2.797   6.467 -0.4914  0.4882  2.5996
  153SAPE   C2416907   0.743   2.800   6.269  0.4160  0.8486  0.4405
  153SAPE   H4R16908   0.651   2.847   6.231  0.7427  0.4359 -0.9253
  153SAPE   H4S16909   0.728   2.690   6.258  0.3932  0.7653  1.2350
  153SAPE   C2516910   0.864   2.838   6.194 -0.4127  0.3573  0.7386
  153SAPE   H5R16911   0.961   2.827   6.245  0.7359  1.1124 -1.1810
  153SAPE   C2616912   0.869   2.871   6.070  0.3355 -0.0116  1.0442
  153SAPE   H6R16913   0.969   2.894   6.029  0.6794  0.1636  1.9569
  153SAPE   C2716914   0.764   2.880   5.964  0.2247 -0.2438  0.1157
  153SAPE   H7R16915   0.727   2.984   5.962 -2.8304 -1.2153  1.3850
  153SAPE   H7S16916   0.678   2.824   6.006 -1.6938  2.2684 -0.2662
  153SAPE   C2816917   0.803   2.826   5.826 -0.0958 -0.2268  0.4331
  153SAPE   H8R16918   0.909   2.804   5.809  0.5639 -0.2017  3.7457
  153SAPE   C2916919   0.718   2.790   5.723  0.4998 -0.9384  0.3196
  153SAPE   H9R16920   0.758   2.747   5.630  0.9350 -3.1027  1.4490
  153SAPE  C21016921   0.571   2.803   5.737  0.3230 -0.3680  0.4615
  153SAPE  H10R16922   0.532   2.884   5.671 -1.0091 -1.1217  0.2905
  153SAPE  H10S16923   0.530   2.825   5.839 -0.3830  1.1124 -0.1119
  153SAPE  C21116924   0.516   2.668   5.701 -0.0003 -0.4347  0.5199
  153SAPE  H11R16925   0.475   2.613   5.787  1.3320 -2.9528 -0.3538
  153SAPE  C21216926   0.496   2.622   5.574  0.7338 -0.4985 -0.2348
  153SAPE  H12R16927   0.457   2.520   5.565 -2.2957  0.4406  1.0517
  153SAPE  C21316928   0.566   2.685   5.452  0.6078 -0.4174  0.4777
  153SAPE  H13R16929   0.618   2.778   5.484 -1.0630  0.1695  1.6004
  153SAPE  H13S16930   0.483   2.727   5.392  1.1092 -1.7627 -1.2270
  153SAPE  C21416931   0.659   2.593   5.375 -0.8248  0.5241 -0.3260
  153SAPE  H14R16932   0.684   2.507   5.439 -2.1624 -1.6464 -2.5535
  153SAPE  C21516933   0.702   2.604   5.252  0.1240 -0.6872  0.1968
  153SAPE  H15R16934   0.770   2.530   5.208  2.0555  1.2577 -0.3065
  153SAPE  C21616935   0.665   2.712   5.149  0.2641  0.3696  0.6497
  153SAPE  H16R16936   0.751   2.780   5.136  0.8379 -0.7284 -1.9202
  153SAPE  H16S16937   0.578   2.773   5.182 -1.1232 -1.1985  0.0662
  153SAPE  C21716938   0.615   2.646   5.011  0.0141  0.0937 -0.2497
  153SAPE  H17R16939   0.589   2.726   4.939 -1.5935  0.1083  0.2912
  153SAPE  H17S16940   0.511   2.615   5.033  0.2260 -0.0980  0.5346
  153SAPE  C21816941   0.707   2.537   4.947  0.7258  0.3074  0.5671
  153SAPE  H18R16942   0.725   2.455   5.020  1.3221 -0.6635 -0.6517
  153SAPE  H18S16943   0.808   2.576   4.922 -0.5859  2.7459 -1.3886
  153SAPE  C21916944   0.657   2.478   4.810 -0.2684  0.1924 -0.1557
  153SAPE  H19R16945   0.568   2.416   4.832 -0.9463 -0.0322 -3.0803
  153SAPE  H19S16946   0.741   2.420   4.765  0.9800  1.8327 -0.0067
  153SAPE  C22016947   0.613   2.593   4.709 -0.1805 -0.6096 -0.8118
  153SAPE  H20R16948   0.510   2.624   4.738  1.3338  3.4605  0.9116
  153SAPE  H20S16949   0.630   2.559   4.605  1.4138  1.7358 -1.4028
  153SAPE  H20T16950   0.684   2.677   4.728  0.0992 -1.0212 -0.0092
  153SAPE   C3316951   1.402   2.998   6.605  0.4344  0.0534  0.1685
  153SAPE   H3X16952   1.384   2.888   6.602  1.0101 -0.0739  1.1522
  153SAPE   H3Y16953   1.457   3.029   6.696 -0.5254  0.8671  0.4947
  153SAPE   C3416954   1.486   3.041   6.484  0.0648  0.0518  0.3490
  153SAPE   H4X16955   1.594   3.026   6.506  0.0757  1.3723  1.3410
  153SAPE   H4Y16956   1.488   3.151   6.473 -0.1579  0.3712  2.7812
  153SAPE   C3516957   1.444   2.984   6.341  0.7293  0.1654 -0.7136
  153SAPE   H5X16958   1.349   3.039   6.321  0.3673 -0.0908  0.2567
  153SAPE   H5Y16959   1.420   2.876   6.353 -0.8296  0.5285 -0.3911
  153SAPE   C3616960   1.542   3.018   6.238 -0.2379 -0.1519  0.2148
  153SAPE   H6X16961   1.635   2.967   6.270 -0.8225 -0.3129  1.7346
  153SAPE   H6Y16962   1.557   3.127   6.226 -1.8808 -0.1475 -3.1739
  153SAPE   C3716963   1.508   2.974   6.096 -0.0678  0.0631 -0.1371
  153SAPE   H7X16964   1.406   3.011   6.071 -0.1826  0.6807  1.1430
  153SAPE   H7Y16965   1.505   2.863   6.088 -0.6711  0.1094 -0.6166
  153SAPE   C3816966   1.613   3.022   5.999 -0.8256  0.0020 -0.5782
  153SAPE   H8X16967   1.709   2.992   6.045 -1.6304 -0.2464  1.0072
  153SAPE   H8Y16968   1.612   3.133   5.984  1.2475 -0.0192 -1.2110
  153SAPE   C3916969   1.596   2.960   5.860 -0.2113  0.0811 -0.5767
  153SAPE   H9X16970   1.649   3.033   5.795 -2.3669  0.9197 -1.4782
  153SAPE   H9Y16971   1.488   2.951   5.840 -0.6181 -0.1673  1.5449
  153SAPE  C31016972   1.680   2.825   5.845 -0.3213 -0.3627  0.6419
  153SAPE  H10X16973   1.637   2.743   5.906 -0.6048 -0.3568  0.4509
  153SAPE  H10Y16974   1.780   2.854   5.885 -0.7408  0.4183  1.1555
  153SAPE  C31116975   1.678   2.782   5.693  0.1556 -0.1721 -1.0671
  153SAPE  H11X16976   1.574   2.764   5.659 -0.9862  1.6703  1.1891
  153SAPE  H11Y16977   1.739   2.690   5.679  0.5161  0.2959 -2.7855
  153SAPE  C31216978   1.749   2.882   5.598  0.5246 -0.0661  0.6407
  153SAPE  H12X16979   1.857   2.887   5.623  0.7149 -0.6740 -0.0417
  153SAPE  H12Y16980   1.695   2.979   5.610 -0.1802 -0.7669  4.4274
  153SAPE  C31316981   1.756   2.838   5.454  0.1640  0.0257  0.7616
  153SAPE  H13X16982   1.825   2.752   5.436 -1.4490 -0.7023 -2.9518
  153SAPE  H13Y16983   1.784   2.922   5.387  0.2777  0.7979  1.7625
  153SAPE  C31416984   1.629   2.793   5.380  0.3622  0.3688 -0.1097
  153SAPE  H14X16985   1.564   2.882   5.373 -0.0059  0.0290 -1.4233
  153SAPE  H14Y16986   1.578   2.704   5.425  0.7148  0.1675 -0.1031
  153SAPE  C31516987   1.647   2.763   5.232 -0.8324 -0.9131  0.0168
  153SAPE  H15X16988   1.735   2.696   5.234  1.2981  1.7165 -0.5554
  153SAPE  H15Y16989   1.691   2.845   5.171 -2.1594 -0.7284 -0.7366
  153SAPE  C31616990   1.526   2.700   5.170  0.3998 -0.2428  0.4812
  153SAPE  H16X16991   1.431   2.734   5.216  1.1694 -0.5603  2.3694
  153SAPE  H16Y16992   1.535   2.591   5.188  1.9207 -0.1669  0.3588
  153SAPE  C31716993   1.515   2.720   5.021  0.1940 -0.3791  0.4708
  153SAPE  H17X16994   1.498   2.828   5.002  1.3896 -0.4662 -1.3228
  153SAPE  H17Y16995   1.421   2.669   4.991 -0.9917  3.1861 -2.6971
  153SAPE  C31816996   1.634   2.676   4.943 -0.1099  0.4205 -0.0608
  153SAPE  H18X16997   1.718   2.748   4.955 -1.3745  1.8619  0.4383
  153SAPE  H18Y16998   1.617   2.664   4.834  3.6009 -0.6483 -0.6829
  153SAPE  H18Z16999   1.664   2.572   4.967 -1.4141  0.1012  0.2379
  154SAPE     N17000   4.250   1.171   7.286 -0.7572  1.0341  0.0786
  154SAPE   HN117001   4.196   1.127   7.363 -0.7314 -2.9924 -1.9033
  154SAPE   HN217002   4.335   1.218   7.324  0.5045 -1.6700  0.8519
  154SAPE   HN317003   4.192   1.244   7.240 -2.7367 -0.5516 -0.0993
  154SAPE   C1217004   4.290   1.061   7.184  0.7941 -0.4418  0.0492
  154SAPE  H12A17005   4.198   1.022   7.136  0.5129  1.7815 -1.3698
  154SAPE  H12B17006   4.339   0.975   7.233 -2.2796 -3.0368 -1.0801
  154SAPE   C1117007   4.380   1.117   7.075  0.2230  0.1386 -0.1686
  154SAPE  H11A17008   4.328   1.189   7.008  0.0264  0.3009  0.1606
  154SAPE  H11B17009   4.413   1.036   7.006 -0.3437  0.4163 -0.7746
  154SAPE     P17010   4.587   1.276   7.047 -0.3103  0.0853 -0.2261
  154SAPE   O1317011   4.524   1.409   7.030 -0.3145 -0.2279  0.2746
  154SAPE   O1417012   4.719   1.283   7.115 -0.0349 -0.1802 -0.5011
  154SAPE   O1217013   4.495   1.176   7.133  0.1867  0.1047 -0.4774
  154SAPE   O1117014   4.602   1.205   6.909  0.5962 -0.2299  0.3985
  154SAPE    C117015   4.663   1.075   6.902 -0.1079 -0.1969  0.0490
  154SAPE    HA17016   4.696   1.034   7.000  0.5468 -0.7714 -0.4060
  154SAPE    HB17017   4.598   0.999   6.853 -1.2111  0.1624  0.9093
  154SAPE    C217018   4.795   1.081   6.815  0.3923 -0.1214  1.3597
  154SAPE    HS17019   4.849   1.168   6.859  0.2919 -0.8388  2.9972
  154SAPE   O2117020   4.754   1.094   6.675 -0.7967 -0.0005  1.0040
  154SAPE   C2117021   4.850   1.130   6.590 -0.7613 -0.0635 -0.0719
  154SAPE   O2217022   4.969   1.148   6.611  0.1014 -0.5871  0.4499
  154SAPE   C2217023   4.788   1.132   6.454 -0.3773 -0.0092  0.2563
  154SAPE   H2R17024   4.804   1.030   6.412 -2.0418  0.1057 -0.7247
  154SAPE   H2S17025   4.678   1.146   6.465 -0.5986 -1.0554 -0.4800
  154SAPE    C317026   4.892   0.961   6.840 -0.1804 -0.6644  0.2457
  154SAPE    HX17027   4.938   0.979   6.939  0.5312  0.8750 -0.3375
  154SAPE    HY17028   4.972   0.956   6.763 -0.3194 -1.2564  0.1373
  154SAPE   O3117029   4.823   0.836   6.840  0.1756 -0.1683 -0.3136
  154SAPE   C3117030   4.822   0.768   6.729  0.0921 -0.1441 -0.2990
  154SAPE   O3217031   4.891   0.789   6.629  0.4601  0.2519 -0.4610
  154SAPE   C3217032   4.722   0.661   6.743 -0.7365  0.2710  0.5095
  154SAPE   H2X17033   4.749   0.590   6.823 -2.2907 -0.9504 -0.0021
  154SAPE   H2Y17034   4.725   0.613   6.643  0.2570  1.1215  0.1168
  154SAPE   C2317035   4.849   1.239   6.364  0.3849 -0.4009  0.3496
  154SAPE   H3R17036   4.799   1.215   6.268  1.6041 -0.6490 -0.2498
  154SAPE   H3S17037   4.958   1.216   6.364  1.0299  1.9440 -2.7299
  154SAPE   C2417038   4.820   1.380   6.404  0.2585 -0.4727  0.1970
  154SAPE   H4R17039   4.895   1.408   6.482  1.7345 -0.5740 -1.1339
  154SAPE   H4S17040   4.718   1.389   6.447  1.1464 -1.2689  2.6698
  154SAPE   C2517041   4.846   1.464   6.285  0.0046  0.8954 -0.0331
  154SAPE   H5R17042   4.943   1.431   6.244  0.9610  0.6000  2.3269
  154SAPE   C2617043   4.779   1.568   6.235  0.5841 -0.0356 -0.8190
  154SAPE   H6R17044   4.813   1.616   6.142  0.8187  0.1704 -0.6269
  154SAPE   C2717045   4.654   1.632   6.292 -1.1861 -0.3859 -0.6698
  154SAPE   H7R17046   4.606   1.550   6.350  1.4830 -1.5181  0.0581
  154SAPE   H7S17047   4.583   1.667   6.213 -0.5340 -0.0396 -1.1168
  154SAPE   C2817048   4.685   1.746   6.383 -0.0781  0.0309  0.2362
  154SAPE   H8R17049   4.671   1.735   6.492  1.1253 -0.2440  0.3785
  154SAPE   C2917050   4.722   1.871   6.362 -0.5200 -0.2053 -0.1266
  154SAPE   H9R17051   4.745   1.934   6.449  1.7669 -0.1253 -0.7315
  154SAPE  C21017052   4.757   1.922   6.223  0.0202  0.0388  0.0292
  154SAPE  H10R17053   4.771   1.839   6.151  0.5463 -1.0298  1.3185
  154SAPE  H10S17054   4.859   1.963   6.240  0.3029 -0.8123  0.4462
  154SAPE  C21117055   4.657   2.025   6.173  0.3884  0.2235 -0.5495
  154SAPE  H11R17056   4.593   2.068   6.251  0.5563 -0.0598 -0.2543
  154SAPE  C21217057   4.646   2.065   6.045 -0.0682  0.0072 -0.9685
  154SAPE  H12R17058   4.580   2.149   6.018 -0.0493 -0.2724 -1.9382
  154SAPE  C21317059   4.726   1.998   5.927  0.3623  0.2365  0.1036
  154SAPE  H13R17060   4.748   1.891   5.949 -2.1978 -0.0011  2.0814
  154SAPE  H13S17061   4.817   2.062   5.925  0.4860  0.0783  0.4825
  154SAPE  C21417062   4.659   2.015   5.787  0.5623  0.6420 -0.1844
  154SAPE  H14R17063   4.549   2.019   5.790  0.5284 -0.4756  0.8761
  154SAPE  C21517064   4.724   2.029   5.669 -0.0135  0.0151  0.1047
  154SAPE  H15R17065   4.674   2.066   5.578 -1.9509 -1.7612  0.3805
  154SAPE  C21617066   4.874   2.028   5.659  0.1576  0.4527  0.3796
  154SAPE  H16R17067   4.934   2.036   5.752 -0.1143  0.4180  0.5600
  154SAPE  H16S17068   4.889   2.118   5.595  1.2525  0.8177  1.1221
  154SAPE  C21717069   4.929   1.906   5.574  0.0061  0.0482 -0.1058
  154SAPE  H17R17070   4.875   1.901   5.477 -0.8821  1.0540  0.3025
  154SAPE  H17S17071   4.901   1.810   5.621  0.6505 -0.1492 -0.1142
  154SAPE  C21817072   5.079   1.911   5.556  0.3460  0.0548 -0.2212
  154SAPE  H18R17073   5.129   1.953   5.646 -2.3222 -0.9881  1.9090
  154SAPE  H18S17074   5.117   1.975   5.474  1.0056  1.2735  0.9960
  154SAPE  C21917075   5.137   1.769   5.546 -0.4794  0.5428  0.0345
  154SAPE  H19R17076   5.132   1.718   5.645  2.9018  2.2291  1.2377
  154SAPE  H19S17077   5.246   1.783   5.532 -0.9153  4.1558 -0.9177
  154SAPE  C22017078   5.084   1.678   5.429  0.3050  0.2161 -0.9119
  154SAPE  H20R17079   5.162   1.613   5.384 -1.6453 -2.6261 -0.4923
  154SAPE  H20S17080   5.030   1.734   5.349 -2.3317  0.9131  1.2114
  154SAPE  H20T17081   5.008   1.613   5.477 -0.7809  2.5325  0.6979
  154SAPE   C3317082   4.575   0.709   6.775 -0.6593 -0.3736  0.4420
  154SAPE   H3X17083   4.558   0.744   6.879 -1.1632 -0.1685  0.2983
  154SAPE   H3Y17084   4.512   0.619   6.755 -0.2597 -0.4693 -0.4084
  154SAPE   C3417085   4.531   0.817   6.671 -0.0092 -0.4287 -0.2645
  154SAPE   H4X17086   4.601   0.903   6.673  1.7653 -1.7313 -2.0713
  154SAPE   H4Y17087   4.427   0.853   6.682  0.2199  0.4958 -0.9661
  154SAPE   C3517088   4.539   0.761   6.527 -0.2396  0.9659  0.5264
  154SAPE   H5X17089   4.503   0.656   6.531 -1.2275  1.3198  1.2352
  154SAPE   H5Y17090   4.645   0.752   6.496 -0.4425 -0.6431  0.2484
  154SAPE   C3617091   4.463   0.844   6.427  0.6948 -0.3867  0.0511
  154SAPE   H6X17092   4.502   0.948   6.424  3.0630 -1.2360 -0.1551
  154SAPE   H6Y17093   4.361   0.851   6.472  0.8411  4.1618  0.1012
  154SAPE   C3717094   4.461   0.780   6.285 -0.1427 -0.2883 -0.2916
  154SAPE   H7X17095   4.398   0.688   6.286 -0.6599  0.0578 -0.3549
  154SAPE   H7Y17096   4.567   0.751   6.270 -0.2054 -0.2066 -0.9528
  154SAPE   C3817097   4.417   0.872   6.170 -0.2637  0.0308  0.3007
  154SAPE   H8X17098   4.498   0.947   6.162 -0.6499  0.2968 -2.0076
  154SAPE   H8Y17099   4.320   0.921   6.191 -0.7563 -1.4596  1.7238
  154SAPE   C3917100   4.406   0.790   6.042  1.0929 -0.2816  0.5768
  154SAPE   H9X17101   4.345   0.703   6.074  0.5302  0.1756  0.7555
  154SAPE   H9Y17102   4.505   0.746   6.018  0.6035 -0.2509 -1.6697
  154SAPE  C31017103   4.344   0.869   5.927  0.3246 -0.8351 -0.7343
  154SAPE  H10X17104   4.248   0.912   5.963  0.5147 -1.3285  0.3910
  154SAPE  H10Y17105   4.310   0.795   5.852  1.3871 -0.4112 -1.6633
  154SAPE  C31117106   4.444   0.961   5.849 -0.7125  0.1133 -0.3053
  154SAPE  H11X17107   4.533   0.895   5.834  0.3639  1.0808  1.4597
  154SAPE  H11Y17108   4.478   1.039   5.920  0.8704  0.4037 -1.3170
  154SAPE  C31217109   4.388   1.026   5.723  0.3024  0.2740  0.2899
  154SAPE  H12X17110   4.298   1.086   5.749 -0.0185 -0.3955  0.7588
  154SAPE  H12Y17111   4.369   0.945   5.649 -0.3983 -1.6465  2.4455
  154SAPE  C31317112   4.486   1.123   5.659 -0.4874  0.1733  0.4898
  154SAPE  H13X17113   4.579   1.071   5.628  0.0128  1.6212 -0.5567
  154SAPE  H13Y17114   4.516   1.216   5.713 -1.3049  2.0803 -2.1057
  154SAPE  C31417115   4.423   1.180   5.539  1.1823  0.3334  0.2252
  154SAPE  H14X17116   4.359   1.268   5.560  0.0701 -0.4087  0.0261
  154SAPE  H14Y17117   4.371   1.103   5.479 -2.6347  1.8977  1.2322
  154SAPE  C31517118   4.527   1.236   5.444  0.2854 -0.3026 -0.7956
  154SAPE  H15X17119   4.603   1.159   5.419  1.9557  1.4812 -1.4153
  154SAPE  H15Y17120   4.578   1.315   5.503  1.9093 -1.2916 -0.8156
  154SAPE  C31617121   4.472   1.287   5.312  0.5369 -0.1175  0.1259
  154SAPE  H16X17122   4.375   1.338   5.332 -0.8065 -2.4694 -0.0002
  154SAPE  H16Y17123   4.467   1.202   5.241  1.8933 -0.2597  0.1699
  154SAPE  C31717124   4.574   1.384   5.252 -0.2894 -0.2452  0.0573
  154SAPE  H17X17125   4.657   1.317   5.220  2.1385  2.8613 -0.6685
  154SAPE  H17Y17126   4.616   1.452   5.329  1.0192 -2.5875  1.5277
  154SAPE  C31817127   4.531   1.471   5.127 -0.2326  0.0318  0.6482
  154SAPE  H18X17128   4.441   1.529   5.156 -1.1810  0.6140 -2.9819
  154SAPE  H18Y17129   4.508   1.409   5.037 -0.7192  1.4848 -0.2576
  154SAPE  H18Z17130   4.608   1.548   5.106  0.8223 -1.1095  0.2409
  155SAPE     N17131   6.615   2.762   6.936  0.4613  0.4902 -0.4450
  155SAPE   HN117132   6.518   2.748   6.972  0.5204  0.8724 -0.1324
  155SAPE   HN217133   6.625   2.861   6.907 -0.3873  2.0054  3.6960
  155SAPE   HN317134   6.620   2.700   6.853  2.6692  0.0813 -0.0858
  155SAPE   C1217135   6.710   2.708   7.039  0.6107 -0.5326  0.6184
  155SAPE  H12A17136   6.673   2.614   7.085 -0.0799 -1.9400 -2.5679
  155SAPE  H12B17137   6.708   2.787   7.117 -1.1706  1.6419 -1.4976
  155SAPE   C1117138   6.851   2.679   6.977 -0.3530  0.1759  0.8403
  155SAPE  H11A17139   6.913   2.623   7.050  1.8255  0.5544 -0.6179
  155SAPE  H11B17140   6.900   2.778   6.960  1.6425 -0.7961  0.7007
  155SAPE     P17141   6.950   2.536   6.772 -0.2645  0.2737  0.1448
  155SAPE   O1317142   7.021   2.446   6.860 -0.4554 -1.1669 -0.5297
  155SAPE   O1417143   6.890   2.483   6.652  0.0201 -0.5236 -0.6462
  155SAPE   O1217144   6.835   2.614   6.851 -0.2648  0.2358 -0.1956
  155SAPE   O1117145   7.058   2.646   6.733 -0.1109 -0.2821  0.5652
  155SAPE    C117146   7.018   2.776   6.686 -0.0893  0.7545 -0.7171
  155SAPE    HA17147   6.909   2.792   6.700 -0.0532  0.5105 -0.1432
  155SAPE    HB17148   7.083   2.852   6.734  1.1351 -0.8052  0.1904
  155SAPE    C217149   7.054   2.796   6.536 -0.2433  0.2400 -0.8110
  155SAPE    HS17150   7.023   2.897   6.504  1.0771  0.7304 -0.5866
  155SAPE   O2117151   6.985   2.695   6.458  0.4125 -0.0765 -0.4166
  155SAPE   C2117152   6.854   2.720   6.435 -0.9799 -0.4981 -0.2104
  155SAPE   O2217153   6.790   2.810   6.494 -0.2139  0.4679  0.5273
  155SAPE   C2217154   6.821   2.645   6.311  0.2102  0.2106 -0.4270
  155SAPE   H2R17155   6.899   2.662   6.234  0.2237 -1.1021 -0.7269
  155SAPE   H2S17156   6.816   2.536   6.328  1.9434 -0.0553 -1.3442
  155SAPE    C317157   7.206   2.779   6.521 -0.6418  0.5700 -0.3779
  155SAPE    HX17158   7.233   2.681   6.566  1.2401  0.7077 -1.0880
  155SAPE    HY17159   7.254   2.860   6.581  0.0729 -0.0074 -0.1572
  155SAPE   O3117160   7.251   2.777   6.380  0.4633  0.1172  0.1268
  155SAPE   C3117161   7.266   2.653   6.332  0.7475  0.1863 -0.2097
  155SAPE   O3217162   7.256   2.548   6.397  0.0293 -0.7966 -0.6397
  155SAPE   C3217163   7.303   2.646   6.180  0.6187 -0.2065 -0.3302
  155SAPE   H2X17164   7.414   2.655   6.184  0.4310  3.4417  0.5243
  155SAPE   H2Y17165   7.282   2.740   6.124  0.3387  0.6503  1.1455
  155SAPE   C2317166   6.678   2.681   6.264  0.5166 -0.2790 -0.2030
  155SAPE   H3R17167   6.599   2.684   6.342  1.0682 -4.1098  0.7228
  155SAPE   H3S17168   6.642   2.594   6.204 -0.8001  0.6765 -0.8536
  155SAPE   C2417169   6.689   2.806   6.185  0.0165  0.2317  0.4869
  155SAPE   H4R17170   6.774   2.807   6.113  0.2489  4.0934  0.6083
  155SAPE   H4S17171   6.704   2.883   6.263  0.5631 -0.4478  1.0705
  155SAPE   C2517172   6.557   2.830   6.115 -0.1332 -0.0308  0.5200
  155SAPE   H5R17173   6.470   2.790   6.169 -2.2376  2.3790 -0.8595
  155SAPE   C2617174   6.534   2.879   5.989 -0.3371  0.2499  0.0693
  155SAPE   H6R17175   6.434   2.881   5.943  0.6049 -1.1786 -2.1972
  155SAPE   C2717176   6.647   2.942   5.899  0.4662  0.3610  0.3263
  155SAPE   H7R17177   6.742   2.942   5.956  0.1872  0.3198  0.7951
  155SAPE   H7S17178   6.628   3.046   5.867  0.9583  0.4266  0.2358
  155SAPE   C2817179   6.668   2.853   5.780 -0.3048 -0.6588 -0.9066
  155SAPE   H8R17180   6.734   2.769   5.810 -0.6838  0.0924  2.4486
  155SAPE   C2917181   6.615   2.853   5.662  0.0641 -0.2414  0.2696
  155SAPE   H9R17182   6.650   2.784   5.584 -0.6126  0.4163 -0.6339
  155SAPE  C21017183   6.519   2.959   5.614  0.0366 -0.3423 -0.1711
  155SAPE  H10R17184   6.493   3.039   5.686  2.5007  0.4560 -0.0844
  155SAPE  H10S17185   6.421   2.908   5.603 -0.2744 -0.8374  3.5291
  155SAPE  C21117186   6.554   3.018   5.487  0.1641  0.4153  0.3620
  155SAPE  H11R17187   6.627   3.099   5.498  0.6470  0.0140  0.1268
  155SAPE  C21217188   6.505   2.995   5.361  0.2834  0.3585 -0.0964
  155SAPE  H12R17189   6.555   3.050   5.280  3.4368 -1.1471  0.6492
  155SAPE  C21317190   6.414   2.885   5.321  0.7940  0.4008 -0.2089
  155SAPE  H13R17191   6.337   2.931   5.255  2.0681  2.3532 -0.4141
  155SAPE  H13S17192   6.350   2.845   5.403  0.1031  2.1055  0.1346
  155SAPE  C21417193   6.478   2.770   5.252  0.1176 -0.5468  0.0181
  155SAPE  H14R17194   6.585   2.752   5.273  0.9344  2.0227 -1.4898
  155SAPE  C21517195   6.411   2.676   5.176 -0.4751  0.1099  0.3797
  155SAPE  H15R17196   6.474   2.596   5.133 -0.5528  0.2911 -0.0758
  155SAPE  C21617197   6.270   2.671   5.142  0.4926 -0.3049 -0.2595
  155SAPE  H16R17198   6.215   2.766   5.162  1.3825  0.2410 -0.3778
  155SAPE  H16S17199   6.220   2.585   5.192 -0.0768  0.6703  0.9078
  155SAPE  C21717200   6.264   2.650   4.989 -0.3697 -0.2432  0.5482
  155SAPE  H17R17201   6.344   2.588   4.942  1.1770  2.4457 -0.6554
  155SAPE  H17S17202   6.276   2.747   4.936  0.3413  0.5172  2.0261
  155SAPE  C21817203   6.122   2.606   4.941 -0.6661 -0.0648 -0.1163
  155SAPE  H18R17204   6.046   2.681   4.974  1.7892  2.4975  0.0536
  155SAPE  H18S17205   6.099   2.508   4.990 -1.0345 -1.3807 -2.7388
  155SAPE  C21917206   6.116   2.578   4.786 -1.0860 -0.4848 -0.1676
  155SAPE  H19R17207   6.194   2.503   4.763 -1.0804 -0.1395 -1.3366
  155SAPE  H19S17208   6.146   2.678   4.746  0.9602 -1.4429 -1.1755
  155SAPE  C22017209   5.975   2.559   4.735 -0.2186  0.9135 -0.0228
  155SAPE  H20R17210   5.939   2.461   4.771  1.5576  0.3220  0.2615
  155SAPE  H20S17211   5.979   2.542   4.626  0.3643 -3.1523  0.4702
  155SAPE  H20T17212   5.910   2.645   4.764 -1.1811 -0.3265  1.6877
  155SAPE   C3317213   7.265   2.511   6.116 -0.7546 -0.4541 -0.3145
  155SAPE   H3X17214   7.298   2.434   6.189 -1.2005  0.1025  0.4869
  155SAPE   H3Y17215   7.312   2.495   6.016 -1.8420 -2.9902 -0.4950
  155SAPE   C3417216   7.113   2.519   6.075 -0.2641  0.1429  0.0387
  155SAPE   H4X17217   7.065   2.552   6.169 -0.6116 -1.6393  0.5211
  155SAPE   H4Y17218   7.083   2.414   6.054  0.0840  0.0068  0.2130
  155SAPE   C3517219   7.064   2.614   5.957  0.4321  0.2264  0.0008
  155SAPE   H5X17220   7.113   2.714   5.962 -0.5249  0.7217 -0.3194
  155SAPE   H5Y17221   6.956   2.621   5.983  1.1154  3.1105  2.6368
  155SAPE   C3617222   7.076   2.539   5.825  0.3759  0.0617 -0.4290
  155SAPE   H6X17223   7.010   2.450   5.828 -1.0752  1.1331  0.6468
  155SAPE   H6Y17224   7.181   2.504   5.814  0.5046  0.1091  0.6278
  155SAPE   C3717225   7.034   2.637   5.715 -0.4546  0.4199 -0.1943
  155SAPE   H7X17226   7.091   2.732   5.719 -1.7408  1.2130 -0.3480
  155SAPE   H7Y17227   6.929   2.669   5.731 -0.1509  1.0054  0.7329
  155SAPE   C3817228   7.039   2.581   5.568 -0.5383  0.7254  0.2494
  155SAPE   H8X17229   6.996   2.478   5.571  0.5388  0.2742  1.0384
  155SAPE   H8Y17230   7.142   2.575   5.527 -0.9499  0.2103 -0.7522
  155SAPE   C3917231   6.940   2.662   5.486 -0.6627 -0.1332  0.3400
  155SAPE   H9X17232   6.835   2.656   5.524 -1.2178  2.0092 -0.6706
  155SAPE   H9Y17233   6.933   2.611   5.387  3.0048  2.4938 -1.5109
  155SAPE  C31017234   6.978   2.802   5.477  0.0468  0.1880 -0.3535
  155SAPE  H10X17235   7.087   2.809   5.454  0.3777 -0.3524  0.9562
  155SAPE  H10Y17236   6.969   2.856   5.574 -0.3557 -0.5183  0.0099
  155SAPE  C31117237   6.902   2.893   5.369 -0.2832  0.3951  0.3171
  155SAPE  H11X17238   6.949   2.993   5.382 -0.1239  0.0571  2.7203
  155SAPE  H11Y17239   6.797   2.907   5.402 -0.0766  0.3331  1.0090
  155SAPE  C31217240   6.912   2.839   5.220  0.1765  0.3318 -0.4376
  155SAPE  H12X17241   6.857   2.743   5.215  1.6914 -0.5267 -1.1589
  155SAPE  H12Y17242   7.016   2.830   5.183  0.7572  3.5172  0.1060
  155SAPE  C31317243   6.840   2.933   5.116 -0.3911 -0.3333 -0.5142
  155SAPE  H13X17244   6.897   3.028   5.111 -0.6014 -0.1218  0.7391
  155SAPE  H13Y17245   6.744   2.970   5.157  0.0277  0.4981 -0.2594
  155SAPE  C31417246   6.839   2.876   4.976  0.1399  0.2110  0.2756
  155SAPE  H14X17247   6.754   2.912   4.915  0.7810  0.8519 -0.2499
  155SAPE  H14Y17248   6.833   2.768   5.001 -1.0043  0.0164 -0.7424
  155SAPE  C31517249   6.969   2.913   4.904 -0.2824 -0.3986  0.2343
  155SAPE  H15X17250   7.051   2.894   4.977 -0.6631 -2.4943  0.1779
  155SAPE  H15Y17251   6.964   3.024   4.894 -1.1176 -0.4657 -0.1621
  155SAPE  C31617252   6.985   2.849   4.774  0.3712 -0.0591  0.5738
  155SAPE  H16X17253   6.902   2.868   4.703  1.0315  0.4932 -0.0735
  155SAPE  H16Y17254   6.995   2.739   4.784  3.3157 -0.0164 -0.8169
  155SAPE  C31717255   7.110   2.915   4.707  0.1183 -0.6371 -0.0208
  155SAPE  H17X17256   7.199   2.879   4.761  1.6479  0.1760 -1.8652
  155SAPE  H17Y17257   7.116   3.026   4.714  2.0935 -0.6560 -0.8690
  155SAPE  C31817258   7.116   2.884   4.559  0.0521  0.2951 -0.3675
  155SAPE  H18X17259   7.033   2.932   4.502 -0.6337 -1.7749 -1.2059
  155SAPE  H18Y17260   7.111   2.776   4.535  2.4364 -0.7590  3.0284
  155SAPE  H18Z17261   7.213   2.919   4.518  1.5667 -1.4759  1.4762
  156SAPE     N17262   4.845   4.765   7.509  0.6266  0.1262 -0.5749
  156SAPE   HN117263   4.902   4.820   7.576 -0.5673  0.3370  0.3070
  156SAPE   HN217264   4.773   4.717   7.568  1.2759 -2.5996 -1.8489
  156SAPE   HN317265   4.898   4.691   7.459  1.6708 -0.2524  1.0289
  156SAPE   C1217266   4.783   4.854   7.407 -0.2237  0.0537  0.3357
  156SAPE  H12A17267   4.722   4.930   7.462 -1.6571 -1.6294  1.1658
  156SAPE  H12B17268   4.700   4.804   7.353  0.2620  0.4158 -0.7867
  156SAPE   C1117269   4.876   4.920   7.306 -0.7732  0.9521 -0.5428
  156SAPE  H11A17270   4.928   5.011   7.341  1.0405 -0.0805 -0.4106
  156SAPE  H11B17271   4.834   4.965   7.214  0.3995 -0.5396 -1.8678
  156SAPE     P17272   5.037   4.804   7.121  0.2831 -0.2550  0.2228
  156SAPE   O1317273   5.048   4.937   7.049 -0.1229  0.0264 -0.5489
  156SAPE   O1417274   5.155   4.722   7.129  0.5076  0.0740 -0.5644
  156SAPE   O1217275   4.974   4.827   7.264  0.7879 -0.3619 -0.2373
  156SAPE   O1117276   4.925   4.719   7.050 -0.4132  0.2116 -0.7510
  156SAPE    C117277   4.811   4.659   7.117  0.7446 -0.8377  0.3377
  156SAPE    HA17278   4.827   4.598   7.209 -0.9307  0.9278  1.8885
  156SAPE    HB17279   4.739   4.739   7.143  0.9113 -0.2805 -0.8567
  156SAPE    C217280   4.720   4.569   7.015  0.3262 -0.6437  0.3432
  156SAPE    HS17281   4.628   4.556   7.075  0.0947  3.6456  1.2464
  156SAPE   O2117282   4.788   4.452   6.985 -0.1742 -0.1324 -0.5239
  156SAPE   C2117283   4.789   4.353   7.077 -0.2662 -0.8203 -0.2924
  156SAPE   O2217284   4.730   4.368   7.186 -0.1332 -0.3586 -0.1681
  156SAPE   C2217285   4.882   4.246   7.022  0.4659  0.4959  1.0351
  156SAPE   H2R17286   4.982   4.284   6.992  0.1862  2.1294  2.0484
  156SAPE   H2S17287   4.897   4.168   7.099  0.0424 -1.3320 -0.6708
  156SAPE    C317288   4.675   4.646   6.887 -0.6632 -0.4119  0.2570
  156SAPE    HX17289   4.766   4.693   6.843 -1.7324 -0.4011 -2.0718
  156SAPE    HY17290   4.611   4.727   6.928  0.3668 -1.0742  3.4837
  156SAPE   O3117291   4.602   4.563   6.793  0.0371  0.7803 -0.8687
  156SAPE   C3117292   4.603   4.614   6.666 -0.0618 -0.8027 -1.0914
  156SAPE   O3217293   4.674   4.714   6.641  0.3144  0.2764 -0.0028
  156SAPE   C3217294   4.521   4.534   6.566 -0.5590  0.1951 -0.6428
  156SAPE   H2X17295   4.420   4.580   6.570 -0.5402  0.7012 -3.5318
  156SAPE   H2Y17296   4.522   4.428   6.600 -0.4381  0.5681  0.5540
  156SAPE   C2317297   4.818   4.175   6.901 -0.3708  0.1776 -0.3416
  156SAPE   H3R17298   4.799   4.237   6.812 -3.6993 -0.5210 -0.2346
  156SAPE   H3S17299   4.719   4.138   6.936 -0.1230 -1.1586 -0.9546
  156SAPE   C2417300   4.899   4.057   6.852 -0.3178  0.1858  0.3737
  156SAPE   H4R17301   4.913   3.995   6.943  0.5546  0.2271  0.2745
  156SAPE   H4S17302   4.999   4.084   6.811 -0.0273 -2.1405 -0.5999
  156SAPE   C2517303   4.813   3.986   6.752  0.5743  0.1078 -0.2021
  156SAPE   H5R17304   4.719   3.954   6.800  0.4167  1.2893  0.3175
  156SAPE   C2617305   4.837   3.975   6.622 -0.1624 -0.4446  0.5883
  156SAPE   H6R17306   4.767   3.913   6.564 -0.2779 -1.5461  1.8482
  156SAPE   C2717307   4.950   4.040   6.545  0.3075 -0.4165  0.3330
  156SAPE   H7R17308   4.954   4.146   6.575  1.7119  0.1882 -1.7927
  156SAPE   H7S17309   4.921   4.039   6.438 -0.4106  1.5601  0.4702
  156SAPE   C2817310   5.075   3.959   6.576 -0.1557  0.0199  0.1360
  156SAPE   H8R17311   5.092   3.928   6.681  1.0148 -0.2042 -0.0960
  156SAPE   C2917312   5.161   3.918   6.481  0.2315  0.3497  0.4191
  156SAPE   H9R17313   5.245   3.856   6.515 -1.1118 -0.1372  3.1039
  156SAPE  C21017314   5.162   3.954   6.326 -0.1217 -0.2914  0.0319
  156SAPE  H10R17315   5.063   3.940   6.277  0.6082 -0.1139 -1.5649
  156SAPE  H10S17316   5.223   3.880   6.271 -0.3405 -1.8211  1.7608
  156SAPE  C21117317   5.207   4.099   6.297 -0.0219 -0.1274 -0.4074
  156SAPE  H11R17318   5.192   4.172   6.378 -0.4035 -0.1168 -0.4903
  156SAPE  C21217319   5.278   4.129   6.191 -0.2753 -0.0283 -0.3123
  156SAPE  H12R17320   5.299   4.237   6.182  0.2092 -0.0855  0.0672
  156SAPE  C21317321   5.305   4.049   6.067 -0.8024 -0.0452  0.1314
  156SAPE  H13R17322   5.214   4.004   6.023 -1.2642  1.3262 -0.3774
  156SAPE  H13S17323   5.358   3.956   6.097  1.4181  0.2591 -2.4475
  156SAPE  C21417324   5.402   4.105   5.962  0.2649  0.2337  0.1902
  156SAPE  H14R17325   5.369   4.094   5.857  2.0616 -2.1992 -0.2140
  156SAPE  C21517326   5.532   4.126   5.985  0.8297  0.6613  0.7381
  156SAPE  H15R17327   5.582   4.178   5.902  0.9451 -2.4140 -1.3009
  156SAPE  C21617328   5.603   4.126   6.110  0.9207  0.4052  0.4688
  156SAPE  H16R17329   5.530   4.149   6.191 -0.3144  0.1261 -0.5234
  156SAPE  H16S17330   5.675   4.211   6.115  0.3610  1.1473 -2.1581
  156SAPE  C21717331   5.664   3.995   6.151  0.7841 -0.0900  0.0110
  156SAPE  H17R17332   5.727   3.957   6.068  2.6031  1.3459  0.6684
  156SAPE  H17S17333   5.586   3.917   6.163  0.9438 -0.7753 -2.8127
  156SAPE  C21817334   5.760   4.013   6.270  0.4026 -0.1240  0.3706
  156SAPE  H18R17335   5.824   4.103   6.253 -1.3732  0.9280 -1.1915
  156SAPE  H18S17336   5.827   3.925   6.277 -1.1257 -1.5165 -1.2803
  156SAPE  C21917337   5.688   4.019   6.409 -0.6411 -0.4872 -0.5893
  156SAPE  H19R17338   5.629   4.113   6.411  0.8712  0.4930  0.5697
  156SAPE  H19S17339   5.758   4.030   6.494 -0.8739 -0.8624 -0.3471
  156SAPE  C22017340   5.598   3.905   6.452  0.1175  0.3291 -0.3276
  156SAPE  H20R17341   5.565   3.920   6.557 -0.2287 -0.9983 -0.2212
  156SAPE  H20S17342   5.636   3.800   6.445 -1.2903 -0.5437  3.0017
  156SAPE  H20T17343   5.502   3.898   6.396 -0.2140 -0.9480  0.3360
  156SAPE   C3317344   4.576   4.564   6.428 -0.1621 -0.1754 -0.9939
  156SAPE   H3X17345   4.678   4.521   6.419  0.4902  1.5345 -2.4273
  156SAPE   H3Y17346   4.587   4.672   6.404 -0.2566 -0.2677 -1.4508
  156SAPE   C3417347   4.509   4.488   6.312  0.8517  0.1527  0.1798
  156SAPE   H4X17348   4.399   4.491   6.324  1.0343 -1.1713  2.9812
  156SAPE   H4Y17349   4.536   4.381   6.302  2.9116  0.6840 -0.5984
  156SAPE   C3517350   4.552   4.547   6.178  0.7988  0.0982 -0.1342
  156SAPE   H5X17351   4.663   4.549   6.175  0.7871  0.4475 -0.3190
  156SAPE   H5Y17352   4.505   4.644   6.151 -0.5241 -0.0672  1.4401
  156SAPE   C3617353   4.511   4.460   6.054  0.1363  0.7528 -1.2313
  156SAPE   H6X17354   4.412   4.411   6.068  1.5614 -1.9101  0.5021
  156SAPE   H6Y17355   4.588   4.382   6.039  1.2653  0.9229  2.6221
  156SAPE   C3717356   4.511   4.536   5.926 -0.3321  0.8155 -0.3380
  156SAPE   H7X17357   4.605   4.594   5.910  0.0871  0.3110  0.2398
  156SAPE   H7Y17358   4.425   4.606   5.923 -0.5113  0.5705 -2.2288
  156SAPE   C3817359   4.488   4.455   5.797 -0.2020 -0.0552 -0.5747
  156SAPE   H8X17360   4.401   4.390   5.821 -0.1322  0.4127  1.0627
  156SAPE   H8Y17361   4.575   4.391   5.769 -0.8744 -1.1211 -0.2676
  156SAPE   C3917362   4.456   4.550   5.677  0.2846  0.4085  0.2592
  156SAPE   H9X17363   4.545   4.616   5.680 -1.8081  3.4400  2.9740
  156SAPE   H9Y17364   4.363   4.606   5.700 -0.5081 -0.8870  0.3279
  156SAPE  C31017365   4.440   4.482   5.546 -0.4715  0.7558 -0.0185
  156SAPE  H10X17366   4.346   4.423   5.546 -1.0748  1.6939 -0.2150
  156SAPE  H10Y17367   4.514   4.405   5.517 -1.2453  0.4963 -1.3737
  156SAPE  C31117368   4.446   4.584   5.435 -0.6327  0.0923 -0.2147
  156SAPE  H11X17369   4.551   4.620   5.437 -0.6847  0.2601  1.7592
  156SAPE  H11Y17370   4.388   4.677   5.457 -1.4146 -0.7030  1.2130
  156SAPE  C31217371   4.420   4.524   5.286  0.0061 -0.6784 -0.5978
  156SAPE  H12X17372   4.326   4.464   5.290 -0.4791  0.0275 -0.9906
  156SAPE  H12Y17373   4.508   4.464   5.257  2.3368  2.6260 -0.9068
  156SAPE  C31317374   4.420   4.636   5.180  0.1025  0.5549 -0.2106
  156SAPE  H13X17375   4.524   4.671   5.162 -0.0668  0.2989 -1.8355
  156SAPE  H13Y17376   4.368   4.728   5.215  1.0524  1.2164 -0.4995
  156SAPE  C31417377   4.376   4.584   5.048 -0.7362 -0.6149  0.4603
  156SAPE  H14X17378   4.275   4.540   5.055 -1.6142  1.0789 -0.9694
  156SAPE  H14Y17379   4.453   4.510   5.014 -0.3352  0.1638 -0.3713
  156SAPE  C31517380   4.371   4.694   4.938  0.3250 -0.4563  0.1341
  156SAPE  H15X17381   4.464   4.752   4.954  0.0940 -0.3729  1.2172
  156SAPE  H15Y17382   4.285   4.760   4.962  0.0183  0.1585 -2.4007
  156SAPE  C31617383   4.368   4.650   4.797 -0.2619 -0.0226  0.0954
  156SAPE  H16X17384   4.462   4.598   4.769 -0.7045  1.1299 -4.2700
  156SAPE  H16Y17385   4.357   4.741   4.734  0.0696  0.3553  0.5763
  156SAPE  C31717386   4.250   4.555   4.769 -0.2193  0.4679 -0.2251
  156SAPE  H17X17387   4.160   4.600   4.817  0.5522  2.1421 -0.2887
  156SAPE  H17Y17388   4.268   4.463   4.829 -0.4171  0.6311  0.0897
  156SAPE  C31817389   4.227   4.523   4.618  0.3646  0.1450  0.8680
  156SAPE  H18X17390   4.305   4.464   4.564 -1.1168 -1.0571 -0.0445
  156SAPE  H18Y17391   4.213   4.620   4.566 -0.5097  0.0344  0.8847
  156SAPE  H18Z17392   4.133   4.467   4.598 -2.8364  5.3765 -0.7000
  157SAPE     N17393   2.566   1.815   7.280 -0.9493  0.2343  0.1891
  157SAPE   HN117394   2.570   1.785   7.380 -2.9629 -1.7193 -0.2306
  157SAPE   HN217395   2.664   1.807   7.249 -1.2653  0.0755 -0.7987
  157SAPE   HN317396   2.523   1.909   7.266 -0.2105  1.6408  5.2958
  157SAPE   C1217397   2.488   1.716   7.212  0.1565  0.3184 -0.7357
  157SAPE  H12A17398   2.522   1.615   7.242 -2.0109  0.6466  3.6132
  157SAPE  H12B17399   2.510   1.722   7.104 -0.6602 -2.2444 -1.1026
  157SAPE   C1117400   2.337   1.737   7.242  0.6451  0.6153  0.5220
  157SAPE  H11A17401   2.316   1.743   7.351 -1.5897 -0.2230  0.1910
  157SAPE  H11B17402   2.295   1.641   7.206  1.8373  0.2910 -0.0621
  157SAPE     P17403   2.139   1.850   7.117  0.0895 -0.1721  0.1096
  157SAPE   O1317404   2.056   1.743   7.172 -0.2408  0.6144  0.3450
  157SAPE   O1417405   2.082   1.984   7.143  0.2376 -0.0156 -0.0401
  157SAPE   O1217406   2.289   1.841   7.169  0.0684 -0.1963  0.3398
  157SAPE   O1117407   2.161   1.819   6.963  0.0168 -0.7438 -0.1332
  157SAPE    C117408   2.236   1.699   6.934 -0.8358 -0.6066 -0.8922
  157SAPE    HA17409   2.345   1.721   6.932 -0.9548 -0.0255 -1.7076
  157SAPE    HB17410   2.213   1.616   7.003  0.8510 -1.0525 -0.8182
  157SAPE    C217411   2.222   1.647   6.791  0.0900 -0.2843 -0.0753
  157SAPE    HS17412   2.304   1.575   6.770 -0.2948 -1.1375  1.2166
  157SAPE   O2117413   2.226   1.761   6.704  0.4010  0.2678 -0.0388
  157SAPE   C2117414   2.341   1.809   6.668  0.0439 -0.5895 -0.2337
  157SAPE   O2217415   2.451   1.762   6.685  0.4187  0.0364  0.0007
  157SAPE   C2217416   2.315   1.928   6.578 -0.4706 -0.2093  0.4375
  157SAPE   H2R17417   2.208   1.928   6.548 -0.5448 -2.4196  0.5622
  157SAPE   H2S17418   2.330   2.019   6.641  0.9752 -0.1877  0.0950
  157SAPE    C317419   2.083   1.576   6.756  0.1481 -0.6639 -0.6989
  157SAPE    HX17420   2.004   1.646   6.792  0.3095 -0.5370 -0.5912
  157SAPE    HY17421   2.065   1.475   6.799  0.1026 -0.3119  0.1285
  157SAPE   O3117422   2.069   1.564   6.616  0.5314  0.1656 -0.0763
  157SAPE   C3117423   1.942   1.559   6.575  0.3238  0.1368  0.2387
  157SAPE   O3217424   1.845   1.579   6.646 -0.2717  0.2878 -0.0363
  157SAPE   C3217425   1.941   1.548   6.421  0.5254  0.1232 -0.1413
  157SAPE   H2X17426   1.964   1.653   6.392 -0.1122 -0.0974 -1.5366
  157SAPE   H2Y17427   1.838   1.523   6.387  0.1305 -0.3487  1.2978
  157SAPE   C2317428   2.408   1.939   6.461  0.2146  0.0808  0.3026
  157SAPE   H3R17429   2.515   1.933   6.490  0.3901 -0.6325 -0.4766
  157SAPE   H3S17430   2.384   2.038   6.416  1.5396  0.7300  0.9456
  157SAPE   C2417431   2.387   1.832   6.358 -0.5125  0.1510 -0.2577
  157SAPE   H4R17432   2.438   1.741   6.398 -0.0419  0.3820 -0.3202
  157SAPE   H4S17433   2.440   1.865   6.266  0.6845  2.4842  1.1768
  157SAPE   C2517434   2.245   1.813   6.318  0.2810  0.1086  0.1225
  157SAPE   H5R17435   2.177   1.777   6.397  0.0413 -4.1177 -1.7466
  157SAPE   C2617436   2.193   1.849   6.200  0.1366  0.6879 -0.4774
  157SAPE   H6R17437   2.084   1.843   6.183 -0.3328  0.5823  2.1536
  157SAPE   C2717438   2.265   1.902   6.084 -0.1737  0.2154 -0.3761
  157SAPE   H7R17439   2.340   1.967   6.134  0.9113 -2.8961  2.3370
  157SAPE   H7S17440   2.196   1.959   6.018  0.5418  1.1169 -0.3636
  157SAPE   C2817441   2.331   1.784   6.014 -0.5704  0.6199  0.1694
  157SAPE   H8R17442   2.360   1.693   6.068 -1.7455 -0.5152 -1.0190
  157SAPE   C2917443   2.357   1.775   5.885 -0.3160 -0.8884 -0.4902
  157SAPE   H9R17444   2.404   1.685   5.842  2.4260  0.1960  0.0635
  157SAPE  C21017445   2.317   1.883   5.782 -0.0171 -0.4646 -0.6433
  157SAPE  H10R17446   2.322   1.986   5.823 -1.4458 -0.7612  0.3623
  157SAPE  H10S17447   2.208   1.873   5.767 -0.1935  0.4036 -0.0186
  157SAPE  C21117448   2.402   1.877   5.656 -0.2901  0.0369 -0.4287
  157SAPE  H11R17449   2.506   1.910   5.663 -0.1636 -0.4317 -0.0480
  157SAPE  C21217450   2.356   1.845   5.533 -1.1286  0.2746 -0.6024
  157SAPE  H12R17451   2.434   1.840   5.455 -0.6160  0.4620 -0.1052
  157SAPE  C21317452   2.213   1.813   5.489 -0.3278 -0.0220  0.4609
  157SAPE  H13R17453   2.144   1.770   5.564 -1.1024  1.6233  0.7400
  157SAPE  H13S17454   2.229   1.731   5.415 -1.8431 -0.1979  0.3031
  157SAPE  C21417455   2.158   1.938   5.436 -0.4320  0.3849 -0.0519
  157SAPE  H14R17456   2.148   2.014   5.514  1.8843 -1.4083  2.1418
  157SAPE  C21517457   2.115   1.960   5.311  0.5948 -0.9492  0.2697
  157SAPE  H15R17458   2.081   2.062   5.290 -0.3947 -1.4521 -0.6367
  157SAPE  C21617459   2.144   1.870   5.193  0.1570  0.2779 -0.4867
  157SAPE  H16R17460   2.164   1.767   5.229 -2.3760  0.0433  0.5146
  157SAPE  H16S17461   2.225   1.911   5.129 -0.0145 -1.1021 -1.6329
  157SAPE  C21717462   2.002   1.866   5.131  0.2715 -0.2780 -0.3358
  157SAPE  H17R17463   1.976   1.970   5.102  1.8665  0.2296 -0.0511
  157SAPE  H17S17464   1.923   1.825   5.198 -1.1593 -0.0183 -1.8123
  157SAPE  C21817465   1.983   1.790   5.004 -0.3783 -0.6868 -0.2061
  157SAPE  H18R17466   1.873   1.786   4.988 -0.3692  0.7181 -0.8114
  157SAPE  H18S17467   2.029   1.690   5.015 -1.4666 -1.1994 -0.1490
  157SAPE  C21917468   2.037   1.853   4.876  0.3896 -0.0538 -0.2944
  157SAPE  H19R17469   2.148   1.862   4.877  0.3992  0.5067  3.1219
  157SAPE  H19S17470   1.999   1.957   4.870 -1.4292 -0.7510 -2.0249
  157SAPE  C22017471   2.015   1.765   4.747 -0.5639 -0.2826  0.5639
  157SAPE  H20R17472   2.065   1.809   4.658  0.4128  1.1098  1.7565
  157SAPE  H20S17473   1.905   1.764   4.728 -0.3472 -0.8433 -0.7716
  157SAPE  H20T17474   2.043   1.659   4.764 -0.4175 -0.4763 -0.7809
  157SAPE   C3317475   2.029   1.434   6.373 -0.3446  0.0834 -0.1959
  157SAPE   H3X17476   1.973   1.338   6.385 -0.4446  0.0087 -1.2144
  157SAPE   H3Y17477   2.116   1.426   6.442 -0.3928  2.2036  0.1559
  157SAPE   C3417478   2.076   1.452   6.231  0.4502 -0.5726  0.5037
  157SAPE   H4X17479   2.122   1.359   6.192 -0.7339 -0.6920 -0.7039
  157SAPE   H4Y17480   2.139   1.543   6.227 -0.8161  0.3022 -0.9235
  157SAPE   C3517481   1.960   1.483   6.129  0.2699 -0.2235 -0.4439
  157SAPE   H5X17482   1.930   1.590   6.140 -0.9377 -0.4542 -1.2710
  157SAPE   H5Y17483   1.865   1.434   6.159  0.8640  0.3981  2.8402
  157SAPE   C3617484   1.989   1.452   5.985  0.1781  0.0203  0.4038
  157SAPE   H6X17485   1.902   1.448   5.916  1.4398 -0.8291 -1.2214
  157SAPE   H6Y17486   2.032   1.350   5.977 -1.6235 -0.8038  0.6846
  157SAPE   C3717487   2.080   1.554   5.913  0.4512  0.2155 -0.4436
  157SAPE   H7X17488   2.176   1.544   5.967 -0.4048  1.2682  1.4045
  157SAPE   H7Y17489   2.049   1.661   5.916 -2.1929 -0.3378 -2.9383
  157SAPE   C3817490   2.100   1.539   5.761  0.2789  0.5046  0.3034
  157SAPE   H8X17491   2.178   1.613   5.736 -1.2171  1.6546 -1.2024
  157SAPE   H8Y17492   2.010   1.571   5.704  0.0677  1.0065  0.9132
  157SAPE   C3917493   2.158   1.399   5.727 -0.0235  0.0246 -0.1645
  157SAPE   H9X17494   2.105   1.319   5.783  1.8076 -0.2186  1.2975
  157SAPE   H9Y17495   2.261   1.391   5.768 -0.0683 -0.1052 -0.0745
  157SAPE  C31017496   2.169   1.371   5.575  0.0593 -0.2520  0.1905
  157SAPE  H10X17497   2.217   1.272   5.566  1.7628  0.6714 -1.5895
  157SAPE  H10Y17498   2.248   1.429   5.522  2.3746 -3.9485 -0.7519
  157SAPE  C31117499   2.040   1.380   5.496 -0.3689  0.8248 -0.7301
  157SAPE  H11X17500   2.054   1.328   5.399  1.5445  3.7927 -2.2213
  157SAPE  H11Y17501   2.025   1.490   5.484  2.1383  1.2744 -0.4062
  157SAPE  C31217502   1.924   1.305   5.564  0.5537  0.0429 -0.1100
  157SAPE  H12X17503   1.898   1.343   5.665 -2.7134 -2.7011  0.2887
  157SAPE  H12Y17504   1.952   1.198   5.571 -0.1127 -0.0956  0.5870
  157SAPE  C31317505   1.790   1.309   5.487  0.3439  0.1295 -0.0715
  157SAPE  H13X17506   1.806   1.264   5.387  0.0010  0.3214 -0.2162
  157SAPE  H13Y17507   1.744   1.409   5.472  0.6573  0.2109 -0.4862
  157SAPE  C31417508   1.685   1.209   5.556 -0.0813  0.2828  0.9561
  157SAPE  H14X17509   1.735   1.112   5.581  3.6578  1.2383 -1.8429
  157SAPE  H14Y17510   1.608   1.177   5.483 -1.0268  1.4001  1.4267
  157SAPE  C31517511   1.626   1.247   5.690 -0.7177  0.0751  0.4998
  157SAPE  H15X17512   1.536   1.184   5.705 -1.5634  0.5485 -2.1282
  157SAPE  H15Y17513   1.596   1.354   5.691  2.6312  1.1707  1.9109
  157SAPE  C31617514   1.722   1.220   5.812  0.1108  0.0448 -0.4206
  157SAPE  H16X17515   1.792   1.305   5.827 -0.9916  0.9143 -0.0471
  157SAPE  H16Y17516   1.772   1.125   5.784 -1.1334 -0.3227 -1.4939
  157SAPE  C31717517   1.637   1.204   5.928 -0.2489 -0.2535 -0.4922
  157SAPE  H17X17518   1.567   1.118   5.921 -0.6225 -0.1062  0.9675
  157SAPE  H17Y17519   1.553   1.276   5.940 -0.4512 -0.4185 -0.9216
  157SAPE  C31817520   1.723   1.183   6.054  0.2655 -0.1847 -0.4496
  157SAPE  H18X17521   1.775   1.085   6.049 -1.9594 -1.5749  1.3651
  157SAPE  H18Y17522   1.652   1.180   6.140  3.3257  1.5625  2.3599
  157SAPE  H18Z17523   1.789   1.271   6.069 -0.2405 -0.0502  1.1513
  158SAPE     N17524   3.939   6.698   7.454  0.5031  0.1623  0.2324
  158SAPE   HN117525   3.852   6.726   7.406  1.3491 -0.2030 -1.6070
  158SAPE   HN217526   3.948   6.753   7.542  0.0730  2.1057 -0.8784
  158SAPE   HN317527   4.016   6.723   7.388 -0.4366  1.5094 -0.3786
  158SAPE   C1217528   3.944   6.551   7.481 -0.9120 -0.6094 -0.3022
  158SAPE  H12A17529   3.886   6.499   7.402  0.0643  0.0453 -1.4728
  158SAPE  H12B17530   3.886   6.544   7.576 -1.2919  2.2030 -0.2413
  158SAPE   C1117531   4.089   6.507   7.500 -0.0104  0.6013 -0.3371
  158SAPE  H11A17532   4.092   6.401   7.531 -2.1232  0.0393 -1.8171
  158SAPE  H11B17533   4.129   6.552   7.594  3.8449 -2.3432 -0.3375
  158SAPE     P17534   4.284   6.451   7.344  0.1481 -0.1988 -0.0185
  158SAPE   O1317535   4.386   6.530   7.273  0.2828  0.3224 -0.6059
  158SAPE   O1417536   4.324   6.377   7.462  0.2080 -0.0669 -0.3518
  158SAPE   O1217537   4.160   6.539   7.384 -0.5719 -0.2350 -0.1395
  158SAPE   O1117538   4.223   6.336   7.249  0.1038 -0.6148  0.3106
  158SAPE    C117539   4.105   6.347   7.173  0.2968 -0.7283  0.2770
  158SAPE    HA17540   4.065   6.250   7.138  0.9175 -0.4818 -1.1691
  158SAPE    HB17541   4.025   6.408   7.222  1.2226  1.2753 -0.5898
  158SAPE    C217542   4.122   6.421   7.044 -0.1897  0.2911  0.6928
  158SAPE    HS17543   4.149   6.528   7.061 -0.9769  0.4904  0.7104
  158SAPE   O2117544   3.992   6.419   6.979  0.0653 -0.0768 -0.0214
  158SAPE   C2117545   3.969   6.523   6.901 -0.1215  0.0165  0.3923
  158SAPE   O2217546   4.040   6.617   6.875 -0.0852  0.3426 -0.2588
  158SAPE   C2217547   3.826   6.491   6.847 -0.1688  0.5870  0.4210
  158SAPE   H2R17548   3.772   6.419   6.912  0.9278  0.3667  1.1144
  158SAPE   H2S17549   3.771   6.588   6.849  0.5247  0.9672  1.4921
  158SAPE    C317550   4.227   6.345   6.961 -0.0982  0.4687  0.7063
  158SAPE    HX17551   4.194   6.240   6.949  2.5150 -0.1508 -2.8087
  158SAPE    HY17552   4.322   6.347   7.020  1.1189 -1.2894 -1.0617
  158SAPE   O3117553   4.245   6.405   6.837  0.0708  0.2895 -0.8300
  158SAPE   C3117554   4.339   6.503   6.831  0.8891  0.4125 -0.0391
  158SAPE   O3217555   4.427   6.518   6.918 -0.4605 -0.3871  0.1250
  158SAPE   C3217556   4.324   6.590   6.712 -0.3795  0.0075  0.5584
  158SAPE   H2X17557   4.424   6.627   6.682  0.1777 -1.2898  0.7482
  158SAPE   H2Y17558   4.255   6.670   6.748 -0.7757  0.1132 -0.4081
  158SAPE   C2317559   3.825   6.453   6.689  0.3161  0.3240 -0.0361
  158SAPE   H3R17560   3.862   6.349   6.674  0.0671  0.4640 -1.7257
  158SAPE   H3S17561   3.898   6.523   6.642  0.1580  0.9085  0.5648
  158SAPE   C2417562   3.686   6.464   6.623 -1.0523  0.0240  0.0554
  158SAPE   H4R17563   3.711   6.456   6.515 -0.2391 -0.6607  0.2792
  158SAPE   H4S17564   3.642   6.564   6.640 -0.5678  0.3301 -0.4488
  158SAPE   C2517565   3.581   6.371   6.670 -0.4624 -0.0165 -0.6521
  158SAPE   H5R17566   3.538   6.413   6.763  0.3181  1.0868 -0.7777
  158SAPE   C2617567   3.519   6.277   6.599  0.0346 -0.7598  0.1894
  158SAPE   H6R17568   3.426   6.223   6.622 -0.5280 -0.2324 -0.7662
  158SAPE   C2717569   3.565   6.228   6.463  0.2654  0.1330  0.6155
  158SAPE   H7R17570   3.670   6.258   6.445  1.0028 -1.3952  2.0741
  158SAPE   H7S17571   3.505   6.271   6.380  0.2902 -0.3646  0.3337
  158SAPE   C2817572   3.581   6.079   6.454 -0.0958  0.2514  0.2858
  158SAPE   H8R17573   3.566   6.028   6.551 -0.3087 -1.1232 -0.4544
  158SAPE   C2917574   3.613   6.001   6.352 -0.1254 -0.1067  0.1255
  158SAPE   H9R17575   3.609   5.891   6.360  1.6653 -0.1859  0.4584
  158SAPE  C21017576   3.637   6.047   6.213  0.1724  0.3053  0.4528
  158SAPE  H10R17577   3.592   6.147   6.193  0.5429  0.3922  0.0350
  158SAPE  H10S17578   3.589   5.982   6.137  0.4890  1.5005 -0.8232
  158SAPE  C21117579   3.787   6.054   6.183 -0.0716  0.0518  0.3547
  158SAPE  H11R17580   3.867   6.028   6.253  3.3701  4.7750 -1.2992
  158SAPE  C21217581   3.829   6.107   6.065  0.0582  0.2278 -0.2903
  158SAPE  H12R17582   3.939   6.115   6.058  0.6146 -3.8613  1.1668
  158SAPE  C21317583   3.741   6.146   5.949  0.3781 -0.8354  0.5973
  158SAPE  H13R17584   3.659   6.209   5.990  1.4199  0.8521  0.2017
  158SAPE  H13S17585   3.683   6.060   5.908 -0.2825 -0.3555  0.4978
  158SAPE  C21417586   3.812   6.219   5.834 -0.8713  0.4900 -0.8120
  158SAPE  H14R17587   3.916   6.239   5.863 -0.4971 -0.6234 -1.3247
  158SAPE  C21517588   3.768   6.240   5.712  0.2040 -0.5120  0.0185
  158SAPE  H15R17589   3.833   6.273   5.629 -0.7968  0.1130 -0.5404
  158SAPE  C21617590   3.622   6.212   5.669 -0.6408 -0.0164  0.0832
  158SAPE  H16R17591   3.572   6.306   5.637 -1.1362 -0.8325 -1.6726
  158SAPE  H16S17592   3.565   6.179   5.759  1.5561  1.0115  1.9582
  158SAPE  C21717593   3.617   6.113   5.556  0.5673  0.4351 -0.0621
  158SAPE  H17R17594   3.509   6.099   5.533  0.9283 -1.8707 -0.6494
  158SAPE  H17S17595   3.649   6.008   5.575 -0.4429 -0.2983 -2.0636
  158SAPE  C21817596   3.684   6.150   5.429 -0.1064  0.2375  0.0793
  158SAPE  H18R17597   3.791   6.153   5.457 -0.2147 -0.1285  0.5501
  158SAPE  H18S17598   3.656   6.251   5.392  1.3218  0.5034 -0.3220
  158SAPE  C21917599   3.663   6.054   5.311  0.6159 -0.5327 -0.0565
  158SAPE  H19R17600   3.552   6.053   5.299  0.5942  1.1607 -0.2180
  158SAPE  H19S17601   3.696   5.951   5.336  0.8627 -0.2603  0.7745
  158SAPE  C22017602   3.727   6.078   5.172 -0.0498 -0.3384 -0.6390
  158SAPE  H20R17603   3.697   6.006   5.093  0.0200  0.3537 -1.3095
  158SAPE  H20S17604   3.837   6.088   5.180 -0.2249  0.3912  1.6134
  158SAPE  H20T17605   3.690   6.173   5.127 -1.9693  0.2339  1.8915
  158SAPE   C3317606   4.256   6.517   6.595 -0.1311 -0.5965  0.8144
  158SAPE   H3X17607   4.149   6.493   6.613 -0.2368 -2.8606 -2.0603
  158SAPE   H3Y17608   4.310   6.420   6.590  0.0521 -0.4453 -0.5644
  158SAPE   C3417609   4.269   6.584   6.459 -0.4307  0.0145 -0.1949
  158SAPE   H4X17610   4.377   6.583   6.434 -1.0348  2.7011 -3.7492
  158SAPE   H4Y17611   4.243   6.691   6.466  0.4483  0.1295  1.8037
  158SAPE   C3517612   4.201   6.496   6.352  0.3598 -0.6524  0.1668
  158SAPE   H5X17613   4.101   6.457   6.380  1.0049 -1.9233  0.7918
  158SAPE   H5Y17614   4.255   6.400   6.339 -1.9437 -1.6947 -2.8012
  158SAPE   C3617615   4.197   6.556   6.206 -0.0933 -0.4219  0.2842
  158SAPE   H6X17616   4.300   6.560   6.165  0.0627 -0.6568  0.6538
  158SAPE   H6Y17617   4.160   6.661   6.203 -1.6311 -0.8991  1.4860
  158SAPE   C3717618   4.126   6.468   6.097 -0.3587 -0.3153  0.2449
  158SAPE   H7X17619   4.114   6.525   6.003 -1.5589  0.5526  0.8971
  158SAPE   H7Y17620   4.025   6.439   6.134 -0.1831 -0.1094  0.9071
  158SAPE   C3817621   4.205   6.348   6.054 -0.0643  0.8192 -0.1752
  158SAPE   H8X17622   4.141   6.260   6.034  0.1499 -0.4995  4.0010
  158SAPE   H8Y17623   4.271   6.320   6.139 -0.2557 -0.7049 -0.5086
  158SAPE   C3917624   4.310   6.372   5.944  0.1939  0.3384 -0.0585
  158SAPE   H9X17625   4.385   6.290   5.951  0.5024  0.6437  0.2042
  158SAPE   H9Y17626   4.346   6.476   5.953 -2.7998  1.6588 -1.9740
  158SAPE  C31017627   4.250   6.359   5.803  0.1833 -0.0266 -0.1300
  158SAPE  H10X17628   4.222   6.463   5.777  1.2886 -0.4442 -3.5279
  158SAPE  H10Y17629   4.154   6.303   5.808  0.1810  0.0278  0.5088
  158SAPE  C31117630   4.339   6.303   5.693  0.4732 -0.0239  0.6206
  158SAPE  H11X17631   4.326   6.193   5.700  2.7161 -0.5130 -1.5329
  158SAPE  H11Y17632   4.448   6.321   5.696  0.6006 -0.5880 -0.2842
  158SAPE  C31217633   4.283   6.353   5.552 -0.3618  0.7218  0.3890
  158SAPE  H12X17634   4.317   6.452   5.515  0.0668 -0.9900 -4.4741
  158SAPE  H12Y17635   4.173   6.341   5.562 -0.3466 -2.5146 -1.8283
  158SAPE  C31317636   4.312   6.249   5.445 -0.2078 -0.2418 -0.2530
  158SAPE  H13X17637   4.260   6.274   5.350  1.3226  1.2711 -0.7456
  158SAPE  H13Y17638   4.276   6.146   5.465 -1.4753 -0.4056 -2.9642
  158SAPE  C31417639   4.467   6.234   5.419  0.8192 -0.4894 -0.2079
  158SAPE  H14X17640   4.503   6.195   5.516  1.0804 -0.4587 -0.2927
  158SAPE  H14Y17641   4.515   6.332   5.395 -1.0618  0.5352  0.0099
  158SAPE  C31517642   4.490   6.117   5.325  0.6101 -0.2858  0.1303
  158SAPE  H15X17643   4.425   6.113   5.235  0.4952 -2.2553  0.2480
  158SAPE  H15Y17644   4.464   6.023   5.379 -0.3175 -0.2036 -0.1570
  158SAPE  C31617645   4.629   6.113   5.268 -0.7559  0.1164 -0.1058
  158SAPE  H16X17646   4.693   6.133   5.357  1.3267 -2.0190 -1.0160
  158SAPE  H16Y17647   4.616   6.193   5.192  1.2684 -0.5509 -1.2226
  158SAPE  C31717648   4.665   5.985   5.203  0.2172  0.3028 -0.5916
  158SAPE  H17X17649   4.581   5.956   5.136 -1.6015  1.5973  1.0048
  158SAPE  H17Y17650   4.669   5.895   5.268 -0.0836  1.0415  0.4709
  158SAPE  C31817651   4.799   5.988   5.132  0.0077  0.2843  0.8796
  158SAPE  H18X17652   4.874   6.020   5.207  0.5591  2.8863 -0.6282
  158SAPE  H18Y17653   4.814   6.062   5.050 -2.5866  0.3768  0.4118
  158SAPE  H18Z17654   4.827   5.886   5.098 -0.2175  0.7125 -0.6864
  159SAPE     N17655   0.883   2.882   1.796 -0.1322 -0.1008  0.0133
  159SAPE   HN117656   0.826   2.948   1.739  1.4854 -1.2131 -3.1266
  159SAPE   HN217657   0.856   2.875   1.896  1.5515  1.6613  0.6468
  159SAPE   HN317658   0.978   2.924   1.806  1.2534 -3.2150  1.2082
  159SAPE   C1217659   0.873   2.760   1.730 -0.0326  0.9914 -0.2484
  159SAPE  H12A17660   0.932   2.755   1.637  2.3827 -1.1940  1.2542
  159SAPE  H12B17661   0.767   2.749   1.696 -0.0765 -1.5249  0.4829
  159SAPE   C1117662   0.910   2.651   1.836  0.0642 -0.3157 -0.0123
  159SAPE  H11A17663   1.018   2.664   1.858  0.1411 -1.1759  0.1551
  159SAPE  H11B17664   0.901   2.546   1.801 -0.3450 -0.4824  0.5769
  159SAPE     P17665   0.676   2.625   1.948  0.0772 -0.0009 -0.0283
  159SAPE   O1317666   0.610   2.737   1.886  0.3688  0.2652 -0.0082
  159SAPE   O1417667   0.652   2.491   1.888  0.6782 -0.2872  0.2530
  159SAPE   O1217668   0.827   2.650   1.953 -0.9405  0.2935 -0.1207
  159SAPE   O1117669   0.643   2.622   2.103  0.9545  0.3925 -0.2227
  159SAPE    C117670   0.633   2.734   2.190  0.3833 -0.6089  0.3081
  159SAPE    HA17671   0.735   2.769   2.215  0.0957 -0.1609  0.8730
  159SAPE    HB17672   0.578   2.816   2.138 -1.3253 -2.5037 -1.0868
  159SAPE    C217673   0.560   2.712   2.325 -0.0421  0.1229  0.0048
  159SAPE    HS17674   0.584   2.809   2.373  0.2107 -0.0732  0.2740
  159SAPE   O2117675   0.614   2.601   2.384 -0.4119 -0.2873  0.0752
  159SAPE   C2117676   0.683   2.626   2.496 -0.5981  0.2419  0.0184
  159SAPE   O2217677   0.730   2.735   2.529 -0.0128  0.6058  0.7848
  159SAPE   C2217678   0.722   2.496   2.565  0.0131  0.0986  0.2444
  159SAPE   H2R17679   0.634   2.451   2.616  0.2999 -0.0217  0.6308
  159SAPE   H2S17680   0.759   2.439   2.477 -0.3013 -2.4869  1.6929
  159SAPE    C317681   0.407   2.702   2.308  0.8623  0.3427  0.3012
  159SAPE    HX17682   0.380   2.616   2.243  0.6022 -1.1253  2.2680
  159SAPE    HY17683   0.371   2.796   2.261  0.4978 -0.0146 -0.1360
  159SAPE   O3117684   0.351   2.673   2.435  0.3669 -0.6829  1.1977
  159SAPE   C3117685   0.307   2.776   2.503 -0.3259 -0.8409 -0.4834
  159SAPE   O3217686   0.337   2.892   2.487  0.0854 -0.2277  0.1854
  159SAPE   C3217687   0.198   2.736   2.601 -0.2153 -0.4590 -0.2827
  159SAPE   H2X17688   0.117   2.685   2.544 -0.9991 -0.1142  0.4973
  159SAPE   H2Y17689   0.162   2.833   2.639  3.5039  0.2055  2.0547
  159SAPE   C2317690   0.842   2.509   2.667  0.4193  0.4588 -0.3240
  159SAPE   H3R17691   0.898   2.601   2.641 -0.6329  0.4311 -3.0043
  159SAPE   H3S17692   0.904   2.417   2.670 -0.0280  0.0437 -2.1685
  159SAPE   C2417693   0.793   2.520   2.821  0.2335  1.0103  0.0692
  159SAPE   H4R17694   0.717   2.601   2.807  0.7700  1.4735 -0.2268
  159SAPE   H4S17695   0.881   2.550   2.882  1.1773 -1.2398 -0.1197
  159SAPE   C2517696   0.733   2.391   2.890  0.0879 -0.5231  0.2340
  159SAPE   H5R17697   0.645   2.346   2.843 -0.2859 -0.5346  0.9416
  159SAPE   C2617698   0.764   2.319   2.996  0.8430 -0.3427 -0.6928
  159SAPE   H6R17699   0.695   2.242   3.034 -0.4178  1.2498  0.3988
  159SAPE   C2717700   0.884   2.332   3.086  0.2764  0.1249 -0.3636
  159SAPE   H7R17701   0.859   2.370   3.188 -1.9607 -0.6985 -0.5632
  159SAPE   H7S17702   0.952   2.411   3.048 -0.1980 -0.0016 -1.4958
  159SAPE   C2817703   0.959   2.199   3.068 -0.2652 -0.2838 -0.7452
  159SAPE   H8R17704   0.962   2.158   2.966  0.7650 -1.9268 -0.0910
  159SAPE   C2917705   1.009   2.128   3.174 -0.9572  0.1030 -0.1121
  159SAPE   H9R17706   1.071   2.040   3.158 -0.2399  0.5617  0.1105
  159SAPE  C21017707   1.014   2.173   3.314 -0.1888 -0.3424 -0.5020
  159SAPE  H10R17708   1.012   2.284   3.310  0.4444 -0.3649 -1.6946
  159SAPE  H10S17709   1.115   2.148   3.353 -1.7131 -0.5993  3.8419
  159SAPE  C21117710   0.917   2.099   3.397 -0.1605 -1.1375  0.1760
  159SAPE  H11R17711   0.899   1.997   3.361  2.0283 -2.0720  1.5191
  159SAPE  C21217712   0.865   2.120   3.520  0.2007 -0.2058 -0.8832
  159SAPE  H12R17713   0.808   2.033   3.557  0.7176 -1.3552 -2.6408
  159SAPE  C21317714   0.877   2.235   3.613 -0.3083  0.0064 -0.2250
  159SAPE  H13R17715   0.966   2.296   3.585 -0.2832 -0.9266 -2.3230
  159SAPE  H13S17716   0.899   2.199   3.716 -3.0716  1.5090  1.0057
  159SAPE  C21417717   0.749   2.322   3.620 -1.0743 -0.6208  0.7552
  159SAPE  H14R17718   0.704   2.333   3.520 -0.9934  0.6375  0.8431
  159SAPE  C21517719   0.707   2.394   3.723  0.2309 -0.0047 -0.3077
  159SAPE  H15R17720   0.609   2.445   3.716  0.6581  0.7006 -1.5890
  159SAPE  C21617721   0.771   2.412   3.864  0.0091  0.1142 -0.4270
  159SAPE  H16R17722   0.791   2.519   3.883 -1.9165  0.6777 -1.3127
  159SAPE  H16S17723   0.868   2.358   3.869 -1.1384 -2.1111 -0.7503
  159SAPE  C21717724   0.683   2.353   3.981  0.0718  0.0360 -1.3588
  159SAPE  H17R17725   0.666   2.244   3.976  2.7105 -0.6062  0.8214
  159SAPE  H17S17726   0.586   2.406   3.969 -0.0249  0.4985  1.0132
  159SAPE  C21817727   0.742   2.372   4.125 -0.1702  0.3264 -0.3092
  159SAPE  H18R17728   0.803   2.465   4.126  0.1828  0.1047  1.2403
  159SAPE  H18S17729   0.822   2.298   4.146  2.0025  1.5908 -3.3863
  159SAPE  C21917730   0.636   2.390   4.227 -0.4939  0.1125  0.3226
  159SAPE  H19R17731   0.570   2.300   4.222  1.2608 -1.2243  0.3376
  159SAPE  H19S17732   0.581   2.481   4.194  0.3152  0.2247 -0.7653
  159SAPE  C22017733   0.699   2.408   4.363  0.2107  0.1167 -0.7194
  159SAPE  H20R17734   0.610   2.420   4.428 -1.8409  0.5035 -3.4287
  159SAPE  H20S17735   0.752   2.506   4.367 -0.5832  0.5460 -0.4188
  159SAPE  H20T17736   0.759   2.323   4.401  0.5578  0.9482  0.6763
  159SAPE   C3317737   0.258   2.653   2.718  0.3575  0.4026  0.1067
  159SAPE   H3X17738   0.310   2.564   2.677 -0.4106 -0.1973  0.4111
  159SAPE   H3Y17739   0.168   2.637   2.781 -0.0867 -0.8654 -0.8218
  159SAPE   C3417740   0.351   2.743   2.807  0.1478  0.5209 -0.0684
  159SAPE   H4X17741   0.274   2.812   2.849 -0.2901 -0.4196  0.7120
  159SAPE   H4Y17742   0.430   2.802   2.756  1.2056 -0.7511  0.0454
  159SAPE   C3517743   0.420   2.658   2.910  0.2611  0.0324 -0.3517
  159SAPE   H5X17744   0.496   2.593   2.862 -1.4401 -1.5959 -0.9670
  159SAPE   H5Y17745   0.334   2.596   2.944  0.4793  0.4815  1.1020
  159SAPE   C3617746   0.479   2.727   3.036 -1.1929  0.4563 -0.1240
  159SAPE   H6X17747   0.389   2.762   3.092 -0.4305 -1.8005  2.7584
  159SAPE   H6Y17748   0.546   2.811   3.008 -1.4589  0.2014 -1.5934
  159SAPE   C3717749   0.543   2.633   3.137 -0.3999  0.2636  0.3661
  159SAPE   H7X17750   0.618   2.570   3.084 -0.4505 -1.1988  1.9501
  159SAPE   H7Y17751   0.459   2.571   3.175 -1.1099  1.0930  0.1887
  159SAPE   C3817752   0.615   2.701   3.254  0.2110 -0.1356 -0.4694
  159SAPE   H8X17753   0.544   2.751   3.324  1.1753 -0.3500  0.6878
  159SAPE   H8Y17754   0.686   2.776   3.214 -0.0894 -0.1330 -1.0046
  159SAPE   C3917755   0.693   2.602   3.328 -0.8901  0.9393 -0.0332
  159SAPE   H9X17756   0.754   2.547   3.254  0.2512  0.0621  1.4966
  159SAPE   H9Y17757   0.628   2.538   3.391  0.4554  0.0623  0.5096
  159SAPE  C31017758   0.789   2.672   3.434 -0.5796 -0.1739  0.2802
  159SAPE  H10X17759   0.883   2.694   3.378  0.2440 -1.0838  1.2683
  159SAPE  H10Y17760   0.817   2.594   3.508 -2.4957 -0.4268  0.7836
  159SAPE  C31117761   0.722   2.793   3.507  0.8060 -0.3234  0.1887
  159SAPE  H11X17762   0.689   2.869   3.433  1.0216 -0.7483 -0.3492
  159SAPE  H11Y17763   0.799   2.841   3.572  0.8446 -0.8250  0.5184
  159SAPE  C31217764   0.585   2.767   3.591  0.2833  0.3553  0.5172
  159SAPE  H12X17765   0.557   2.661   3.574  1.2247  0.0754  0.7036
  159SAPE  H12Y17766   0.501   2.824   3.545 -0.7538 -1.8733 -0.5059
  159SAPE  C31317767   0.593   2.787   3.738 -0.5599  0.4137 -0.6385
  159SAPE  H13X17768   0.573   2.893   3.762 -3.9363 -0.3569  0.4917
  159SAPE  H13Y17769   0.688   2.748   3.779 -0.3083  1.1640 -0.4904
  159SAPE  C31417770   0.479   2.709   3.812 -0.0071  0.1939  0.2481
  159SAPE  H14X17771   0.497   2.600   3.803  1.9659  0.5192 -0.0876
  159SAPE  H14Y17772   0.378   2.725   3.768 -0.3965 -0.8626  0.7012
  159SAPE  C31517773   0.471   2.756   3.961  0.4223 -0.4750 -0.6491
  159SAPE  H15X17774   0.385   2.706   4.011 -0.4162  1.3771 -0.1414
  159SAPE  H15Y17775   0.443   2.863   3.960  0.1417 -0.5117  1.1417
  159SAPE  C31617776   0.592   2.739   4.043 -0.2259  0.3329  0.3139
  159SAPE  H16X17777   0.685   2.778   3.996  1.0572 -2.1935  0.6207
  159SAPE  H16Y17778   0.610   2.630   4.038  0.1641  0.1847  3.4032
  159SAPE  C31717779   0.590   2.795   4.186 -0.2385  0.0204  0.4037
  159SAPE  H17X17780   0.579   2.904   4.166  4.8365  0.2541 -2.9101
  159SAPE  H17Y17781   0.683   2.777   4.244 -0.2451 -0.7284  0.1925
  159SAPE  C31817782   0.460   2.751   4.263  0.9096  0.2035 -0.0791
  159SAPE  H18X17783   0.369   2.773   4.203  0.6051  1.5561  0.8307
  159SAPE  H18Y17784   0.457   2.803   4.361 -1.8637 -1.3636  0.7885
  159SAPE  H18Z17785   0.467   2.644   4.292  1.4760 -0.2322 -1.7421
  160SAPE     N17786   4.694   6.711   2.155 -0.0707  1.0051 -0.3447
  160SAPE   HN117787   4.703   6.700   2.258  0.3178 -2.6057 -0.6315
  160SAPE   HN217788   4.620   6.643   2.127  1.4694 -1.3274  0.8689
  160SAPE   HN317789   4.785   6.690   2.109 -0.4376 -0.3291 -0.5075
  160SAPE   C1217790   4.661   6.850   2.105  0.3593 -0.0058 -0.0785
  160SAPE  H12A17791   4.597   6.892   2.185 -0.8208 -0.6075 -0.6917
  160SAPE  H12B17792   4.609   6.826   2.011 -1.3419  1.8386  0.3367
  160SAPE   C1117793   4.787   6.934   2.088 -0.6195 -0.7181  0.4572
  160SAPE  H11A17794   4.748   7.038   2.094 -2.2038 -1.2676  0.1342
  160SAPE  H11B17795   4.836   6.912   1.991  0.8493 -0.6310  1.1337
  160SAPE     P17796   4.969   7.000   2.285  0.2984 -0.3769  0.1248
  160SAPE   O1317797   5.078   6.921   2.347 -0.4553  0.0968  0.0431
  160SAPE   O1417798   5.011   7.131   2.225 -0.1879  0.2174 -0.0498
  160SAPE   O1217799   4.883   6.907   2.183  0.1175 -0.0944 -0.3169
  160SAPE   O1117800   4.868   7.034   2.407  0.8012 -0.8026 -0.4271
  160SAPE    C117801   4.797   6.926   2.470  0.1050  0.2198 -1.0458
  160SAPE    HA17802   4.689   6.936   2.445  0.3403 -0.5203 -2.3926
  160SAPE    HB17803   4.833   6.829   2.430 -0.4224  0.9723 -3.5106
  160SAPE    C217804   4.824   6.917   2.627  0.8676  0.4702  0.2950
  160SAPE    HS17805   4.780   6.819   2.658 -0.4978  0.8010 -0.5174
  160SAPE   O2117806   4.765   7.032   2.697  0.3198 -0.0611 -0.3142
  160SAPE   C2117807   4.636   7.039   2.693  0.1583  0.1130  0.3201
  160SAPE   O2217808   4.559   6.958   2.646 -0.1664  0.5847 -0.1039
  160SAPE   C2217809   4.586   7.174   2.751 -0.3654  0.1966 -0.3629
  160SAPE   H2R17810   4.649   7.244   2.692  2.7769 -2.3296 -0.3197
  160SAPE   H2S17811   4.478   7.192   2.732  0.0858  1.9420 -1.4568
  160SAPE    C317812   4.976   6.900   2.661  0.2597 -0.8000  0.2625
  160SAPE    HX17813   5.020   7.001   2.649 -0.7014 -0.0007  2.6676
  160SAPE    HY17814   5.015   6.825   2.590 -0.6402 -1.5035  0.4924
  160SAPE   O3117815   4.988   6.861   2.793  0.9012  0.0594 -0.4431
  160SAPE   C3117816   5.040   6.931   2.895 -0.1527 -0.7173  0.4459
  160SAPE   O3217817   5.087   7.044   2.887  0.2219  0.0422  0.1907
  160SAPE   C3217818   5.022   6.848   3.027  0.3466  1.0884  0.2551
  160SAPE   H2X17819   5.088   6.759   3.013  0.7985  1.0941  2.1055
  160SAPE   H2Y17820   4.918   6.808   3.026  0.7637 -0.0470 -0.2220
  160SAPE   C2317821   4.614   7.201   2.898  0.4033  0.3078 -0.7413
  160SAPE   H3R17822   4.595   7.310   2.908 -2.2132 -0.1025 -0.6090
  160SAPE   H3S17823   4.721   7.178   2.916  0.4408  0.9291 -0.0815
  160SAPE   C2417824   4.541   7.118   3.010 -0.1641 -0.2229  0.3478
  160SAPE   H4R17825   4.613   7.116   3.095  1.1895 -1.7876 -0.7721
  160SAPE   H4S17826   4.532   7.012   2.976  1.3747 -0.4045  0.4316
  160SAPE   C2517827   4.398   7.168   3.039 -0.2440 -0.4690 -0.4903
  160SAPE   H5R17828   4.319   7.170   2.962 -1.0576  0.8602  0.3295
  160SAPE   C2617829   4.369   7.210   3.163  0.1844  1.1370 -0.5606
  160SAPE   H6R17830   4.262   7.214   3.189  0.5193  1.7723  0.8476
  160SAPE   C2717831   4.450   7.225   3.296  0.5431 -0.2647  0.3266
  160SAPE   H7R17832   4.490   7.328   3.284  1.2700 -0.2691  2.3314
  160SAPE   H7S17833   4.534   7.153   3.292  0.3890 -0.3811 -1.6092
  160SAPE   C2817834   4.380   7.200   3.428 -0.6860  0.6800  0.1687
  160SAPE   H8R17835   4.294   7.134   3.410 -0.8247  0.4804  1.4406
  160SAPE   C2917836   4.406   7.241   3.556  0.0765 -0.2800 -0.6814
  160SAPE   H9R17837   4.336   7.200   3.630  0.6008 -0.5012 -0.3049
  160SAPE  C21017838   4.509   7.337   3.608 -0.1612 -0.2701 -0.3032
  160SAPE  H10R17839   4.499   7.345   3.718 -1.4077  1.0256 -0.4740
  160SAPE  H10S17840   4.482   7.439   3.573  2.1550  0.5513  0.1751
  160SAPE  C21117841   4.653   7.339   3.560  0.5967 -0.1050 -0.1972
  160SAPE  H11R17842   4.670   7.301   3.458  1.1839 -2.3545  0.6780
  160SAPE  C21217843   4.756   7.379   3.639 -0.1043 -1.2207  0.7504
  160SAPE  H12R17844   4.848   7.386   3.580 -1.0175  1.2730 -0.5773
  160SAPE  C21317845   4.743   7.442   3.777  0.0882 -0.3139  0.7335
  160SAPE  H13R17846   4.656   7.511   3.778  0.3306  0.0048  0.3927
  160SAPE  H13S17847   4.833   7.506   3.792 -0.3366 -0.1111  2.5765
  160SAPE  C21417848   4.728   7.336   3.884  0.4909  0.0278  0.0200
  160SAPE  H14R17849   4.659   7.253   3.862 -0.0761  0.3189  0.6712
  160SAPE  C21517850   4.791   7.345   4.007  0.8884  0.2451 -0.3867
  160SAPE  H15R17851   4.753   7.275   4.082  1.3147  1.0684  0.6239
  160SAPE  C21617852   4.885   7.455   4.062  0.5915  1.3726 -0.0082
  160SAPE  H16R17853   4.848   7.552   4.024  0.5884  1.4981  0.3112
  160SAPE  H16S17854   4.991   7.442   4.033  0.0942 -0.0631 -1.3207
  160SAPE  C21717855   4.870   7.461   4.216  0.5512  0.8194 -0.0612
  160SAPE  H17R17856   4.765   7.444   4.247  0.7308 -0.2985 -0.0502
  160SAPE  H17S17857   4.887   7.568   4.242  1.9924  1.3155 -2.6192
  160SAPE  C21817858   4.955   7.356   4.291  0.2973  0.0425 -0.1558
  160SAPE  H18R17859   5.059   7.365   4.254 -0.5611 -0.4398 -2.9284
  160SAPE  H18S17860   4.934   7.251   4.264  4.4750 -1.1811  0.6265
  160SAPE  C21917861   4.932   7.378   4.433  0.5505 -0.7351 -0.5614
  160SAPE  H19R17862   4.981   7.292   4.485 -0.0174  0.0990  1.4463
  160SAPE  H19S17863   4.825   7.373   4.460  0.6772  0.5897  0.2391
  160SAPE  C22017864   4.993   7.504   4.499 -0.7381 -0.0355  0.2576
  160SAPE  H20R17865   5.103   7.505   4.484 -0.5174 -1.6207  1.4878
  160SAPE  H20S17866   4.980   7.500   4.609 -1.3642  1.6338  0.2655
  160SAPE  H20T17867   4.941   7.596   4.467 -1.3944 -0.6156 -0.3743
  160SAPE   C3317868   5.064   6.929   3.150  0.3424  0.0843  0.1335
  160SAPE   H3X17869   5.144   7.004   3.130  2.7249 -2.3663 -0.1083
  160SAPE   H3Y17870   5.115   6.869   3.228 -0.5324 -0.9518 -0.0651
  160SAPE   C3417871   4.938   7.001   3.196  0.2978  0.0109 -0.3401
  160SAPE   H4X17872   4.859   6.927   3.220  0.1248  0.3880  0.2833
  160SAPE   H4Y17873   4.908   7.065   3.110  2.6124  2.6175  0.6339
  160SAPE   C3517874   4.968   7.097   3.314  0.4329 -0.3060  0.0251
  160SAPE   H5X17875   4.893   7.178   3.316  0.4343 -0.2342 -1.4400
  160SAPE   H5Y17876   5.056   7.161   3.288 -0.3960  0.9906  0.3283
  160SAPE   C3617877   4.988   7.036   3.449 -0.3720  0.2572 -0.7161
  160SAPE   H6X17878   5.084   6.980   3.443  0.4780  1.6254 -0.4221
  160SAPE   H6Y17879   4.909   6.964   3.476  3.0208 -2.7296  2.2187
  160SAPE   C3717880   5.001   7.133   3.567  0.4021  0.0918  1.0195
  160SAPE   H7X17881   4.898   7.137   3.609  0.8444  0.6659  2.1091
  160SAPE   H7Y17882   5.019   7.239   3.539 -1.1676  0.0588 -0.2677
  160SAPE   C3817883   5.106   7.084   3.670 -0.7254 -0.0883 -0.0491
  160SAPE   H8X17884   5.208   7.113   3.636  0.1785 -1.3920  1.4067
  160SAPE   H8Y17885   5.109   6.973   3.666  1.5748 -0.1228  0.9937
  160SAPE   C3917886   5.082   7.144   3.809 -0.9324 -0.0553  0.6005
  160SAPE   H9X17887   4.976   7.117   3.828 -0.4094 -2.7093  0.1175
  160SAPE   H9Y17888   5.110   7.252   3.812  1.8764 -0.7064  0.3027
  160SAPE  C31017889   5.166   7.076   3.924  0.2433  0.1102  1.1712
  160SAPE  H10X17890   5.276   7.095   3.917  0.0268  1.1758  0.4036
  160SAPE  H10Y17891   5.143   6.968   3.912 -3.2207  0.6803  1.7282
  160SAPE  C31117892   5.130   7.113   4.066 -0.1382 -0.4783 -0.2651
  160SAPE  H11X17893   5.020   7.102   4.076 -0.1217  0.5677  1.5336
  160SAPE  H11Y17894   5.147   7.220   4.091 -1.7511 -0.5076  1.1238
  160SAPE  C31217895   5.201   7.029   4.174  0.0723  0.5243 -0.1784
  160SAPE  H12X17896   5.309   7.057   4.179  0.7530 -2.0174  1.0903
  160SAPE  H12Y17897   5.203   6.931   4.123  0.7045  1.5984 -2.3013
  160SAPE  C31317898   5.145   7.035   4.315  0.0219  0.1029  0.1525
  160SAPE  H13X17899   5.040   7.002   4.329 -0.8066  2.7632  0.8602
  160SAPE  H13Y17900   5.127   7.141   4.344 -0.8688  1.1895 -3.7250
  160SAPE  C31417901   5.251   6.983   4.414  0.1117  0.4399 -0.9745
  160SAPE  H14X17902   5.218   6.996   4.519 -1.6857 -3.3448 -0.8834
  160SAPE  H14Y17903   5.350   7.028   4.395  0.4802 -0.7202 -1.9733
  160SAPE  C31517904   5.267   6.833   4.410 -0.9202 -0.3360  0.1239
  160SAPE  H15X17905   5.260   6.801   4.304  1.5156  1.8071 -0.7711
  160SAPE  H15Y17906   5.176   6.783   4.450  0.7685 -4.5523 -0.7128
  160SAPE  C31617907   5.400   6.781   4.461 -0.0834  0.1654 -0.1378
  160SAPE  H16X17908   5.476   6.817   4.388 -0.0943  3.5137  1.2949
  160SAPE  H16Y17909   5.395   6.671   4.467 -0.8947  0.2899  2.6473
  160SAPE  C31717910   5.432   6.817   4.608  0.6064  0.2016  0.3005
  160SAPE  H17X17911   5.337   6.813   4.665  0.3849 -0.0896 -0.0899
  160SAPE  H17Y17912   5.455   6.925   4.593 -1.8919  0.4637 -2.4999
  160SAPE  C31817913   5.548   6.739   4.662  0.3272 -0.0011  0.2916
  160SAPE  H18X17914   5.571   6.769   4.767  2.2396 -1.0989  0.2266
  160SAPE  H18Y17915   5.631   6.762   4.591  0.0303 -1.0258 -0.4107
  160SAPE  H18Z17916   5.517   6.633   4.650 -0.5963  0.5079 -2.6377
  161SAPE     N17917   4.862   4.712   2.290 -0.0237 -0.7180 -0.1317
  161SAPE   HN117918   4.958   4.671   2.288  0.9967  1.4666 -0.1256
  161SAPE   HN217919   4.797   4.636   2.317 -0.5358  0.1317  1.1275
  161SAPE   HN317920   4.850   4.742   2.191 -3.8576 -0.8169  0.1867
  161SAPE   C1217921   4.862   4.839   2.374 -0.1600  0.4015  0.2979
  161SAPE  H12A17922   4.760   4.884   2.385 -1.9596 -3.3692  0.7482
  161SAPE  H12B17923   4.928   4.907   2.317 -1.2987 -0.3815 -2.0801
  161SAPE   C1117924   4.934   4.815   2.516  0.1393  0.5348  0.2618
  161SAPE  H11A17925   4.882   4.771   2.604 -1.4456  2.8096  0.5549
  161SAPE  H11B17926   4.959   4.915   2.558 -1.6429  1.1774 -0.1140
  161SAPE     P17927   5.194   4.793   2.524  0.0131  0.2742 -0.3334
  161SAPE   O1317928   5.287   4.685   2.486 -0.6636 -1.3988 -0.4108
  161SAPE   O1417929   5.205   4.926   2.457 -0.4187 -0.5290 -0.0718
  161SAPE   O1217930   5.047   4.733   2.497  0.0798  0.4507  0.3656
  161SAPE   O1117931   5.195   4.818   2.677 -0.1520 -0.5470  0.1123
  161SAPE    C117932   5.147   4.730   2.778 -0.2075 -0.6585 -0.2586
  161SAPE    HA17933   5.106   4.787   2.865 -1.3262 -0.4071 -0.9355
  161SAPE    HB17934   5.069   4.665   2.734 -1.0538  1.9182 -2.8825
  161SAPE    C217935   5.261   4.654   2.851 -0.4270  0.3845  0.8315
  161SAPE    HS17936   5.282   4.567   2.786 -3.0292 -0.2159  0.6748
  161SAPE   O2117937   5.216   4.601   2.982 -0.2813 -0.7259  0.5762
  161SAPE   C2117938   5.271   4.492   3.025 -0.3182  0.2082  0.2814
  161SAPE   O2217939   5.356   4.422   2.966  0.5313 -0.2930  0.3134
  161SAPE   C2217940   5.209   4.452   3.157  0.8349  0.6435  0.1296
  161SAPE   H2R17941   5.264   4.380   3.221  1.6720  0.1439 -1.1326
  161SAPE   H2S17942   5.204   4.543   3.221 -0.3474  1.6708 -1.3325
  161SAPE    C317943   5.379   4.755   2.865 -0.1942  1.1278 -0.1206
  161SAPE    HX17944   5.333   4.841   2.918  0.4245  0.6340  1.2662
  161SAPE    HY17945   5.423   4.785   2.768 -1.7170  1.4613 -0.7325
  161SAPE   O3117946   5.487   4.700   2.948  0.0181  0.0611  0.2274
  161SAPE   C3117947   5.583   4.634   2.881  0.3904 -0.2655 -0.0440
  161SAPE   O3217948   5.585   4.619   2.759 -0.1252  0.2086  0.1515
  161SAPE   C3217949   5.684   4.614   2.982 -0.5241  0.0928  0.6601
  161SAPE   H2X17950   5.642   4.594   3.083 -0.0409  2.3721  1.3720
  161SAPE   H2Y17951   5.740   4.710   2.981  1.7931 -1.1760 -0.5655
  161SAPE   C2317952   5.065   4.404   3.139 -0.6074 -0.3932 -0.0077
  161SAPE   H3R17953   5.066   4.309   3.081  1.1393 -0.3240 -0.1389
  161SAPE   H3S17954   5.004   4.477   3.082  0.1694  1.6256  1.6311
  161SAPE   C2417955   5.000   4.388   3.277  0.3337  0.6106  0.5078
  161SAPE   H4R17956   4.900   4.350   3.245 -0.0754  2.7437 -0.9481
  161SAPE   H4S17957   4.991   4.480   3.338  0.1936  0.0846  1.2923
  161SAPE   C2517958   5.068   4.281   3.360 -0.5338 -0.7708 -0.1074
  161SAPE   H5R17959   5.097   4.192   3.303 -2.3118 -1.3845 -0.1035
  161SAPE   C2617960   5.106   4.283   3.489 -0.0871  0.0115  0.7136
  161SAPE   H6R17961   5.143   4.187   3.530  0.3009 -0.6135 -1.0105
  161SAPE   C2717962   5.077   4.394   3.588  0.1719 -0.4641 -0.7613
  161SAPE   H7R17963   5.001   4.357   3.660  1.3995 -1.4052  0.0940
  161SAPE   H7S17964   5.037   4.487   3.543  1.2550  1.3126  1.7112
  161SAPE   C2817965   5.204   4.407   3.670  0.2971  0.1239  0.4694
  161SAPE   H8R17966   5.268   4.477   3.614 -2.5278  2.6269  0.1470
  161SAPE   C2917967   5.232   4.364   3.789 -0.5726 -0.7207  0.3990
  161SAPE   H9R17968   5.330   4.393   3.831  0.4034 -2.8396 -0.2723
  161SAPE  C21017969   5.147   4.285   3.878  0.1013  0.5210  0.4591
  161SAPE  H10R17970   5.079   4.213   3.828 -0.8282  1.2926  0.5743
  161SAPE  H10S17971   5.078   4.351   3.936  0.7656  0.9164  0.8139
  161SAPE  C21117972   5.236   4.208   3.973 -1.0866 -0.5332  0.4860
  161SAPE  H11R17973   5.316   4.154   3.922 -0.5231  0.1540  0.6198
  161SAPE  C21217974   5.221   4.205   4.108  0.6370 -0.3224 -0.5610
  161SAPE  H12R17975   5.294   4.142   4.161  1.0253  0.2839 -0.3625
  161SAPE  C21317976   5.118   4.278   4.197  0.6957  0.1249  0.1601
  161SAPE  H13R17977   5.075   4.208   4.272  0.9225  0.2665  0.4206
  161SAPE  H13S17978   5.039   4.310   4.125  1.2335 -1.3004 -1.1230
  161SAPE  C21417979   5.176   4.401   4.254 -0.3602 -0.5947  0.4543
  161SAPE  H14R17980   5.224   4.459   4.174 -0.2656 -0.2539  0.7539
  161SAPE  C21517981   5.151   4.447   4.379  0.1759 -0.5597 -0.1739
  161SAPE  H15R17982   5.210   4.532   4.417 -0.0797 -1.0653  1.4658
  161SAPE  C21617983   5.082   4.378   4.490 -0.4246  0.6112 -0.2163
  161SAPE  H16R17984   5.003   4.311   4.449  1.6126 -0.7934 -2.1157
  161SAPE  H16S17985   5.037   4.451   4.561  1.0202  2.8509 -1.4969
  161SAPE  C21717986   5.181   4.287   4.556 -0.2433 -0.2982  0.0817
  161SAPE  H17R17987   5.258   4.354   4.600 -0.8148  0.9946 -0.8142
  161SAPE  H17S17988   5.213   4.214   4.478 -1.1514 -0.5785 -0.0420
  161SAPE  C21817989   5.114   4.207   4.667  0.6224 -0.1562 -0.6044
  161SAPE  H18R17990   5.007   4.181   4.650  0.8248 -1.9179  0.5609
  161SAPE  H18S17991   5.102   4.264   4.762 -2.5664 -2.4754  0.5499
  161SAPE  C21917992   5.192   4.085   4.696 -0.8410  0.4550  0.4824
  161SAPE  H19R17993   5.176   4.014   4.612  0.4973  0.2828  0.3593
  161SAPE  H19S17994   5.152   4.038   4.788 -2.7466  1.2954  0.1369
  161SAPE  C22017995   5.345   4.111   4.703 -0.4691  0.8960 -0.0360
  161SAPE  H20R17996   5.362   4.184   4.785  0.6849  1.8598 -1.0868
  161SAPE  H20S17997   5.383   4.148   4.606  1.6472  0.1373  0.4611
  161SAPE  H20T17998   5.380   4.011   4.737 -3.1696  0.1702  0.8971
  161SAPE   C3317999   5.778   4.487   2.959  0.1900 -0.0449 -0.4816
  161SAPE   H3X18000   5.875   4.518   3.002 -0.0901  0.1194  0.0355
  161SAPE   H3Y18001   5.798   4.474   2.850 -1.3620  2.6932 -1.2038
  161SAPE   C3418002   5.725   4.354   3.013  0.2161 -0.0220 -0.1431
  161SAPE   H4X18003   5.638   4.310   2.958  1.4884 -1.6768 -0.9124
  161SAPE   H4Y18004   5.686   4.363   3.117 -1.4317 -1.2347 -0.6049
  161SAPE   C3518005   5.829   4.246   3.005 -0.0243 -0.7074  0.7288
  161SAPE   H5X18006   5.866   4.258   2.901  1.1294 -1.1108  1.0647
  161SAPE   H5Y18007   5.767   4.154   3.010  0.0404 -0.8476 -0.7761
  161SAPE   C3618008   5.942   4.246   3.112 -0.4537  0.1866  0.1538
  161SAPE   H6X18009   5.999   4.338   3.090  1.0671 -0.7262  0.1237
  161SAPE   H6Y18010   6.012   4.164   3.084 -0.9154 -0.3164  0.4464
  161SAPE   C3718011   5.907   4.247   3.256  0.2952 -0.0315  0.1624
  161SAPE   H7X18012   5.876   4.144   3.283  0.9624 -0.4002 -0.4567
  161SAPE   H7Y18013   5.822   4.319   3.263  0.6114  0.7545 -2.8458
  161SAPE   C3818014   6.021   4.299   3.349  0.1906 -0.1217  0.3119
  161SAPE   H8X18015   6.048   4.398   3.308  1.7265 -0.5245  0.2895
  161SAPE   H8Y18016   6.106   4.228   3.336  0.6050  0.2113  1.1393
  161SAPE   C3918017   5.990   4.315   3.498 -0.5785 -0.6763 -0.2252
  161SAPE   H9X18018   5.908   4.244   3.522 -0.6052 -1.1095 -1.5233
  161SAPE   H9Y18019   5.968   4.419   3.529 -0.6270 -0.8928  0.4821
  161SAPE  C31018020   6.099   4.257   3.589 -0.4164  0.8251 -0.1005
  161SAPE  H10X18021   6.191   4.319   3.587 -0.2224  0.7394  2.6637
  161SAPE  H10Y18022   6.119   4.155   3.550 -0.8413 -0.1675  2.0922
  161SAPE  C31118023   6.046   4.249   3.732  0.8173 -0.2340 -0.3539
  161SAPE  H11X18024   6.133   4.225   3.797  1.3054  0.0507 -0.9010
  161SAPE  H11Y18025   5.974   4.166   3.748  1.1495 -0.2024  1.5045
  161SAPE  C31218026   5.988   4.379   3.790  0.2752  0.1098  0.3988
  161SAPE  H12X18027   5.915   4.432   3.726  0.9491  0.2599 -0.2583
  161SAPE  H12Y18028   6.071   4.452   3.797  2.0611 -1.7899 -0.0130
  161SAPE  C31318029   5.932   4.344   3.928 -0.4190 -0.8608 -0.2247
  161SAPE  H13X18030   6.017   4.311   3.991  1.0504  3.0062  0.1053
  161SAPE  H13Y18031   5.870   4.253   3.916 -0.2185 -0.9632 -0.5293
  161SAPE  C31418032   5.854   4.459   3.997 -0.4482  0.0345 -0.3820
  161SAPE  H14X18033   5.791   4.520   3.930 -1.7865 -0.5405  0.3114
  161SAPE  H14Y18034   5.926   4.525   4.049 -2.3713  0.5000  1.8393
  161SAPE  C31518035   5.774   4.394   4.117  0.1654 -0.0475  0.1376
  161SAPE  H15X18036   5.852   4.372   4.193  2.1569 -0.6965 -2.0022
  161SAPE  H15Y18037   5.725   4.306   4.071 -1.6471  0.8414  0.2596
  161SAPE  C31618038   5.676   4.494   4.184 -0.1485  0.3777 -0.1458
  161SAPE  H16X18039   5.590   4.500   4.114  0.4620  1.9091 -0.8068
  161SAPE  H16Y18040   5.725   4.594   4.175 -1.7544  1.0042 -4.0875
  161SAPE  C31718041   5.625   4.458   4.328 -0.3646  0.0425 -0.5862
  161SAPE  H17X18042   5.584   4.355   4.332  3.6174 -1.6905  2.7395
  161SAPE  H17Y18043   5.543   4.528   4.357  0.9325  1.5357 -0.3346
  161SAPE  C31818044   5.729   4.467   4.438 -0.9564  0.6799 -0.6214
  161SAPE  H18X18045   5.678   4.465   4.537  0.9839 -2.2946  0.4692
  161SAPE  H18Y18046   5.794   4.557   4.435 -1.1396  0.7989 -1.1635
  161SAPE  H18Z18047   5.791   4.374   4.434  0.4324  1.1840  3.8748
  162SAPE     N18048   0.616   6.217   2.646  0.0700  0.0680 -0.8388
  162SAPE   HN118049   0.519   6.192   2.678  0.5531  2.0036  2.6096
  162SAPE   HN218050   0.673   6.131   2.633 -0.6044 -0.8882  1.8420
  162SAPE   HN318051   0.666   6.263   2.725  0.9898  1.3875 -2.1550
  162SAPE   C1218052   0.624   6.297   2.518 -0.7801 -0.1348 -0.5506
  162SAPE  H12A18053   0.605   6.221   2.439 -0.1610 -1.7377  0.8050
  162SAPE  H12B18054   0.733   6.308   2.501 -0.8786 -1.3224 -2.1450
  162SAPE   C1118055   0.559   6.435   2.505  0.0150 -0.0418 -0.5377
  162SAPE  H11A18056   0.609   6.484   2.419 -0.2124 -0.7139 -1.0612
  162SAPE  H11B18057   0.571   6.495   2.597  1.4314 -0.2037 -0.5966
  162SAPE     P18058   0.347   6.407   2.346 -0.4556  0.2524 -0.1429
  162SAPE   O1318059   0.375   6.537   2.276  0.1404 -0.2633 -0.2665
  162SAPE   O1418060   0.392   6.286   2.279 -0.1459  0.8704 -0.4814
  162SAPE   O1218061   0.426   6.396   2.483  0.1551  0.4216 -0.1259
  162SAPE   O1118062   0.189   6.405   2.367  0.7262  0.3141  0.2209
  162SAPE    C118063   0.111   6.323   2.451 -0.4028 -0.2122 -0.0859
  162SAPE    HA18064   0.021   6.286   2.398  0.5133 -0.2903 -1.6716
  162SAPE    HB18065   0.178   6.248   2.500  1.7344  2.1372  0.8006
  162SAPE    C218066   0.066   6.405   2.581 -0.7278  0.2258  0.2456
  162SAPE    HS18067   0.004   6.336   2.641 -0.4655  0.8579  1.2600
  162SAPE   O2118068  -0.004   6.528   2.550  0.2940 -0.1442  0.3584
  162SAPE   C2118069  -0.124   6.512   2.512  0.1173  0.5072 -0.3245
  162SAPE   O2218070  -0.185   6.407   2.516  0.7907  0.6463  0.1998
  162SAPE   C2218071  -0.172   6.643   2.446  0.1091  0.1785  0.0139
  162SAPE   H2R18072  -0.086   6.710   2.428  0.0318  0.2020 -0.2650
  162SAPE   H2S18073  -0.203   6.612   2.344  2.0524  1.9124 -1.1650
  162SAPE    C318074   0.189   6.431   2.671  0.1832  0.0446 -0.8778
  162SAPE    HX18075   0.237   6.520   2.625 -0.0062  1.2163  1.0381
  162SAPE    HY18076   0.263   6.349   2.679  0.4799  0.2700 -1.2769
  162SAPE   O3118077   0.147   6.475   2.807 -0.5202 -0.1349  0.4823
  162SAPE   C3118078   0.162   6.384   2.901  0.7311 -0.3953 -0.0586
  162SAPE   O3218079   0.198   6.269   2.883  0.3566  0.2638 -0.4616
  162SAPE   C3218080   0.102   6.433   3.030  0.4627  0.2757 -0.2332
  162SAPE   H2X18081  -0.008   6.433   3.014  0.4540  0.0699 -0.1672
  162SAPE   H2Y18082   0.126   6.538   3.057  0.7862  0.0563  0.3563
  162SAPE   C2318083  -0.281   6.710   2.528  0.1478 -0.1230 -0.0927
  162SAPE   H3R18084  -0.239   6.744   2.626 -0.7338  0.9467 -0.0761
  162SAPE   H3S18085  -0.365   6.638   2.526 -1.6484  1.9093 -2.1761
  162SAPE   C2418086  -0.333   6.841   2.457  0.7263 -0.1289 -0.0295
  162SAPE   H4R18087  -0.420   6.873   2.518  0.2240  0.2754 -0.9384
  162SAPE   H4S18088  -0.365   6.812   2.354  1.9411 -0.8078 -0.2451
  162SAPE   C2518089  -0.228   6.942   2.444 -0.2822 -0.1606  0.5701
  162SAPE   H5R18090  -0.156   6.915   2.365  0.5082  0.0153  1.2177
  162SAPE   C2618091  -0.212   7.046   2.517 -0.9294  0.0131 -0.1101
  162SAPE   H6R18092  -0.125   7.112   2.509 -0.4062 -0.6163  0.2855
  162SAPE   C2718093  -0.306   7.071   2.637  0.6840  0.1876 -0.1697
  162SAPE   H7R18094  -0.296   6.989   2.710  0.3397 -0.2818 -0.6395
  162SAPE   H7S18095  -0.413   7.078   2.606  0.5969  0.8383  0.2641
  162SAPE   C2818096  -0.279   7.195   2.716  0.2766  0.0366  0.1278
  162SAPE   H8R18097  -0.207   7.256   2.661 -1.2936  0.8767 -1.0770
  162SAPE   C2918098  -0.323   7.236   2.839  0.3748  0.0274  0.0588
  162SAPE   H9R18099  -0.303   7.343   2.853 -1.9450  0.4924  0.2864
  162SAPE  C21018100  -0.407   7.168   2.951 -1.0842  0.2594 -0.1328
  162SAPE  H10R18101  -0.467   7.083   2.912 -0.3571 -0.3492  0.0618
  162SAPE  H10S18102  -0.477   7.249   2.979 -0.8184 -0.1525  1.8771
  162SAPE  C21118103  -0.334   7.114   3.077  0.9222  0.7903  0.1433
  162SAPE  H11R18104  -0.267   7.028   3.061  1.5543  1.5615 -1.6447
  162SAPE  C21218105  -0.329   7.172   3.197 -0.1780 -0.1924  0.3281
  162SAPE  H12R18106  -0.276   7.112   3.273 -1.3090 -0.1295  1.1987
  162SAPE  C21318107  -0.392   7.302   3.241 -0.4675  0.2573 -0.1459
  162SAPE  H13R18108  -0.390   7.379   3.161 -0.0448  0.3431 -0.0562
  162SAPE  H13S18109  -0.323   7.349   3.315  2.5721 -0.1911 -2.5076
  162SAPE  C21418110  -0.526   7.289   3.304 -0.8101 -0.5714  0.2674
  162SAPE  H14R18111  -0.577   7.205   3.255  0.4477 -0.6972 -0.8855
  162SAPE  C21518112  -0.575   7.345   3.412  0.2358 -0.4337 -0.3577
  162SAPE  H15R18113  -0.681   7.329   3.438 -0.0041 -0.2241 -1.1820
  162SAPE  C21618114  -0.501   7.450   3.492  0.0125  0.2012  0.0697
  162SAPE  H16R18115  -0.430   7.503   3.426 -0.7908  0.4180 -0.6436
  162SAPE  H16S18116  -0.436   7.391   3.560 -1.7477 -2.0620 -0.0668
  162SAPE  C21718117  -0.611   7.540   3.552 -0.1094  0.2828 -0.2936
  162SAPE  H17R18118  -0.678   7.474   3.611  1.2293  0.7612  1.8959
  162SAPE  H17S18119  -0.676   7.585   3.474 -1.1637 -0.3237  0.2109
  162SAPE  C21818120  -0.555   7.646   3.645 -0.2416  0.1125 -0.7840
  162SAPE  H18R18121  -0.517   7.732   3.586  1.1281 -0.1616 -0.3492
  162SAPE  H18S18122  -0.472   7.598   3.702 -0.2700  0.1560 -0.7069
  162SAPE  C21918123  -0.659   7.689   3.747  0.3855 -0.3350  1.0541
  162SAPE  H19R18124  -0.754   7.698   3.690  1.5794  1.8853 -0.7831
  162SAPE  H19S18125  -0.637   7.793   3.779 -0.7829  0.9505 -1.9443
  162SAPE  C22018126  -0.674   7.598   3.874  0.1777 -0.0925  0.4492
  162SAPE  H20R18127  -0.771   7.615   3.927  0.0889 -1.9326  0.9382
  162SAPE  H20S18128  -0.590   7.615   3.945  2.0276  1.6323 -1.9932
  162SAPE  H20T18129  -0.687   7.492   3.842  0.9310 -0.8531  2.4956
  162SAPE   C3318130   0.131   6.330   3.138  0.3363  0.0795 -0.0831
  162SAPE   H3X18131   0.238   6.346   3.164 -0.4137  0.1493  3.5348
  162SAPE   H3Y18132   0.114   6.223   3.112 -1.2322 -0.1296  1.5813
  162SAPE   C3418133   0.058   6.363   3.267 -0.3357 -0.9153 -0.3423
  162SAPE   H4X18134  -0.052   6.355   3.265 -0.6242  1.6482  0.7586
  162SAPE   H4Y18135   0.081   6.471   3.284  1.9746 -1.5486  0.9823
  162SAPE   C3518136   0.108   6.281   3.384  0.0791  0.2013 -0.0281
  162SAPE   H5X18137   0.212   6.312   3.407 -0.3592  1.3334  0.4574
  162SAPE   H5Y18138   0.101   6.175   3.351  0.0219 -0.3109  1.5586
  162SAPE   C3618139   0.026   6.316   3.500  0.4239  1.0882  0.7050
  162SAPE   H6X18140  -0.075   6.287   3.465  0.7496  0.0501  0.6118
  162SAPE   H6Y18141   0.021   6.426   3.518  0.2463  1.8395 -3.1098
  162SAPE   C3718142   0.048   6.219   3.622 -0.8080 -0.3843 -0.2135
  162SAPE   H7X18143   0.040   6.118   3.577  0.3600 -0.6533  0.1541
  162SAPE   H7Y18144  -0.041   6.222   3.688 -1.3853 -0.9780 -0.9407
  162SAPE   C3818145   0.179   6.236   3.698 -0.6521  0.1066  0.1542
  162SAPE   H8X18146   0.181   6.342   3.733 -0.7837  0.0099  0.4556
  162SAPE   H8Y18147   0.270   6.222   3.635 -0.1995  3.2358 -0.0585
  162SAPE   C3918148   0.188   6.151   3.823  0.7656  1.1809  0.1857
  162SAPE   H9X18149   0.289   6.154   3.870  0.7598  0.4075  0.2648
  162SAPE   H9Y18150   0.167   6.046   3.793 -2.1468  1.7989 -0.2654
  162SAPE  C31018151   0.087   6.197   3.929 -0.3038 -1.1608 -0.0919
  162SAPE  H10X18152  -0.013   6.166   3.890 -1.1554 -2.3349  2.7610
  162SAPE  H10Y18153   0.092   6.307   3.938  0.1286 -1.0819 -1.1957
  162SAPE  C31118154   0.106   6.132   4.068 -0.1989 -0.6047 -0.0377
  162SAPE  H11X18155   0.210   6.152   4.103 -0.3597  0.9450 -0.3606
  162SAPE  H11Y18156   0.094   6.022   4.070  1.4078 -0.8309 -0.9770
  162SAPE  C31218157   0.017   6.207   4.174  0.6561 -0.0504  0.5831
  162SAPE  H12X18158  -0.076   6.234   4.119  2.0251 -0.3364 -2.0229
  162SAPE  H12Y18159   0.072   6.299   4.203  0.5037  0.7634 -1.5287
  162SAPE  C31318160  -0.018   6.117   4.296 -0.3171  0.6308  0.3858
  162SAPE  H13X18161   0.075   6.067   4.331  0.8611 -0.2186 -3.4739
  162SAPE  H13Y18162  -0.085   6.035   4.263 -0.3951  1.3682 -1.3494
  162SAPE  C31418163  -0.095   6.203   4.394 -0.5373 -0.7561 -0.7939
  162SAPE  H14X18164  -0.182   6.240   4.335 -0.4277  1.3631  0.2903
  162SAPE  H14Y18165  -0.045   6.295   4.429 -1.0002 -1.2103  1.2174
  162SAPE  C31518166  -0.143   6.134   4.524  0.4313  0.0452  0.0985
  162SAPE  H15X18167  -0.064   6.107   4.598 -1.0153  0.0203  1.6836
  162SAPE  H15Y18168  -0.208   6.045   4.513  0.4790  0.0329 -0.0794
  162SAPE  C31618169  -0.235   6.234   4.602 -0.3988  0.1677  0.1655
  162SAPE  H16X18170  -0.314   6.270   4.533 -0.0432  0.4620 -0.0946
  162SAPE  H16Y18171  -0.188   6.330   4.631 -2.3481  2.5979 -3.7916
  162SAPE  C31718172  -0.278   6.169   4.736 -1.0942 -0.4403  0.3061
  162SAPE  H17X18173  -0.184   6.135   4.786 -0.8512  0.3762  0.4168
  162SAPE  H17Y18174  -0.344   6.086   4.704 -2.9434  1.2791 -0.5022
  162SAPE  C31818175  -0.353   6.267   4.826 -0.3808  0.9791 -0.1688
  162SAPE  H18X18176  -0.319   6.372   4.816  1.4142  0.4191 -0.2780
  162SAPE  H18Y18177  -0.351   6.227   4.930 -2.4416  2.2753  0.4397
  162SAPE  H18Z18178  -0.462   6.264   4.806 -0.0336  0.9437 -2.2000
  163SAPE     N18179   4.091   5.802   2.415  0.0289  0.5870  0.1878
  163SAPE   HN118180   4.110   5.715   2.360 -1.8534  0.2081  0.0701
  163SAPE   HN218181   4.024   5.862   2.363 -0.7531 -1.6575 -1.6130
  163SAPE   HN318182   4.183   5.848   2.427  0.5265 -0.3859  0.1841
  163SAPE   C1218183   4.040   5.760   2.549  0.3246  0.0136 -0.6118
  163SAPE  H12A18184   4.008   5.852   2.603  1.9230 -0.7044  1.6836
  163SAPE  H12B18185   4.124   5.718   2.608 -0.7551 -1.5782 -0.1337
  163SAPE   C1118186   3.914   5.668   2.555 -0.4836 -0.3441 -0.2033
  163SAPE  H11A18187   3.902   5.645   2.663 -1.5912 -1.5220 -0.5490
  163SAPE  H11B18188   3.929   5.575   2.494  0.3169 -1.8846  2.1912
  163SAPE     P18189   3.657   5.667   2.532 -0.0695  0.7551 -0.0921
  163SAPE   O1318190   3.546   5.748   2.474 -0.2461 -0.0446 -0.2093
  163SAPE   O1418191   3.684   5.528   2.482  0.3014  0.2721 -0.2410
  163SAPE   O1218192   3.796   5.739   2.504  0.2748 -0.2933  0.4076
  163SAPE   O1118193   3.650   5.659   2.684  0.3845  0.2644  0.1024
  163SAPE    C118194   3.629   5.777   2.764 -0.2404 -1.2550  0.2514
  163SAPE    HA18195   3.614   5.872   2.708 -0.6830 -0.1617  2.1515
  163SAPE    HB18196   3.535   5.762   2.820 -0.8317 -1.6141 -0.7979
  163SAPE    C218197   3.752   5.804   2.863 -0.5617 -0.4936  0.5259
  163SAPE    HS18198   3.840   5.841   2.806 -0.1352 -0.0160  1.4689
  163SAPE   O2118199   3.782   5.675   2.924  0.2816  0.2168 -0.5013
  163SAPE   C2118200   3.910   5.659   2.968  0.6002 -0.4429 -0.0741
  163SAPE   O2218201   3.987   5.752   2.976 -0.2132 -0.1975  0.1533
  163SAPE   C2218202   3.935   5.513   3.017  0.2692  0.1524  0.5775
  163SAPE   H2R18203   3.841   5.480   3.065 -0.2542  1.0412  0.1956
  163SAPE   H2S18204   3.968   5.447   2.935 -1.7255 -0.7005  0.4162
  163SAPE    C318205   3.696   5.898   2.970  0.2172 -0.5345  0.5303
  163SAPE    HX18206   3.607   5.851   3.017  1.2475 -2.4011  0.7156
  163SAPE    HY18207   3.654   5.978   2.905  1.8050  0.2728  0.4548
  163SAPE   O3118208   3.784   5.944   3.070  0.3317  0.1893  0.3753
  163SAPE   C3118209   3.866   6.043   3.038  0.3669  0.2260 -0.5213
  163SAPE   O3218210   3.872   6.091   2.926 -0.4252  0.1632  0.4364
  163SAPE   C3218211   3.929   6.121   3.157 -0.0184  1.1462 -0.8944
  163SAPE   H2X18212   3.910   6.229   3.143 -0.9864  0.9981 -0.8147
  163SAPE   H2Y18213   4.039   6.107   3.148  0.2215  2.4241 -0.1485
  163SAPE   C2318214   4.038   5.518   3.136 -0.2114  0.3699 -0.0552
  163SAPE   H3R18215   4.010   5.610   3.192 -1.3511  0.0675 -0.1015
  163SAPE   H3S18216   4.137   5.549   3.095 -0.2420  2.1399  1.1138
  163SAPE   C2418217   4.043   5.392   3.216  0.4888 -0.0712 -0.1587
  163SAPE   H4R18218   4.077   5.312   3.147 -0.7394 -0.2597 -0.5646
  163SAPE   H4S18219   3.939   5.367   3.247  1.6434 -1.9713  2.4564
  163SAPE   C2518220   4.132   5.393   3.334  0.0180  0.3588  0.5508
  163SAPE   H5R18221   4.238   5.420   3.321 -0.7028  2.9120 -0.5269
  163SAPE   C2618222   4.092   5.369   3.458 -0.4424  0.1683 -0.6805
  163SAPE   H6R18223   4.162   5.371   3.543 -2.0093 -1.5174  0.7360
  163SAPE   C2718224   3.950   5.336   3.506  0.2833  0.5552 -0.4282
  163SAPE   H7R18225   3.874   5.387   3.444  0.1966 -0.3226 -1.0562
  163SAPE   H7S18226   3.926   5.374   3.607  1.4355  1.7679 -0.5822
  163SAPE   C2818227   3.918   5.192   3.507  0.1048  0.3539 -0.5750
  163SAPE   H8R18228   3.879   5.146   3.415 -1.0365  0.3192 -0.0908
  163SAPE   C2918229   3.934   5.111   3.611  0.5476  0.1488  0.8357
  163SAPE   H9R18230   3.898   5.008   3.595 -0.2602  0.5966 -0.3139
  163SAPE  C21018231   3.987   5.149   3.748 -0.4181  0.4959 -0.0041
  163SAPE  H10R18232   3.928   5.232   3.794 -0.7628  0.9007 -1.1303
  163SAPE  H10S18233   4.088   5.195   3.742 -0.6576  1.2161  1.1605
  163SAPE  C21118234   3.989   5.026   3.841 -0.5810  0.0587 -0.4261
  163SAPE  H11R18235   4.008   4.927   3.797 -1.3925 -0.3596  0.1338
  163SAPE  C21218236   3.949   5.015   3.969  0.2558 -0.4024 -0.9024
  163SAPE  H12R18237   3.954   4.916   4.017  0.2532 -0.6683 -1.4429
  163SAPE  C21318238   3.902   5.123   4.060  0.3510  0.5744  0.2183
  163SAPE  H13R18239   3.791   5.118   4.060  0.3871 -1.1040  0.2950
  163SAPE  H13S18240   3.940   5.222   4.027  0.3978  0.2153 -0.8345
  163SAPE  C21418241   3.944   5.097   4.202 -0.4277 -0.3223  0.2946
  163SAPE  H14R18242   3.952   4.992   4.231  2.0837 -0.2686  0.0760
  163SAPE  C21518243   3.964   5.190   4.297 -0.0568 -0.0434  0.5465
  163SAPE  H15R18244   3.989   5.155   4.399  0.4630  0.5146  0.6143
  163SAPE  C21618245   3.938   5.338   4.294 -0.3639  0.3929  0.5844
  163SAPE  H16R18246   3.942   5.379   4.192 -1.0106 -0.8979  0.0070
  163SAPE  H16S18247   3.988   5.391   4.378  0.8303  1.2174 -0.6269
  163SAPE  C21718248   3.786   5.357   4.337 -0.6994  0.8264  0.3852
  163SAPE  H17R18249   3.717   5.307   4.266  0.7032 -0.9414  0.1970
  163SAPE  H17S18250   3.763   5.466   4.334  0.3107  1.1044  1.6547
  163SAPE  C21818251   3.760   5.313   4.482  0.0461  0.6946  0.3905
  163SAPE  H18R18252   3.847   5.346   4.544  0.9003 -1.3826  0.3714
  163SAPE  H18S18253   3.751   5.203   4.493  0.5626  0.5372 -0.6890
  163SAPE  C21918254   3.633   5.360   4.547  0.6561 -0.4307  0.0795
  163SAPE  H19R18255   3.635   5.325   4.652 -0.5182 -0.6678  0.0425
  163SAPE  H19S18256   3.545   5.297   4.520 -0.6799  0.3500  2.3287
  163SAPE  C22018257   3.590   5.510   4.531  0.0938  0.2575  0.0431
  163SAPE  H20R18258   3.651   5.581   4.592  1.5258 -1.5807  0.8812
  163SAPE  H20S18259   3.488   5.521   4.573  0.1766 -1.4781  0.8218
  163SAPE  H20T18260   3.588   5.548   4.427  0.0744 -0.7766 -0.3507
  163SAPE   C3318261   3.890   6.073   3.294 -0.6992 -0.9593  0.1589
  163SAPE   H3X18262   3.952   5.983   3.313  1.7377  0.1959 -1.7379
  163SAPE   H3Y18263   3.782   6.048   3.288 -0.8230 -0.2475 -0.8339
  163SAPE   C3418264   3.912   6.166   3.407 -0.2051  0.2485  0.1809
  163SAPE   H4X18265   3.859   6.255   3.369  0.8440  0.4880 -0.7734
  163SAPE   H4Y18266   4.018   6.198   3.417 -0.1680  0.8081 -1.6998
  163SAPE   C3518267   3.867   6.104   3.544 -0.8939 -0.1974 -0.7092
  163SAPE   H5X18268   3.932   6.017   3.564 -1.1250 -0.7164 -2.0801
  163SAPE   H5Y18269   3.762   6.072   3.554 -0.6969 -0.0793  2.5297
  163SAPE   C3618270   3.882   6.208   3.655  0.0669  0.0531  0.1454
  163SAPE   H6X18271   3.809   6.290   3.637  0.9983  0.6733 -0.8758
  163SAPE   H6Y18272   3.983   6.254   3.658  0.4156 -0.7073  0.2678
  163SAPE   C3718273   3.853   6.140   3.797  0.0944 -0.1467 -0.0819
  163SAPE   H7X18274   3.937   6.067   3.798 -0.8144 -1.2488  1.4334
  163SAPE   H7Y18275   3.757   6.087   3.778  0.0474  0.3009 -1.1290
  163SAPE   C3818276   3.858   6.233   3.919  0.3164 -0.3217  0.2376
  163SAPE   H8X18277   3.813   6.332   3.899 -0.4376 -0.6403  0.3246
  163SAPE   H8Y18278   3.965   6.262   3.922 -0.0266  1.2086 -0.8891
  163SAPE   C3918279   3.811   6.180   4.055  0.3914 -0.8119  0.1106
  163SAPE   H9X18280   3.877   6.092   4.073 -1.0436 -2.2016 -1.1271
  163SAPE   H9Y18281   3.713   6.130   4.044 -0.1486 -0.1446  1.6777
  163SAPE  C31018282   3.822   6.277   4.166  0.0750  0.6846 -0.1403
  163SAPE  H10X18283   3.722   6.325   4.175 -1.3657 -1.6653 -2.2375
  163SAPE  H10Y18284   3.903   6.351   4.155  1.5582 -0.8113  0.2817
  163SAPE  C31118285   3.839   6.208   4.305 -0.4658 -0.3886 -0.3265
  163SAPE  H11X18286   3.916   6.128   4.297 -2.7014 -2.7897  0.7609
  163SAPE  H11Y18287   3.741   6.168   4.338 -0.5198  0.8937  1.1516
  163SAPE  C31218288   3.887   6.307   4.417  0.6766  0.6735  0.1584
  163SAPE  H12X18289   3.808   6.385   4.415 -0.7181 -0.6590  0.8731
  163SAPE  H12Y18290   3.989   6.334   4.382  1.2558 -3.1417 -1.6582
  163SAPE  C31318291   3.902   6.229   4.552 -0.3095  0.9510 -0.0263
  163SAPE  H13X18292   3.921   6.306   4.629  0.4150  1.7014 -0.9266
  163SAPE  H13Y18293   3.990   6.162   4.538  0.0227  0.4063  3.7245
  163SAPE  C31418294   3.784   6.130   4.587  0.1616  0.0384  0.2326
  163SAPE  H14X18295   3.803   6.051   4.511  0.2363  0.3142 -0.0361
  163SAPE  H14Y18296   3.687   6.184   4.574  1.0806  1.5002 -0.9965
  163SAPE  C31518297   3.798   6.090   4.727 -0.2855  1.0208 -1.0425
  163SAPE  H15X18298   3.783   6.176   4.795 -1.3998  0.7179 -0.8793
  163SAPE  H15Y18299   3.901   6.056   4.751 -1.3577 -0.1940  2.4038
  163SAPE  C31618300   3.705   5.977   4.784 -0.0185  0.6282 -0.3085
  163SAPE  H16X18301   3.624   5.956   4.711 -0.1649 -1.3498  0.3564
  163SAPE  H16Y18302   3.652   6.010   4.876  0.0465  1.7592 -0.6708
  163SAPE  C31718303   3.780   5.839   4.794  0.0326  0.5784 -0.0393
  163SAPE  H17X18304   3.830   5.828   4.695  1.8007  2.3699  0.5722
  163SAPE  H17Y18305   3.706   5.757   4.802 -0.2492  0.8720  0.3998
  163SAPE  C31818306   3.882   5.825   4.906 -0.3621 -0.2969 -0.3829
  163SAPE  H18X18307   3.945   5.916   4.897 -0.2618 -0.5192 -2.3867
  163SAPE  H18Y18308   3.955   5.742   4.901  1.9917  1.6464  0.1965
  163SAPE  H18Z18309   3.829   5.839   5.003 -0.6680  0.1995 -0.6195
  164SAPE     N18310   2.227   2.841   3.071  0.1876  0.4161  0.3592
  164SAPE   HN118311   2.167   2.799   3.144 -0.5539  0.4330 -0.2284
  164SAPE   HN218312   2.266   2.928   3.114 -2.5571  1.4339  0.9837
  164SAPE   HN318313   2.170   2.874   2.990  0.1132 -1.3795 -0.3541
  164SAPE   C1218314   2.337   2.745   3.028  0.1086 -0.2751  0.2415
  164SAPE  H12A18315   2.300   2.653   2.980  1.5861 -0.4658 -0.6102
  164SAPE  H12B18316   2.390   2.718   3.122 -0.6743 -1.5377  0.3378
  164SAPE   C1118317   2.431   2.819   2.938  0.2050 -0.3148  0.0332
  164SAPE  H11A18318   2.512   2.743   2.928  0.1318 -0.5014  0.8062
  164SAPE  H11B18319   2.483   2.908   2.980 -1.6388 -1.0018  4.2746
  164SAPE     P18320   2.452   2.914   2.693  0.6705 -0.1002  0.0240
  164SAPE   O1318321   2.501   2.798   2.620  0.0705  0.4966  0.7607
  164SAPE   O1418322   2.374   3.018   2.631  0.2923 -0.4750  0.0969
  164SAPE   O1218323   2.366   2.839   2.811  0.1767  0.0311 -0.2424
  164SAPE   O1118324   2.572   2.979   2.770 -0.7011  0.3449 -0.1688
  164SAPE    C118325   2.600   3.121   2.762 -0.3958 -0.1773  0.2394
  164SAPE    HA18326   2.707   3.130   2.735 -0.2576 -1.2771  0.3740
  164SAPE    HB18327   2.545   3.172   2.680  0.3380 -0.4279 -0.4125
  164SAPE    C218328   2.568   3.202   2.900  0.6863  0.2349  0.4989
  164SAPE    HS18329   2.627   3.297   2.895  2.6414 -0.8764  1.3408
  164SAPE   O2118330   2.599   3.135   3.019 -0.6327 -0.3080 -0.2048
  164SAPE   C2118331   2.720   3.083   3.025 -0.5802  0.2057  0.0922
  164SAPE   O2218332   2.813   3.110   2.957  0.0653  0.6143 -0.0523
  164SAPE   C2218333   2.739   2.976   3.138 -0.6279  0.1981 -0.6702
  164SAPE   H2R18334   2.689   2.885   3.100  0.6066 -0.4163 -0.8784
  164SAPE   H2S18335   2.848   2.957   3.149 -1.0259 -1.4840  0.9646
  164SAPE    C318336   2.415   3.235   2.910  0.0512  0.0756  0.6319
  164SAPE    HX18337   2.363   3.137   2.904 -0.4980  0.3515  0.7930
  164SAPE    HY18338   2.388   3.289   2.817 -2.3443 -0.8491  0.7338
  164SAPE   O3118339   2.368   3.309   3.021  0.0368 -0.2362  0.1272
  164SAPE   C3118340   2.319   3.233   3.123  0.3317  0.4040 -0.2463
  164SAPE   O3218341   2.288   3.116   3.117  0.0802  0.0368 -0.5235
  164SAPE   C3218342   2.302   3.312   3.252 -0.0855 -0.4848  0.3808
  164SAPE   H2X18343   2.254   3.240   3.322  0.5889 -2.5790 -1.2288
  164SAPE   H2Y18344   2.234   3.398   3.232  2.5852  1.3351 -1.5184
  164SAPE   C2318345   2.685   3.009   3.280 -0.2172  0.2692  0.3779
  164SAPE   H3R18346   2.591   3.067   3.273  0.2046  0.9178 -0.0423
  164SAPE   H3S18347   2.757   3.060   3.347  0.9569 -0.8705  0.0358
  164SAPE   C2418348   2.656   2.878   3.360 -0.2271 -0.4353  0.6434
  164SAPE   H4R18349   2.749   2.818   3.373 -0.3459 -0.9897 -0.8531
  164SAPE   H4S18350   2.599   2.817   3.287  0.2722  1.9317 -1.8622
  164SAPE   C2518351   2.585   2.900   3.497  0.2742 -1.1400  0.8603
  164SAPE   H5R18352   2.652   2.920   3.582  1.1815 -1.1584  0.1694
  164SAPE   C2618353   2.451   2.888   3.516 -0.2518  0.0315  0.3945
  164SAPE   H6R18354   2.411   2.880   3.618 -0.1020  0.3019  0.4750
  164SAPE   C2718355   2.354   2.864   3.407  0.6776 -0.4036 -0.3464
  164SAPE   H7R18356   2.389   2.870   3.302 -5.1209  0.1474 -2.6276
  164SAPE   H7S18357   2.273   2.940   3.414  1.6470  0.5347  1.3858
  164SAPE   C2818358   2.296   2.732   3.421 -0.1696  0.5808  0.0340
  164SAPE   H8R18359   2.320   2.671   3.332  1.0403  0.7983  0.1982
  164SAPE   C2918360   2.201   2.695   3.507  0.5545 -0.6788  0.0284
  164SAPE   H9R18361   2.165   2.593   3.489 -0.9105  0.2676 -3.1974
  164SAPE  C21018362   2.124   2.770   3.612 -0.6306 -0.1772  0.7802
  164SAPE  H10R18363   2.196   2.789   3.695 -0.5384 -0.9237  0.8815
  164SAPE  H10S18364   2.049   2.701   3.655 -2.4781  0.8923 -0.6193
  164SAPE  C21118365   2.055   2.893   3.565 -0.2804 -0.5512 -0.0709
  164SAPE  H11R18366   2.016   2.891   3.462  1.4823 -0.2606 -0.7794
  164SAPE  C21218367   2.021   2.996   3.648 -0.0474 -0.6699 -0.1099
  164SAPE  H12R18368   1.968   3.081   3.603 -1.8814 -0.7509  1.7588
  164SAPE  C21318369   2.049   3.002   3.797 -0.0177 -0.6492  0.5756
  164SAPE  H13R18370   2.160   3.009   3.805  0.1573  3.2950 -2.3799
  164SAPE  H13S18371   2.022   2.902   3.838 -0.4809 -0.2677  1.2077
  164SAPE  C21418372   1.997   3.119   3.869 -0.4518 -0.3774 -0.0333
  164SAPE  H14R18373   2.073   3.190   3.904 -0.4458 -0.8451  0.9289
  164SAPE  C21518374   1.873   3.153   3.915 -0.1894 -0.0842  0.0647
  164SAPE  H15R18375   1.863   3.244   3.976  1.0809  0.7435 -0.9150
  164SAPE  C21618376   1.742   3.078   3.900 -0.2647 -0.5620 -0.1917
  164SAPE  H16R18377   1.759   2.987   3.838 -0.1794 -0.8044  0.1873
  164SAPE  H16S18378   1.667   3.140   3.846  0.1343 -0.8710 -1.1291
  164SAPE  C21718379   1.671   3.033   4.034 -0.5739 -0.2845  0.3506
  164SAPE  H17R18380   1.663   3.116   4.107  0.9829 -1.3476  1.7958
  164SAPE  H17S18381   1.732   2.954   4.082  0.8900 -0.7747 -2.1583
  164SAPE  C21818382   1.527   2.991   4.017  0.2031  0.5839 -0.1891
  164SAPE  H18R18383   1.533   2.902   3.952  0.9084  0.2277  0.3484
  164SAPE  H18S18384   1.491   3.073   3.950  0.5147  0.6614 -0.2649
  164SAPE  C21918385   1.452   2.976   4.147 -0.7071  0.1239 -0.4025
  164SAPE  H19R18386   1.462   3.069   4.206 -1.2551  1.2071 -1.9492
  164SAPE  H19S18387   1.493   2.891   4.207 -1.1017  0.2534  0.0531
  164SAPE  C22018388   1.312   2.926   4.129 -0.1605 -0.1422  0.4810
  164SAPE  H20R18389   1.266   2.889   4.223 -1.6792  0.6486  0.0926
  164SAPE  H20S18390   1.327   2.839   4.061  0.2138  0.0433  0.3212
  164SAPE  H20T18391   1.252   2.999   4.069 -1.6971 -1.5355  0.2494
  164SAPE   C3318392   2.439   3.370   3.292 -0.2395 -0.0585 -0.2282
  164SAPE   H3X18393   2.477   3.433   3.208 -1.3088  0.5828 -0.2503
  164SAPE   H3Y18394   2.509   3.284   3.296 -1.6055 -1.5651 -3.9636
  164SAPE   C3418395   2.439   3.444   3.426  0.1690  0.5261 -0.3318
  164SAPE   H4X18396   2.350   3.511   3.432 -1.9475 -2.1212 -0.1062
  164SAPE   H4Y18397   2.531   3.503   3.441  0.3175  0.1676  0.1994
  164SAPE   C3518398   2.416   3.345   3.543 -0.1784  0.2574 -0.1416
  164SAPE   H5X18399   2.483   3.258   3.528 -2.0623 -1.1360 -0.8974
  164SAPE   H5Y18400   2.312   3.306   3.539 -0.2758 -0.4593  4.3963
  164SAPE   C3618401   2.448   3.400   3.680 -0.3367  0.7614 -0.6960
  164SAPE   H6X18402   2.392   3.495   3.695 -2.1318 -0.4619  0.6504
  164SAPE   H6Y18403   2.555   3.430   3.683 -0.3699  0.7908  0.5113
  164SAPE   C3718404   2.426   3.295   3.791 -0.5299 -0.3213  0.2689
  164SAPE   H7X18405   2.504   3.219   3.768  2.2890  2.1876  0.7923
  164SAPE   H7Y18406   2.323   3.256   3.782 -0.4392 -0.4326 -0.3048
  164SAPE   C3818407   2.437   3.343   3.939 -0.3407 -0.5239 -0.0062
  164SAPE   H8X18408   2.357   3.420   3.950  0.2849 -0.0143  1.0865
  164SAPE   H8Y18409   2.529   3.402   3.955 -0.1852 -1.2204  1.8220
  164SAPE   C3918410   2.418   3.244   4.047  0.5286 -0.3835  0.5073
  164SAPE   H9X18411   2.488   3.159   4.039 -1.8155 -2.3088 -1.2278
  164SAPE   H9Y18412   2.323   3.191   4.025 -0.2634  0.7577  1.0737
  164SAPE  C31018413   2.434   3.298   4.193  0.2788 -0.3222  0.6164
  164SAPE  H10X18414   2.367   3.381   4.224 -0.7625 -0.5721 -0.8403
  164SAPE  H10Y18415   2.538   3.334   4.203 -0.3396  1.9729 -0.6447
  164SAPE  C31118416   2.406   3.188   4.301 -0.2875  0.4111 -0.2495
  164SAPE  H11X18417   2.457   3.091   4.282  1.4525  1.0408  0.9898
  164SAPE  H11Y18418   2.299   3.162   4.321 -0.1941  0.5983  0.5079
  164SAPE  C31218419   2.457   3.230   4.443 -0.4817 -0.9363 -0.7403
  164SAPE  H12X18420   2.481   3.338   4.444  0.6366 -1.0737  2.9885
  164SAPE  H12Y18421   2.552   3.175   4.459 -0.4711 -0.3033  1.7080
  164SAPE  C31318422   2.359   3.210   4.562 -0.0194 -0.6470  0.8176
  164SAPE  H13X18423   2.420   3.195   4.653 -0.7465 -0.5222  1.3343
  164SAPE  H13Y18424   2.298   3.118   4.549 -0.0163 -0.5411  0.0067
  164SAPE  C31418425   2.273   3.335   4.584 -0.0729 -0.3311 -0.3441
  164SAPE  H14X18426   2.337   3.425   4.573  0.7575 -0.7462  0.8877
  164SAPE  H14Y18427   2.234   3.332   4.688  0.1677  0.9163 -0.2002
  164SAPE  C31518428   2.146   3.329   4.495 -0.7543 -0.4663 -0.8893
  164SAPE  H15X18429   2.095   3.230   4.506  0.1033 -0.6969  1.9117
  164SAPE  H15Y18430   2.177   3.340   4.389  0.8599 -0.3466 -0.4224
  164SAPE  C31618431   2.040   3.436   4.508  0.6022 -0.2477  0.3813
  164SAPE  H16X18432   2.075   3.541   4.492 -0.8557 -0.1414 -2.8745
  164SAPE  H16Y18433   2.001   3.422   4.611 -1.0810 -1.9265 -0.4427
  164SAPE  C31718434   1.916   3.404   4.419 -0.6907 -0.1910 -0.3384
  164SAPE  H17X18435   1.946   3.418   4.313 -0.9712 -0.6321 -0.4823
  164SAPE  H17Y18436   1.835   3.467   4.462  0.3180  0.4237  0.7034
  164SAPE  C31818437   1.857   3.261   4.431 -0.2084 -0.4997 -0.2278
  164SAPE  H18X18438   1.760   3.253   4.376 -0.2987  0.4104 -0.2090
  164SAPE  H18Y18439   1.831   3.245   4.538 -1.6454  1.1894 -0.2662
  164SAPE  H18Z18440   1.917   3.179   4.388 -2.1558 -2.5093  0.6734
  165SAPE     N18441   0.063   4.637   2.066 -0.1795 -0.0234  0.7183
  165SAPE   HN118442   0.085   4.710   2.137  1.1893  0.9701 -0.6432
  165SAPE   HN218443   0.115   4.662   1.979  0.4474 -0.7262  0.8808
  165SAPE   HN318444  -0.033   4.604   2.041  0.8070 -1.2645 -1.7434
  165SAPE   C1218445   0.118   4.502   2.100 -0.2903  0.2164 -1.3571
  165SAPE  H12A18446   0.088   4.437   2.016 -1.8369  0.7814 -1.2817
  165SAPE  H12B18447   0.068   4.471   2.194 -0.3778 -3.9435 -2.5929
  165SAPE   C1118448   0.265   4.494   2.116 -0.1469  0.2110 -0.2830
  165SAPE  H11A18449   0.306   4.526   2.018  0.5100 -1.4791 -0.5948
  165SAPE  H11B18450   0.307   4.395   2.141  0.1548  0.9594  2.4789
  165SAPE     P18451   0.398   4.701   2.229 -0.2746  0.4645 -0.4004
  165SAPE   O1318452   0.529   4.637   2.233 -0.1764 -0.3338  0.0811
  165SAPE   O1418453   0.358   4.788   2.119 -0.0098 -0.1130 -0.2255
  165SAPE   O1218454   0.294   4.584   2.231 -0.3442 -0.2048 -0.0474
  165SAPE   O1118455   0.375   4.779   2.363 -0.0044 -0.6892  0.6470
  165SAPE    C118456   0.248   4.809   2.418  0.8150  0.2737 -0.2589
  165SAPE    HA18457   0.215   4.913   2.396  3.3508  1.2225  0.1040
  165SAPE    HB18458   0.170   4.742   2.376 -1.5019  2.1170  0.8558
  165SAPE    C218459   0.244   4.808   2.577  0.3988 -0.1322 -0.0874
  165SAPE    HS18460   0.311   4.889   2.614  2.5887 -1.9550  0.1176
  165SAPE   O2118461   0.297   4.683   2.621 -0.5334 -0.4206  0.5391
  165SAPE   C2118462   0.376   4.670   2.728  0.1273  0.5360  0.4941
  165SAPE   O2218463   0.415   4.769   2.791  0.6646  0.5536 -0.1543
  165SAPE   C2218464   0.427   4.527   2.742  0.3062 -0.9036 -0.2525
  165SAPE   H2R18465   0.460   4.481   2.646  2.0670 -1.3229  0.5219
  165SAPE   H2S18466   0.516   4.529   2.807 -0.6390  3.1488  1.2349
  165SAPE    C318467   0.102   4.822   2.636  0.2279 -0.0596  0.2880
  165SAPE    HX18468   0.050   4.726   2.616  2.2326 -1.5653  1.9514
  165SAPE    HY18469   0.052   4.901   2.576 -1.2646 -2.4464 -1.8083
  165SAPE   O3118470   0.110   4.846   2.778  0.2111 -1.1312  0.2920
  165SAPE   C3118471   0.126   4.969   2.820  0.5493 -0.2539 -0.1284
  165SAPE   O3218472   0.148   5.064   2.748  0.1945 -0.1891 -0.8492
  165SAPE   C3218473   0.122   4.970   2.970  0.3125  0.0250 -0.6325
  165SAPE   H2X18474   0.021   4.996   3.008 -0.0904 -2.8939  0.5608
  165SAPE   H2Y18475   0.189   5.049   3.009  1.0861 -0.9278 -0.0025
  165SAPE   C2318476   0.325   4.431   2.803  0.2872  0.5900  0.2841
  165SAPE   H3R18477   0.360   4.326   2.796 -1.4396 -0.1449  1.8338
  165SAPE   H3S18478   0.230   4.434   2.745  0.6100 -1.4897 -0.4416
  165SAPE   C2418479   0.301   4.476   2.948 -0.2384  0.4365 -0.3100
  165SAPE   H4R18480   0.256   4.577   2.951 -2.4054 -0.3822 -2.4692
  165SAPE   H4S18481   0.402   4.473   2.995  0.3575  1.7867 -1.4464
  165SAPE   C2518482   0.213   4.380   3.016 -0.0633 -0.0086 -0.8674
  165SAPE   H5R18483   0.107   4.390   2.988 -0.5854 -1.7293  0.3185
  165SAPE   C2618484   0.241   4.287   3.103 -0.0213 -0.4998  0.1532
  165SAPE   H6R18485   0.155   4.227   3.136 -0.6190 -1.1688 -2.4490
  165SAPE   C2718486   0.372   4.239   3.154  0.3686  0.0657 -0.2364
  165SAPE   H7R18487   0.452   4.297   3.103  1.3231  0.3302  1.4910
  165SAPE   H7S18488   0.400   4.142   3.107  1.1883  0.4005 -0.4530
  165SAPE   C2818489   0.406   4.236   3.300 -0.1181 -0.0046  0.0761
  165SAPE   H8R18490   0.352   4.311   3.360 -0.6924 -0.7707  0.5380
  165SAPE   C2918491   0.492   4.155   3.366  0.3402 -1.0225  0.4177
  165SAPE   H9R18492   0.516   4.177   3.471  1.1584  2.7860 -0.3933
  165SAPE  C21018493   0.574   4.043   3.296  0.4668 -0.4655 -0.2687
  165SAPE  H10R18494   0.565   4.041   3.185  0.1110  0.2281 -0.2615
  165SAPE  H10S18495   0.536   3.947   3.337 -0.2341  0.0249  0.2527
  165SAPE  C21118496   0.719   4.071   3.334 -0.3520 -0.2668  0.0715
  165SAPE  H11R18497   0.751   4.172   3.302  0.1767 -0.6164 -0.5284
  165SAPE  C21218498   0.797   4.001   3.419 -0.0132  0.0953 -0.3525
  165SAPE  H12R18499   0.902   4.031   3.425  0.8788 -2.7916 -0.1616
  165SAPE  C21318500   0.772   3.868   3.476 -0.9185 -0.0458  0.4312
  165SAPE  H13R18501   0.781   3.799   3.390 -3.2475  1.3866 -1.1008
  165SAPE  H13S18502   0.663   3.860   3.494 -0.7173 -2.4111  0.8839
  165SAPE  C21418503   0.847   3.840   3.602  0.3776 -0.4833 -0.2406
  165SAPE  H14R18504   0.848   3.920   3.677  0.6438 -1.2281  0.5579
  165SAPE  C21518505   0.921   3.738   3.632  0.3800 -0.3897 -0.5098
  165SAPE  H15R18506   0.974   3.742   3.728 -0.5672 -0.6743  0.0491
  165SAPE  C21618507   0.940   3.613   3.554  0.2788 -0.1461  0.2337
  165SAPE  H16R18508   0.847   3.590   3.498  1.8195 -0.6811 -2.2426
  165SAPE  H16S18509   0.950   3.544   3.641 -1.6530  2.7295  2.9994
  165SAPE  C21718510   1.073   3.601   3.474 -0.1411  0.6514  0.4027
  165SAPE  H17R18511   1.079   3.492   3.453  2.9290  1.3372 -3.4036
  165SAPE  H17S18512   1.149   3.634   3.547 -0.7061 -0.8947  1.7427
  165SAPE  C21818513   1.087   3.676   3.339 -0.0080 -0.2781  0.2671
  165SAPE  H18R18514   1.192   3.673   3.305 -0.8342 -2.5628 -2.4000
  165SAPE  H18S18515   1.057   3.780   3.365  0.3326 -0.1662  0.2123
  165SAPE  C21918516   0.991   3.633   3.224 -0.2974  0.2178  0.0585
  165SAPE  H19R18517   0.889   3.621   3.267 -1.1287  0.7776 -1.6851
  165SAPE  H19S18518   1.037   3.538   3.189  1.6672  1.7619 -1.8176
  165SAPE  C22018519   0.993   3.717   3.100 -0.2933 -0.3224  0.1381
  165SAPE  H20R18520   0.941   3.813   3.124  1.2899  0.4901  0.4131
  165SAPE  H20S18521   0.928   3.672   3.022  0.2445 -2.1008  0.6842
  165SAPE  H20T18522   1.091   3.740   3.055 -1.0999  1.7779 -0.6666
  165SAPE   C3318523   0.141   4.829   3.032 -0.5558 -0.3708  0.2685
  165SAPE   H3X18524   0.236   4.791   2.990 -0.6347  0.2726 -0.5339
  165SAPE   H3Y18525   0.056   4.765   3.000 -1.6546  1.2124 -0.1136
  165SAPE   C3418526   0.159   4.826   3.181 -0.0316  0.5786 -0.4806
  165SAPE   H4X18527   0.080   4.886   3.231 -1.1908  1.0902 -2.7725
  165SAPE   H4Y18528   0.254   4.879   3.204 -1.1400  3.4920 -2.0597
  165SAPE   C3518529   0.166   4.684   3.236  1.1352 -0.5320  0.5011
  165SAPE   H5X18530   0.215   4.604   3.176  1.1667 -1.0586  1.2071
  165SAPE   H5Y18531   0.061   4.649   3.248  0.6176  0.3172 -1.2538
  165SAPE   C3618532   0.227   4.681   3.377 -0.1197  0.0731 -0.1126
  165SAPE   H6X18533   0.185   4.762   3.441  2.7475  0.1624  1.8784
  165SAPE   H6Y18534   0.338   4.695   3.374 -0.2283  1.4941  1.0456
  165SAPE   C3718535   0.201   4.550   3.453  0.5257 -0.2434  0.0901
  165SAPE   H7X18536   0.247   4.471   3.391  0.2273  0.1373 -0.6272
  165SAPE   H7Y18537   0.091   4.540   3.456  0.5385 -0.5748 -0.4122
  165SAPE   C3818538   0.265   4.528   3.591  0.1537  0.8214  0.1857
  165SAPE   H8X18539   0.219   4.591   3.670  0.6471 -1.3461  2.3275
  165SAPE   H8Y18540   0.367   4.574   3.586 -1.3556  4.6013  0.6731
  165SAPE   C3918541   0.278   4.384   3.648  0.0794 -0.2228 -0.7800
  165SAPE   H9X18542   0.341   4.323   3.580  1.8531  0.2248  0.4076
  165SAPE   H9Y18543   0.175   4.344   3.658  0.5012 -0.8661  1.3690
  165SAPE  C31018544   0.336   4.398   3.793  0.1711 -0.2378  0.6683
  165SAPE  H10X18545   0.283   4.488   3.831 -0.0103  1.4855 -3.1928
  165SAPE  H10Y18546   0.442   4.428   3.800 -0.5976  2.4656  2.0098
  165SAPE  C31118547   0.304   4.276   3.879  0.2280 -0.4711 -0.0564
  165SAPE  H11X18548   0.348   4.190   3.825 -0.3783 -1.1097  0.4501
  165SAPE  H11Y18549   0.195   4.252   3.879  0.0786  0.1288  0.9231
  165SAPE  C31218550   0.361   4.288   4.020 -0.5453  0.4032  0.2773
  165SAPE  H12X18551   0.307   4.376   4.061 -2.2982  0.8620 -2.7166
  165SAPE  H12Y18552   0.468   4.317   4.012 -0.6381  0.3255 -2.1459
  165SAPE  C31318553   0.350   4.162   4.099  0.9440 -0.7857 -0.2756
  165SAPE  H13X18554   0.431   4.143   4.173 -0.2734  1.4086  1.7805
  165SAPE  H13Y18555   0.337   4.072   4.035 -2.1166 -1.1114  0.6012
  165SAPE  C31418556   0.217   4.160   4.186 -0.4477  0.4052 -0.3508
  165SAPE  H14X18557   0.209   4.059   4.231  0.1531  1.2941  1.8636
  165SAPE  H14Y18558   0.128   4.163   4.118  0.6819  0.7202 -1.8818
  165SAPE  C31518559   0.220   4.264   4.298 -0.1460 -0.0804  0.7757
  165SAPE  H15X18560   0.192   4.364   4.259 -2.6803 -0.3363  1.7705
  165SAPE  H15Y18561   0.329   4.272   4.322  0.1896  0.6465 -0.8626
  165SAPE  C31618562   0.158   4.221   4.422 -0.0061  0.0720 -0.3932
  165SAPE  H16X18563   0.200   4.122   4.449  0.0120 -0.1881 -1.3433
  165SAPE  H16Y18564   0.048   4.213   4.414 -0.2532  2.5937 -0.3279
  165SAPE  C31718565   0.179   4.316   4.540 -0.1683  0.3956 -0.4567
  165SAPE  H17X18566   0.154   4.421   4.513  2.4050  1.5209  1.1955
  165SAPE  H17Y18567   0.288   4.315   4.560 -0.2950 -0.8619  0.2696
  165SAPE  C31818568   0.105   4.269   4.666  0.3806 -0.6142  0.2250
  165SAPE  H18X18569  -0.005   4.277   4.651  0.2023 -1.9420  0.7258
  165SAPE  H18Y18570   0.134   4.335   4.750  1.4901  0.8360 -1.2213
  165SAPE  H18Z18571   0.127   4.163   4.690  0.7973 -0.5233  0.2642
  166SAPE     N18572   6.324   5.557   2.113 -0.3483  0.2480 -0.0372
  166SAPE   HN118573   6.361   5.469   2.072 -0.2057 -0.2918  1.1947
  166SAPE   HN218574   6.221   5.545   2.118 -0.3069 -0.1015 -0.0023
  166SAPE   HN318575   6.337   5.631   2.042 -2.0226  1.0795  0.4575
  166SAPE   C1218576   6.356   5.606   2.258 -0.4884 -0.3113  0.4360
  166SAPE  H12A18577   6.456   5.567   2.288 -0.4377  0.9005  1.9652
  166SAPE  H12B18578   6.278   5.573   2.330 -1.0728 -2.7059 -1.1707
  166SAPE   C1118579   6.359   5.758   2.264  0.0521  0.3250 -0.7636
  166SAPE  H11A18580   6.384   5.790   2.367  0.2864  4.3971 -1.9083
  166SAPE  H11B18581   6.259   5.805   2.250 -0.4478 -0.7741 -0.9388
  166SAPE     P18582   6.610   5.826   2.188 -0.0168 -0.1072 -0.2242
  166SAPE   O1318583   6.676   5.710   2.133  0.3580 -0.7498 -0.2880
  166SAPE   O1418584   6.650   5.960   2.142 -0.2617 -0.2235 -0.0219
  166SAPE   O1218585   6.448   5.818   2.174  0.1704 -0.2703  0.2116
  166SAPE   O1118586   6.629   5.832   2.344  0.5154 -0.2683 -0.2600
  166SAPE    C118587   6.665   5.961   2.401  0.2299 -0.3668 -0.8607
  166SAPE    HA18588   6.748   6.022   2.359  0.0959  1.7076  1.6691
  166SAPE    HB18589   6.573   6.020   2.420  1.4275  0.8686  1.4068
  166SAPE    C218590   6.715   5.944   2.549  0.4489 -0.9597 -0.1561
  166SAPE    HS18591   6.805   5.879   2.548  2.2043  1.3015 -0.4720
  166SAPE   O2118592   6.605   5.896   2.621  0.8442 -0.3950  0.2868
  166SAPE   C2118593   6.614   5.768   2.640  0.4293 -0.2583 -0.5997
  166SAPE   O2218594   6.713   5.700   2.648 -0.5778  0.0986 -0.4941
  166SAPE   C2218595   6.470   5.720   2.660 -0.4240  0.0271  0.0202
  166SAPE   H2R18596   6.406   5.808   2.682 -1.4444 -0.3118 -1.4519
  166SAPE   H2S18597   6.442   5.672   2.564 -2.3178 -2.8619  1.8385
  166SAPE    C318598   6.767   6.085   2.603  0.0586  0.2322  0.1891
  166SAPE    HX18599   6.689   6.161   2.581  0.4099  0.5512  0.0285
  166SAPE    HY18600   6.855   6.115   2.542 -0.6067  0.5726 -0.6372
  166SAPE   O3118601   6.789   6.088   2.743  0.4639 -0.1149 -0.0858
  166SAPE   C3118602   6.877   6.017   2.806 -0.8329  0.2358 -0.2704
  166SAPE   O3218603   6.953   5.940   2.750  0.2990 -0.2730 -0.0848
  166SAPE   C3218604   6.861   6.032   2.960 -0.5178  0.1159  0.3227
  166SAPE   H2X18605   6.853   6.139   2.990 -1.0005 -0.6159  3.0386
  166SAPE   H2Y18606   6.952   5.991   3.009  2.1616  1.2460 -3.2298
  166SAPE   C2318607   6.457   5.601   2.756  0.0362 -0.5167 -0.2437
  166SAPE   H3R18608   6.504   5.515   2.705 -0.1365 -0.1350 -1.0663
  166SAPE   H3S18609   6.350   5.571   2.764  0.2155 -0.9770  0.5221
  166SAPE   C2418610   6.520   5.624   2.892  0.3030  0.5362 -0.2441
  166SAPE   H4R18611   6.470   5.703   2.952 -2.0162 -0.0510 -1.2692
  166SAPE   H4S18612   6.628   5.640   2.872  1.2529 -2.2581  2.0286
  166SAPE   C2518613   6.521   5.498   2.980  0.6179 -0.0278 -0.1955
  166SAPE   H5R18614   6.587   5.415   2.948  0.1125  0.1727 -1.8782
  166SAPE   C2618615   6.437   5.470   3.082 -0.3484 -0.5166 -0.4170
  166SAPE   H6R18616   6.442   5.374   3.134  3.6140 -1.3941 -2.0597
  166SAPE   C2718617   6.341   5.573   3.146  0.5202  0.0678 -1.0039
  166SAPE   H7R18618   6.285   5.506   3.215 -1.4218  2.2419 -0.3132
  166SAPE   H7S18619   6.270   5.610   3.069  1.9961  1.0497 -1.9427
  166SAPE   C2818620   6.392   5.693   3.226 -0.2660  0.2909  0.2322
  166SAPE   H8R18621   6.450   5.762   3.163 -1.5368 -0.3789 -1.7515
  166SAPE   C2918622   6.368   5.723   3.357  0.2209  0.3737  0.0068
  166SAPE   H9R18623   6.409   5.817   3.395  0.1240  1.2548 -1.9465
  166SAPE  C21018624   6.275   5.647   3.450  0.0580 -0.3904 -0.6525
  166SAPE  H10R18625   6.328   5.609   3.539  0.3705  2.8938  0.7098
  166SAPE  H10S18626   6.220   5.561   3.405  0.3197  0.4420 -2.6801
  166SAPE  C21118627   6.156   5.721   3.502 -0.0554 -0.0019 -0.2879
  166SAPE  H11R18628   6.100   5.777   3.426 -0.6879 -0.4148 -0.1379
  166SAPE  C21218629   6.114   5.719   3.629  0.0019 -0.3077 -0.1938
  166SAPE  H12R18630   6.023   5.777   3.651  0.6763 -0.0683  2.1336
  166SAPE  C21318631   6.174   5.641   3.748 -0.3941 -0.4563  0.6179
  166SAPE  H13R18632   6.268   5.692   3.777  0.7083 -0.4828 -2.5076
  166SAPE  H13S18633   6.214   5.544   3.711 -2.1317 -1.1608  0.4586
  166SAPE  C21418634   6.072   5.619   3.860 -0.3380 -0.0031  0.6035
  166SAPE  H14R18635   5.973   5.576   3.839 -0.8173  0.4289  1.8414
  166SAPE  C21518636   6.097   5.649   3.988 -0.4403  0.4662  0.8862
  166SAPE  H15R18637   6.011   5.623   4.052  0.9236 -3.4373  1.3584
  166SAPE  C21618638   6.225   5.723   4.038  0.5059 -0.0246  0.4035
  166SAPE  H16R18639   6.277   5.775   3.955 -0.7232 -0.6341 -0.7959
  166SAPE  H16S18640   6.293   5.652   4.090 -0.0801  0.2228  1.5592
  166SAPE  C21718641   6.177   5.837   4.142 -0.0681 -0.3333  0.9500
  166SAPE  H17R18642   6.102   5.904   4.096 -1.1780 -0.3361  2.6761
  166SAPE  H17S18643   6.268   5.896   4.165  0.4118  0.0573 -1.6516
  166SAPE  C21818644   6.120   5.782   4.277  0.4467 -0.6090 -0.3510
  166SAPE  H18R18645   6.030   5.722   4.252 -1.1328  1.7275 -0.5731
  166SAPE  H18S18646   6.090   5.870   4.337 -0.1111 -1.0787  0.0695
  166SAPE  C21918647   6.212   5.694   4.356 -0.7177  0.3175 -0.2295
  166SAPE  H19R18648   6.308   5.741   4.388  0.1966 -1.7881  0.2990
  166SAPE  H19S18649   6.241   5.607   4.293 -2.2153  1.4857 -2.6989
  166SAPE  C22018650   6.146   5.641   4.479 -0.0166 -0.1930  0.1797
  166SAPE  H20R18651   6.209   5.604   4.563  0.7051  1.8272  0.5736
  166SAPE  H20S18652   6.063   5.569   4.465  1.3514 -1.6383 -0.8701
  166SAPE  H20T18653   6.108   5.738   4.517 -2.8640 -0.9385 -0.5139
  166SAPE   C3318654   6.732   5.957   3.005  0.3399 -1.1936  0.0895
  166SAPE   H3X18655   6.731   5.847   2.994 -0.5080 -1.4790  2.4277
  166SAPE   H3Y18656   6.635   5.995   2.965  0.6476  0.7129  1.0514
  166SAPE   C3418657   6.697   5.971   3.156  0.0813 -0.2520  0.0860
  166SAPE   H4X18658   6.601   5.918   3.171 -1.3050  1.7004 -1.2736
  166SAPE   H4Y18659   6.680   6.077   3.186 -3.5009 -0.0512 -2.0174
  166SAPE   C3518660   6.807   5.920   3.250  0.1907 -0.2001  0.0441
  166SAPE   H5X18661   6.901   5.980   3.250 -0.9204  1.6790  1.6729
  166SAPE   H5Y18662   6.836   5.818   3.218  0.5527  0.3330 -1.4306
  166SAPE   C3618663   6.768   5.924   3.403  0.7388 -0.4528 -0.1439
  166SAPE   H6X18664   6.670   5.874   3.417 -0.2130  1.1475 -0.8034
  166SAPE   H6Y18665   6.753   6.030   3.435  2.6285 -0.0502 -0.4813
  166SAPE   C3718666   6.873   5.850   3.487  0.3270 -0.2627 -0.2891
  166SAPE   H7X18667   6.966   5.911   3.489 -0.1232  0.4540  2.1580
  166SAPE   H7Y18668   6.906   5.752   3.446 -0.7080 -0.7035 -0.1072
  166SAPE   C3818669   6.839   5.815   3.637  0.6143 -0.9023  1.0248
  166SAPE   H8X18670   6.732   5.786   3.645  0.0961  0.8880  1.0593
  166SAPE   H8Y18671   6.839   5.907   3.699 -0.2427 -1.1140  1.3611
  166SAPE   C3918672   6.926   5.714   3.705 -0.2196  0.2166 -0.2694
  166SAPE   H9X18673   7.032   5.746   3.695 -0.3166  0.6734  0.1280
  166SAPE   H9Y18674   6.905   5.617   3.655 -1.0246 -0.1434  0.7125
  166SAPE  C31018675   6.896   5.694   3.852  0.7143  0.1407  0.6920
  166SAPE  H10X18676   6.795   5.647   3.860  0.2311  1.4355  3.4266
  166SAPE  H10Y18677   6.883   5.797   3.893 -1.4991  0.3036 -0.2575
  166SAPE  C31118678   7.010   5.631   3.927 -0.1601  0.1023  0.9581
  166SAPE  H11X18679   7.099   5.696   3.914  1.4116 -2.2962 -1.4354
  166SAPE  H11Y18680   7.035   5.532   3.884  1.8000  1.1625 -0.4790
  166SAPE  C31218681   6.986   5.625   4.076 -0.0967 -0.0857  0.3262
  166SAPE  H12X18682   6.887   5.582   4.099  0.3355 -0.9777  0.5587
  166SAPE  H12Y18683   6.984   5.731   4.109  1.2464  0.6118 -1.6658
  166SAPE  C31318684   7.090   5.549   4.162 -0.4331  0.4825 -0.9168
  166SAPE  H13X18685   7.188   5.577   4.118 -1.1733  1.7695 -1.8122
  166SAPE  H13Y18686   7.088   5.439   4.146  0.9927  0.2946  0.0184
  166SAPE  C31418687   7.077   5.573   4.310  1.0048  0.4003 -0.6567
  166SAPE  H14X18688   6.999   5.499   4.339  1.1931  0.8212  1.0368
  166SAPE  H14Y18689   7.024   5.668   4.332 -2.1288 -1.0760 -1.2878
  166SAPE  C31518690   7.208   5.561   4.387 -0.0043 -1.0634 -0.1911
  166SAPE  H15X18691   7.275   5.643   4.356 -0.5979 -0.9832 -1.2961
  166SAPE  H15Y18692   7.249   5.459   4.371 -2.2981 -2.4324  1.9178
  166SAPE  C31618693   7.195   5.581   4.537  0.0248  0.9299 -0.5229
  166SAPE  H16X18694   7.163   5.683   4.564 -0.8750  0.6610 -0.5474
  166SAPE  H16Y18695   7.296   5.572   4.584 -0.6143 -0.0218  0.7367
  166SAPE  C31718696   7.111   5.471   4.604 -0.1400  0.0605  0.3177
  166SAPE  H17X18697   7.162   5.377   4.573 -0.6429 -0.8336  2.0688
  166SAPE  H17Y18698   7.013   5.471   4.553 -0.3341 -0.6942  0.6788
  166SAPE  C31818699   7.114   5.465   4.758  0.5141  0.2362  0.9351
  166SAPE  H18X18700   7.045   5.537   4.806 -0.6617 -0.5098  0.3972
  166SAPE  H18Y18701   7.217   5.473   4.800  1.3142  0.6385 -0.9903
  166SAPE  H18Z18702   7.073   5.366   4.788 -0.1384  0.2113  0.0199
  167SAPE     N18703   1.555   3.533   2.375 -0.1007  0.2066 -0.0977
  167SAPE   HN118704   1.591   3.438   2.351  0.2519  0.4789 -0.6744
  167SAPE   HN218705   1.539   3.588   2.288 -3.0638  0.4879  0.5123
  167SAPE   HN318706   1.622   3.579   2.439  0.8004 -1.3373  0.1161
  167SAPE   C1218707   1.407   3.527   2.415 -0.4685 -0.0713 -0.4869
  167SAPE  H12A18708   1.347   3.482   2.333  0.2088  0.7011 -1.4230
  167SAPE  H12B18709   1.380   3.634   2.434 -0.9630  0.3082 -3.0216
  167SAPE   C1118710   1.392   3.470   2.555  0.4518 -0.0281 -0.4229
  167SAPE  H11A18711   1.421   3.362   2.556  1.1667  0.1099  2.5495
  167SAPE  H11B18712   1.283   3.474   2.578  0.7367  1.0666  0.8182
  167SAPE     P18713   1.562   3.488   2.762 -0.0060  0.4443  0.0070
  167SAPE   O1318714   1.621   3.361   2.709 -0.4075 -0.4499  0.7445
  167SAPE   O1418715   1.650   3.592   2.818  0.2294  0.0134 -0.0205
  167SAPE   O1218716   1.468   3.550   2.646 -0.6355  0.2356 -0.0776
  167SAPE   O1118717   1.463   3.437   2.879 -0.2526  0.6029  0.0178
  167SAPE    C118718   1.339   3.507   2.893 -0.6038 -0.6756 -0.0171
  167SAPE    HA18719   1.364   3.613   2.914  0.1117 -0.6506 -0.9413
  167SAPE    HB18720   1.288   3.488   2.796 -1.2614  1.6628 -0.1757
  167SAPE    C218721   1.265   3.448   3.018  0.4277 -0.0811  0.0370
  167SAPE    HS18722   1.165   3.495   3.030  0.5135  0.2017 -0.3639
  167SAPE   O2118723   1.340   3.458   3.139  0.6591 -0.1317 -0.4392
  167SAPE   C2118724   1.377   3.578   3.184  0.3525  0.1436  0.2320
  167SAPE   O2218725   1.355   3.686   3.133 -0.2071  0.0503  0.8370
  167SAPE   C2218726   1.461   3.550   3.307  0.4053  0.1151 -0.5554
  167SAPE   H2R18727   1.403   3.483   3.374  2.0312  0.9199  1.7907
  167SAPE   H2S18728   1.557   3.503   3.276  2.1114  3.9120 -1.5666
  167SAPE    C318729   1.224   3.304   2.978  0.2710  0.6418  0.1813
  167SAPE    HX18730   1.306   3.232   2.999  1.8371  1.9473 -1.2094
  167SAPE    HY18731   1.203   3.302   2.869  0.3381  0.3083  0.1734
  167SAPE   O3118732   1.110   3.251   3.052 -0.3645 -0.1918  0.3576
  167SAPE   C3118733   0.998   3.292   3.011  0.0328  0.2482 -0.5735
  167SAPE   O3218734   0.976   3.368   2.918 -0.3751 -0.4678 -0.9041
  167SAPE   C3218735   0.895   3.217   3.081  0.6193  0.4237 -0.0676
  167SAPE   H2X18736   0.940   3.174   3.173  4.0736  0.8103 -1.4041
  167SAPE   H2Y18737   0.865   3.124   3.028 -0.5109  0.8422 -0.1918
  167SAPE   C2318738   1.509   3.680   3.379 -0.4822  0.0708  0.1132
  167SAPE   H3R18739   1.429   3.753   3.404  1.2353  1.6818  1.1333
  167SAPE   H3S18740   1.589   3.730   3.320 -2.5233  1.0868 -1.9533
  167SAPE   C2418741   1.566   3.640   3.521  0.9865  0.0020 -0.5342
  167SAPE   H4R18742   1.603   3.535   3.519 -0.3895 -0.5740  1.1638
  167SAPE   H4S18743   1.479   3.615   3.585  0.1691 -0.7624 -1.9006
  167SAPE   C2518744   1.660   3.731   3.594  0.9148  0.0042  0.2862
  167SAPE   H5R18745   1.723   3.801   3.538  0.9863  0.3468  0.7883
  167SAPE   C2618746   1.671   3.727   3.729 -0.4779  0.0856  0.0315
  167SAPE   H6R18747   1.725   3.806   3.783  0.1251 -1.6291  2.1157
  167SAPE   C2718748   1.582   3.638   3.816  0.0980 -0.2029  0.0938
  167SAPE   H7R18749   1.503   3.581   3.762  1.8866 -1.1513 -1.6451
  167SAPE   H7S18750   1.537   3.707   3.891 -1.4376 -0.5916 -0.4344
  167SAPE   C2818751   1.665   3.534   3.885  0.1832  0.2896  0.3036
  167SAPE   H8R18752   1.750   3.489   3.832 -0.9586  0.7363 -2.0611
  167SAPE   C2918753   1.644   3.480   4.009 -0.0116  0.0057  0.3165
  167SAPE   H9R18754   1.728   3.428   4.056 -0.8184 -1.5256  0.1326
  167SAPE  C21018755   1.541   3.527   4.108  0.2804 -0.0799 -0.0874
  167SAPE  H10R18756   1.489   3.439   4.153 -2.5349  1.0794 -0.8270
  167SAPE  H10S18757   1.462   3.589   4.060  1.3615  1.7779  0.4542
  167SAPE  C21118758   1.596   3.608   4.224 -0.0403 -0.2630 -0.2700
  167SAPE  H11R18759   1.663   3.689   4.191 -1.1430  0.4176 -0.8952
  167SAPE  C21218760   1.562   3.599   4.356 -0.2651 -0.1624 -0.2713
  167SAPE  H12R18761   1.612   3.667   4.426  1.8440 -1.9489  0.0984
  167SAPE  C21318762   1.453   3.516   4.426  0.3451 -0.5001  0.4451
  167SAPE  H13R18763   1.392   3.453   4.357 -0.5175  1.1417 -0.3354
  167SAPE  H13S18764   1.380   3.588   4.468 -0.9510 -1.3932 -0.1775
  167SAPE  C21418765   1.520   3.438   4.544 -0.1658 -0.0575 -0.2342
  167SAPE  H14R18766   1.599   3.494   4.596  1.1697 -1.3534 -0.7864
  167SAPE  C21518767   1.503   3.304   4.565  0.0566 -0.1097  0.2876
  167SAPE  H15R18768   1.562   3.263   4.649  0.5457  0.0090  0.0092
  167SAPE  C21618769   1.413   3.205   4.497 -1.0473 -0.4689 -0.0024
  167SAPE  H16R18770   1.408   3.233   4.389 -0.2368  0.6222  0.2231
  167SAPE  H16S18771   1.310   3.228   4.531 -0.7577  1.0969 -0.1033
  167SAPE  C21718772   1.461   3.062   4.511 -0.4085 -0.1130 -0.2463
  167SAPE  H17R18773   1.562   3.046   4.466 -0.0562 -0.6433  0.7100
  167SAPE  H17S18774   1.390   2.996   4.458  2.5480 -2.0694 -2.0883
  167SAPE  C21818775   1.468   3.011   4.657 -0.4327  0.3603 -0.7367
  167SAPE  H18R18776   1.375   3.045   4.707 -0.6525  0.4589 -1.2018
  167SAPE  H18S18777   1.549   3.061   4.713  0.2145 -0.5420 -0.8437
  167SAPE  C21918778   1.488   2.856   4.645  0.5919 -0.4821 -0.1479
  167SAPE  H19R18779   1.420   2.809   4.571 -1.0242  0.4415  0.6889
  167SAPE  H19S18780   1.463   2.812   4.744 -2.0981  1.8763  0.3712
  167SAPE  C22018781   1.638   2.820   4.606  0.7461 -0.0615  0.7031
  167SAPE  H20R18782   1.661   2.828   4.498  0.6049  2.8843  0.8085
  167SAPE  H20S18783   1.672   2.722   4.646  1.5663  0.4706  1.3419
  167SAPE  H20T18784   1.703   2.902   4.643 -0.3975  1.3858 -0.3693
  167SAPE   C3318785   0.775   3.297   3.124  0.7537 -0.1230 -0.5181
  167SAPE   H3X18786   0.738   3.356   3.037 -1.3431  0.6910  0.8674
  167SAPE   H3Y18787   0.794   3.371   3.205 -0.8319  3.1546 -2.8980
  167SAPE   C3418788   0.661   3.204   3.168  0.4941  0.1390 -0.1517
  167SAPE   H4X18789   0.651   3.128   3.088 -1.7080 -0.4584  0.6307
  167SAPE   H4Y18790   0.565   3.259   3.183  0.0761 -0.6473  0.0877
  167SAPE   C3518791   0.688   3.138   3.295 -0.2814  0.7736 -1.0929
  167SAPE   H5X18792   0.771   3.065   3.290  0.3794  1.2343  1.4687
  167SAPE   H5Y18793   0.597   3.080   3.323  0.4450 -0.4688 -1.2344
  167SAPE   C3618794   0.719   3.236   3.418 -0.5472 -0.0952  0.0878
  167SAPE   H6X18795   0.634   3.305   3.436  0.4005  0.8393  1.1250
  167SAPE   H6Y18796   0.809   3.292   3.383 -2.1981  0.2706 -4.1263
  167SAPE   C3718797   0.749   3.150   3.540  0.2557  0.0184 -0.7154
  167SAPE   H7X18798   0.812   3.063   3.513  0.0653 -1.1842  2.3668
  167SAPE   H7Y18799   0.656   3.103   3.579  0.1154 -0.2202 -1.3342
  167SAPE   C3818800   0.805   3.236   3.661  0.6439 -0.0379 -0.2151
  167SAPE   H8X18801   0.715   3.291   3.695  0.2957 -0.0418 -1.0982
  167SAPE   H8Y18802   0.889   3.300   3.629 -1.0115  1.8403 -0.9894
  167SAPE   C3918803   0.862   3.152   3.779 -0.1576  0.3635 -0.2875
  167SAPE   H9X18804   0.934   3.211   3.839 -1.2058  0.8104  0.5618
  167SAPE   H9Y18805   0.923   3.063   3.751  0.9475  0.9416  0.2356
  167SAPE  C31018806   0.759   3.110   3.881  0.1613 -0.3949  0.0742
  167SAPE  H10X18807   0.797   3.025   3.941  0.1833  0.2275  0.9602
  167SAPE  H10Y18808   0.669   3.065   3.835  1.5859 -3.2768 -0.1385
  167SAPE  C31118809   0.706   3.215   3.982 -0.5771 -0.3239 -0.4275
  167SAPE  H11X18810   0.605   3.193   4.021  0.1464 -1.3151  0.9824
  167SAPE  H11Y18811   0.709   3.316   3.937  0.4213 -0.4006 -0.5570
  167SAPE  C31218812   0.804   3.227   4.106  0.6676  0.2968 -0.0738
  167SAPE  H12X18813   0.770   3.311   4.170  0.0909 -1.2509  1.7465
  167SAPE  H12Y18814   0.905   3.245   4.064 -0.6799  2.8828 -2.5190
  167SAPE  C31318815   0.799   3.099   4.199 -0.2949 -0.4980  0.2113
  167SAPE  H13X18816   0.823   3.007   4.142  1.5019  0.2411 -0.2918
  167SAPE  H13Y18817   0.694   3.087   4.234 -0.4786  0.9100  0.1891
  167SAPE  C31418818   0.885   3.111   4.327 -0.4831 -0.0910  0.3556
  167SAPE  H14X18819   0.883   3.216   4.364 -1.4067  0.0056  0.0622
  167SAPE  H14Y18820   0.993   3.098   4.305  0.4625  3.1066  2.4637
  167SAPE  C31518821   0.831   3.011   4.433 -0.3403 -0.0038 -0.2173
  167SAPE  H15X18822   0.822   2.911   4.385  3.0540 -0.2922 -0.5428
  167SAPE  H15Y18823   0.730   3.048   4.459  0.3597  0.3710  2.2257
  167SAPE  C31618824   0.914   3.000   4.557 -0.6284 -0.7186 -0.0580
  167SAPE  H16X18825   0.923   3.099   4.605 -1.5940 -1.2414  1.2381
  167SAPE  H16Y18826   1.022   2.979   4.540  0.0351  2.9925 -1.2956
  167SAPE  C31718827   0.856   2.911   4.667  0.5515 -0.9678  0.5104
  167SAPE  H17X18828   0.843   2.811   4.622 -1.0459 -1.1912  1.3935
  167SAPE  H17Y18829   0.748   2.937   4.676  1.0042  0.1717  3.7688
  167SAPE  C31818830   0.911   2.915   4.809 -0.4094  1.3770 -0.0381
  167SAPE  H18X18831   0.907   3.022   4.840  0.6383  1.1552  0.9598
  167SAPE  H18Y18832   1.020   2.893   4.812 -0.5426  0.2681 -1.7327
  167SAPE  H18Z18833   0.850   2.855   4.880  1.8051  0.0865  0.8900
  168SAPE     N18834   5.709   0.140   2.006 -0.1009  0.4184  1.0786
  168SAPE   HN118835   5.723   0.052   2.060  1.5714 -0.8960 -1.3327
  168SAPE   HN218836   5.612   0.176   2.001  0.2511  1.2639  0.0705
  168SAPE   HN318837   5.737   0.114   1.909 -3.7672 -1.0775  0.2617
  168SAPE   C1218838   5.796   0.245   2.071  0.1527 -0.4207 -0.2688
  168SAPE  H12A18839   5.761   0.343   2.032 -2.0371 -1.1713 -0.3265
  168SAPE  H12B18840   5.899   0.235   2.031  0.4565  0.5829  0.2282
  168SAPE   C1118841   5.765   0.239   2.222 -0.1732 -0.1216  0.4849
  168SAPE  H11A18842   5.817   0.322   2.274 -0.0571 -0.5634  1.0768
  168SAPE  H11B18843   5.818   0.147   2.254 -0.9609 -0.8100 -0.1405
  168SAPE     P18844   5.570   0.147   2.354 -0.0023 -0.0885  0.0751
  168SAPE   O1318845   5.424   0.165   2.364 -0.0769  0.0931  0.4187
  168SAPE   O1418846   5.629   0.013   2.332  0.3391 -0.3167  0.3245
  168SAPE   O1218847   5.627   0.244   2.246  0.2034 -0.5521  0.3264
  168SAPE   O1118848   5.630   0.207   2.480  0.0667  0.0245 -0.0028
  168SAPE    C118849   5.637   0.343   2.525 -0.0116  0.9559  0.1991
  168SAPE    HA18850   5.734   0.384   2.491  0.8551 -0.9400  0.2437
  168SAPE    HB18851   5.555   0.397   2.472  1.3414  3.0651  0.1486
  168SAPE    C218852   5.609   0.348   2.678  0.1339 -0.4937 -0.1965
  168SAPE    HS18853   5.597   0.455   2.705 -1.1949 -0.7860  0.4639
  168SAPE   O2118854   5.710   0.280   2.756 -0.2107 -0.2407  0.1060
  168SAPE   C2118855   5.826   0.348   2.768  0.6822 -0.2840  0.4468
  168SAPE   O2218856   5.836   0.461   2.722 -0.2725 -1.1100 -0.5941
  168SAPE   C2218857   5.937   0.261   2.823  0.0017 -0.6128 -0.3000
  168SAPE   H2R18858   5.957   0.180   2.750 -0.6321 -1.7240  0.7390
  168SAPE   H2S18859   6.028   0.325   2.816 -0.6390  0.1036 -3.1801
  168SAPE    C318860   5.466   0.289   2.707 -0.1509  0.1170  0.0778
  168SAPE    HX18861   5.460   0.179   2.696  0.2923  0.1736 -0.8597
  168SAPE    HY18862   5.404   0.325   2.622 -0.3235 -1.1062 -0.3358
  168SAPE   O3118863   5.401   0.342   2.826 -0.1156 -0.5927 -0.3791
  168SAPE   C3118864   5.393   0.252   2.929 -1.0450 -0.3742  0.0228
  168SAPE   O3218865   5.433   0.142   2.929  0.1320  0.3820 -0.7127
  168SAPE   C3218866   5.337   0.333   3.057  0.3106 -0.5920  1.0176
  168SAPE   H2X18867   5.233   0.293   3.065  0.1703 -0.1443  1.4206
  168SAPE   H2Y18868   5.336   0.442   3.035  1.0626 -0.5903  0.9867
  168SAPE   C2318869   5.906   0.204   2.969 -0.4018 -0.1921 -0.1127
  168SAPE   H3R18870   5.837   0.279   3.013 -1.3672 -0.6528 -0.8271
  168SAPE   H3S18871   6.000   0.201   3.029  0.4400 -2.2535 -1.4354
  168SAPE   C2418872   5.843   0.066   2.978 -0.8015 -1.0059  1.0350
  168SAPE   H4R18873   5.921  -0.012   2.970 -0.5888 -0.6053 -2.2559
  168SAPE   H4S18874   5.785   0.052   2.884  0.4392 -1.1337  0.2707
  168SAPE   C2518875   5.755   0.036   3.094  0.5841 -0.8324  0.2586
  168SAPE   H5R18876   5.649   0.060   3.077  0.7810  0.3831  0.6405
  168SAPE   C2618877   5.794  -0.028   3.205  0.1011  0.2260 -0.3878
  168SAPE   H6R18878   5.724  -0.059   3.284 -0.6138  0.5309 -0.8801
  168SAPE   C2718879   5.928  -0.074   3.254 -0.0983 -0.5410 -0.5027
  168SAPE   H7R18880   6.013  -0.035   3.194 -0.3807  3.7827  1.5157
  168SAPE   H7S18881   5.943  -0.184   3.257 -1.3019 -0.8372 -2.7735
  168SAPE   C2818882   5.969  -0.017   3.391 -0.0265  0.3172 -0.4399
  168SAPE   H8R18883   5.981   0.092   3.399  0.3019  0.1478  2.4413
  168SAPE   C2918884   5.974  -0.089   3.511  0.1410 -0.2532  0.8876
  168SAPE   H9R18885   6.022  -0.036   3.594 -1.5666  1.5618  0.7799
  168SAPE  C21018886   5.963  -0.236   3.528 -0.7783  0.4619 -0.4711
  168SAPE  H10R18887   5.917  -0.284   3.439  0.8417 -3.4091  0.5674
  168SAPE  H10S18888   5.890  -0.256   3.610 -1.1071  0.7053 -0.7010
  168SAPE  C21118889   6.099  -0.299   3.563 -0.9822  0.6471  0.2145
  168SAPE  H11R18890   6.175  -0.297   3.484 -0.5102  0.1284  0.6404
  168SAPE  C21218891   6.152  -0.339   3.683  0.3628  0.4097 -0.0584
  168SAPE  H12R18892   6.253  -0.385   3.679  0.0600 -0.2570 -0.2157
  168SAPE  C21318893   6.081  -0.333   3.817 -0.6173  0.1106  0.3979
  168SAPE  H13R18894   6.081  -0.435   3.861 -0.9877 -0.2509 -0.4067
  168SAPE  H13S18895   5.973  -0.307   3.811 -0.7588 -0.1331  1.5759
  168SAPE  C21418896   6.162  -0.230   3.895 -0.5433 -0.1413  0.1281
  168SAPE  H14R18897   6.147  -0.124   3.868  0.9265  0.5463  1.7402
  168SAPE  C21518898   6.266  -0.258   3.975  0.1914 -0.7794  0.0156
  168SAPE  H15R18899   6.320  -0.165   3.997  0.8857 -0.2269 -3.5476
  168SAPE  C21618900   6.333  -0.391   4.014  0.2528 -0.3921  0.0541
  168SAPE  H16R18901   6.443  -0.379   4.028 -0.0404 -0.7203  3.9019
  168SAPE  H16S18902   6.325  -0.468   3.935  0.0498 -0.1131 -0.1989
  168SAPE  C21718903   6.267  -0.459   4.137 -0.5434  0.2516  0.4183
  168SAPE  H17R18904   6.158  -0.468   4.118 -0.8624  2.8644  0.5856
  168SAPE  H17S18905   6.284  -0.394   4.226 -1.2571 -1.1555  1.6250
  168SAPE  C21818906   6.329  -0.594   4.176  0.8140 -0.6923  0.0633
  168SAPE  H18R18907   6.436  -0.590   4.148  0.7186  1.0422 -0.2151
  168SAPE  H18S18908   6.280  -0.674   4.117 -1.0189  0.8509 -0.5966
  168SAPE  C21918909   6.317  -0.618   4.331  0.3817  0.5165  0.2033
  168SAPE  H19R18910   6.207  -0.622   4.347  0.8332  0.4284  4.0472
  168SAPE  H19S18911   6.354  -0.528   4.385 -0.3828  1.3750 -0.6648
  168SAPE  C22018912   6.390  -0.748   4.367  0.1844 -0.0340 -0.6912
  168SAPE  H20R18913   6.498  -0.741   4.342  0.6433 -0.6482  0.9899
  168SAPE  H20S18914   6.350  -0.832   4.307 -0.7543 -0.9364  1.1006
  168SAPE  H20T18915   6.368  -0.767   4.475 -0.2068 -0.0356 -0.7696
  168SAPE   C3318916   5.404   0.304   3.196 -0.2004  0.0310 -0.0822
  168SAPE   H3X18917   5.380   0.387   3.267 -1.1363 -0.8509  0.6579
  168SAPE   H3Y18918   5.515   0.308   3.188 -0.2814  2.3055 -0.5837
  168SAPE   C3418919   5.365   0.173   3.251 -0.0336 -0.2164  0.1036
  168SAPE   H4X18920   5.360   0.096   3.172  1.9926 -0.5862  0.2857
  168SAPE   H4Y18921   5.266   0.171   3.303 -0.0967  2.5274  0.2536
  168SAPE   C3518922   5.471   0.136   3.354  0.8445  0.4915 -0.6799
  168SAPE   H5X18923   5.474   0.225   3.421 -0.1568  0.4163 -0.5106
  168SAPE   H5Y18924   5.564   0.119   3.297 -0.5844 -1.8164 -2.5328
  168SAPE   C3618925   5.428   0.015   3.436  0.6324 -0.3614  0.6065
  168SAPE   H6X18926   5.450  -0.070   3.369  0.9085 -0.1414  0.4184
  168SAPE   H6Y18927   5.319   0.026   3.456  0.7247 -1.5036  1.9013
  168SAPE   C3718928   5.500   0.011   3.576 -0.1635  0.4692 -0.4997
  168SAPE   H7X18929   5.469   0.103   3.629 -2.2585 -1.5697  2.1246
  168SAPE   H7Y18930   5.610   0.010   3.563  0.0562  0.3138  1.1695
  168SAPE   C3818931   5.457  -0.112   3.650 -0.1265 -0.3294 -0.4868
  168SAPE   H8X18932   5.492  -0.200   3.591 -1.4663  0.0130 -1.8177
  168SAPE   H8Y18933   5.346  -0.121   3.651 -0.0824 -0.9121 -0.2437
  168SAPE   C3918934   5.503  -0.117   3.799  0.5416 -0.3463  0.0757
  168SAPE   H9X18935   5.448  -0.188   3.864  0.2445 -1.8863 -1.7554
  168SAPE   H9Y18936   5.487  -0.016   3.842 -0.2627  0.0794 -1.1736
  168SAPE  C31018937   5.657  -0.134   3.806 -0.7546  0.1224  1.1342
  168SAPE  H10X18938   5.719  -0.063   3.746  1.4823 -1.7295  1.1134
  168SAPE  H10Y18939   5.667  -0.226   3.744  0.8404  2.4192 -2.3729
  168SAPE  C31118940   5.717  -0.163   3.947  0.1902  0.1730 -0.2010
  168SAPE  H11X18941   5.825  -0.188   3.943  0.4215  1.1410 -0.2750
  168SAPE  H11Y18942   5.667  -0.252   3.991  0.4768 -0.5600 -1.3117
  168SAPE  C31218943   5.706  -0.037   4.036  0.4213 -0.1072 -0.1532
  168SAPE  H12X18944   5.599  -0.011   4.052  0.4980  0.7256 -0.9284
  168SAPE  H12Y18945   5.755   0.046   3.981 -1.5119  1.5310  0.4241
  168SAPE  C31318946   5.766  -0.051   4.179 -0.4117  0.1734 -0.3885
  168SAPE  H13X18947   5.871  -0.078   4.157 -0.1830  0.9222 -0.2605
  168SAPE  H13Y18948   5.721  -0.139   4.230 -0.3344 -2.0355 -3.7947
  168SAPE  C31418949   5.755   0.078   4.260  0.4549 -0.0820 -0.2390
  168SAPE  H14X18950   5.648   0.099   4.280  0.5181  0.6059 -0.6099
  168SAPE  H14Y18951   5.789   0.156   4.189  0.8994  0.5899  0.6775
  168SAPE  C31518952   5.824   0.074   4.401  0.1130 -0.5895  0.6512
  168SAPE  H15X18953   5.933   0.088   4.386 -0.0253  1.6957  1.3941
  168SAPE  H15Y18954   5.801  -0.026   4.443 -0.4244 -0.6222  0.2960
  168SAPE  C31618955   5.777   0.190   4.488 -0.7662 -0.6323 -0.0569
  168SAPE  H16X18956   5.667   0.189   4.505 -0.9182  2.5203 -0.2562
  168SAPE  H16Y18957   5.808   0.280   4.431  0.1850 -1.5612 -1.0647
  168SAPE  C31718958   5.844   0.189   4.627  0.7788  0.0020 -0.0837
  168SAPE  H17X18959   5.952   0.203   4.605  1.3883 -2.3291  1.0729
  168SAPE  H17Y18960   5.827   0.092   4.679 -0.2374  0.8115  1.1642
  168SAPE  C31818961   5.804   0.299   4.729 -0.0022 -0.3908 -0.0687
  168SAPE  H18X18962   5.695   0.302   4.752  0.1436 -3.0720  1.4159
  168SAPE  H18Y18963   5.837   0.400   4.699 -1.7116  1.0761  2.5528
  168SAPE  H18Z18964   5.847   0.290   4.832 -3.2777 -0.1150  1.4411
  169SAPE     N18965   1.412   2.171   2.344 -0.5477  0.1694 -0.3017
  169SAPE   HN118966   1.516   2.168   2.337 -0.2602  2.8916  1.2547
  169SAPE   HN218967   1.378   2.110   2.267 -1.9171 -1.5330  1.5289
  169SAPE   HN318968   1.379   2.267   2.322 -0.3122  0.1529 -0.7444
  169SAPE   C1218969   1.358   2.144   2.486  0.8636  0.1195 -0.3003
  169SAPE  H12A18970   1.391   2.042   2.512 -0.1917 -0.6008 -1.6115
  169SAPE  H12B18971   1.247   2.137   2.475  0.8671 -1.2337  0.3383
  169SAPE   C1118972   1.402   2.260   2.580  0.0684  0.5665  0.5504
  169SAPE  H11A18973   1.354   2.237   2.677 -0.5851  1.4828  0.4615
  169SAPE  H11B18974   1.355   2.351   2.536 -1.6898  0.6765  2.5273
  169SAPE     P18975   1.634   2.211   2.683 -0.0032 -0.3010 -0.2054
  169SAPE   O1318976   1.642   2.066   2.664 -0.1346  0.3152 -0.8328
  169SAPE   O1418977   1.760   2.286   2.664  0.0259 -0.3024  0.8412
  169SAPE   O1218978   1.543   2.276   2.580  0.5809  0.2016  0.4451
  169SAPE   O1118979   1.569   2.243   2.825  0.0887  0.1757  0.6850
  169SAPE    C118980   1.530   2.373   2.861 -0.6536  0.4496 -0.6328
  169SAPE    HA18981   1.492   2.430   2.773 -0.0673 -1.0511 -1.9115
  169SAPE    HB18982   1.447   2.357   2.933  0.8485  0.6130  1.1918
  169SAPE    C218983   1.630   2.461   2.946 -0.5845  0.3277 -0.1962
  169SAPE    HS18984   1.709   2.478   2.870  0.2033 -2.8233 -0.2272
  169SAPE   O2118985   1.670   2.384   3.061 -0.0559  0.2451 -0.5520
  169SAPE   C2118986   1.779   2.422   3.126  0.5267 -0.0897 -0.4091
  169SAPE   O2218987   1.855   2.506   3.096 -0.2577  0.0180  0.1102
  169SAPE   C2218988   1.809   2.325   3.251 -0.1521 -0.3417  0.1499
  169SAPE   H2R18989   1.755   2.375   3.335  0.9576 -1.4734  1.5864
  169SAPE   H2S18990   1.762   2.225   3.243  1.8682 -1.2189 -1.6496
  169SAPE    C318991   1.568   2.590   3.001 -0.0341  0.1780  0.2229
  169SAPE    HX18992   1.556   2.653   2.909 -1.8818 -0.6937 -0.1769
  169SAPE    HY18993   1.634   2.646   3.071  2.9458 -1.4288 -1.1204
  169SAPE   O3118994   1.429   2.563   3.045 -0.1490 -0.1593  0.1042
  169SAPE   C3118995   1.424   2.550   3.181 -0.2643  0.4341  0.0314
  169SAPE   O3218996   1.515   2.576   3.260  0.4743 -0.3309  0.0677
  169SAPE   C3218997   1.282   2.502   3.204 -0.3868 -0.1476 -0.8530
  169SAPE   H2X18998   1.259   2.414   3.140  0.7422 -2.8853  2.1825
  169SAPE   H2Y18999   1.212   2.583   3.176  0.1621 -0.2542 -2.6912
  169SAPE   C2319000   1.959   2.315   3.272  0.1359 -0.2770 -0.8961
  169SAPE   H3R19001   1.992   2.420   3.281 -0.2124 -0.1975 -0.5016
  169SAPE   H3S19002   2.017   2.264   3.192 -1.3579  0.7536 -2.7145
  169SAPE   C2419003   2.003   2.241   3.407  0.4292 -0.7089 -0.4185
  169SAPE   H4R19004   2.112   2.256   3.425  0.5438 -1.0829 -0.7797
  169SAPE   H4S19005   1.992   2.133   3.386 -0.2104 -0.6967 -0.1485
  169SAPE   C2519006   1.919   2.267   3.529 -0.3195 -0.2204 -0.3886
  169SAPE   H5R19007   1.813   2.283   3.508  0.0538  0.8445 -1.6304
  169SAPE   C2619008   1.962   2.284   3.657  0.1752  0.1444  0.4774
  169SAPE   H6R19009   1.877   2.288   3.727 -2.3502  0.0612 -2.3718
  169SAPE   C2719010   2.105   2.278   3.700 -0.3212  0.4487 -0.4501
  169SAPE   H7R19011   2.139   2.375   3.741  0.0388 -0.1619  0.7561
  169SAPE   H7S19012   2.182   2.256   3.623  1.1722  1.1695  0.7801
  169SAPE   C2819013   2.147   2.170   3.803  0.0657 -0.6886 -0.6179
  169SAPE   H8R19014   2.241   2.119   3.775  0.6964  0.3392 -0.4221
  169SAPE   C2919015   2.083   2.121   3.910  0.2973  0.2969 -0.0668
  169SAPE   H9R19016   2.119   2.026   3.953 -0.8067  0.2909  0.8880
  169SAPE  C21019017   1.944   2.156   3.957  0.7232  0.0930  0.3630
  169SAPE  H10R19018   1.919   2.262   3.935 -1.1968 -0.3216  0.3828
  169SAPE  H10S19019   1.924   2.144   4.065  1.9695 -0.5706  0.5384
  169SAPE  C21119020   1.838   2.074   3.879 -0.5548 -0.1696  0.6618
  169SAPE  H11R19021   1.883   2.022   3.793 -0.6667  2.4632 -1.0957
  169SAPE  C21219022   1.707   2.057   3.913  0.4498 -0.8292  0.3939
  169SAPE  H12R19023   1.648   2.000   3.840  1.4174 -2.4770  0.8470
  169SAPE  C21319024   1.641   2.127   4.033 -0.0530 -0.2645  0.0851
  169SAPE  H13R19025   1.565   2.204   4.010 -1.1367 -1.4334 -0.3851
  169SAPE  H13S19026   1.713   2.171   4.105 -0.8354  0.9388  0.1553
  169SAPE  C21419027   1.573   2.013   4.105 -0.4204  0.7217 -0.2955
  169SAPE  H14R19028   1.494   1.965   4.046 -1.9471  3.2256 -0.4666
  169SAPE  C21519029   1.582   1.959   4.227 -0.4346 -0.4784 -0.1760
  169SAPE  H15R19030   1.520   1.871   4.250  1.0956 -1.4906  0.2432
  169SAPE  C21619031   1.678   2.003   4.335 -0.2924 -0.1063  0.5545
  169SAPE  H16R19032   1.637   2.072   4.413 -1.0946 -0.7612  0.7208
  169SAPE  H16S19033   1.759   2.063   4.289 -0.2831 -0.3680  0.2309
  169SAPE  C21719034   1.754   1.885   4.394 -0.0780  0.6468  0.0002
  169SAPE  H17R19035   1.832   1.918   4.465  1.6522 -0.4140 -1.3503
  169SAPE  H17S19036   1.807   1.832   4.312  1.3668  1.3332  0.4549
  169SAPE  C21819037   1.671   1.780   4.470 -0.1282 -1.2042 -0.1457
  169SAPE  H18R19038   1.744   1.721   4.530  0.8669 -0.5184 -0.6506
  169SAPE  H18S19039   1.620   1.712   4.398 -0.7068  0.8771 -1.8178
  169SAPE  C21919040   1.577   1.841   4.575 -0.0722  1.1878 -0.2187
  169SAPE  H19R19041   1.509   1.909   4.520 -1.3208  1.4353  1.5486
  169SAPE  H19S19042   1.642   1.900   4.643  2.9110 -1.2620 -0.7531
  169SAPE  C22019043   1.506   1.743   4.661  0.0934  0.2506  0.1042
  169SAPE  H20R19044   1.586   1.688   4.716  2.1909  3.4415  0.5660
  169SAPE  H20S19045   1.437   1.674   4.609 -0.5587  0.7348  0.3183
  169SAPE  H20T19046   1.456   1.784   4.751 -1.5235 -2.6547  0.6157
  169SAPE   C3319047   1.246   2.443   3.343 -0.3041  0.3511 -0.1672
  169SAPE   H3X19048   1.315   2.362   3.373  1.1893  0.8419 -2.0962
  169SAPE   H3Y19049   1.138   2.414   3.338 -1.0303  2.1496  2.5060
  169SAPE   C3419050   1.251   2.555   3.447 -0.6344  0.8186  0.2142
  169SAPE   H4X19051   1.205   2.648   3.408 -1.2267  0.1286 -0.7645
  169SAPE   H4Y19052   1.353   2.589   3.473  0.2519 -1.3890 -0.1510
  169SAPE   C3519053   1.189   2.528   3.585 -0.1577 -0.4765 -0.3109
  169SAPE   H5X19054   1.229   2.430   3.621  0.8099 -0.5256 -1.4632
  169SAPE   H5Y19055   1.079   2.521   3.573 -0.2658  1.9213 -1.0283
  169SAPE   C3619056   1.207   2.632   3.695 -0.5911 -0.0637  0.6135
  169SAPE   H6X19057   1.198   2.733   3.650 -1.0965  0.4538  1.8340
  169SAPE   H6Y19058   1.313   2.643   3.728 -0.3821 -1.1628  0.3686
  169SAPE   C3719059   1.110   2.620   3.817 -0.0782  0.1237  0.3302
  169SAPE   H7X19060   1.146   2.533   3.875  0.7829  0.7132  0.6903
  169SAPE   H7Y19061   1.019   2.582   3.765 -1.0156  0.5393  1.6277
  169SAPE   C3819062   1.089   2.746   3.906 -0.2307  0.0009 -0.3336
  169SAPE   H8X19063   1.025   2.819   3.853 -0.1943  1.2780  1.2907
  169SAPE   H8Y19064   1.187   2.792   3.930 -0.7783 -0.7270  4.2303
  169SAPE   C3919065   0.999   2.726   4.028  0.0569 -0.6324  0.2143
  169SAPE   H9X19066   0.903   2.679   4.001  0.0686 -1.9988  2.3413
  169SAPE   H9Y19067   0.987   2.825   4.078  0.9340 -0.2738 -0.2504
  169SAPE  C31019068   1.059   2.638   4.141 -0.8401 -0.3259  0.8187
  169SAPE  H10X19069   1.162   2.675   4.159 -0.6822 -0.2366 -0.2311
  169SAPE  H10Y19070   1.056   2.535   4.098 -0.2194  0.6287 -1.6738
  169SAPE  C31119071   0.988   2.649   4.269  0.0218  0.2705 -1.2160
  169SAPE  H11X19072   0.880   2.622   4.257  0.1932 -2.0704  1.4380
  169SAPE  H11Y19073   0.991   2.756   4.300 -0.5545  0.4291 -1.6861
  169SAPE  C31219074   1.042   2.558   4.384 -0.6058  0.0912  0.4493
  169SAPE  H12X19075   1.151   2.552   4.367 -0.7196 -0.4936 -0.1098
  169SAPE  H12Y19076   0.999   2.459   4.360  0.4454 -0.0788 -0.7812
  169SAPE  C31319077   1.013   2.605   4.524 -0.0101  0.6036 -0.2400
  169SAPE  H13X19078   0.911   2.575   4.556  0.1392  2.1519  1.9035
  169SAPE  H13Y19079   1.021   2.716   4.530  0.3134  0.5309  0.9969
  169SAPE  C31419080   1.121   2.559   4.624  0.1150  0.1824  0.0531
  169SAPE  H14X19081   1.214   2.620   4.627  0.4384 -0.3155  0.3281
  169SAPE  H14Y19082   1.144   2.453   4.603 -0.1342 -0.1996  1.5601
  169SAPE  C31519083   1.060   2.582   4.761 -0.2243 -0.7144 -0.2828
  169SAPE  H15X19084   0.951   2.561   4.751 -0.5729  1.6292 -2.0148
  169SAPE  H15Y19085   1.074   2.689   4.786 -1.5904 -0.2079 -1.5387
  169SAPE  C31619086   1.126   2.501   4.872 -0.0556  1.0072 -1.0872
  169SAPE  H16X19087   1.129   2.573   4.956 -1.9460 -0.3210  0.1928
  169SAPE  H16Y19088   1.227   2.470   4.839  0.8325  2.7972 -0.1915
  169SAPE  C31719089   1.044   2.383   4.913  0.4026 -0.1372 -0.2733
  169SAPE  H17X19090   1.024   2.306   4.835  2.2228 -0.7812 -0.1742
  169SAPE  H17Y19091   0.950   2.424   4.954 -0.0649  0.4466 -1.8724
  169SAPE  C31819092   1.117   2.312   5.026 -0.5461  0.1149  0.2332
  169SAPE  H18X19093   1.137   2.377   5.114  0.5372  1.9379 -1.2890
  169SAPE  H18Y19094   1.213   2.275   4.985 -0.0953 -1.3462  2.4481
  169SAPE  H18Z19095   1.050   2.230   5.060 -1.3209  0.9433  0.7495
  170SAPE     N19096   6.664   3.264   2.519 -0.0717  0.4830  0.3410
  170SAPE   HN119097   6.561   3.279   2.520 -0.0036  1.0020  1.9837
  170SAPE   HN219098   6.690   3.180   2.574 -1.8946 -1.5974 -1.7434
  170SAPE   HN319099   6.711   3.344   2.564 -0.3877 -0.2401  2.0287
  170SAPE   C1219100   6.720   3.266   2.378  0.6700 -0.1398  0.5485
  170SAPE  H12A19101   6.657   3.330   2.312  3.4182  0.9459 -1.2198
  170SAPE  H12B19102   6.717   3.160   2.345  1.4216 -0.7531  2.3396
  170SAPE   C1119103   6.872   3.293   2.366 -0.7486  0.3459  0.6641
  170SAPE  H11A19104   6.912   3.280   2.263  0.5729  0.6183  1.1245
  170SAPE  H11B19105   6.920   3.220   2.435  0.4369  0.1814 -0.2944
  170SAPE     P19106   7.070   3.458   2.399  0.0779  0.5869  0.4805
  170SAPE   O1319107   7.121   3.440   2.259  0.1046 -0.2903  0.4429
  170SAPE   O1419108   7.084   3.595   2.460  0.3324  0.4211  0.3074
  170SAPE   O1219109   6.907   3.423   2.412 -0.3773 -0.7826 -0.1932
  170SAPE   O1119110   7.132   3.355   2.504  0.5677 -0.0484  0.2209
  170SAPE    C119111   7.119   3.367   2.646 -1.1134 -0.0828  0.3943
  170SAPE    HA19112   7.206   3.430   2.675  0.9633 -1.9179 -1.4204
  170SAPE    HB19113   7.023   3.411   2.681 -1.4117  1.1819 -1.8533
  170SAPE    C219114   7.127   3.229   2.720  0.9813  0.3362 -0.5214
  170SAPE    HS19115   7.133   3.238   2.830  2.4793 -4.1210 -0.0129
  170SAPE   O2119116   7.247   3.160   2.688 -0.3241 -0.1416 -0.1044
  170SAPE   C2119117   7.361   3.214   2.731  0.1299  0.9899 -0.0686
  170SAPE   O2219118   7.376   3.314   2.795 -0.2546  0.2807  0.1044
  170SAPE   C2219119   7.478   3.127   2.707 -0.4992  0.2824  0.4622
  170SAPE   H2R19120   7.445   3.029   2.747  0.8048 -0.4719 -0.2477
  170SAPE   H2S19121   7.493   3.114   2.598  3.0137  0.2966  0.8378
  170SAPE    C319122   7.009   3.134   2.680  0.0424 -0.7079  0.2899
  170SAPE    HX19123   7.050   3.079   2.592  2.9238  1.9917 -0.2330
  170SAPE    HY19124   6.922   3.192   2.645 -1.6409 -2.9236  0.5542
  170SAPE   O3119125   6.966   3.042   2.784 -0.2558  0.8876 -0.1378
  170SAPE   C3119126   6.918   3.093   2.900 -0.3874 -0.4375 -0.2883
  170SAPE   O3219127   6.910   3.211   2.930 -0.6033 -0.0134 -0.5416
  170SAPE   C3219128   6.886   2.969   2.984 -0.2135  0.4605 -0.8165
  170SAPE   H2X19129   6.860   2.883   2.919  1.8434 -1.2066  0.4278
  170SAPE   H2Y19130   6.803   2.988   3.055  0.7864  0.6055  0.3626
  170SAPE   C2319131   7.602   3.188   2.751 -0.3352 -0.0769  0.0207
  170SAPE   H3R19132   7.596   3.212   2.859 -1.8243  1.0597 -0.2874
  170SAPE   H3S19133   7.616   3.286   2.699 -1.5462  0.7820  1.2575
  170SAPE   C2419134   7.723   3.110   2.705  0.0966  0.3409  0.5372
  170SAPE   H4R19135   7.816   3.156   2.745  1.1502 -1.1645 -0.0538
  170SAPE   H4S19136   7.711   3.126   2.595 -3.7956  1.6454  1.0120
  170SAPE   C2519137   7.716   2.965   2.757  0.3229  0.4336  0.1454
  170SAPE   H5R19138   7.621   2.921   2.722  0.6314 -0.2578  0.1675
  170SAPE   C2619139   7.804   2.898   2.824 -0.1873 -0.3078 -0.3969
  170SAPE   H6R19140   7.794   2.791   2.850 -0.3731  0.1695  1.6278
  170SAPE   C2719141   7.937   2.952   2.874 -0.0929 -0.8332  0.3205
  170SAPE   H7R19142   7.926   2.991   2.977 -0.0606  4.0707 -1.2612
  170SAPE   H7S19143   7.974   3.042   2.820  0.6935 -0.8332  0.8547
  170SAPE   C2819144   8.051   2.846   2.862 -0.0450  0.4526 -0.8282
  170SAPE   H8R19145   8.061   2.787   2.770  0.9047 -1.5075  0.4513
  170SAPE   C2919146   8.147   2.836   2.956  0.4911  0.2214 -1.0040
  170SAPE   H9R19147   8.227   2.761   2.945  0.7028  0.1298  0.9289
  170SAPE  C21019148   8.158   2.904   3.092  0.0416 -0.0510 -0.1535
  170SAPE  H10R19149   8.127   3.007   3.065 -0.7169 -0.6967 -1.8536
  170SAPE  H10S19150   8.262   2.892   3.128 -0.0905  1.5948  0.9138
  170SAPE  C21119151   8.061   2.856   3.199  0.0714  0.1338 -0.0691
  170SAPE  H11R19152   7.994   2.775   3.166  0.4331  0.2179 -1.0652
  170SAPE  C21219153   8.048   2.902   3.326 -0.0878  0.2179 -0.3202
  170SAPE  H12R19154   7.964   2.866   3.388 -0.5612  0.7556 -0.6328
  170SAPE  C21319155   8.139   3.006   3.392 -0.0887  0.2543 -0.1594
  170SAPE  H13R19156   8.083   3.083   3.449 -0.8350 -0.8501  0.6422
  170SAPE  H13S19157   8.197   3.056   3.312 -1.4059  0.4816 -1.0004
  170SAPE  C21419158   8.247   2.948   3.484  0.1249  0.3138  0.4601
  170SAPE  H14R19159   8.293   2.855   3.450  2.9682  1.5468  0.6827
  170SAPE  C21519160   8.310   3.006   3.596 -0.1801 -0.4825  0.4559
  170SAPE  H15R19161   8.399   2.958   3.639  0.2876  0.4641  0.5666
  170SAPE  C21619162   8.274   3.143   3.658  0.1652  0.0317 -0.1158
  170SAPE  H16R19163   8.235   3.209   3.577  1.8292  0.2112 -0.8203
  170SAPE  H16S19164   8.370   3.188   3.694 -0.1046 -1.2600  2.4243
  170SAPE  C21719165   8.170   3.129   3.771 -0.1719 -0.1723  0.6587
  170SAPE  H17R19166   8.198   3.039   3.829  2.0431  2.5212  4.2179
  170SAPE  H17S19167   8.070   3.119   3.722  0.7831 -0.6213 -1.3191
  170SAPE  C21819168   8.155   3.242   3.861 -0.0197 -0.4423 -0.2394
  170SAPE  H18R19169   8.248   3.264   3.918 -0.2047  0.2845 -0.2116
  170SAPE  H18S19170   8.090   3.211   3.945 -0.2867  0.2323 -0.1945
  170SAPE  C21919171   8.112   3.365   3.784 -0.7927  0.0615  0.7049
  170SAPE  H19R19172   8.023   3.366   3.718  0.6770 -1.0650 -1.4173
  170SAPE  H19S19173   8.195   3.401   3.719 -1.9069 -1.8918 -1.9358
  170SAPE  C22019174   8.096   3.489   3.880 -0.6962  0.4057 -0.2987
  170SAPE  H20R19175   7.999   3.485   3.933 -0.8381 -2.2938 -0.6279
  170SAPE  H20S19176   8.097   3.582   3.819  0.0877 -0.0076 -0.9425
  170SAPE  H20T19177   8.186   3.492   3.946 -0.3183  0.4944 -0.8083
  170SAPE   C3319178   7.001   2.931   3.076  0.3173 -0.5266  0.0953
  170SAPE   H3X19179   7.095   2.900   3.024 -1.2392 -3.9370 -1.0273
  170SAPE   H3Y19180   6.966   2.838   3.127  1.3105 -0.1351  1.5336
  170SAPE   C3419181   7.026   3.030   3.190  0.8282 -0.2376  0.4351
  170SAPE   H4X19182   6.930   3.046   3.243 -1.0352  0.2124 -2.8077
  170SAPE   H4Y19183   7.056   3.128   3.146  0.9820  0.1812  1.4287
  170SAPE   C3519184   7.144   2.986   3.286  0.0030  0.2781 -0.4269
  170SAPE   H5X19185   7.236   2.972   3.224  0.1433  0.6989 -0.3223
  170SAPE   H5Y19186   7.121   2.886   3.326 -3.6301  1.0036 -0.3844
  170SAPE   C3619187   7.163   3.090   3.391 -0.4794 -0.0121 -0.1036
  170SAPE   H6X19188   7.065   3.110   3.438  1.0356  0.3622  3.2635
  170SAPE   H6Y19189   7.204   3.186   3.354 -1.8216  0.0564 -1.4716
  170SAPE   C3719190   7.259   3.047   3.511  0.2640  0.2271  0.2993
  170SAPE   H7X19191   7.365   3.048   3.479  0.8768 -1.0341  2.0930
  170SAPE   H7Y19192   7.231   2.947   3.550 -0.5973  0.8830  1.4285
  170SAPE   C3819193   7.239   3.144   3.627 -0.2990  0.2511 -0.2007
  170SAPE   H8X19194   7.172   3.224   3.590  1.1310  1.4310 -0.3105
  170SAPE   H8Y19195   7.336   3.193   3.647  0.6541 -1.4214 -0.5558
  170SAPE   C3919196   7.195   3.078   3.758  0.6580 -0.1229  0.6222
  170SAPE   H9X19197   7.249   2.985   3.787  0.9760  0.0856  0.7051
  170SAPE   H9Y19198   7.091   3.049   3.734  0.4731  1.8520 -1.2318
  170SAPE  C31019199   7.177   3.162   3.894  0.2624  0.2620 -0.0486
  170SAPE  H10X19200   7.127   3.258   3.873  0.6529  0.2709 -1.0191
  170SAPE  H10Y19201   7.276   3.191   3.936  0.5496 -1.3870  0.5152
  170SAPE  C31119202   7.106   3.078   3.994  0.2285 -0.3261 -0.2843
  170SAPE  H11X19203   7.151   2.976   3.992 -0.0239 -0.4417 -0.1142
  170SAPE  H11Y19204   6.999   3.068   3.968  0.4388  0.1321 -1.3577
  170SAPE  C31219205   7.116   3.140   4.129  0.8150 -0.1552 -0.2116
  170SAPE  H12X19206   7.037   3.087   4.186  1.9129 -0.6317  0.9243
  170SAPE  H12Y19207   7.088   3.247   4.132  0.5747 -0.2349  2.2072
  170SAPE  C31319208   7.249   3.138   4.196  0.1362 -0.0963 -0.2825
  170SAPE  H13X19209   7.307   3.226   4.159 -1.1102  0.8188 -0.1306
  170SAPE  H13Y19210   7.300   3.041   4.177 -0.4127 -0.6161  0.8013
  170SAPE  C31419211   7.241   3.174   4.351  0.5588  0.0240  0.9802
  170SAPE  H14X19212   7.183   3.096   4.405  0.8454 -1.9579 -1.4285
  170SAPE  H14Y19213   7.192   3.274   4.355  0.2666 -0.1328  1.5793
  170SAPE  C31519214   7.378   3.203   4.403  0.0325  0.2411  0.2815
  170SAPE  H15X19215   7.447   3.260   4.336  2.5074 -1.9785  0.7641
  170SAPE  H15Y19216   7.428   3.103   4.404 -1.2153 -0.5176 -2.3526
  170SAPE  C31619217   7.388   3.271   4.537  0.0725 -0.2578 -0.9133
  170SAPE  H16X19218   7.309   3.226   4.602 -0.3838 -0.7159 -1.7733
  170SAPE  H16Y19219   7.358   3.378   4.532  1.9926  0.5117  1.6811
  170SAPE  C31719220   7.524   3.266   4.615 -0.0940  0.6868 -0.3317
  170SAPE  H17X19221   7.611   3.302   4.555  0.0275  3.7418  1.4625
  170SAPE  H17Y19222   7.530   3.161   4.650 -1.3499 -0.2768 -2.7951
  170SAPE  C31819223   7.530   3.355   4.748  0.0322 -0.2049 -0.3515
  170SAPE  H18X19224   7.463   3.306   4.822  1.0207 -1.1025 -0.0221
  170SAPE  H18Y19225   7.503   3.462   4.736 -0.9783 -0.5100 -0.9209
  170SAPE  H18Z19226   7.636   3.349   4.781  0.8385 -1.3868 -2.8719
  171SAPE     N19227   2.788   4.875   2.125  0.3959  0.6183 -0.4801
  171SAPE   HN119228   2.702   4.932   2.116  0.8329  1.1135 -1.6868
  171SAPE   HN219229   2.859   4.917   2.062 -1.5439  0.4223 -2.9454
  171SAPE   HN319230   2.765   4.777   2.098  2.1155 -0.2824  1.0684
  171SAPE   C1219231   2.816   4.876   2.277 -1.0317  0.1226 -0.1527
  171SAPE  H12A19232   2.871   4.971   2.297  0.1798  0.1599 -3.2086
  171SAPE  H12B19233   2.883   4.791   2.299 -0.4042  0.3875 -0.9866
  171SAPE   C1119234   2.679   4.864   2.351 -0.6998  0.2059  0.3752
  171SAPE  H11A19235   2.701   4.883   2.458 -0.1432  0.8852  0.1479
  171SAPE  H11B19236   2.646   4.759   2.339  2.0780 -0.5764 -1.2053
  171SAPE     P19237   2.436   4.969   2.331 -0.3081 -0.2303 -0.2691
  171SAPE   O1319238   2.371   5.087   2.263 -0.3066 -0.2889  0.3639
  171SAPE   O1419239   2.382   4.837   2.297 -0.1452  0.6166 -0.2359
  171SAPE   O1219240   2.585   4.961   2.301 -0.2134 -0.7851 -0.0333
  171SAPE   O1119241   2.427   4.983   2.490 -0.4534  0.3197 -0.1449
  171SAPE    C119242   2.466   5.110   2.548  0.1732  0.1566 -0.1943
  171SAPE    HA19243   2.572   5.134   2.530  0.7740 -1.7377  0.5321
  171SAPE    HB19244   2.415   5.196   2.500 -1.5610  0.0528  1.3478
  171SAPE    C219245   2.434   5.113   2.700  0.4862  0.1341 -0.5027
  171SAPE    HS19246   2.480   5.201   2.750 -1.4410  0.2352  1.2703
  171SAPE   O2119247   2.491   4.988   2.754  0.5481 -0.3540 -0.0546
  171SAPE   C2119248   2.621   4.994   2.775  0.0457  0.0714  0.3944
  171SAPE   O2219249   2.697   5.090   2.745  0.2787  0.3103 -0.2507
  171SAPE   C2219250   2.653   4.861   2.840 -0.3543  0.0092 -0.0135
  171SAPE   H2R19251   2.585   4.779   2.806 -0.2587 -0.4260  0.8315
  171SAPE   H2S19252   2.751   4.813   2.821 -1.2908 -3.1422  2.3470
  171SAPE    C319253   2.275   5.117   2.715 -0.6891 -0.5802  0.1824
  171SAPE    HX19254   2.228   5.051   2.639 -0.2800 -1.5515  0.7449
  171SAPE    HY19255   2.238   5.214   2.678 -2.3891 -0.3697  2.2403
  171SAPE   O3119256   2.233   5.096   2.849 -0.0660  0.0498  0.2582
  171SAPE   C3119257   2.212   4.963   2.886 -1.1211 -0.5667 -0.4124
  171SAPE   O3219258   2.215   4.870   2.808  0.4246 -0.4196  0.1255
  171SAPE   C3219259   2.177   4.954   3.034  0.2063 -0.1770  0.0059
  171SAPE   H2X19260   2.078   5.004   3.033 -0.9929 -2.3887  1.0800
  171SAPE   H2Y19261   2.244   5.020   3.094 -0.6932  0.3570  0.4473
  171SAPE   C2319262   2.632   4.860   2.999  0.4845 -0.1472  0.4235
  171SAPE   H3R19263   2.638   4.756   3.039 -1.5365 -0.7786 -0.7675
  171SAPE   H3S19264   2.528   4.895   3.015  0.3038 -1.0451  1.2917
  171SAPE   C2419265   2.719   4.955   3.090 -0.0611 -0.4080  0.8888
  171SAPE   H4R19266   2.678   4.954   3.194 -0.6928  0.0618  0.6481
  171SAPE   H4S19267   2.696   5.060   3.064  1.1044  0.0541  1.6549
  171SAPE   C2519268   2.866   4.925   3.081 -0.0818 -0.0023  0.3136
  171SAPE   H5R19269   2.925   4.946   2.991 -1.1476  0.1961 -0.3612
  171SAPE   C2619270   2.929   4.865   3.186  0.2230  0.0255 -0.1942
  171SAPE   H6R19271   3.038   4.859   3.193  0.2912  2.3422  2.3569
  171SAPE   C2719272   2.865   4.838   3.317  0.0169  0.0510 -0.0242
  171SAPE   H7R19273   2.910   4.753   3.372 -2.2562 -1.0402  0.2594
  171SAPE   H7S19274   2.757   4.817   3.304 -0.0315  0.0321  0.3895
  171SAPE   C2819275   2.861   4.950   3.415 -0.0099 -0.8000 -0.1903
  171SAPE   H8R19276   2.830   5.048   3.375 -1.3857  0.4232  3.4188
  171SAPE   C2919277   2.882   4.944   3.544 -0.1004  0.3043 -0.4078
  171SAPE   H9R19278   2.871   5.037   3.601 -0.4891  0.0301 -0.0289
  171SAPE  C21019279   2.937   4.833   3.626  0.3034  0.1067  0.0728
  171SAPE  H10R19280   3.038   4.873   3.647  0.6057 -0.3226 -0.5340
  171SAPE  H10S19281   2.947   4.736   3.572 -1.7763 -0.1986  0.1446
  171SAPE  C21119282   2.839   4.827   3.737 -0.5838 -0.0736  0.5114
  171SAPE  H11R19283   2.749   4.769   3.714 -0.7767  0.2929  0.3220
  171SAPE  C21219284   2.847   4.891   3.852 -1.0927 -0.5753  0.4604
  171SAPE  H12R19285   2.787   4.847   3.932  2.4009 -0.7981  3.2204
  171SAPE  C21319286   2.955   4.984   3.905  0.7595 -0.1856  0.6850
  171SAPE  H13R19287   2.988   5.060   3.832 -1.4158 -0.0873 -0.2838
  171SAPE  H13S19288   3.041   4.916   3.921 -0.2415 -1.5191  0.5623
  171SAPE  C21419289   2.907   5.061   4.024 -0.2361  0.2818  0.2188
  171SAPE  H14R19290   2.832   5.132   3.986 -0.6713 -0.5302 -0.4681
  171SAPE  C21519291   2.945   5.050   4.155  1.0073 -0.0908  0.7434
  171SAPE  H15R19292   2.896   5.109   4.234 -0.8503  0.1384 -0.5048
  171SAPE  C21619293   3.044   4.956   4.204 -0.5347 -0.1027  0.6420
  171SAPE  H16R19294   3.090   4.904   4.117 -3.5965  1.0792 -1.8862
  171SAPE  H16S19295   3.003   4.875   4.267 -0.1794  0.2303  1.3074
  171SAPE  C21719296   3.155   5.032   4.276  0.0188 -0.0884 -0.4194
  171SAPE  H17R19297   3.176   5.123   4.217 -1.4577 -0.3416 -1.3842
  171SAPE  H17S19298   3.248   4.971   4.279  1.3020  1.6904 -1.7292
  171SAPE  C21819299   3.122   5.081   4.412  0.0643 -0.0151 -0.0020
  171SAPE  H18R19300   3.116   4.989   4.474  1.2507 -1.0472 -1.3679
  171SAPE  H18S19301   3.027   5.138   4.414  0.4671  0.6611  0.8155
  171SAPE  C21919302   3.227   5.155   4.488  0.2181 -0.1230  0.5317
  171SAPE  H19R19303   3.320   5.096   4.494  0.1077 -0.5595 -1.4435
  171SAPE  H19S19304   3.202   5.164   4.596  1.5194  1.5620  0.7327
  171SAPE  C22019305   3.261   5.291   4.420 -0.2051  0.7206 -0.4924
  171SAPE  H20R19306   3.317   5.357   4.490 -1.9388  1.5052  0.2377
  171SAPE  H20S19307   3.167   5.342   4.390 -0.6200  1.3039  1.5770
  171SAPE  H20T19308   3.318   5.273   4.327  2.0906  3.6658  0.1920
  171SAPE   C3319309   2.162   4.807   3.084 -0.2079  0.8052 -0.5391
  171SAPE   H3X19310   2.256   4.748   3.074 -0.8500 -0.3912  0.1883
  171SAPE   H3Y19311   2.065   4.766   3.045  0.6064 -1.8115 -0.0455
  171SAPE   C3419312   2.132   4.806   3.237  0.1637 -0.3370 -0.4646
  171SAPE   H4X19313   2.113   4.708   3.286  3.0618  0.6545  3.1507
  171SAPE   H4Y19314   2.045   4.873   3.252  1.5075  1.5748 -0.8520
  171SAPE   C3519315   2.250   4.871   3.317  0.3823 -0.0624  0.3290
  171SAPE   H5X19316   2.258   4.976   3.282  0.7844 -1.0551 -2.8770
  171SAPE   H5Y19317   2.344   4.819   3.290  0.1650  0.2390 -1.0358
  171SAPE   C3619318   2.237   4.865   3.471  0.0355 -0.3701  0.9602
  171SAPE   H6X19319   2.169   4.949   3.496  1.6499  1.5131 -0.6316
  171SAPE   H6Y19320   2.331   4.906   3.514  1.6188 -0.1139 -2.3627
  171SAPE   C3719321   2.203   4.730   3.531  0.6000  0.7573 -0.7938
  171SAPE   H7X19322   2.268   4.650   3.491  0.5081 -0.6905  1.7446
  171SAPE   H7Y19323   2.096   4.705   3.510  0.7638  1.1458 -2.1981
  171SAPE   C3819324   2.209   4.738   3.681 -0.4188 -0.2937 -0.7223
  171SAPE   H8X19325   2.132   4.802   3.730  2.6895  0.1782  4.1298
  171SAPE   H8Y19326   2.305   4.784   3.713  0.8254 -2.6496 -0.8739
  171SAPE   C3919327   2.213   4.595   3.739  0.7573 -0.8481 -0.4911
  171SAPE   H9X19328   2.293   4.534   3.691 -0.4442 -2.2484 -0.8010
  171SAPE   H9Y19329   2.120   4.545   3.703  0.0998  0.3515 -0.5064
  171SAPE  C31019330   2.204   4.583   3.889 -0.6025 -0.5113  0.3083
  171SAPE  H10X19331   2.188   4.479   3.925 -0.8963 -0.8556 -0.7926
  171SAPE  H10Y19332   2.115   4.639   3.924  0.0187 -0.4220  1.8231
  171SAPE  C31119333   2.319   4.634   3.967 -0.4823  0.2014  0.0828
  171SAPE  H11X19334   2.278   4.639   4.070 -3.4124  0.4723 -0.9790
  171SAPE  H11Y19335   2.322   4.741   3.937  0.4679 -0.0284 -0.6886
  171SAPE  C31219336   2.446   4.562   3.928 -0.0837 -0.0427 -0.0319
  171SAPE  H12X19337   2.459   4.563   3.818 -1.9535  0.2956 -0.2799
  171SAPE  H12Y19338   2.446   4.456   3.960 -0.6669 -0.3154 -0.9131
  171SAPE  C31319339   2.579   4.631   3.970 -0.6655  0.9009 -0.2299
  171SAPE  H13X19340   2.584   4.741   3.953 -0.2899  1.2308  1.7486
  171SAPE  H13Y19341   2.669   4.596   3.915  0.0915 -0.8193  1.9636
  171SAPE  C31419342   2.614   4.612   4.125 -0.2686  0.2519 -0.1058
  171SAPE  H14X19343   2.621   4.502   4.141  0.5030  0.4488  1.0167
  171SAPE  H14Y19344   2.529   4.641   4.191 -0.4803  2.2011 -1.1787
  171SAPE  C31519345   2.755   4.671   4.163  0.3767 -0.2053 -0.1049
  171SAPE  H15X19346   2.764   4.777   4.130 -0.6349  0.3677  1.3062
  171SAPE  H15Y19347   2.834   4.613   4.111 -1.4670 -2.5401 -0.4814
  171SAPE  C31619348   2.791   4.649   4.311 -0.4790 -0.6303 -0.4308
  171SAPE  H16X19349   2.901   4.663   4.318 -0.5027 -1.0396  1.1271
  171SAPE  H16Y19350   2.769   4.541   4.327  1.5530 -1.3199 -1.7989
  171SAPE  C31719351   2.710   4.724   4.423  0.0374  0.1610 -0.1314
  171SAPE  H17X19352   2.737   4.674   4.518 -0.6141 -0.0332 -0.0376
  171SAPE  H17Y19353   2.600   4.713   4.410  0.0045  1.0831 -0.7207
  171SAPE  C31819354   2.738   4.868   4.455 -0.4608  0.0221 -0.2906
  171SAPE  H18X19355   2.712   4.923   4.362  1.8046 -0.9041 -1.5606
  171SAPE  H18Y19356   2.843   4.892   4.480 -1.9109  4.2225  2.8082
  171SAPE  H18Z19357   2.676   4.904   4.540  0.2152  0.2778  0.1013
  172SAPE     N19358   3.376   5.950   2.480  0.0803 -0.0767  0.3762
  172SAPE   HN119359   3.439   5.868   2.466  0.3659  0.1478  0.3264
  172SAPE   HN219360   3.347   5.989   2.388  1.3072 -0.1306 -0.0573
  172SAPE   HN319361   3.429   6.024   2.530 -0.5485 -1.8064  3.9316
  172SAPE   C1219362   3.257   5.913   2.566  0.2099 -0.0894  0.5795
  172SAPE  H12A19363   3.207   6.011   2.576 -0.9392 -0.4441 -1.1834
  172SAPE  H12B19364   3.312   5.877   2.655  1.4878 -1.0190 -0.5384
  172SAPE   C1119365   3.171   5.798   2.508 -0.4616  0.0922 -0.1628
  172SAPE  H11A19366   3.114   5.763   2.597  0.9169 -0.5684  0.4925
  172SAPE  H11B19367   3.246   5.721   2.480  0.4606  0.2092  1.7654
  172SAPE     P19368   2.938   5.876   2.391  0.0470 -0.0350 -0.5288
  172SAPE   O1319369   2.927   5.990   2.294  0.7795 -0.3468 -0.2185
  172SAPE   O1419370   2.857   5.756   2.365  0.3844  0.0274  0.2827
  172SAPE   O1219371   3.086   5.839   2.397  0.2462  0.4481 -0.0477
  172SAPE   O1119372   2.904   5.926   2.538  0.0698 -0.1566  0.5261
  172SAPE    C119373   2.766   5.959   2.571  0.1458 -0.6772 -0.0743
  172SAPE    HA19374   2.739   6.060   2.535 -2.2964 -1.4373 -0.5787
  172SAPE    HB19375   2.692   5.889   2.526 -0.5723 -1.8461  2.7188
  172SAPE    C219376   2.743   5.954   2.726  0.8146  0.1465 -0.6776
  172SAPE    HS19377   2.802   6.038   2.766 -1.0954  1.4088 -0.3668
  172SAPE   O2119378   2.769   5.823   2.773 -0.1717  0.6466  0.0787
  172SAPE   C2119379   2.895   5.802   2.806 -0.9214  0.6555 -0.4414
  172SAPE   O2219380   2.983   5.889   2.803  0.6622  0.0677  0.1674
  172SAPE   C2219381   2.918   5.651   2.850 -0.1117  0.0874  0.0300
  172SAPE   H2R19382   2.844   5.631   2.930  0.1379 -2.2307 -0.2668
  172SAPE   H2S19383   2.882   5.585   2.768 -0.5060  0.6222 -0.2366
  172SAPE    C319384   2.599   5.989   2.760 -0.0878 -0.6150 -0.7285
  172SAPE    HX19385   2.541   5.895   2.750  2.1644 -1.9785 -1.6787
  172SAPE    HY19386   2.564   6.068   2.690  0.0619  0.5289  0.4497
  172SAPE   O3119387   2.591   6.048   2.896  0.3580  0.0206  0.3118
  172SAPE   C3119388   2.524   5.974   2.986 -0.3826  0.1600 -0.1149
  172SAPE   O3219389   2.466   5.873   2.964 -0.5098 -0.5026  0.3080
  172SAPE   C3219390   2.500   6.064   3.102 -0.7667 -0.0456  0.3016
  172SAPE   H2X19391   2.417   6.135   3.082 -0.7592  1.0265  3.5370
  172SAPE   H2Y19392   2.596   6.120   3.113 -1.9898  1.8805  1.7068
  172SAPE   C2319393   3.062   5.617   2.896  0.1503 -0.0899  0.2152
  172SAPE   H3R19394   3.140   5.648   2.823 -1.2957 -3.7740 -3.2798
  172SAPE   H3S19395   3.061   5.506   2.893  0.3140 -0.0761 -0.9718
  172SAPE   C2419396   3.087   5.686   3.029 -0.6338  0.2487 -0.4793
  172SAPE   H4R19397   3.068   5.795   3.027  0.5080  0.4554 -0.4777
  172SAPE   H4S19398   3.194   5.692   3.056 -1.0188  4.0742  0.6967
  172SAPE   C2519399   3.014   5.612   3.133  0.6682  0.3123  0.6007
  172SAPE   H5R19400   3.042   5.506   3.132 -1.5478 -0.3434  1.3762
  172SAPE   C2619401   2.914   5.659   3.211 -0.8229  0.2562 -0.4981
  172SAPE   H6R19402   2.869   5.592   3.286 -0.0498  0.1908 -0.0853
  172SAPE   C2719403   2.866   5.794   3.223  0.6569 -0.1867  0.3319
  172SAPE   H7R19404   2.779   5.801   3.155  2.5088 -1.0105 -2.2941
  172SAPE   H7S19405   2.944   5.858   3.176  0.0842 -0.7692 -1.4869
  172SAPE   C2819406   2.840   5.840   3.364 -0.5927 -0.2694 -0.9573
  172SAPE   H8R19407   2.880   5.939   3.391 -0.5698 -0.7909  1.1406
  172SAPE   C2919408   2.760   5.793   3.458  0.4594 -0.4635  0.2034
  172SAPE   H9R19409   2.735   5.863   3.539 -1.4040  1.7526 -2.1533
  172SAPE  C21019410   2.674   5.674   3.451  0.0557  0.1820  0.5445
  172SAPE  H10R19411   2.738   5.587   3.473  2.5824  1.5816 -0.7566
  172SAPE  H10S19412   2.636   5.668   3.346  1.6702 -2.1582  0.0191
  172SAPE  C21119413   2.553   5.679   3.540  0.7551  0.2801 -0.1075
  172SAPE  H11R19414   2.458   5.709   3.493 -0.6245 -0.2357  2.1751
  172SAPE  C21219415   2.553   5.618   3.665 -0.1176  0.2036  0.5020
  172SAPE  H12R19416   2.470   5.651   3.729  0.6129  1.1491  0.9746
  172SAPE  C21319417   2.674   5.564   3.739 -0.4589  0.5562  0.1513
  172SAPE  H13R19418   2.742   5.649   3.759 -0.4192  0.8278 -1.0522
  172SAPE  H13S19419   2.730   5.488   3.681  0.1332  1.5479 -0.6175
  172SAPE  C21419420   2.629   5.493   3.863 -0.1859 -0.5159  0.3143
  172SAPE  H14R19421   2.556   5.413   3.842  1.5058 -2.1249  0.3343
  172SAPE  C21519422   2.692   5.495   3.987 -0.1535  0.0842  0.3549
  172SAPE  H15R19423   2.646   5.436   4.068 -1.0373 -0.1134 -0.2686
  172SAPE  C21619424   2.796   5.590   4.042 -0.4537  0.3451  0.7844
  172SAPE  H16R19425   2.756   5.693   4.051  1.4561  1.0768  1.5191
  172SAPE  H16S19426   2.885   5.602   3.976 -0.4750  0.9623  0.8627
  172SAPE  C21719427   2.838   5.535   4.183 -0.1079  0.1300  0.2047
  172SAPE  H17R19428   2.879   5.436   4.155 -2.0546 -0.7299  0.2539
  172SAPE  H17S19429   2.753   5.518   4.252  0.5216 -0.0832  0.9455
  172SAPE  C21819430   2.960   5.609   4.249 -0.5393 -0.2204  0.1586
  172SAPE  H18R19431   2.946   5.719   4.238 -2.3708 -0.2340  1.8524
  172SAPE  H18S19432   3.049   5.588   4.186 -0.2359  3.6124 -0.9684
  172SAPE  C21919433   2.982   5.589   4.399  0.7060  0.0252 -0.2407
  172SAPE  H19R19434   2.980   5.480   4.418  0.2917 -0.1070 -1.0166
  172SAPE  H19S19435   2.898   5.634   4.457  0.2013 -0.0629 -0.8971
  172SAPE  C22019436   3.107   5.644   4.453 -0.5819 -0.1387  0.0101
  172SAPE  H20R19437   3.121   5.749   4.421  1.4909 -0.4870 -0.3275
  172SAPE  H20S19438   3.189   5.575   4.423  0.5565  0.3828  1.7514
  172SAPE  H20T19439   3.111   5.635   4.564  4.7681  0.7032  0.1239
  172SAPE   C3319440   2.465   5.989   3.231 -0.9481  0.3350 -0.1180
  172SAPE   H3X19441   2.546   5.920   3.263  0.9203  2.5833  0.3475
  172SAPE   H3Y19442   2.369   5.935   3.224 -0.9742 -0.0239  2.1278
  172SAPE   C3419443   2.459   6.096   3.350 -0.0686  0.1693 -0.2175
  172SAPE   H4X19444   2.402   6.190   3.332  1.6296  1.0939 -0.9013
  172SAPE   H4Y19445   2.557   6.147   3.358 -0.0816  0.2017 -0.2635
  172SAPE   C3519446   2.417   6.026   3.475  0.2813  0.2790 -1.1158
  172SAPE   H5X19447   2.506   5.974   3.515  0.6649  0.7309 -1.3727
  172SAPE   H5Y19448   2.350   5.942   3.448 -0.1009  0.6800 -1.4326
  172SAPE   C3619449   2.352   6.126   3.572 -0.1511 -0.0518  0.3178
  172SAPE   H6X19450   2.265   6.167   3.518 -0.2215 -0.9843 -0.3029
  172SAPE   H6Y19451   2.429   6.203   3.593 -0.2224 -0.1002  0.7746
  172SAPE   C3719452   2.307   6.053   3.699  0.1722 -0.3629 -0.7108
  172SAPE   H7X19453   2.230   5.980   3.665  0.2470 -0.7303 -0.1146
  172SAPE   H7Y19454   2.264   6.125   3.771  2.7929  0.0981  0.5363
  172SAPE   C3819455   2.423   5.988   3.774 -0.1887 -0.3797  0.6030
  172SAPE   H8X19456   2.498   6.068   3.790 -1.0747  0.9741 -1.5529
  172SAPE   H8Y19457   2.468   5.908   3.711 -0.2594  0.9800 -1.2669
  172SAPE   C3919458   2.390   5.918   3.907  0.2025 -0.9862 -0.2839
  172SAPE   H9X19459   2.301   5.854   3.890 -1.5790  1.1660  0.4842
  172SAPE   H9Y19460   2.352   5.999   3.973 -2.2706 -0.3854 -2.2886
  172SAPE  C31019461   2.494   5.835   3.988  0.3624  0.6039 -0.1753
  172SAPE  H10X19462   2.588   5.893   3.977  0.6091  0.6506  1.8766
  172SAPE  H10Y19463   2.483   5.730   3.952 -0.0211  0.4568  0.3690
  172SAPE  C31119464   2.453   5.841   4.136  0.5218 -0.1065  0.0678
  172SAPE  H11X19465   2.349   5.807   4.151 -0.0487  1.6755  0.3941
  172SAPE  H11Y19466   2.476   5.943   4.173 -0.2232  0.7411 -1.7261
  172SAPE  C31219467   2.532   5.744   4.227  0.3665 -0.1851 -0.2217
  172SAPE  H12X19468   2.637   5.773   4.204  0.4005 -0.3638 -0.2914
  172SAPE  H12Y19469   2.527   5.637   4.198 -1.5426 -0.1777 -0.0610
  172SAPE  C31319470   2.496   5.751   4.380  0.0009  0.5770 -0.1662
  172SAPE  H13X19471   2.409   5.688   4.408  1.2719 -0.6974  1.0490
  172SAPE  H13Y19472   2.488   5.856   4.415  0.4387  0.3870  0.5200
  172SAPE  C31419473   2.609   5.688   4.467  0.1726 -0.1005  0.3921
  172SAPE  H14X19474   2.700   5.747   4.442 -1.3854  2.6604  0.8489
  172SAPE  H14Y19475   2.623   5.586   4.428  0.7941  0.7706 -1.8082
  172SAPE  C31519476   2.588   5.711   4.619  0.6673  0.1904  0.8174
  172SAPE  H15X19477   2.557   5.817   4.633 -0.4052 -0.1122  0.7993
  172SAPE  H15Y19478   2.680   5.691   4.678 -0.0317  0.8018  2.1707
  172SAPE  C31619479   2.493   5.608   4.680  0.1039 -0.0608 -0.0199
  172SAPE  H16X19480   2.540   5.507   4.680 -3.9837 -2.1700  0.2707
  172SAPE  H16Y19481   2.400   5.614   4.620  1.2848 -0.0771 -1.9377
  172SAPE  C31719482   2.470   5.649   4.831  0.1108  0.1949  0.5649
  172SAPE  H17X19483   2.431   5.753   4.834 -0.0994  0.1095  0.9298
  172SAPE  H17Y19484   2.571   5.671   4.870  0.8372  0.2223 -1.2321
  172SAPE  C31819485   2.394   5.550   4.915 -0.0578 -0.4345 -0.5416
  172SAPE  H18X19486   2.284   5.554   4.898 -0.1567 -0.0290  0.1627
  172SAPE  H18Y19487   2.414   5.570   5.022 -2.9617 -0.4823  0.0755
  172SAPE  H18Z19488   2.439   5.454   4.883  0.8654  0.3190 -1.6252
  173SLPC     N19489   6.587   2.179   6.875  0.1444 -1.2518  0.4536
  173SLPC   C1319490   6.649   2.298   6.951 -0.1244 -0.4400  0.3032
  173SLPC  H13A19491   6.623   2.397   6.916 -0.5737 -0.0065  1.7617
  173SLPC  H13B19492   6.622   2.296   7.056  0.6422  0.7333  0.5491
  173SLPC  H13C19493   6.755   2.288   6.968 -0.2834 -3.8662 -0.1102
  173SLPC   C1419494   6.441   2.208   6.868 -0.5853  0.2303  0.1234
  173SLPC  H14A19495   6.421   2.306   6.826  0.0388  0.4670  0.3507
  173SLPC  H14B19496   6.400   2.124   6.815  1.1372 -1.1159  0.8341
  173SLPC  H14C19497   6.399   2.222   6.966 -1.2645 -0.5711 -0.0489
  173SLPC   C1519498   6.606   2.062   6.954  0.0498 -0.0284 -0.9682
  173SLPC  H15A19499   6.555   1.978   6.909 -1.1619  0.4546 -0.5376
  173SLPC  H15B19500   6.713   2.048   6.957  0.2761  1.2679  2.5380
  173SLPC  H15C19501   6.575   2.075   7.057  1.3871  0.2805 -0.5896
  173SLPC   C1219502   6.653   2.169   6.735  0.1916  0.2509  0.3289
  173SLPC  H12A19503   6.613   2.251   6.678 -2.0674  0.6848  2.3602
  173SLPC  H12B19504   6.615   2.087   6.677  1.4292 -0.8444  1.0021
  173SLPC   C1119505   6.808   2.154   6.727  0.0206  0.0870 -0.5122
  173SLPC  H11A19506   6.860   2.226   6.794  1.6120 -0.8482 -0.7037
  173SLPC  H11B19507   6.836   2.177   6.622 -0.1141 -0.5447 -0.6919
  173SLPC     P19508   6.847   1.908   6.656  0.4588  0.1473  0.4764
  173SLPC   O1319509   6.902   1.791   6.729 -0.2315  0.3332  0.2976
  173SLPC   O1419510   6.707   1.892   6.606 -0.1164 -0.1689  0.1681
  173SLPC   O1219511   6.851   2.023   6.767  0.6487 -0.1632 -0.2111
  173SLPC   O1119512   6.951   1.957   6.541 -0.2704  0.3676 -0.0813
  173SLPC    C119513   7.087   1.974   6.578 -0.1428 -0.2184  0.3388
  173SLPC    HA19514   7.116   2.076   6.546  0.0273 -1.0755 -2.5007
  173SLPC    HB19515   7.109   1.972   6.687 -2.8549 -1.0685  0.9424
  173SLPC    C219516   7.187   1.890   6.490  0.1550  0.7794  0.9850
  173SLPC    HS19517   7.292   1.890   6.527  0.7870 -2.1161 -0.5424
  173SLPC   O2119518   7.184   1.934   6.350  0.3001 -0.3349  0.0590
  173SLPC   C2119519   7.246   2.043   6.318  0.1928  0.0340  0.0720
  173SLPC   O2219520   7.327   2.110   6.384  0.6575 -0.0759 -0.1132
  173SLPC   C2219521   7.215   2.081   6.174  0.0264  0.3406  0.5568
  173SLPC   H2R19522   7.105   2.092   6.164  0.0003 -0.0920  0.3738
  173SLPC   H2S19523   7.253   2.185   6.160 -2.2306  1.4483  2.0372
  173SLPC    C319524   7.144   1.745   6.500 -0.7894 -0.0602 -0.1674
  173SLPC    HX19525   7.045   1.738   6.450 -0.4606  0.2215 -0.8716
  173SLPC    HY19526   7.121   1.706   6.602 -2.4739 -1.0187 -0.8723
  173SLPC   O3119527   7.258   1.666   6.451  0.0588  0.0126 -0.1563
  173SLPC   C3119528   7.205   1.551   6.396  0.1128  0.2417 -0.8590
  173SLPC   O3219529   7.094   1.508   6.404  0.0619  0.1402  0.3716
  173SLPC   C3219530   7.305   1.478   6.307  0.2458  0.7196 -0.8966
  173SLPC   H2X19531   7.329   1.392   6.373 -0.4155  1.9401  0.9821
  173SLPC   H2Y19532   7.395   1.543   6.297  3.0606 -2.8006 -0.3613
  173SLPC   C2319533   7.268   1.990   6.060 -0.1026  0.6242  0.7938
  173SLPC   H3R19534   7.231   1.887   6.079  0.5851  0.3146  0.4618
  173SLPC   H3S19535   7.378   1.980   6.050 -0.2287 -1.6665  1.3163
  173SLPC   C2419536   7.214   2.040   5.926  0.0406  0.0040  0.1730
  173SLPC   H4R19537   7.112   2.078   5.950 -1.8363 -2.1500 -3.3910
  173SLPC   H4S19538   7.207   1.948   5.864 -1.8858 -0.3473  0.8372
  173SLPC   C2519539   7.301   2.140   5.854  0.1638 -0.4714  0.1580
  173SLPC   H5R19540   7.401   2.101   5.824  0.8414 -0.9183  2.7642
  173SLPC   H5S19541   7.320   2.225   5.923 -0.5277 -1.0763  1.1129
  173SLPC   C2619542   7.229   2.210   5.731  0.0590  0.1212  0.4954
  173SLPC   H6R19543   7.290   2.299   5.702  0.8322 -0.1689  1.1800
  173SLPC   H6S19544   7.130   2.254   5.756 -1.5976 -2.4045 -1.2163
  173SLPC   C2719545   7.213   2.136   5.598 -0.0970 -0.0003  0.3817
  173SLPC   H7R19546   7.112   2.091   5.592 -0.4311  0.8574 -0.5985
  173SLPC   H7S19547   7.292   2.059   5.581  1.1611  1.3603 -0.1770
  173SLPC   C2819548   7.220   2.226   5.480  0.0572  0.1753 -0.1115
  173SLPC   H8R19549   7.320   2.276   5.484  0.6319 -0.5502 -2.8520
  173SLPC   H8S19550   7.146   2.305   5.503 -0.2746  0.1448 -1.0173
  173SLPC   C2919551   7.208   2.154   5.350  0.2244  0.0274 -0.0165
  173SLPC   H9R19552   7.272   2.066   5.336  2.0774  0.9490  1.9981
  173SLPC  C21019553   7.130   2.186   5.247  0.4337  0.4057  0.0297
  173SLPC  H10R19554   7.137   2.130   5.152 -1.3430  0.2700 -0.0531
  173SLPC  C21119555   7.027   2.296   5.242  0.2200 -0.4758  0.1948
  173SLPC  H11R19556   6.979   2.312   5.341  0.2477  2.7099 -0.2121
  173SLPC  H11S19557   6.951   2.270   5.166 -0.1440  2.1658 -0.4232
  173SLPC  C21219558   7.097   2.434   5.220 -0.0819  0.5225  0.0829
  173SLPC  H12R19559   7.149   2.478   5.307  1.5180  1.1250 -1.1475
  173SLPC  C21319560   7.084   2.509   5.109  0.4615 -0.7440 -0.1317
  173SLPC  H13R19561   7.130   2.608   5.101 -1.4258  0.7843  4.5802
  173SLPC  C21419562   7.018   2.464   4.982  0.3158 -0.1634 -0.2393
  173SLPC  H14R19563   6.989   2.547   4.914 -0.0546 -0.7705 -0.8446
  173SLPC  H14S19564   6.924   2.409   5.006 -0.2354  0.8395 -0.0302
  173SLPC  C21519565   7.103   2.383   4.885 -0.2159 -0.3187 -0.0003
  173SLPC  H15R19566   7.159   2.303   4.938 -0.7676 -0.6879  0.0323
  173SLPC  H15S19567   7.180   2.448   4.837  1.7629 -1.4062  1.5184
  173SLPC  C21619568   7.036   2.311   4.766 -0.7461  0.0022 -0.9714
  173SLPC  H16R19569   7.112   2.261   4.702  1.0541  1.6212 -0.2158
  173SLPC  H16S19570   6.981   2.389   4.710  0.2461  1.8101  0.4763
  173SLPC  C21719571   6.957   2.197   4.829 -0.5520 -0.2975  0.4763
  173SLPC  H17R19572   6.855   2.237   4.848 -1.4069 -1.0103 -2.2241
  173SLPC  H17S19573   7.003   2.175   4.928 -0.8669 -0.8834  0.4952
  173SLPC  C21819574   6.943   2.066   4.750  0.4902  0.1567  0.4020
  173SLPC  H18R19575   7.035   2.005   4.742  1.2156  1.3899 -1.7508
  173SLPC  H18S19576   6.925   2.093   4.643  1.3723 -0.3958  0.1063
  173SLPC  H18T19577   6.861   1.999   4.784 -1.0153 -0.1290 -3.2593
  173SLPC   C3319578   7.253   1.439   6.169  0.3406  0.3236  0.7634
  173SLPC   H3X19579   7.143   1.420   6.174  0.0289  1.8062  0.0302
  173SLPC   H3Y19580   7.296   1.343   6.134 -4.4829 -1.9781  0.2711
  173SLPC   C3419581   7.276   1.554   6.072  0.2362  0.4103  0.8698
  173SLPC   H4X19582   7.385   1.547   6.051  0.1947  0.7691  0.5116
  173SLPC   H4Y19583   7.253   1.651   6.120 -0.2838  1.0276 -0.5518
  173SLPC   C3519584   7.214   1.542   5.933 -0.3071 -0.4498 -0.3089
  173SLPC   H5X19585   7.106   1.531   5.955  0.1210 -2.2285  1.2330
  173SLPC   H5Y19586   7.253   1.449   5.886  1.1647  0.3183 -0.6542
  173SLPC   C3619587   7.242   1.667   5.848 -0.1095 -0.1549 -0.2139
  173SLPC   H6X19588   7.351   1.683   5.832  0.0238 -2.2535 -1.9489
  173SLPC   H6Y19589   7.207   1.754   5.907  1.2609  0.4158 -0.2034
  173SLPC   C3719590   7.162   1.664   5.716  0.2412  0.6447  0.1233
  173SLPC   H7X19591   7.054   1.659   5.742  0.2081 -2.3477 -0.1565
  173SLPC   H7Y19592   7.184   1.568   5.663  0.9452  1.3629 -0.9168
  173SLPC   C3819593   7.199   1.776   5.616  0.3777 -0.9596 -0.0951
  173SLPC   H8X19594   7.309   1.781   5.603  0.2338 -1.2781 -1.5007
  173SLPC   H8Y19595   7.164   1.872   5.660  1.8379 -1.0811  1.4227
  173SLPC   C3919596   7.145   1.758   5.474 -0.1931 -0.1519 -0.3957
  173SLPC   H9X19597   7.188   1.666   5.427 -2.9766 -1.1538 -1.1776
  173SLPC   H9Y19598   7.184   1.837   5.406 -2.1003 -0.8265 -2.4130
  173SLPC  C31019599   6.993   1.757   5.453 -0.0496 -1.3183 -0.3721
  173SLPC  H10X19600   6.953   1.852   5.494 -1.0562 -1.4999 -0.8934
  173SLPC  H10Y19601   6.943   1.664   5.487  0.1835 -1.5465 -0.6506
  173SLPC  C31119602   6.973   1.752   5.304  0.6561 -0.3986 -0.3571
  173SLPC  H11X19603   7.029   1.673   5.249  1.1634 -0.2044 -0.1278
  173SLPC  H11Y19604   7.020   1.842   5.256  0.5421 -0.0283  0.2176
  173SLPC  C31219605   6.822   1.742   5.266 -0.6109 -0.4356 -0.1495
  173SLPC  H12X19606   6.764   1.814   5.327  1.6093  0.2129  1.3428
  173SLPC  H12Y19607   6.786   1.640   5.290  0.4960 -0.5831  0.9741
  173SLPC  C31319608   6.799   1.783   5.121 -0.1192  0.1850  0.1779
  173SLPC  H13X19609   6.873   1.725   5.061  1.4714  1.1686  1.1070
  173SLPC  H13Y19610   6.816   1.892   5.103  1.0895 -0.2101 -1.3429
  173SLPC  C31419611   6.654   1.763   5.081 -0.3317  0.6723 -0.3610
  173SLPC  H14X19612   6.596   1.828   5.150  0.1150 -1.0851  1.8082
  173SLPC  H14Y19613   6.627   1.657   5.102 -1.1700  1.0254  0.4191
  173SLPC  C31519614   6.629   1.790   4.931  0.2154  0.2763 -0.2356
  173SLPC  H15X19615   6.721   1.758   4.878  0.2697 -0.7970  0.4516
  173SLPC  H15Y19616   6.627   1.899   4.911 -2.1359 -0.0995 -2.7248
  173SLPC  C31619617   6.510   1.710   4.877 -0.0420  0.2190 -0.2512
  173SLPC  H16X19618   6.534   1.603   4.860 -0.5790 -0.3838  2.3559
  173SLPC  H16Y19619   6.484   1.738   4.773  0.9039  0.1696 -0.5136
  173SLPC  C31719620   6.375   1.719   4.957  0.2090  0.4737  0.3204
  173SLPC  H17X19621   6.344   1.824   4.971  2.1700  1.1237  0.1264
  173SLPC  H17Y19622   6.388   1.669   5.056 -1.1206  1.4932  1.0443
  173SLPC  C31819623   6.269   1.638   4.891  0.2704  0.2045 -0.4625
  173SLPC  H18X19624   6.231   1.687   4.799  1.9012  2.0913 -0.1767
  173SLPC  H18Y19625   6.178   1.632   4.955  1.1257 -0.3148  0.7376
  173SLPC  H18Z19626   6.303   1.535   4.864 -0.0442  0.4787 -1.9841
  174SLPC     N19627   4.138   3.832   6.997  0.4910  0.0855 -0.4423
  174SLPC   C1319628   4.234   3.863   7.108  0.6981  1.0332  0.2613
  174SLPC  H13A19629   4.237   3.795   7.192 -1.1642 -0.2818 -0.6798
  174SLPC  H13B19630   4.335   3.853   7.071  0.6501 -2.6056  0.7557
  174SLPC  H13C19631   4.213   3.962   7.146 -0.1981  0.6564  0.7726
  174SLPC   C1419632   4.125   3.942   6.902  0.3259 -0.6073  0.7373
  174SLPC  H14A19633   4.214   3.978   6.853 -0.7879  2.3030  0.6433
  174SLPC  H14B19634   4.061   3.911   6.821  2.9707  0.5906 -2.0194
  174SLPC  H14C19635   4.100   4.035   6.953  0.5360  0.3283 -0.8137
  174SLPC   C1519636   4.004   3.808   7.054 -0.5265 -0.4572  0.2050
  174SLPC  H15A19637   3.936   3.758   6.987  0.0536 -0.3558 -0.4733
  174SLPC  H15B19638   4.016   3.748   7.143 -0.0384 -0.3269  0.2270
  174SLPC  H15C19639   3.960   3.899   7.091  0.2943  0.0283  0.0021
  174SLPC   C1219640   4.185   3.700   6.929  0.5826  0.0727 -0.3174
  174SLPC  H12A19641   4.125   3.681   6.841 -1.3425 -0.1673  1.0001
  174SLPC  H12B19642   4.173   3.608   6.984  2.8920 -1.3801 -2.0147
  174SLPC   C1119643   4.330   3.694   6.883 -0.1728 -0.4741 -0.4124
  174SLPC  H11A19644   4.362   3.794   6.846 -1.7779  1.1098  2.1705
  174SLPC  H11B19645   4.356   3.608   6.817 -0.7450 -1.0364  0.0761
  174SLPC     P19646   4.421   3.543   7.080 -0.5130 -0.1552 -0.0146
  174SLPC   O1319647   4.492   3.576   7.203  0.0695  0.3022  0.2824
  174SLPC   O1419648   4.287   3.491   7.100  0.4872  0.3617  0.4073
  174SLPC   O1219649   4.416   3.674   6.996  0.3472  0.6082 -0.2650
  174SLPC   O1119650   4.503   3.439   7.001  0.4332  0.3995  0.1176
  174SLPC    C119651   4.599   3.468   6.899  0.3986  0.6482  0.2810
  174SLPC    HA19652   4.607   3.375   6.837 -3.3875  0.5082 -0.2686
  174SLPC    HB19653   4.571   3.549   6.828  0.7600  0.5155 -0.0157
  174SLPC    C219654   4.735   3.516   6.959  0.1693 -0.9792  0.1963
  174SLPC    HS19655   4.706   3.607   7.017 -2.1115 -1.2989 -0.3441
  174SLPC   O2119656   4.831   3.535   6.851  0.2014  0.3334  0.2013
  174SLPC   C2119657   4.938   3.608   6.879  0.6718 -0.3060  0.5098
  174SLPC   O2219658   4.964   3.666   6.985  0.6600  0.0401 -0.1517
  174SLPC   C2219659   5.030   3.629   6.756 -0.3935  0.2526 -0.6064
  174SLPC   H2R19660   5.032   3.738   6.733  0.6583 -0.0321 -1.9419
  174SLPC   H2S19661   5.129   3.588   6.786 -0.4898 -1.6753 -2.7410
  174SLPC    C319662   4.804   3.412   7.051 -0.6397 -0.7637 -0.4373
  174SLPC    HX19663   4.737   3.406   7.139  0.5779 -0.6570  0.5160
  174SLPC    HY19664   4.902   3.450   7.087 -1.3635  1.1353 -0.3258
  174SLPC   O3119665   4.806   3.279   6.987 -0.7355 -0.3900 -0.4726
  174SLPC   C3119666   4.920   3.241   6.936 -0.2194 -0.2844  0.6519
  174SLPC   O3219667   5.022   3.307   6.928  0.1052 -0.3056  0.4420
  174SLPC   C3219668   4.909   3.094   6.892 -0.6129 -0.6791  0.7060
  174SLPC   H2X19669   4.876   3.036   6.980  0.2372 -3.1907 -0.5450
  174SLPC   H2Y19670   5.015   3.065   6.874 -0.5775  0.1218 -0.4887
  174SLPC   C2319671   5.004   3.554   6.620 -0.0454 -0.1115 -0.3839
  174SLPC   H3R19672   4.962   3.454   6.644 -0.8634  0.1442 -0.6998
  174SLPC   H3S19673   5.101   3.540   6.569  0.8851 -1.4365  1.6067
  174SLPC   C2419674   4.920   3.635   6.525 -0.1980  0.1084  0.5559
  174SLPC   H4R19675   4.957   3.738   6.509 -3.8844  1.4375 -0.2914
  174SLPC   H4S19676   4.818   3.647   6.567 -0.4173  2.7834 -0.5914
  174SLPC   C2519677   4.906   3.558   6.395 -0.3785  0.1779 -0.1561
  174SLPC   H5R19678   4.848   3.464   6.410  0.8257 -0.4179  0.9208
  174SLPC   H5S19679   5.008   3.530   6.360 -0.2887 -0.1891  0.3866
  174SLPC   C2619680   4.832   3.645   6.290  0.4257  0.0112  0.6002
  174SLPC   H6R19681   4.908   3.723   6.266 -1.0891  1.5872  0.7455
  174SLPC   H6S19682   4.752   3.698   6.345 -0.3071 -1.9086  1.4571
  174SLPC   C2719683   4.774   3.581   6.164  0.9118  0.3249  0.4538
  174SLPC   H7R19684   4.686   3.526   6.203  0.5004 -0.3681 -1.3481
  174SLPC   H7S19685   4.853   3.524   6.112  0.3412 -0.1877  0.1345
  174SLPC   C2819686   4.708   3.686   6.073 -0.5298  0.0087  0.6445
  174SLPC   H8R19687   4.622   3.717   6.136 -1.8517 -1.6426 -0.2697
  174SLPC   H8S19688   4.673   3.629   5.984  0.9479  0.5255 -0.3147
  174SLPC   C2919689   4.797   3.802   6.034  0.0378  0.1321  0.3810
  174SLPC   H9R19690   4.794   3.885   6.105  0.9123  0.8364 -0.3775
  174SLPC  C21019691   4.862   3.827   5.910 -0.3582  0.4197  0.3969
  174SLPC  H10R19692   4.928   3.915   5.906  1.4527 -0.7994  2.0094
  174SLPC  C21119693   4.874   3.735   5.790 -0.0557 -0.3651 -0.9893
  174SLPC  H11R19694   4.868   3.794   5.696  1.2461 -1.7872 -2.0068
  174SLPC  H11S19695   4.787   3.666   5.784  0.3602 -1.1207  0.8279
  174SLPC  C21219696   4.996   3.644   5.801 -0.0305 -0.3689 -0.0015
  174SLPC  H12R19697   5.005   3.580   5.890  4.0349  0.0229  0.0671
  174SLPC  C21319698   5.105   3.645   5.725 -0.3285  0.5506  0.4162
  174SLPC  H13R19699   5.191   3.580   5.747 -0.8739  0.3475  2.0439
  174SLPC  C21419700   5.129   3.739   5.611 -0.0755 -0.3302 -0.2477
  174SLPC  H14R19701   5.234   3.773   5.595 -0.2734 -0.1964 -1.3528
  174SLPC  H14S19702   5.067   3.830   5.621  1.3055  0.4342  2.3933
  174SLPC  C21519703   5.067   3.670   5.489 -0.3619 -0.7766  0.9334
  174SLPC  H15R19704   5.074   3.746   5.409  0.6615  0.3383  2.0297
  174SLPC  H15S19705   4.958   3.654   5.498 -0.7821  1.4772  0.4538
  174SLPC  C21619706   5.145   3.548   5.431 -0.0752 -1.1764 -0.4404
  174SLPC  H16R19707   5.140   3.465   5.505 -1.6568 -0.1827  0.6279
  174SLPC  H16S19708   5.251   3.578   5.425  0.0755 -1.1400  1.6295
  174SLPC  C21719709   5.101   3.515   5.291  0.5614 -0.1447 -0.0631
  174SLPC  H17R19710   5.107   3.604   5.225  0.6180  0.6085  0.9350
  174SLPC  H17S19711   4.997   3.477   5.294  0.2246  0.6530 -1.1741
  174SLPC  C21819712   5.174   3.398   5.223  0.3224  0.0879  0.4585
  174SLPC  H18R19713   5.185   3.324   5.304  0.3072  1.8379  2.1318
  174SLPC  H18S19714   5.272   3.418   5.174 -0.4880  0.8459 -0.9421
  174SLPC  H18T19715   5.107   3.351   5.147  1.1906  0.0035 -0.2710
  174SLPC   C3319716   4.833   3.082   6.765 -0.1176 -0.5985  0.3338
  174SLPC   H3X19717   4.735   3.136   6.765  0.1825  0.0493  2.5547
  174SLPC   H3Y19718   4.802   2.977   6.747 -0.7936 -0.7055  2.0027
  174SLPC   C3419719   4.910   3.108   6.637 -0.6071  0.4428  0.6707
  174SLPC   H4X19720   4.990   3.033   6.623 -1.2207  0.0234 -0.8405
  174SLPC   H4Y19721   4.958   3.208   6.632  0.2409  0.0263  0.3527
  174SLPC   C3519722   4.819   3.112   6.514  0.3701  0.0007 -0.2793
  174SLPC   H5X19723   4.738   3.188   6.522 -0.9207 -1.2847 -0.7504
  174SLPC   H5Y19724   4.771   3.013   6.502  0.1409 -0.1288  1.4065
  174SLPC   C3619725   4.900   3.147   6.389 -0.1281  0.2642  0.1001
  174SLPC   H6X19726   4.969   3.061   6.373 -0.0201  0.2726  0.5076
  174SLPC   H6Y19727   4.970   3.230   6.410 -2.9042  2.1627  2.5709
  174SLPC   C3719728   4.815   3.179   6.270  0.3176  0.0337 -0.6874
  174SLPC   H7X19729   4.756   3.272   6.286 -0.5641 -0.7399  0.7195
  174SLPC   H7Y19730   4.738   3.102   6.250  0.1195 -0.7002  2.4247
  174SLPC   C3819731   4.899   3.215   6.149  0.2708 -0.1326  0.1512
  174SLPC   H8X19732   4.978   3.143   6.119 -0.2841 -0.6446 -0.0977
  174SLPC   H8Y19733   4.962   3.305   6.163 -0.4556  0.1815  1.6215
  174SLPC   C3919734   4.818   3.237   6.027  0.2289 -0.5161  0.6854
  174SLPC   H9X19735   4.764   3.333   6.042  0.8843 -0.2521  1.4124
  174SLPC   H9Y19736   4.748   3.151   6.025 -1.3302  0.7203 -1.0906
  174SLPC  C31019737   4.893   3.266   5.893 -0.0462 -0.3769 -0.6819
  174SLPC  H10X19738   4.964   3.181   5.884  0.0989 -0.5808  1.8023
  174SLPC  H10Y19739   4.960   3.354   5.890  1.5881 -1.4348  1.9224
  174SLPC  C31119740   4.809   3.263   5.766  0.2150 -0.5821  0.7441
  174SLPC  H11X19741   4.735   3.346   5.771 -0.4247 -1.0486 -0.4993
  174SLPC  H11Y19742   4.754   3.167   5.754  0.0168 -0.2924 -0.9454
  174SLPC  C31219743   4.903   3.287   5.639  0.4589  0.4116 -0.2673
  174SLPC  H12X19744   4.994   3.224   5.645 -1.5587 -2.6657  0.1291
  174SLPC  H12Y19745   4.934   3.394   5.636  1.5312  0.2354  2.1297
  174SLPC  C31319746   4.846   3.269   5.498  0.4723 -0.0609  0.6335
  174SLPC  H13X19747   4.794   3.171   5.493 -0.0870  0.2780 -1.0226
  174SLPC  H13Y19748   4.934   3.253   5.433 -1.4379  0.5999 -2.3428
  174SLPC  C31419749   4.746   3.372   5.430 -0.4087 -0.6772 -0.2057
  174SLPC  H14X19750   4.794   3.472   5.430  0.2286 -0.8917 -3.0957
  174SLPC  H14Y19751   4.659   3.392   5.495  0.7415  0.4094  1.0548
  174SLPC  C31519752   4.708   3.340   5.284  0.2184  0.0066  0.2138
  174SLPC  H15X19753   4.643   3.251   5.282  0.1767  0.0463 -1.5538
  174SLPC  H15Y19754   4.801   3.315   5.228 -1.2110  1.8563 -3.2864
  174SLPC  C31619755   4.644   3.459   5.222  0.4678 -0.3544  0.6915
  174SLPC  H16X19756   4.687   3.559   5.246  0.8051 -0.5229  0.7791
  174SLPC  H16Y19757   4.542   3.481   5.261 -0.6025  1.2557 -2.5925
  174SLPC  C31719758   4.623   3.448   5.066 -0.3695 -0.4366 -0.1240
  174SLPC  H17X19759   4.720   3.426   5.017 -0.1983  1.6774 -0.8186
  174SLPC  H17Y19760   4.586   3.545   5.026  0.4514 -0.3919 -0.8050
  174SLPC  C31819761   4.529   3.330   5.038 -0.0119 -0.0449  0.3046
  174SLPC  H18X19762   4.433   3.340   5.093 -1.0057 -2.8165 -0.7463
  174SLPC  H18Y19763   4.578   3.234   5.061 -0.5998 -0.0813  1.4873
  174SLPC  H18Z19764   4.509   3.342   4.929 -0.3689  1.1934  0.4919
  175SLPC     N19765   5.919   6.816   7.157  0.0039 -0.0092 -0.3773
  175SLPC   C1319766   5.870   6.674   7.146  0.4601  0.1210 -0.5068
  175SLPC  H13A19767   5.916   6.623   7.062  0.4298 -0.8301  0.0435
  175SLPC  H13B19768   5.899   6.620   7.235  1.7321  0.6662 -0.5656
  175SLPC  H13C19769   5.763   6.671   7.132  0.4524  1.2982 -0.7485
  175SLPC   C1419770   6.064   6.814   7.191 -0.3250  0.5186  0.9476
  175SLPC  H14A19771   6.108   6.774   7.101 -2.4572  0.4510 -0.1274
  175SLPC  H14B19772   6.103   6.915   7.200  3.6930 -0.4962 -2.4465
  175SLPC  H14C19773   6.072   6.765   7.287 -1.1036  0.0195  0.7653
  175SLPC   C1519774   5.850   6.880   7.271 -0.1157  0.2436 -0.4392
  175SLPC  H15A19775   5.861   6.823   7.362  0.4750  1.0554  0.0106
  175SLPC  H15B19776   5.885   6.981   7.289  0.7096  0.1454 -1.3632
  175SLPC  H15C19777   5.743   6.880   7.257 -0.1129 -0.9770 -0.5740
  175SLPC   C1219778   5.897   6.900   7.029  0.7529  0.1417  0.2168
  175SLPC  H12A19779   5.907   7.001   7.065 -1.8810 -0.1755  2.1199
  175SLPC  H12B19780   5.792   6.898   7.006  0.7062  1.4870  0.2130
  175SLPC   C1119781   5.974   6.864   6.900  0.5085 -0.2296  0.1810
  175SLPC  H11A19782   5.942   6.933   6.819  0.8537 -0.0807  0.1694
  175SLPC  H11B19783   5.943   6.761   6.875 -0.0288  0.1380 -0.7504
  175SLPC     P19784   6.222   6.858   6.813 -0.4684  0.0891 -0.4482
  175SLPC   O1319785   6.318   6.962   6.828 -0.6895  0.8007  0.1885
  175SLPC   O1419786   6.277   6.720   6.828  0.0835 -0.3093 -0.4494
  175SLPC   O1219787   6.112   6.881   6.923 -0.0569  0.8899  0.0899
  175SLPC   O1119788   6.152   6.879   6.677 -0.0382 -0.1624  0.2309
  175SLPC    C119789   6.098   6.769   6.607 -0.5276 -0.7777  0.3058
  175SLPC    HA19790   6.070   6.682   6.671  1.2974 -0.0520  2.2013
  175SLPC    HB19791   6.006   6.812   6.562 -0.3207 -1.0010 -0.3463
  175SLPC    C219792   6.177   6.713   6.483 -0.0185  0.0089  1.1651
  175SLPC    HS19793   6.281   6.695   6.518 -0.2895 -1.1417  1.4490
  175SLPC   O2119794   6.153   6.816   6.382 -0.4914  0.5803  0.1035
  175SLPC   C2119795   6.263   6.829   6.314  0.4360 -0.0460  0.0971
  175SLPC   O2219796   6.369   6.772   6.320  0.0243  0.2020 -0.7032
  175SLPC   C2219797   6.237   6.944   6.211  0.7383 -0.4702  0.0650
  175SLPC   H2R19798   6.129   6.944   6.183  1.4484 -0.1964 -2.9917
  175SLPC   H2S19799   6.251   7.038   6.268 -0.2903 -0.2218 -0.0614
  175SLPC    C319800   6.102   6.581   6.436  0.2941  0.7512 -0.5734
  175SLPC    HX19801   5.995   6.609   6.428  0.5064  1.0206 -4.1069
  175SLPC    HY19802   6.111   6.510   6.520 -2.4509  2.1397  1.0224
  175SLPC   O3119803   6.153   6.540   6.311 -0.0071  0.6481  0.6833
  175SLPC   C3119804   6.120   6.414   6.275  0.0665 -0.6104 -0.7643
  175SLPC   O3219805   6.043   6.342   6.337  0.5725 -0.6373 -0.1069
  175SLPC   C3219806   6.205   6.388   6.141 -0.1472 -0.6492 -0.4930
  175SLPC   H2X19807   6.219   6.278   6.143 -1.0631 -0.7608  0.9016
  175SLPC   H2Y19808   6.307   6.430   6.147  0.6117 -2.3732 -0.7118
  175SLPC   C2319809   6.330   6.932   6.090  0.3341 -0.5140 -0.2642
  175SLPC   H3R19810   6.439   6.932   6.112  0.8578 -2.2922 -2.4213
  175SLPC   H3S19811   6.321   7.032   6.043  1.2790  0.0739  0.7581
  175SLPC   C2419812   6.294   6.831   5.990 -0.4727  0.1460 -0.3301
  175SLPC   H4R19813   6.284   6.735   6.046  0.5239  0.6845  0.8270
  175SLPC   H4S19814   6.384   6.812   5.928 -0.1494 -0.5975  0.3404
  175SLPC   C2519815   6.171   6.853   5.911  0.1968 -0.3768 -1.0983
  175SLPC   H5R19816   6.083   6.880   5.973  0.1358  3.3212 -2.5216
  175SLPC   H5S19817   6.153   6.751   5.872  0.5599 -1.2130  0.7925
  175SLPC   C2619818   6.169   6.953   5.794 -0.1408 -0.2896 -0.1238
  175SLPC   H6R19819   6.205   7.050   5.833 -0.3792 -0.0183 -0.5651
  175SLPC   H6S19820   6.063   6.974   5.766 -0.4729 -0.5282  0.9247
  175SLPC   C2719821   6.250   6.911   5.670 -0.0884 -0.2092  0.7734
  175SLPC   H7R19822   6.358   6.916   5.696  0.4432  1.0187 -1.4514
  175SLPC   H7S19823   6.228   6.984   5.589 -2.7756 -1.2982  0.3790
  175SLPC   C2819824   6.230   6.770   5.618 -0.3849  0.5389 -0.6005
  175SLPC   H8R19825   6.252   6.698   5.699  1.9166 -0.9751 -2.4392
  175SLPC   H8S19826   6.305   6.762   5.537 -1.0517 -2.2355 -1.0391
  175SLPC   C2919827   6.084   6.751   5.571 -0.2423  0.3775 -0.1791
  175SLPC   H9R19828   6.009   6.740   5.651 -2.4764  2.8374 -1.7765
  175SLPC  C21019829   6.032   6.780   5.446 -0.1236 -0.4222  0.1722
  175SLPC  H10R19830   5.923   6.779   5.429 -0.1223 -1.3285  0.1724
  175SLPC  C21119831   6.111   6.818   5.327 -0.9605  0.3455 -0.5535
  175SLPC  H11R19832   6.057   6.769   5.242 -2.9851  1.0221  0.2881
  175SLPC  H11S19833   6.212   6.773   5.333 -0.9509  0.5485  1.5906
  175SLPC  C21219834   6.122   6.964   5.302 -0.5442 -0.0616 -0.5384
  175SLPC  H12R19835   6.108   7.029   5.390  3.1126 -1.3766  1.2126
  175SLPC  C21319836   6.135   7.025   5.186 -0.2001  0.3992  0.6269
  175SLPC  H13R19837   6.133   7.133   5.171 -1.1941  0.5533  1.6613
  175SLPC  C21419838   6.156   6.958   5.050 -0.4995 -0.1736  0.3723
  175SLPC  H14R19839   6.071   6.989   4.985 -0.7610  0.3155  0.9398
  175SLPC  H14S19840   6.158   6.848   5.068 -1.9513 -0.1425  0.8932
  175SLPC  C21519841   6.291   6.993   4.987 -0.1289 -0.1844 -0.3288
  175SLPC  H15R19842   6.301   6.928   4.897  2.2748 -0.9082  0.3741
  175SLPC  H15S19843   6.367   6.968   5.064 -1.0685  2.1633  1.4844
  175SLPC  C21619844   6.303   7.141   4.949  0.2637 -0.6810 -0.0457
  175SLPC  H16R19845   6.323   7.200   5.041  1.0595  0.0134 -0.6431
  175SLPC  H16S19846   6.216   7.181   4.893 -0.2387  0.9031  1.7560
  175SLPC  C21719847   6.418   7.166   4.845 -0.2237 -0.5708  0.2192
  175SLPC  H17R19848   6.425   7.276   4.827  1.4229 -0.7663 -0.4405
  175SLPC  H17S19849   6.405   7.117   4.747  1.0080  1.3150 -0.9458
  175SLPC  C21819850   6.557   7.131   4.905  0.4824  0.3292  0.0301
  175SLPC  H18R19851   6.569   7.198   4.993 -0.3123 -2.4066  2.3750
  175SLPC  H18S19852   6.632   7.145   4.824 -0.4978 -3.0757 -1.6738
  175SLPC  H18T19853   6.567   7.029   4.948  0.3705  0.9346  1.5711
  175SLPC   C3319854   6.125   6.425   6.014 -0.4002 -0.5380 -0.4420
  175SLPC   H3X19855   6.079   6.525   6.032 -0.9911 -0.6696 -1.2314
  175SLPC   H3Y19856   6.035   6.361   6.005 -0.9382  0.2311 -0.5991
  175SLPC   C3419857   6.211   6.419   5.889 -0.0928  0.0330 -0.1507
  175SLPC   H4X19858   6.276   6.329   5.891 -0.3184 -0.1506 -0.9610
  175SLPC   H4Y19859   6.270   6.512   5.897  0.1669 -0.2162  1.1762
  175SLPC   C3519860   6.116   6.408   5.764  0.5527  0.2739  0.8340
  175SLPC   H5X19861   6.056   6.501   5.768 -2.6995 -1.4359 -2.3705
  175SLPC   H5Y19862   6.053   6.321   5.792  1.1434  0.2314  2.0694
  175SLPC   C3619863   6.180   6.393   5.625  0.6783 -0.3822  0.4387
  175SLPC   H6X19864   6.253   6.309   5.625 -0.0739 -1.0861 -1.1292
  175SLPC   H6Y19865   6.240   6.482   5.601  1.1964 -0.4581  1.4079
  175SLPC   C3719866   6.067   6.362   5.525 -0.6681  0.7224 -0.0905
  175SLPC   H7X19867   5.993   6.438   5.494  0.7111  1.3600 -2.0067
  175SLPC   H7Y19868   6.017   6.271   5.565  1.5991 -0.1253  0.9887
  175SLPC   C3819869   6.133   6.315   5.395  0.5468 -0.8696  0.8199
  175SLPC   H8X19870   6.047   6.272   5.339  0.1928 -2.1903  2.2833
  175SLPC   H8Y19871   6.195   6.226   5.422  0.0685 -0.6807  2.7077
  175SLPC   C3919872   6.205   6.417   5.314 -0.1746  0.4486  0.1432
  175SLPC   H9X19873   6.289   6.451   5.378  1.1919 -0.4781 -1.0822
  175SLPC   H9Y19874   6.147   6.507   5.285  0.0221  0.0656 -1.5923
  175SLPC  C31019875   6.273   6.347   5.187 -0.0642 -0.6695 -0.6562
  175SLPC  H10X19876   6.191   6.322   5.116 -0.8466 -0.1352  0.0363
  175SLPC  H10Y19877   6.322   6.251   5.213  0.0507 -1.6179 -3.9857
  175SLPC  C31119878   6.365   6.444   5.107 -0.4813 -0.0037 -0.2733
  175SLPC  H11X19879   6.429   6.387   5.036 -0.0483 -0.4801  0.4914
  175SLPC  H11Y19880   6.435   6.473   5.189 -0.6054 -4.2057  1.5669
  175SLPC  C31219881   6.294   6.565   5.032  0.0243 -0.2620 -0.3616
  175SLPC  H12X19882   6.372   6.637   5.002  0.2042 -0.3475 -0.0956
  175SLPC  H12Y19883   6.233   6.621   5.106  1.5285  0.4916  0.3417
  175SLPC  C31319884   6.225   6.531   4.904 -0.1243 -0.6308  0.0125
  175SLPC  H13X19885   6.146   6.460   4.937 -2.1862  1.8184  0.6418
  175SLPC  H13Y19886   6.298   6.476   4.840  0.5740 -1.7206  1.6535
  175SLPC  C31419887   6.162   6.637   4.814 -0.3372 -0.5954  0.0707
  175SLPC  H14X19888   6.238   6.717   4.799 -1.0198 -0.1959 -1.4913
  175SLPC  H14Y19889   6.065   6.683   4.840 -0.0203 -0.2266  0.6038
  175SLPC  C31519890   6.129   6.571   4.680  0.1826  0.1729  0.9334
  175SLPC  H15X19891   6.063   6.484   4.700 -1.1300  1.3014  1.6115
  175SLPC  H15Y19892   6.222   6.533   4.632 -0.7251  1.2257 -1.8481
  175SLPC  C31619893   6.078   6.667   4.575 -0.0745 -0.5915  0.1648
  175SLPC  H16X19894   6.164   6.720   4.530  0.1839 -2.1095 -1.2139
  175SLPC  H16Y19895   6.026   6.749   4.629  1.6378  0.8580 -0.3130
  175SLPC  C31719896   5.995   6.621   4.461  0.9501 -0.4989 -0.1515
  175SLPC  H17X19897   6.046   6.559   4.385 -1.5206 -1.3335 -1.2568
  175SLPC  H17Y19898   5.947   6.699   4.398 -0.1044 -0.4845  0.6337
  175SLPC  C31819899   5.883   6.523   4.518 -0.2364 -0.5941 -0.1623
  175SLPC  H18X19900   5.835   6.587   4.595  1.2591  1.7278 -1.0490
  175SLPC  H18Y19901   5.942   6.441   4.564  2.2699  0.4717 -1.2754
  175SLPC  H18Z19902   5.817   6.497   4.433 -0.6406  0.2743 -0.1250
  176SLPC     N19903   1.957   5.223   7.206 -0.0710  0.5000  0.5911
  176SLPC   C1319904   2.099   5.257   7.243  1.2124  0.3039 -0.4696
  176SLPC  H13A19905   2.140   5.194   7.320  1.0804  0.8006  0.0170
  176SLPC  H13B19906   2.166   5.261   7.158  0.9329  0.4239 -0.6861
  176SLPC  H13C19907   2.106   5.358   7.281  0.5570 -0.1755  1.0192
  176SLPC   C1419908   1.871   5.209   7.323 -0.6628 -0.2795 -1.3884
  176SLPC  H14A19909   1.770   5.179   7.298 -1.1309  1.2508 -1.4276
  176SLPC  H14B19910   1.908   5.137   7.394 -1.6734 -0.9299 -1.5007
  176SLPC  H14C19911   1.851   5.301   7.375 -4.2453 -1.8802  0.3937
  176SLPC   C1519912   1.966   5.086   7.146  0.0901  0.0126 -0.2158
  176SLPC  H15A19913   2.006   5.019   7.219  1.3799  0.5772 -0.3840
  176SLPC  H15B19914   1.873   5.041   7.114 -1.0628  2.3189 -0.3432
  176SLPC  H15C19915   2.045   5.086   7.072  1.6675  1.2063  1.3936
  176SLPC   C1219916   1.915   5.319   7.100 -0.0540  0.3192  0.0240
  176SLPC  H12A19917   1.999   5.354   7.043 -0.3163 -0.2483 -0.7352
  176SLPC  H12B19918   1.880   5.409   7.149  2.3007  2.8820 -2.6808
  176SLPC   C1119919   1.801   5.267   7.009 -0.1620 -0.0781 -0.2028
  176SLPC  H11A19920   1.846   5.185   6.949 -0.8080 -0.8015  0.2795
  176SLPC  H11B19921   1.779   5.341   6.929 -0.1102  0.0265 -0.1207
  176SLPC     P19922   1.573   5.348   7.098 -0.1378  0.2203 -0.2662
  176SLPC   O1319923   1.459   5.288   7.173 -0.8616  0.4137 -0.0624
  176SLPC   O1419924   1.633   5.464   7.167  1.3105 -0.1882 -0.0705
  176SLPC   O1219925   1.680   5.236   7.080 -0.4502  0.3343 -0.6561
  176SLPC   O1119926   1.532   5.398   6.956 -0.2187  0.3249 -1.0203
  176SLPC    C119927   1.453   5.304   6.874  0.7976 -0.8651  0.3047
  176SLPC    HA19928   1.402   5.220   6.925  0.7403 -1.6135 -0.9331
  176SLPC    HB19929   1.367   5.359   6.829  1.1035  1.4418  2.3000
  176SLPC    C219930   1.547   5.246   6.765  0.8471  0.1730 -0.2592
  176SLPC    HS19931   1.628   5.188   6.816  1.9968  2.1119  0.2539
  176SLPC   O2119932   1.608   5.355   6.685  0.6600  0.2719 -0.1859
  176SLPC   C2119933   1.719   5.327   6.624  0.3225 -0.9624 -0.5133
  176SLPC   O2219934   1.788   5.231   6.648 -0.2563  0.0698 -0.3359
  176SLPC   C2219935   1.737   5.439   6.525 -0.6972 -0.5570 -0.0768
  176SLPC   H2R19936   1.713   5.534   6.575  0.2004 -1.2677  1.7893
  176SLPC   H2S19937   1.840   5.449   6.485 -0.6920  3.1233  0.5442
  176SLPC    C319938   1.469   5.149   6.672  0.6270 -0.0220  0.1128
  176SLPC    HX19939   1.398   5.210   6.612  0.1302 -2.0205 -1.4395
  176SLPC    HY19940   1.405   5.073   6.723  0.2627 -1.0537 -1.7994
  176SLPC   O3119941   1.557   5.080   6.586 -0.0763 -0.7171  0.2465
  176SLPC   C3119942   1.496   5.007   6.492 -0.2498 -0.3685  0.4812
  176SLPC   O3219943   1.380   4.994   6.477 -0.1696 -0.1470  0.2230
  176SLPC   C3219944   1.595   4.928   6.415 -0.3405 -0.9831 -0.0152
  176SLPC   H2X19945   1.629   4.836   6.466  1.7620 -1.2774 -1.8013
  176SLPC   H2Y19946   1.678   4.998   6.393 -0.7205 -0.6504 -0.4322
  176SLPC   C2319947   1.647   5.417   6.405 -0.5973 -0.4873  0.8453
  176SLPC   H3R19948   1.634   5.514   6.352 -1.0440 -0.7146  0.5345
  176SLPC   H3S19949   1.547   5.377   6.431 -0.4134 -1.3772  0.2061
  176SLPC   C2419950   1.718   5.340   6.294 -0.4454 -0.1678  0.3373
  176SLPC   H4R19951   1.712   5.230   6.310 -0.5722 -0.1905  0.1282
  176SLPC   H4S19952   1.827   5.362   6.299 -0.4966  0.2477 -0.3571
  176SLPC   C2519953   1.663   5.369   6.156 -0.5007 -0.6513  0.8023
  176SLPC   H5R19954   1.668   5.479   6.144  1.4100 -0.7431  0.4748
  176SLPC   H5S19955   1.555   5.343   6.163 -0.6773  0.5016  4.7772
  176SLPC   C2619956   1.734   5.304   6.035  0.3129  0.0958 -0.4196
  176SLPC   H6R19957   1.725   5.195   6.052  0.0108  0.6379  3.7655
  176SLPC   H6S19958   1.840   5.339   6.035  0.0068  1.0766 -0.9841
  176SLPC   C2719959   1.650   5.353   5.908  0.0235  0.6857 -0.7381
  176SLPC   H7R19960   1.671   5.462   5.911  2.0572  0.3002  1.1562
  176SLPC   H7S19961   1.541   5.337   5.918  0.2514 -1.3552 -1.0897
  176SLPC   C2819962   1.704   5.285   5.778  0.1261 -0.2269 -0.5338
  176SLPC   H8R19963   1.638   5.307   5.692  1.0404 -0.5605 -1.3409
  176SLPC   H8S19964   1.699   5.174   5.786  0.0715 -0.3217 -1.7511
  176SLPC   C2919965   1.847   5.327   5.761 -0.7146  0.3751 -0.1133
  176SLPC   H9R19966   1.925   5.289   5.829  1.6162  1.5865 -1.9550
  176SLPC  C21019967   1.899   5.394   5.657 -0.0668 -0.4184  0.4552
  176SLPC  H10R19968   2.006   5.420   5.654 -0.2823  0.5586  0.9099
  176SLPC  C21119969   1.828   5.457   5.544 -0.9142 -0.2491  0.1016
  176SLPC  H11R19970   1.724   5.419   5.533  0.0837 -3.8998  1.7364
  176SLPC  H11S19971   1.880   5.421   5.453 -1.9997 -2.4936  0.3026
  176SLPC  C21219972   1.828   5.607   5.574  0.0692 -0.5074  0.3357
  176SLPC  H12R19973   1.835   5.641   5.679  3.9072 -0.7254  0.2804
  176SLPC  C21319974   1.845   5.703   5.479  0.2770  0.5794 -1.3026
  176SLPC  H13R19975   1.848   5.811   5.503  1.8179 -0.1538  2.4102
  176SLPC  C21419976   1.878   5.672   5.338  0.2107  0.1856 -0.0891
  176SLPC  H14R19977   1.842   5.570   5.314 -1.7298  1.4179 -2.9860
  176SLPC  H14S19978   1.989   5.679   5.336  0.1376  3.7728  1.4183
  176SLPC  C21519979   1.815   5.754   5.226  0.0569 -0.8273  0.6096
  176SLPC  H15R19980   1.807   5.860   5.258 -1.4371 -0.4168 -0.9959
  176SLPC  H15S19981   1.707   5.737   5.207 -0.5006  0.5639  2.2219
  176SLPC  C21619982   1.901   5.777   5.099 -0.6263 -0.4854 -1.0608
  176SLPC  H16R19983   2.006   5.802   5.124 -1.1511 -0.3587  1.2129
  176SLPC  H16S19984   1.863   5.875   5.063  1.5007  1.3844  1.4414
  176SLPC  C21719985   1.893   5.664   4.994 -0.0932  0.2219  0.6431
  176SLPC  H17R19986   1.786   5.642   4.976 -0.2898  0.2645  1.7336
  176SLPC  H17S19987   1.928   5.568   5.038 -0.6414  0.2221  1.0803
  176SLPC  C21819988   1.965   5.700   4.864 -0.1640  0.4115 -0.1383
  176SLPC  H18R19989   1.911   5.773   4.800 -1.0629 -0.3730 -0.2997
  176SLPC  H18S19990   1.970   5.611   4.797  0.0063 -0.4026  0.9418
  176SLPC  H18T19991   2.071   5.733   4.870 -1.1027  4.1405 -1.1487
  176SLPC   C3319992   1.541   4.885   6.278 -0.6824  0.7666  0.6808
  176SLPC   H3X19993   1.436   4.850   6.288 -0.8541  1.5142  1.6086
  176SLPC   H3Y19994   1.600   4.798   6.241 -1.5901  0.6105 -0.4855
  176SLPC   C3419995   1.551   4.987   6.159 -0.6700 -0.0988  0.1954
  176SLPC   H4X19996   1.659   5.012   6.153 -1.1485  2.2986  0.4355
  176SLPC   H4Y19997   1.492   5.078   6.182  0.8574  1.3490 -1.2772
  176SLPC   C3519998   1.481   4.937   6.031 -0.1735 -0.2758 -0.9254
  176SLPC   H5X19999   1.463   5.021   5.960  0.3065  0.9031  0.2900
  176SLPC   H5Y20000   1.380   4.898   6.056  0.4503 -0.3998  1.6745
  176SLPC   C3620001   1.561   4.829   5.957 -0.4113 -0.3382 -0.4350
  176SLPC   H6X20002   1.590   4.755   6.035  2.6879 -0.4538 -1.5604
  176SLPC   H6Y20003   1.658   4.867   5.920 -1.1268  2.2180  0.1448
  176SLPC   C3720004   1.481   4.753   5.852  0.0711  0.4912 -0.2185
  176SLPC   H7X20005   1.399   4.691   5.893 -0.7559  2.4407  1.2646
  176SLPC   H7Y20006   1.560   4.701   5.794 -1.2046 -0.7409 -0.9029
  176SLPC   C3820007   1.427   4.843   5.743 -0.4324 -0.5395  0.0691
  176SLPC   H8X20008   1.355   4.918   5.783 -0.3348 -1.5063  2.2148
  176SLPC   H8Y20009   1.361   4.769   5.694 -1.7514  1.2577 -1.0064
  176SLPC   C3920010   1.533   4.918   5.658 -0.2993  0.2831  0.1973
  176SLPC   H9X20011   1.582   4.860   5.577  1.6651  2.0874  0.0052
  176SLPC   H9Y20012   1.611   4.966   5.721 -0.3860  2.2021 -1.0735
  176SLPC  C31020013   1.484   5.046   5.584 -0.1037 -0.1469  0.6087
  176SLPC  H10X20014   1.458   5.129   5.654 -1.2786 -0.9828  1.2078
  176SLPC  H10Y20015   1.386   5.009   5.545 -0.4273  1.9549 -0.7386
  176SLPC  C31120016   1.576   5.088   5.475 -0.2019 -0.2236  0.1068
  176SLPC  H11X20017   1.596   4.997   5.413  3.6304  1.1236 -0.9426
  176SLPC  H11Y20018   1.673   5.126   5.516 -0.8129  0.6107  0.8043
  176SLPC  C31220019   1.519   5.196   5.392  0.1240  0.5752 -0.3469
  176SLPC  H12X20020   1.525   5.296   5.441  0.4775  0.3466  0.0924
  176SLPC  H12Y20021   1.415   5.168   5.367  0.5503  0.4275 -2.0634
  176SLPC  C31320022   1.587   5.221   5.253  1.0183 -0.5019  0.8412
  176SLPC  H13X20023   1.579   5.327   5.221  1.3028 -1.1583 -1.6799
  176SLPC  H13Y20024   1.539   5.153   5.179  0.9384 -1.2518  1.5724
  176SLPC  C31420025   1.736   5.192   5.241  0.3915  0.6366  0.1614
  176SLPC  H14X20026   1.756   5.083   5.252  0.4877  0.4604 -1.4799
  176SLPC  H14Y20027   1.789   5.243   5.324 -0.3151  1.8178 -0.0892
  176SLPC  C31520028   1.806   5.240   5.117  0.2967  0.2602 -0.6400
  176SLPC  H15X20029   1.780   5.346   5.098 -1.6312  0.3327  1.8911
  176SLPC  H15Y20030   1.766   5.179   5.033 -0.1296  0.4595 -0.5805
  176SLPC  C31620031   1.955   5.209   5.115  0.0007 -0.6020 -0.4974
  176SLPC  H16X20032   1.965   5.102   5.143 -0.5902 -0.1027  1.8432
  176SLPC  H16Y20033   2.011   5.276   5.185  1.4846 -0.8076 -1.4420
  176SLPC  C31720034   2.034   5.227   4.982  0.0966  0.4900 -0.3822
  176SLPC  H17X20035   2.034   5.334   4.951  0.8210  0.4382 -0.5670
  176SLPC  H17Y20036   1.991   5.157   4.907 -3.0640  0.1788  1.5264
  176SLPC  C31820037   2.183   5.175   4.991  0.4672  0.0590  0.6852
  176SLPC  H18X20038   2.231   5.170   4.891 -0.5071 -2.0220  0.2664
  176SLPC  H18Y20039   2.196   5.075   5.037  1.7582 -0.1844 -0.1463
  176SLPC  H18Z20040   2.238   5.250   5.052  0.1146 -0.6616  1.9300
  177SLPC     N20041   0.954   4.731   7.130 -0.5635  0.7918  0.0622
  177SLPC   C1320042   1.101   4.699   7.132  0.6858  0.2027  0.3872
  177SLPC  H13A20043   1.121   4.593   7.132  1.0747  0.2656 -0.8111
  177SLPC  H13B20044   1.143   4.728   7.037  0.7588  0.2094  0.4214
  177SLPC  H13C20045   1.141   4.749   7.219 -2.1559 -0.2788  2.1042
  177SLPC   C1420046   0.942   4.874   7.095 -0.7131 -0.0918 -0.0544
  177SLPC  H14A20047   0.979   4.931   7.179 -0.7518 -0.8489  0.4952
  177SLPC  H14B20048   1.002   4.889   7.007  1.4947  0.4720  1.4686
  177SLPC  H14C20049   0.836   4.890   7.084 -1.2387 -3.0838 -0.2311
  177SLPC   C1520050   0.897   4.714   7.265  0.0594 -1.3232 -0.5213
  177SLPC  H15A20051   0.801   4.763   7.270  0.8939  0.2753  0.9148
  177SLPC  H15B20052   0.890   4.613   7.304  1.7463 -0.3351  2.7472
  177SLPC  H15C20053   0.949   4.766   7.344 -1.0798  0.0476 -0.6354
  177SLPC   C1220054   0.886   4.655   7.021  0.4242  0.4910 -0.1577
  177SLPC  H12A20055   0.780   4.668   7.035  0.4558 -0.2490  0.9399
  177SLPC  H12B20056   0.907   4.549   7.031 -4.7758 -0.7770  0.2054
  177SLPC   C1120057   0.916   4.706   6.874 -0.1773 -0.1835 -0.1181
  177SLPC  H11A20058   0.881   4.625   6.807  0.4865  0.1150 -0.8422
  177SLPC  H11B20059   1.024   4.707   6.850 -0.2970  1.0505 -0.7123
  177SLPC     P20060   0.893   4.897   6.702  0.2749 -0.2004 -0.3203
  177SLPC   O1320061   0.786   5.002   6.665 -0.0157  1.2211 -0.0922
  177SLPC   O1420062   1.026   4.960   6.730  0.2105  0.0228  0.2014
  177SLPC   O1220063   0.849   4.825   6.838  0.6256 -0.0374  0.3346
  177SLPC   O1120064   0.900   4.783   6.588  0.1484 -0.0306 -0.1759
  177SLPC    C120065   0.790   4.764   6.493 -0.3782 -0.4246  0.1111
  177SLPC    HA20066   0.708   4.839   6.490  0.2338  0.2276 -0.8714
  177SLPC    HB20067   0.831   4.776   6.390  0.4422  1.0149  0.5730
  177SLPC    C220068   0.723   4.626   6.492 -0.8969  0.3893  0.0461
  177SLPC    HS20069   0.704   4.602   6.599  1.0551  1.5624  0.7063
  177SLPC   O2120070   0.812   4.527   6.445 -1.1874  0.2869 -0.1291
  177SLPC   C2120071   0.764   4.400   6.441  0.0014  0.6870 -0.4643
  177SLPC   O2220072   0.665   4.364   6.493  0.1741  0.2332  0.3358
  177SLPC   C2220073   0.859   4.299   6.372  0.6044  0.0543  0.3765
  177SLPC   H2R20074   0.884   4.350   6.277 -0.8273 -0.3281 -0.2308
  177SLPC   H2S20075   0.952   4.276   6.428 -0.1089 -2.4225  0.6660
  177SLPC    C320076   0.583   4.631   6.415  0.0313 -0.0610 -0.3716
  177SLPC    HX20077   0.538   4.725   6.454  0.0045 -0.5971  0.9536
  177SLPC    HY20078   0.518   4.543   6.435  0.1547 -0.1040 -0.1610
  177SLPC   O3120079   0.598   4.637   6.272  0.4475  0.1576  0.5585
  177SLPC   C3120080   0.499   4.701   6.207  0.8343 -0.1910  0.0352
  177SLPC   O3220081   0.406   4.761   6.264 -0.0449 -0.2578  0.6010
  177SLPC   C3220082   0.534   4.702   6.064  0.1255 -0.2193 -0.0707
  177SLPC   H2X20083   0.641   4.724   6.049 -0.3191  1.2099 -1.3773
  177SLPC   H2Y20084   0.481   4.787   6.016  2.1755  3.2798  3.3073
  177SLPC   C2320085   0.789   4.160   6.353 -0.1162  0.5399  0.2036
  177SLPC   H3R20086   0.707   4.161   6.277 -0.9997 -0.5239  1.1192
  177SLPC   H3S20087   0.734   4.136   6.446 -0.4751  1.3219  0.2027
  177SLPC   C2420088   0.884   4.043   6.313 -0.0048 -0.2045  0.4169
  177SLPC   H4R20089   0.814   3.958   6.295  1.9030 -1.7129 -0.2564
  177SLPC   H4S20090   0.963   4.031   6.390  1.5295  0.1791 -1.0351
  177SLPC   C2520091   0.963   4.062   6.178  0.8826  0.0278  0.6594
  177SLPC   H5R20092   1.034   4.146   6.191  0.2518  0.9336 -1.3921
  177SLPC   H5S20093   0.891   4.081   6.095 -1.4628 -1.1772  2.3109
  177SLPC   C2620094   1.031   3.935   6.151 -0.4303  0.1281  0.3651
  177SLPC   H6R20095   0.968   3.853   6.111  1.2269 -2.8424  3.2978
  177SLPC   H6S20096   1.071   3.888   6.243  2.1972  0.2585 -0.6143
  177SLPC   C2720097   1.142   3.936   6.041 -0.0890 -0.2713 -0.2434
  177SLPC   H7R20098   1.170   3.831   6.015  0.2097 -0.0840 -0.6882
  177SLPC   H7S20099   1.227   3.990   6.087 -0.1404 -0.2126 -0.2180
  177SLPC   C2820100   1.106   4.016   5.915  0.1133  0.5259 -0.2497
  177SLPC   H8R20101   1.196   4.046   5.858  0.3432  0.5894  0.1417
  177SLPC   H8S20102   1.059   4.111   5.947  1.0606  0.9964 -0.2307
  177SLPC   C2920103   1.002   3.939   5.831 -0.2633  0.0580 -0.8867
  177SLPC   H9R20104   0.899   3.937   5.869 -0.0649 -2.1363 -0.3263
  177SLPC  C21020105   1.039   3.887   5.714  0.1113  0.1114 -0.2043
  177SLPC  H10R20106   0.957   3.839   5.659  0.2583 -1.4086  0.8344
  177SLPC  C21120107   1.173   3.870   5.646  0.0974  0.6738  0.2048
  177SLPC  H11R20108   1.188   3.775   5.590  0.1731 -0.5838  2.2531
  177SLPC  H11S20109   1.250   3.853   5.724 -1.2641  2.6364  2.0737
  177SLPC  C21220110   1.208   3.981   5.557  0.2167 -0.8904  0.0404
  177SLPC  H12R20111   1.215   4.081   5.604 -2.4751 -0.2208 -0.8207
  177SLPC  C21320112   1.207   3.978   5.421 -0.0108  0.4032  0.5318
  177SLPC  H13R20113   1.242   4.070   5.371  5.9169 -1.2886  0.7909
  177SLPC  C21420114   1.171   3.876   5.319 -0.0749  0.0330 -0.0153
  177SLPC  H14R20115   1.083   3.908   5.260 -0.7823 -0.0172  0.9762
  177SLPC  H14S20116   1.130   3.779   5.354 -3.5369  1.0463 -0.8956
  177SLPC  C21520117   1.293   3.859   5.231 -0.0152  0.0757 -0.6139
  177SLPC  H15R20118   1.371   3.795   5.276 -1.0723  0.1585  1.4349
  177SLPC  H15S20119   1.336   3.957   5.200 -0.6120 -0.5277 -3.7029
  177SLPC  C21620120   1.243   3.790   5.095 -0.1796  0.1300 -0.3338
  177SLPC  H16R20121   1.333   3.802   5.032 -0.4819  1.6555 -0.5127
  177SLPC  H16S20122   1.161   3.848   5.048 -1.0447  0.2928  1.2916
  177SLPC  C21720123   1.209   3.641   5.098 -0.6538  0.1825 -0.1722
  177SLPC  H17R20124   1.185   3.609   4.994  0.5902 -1.2689 -0.0541
  177SLPC  H17S20125   1.117   3.622   5.158  0.4037 -1.2972  1.0713
  177SLPC  C21820126   1.322   3.549   5.138 -0.2867 -0.1039  0.1843
  177SLPC  H18R20127   1.359   3.587   5.236 -0.0580 -0.1163  0.1016
  177SLPC  H18S20128   1.406   3.568   5.068  0.8893 -0.1256  1.5523
  177SLPC  H18T20129   1.296   3.442   5.152 -0.0117 -0.0374  1.3425
  177SLPC   C3320130   0.501   4.563   6.013 -0.3328  0.1076  0.3754
  177SLPC   H3X20131   0.396   4.539   6.042 -0.0877 -0.6319  0.6571
  177SLPC   H3Y20132   0.558   4.486   6.068  0.4789  0.2645 -0.2164
  177SLPC   C3420133   0.529   4.543   5.865  0.2032  0.2114 -0.1154
  177SLPC   H4X20134   0.640   4.549   5.854  0.1880  1.5199  0.2689
  177SLPC   H4Y20135   0.485   4.628   5.808  0.0255  0.2785  0.1199
  177SLPC   C3520136   0.460   4.416   5.812  0.4642  0.0420 -0.4099
  177SLPC   H5X20137   0.352   4.430   5.836  0.3146 -1.3194 -0.2244
  177SLPC   H5Y20138   0.493   4.320   5.857 -1.8531 -0.1969  0.9623
  177SLPC   C3620139   0.475   4.393   5.666 -0.4136  0.0883  0.1333
  177SLPC   H6X20140   0.432   4.477   5.608 -0.1619 -1.4519 -2.4479
  177SLPC   H6Y20141   0.422   4.301   5.633 -2.0321  1.4071 -1.1128
  177SLPC   C3720142   0.622   4.377   5.618  0.0440 -0.5158 -0.0829
  177SLPC   H7X20143   0.656   4.303   5.693 -0.2802 -2.3052 -1.5992
  177SLPC   H7Y20144   0.671   4.475   5.639 -1.4579  0.1272  0.5226
  177SLPC   C3820145   0.633   4.328   5.475  0.1448 -0.4661 -0.2293
  177SLPC   H8X20146   0.602   4.401   5.397 -0.0559 -0.5551 -0.2338
  177SLPC   H8Y20147   0.561   4.248   5.449 -1.8479  0.9328  0.7072
  177SLPC   C3920148   0.775   4.269   5.438 -0.2229 -0.7159 -0.5372
  177SLPC   H9X20149   0.787   4.165   5.476  1.6011 -0.6823 -0.8887
  177SLPC   H9Y20150   0.861   4.334   5.467 -0.8127 -0.6097  1.0989
  177SLPC  C31020151   0.780   4.254   5.281  0.1606  0.0836 -0.4647
  177SLPC  H10X20152   0.761   4.354   5.237  0.6969  0.1288 -0.6043
  177SLPC  H10Y20153   0.698   4.183   5.259 -3.0785  3.1072  0.7677
  177SLPC  C31120154   0.917   4.190   5.237 -0.2357 -0.5393  0.5964
  177SLPC  H11X20155   0.922   4.081   5.258 -2.1293 -0.5542  1.1647
  177SLPC  H11Y20156   0.997   4.252   5.282  1.0847 -1.5635 -0.2398
  177SLPC  C31220157   0.936   4.213   5.085 -0.4020  0.0049 -0.0839
  177SLPC  H12X20158   1.043   4.187   5.070 -0.6594 -0.6748 -0.8319
  177SLPC  H12Y20159   0.918   4.323   5.078  1.1653  0.2813 -0.2080
  177SLPC  C31320160   0.850   4.142   4.983  0.2763 -0.3028  0.1560
  177SLPC  H13X20161   0.744   4.131   5.014  0.0659  0.6230 -0.2111
  177SLPC  H13Y20162   0.887   4.040   4.962  1.2753  0.0853 -0.0298
  177SLPC  C31420163   0.847   4.211   4.846 -0.5245 -0.2996  0.4574
  177SLPC  H14X20164   0.951   4.227   4.811 -0.7049  0.2318  0.1581
  177SLPC  H14Y20165   0.799   4.308   4.869 -0.7845 -0.2146 -0.4014
  177SLPC  C31520166   0.773   4.132   4.732  0.2499 -0.3945  0.0724
  177SLPC  H15X20167   0.667   4.127   4.766  0.3198  0.9220  0.5682
  177SLPC  H15Y20168   0.810   4.028   4.734 -1.5552 -1.0640  0.9546
  177SLPC  C31620169   0.804   4.204   4.605 -0.2720 -0.3958  0.4796
  177SLPC  H16X20170   0.914   4.209   4.592 -0.3106  2.2312  0.5213
  177SLPC  H16Y20171   0.759   4.305   4.615  1.3013  0.3224  0.5130
  177SLPC  C31720172   0.734   4.144   4.482 -0.1443 -0.4146  0.4044
  177SLPC  H17X20173   0.633   4.114   4.517  0.2008 -1.6667  0.3630
  177SLPC  H17Y20174   0.790   4.055   4.448  0.5031  0.6486 -1.4414
  177SLPC  C31820175   0.738   4.243   4.369  0.8720 -0.1203  0.0558
  177SLPC  H18X20176   0.736   4.345   4.412  2.6336 -0.1571  0.3118
  177SLPC  H18Y20177   0.649   4.219   4.306  1.2334 -2.3230  0.2845
  177SLPC  H18Z20178   0.832   4.228   4.311  1.0957  1.6815 -0.0817
  178SLPC     N20179   3.775   3.116   6.886  0.1125  0.9206 -0.5821
  178SLPC   C1320180   3.774   3.258   6.842 -0.4431 -0.3694  0.7623
  178SLPC  H13A20181   3.670   3.288   6.840 -0.3645 -0.1208 -0.2652
  178SLPC  H13B20182   3.826   3.309   6.921  0.4152 -2.7459  1.8132
  178SLPC  H13C20183   3.834   3.265   6.752 -0.2799  1.7776  0.9876
  178SLPC   C1420184   3.716   3.023   6.793  0.0537 -0.1116  0.4640
  178SLPC  H14A20185   3.774   2.993   6.707 -2.4494 -1.3805 -0.8836
  178SLPC  H14B20186   3.692   2.933   6.848  1.5292 -0.5145  0.4845
  178SLPC  H14C20187   3.624   3.061   6.752  0.8316  0.6834 -0.5906
  178SLPC   C1520188   3.682   3.113   7.002 -0.3129 -0.8202  0.3039
  178SLPC  H15A20189   3.717   3.183   7.075  1.2465 -0.6205 -0.5982
  178SLPC  H15B20190   3.589   3.162   6.977  1.8878  2.8011 -1.6297
  178SLPC  H15C20191   3.677   3.014   7.045  0.6792 -0.8812  0.3001
  178SLPC   C1220192   3.914   3.066   6.927 -0.0592 -0.1999  1.0665
  178SLPC  H12A20193   3.908   2.966   6.968  3.2376 -0.8298  0.2868
  178SLPC  H12B20194   3.948   3.121   7.013  0.2457 -0.0860  0.8730
  178SLPC   C1120195   4.018   3.065   6.813  0.3775  0.0701 -0.6396
  178SLPC  H11A20196   4.117   3.046   6.862  1.3766 -0.0989 -2.6334
  178SLPC  H11B20197   4.024   3.169   6.776  0.3263  0.6236  0.8411
  178SLPC     P20198   4.027   2.821   6.728  0.0043  0.1986  0.2428
  178SLPC   O1320199   4.163   2.816   6.783 -0.2871 -0.0880 -0.7109
  178SLPC   O1420200   3.922   2.746   6.792 -0.0023  0.0268  0.7111
  178SLPC   O1220201   3.975   2.972   6.711  0.4418  0.1905 -0.2731
  178SLPC   O1120202   4.040   2.781   6.578 -0.7677 -0.1787  0.1241
  178SLPC    C120203   4.130   2.679   6.550 -0.4222 -0.4567 -0.1682
  178SLPC    HA20204   4.234   2.707   6.575 -1.1522  1.4762  0.9409
  178SLPC    HB20205   4.114   2.594   6.620 -0.8342 -1.1065 -1.0344
  178SLPC    C220206   4.124   2.626   6.406  0.2224 -0.1840  0.8037
  178SLPC    HS20207   4.220   2.571   6.399 -1.1548 -2.8670  1.4655
  178SLPC   O2120208   4.117   2.724   6.302  0.0310 -0.2475  0.2209
  178SLPC   C2120209   4.192   2.824   6.308  0.2969 -0.9647 -0.6766
  178SLPC   O2220210   4.281   2.841   6.389  0.1468 -0.1367 -0.4444
  178SLPC   C2220211   4.150   2.909   6.197 -0.0333 -0.6732 -0.1891
  178SLPC   H2R20212   4.171   2.864   6.097  1.2449  0.0959 -0.3015
  178SLPC   H2S20213   4.041   2.926   6.199 -0.1789 -1.5892 -0.2511
  178SLPC    C320214   4.003   2.535   6.384  0.4906  0.0606 -0.1872
  178SLPC    HX20215   3.916   2.584   6.432 -0.0902 -0.3694 -0.7794
  178SLPC    HY20216   4.022   2.441   6.439 -1.4976 -0.4471 -0.2858
  178SLPC   O3120217   3.975   2.496   6.247  0.6301  0.0298  0.2663
  178SLPC   C3120218   3.892   2.581   6.182  0.1709  0.4310 -0.4629
  178SLPC   O3220219   3.835   2.673   6.242  0.9002  0.2761  0.0617
  178SLPC   C3220220   3.884   2.545   6.038 -0.4740  0.1388  0.2881
  178SLPC   H2X20221   3.775   2.543   6.016  0.1970  1.4610 -4.2590
  178SLPC   H2Y20222   3.932   2.445   6.025 -1.0275 -0.1464  0.3942
  178SLPC   C2320223   4.229   3.047   6.189  0.0454  0.5963 -0.2898
  178SLPC   H3R20224   4.338   3.028   6.199  0.1510  1.2502 -0.0867
  178SLPC   H3S20225   4.198   3.116   6.271 -1.9189 -1.6756  1.0034
  178SLPC   C2420226   4.182   3.127   6.065 -0.0326  0.5689 -0.4203
  178SLPC   H4R20227   4.216   3.081   5.969 -2.0823  1.6399 -1.7418
  178SLPC   H4S20228   4.236   3.224   6.064  0.7466  0.1454 -1.2767
  178SLPC   C2520229   4.032   3.160   6.049  0.6334 -0.4784 -0.0483
  178SLPC   H5R20230   4.016   3.237   6.127  1.8820  0.5812 -0.7936
  178SLPC   H5S20231   3.971   3.070   6.075  0.4131 -0.9072 -1.8999
  178SLPC   C2620232   3.995   3.227   5.920 -0.1554 -0.3543  0.7845
  178SLPC   H6R20233   4.041   3.328   5.922 -1.9531  0.5059  0.2635
  178SLPC   H6S20234   3.885   3.239   5.915  0.0193  1.2444  0.3135
  178SLPC   C2720235   4.034   3.146   5.791  0.5786 -0.0628  0.2147
  178SLPC   H7R20236   4.017   3.041   5.822  0.0369  0.5823  2.2967
  178SLPC   H7S20237   4.136   3.165   5.750  0.5767  0.9489  0.6371
  178SLPC   C2820238   3.935   3.177   5.675  0.1961  0.0854 -0.0355
  178SLPC   H8R20239   3.837   3.144   5.717  0.7317 -3.9027 -1.4381
  178SLPC   H8S20240   3.955   3.100   5.598 -4.2732 -2.0799  0.6343
  178SLPC   C2920241   3.935   3.319   5.618 -0.2953 -0.0706  0.2310
  178SLPC   H9R20242   3.838   3.368   5.639  0.1279  1.2970 -0.8702
  178SLPC  C21020243   4.022   3.375   5.526 -0.4130  0.6867 -0.6279
  178SLPC  H10R20244   4.011   3.482   5.503 -2.1234  0.6629 -0.0406
  178SLPC  C21120245   4.141   3.305   5.470  0.2529 -0.1771  0.1581
  178SLPC  H11R20246   4.104   3.254   5.378 -0.0067 -1.7241  1.0919
  178SLPC  H11S20247   4.168   3.221   5.537 -2.3285 -0.1981  1.2753
  178SLPC  C21220248   4.261   3.388   5.429  0.2804  0.1766 -0.5071
  178SLPC  H12R20249   4.283   3.380   5.321 -0.1803  1.3118 -0.7005
  178SLPC  C21320250   4.340   3.468   5.506 -0.2368  1.4560  0.1922
  178SLPC  H13R20251   4.422   3.527   5.462 -0.4341 -0.4896 -3.0899
  178SLPC  C21420252   4.316   3.486   5.654 -0.0516  0.6177 -0.4101
  178SLPC  H14R20253   4.218   3.444   5.688  0.9801 -0.9687  0.7857
  178SLPC  H14S20254   4.319   3.596   5.670 -0.3503  0.4816  0.6942
  178SLPC  C21520255   4.432   3.413   5.733  0.6457  0.1068  0.5865
  178SLPC  H15R20256   4.525   3.469   5.712  0.5763 -0.3319 -0.9881
  178SLPC  H15S20257   4.458   3.311   5.697  0.7272  0.0412  0.8309
  178SLPC  C21620258   4.416   3.400   5.886  0.7774  0.2104 -0.1932
  178SLPC  H16R20259   4.500   3.366   5.951 -0.2238 -1.5343  0.2586
  178SLPC  H16S20260   4.344   3.317   5.905 -0.7424  1.2754 -1.0912
  178SLPC  C21720261   4.369   3.533   5.957  0.3533 -0.8279  0.6232
  178SLPC  H17R20262   4.278   3.575   5.910  1.9579  0.5342 -1.4033
  178SLPC  H17S20263   4.434   3.621   5.941 -0.5574 -0.0612  1.0699
  178SLPC  C21820264   4.363   3.527   6.109 -0.2552  1.2360 -0.1592
  178SLPC  H18R20265   4.277   3.468   6.147  0.5586  0.0556 -0.1049
  178SLPC  H18S20266   4.342   3.629   6.149  0.0634  1.4367 -0.4897
  178SLPC  H18T20267   4.452   3.472   6.144 -0.1479  0.3867 -1.6878
  178SLPC   C3320268   3.946   2.660   5.954  0.4760  0.1338 -0.4110
  178SLPC   H3X20269   4.039   2.690   6.007  0.8568  1.0782 -1.5596
  178SLPC   H3Y20270   3.887   2.754   5.950  1.3557  0.7200  0.0039
  178SLPC   C3420271   3.975   2.627   5.804 -0.1432 -0.0363 -0.1817
  178SLPC   H4X20272   3.873   2.604   5.766 -0.1103  0.3026 -0.4810
  178SLPC   H4Y20273   4.035   2.534   5.807  0.7295  0.5403  0.6782
  178SLPC   C3520274   4.044   2.735   5.718  0.0498 -0.2107 -0.6447
  178SLPC   H5X20275   4.140   2.760   5.767 -0.8391 -0.4345  1.3205
  178SLPC   H5Y20276   3.979   2.826   5.723  0.9183  0.4355 -0.9085
  178SLPC   C3620277   4.055   2.700   5.569 -0.5309  0.1490 -0.3148
  178SLPC   H6X20278   4.136   2.626   5.561  0.8867  1.6557 -0.4133
  178SLPC   H6Y20279   4.083   2.796   5.521  0.7258 -0.7935 -1.5236
  178SLPC   C3720280   3.925   2.653   5.508  0.2101 -0.3525  0.1011
  178SLPC   H7X20281   3.849   2.716   5.560  1.4228 -1.7730  3.9515
  178SLPC   H7Y20282   3.889   2.549   5.522 -0.7852  0.0504  0.6937
  178SLPC   C3820283   3.920   2.666   5.346 -0.9234 -0.6467 -0.3242
  178SLPC   H8X20284   3.928   2.774   5.323  0.5474 -0.4313  1.0343
  178SLPC   H8Y20285   3.825   2.626   5.305 -2.5261  0.6201  1.8927
  178SLPC   C3920286   4.039   2.583   5.288 -0.3374 -0.8914 -0.4116
  178SLPC   H9X20287   4.064   2.508   5.365  1.1000  2.4247  2.6515
  178SLPC   H9Y20288   4.124   2.654   5.282 -1.2400  0.2287 -0.3435
  178SLPC  C31020289   4.008   2.532   5.153  0.2935  0.0923 -0.6912
  178SLPC  H10X20290   4.000   2.600   5.065  2.5502  0.1316 -0.9384
  178SLPC  H10Y20291   3.918   2.467   5.164  0.0157  0.4544 -0.8189
  178SLPC  C31120292   4.120   2.428   5.117  0.0245  0.7726  0.3017
  178SLPC  H11X20293   4.143   2.369   5.208 -1.1351 -1.3572 -0.7084
  178SLPC  H11Y20294   4.218   2.474   5.090  0.0526 -0.0672 -1.1672
  178SLPC  C31220295   4.076   2.323   5.008 -0.4097 -0.7538 -0.3538
  178SLPC  H12X20296   4.036   2.388   4.927 -0.1024  1.2622  1.0443
  178SLPC  H12Y20297   3.994   2.258   5.046 -0.4955 -1.3055 -1.4469
  178SLPC  C31320298   4.193   2.239   4.951 -0.4772 -0.9269  0.5278
  178SLPC  H13X20299   4.165   2.155   4.883  0.9237 -0.9832  0.0036
  178SLPC  H13Y20300   4.246   2.200   5.040 -1.6170 -0.6699  1.3412
  178SLPC  C31420301   4.284   2.319   4.861 -0.2121  0.5978 -0.0868
  178SLPC  H14X20302   4.339   2.401   4.912  0.3728 -0.0148  0.2934
  178SLPC  H14Y20303   4.227   2.359   4.775  1.8079  0.5291 -1.5444
  178SLPC  C31520304   4.393   2.223   4.801 -0.0392 -0.5824  0.4486
  178SLPC  H15X20305   4.361   2.141   4.734  1.9562 -0.3390 -0.8926
  178SLPC  H15Y20306   4.449   2.170   4.881  0.4800 -0.8403 -0.0748
  178SLPC  C31620307   4.496   2.298   4.714 -0.2569  0.1385  0.4639
  178SLPC  H16X20308   4.580   2.233   4.682 -1.7379 -1.9754  0.6290
  178SLPC  H16Y20309   4.547   2.374   4.777 -0.3158  0.6314 -0.0737
  178SLPC  C31720310   4.441   2.360   4.579 -0.2851 -0.7544  0.0669
  178SLPC  H17X20311   4.492   2.452   4.544 -2.0745 -0.4326 -1.9056
  178SLPC  H17Y20312   4.336   2.378   4.608 -0.6806 -3.1436  0.2973
  178SLPC  C31820313   4.451   2.271   4.459 -0.0597  0.4388 -0.3315
  178SLPC  H18X20314   4.387   2.307   4.375 -1.3456  0.0201  0.4408
  178SLPC  H18Y20315   4.414   2.171   4.488  0.7558  0.1455 -0.2867
  178SLPC  H18Z20316   4.554   2.258   4.419 -0.1569 -1.0219 -0.1685
  179SLPC     N20317   3.354   6.543   2.392  0.0048  0.0122  0.3622
  179SLPC   C1320318   3.325   6.575   2.245 -0.2354  0.6226  0.1816
  179SLPC  H13A20319   3.250   6.650   2.225  0.7364  1.5844  0.0902
  179SLPC  H13B20320   3.411   6.591   2.182 -0.3704 -0.2278 -0.2375
  179SLPC  H13C20321   3.285   6.480   2.213  1.3184 -0.6166  1.7094
  179SLPC   C1420322   3.221   6.497   2.445  0.6736 -0.3302  0.5672
  179SLPC  H14A20323   3.231   6.404   2.499  0.2253  0.6644  2.4360
  179SLPC  H14B20324   3.166   6.573   2.498  0.9037 -0.3043  0.7696
  179SLPC  H14C20325   3.155   6.478   2.362 -0.0398  0.8928  0.8268
  179SLPC   C1520326   3.380   6.665   2.473 -0.5434 -0.3017 -0.0492
  179SLPC  H15A20327   3.304   6.739   2.455  0.0324  0.3855  0.2779
  179SLPC  H15B20328   3.364   6.640   2.577  2.3075  1.4036  0.9155
  179SLPC  H15C20329   3.475   6.713   2.455 -1.5287  1.3650 -0.9889
  179SLPC   C1220330   3.469   6.437   2.421  0.1145  0.6825  0.3967
  179SLPC  H12A20331   3.437   6.339   2.388  0.7617  1.2189 -2.0161
  179SLPC  H12B20332   3.476   6.426   2.528  0.5405 -0.2992  0.2800
  179SLPC   C1120333   3.601   6.464   2.355  0.1236 -0.2548  0.2517
  179SLPC  H11A20334   3.594   6.468   2.244  0.4135 -0.9588  0.2016
  179SLPC  H11B20335   3.674   6.386   2.385  1.4588  1.4969  1.7956
  179SLPC     P20336   3.729   6.613   2.529  0.2915  0.3659  0.5040
  179SLPC   O1320337   3.875   6.596   2.499 -0.7649  0.7165  0.1749
  179SLPC   O1420338   3.690   6.755   2.581 -0.1879  0.4409 -0.4350
  179SLPC   O1220339   3.658   6.587   2.389  0.1005 -0.2878 -0.2860
  179SLPC   O1120340   3.687   6.498   2.626  0.4432  0.4098 -0.1964
  179SLPC    C120341   3.780   6.400   2.667 -0.4480 -0.3625 -0.7587
  179SLPC    HA20342   3.746   6.294   2.656  0.4803 -0.8861  0.9833
  179SLPC    HB20343   3.879   6.405   2.618 -0.2850  1.2835 -0.3116
  179SLPC    C220344   3.807   6.428   2.815  0.0126 -0.6968  0.1944
  179SLPC    HS20345   3.801   6.538   2.828 -0.9533 -0.3153 -2.7230
  179SLPC   O2120346   3.929   6.371   2.851  0.3956  0.3371 -0.0233
  179SLPC   C2120347   4.023   6.445   2.901  0.4363  0.0346  0.2749
  179SLPC   O2220348   4.012   6.564   2.916 -0.3119 -0.0282  0.3722
  179SLPC   C2220349   4.134   6.355   2.953 -0.6589  0.4220  0.0902
  179SLPC   H2R20350   4.088   6.264   2.998 -1.4931  0.4571 -0.6706
  179SLPC   H2S20351   4.193   6.323   2.865 -0.1180 -0.0280  0.6125
  179SLPC    C320352   3.695   6.379   2.909  0.9510 -0.0682  0.8336
  179SLPC    HX20353   3.689   6.270   2.886  0.7956  0.1284 -0.0846
  179SLPC    HY20354   3.599   6.423   2.876 -0.4406 -2.0255  2.0316
  179SLPC   O3120355   3.709   6.381   3.050 -0.0863 -0.3563 -0.1264
  179SLPC   C3120356   3.693   6.512   3.096  0.1270 -0.1184  0.4873
  179SLPC   O3220357   3.674   6.605   3.022  0.7728 -0.9715 -0.1052
  179SLPC   C3220358   3.670   6.506   3.245 -0.0998 -0.0093  0.0219
  179SLPC   H2X20359   3.772   6.490   3.286  0.8422  2.2895 -1.2662
  179SLPC   H2Y20360   3.586   6.434   3.259 -0.8734  1.0178  0.8684
  179SLPC   C2320361   4.240   6.430   3.050 -0.0236  0.4192  0.2105
  179SLPC   H3R20362   4.274   6.524   3.001  0.3024 -0.5193 -1.4422
  179SLPC   H3S20363   4.334   6.370   3.060 -0.1071  0.3086  0.3338
  179SLPC   C2420364   4.181   6.442   3.188  0.1313  0.1367 -0.8517
  179SLPC   H4R20365   4.170   6.337   3.224 -0.0394 -0.1186 -1.6301
  179SLPC   H4S20366   4.086   6.498   3.181 -0.5190 -0.5799  1.2187
  179SLPC   C2520367   4.268   6.520   3.281 -0.0898  0.6234  0.1192
  179SLPC   H5R20368   4.240   6.627   3.273  2.9856  1.3804 -2.2761
  179SLPC   H5S20369   4.377   6.517   3.265 -0.0869  2.1835 -0.2829
  179SLPC   C2620370   4.224   6.488   3.430  0.3110 -0.4149 -0.0111
  179SLPC   H6R20371   4.197   6.381   3.436  0.3424 -0.4880 -1.0686
  179SLPC   H6S20372   4.127   6.534   3.456  0.8246 -0.2801  1.8109
  179SLPC   C2720373   4.340   6.521   3.525 -0.4403 -0.0689 -0.1377
  179SLPC   H7R20374   4.377   6.625   3.511 -0.4761 -0.0878 -0.3891
  179SLPC   H7S20375   4.418   6.458   3.476  0.7740  0.2622  1.3061
  179SLPC   C2820376   4.324   6.482   3.675  0.9663 -0.5950 -0.0637
  179SLPC   H8R20377   4.276   6.383   3.662  1.4793 -1.1040  1.6612
  179SLPC   H8S20378   4.244   6.546   3.718  0.6980 -1.6512  1.0434
  179SLPC   C2920379   4.449   6.481   3.765  0.3076 -0.1124  0.3540
  179SLPC   H9R20380   4.542   6.487   3.706 -0.4177 -0.0940 -0.8259
  179SLPC  C21020381   4.455   6.506   3.892  0.6413  0.4011 -0.7143
  179SLPC  H10R20382   4.555   6.526   3.934 -0.4804  0.8361  1.9034
  179SLPC  C21120383   4.349   6.520   3.998 -0.0577 -0.8542  0.2371
  179SLPC  H11R20384   4.350   6.434   4.068  2.7139  2.3585  4.7608
  179SLPC  H11S20385   4.247   6.536   3.956  0.1570 -1.1606 -0.4025
  179SLPC  C21220386   4.371   6.640   4.093  0.1141 -0.2488 -0.2214
  179SLPC  H12R20387   4.352   6.738   4.046 -1.6674 -0.5568 -0.2328
  179SLPC  C21320388   4.396   6.625   4.225 -0.1625 -0.0241 -0.2425
  179SLPC  H13R20389   4.418   6.709   4.293  1.6596 -0.3610 -0.3742
  179SLPC  C21420390   4.427   6.500   4.309 -0.6208 -0.6772 -0.1816
  179SLPC  H14R20391   4.431   6.410   4.243  0.1935 -0.3632 -0.5737
  179SLPC  H14S20392   4.333   6.496   4.368 -1.4014  0.4409 -1.3146
  179SLPC  C21520393   4.563   6.492   4.392 -0.0814  0.2110  0.2254
  179SLPC  H15R20394   4.569   6.382   4.410 -1.5068  0.0051 -0.4293
  179SLPC  H15S20395   4.540   6.544   4.487  0.5372  0.7405  0.0942
  179SLPC  C21620396   4.694   6.531   4.326  0.3547  0.0623 -0.0978
  179SLPC  H16R20397   4.668   6.625   4.273 -0.6804 -0.4587 -0.5321
  179SLPC  H16S20398   4.729   6.468   4.242  0.6971 -0.6869  0.5840
  179SLPC  C21720399   4.820   6.564   4.414 -0.5423  0.3958  0.0154
  179SLPC  H17R20400   4.788   6.651   4.475  3.5007  0.6045  2.1773
  179SLPC  H17S20401   4.910   6.592   4.355 -0.1219  0.7626  0.8116
  179SLPC  C21820402   4.865   6.443   4.500 -1.1947 -0.4083 -0.1942
  179SLPC  H18R20403   4.944   6.481   4.568 -1.4881 -0.2562  0.0675
  179SLPC  H18S20404   4.910   6.363   4.437 -0.7632 -1.1576  1.0269
  179SLPC  H18T20405   4.784   6.392   4.557  0.5896 -1.5714  1.4591
  179SLPC   C3320406   3.617   6.635   3.314  0.4682 -0.0605  0.9391
  179SLPC   H3X20407   3.523   6.666   3.266  1.3188  2.5368  0.8257
  179SLPC   H3Y20408   3.695   6.714   3.302  0.4837 -0.2052  0.0231
  179SLPC   C3420409   3.581   6.629   3.464  0.9755 -0.0766 -0.1966
  179SLPC   H4X20410   3.496   6.558   3.466 -0.7323  1.8788  0.1898
  179SLPC   H4Y20411   3.552   6.729   3.502 -0.8969 -1.2878  1.8268
  179SLPC   C3520412   3.703   6.579   3.541  0.5066 -0.3428  0.2481
  179SLPC   H5X20413   3.738   6.475   3.523 -1.1015 -1.0144  0.8502
  179SLPC   H5Y20414   3.778   6.658   3.520  0.2107  0.2358  1.3261
  179SLPC   C3620415   3.651   6.604   3.685 -0.7460  0.0445  0.2784
  179SLPC   H6X20416   3.590   6.697   3.690  1.4259  1.7240 -1.9097
  179SLPC   H6Y20417   3.745   6.611   3.744 -0.9806  1.8113  0.4863
  179SLPC   C3720418   3.571   6.477   3.733  0.7952 -0.2650 -0.3199
  179SLPC   H7X20419   3.652   6.400   3.734  1.3574  0.3185  0.3569
  179SLPC   H7Y20420   3.496   6.450   3.656  0.8165  3.3048 -1.8002
  179SLPC   C3820421   3.496   6.493   3.866 -0.2388  0.1289 -0.0608
  179SLPC   H8X20422   3.445   6.397   3.890  0.7358 -0.2275  0.6258
  179SLPC   H8Y20423   3.409   6.561   3.860 -0.2273  0.3649  1.8035
  179SLPC   C3920424   3.583   6.555   3.980 -0.0322  0.7297  0.2609
  179SLPC   H9X20425   3.606   6.664   3.971  1.0586  0.5218  0.4363
  179SLPC   H9Y20426   3.678   6.497   3.982 -1.2288 -1.6223 -2.7130
  179SLPC  C31020427   3.514   6.547   4.121  0.2741 -0.1601  0.0095
  179SLPC  H10X20428   3.482   6.442   4.139 -1.0543 -0.0117 -1.3158
  179SLPC  H10Y20429   3.426   6.614   4.111  0.8047  0.4859 -0.3619
  179SLPC  C31120430   3.599   6.593   4.235 -0.5413  0.3841 -0.0530
  179SLPC  H11X20431   3.651   6.685   4.201  0.5144  0.0166  0.5144
  179SLPC  H11Y20432   3.678   6.520   4.263 -2.4888 -1.6361  0.4554
  179SLPC  C31220433   3.516   6.611   4.360  0.0876 -1.4912  0.2404
  179SLPC  H12X20434   3.463   6.516   4.384  0.1092 -1.3076  1.0583
  179SLPC  H12Y20435   3.447   6.695   4.336 -0.1045 -1.5409  0.6169
  179SLPC  C31320436   3.593   6.661   4.482  0.3452 -0.1546 -0.7313
  179SLPC  H13X20437   3.640   6.761   4.470 -1.0136  0.6290  0.1170
  179SLPC  H13Y20438   3.676   6.587   4.485 -0.2879 -1.0204 -2.6264
  179SLPC  C31420439   3.510   6.682   4.608  0.1307  0.4490  0.5683
  179SLPC  H14X20440   3.423   6.747   4.583 -1.2216 -1.2164  0.6543
  179SLPC  H14Y20441   3.576   6.730   4.683  1.6029  0.7244 -0.8520
  179SLPC  C31520442   3.468   6.547   4.667 -0.2255  0.0209  0.6321
  179SLPC  H15X20443   3.442   6.470   4.591  0.0948  0.0517  0.4898
  179SLPC  H15Y20444   3.376   6.567   4.726 -1.4347  2.2175 -1.8164
  179SLPC  C31620445   3.565   6.491   4.765 -0.4032 -0.2001 -0.1177
  179SLPC  H16X20446   3.573   6.564   4.847 -2.9536  0.2116 -0.1705
  179SLPC  H16Y20447   3.662   6.472   4.714  0.4150  0.4820  1.1525
  179SLPC  C31720448   3.530   6.356   4.834  0.1438 -0.1019  0.2811
  179SLPC  H17X20449   3.622   6.326   4.889  0.8869  1.9695  0.2562
  179SLPC  H17Y20450   3.509   6.271   4.766 -0.2382 -0.4341  0.8018
  179SLPC  C31820451   3.407   6.365   4.929 -0.7648  0.0882  0.4424
  179SLPC  H18X20452   3.397   6.275   4.993 -0.4318  0.0558  0.4481
  179SLPC  H18Y20453   3.305   6.387   4.889 -0.6262  2.2599  1.1785
  179SLPC  H18Z20454   3.420   6.452   4.996  0.3682  0.9262 -0.7974
  180SLPC     N20455   2.910   0.697   2.542  1.1134 -0.1942 -0.1251
  180SLPC   C1320456   2.942   0.831   2.598 -0.0521  0.5461 -0.1952
  180SLPC  H13A20457   2.999   0.825   2.690  0.5746 -2.2585 -0.6814
  180SLPC  H13B20458   2.995   0.886   2.522 -1.3076 -0.2926 -1.7276
  180SLPC  H13C20459   2.855   0.887   2.628 -2.0144 -1.3879 -1.9645
  180SLPC   C1420460   2.848   0.614   2.651  0.1060  0.4207  0.3356
  180SLPC  H14A20461   2.753   0.655   2.682 -0.1271  0.6451 -0.6512
  180SLPC  H14B20462   2.813   0.519   2.614  2.6584  0.0594 -1.4397
  180SLPC  H14C20463   2.916   0.591   2.732  0.9083  0.1473 -0.3926
  180SLPC   C1520464   3.032   0.627   2.496  0.5979 -0.5218 -0.8782
  180SLPC  H15A20465   3.008   0.523   2.482  2.1855 -1.0687  0.1598
  180SLPC  H15B20466   3.061   0.676   2.404 -1.2585 -1.5837 -2.0908
  180SLPC  H15C20467   3.112   0.624   2.569 -0.9368 -1.0566  0.8672
  180SLPC   C1220468   2.801   0.721   2.435 -0.2563 -0.4866  0.0726
  180SLPC  H12A20469   2.842   0.801   2.376 -1.3705  0.9238  1.1345
  180SLPC  H12B20470   2.710   0.756   2.481 -1.1484 -2.3320 -0.1971
  180SLPC   C1120471   2.769   0.598   2.342  0.5386 -0.0044  0.4216
  180SLPC  H11A20472   2.861   0.566   2.289  0.3885  0.6392 -0.2394
  180SLPC  H11B20473   2.700   0.620   2.258 -0.8193 -2.0095  0.9325
  180SLPC     P20474   2.556   0.498   2.457  0.3967  0.0072 -0.1366
  180SLPC   O1320475   2.508   0.633   2.487  0.2424 -0.2424  0.1722
  180SLPC   O1420476   2.471   0.415   2.368  0.4975 -0.0915 -0.7238
  180SLPC   O1220477   2.714   0.490   2.423  0.4051 -0.1382 -0.2796
  180SLPC   O1120478   2.565   0.411   2.596 -0.1208 -0.3618  0.3667
  180SLPC    C120479   2.445   0.413   2.669  0.3896 -0.5014 -0.3240
  180SLPC    HA20480   2.349   0.436   2.617  0.3544 -1.3957 -0.6584
  180SLPC    HB20481   2.433   0.311   2.712 -2.6070 -0.2048 -0.2133
  180SLPC    C220482   2.464   0.500   2.795  0.2000  0.5276  0.4840
  180SLPC    HS20483   2.487   0.604   2.764 -0.7068  0.0959 -1.9004
  180SLPC   O2120484   2.558   0.448   2.882 -0.0927 -0.0427 -0.0123
  180SLPC   C2120485   2.629   0.536   2.952 -0.3409 -0.3572  0.1831
  180SLPC   O2220486   2.638   0.654   2.935 -0.5419  0.5937  0.1757
  180SLPC   C2220487   2.687   0.457   3.072 -0.6318 -0.9446 -0.0449
  180SLPC   H2R20488   2.601   0.406   3.121 -0.3098 -0.7505  0.7260
  180SLPC   H2S20489   2.757   0.380   3.034 -0.6286 -1.6523  1.3500
  180SLPC    C320490   2.330   0.495   2.873 -0.0375 -0.6439  0.5047
  180SLPC    HX20491   2.307   0.390   2.903  0.1133 -1.4586 -1.9512
  180SLPC    HY20492   2.258   0.529   2.796  2.4891  3.4781 -0.3496
  180SLPC   O3120493   2.338   0.588   2.980 -0.0891  0.1143  0.1561
  180SLPC   C3120494   2.258   0.563   3.088 -0.3008  0.0550  0.2579
  180SLPC   O3220495   2.186   0.468   3.096  0.6460  0.7207  0.1523
  180SLPC   C3220496   2.275   0.669   3.188  0.4462  0.4251  0.1544
  180SLPC   H2X20497   2.299   0.768   3.145  2.4594  0.3874  1.0726
  180SLPC   H2Y20498   2.357   0.644   3.259 -1.2908 -0.2167  2.0451
  180SLPC   C2320499   2.762   0.545   3.169  0.3669  0.3462 -0.4266
  180SLPC   H3R20500   2.840   0.606   3.117  1.1547 -0.8597 -0.6993
  180SLPC   H3S20501   2.819   0.482   3.241  0.4417 -0.3256 -1.0618
  180SLPC   C2420502   2.669   0.630   3.253  0.2710 -0.0434 -0.0837
  180SLPC   H4R20503   2.586   0.566   3.290 -1.3660  1.0024 -1.7382
  180SLPC   H4S20504   2.636   0.716   3.190 -0.9722 -1.2550 -1.1579
  180SLPC   C2520505   2.724   0.687   3.389 -0.5107  0.0505  0.1443
  180SLPC   H5R20506   2.808   0.758   3.375  1.0508 -1.9341 -1.2135
  180SLPC   H5S20507   2.763   0.602   3.450 -2.1039 -1.5445 -0.9560
  180SLPC   C2620508   2.612   0.746   3.475 -0.1403 -0.1152 -0.2998
  180SLPC   H6R20509   2.521   0.685   3.456 -0.7550  1.0583 -1.2031
  180SLPC   H6S20510   2.591   0.843   3.425 -1.4336  0.2383  0.8681
  180SLPC   C2720511   2.642   0.751   3.625  0.6015  0.1816  0.1094
  180SLPC   H7R20512   2.721   0.827   3.641 -0.0896  0.8521  0.4687
  180SLPC   H7S20513   2.678   0.649   3.650 -1.4166 -0.9712 -1.4058
  180SLPC   C2820514   2.531   0.785   3.732  0.2606  0.3285  0.0448
  180SLPC   H8R20515   2.468   0.870   3.698  1.2158  0.1298 -2.4314
  180SLPC   H8S20516   2.581   0.816   3.827  1.2255 -0.5364 -0.1699
  180SLPC   C2920517   2.445   0.668   3.772  0.4301  0.1586  0.2378
  180SLPC   H9R20518   2.359   0.646   3.707 -1.5593 -2.8618  3.5571
  180SLPC  C21020519   2.459   0.591   3.881  0.3859 -0.3268 -0.1928
  180SLPC  H10R20520   2.389   0.509   3.903  0.7383 -0.7655 -0.6880
  180SLPC  C21120521   2.568   0.610   3.985 -0.4009 -0.1623 -0.6671
  180SLPC  H11R20522   2.532   0.653   4.081  2.7897 -0.9972  1.0174
  180SLPC  H11S20523   2.657   0.671   3.957  0.6069 -0.5319  1.5624
  180SLPC  C21220524   2.616   0.472   4.029 -0.1047 -0.4703  0.2290
  180SLPC  H12R20525   2.675   0.414   3.956  0.8539 -0.8659  1.2969
  180SLPC  C21320526   2.603   0.413   4.147 -0.7730 -0.5274  0.1301
  180SLPC  H13R20527   2.634   0.308   4.151 -4.0835 -1.5930  0.4903
  180SLPC  C21420528   2.553   0.469   4.271  0.2537 -0.3563 -0.8586
  180SLPC  H14R20529   2.512   0.390   4.338  0.2650  0.2897 -0.0762
  180SLPC  H14S20530   2.468   0.541   4.268  0.5052  0.2043  2.2234
  180SLPC  C21520531   2.666   0.544   4.352 -0.4101  0.3657  0.4289
  180SLPC  H15R20532   2.619   0.602   4.435 -0.6115  0.7699  0.0328
  180SLPC  H15S20533   2.708   0.617   4.280  0.1359 -0.2950  0.0667
  180SLPC  C21620534   2.776   0.432   4.398  0.2402 -0.8087  0.0122
  180SLPC  H16R20535   2.865   0.481   4.442 -0.5476  0.5831  0.1181
  180SLPC  H16S20536   2.820   0.388   4.306  1.4930 -3.9312  1.9392
  180SLPC  C21720537   2.719   0.323   4.489  0.2709  0.0424 -0.2618
  180SLPC  H17R20538   2.799   0.259   4.532  0.8307  1.0510  0.2175
  180SLPC  H17S20539   2.651   0.251   4.437  1.8606 -2.4136  0.8371
  180SLPC  C21820540   2.646   0.386   4.614 -0.4041  0.0348 -0.6038
  180SLPC  H18R20541   2.626   0.300   4.680 -0.6268 -0.5557 -1.4187
  180SLPC  H18S20542   2.555   0.440   4.580 -0.0334  0.9480 -0.1614
  180SLPC  H18T20543   2.713   0.450   4.675 -1.7950 -0.4633  1.5608
  180SLPC   C3320544   2.146   0.683   3.269  0.2975  0.0655 -0.0679
  180SLPC   H3X20545   2.096   0.585   3.290  0.3219  0.1088  0.1844
  180SLPC   H3Y20546   2.071   0.746   3.216  0.3651  0.2714  0.0828
  180SLPC   C3420547   2.170   0.751   3.399  0.8457  0.3680  0.0870
  180SLPC   H4X20548   2.193   0.858   3.378 -0.1618  0.1058 -2.8295
  180SLPC   H4Y20549   2.257   0.706   3.451  0.1334  1.1097  2.0318
  180SLPC   C3520550   2.051   0.747   3.486  0.1295 -0.1717 -0.2668
  180SLPC   H5X20551   2.030   0.639   3.499  3.6107 -0.8708  0.6027
  180SLPC   H5Y20552   1.963   0.799   3.442 -0.8695 -2.5449 -1.2308
  180SLPC   C3620553   2.087   0.796   3.626  0.5803  0.8450  0.5220
  180SLPC   H6X20554   2.116   0.903   3.622  0.6985  0.7690 -1.0188
  180SLPC   H6Y20555   2.180   0.752   3.668  1.6893  0.9225 -1.6915
  180SLPC   C3720556   1.973   0.772   3.730  0.0931 -0.1578 -0.1837
  180SLPC   H7X20557   1.953   0.665   3.749 -1.5760  0.1742  0.0316
  180SLPC   H7Y20558   1.886   0.834   3.700  1.6298  2.9147  1.1681
  180SLPC   C3820559   2.014   0.828   3.871 -0.5894 -0.2532  0.4875
  180SLPC   H8X20560   1.923   0.856   3.929 -0.7774 -1.2478  0.7117
  180SLPC   H8Y20561   2.078   0.917   3.855 -1.1893 -0.0160 -0.6257
  180SLPC   C3920562   2.087   0.722   3.954 -0.2425 -0.1348  0.5146
  180SLPC   H9X20563   2.169   0.666   3.904  0.6173  1.9422 -0.5240
  180SLPC   H9Y20564   2.022   0.637   3.982 -0.5546 -0.3756 -0.8767
  180SLPC  C31020565   2.140   0.782   4.087 -0.0239 -0.1475  0.6893
  180SLPC  H10X20566   2.054   0.827   4.141  1.1502  2.1648  0.7986
  180SLPC  H10Y20567   2.207   0.869   4.065 -2.0599  0.9277 -1.7228
  180SLPC  C31120568   2.212   0.682   4.170 -0.5983 -0.4530 -0.4512
  180SLPC  H11X20569   2.309   0.732   4.188 -1.7700  1.3509  1.2853
  180SLPC  H11Y20570   2.247   0.589   4.121  1.9667  1.0297 -1.6333
  180SLPC  C31220571   2.159   0.659   4.310  0.2814  0.2539  0.0940
  180SLPC  H12X20572   2.212   0.572   4.355  0.0858  0.4711  0.7515
  180SLPC  H12Y20573   2.051   0.635   4.319  0.7295 -1.5484  1.0793
  180SLPC  C31320574   2.175   0.774   4.399 -0.1478 -0.3510  0.3350
  180SLPC  H13X20575   2.141   0.865   4.346  0.5058 -0.0984  0.3467
  180SLPC  H13Y20576   2.281   0.778   4.431  0.1175 -2.0914 -0.2131
  180SLPC  C31420577   2.100   0.764   4.527  0.3467 -0.0397  0.9789
  180SLPC  H14X20578   1.993   0.739   4.510 -0.0799  1.2701  1.6462
  180SLPC  H14Y20579   2.108   0.862   4.577  1.7944  0.3937 -0.0463
  180SLPC  C31520580   2.156   0.648   4.609  0.3101  0.4012  0.9172
  180SLPC  H15X20581   2.262   0.675   4.630  1.0413 -1.0528 -0.6961
  180SLPC  H15Y20582   2.153   0.550   4.558  0.6302  0.8095  0.0936
  180SLPC  C31620583   2.093   0.640   4.740 -0.4279 -0.0048  0.3829
  180SLPC  H16X20584   1.996   0.587   4.752 -0.6922  0.5370  0.6820
  180SLPC  H16Y20585   2.070   0.741   4.782 -4.4873 -1.5171  2.3559
  180SLPC  C31720586   2.183   0.562   4.837 -0.7314  0.5968 -0.4944
  180SLPC  H17X20587   2.135   0.573   4.937  1.4197  0.3800  0.6256
  180SLPC  H17Y20588   2.278   0.615   4.861 -0.9796  1.3822 -1.1844
  180SLPC  C31820589   2.218   0.419   4.808 -0.4112  0.7474 -0.1183
  180SLPC  H18X20590   2.130   0.352   4.801 -0.1067  0.4851 -2.2203
  180SLPC  H18Y20591   2.289   0.377   4.883  2.0174  1.1965 -2.0363
  180SLPC  H18Z20592   2.267   0.410   4.708  0.0141 -0.9519  0.2010
  181SLPC     N20593   1.454   5.340   2.772  0.6641  0.3250 -0.2304
  181SLPC   C1320594   1.491   5.317   2.635 -0.0912  0.6493 -0.3827
  181SLPC  H13A20595   1.529   5.412   2.599  1.2672  1.0690  1.9952
  181SLPC  H13B20596   1.571   5.246   2.621 -0.6876 -0.7828  2.6244
  181SLPC  H13C20597   1.411   5.285   2.570  1.0918  0.3163 -1.7295
  181SLPC   C1420598   1.572   5.395   2.844 -0.2460  0.1574 -0.2268
  181SLPC  H14A20599   1.598   5.480   2.783  1.9341 -1.4374 -1.6722
  181SLPC  H14B20600   1.547   5.430   2.943  3.5606 -1.4946  1.4953
  181SLPC  H14C20601   1.657   5.332   2.864 -0.4540 -0.6464 -1.6881
  181SLPC   C1520602   1.412   5.206   2.823 -0.1146  0.2916  0.4354
  181SLPC  H15A20603   1.405   5.210   2.930 -1.1636  1.7922  0.3445
  181SLPC  H15B20604   1.322   5.175   2.772  0.7692 -0.4373 -0.7389
  181SLPC  H15C20605   1.483   5.125   2.809  0.0875  0.1509  2.0560
  181SLPC   C1220606   1.335   5.436   2.766  0.1059  0.2382 -0.1108
  181SLPC  H12A20607   1.306   5.465   2.866  0.0919  0.7496 -0.2620
  181SLPC  H12B20608   1.260   5.385   2.707 -1.7056  3.1694 -0.5300
  181SLPC   C1120609   1.351   5.565   2.683 -0.4041 -0.1347  0.1385
  181SLPC  H11A20610   1.256   5.620   2.700  0.1868  1.2733 -0.9541
  181SLPC  H11B20611   1.362   5.551   2.573  3.7000  1.7568  0.1220
  181SLPC     P20612   1.465   5.758   2.826 -0.5009 -0.3875 -0.1217
  181SLPC   O1320613   1.606   5.786   2.871 -0.5244  0.1615  0.7458
  181SLPC   O1420614   1.395   5.880   2.784  0.3156  0.2721 -0.3224
  181SLPC   O1220615   1.461   5.651   2.714 -0.3460  0.0878 -0.2674
  181SLPC   O1120616   1.389   5.686   2.953  0.3655  0.8861 -0.0579
  181SLPC    C120617   1.248   5.696   2.989 -0.0065  0.0757  0.1493
  181SLPC    HA20618   1.177   5.730   2.910  0.4070  2.2716  0.6750
  181SLPC    HB20619   1.213   5.594   3.017 -0.7058  0.5487  1.0577
  181SLPC    C220620   1.215   5.787   3.114  0.1913  0.1190 -0.0854
  181SLPC    HS20621   1.105   5.795   3.112  0.2140  0.4062 -1.2037
  181SLPC   O2120622   1.277   5.921   3.091  0.3853  0.4642 -0.3438
  181SLPC   C2120623   1.203   5.999   3.009  0.1355  0.4235 -0.3979
  181SLPC   O2220624   1.088   5.984   2.980 -0.0614  0.3671  0.0633
  181SLPC   C2220625   1.294   6.119   2.965 -0.6890 -0.1154 -0.3524
  181SLPC   H2R20626   1.399   6.096   2.992 -1.0842 -1.2404  0.3228
  181SLPC   H2S20627   1.291   6.125   2.854  2.8762  1.7505 -0.4747
  181SLPC    C320628   1.266   5.724   3.241 -0.0535 -0.1423  0.1954
  181SLPC    HX20629   1.376   5.713   3.236 -0.1888 -1.1935 -3.2035
  181SLPC    HY20630   1.221   5.622   3.242 -0.2297 -0.0661  0.1385
  181SLPC   O3120631   1.216   5.798   3.354 -0.2574  0.2469  0.3491
  181SLPC   C3120632   1.293   5.879   3.419 -0.1223  0.2280 -0.3851
  181SLPC   O3220633   1.415   5.889   3.408 -0.3231  0.4085 -0.1572
  181SLPC   C3220634   1.214   5.978   3.502  0.4687  0.5684 -0.8088
  181SLPC   H2X20635   1.105   5.967   3.482  0.2959  2.5659 -1.0928
  181SLPC   H2Y20636   1.242   6.077   3.462 -0.4848  0.5382 -1.5854
  181SLPC   C2320637   1.257   6.245   3.030 -0.1738 -1.3446  0.9703
  181SLPC   H3R20638   1.183   6.306   2.976  1.5696 -0.3730 -0.4189
  181SLPC   H3S20639   1.350   6.306   3.033 -2.1451  1.8334  2.7981
  181SLPC   C2420640   1.217   6.225   3.182  0.2506  0.2330  0.4968
  181SLPC   H4R20641   1.311   6.189   3.227 -0.1788 -3.0891 -0.9491
  181SLPC   H4S20642   1.144   6.144   3.200 -0.7614  0.9214 -0.3358
  181SLPC   C2520643   1.184   6.361   3.254  0.0100  0.8455  0.2465
  181SLPC   H5R20644   1.102   6.411   3.198  1.9013  2.3305 -1.3601
  181SLPC   H5S20645   1.271   6.426   3.229  0.6238 -0.0353  0.0169
  181SLPC   C2620646   1.160   6.337   3.397  0.1731  0.4148  0.1006
  181SLPC   H6R20647   1.256   6.306   3.445  0.7244  1.2892 -0.4083
  181SLPC   H6S20648   1.095   6.248   3.409  0.1061  0.2460 -1.2843
  181SLPC   C2720649   1.110   6.460   3.481 -0.7719 -0.2036 -0.1214
  181SLPC   H7R20650   1.011   6.490   3.440 -1.6883 -0.8435  1.5075
  181SLPC   H7S20651   1.182   6.538   3.447 -1.3631 -0.4896 -2.1687
  181SLPC   C2820652   1.113   6.436   3.636 -0.4845 -0.2193  0.1127
  181SLPC   H8R20653   1.218   6.407   3.653 -0.2018  0.8631  0.2663
  181SLPC   H8S20654   1.044   6.350   3.650 -2.0122 -0.1231 -4.8442
  181SLPC   C2920655   1.071   6.556   3.718 -0.1096 -0.1196  0.6364
  181SLPC   H9R20656   0.983   6.615   3.688  0.9877  1.8968  1.1821
  181SLPC  C21020657   1.127   6.599   3.830  0.8757 -0.3476 -0.1077
  181SLPC  H10R20658   1.084   6.679   3.891  0.6937 -0.1311 -0.5200
  181SLPC  C21120659   1.235   6.535   3.904 -0.5786 -0.7211  0.0791
  181SLPC  H11R20660   1.294   6.604   3.968  1.1965 -1.4566 -0.6890
  181SLPC  H11S20661   1.318   6.511   3.833 -0.7712  1.0605 -0.8150
  181SLPC  C21220662   1.206   6.412   3.980  0.0389  0.3143 -0.9497
  181SLPC  H12R20663   1.207   6.326   3.912 -2.4503  0.4047 -1.1998
  181SLPC  C21320664   1.143   6.402   4.103  0.3777 -0.0393 -0.6100
  181SLPC  H13R20665   1.124   6.307   4.155  2.5081  1.0033  2.2644
  181SLPC  C21420666   1.110   6.521   4.187  0.5419  0.2361 -0.2219
  181SLPC  H14R20667   1.150   6.616   4.145  1.6323 -0.9788 -2.0842
  181SLPC  H14S20668   1.168   6.513   4.282 -0.0781  1.7395  0.3086
  181SLPC  C21520669   0.962   6.538   4.221 -0.2675  0.6076 -0.0860
  181SLPC  H15R20670   0.907   6.522   4.126  0.3227  1.1562 -0.5319
  181SLPC  H15S20671   0.940   6.638   4.264  1.9100  2.2549 -2.4877
  181SLPC  C21620672   0.907   6.436   4.324 -0.1200  0.3017  0.5184
  181SLPC  H16R20673   0.960   6.440   4.421 -0.3096 -0.0388  0.6358
  181SLPC  H16S20674   0.915   6.331   4.289 -0.1019  0.8894 -1.3904
  181SLPC  C21720675   0.760   6.460   4.372 -0.1967 -0.8621  0.0888
  181SLPC  H17R20676   0.701   6.456   4.278  1.3822 -0.6857 -0.9508
  181SLPC  H17S20677   0.761   6.557   4.425  2.2302 -0.2615 -0.9292
  181SLPC  C21820678   0.700   6.350   4.467  0.8271 -0.0040  0.3568
  181SLPC  H18R20679   0.766   6.325   4.553  2.4775  2.6069 -0.0261
  181SLPC  H18S20680   0.692   6.252   4.415  1.4876 -0.6088  1.3515
  181SLPC  H18T20681   0.591   6.363   4.486  0.7473 -0.7640  0.4343
  181SLPC   C3320682   1.258   5.962   3.650  0.4643  0.0461  0.8594
  181SLPC   H3X20683   1.363   5.995   3.659  0.5295  0.0573  0.1641
  181SLPC   H3Y20684   1.237   5.860   3.688  1.2813 -0.7076 -0.6075
  181SLPC   C3420685   1.168   6.048   3.736  0.6843  0.1303 -0.0115
  181SLPC   H4X20686   1.064   6.009   3.745  1.7020 -2.5334  1.0435
  181SLPC   H4Y20687   1.168   6.153   3.697  2.0336  0.9485  2.0267
  181SLPC   C3520688   1.219   6.060   3.881 -0.3409  0.1526  0.0593
  181SLPC   H5X20689   1.141   6.092   3.953  1.3410 -0.5454  2.3063
  181SLPC   H5Y20690   1.299   6.137   3.882  0.1811 -0.2015 -3.2014
  181SLPC   C3620691   1.283   5.932   3.945 -0.1770  0.8473  0.3289
  181SLPC   H6X20692   1.379   5.900   3.899 -0.4854 -0.5645  0.6311
  181SLPC   H6Y20693   1.210   5.851   3.923  2.5736 -1.7536  0.0948
  181SLPC   C3720694   1.305   5.938   4.094  0.7254 -0.0212 -0.0490
  181SLPC   H7X20695   1.336   5.833   4.117  1.8332  0.2241 -0.3953
  181SLPC   H7Y20696   1.209   5.955   4.146  0.7869  1.9708 -0.5274
  181SLPC   C3820697   1.415   6.032   4.136 -0.1051 -0.1940 -0.7231
  181SLPC   H8X20698   1.390   6.135   4.104  1.7559 -0.0092 -1.6729
  181SLPC   H8Y20699   1.509   6.002   4.086  0.6540 -0.9666  1.0614
  181SLPC   C3920700   1.448   6.038   4.286  0.4058 -0.7342  0.3746
  181SLPC   H9X20701   1.518   6.118   4.318 -0.0618 -0.9149  1.9171
  181SLPC   H9Y20702   1.495   5.941   4.315 -0.3101 -1.8082 -1.8469
  181SLPC  C31020703   1.319   6.061   4.380  0.2595  0.0449 -0.6944
  181SLPC  H10X20704   1.237   5.998   4.340 -0.0931 -2.3791  3.2568
  181SLPC  H10Y20705   1.292   6.167   4.364 -2.4224 -0.0578  2.1543
  181SLPC  C31120706   1.353   6.040   4.529 -0.3370  0.4975 -0.0106
  181SLPC  H11X20707   1.446   6.090   4.563 -0.1067 -0.7573  1.2952
  181SLPC  H11Y20708   1.358   5.931   4.547 -1.2109  0.0976 -1.9292
  181SLPC  C31220709   1.244   6.091   4.623 -0.0411 -0.8293  0.5140
  181SLPC  H12X20710   1.144   6.053   4.593  1.5469 -2.6057 -3.1214
  181SLPC  H12Y20711   1.251   6.202   4.613 -0.6303 -0.7517  0.9384
  181SLPC  C31320712   1.281   6.064   4.771 -0.3329  0.0980  0.5191
  181SLPC  H13X20713   1.392   6.066   4.778 -0.3446 -0.2892  0.9381
  181SLPC  H13Y20714   1.253   5.961   4.803  1.6583 -1.0897 -1.3106
  181SLPC  C31420715   1.223   6.164   4.865 -0.5648 -0.4295 -0.2927
  181SLPC  H14X20716   1.270   6.264   4.855 -0.1738 -0.0321  3.8500
  181SLPC  H14Y20717   1.242   6.131   4.969 -1.3472 -0.0527 -0.0237
  181SLPC  C31520718   1.074   6.178   4.848 -0.3881  0.4104 -0.1818
  181SLPC  H15X20719   1.020   6.081   4.859  0.0979  0.3890  2.5557
  181SLPC  H15Y20720   1.048   6.222   4.749  1.7430  0.4514 -0.7614
  181SLPC  C31620721   1.010   6.269   4.954 -0.4367  0.1610 -0.2140
  181SLPC  H16X20722   1.043   6.375   4.953  0.0050  0.1288  2.4708
  181SLPC  H16Y20723   1.038   6.231   5.055  0.9400  0.6199 -0.3951
  181SLPC  C31720724   0.858   6.265   4.938 -0.5103 -0.8402 -0.7360
  181SLPC  H17X20725   0.834   6.160   4.966  2.0267 -0.5703  3.2278
  181SLPC  H17Y20726   0.824   6.270   4.832 -0.9289  2.0414 -0.5466
  181SLPC  C31820727   0.783   6.370   5.013  0.5294  0.0207 -0.3091
  181SLPC  H18X20728   0.827   6.401   5.110  0.4408 -0.0099 -0.2581
  181SLPC  H18Y20729   0.678   6.335   5.020  1.2479 -2.0740  0.8721
  181SLPC  H18Z20730   0.768   6.463   4.954 -0.4516  1.4421  2.0580
  182SLPC     N20731   5.748   6.032   2.539  0.7537  0.2507 -0.1181
  182SLPC   C1320732   5.796   6.147   2.626 -0.7145 -0.2184 -0.0277
  182SLPC  H13A20733   5.816   6.237   2.570 -1.0821 -0.3419 -0.3607
  182SLPC  H13B20734   5.724   6.160   2.706 -1.3564  1.7675 -0.8687
  182SLPC  H13C20735   5.892   6.128   2.671  0.0153  0.9854 -1.0361
  182SLPC   C1420736   5.788   6.076   2.406  0.4117  0.2306  0.4676
  182SLPC  H14A20737   5.749   6.173   2.377  2.8016  0.3074 -3.3208
  182SLPC  H14B20738   5.895   6.066   2.394  0.1979 -2.5734  0.4329
  182SLPC  H14C20739   5.750   6.011   2.329 -0.9938  1.4642  0.0644
  182SLPC   C1520740   5.605   6.022   2.558 -0.1818  0.3886 -0.0393
  182SLPC  H15A20741   5.579   5.961   2.643 -0.4993 -1.1952 -1.2390
  182SLPC  H15B20742   5.561   6.121   2.565 -0.7672  0.1915 -0.8737
  182SLPC  H15C20743   5.556   5.978   2.473  0.0545 -0.5374  0.2943
  182SLPC   C1220744   5.805   5.897   2.565  0.3565 -0.4271 -0.5826
  182SLPC  H12A20745   5.762   5.869   2.661  0.4226  2.8573  0.5397
  182SLPC  H12B20746   5.912   5.890   2.579  0.1737 -4.5213 -0.1550
  182SLPC   C1120747   5.768   5.781   2.476  0.2474 -0.1442  0.7720
  182SLPC  H11A20748   5.800   5.802   2.372  2.2840  0.5617  1.5012
  182SLPC  H11B20749   5.658   5.766   2.475  0.2025  0.2182 -0.2218
  182SLPC     P20750   5.983   5.643   2.471 -0.1358 -0.0953  0.1324
  182SLPC   O1320751   6.031   5.510   2.508  0.1140 -0.0293 -0.1063
  182SLPC   O1420752   5.997   5.687   2.332 -0.0393  0.3266 -0.0712
  182SLPC   O1220753   5.829   5.659   2.513  0.1654 -0.1189 -0.3730
  182SLPC   O1120754   6.039   5.746   2.565 -0.6875 -0.4552 -0.2738
  182SLPC    C120755   6.046   5.739   2.712 -0.4893  0.5767  0.2948
  182SLPC    HA20756   5.953   5.695   2.752  1.2611 -3.0889  0.7571
  182SLPC    HB20757   6.124   5.672   2.752 -1.9416  1.2436  4.7254
  182SLPC    C220758   6.076   5.880   2.772 -0.3651  0.2679 -0.7588
  182SLPC    HS20759   5.988   5.945   2.755 -0.6069 -0.3772 -2.1525
  182SLPC   O2120760   6.192   5.947   2.710 -0.0132 -0.4414 -0.2133
  182SLPC   C2120761   6.175   6.016   2.597  0.2509  0.2349 -0.3140
  182SLPC   O2220762   6.075   6.022   2.532  0.7009 -0.1747  0.5152
  182SLPC   C2220763   6.307   6.090   2.557 -0.7802  0.4322  0.0155
  182SLPC   H2R20764   6.367   6.009   2.512 -0.6826  2.1147 -3.1735
  182SLPC   H2S20765   6.284   6.171   2.484  2.2629  0.3949 -1.1164
  182SLPC    C320766   6.109   5.862   2.926  0.0229  0.1742 -0.0676
  182SLPC    HX20767   6.138   5.962   2.965  1.7633 -0.2279 -0.2610
  182SLPC    HY20768   6.193   5.790   2.928 -2.0741 -2.4435  0.2750
  182SLPC   O3120769   5.996   5.796   2.992 -0.6110 -0.3994 -0.2756
  182SLPC   C3120770   5.895   5.881   3.024 -0.7114 -0.2504 -0.8660
  182SLPC   O3220771   5.899   6.003   3.009  0.0440  0.1958 -0.3803
  182SLPC   C3220772   5.786   5.793   3.095 -0.7576  0.1026  0.5060
  182SLPC   H2X20773   5.756   5.719   3.018  2.0853 -2.9093  1.9990
  182SLPC   H2Y20774   5.707   5.869   3.114  0.6182  1.0310  3.1087
  182SLPC   C2320775   6.390   6.160   2.670 -0.1467  0.3778  0.9918
  182SLPC   H3R20776   6.483   6.207   2.631 -1.7592  1.3968 -1.9392
  182SLPC   H3S20777   6.410   6.100   2.761  0.9609 -1.0059 -0.1152
  182SLPC   C2420778   6.313   6.282   2.724 -0.2846 -1.1784 -0.4603
  182SLPC   H4R20779   6.209   6.250   2.747 -0.2199 -1.5177 -0.6293
  182SLPC   H4S20780   6.307   6.361   2.646  0.1527 -0.5643  0.1193
  182SLPC   C2520781   6.375   6.344   2.857 -0.3532 -0.1485 -0.2879
  182SLPC   H5R20782   6.354   6.281   2.947 -0.0493  1.3360  0.8588
  182SLPC   H5S20783   6.311   6.432   2.879 -1.4151 -0.3658 -2.2874
  182SLPC   C2620784   6.507   6.405   2.847  0.5472  0.3351  1.1681
  182SLPC   H6R20785   6.513   6.471   2.758  0.4810  3.8431  3.5571
  182SLPC   H6S20786   6.587   6.328   2.841 -0.3664 -0.5155 -2.0183
  182SLPC   C2720787   6.548   6.508   2.955 -0.1447  0.5671 -0.0889
  182SLPC   H7R20788   6.476   6.592   2.963 -0.4405  0.1248  3.1032
  182SLPC   H7S20789   6.652   6.537   2.929 -0.5131  2.3026  0.2903
  182SLPC   C2820790   6.534   6.449   3.095 -0.0332  0.3404  0.4133
  182SLPC   H8R20791   6.589   6.353   3.089  0.2371  0.5410 -0.5731
  182SLPC   H8S20792   6.425   6.428   3.103 -0.0633 -1.4736 -2.9763
  182SLPC   C2920793   6.577   6.534   3.209 -0.5359  0.1688 -0.2523
  182SLPC   H9R20794   6.600   6.641   3.200 -2.7897  0.8755  1.3197
  182SLPC  C21020795   6.567   6.487   3.333 -0.1064 -1.1917 -0.4601
  182SLPC  H10R20796   6.578   6.563   3.412  1.1910  0.2993 -2.0016
  182SLPC  C21120797   6.519   6.349   3.372 -0.8238  0.9924 -0.0523
  182SLPC  H11R20798   6.603   6.294   3.420 -1.6869  0.0268  0.4142
  182SLPC  H11S20799   6.487   6.291   3.283 -0.2685  0.6490 -0.0314
  182SLPC  C21220800   6.407   6.377   3.472 -0.7436  0.9189 -0.4959
  182SLPC  H12R20801   6.421   6.447   3.555 -3.1391  1.1197 -0.1980
  182SLPC  C21320802   6.274   6.328   3.473 -0.2538 -0.0408  0.1523
  182SLPC  H13R20803   6.215   6.343   3.565 -0.7074  1.5951 -0.3688
  182SLPC  C21420804   6.217   6.237   3.372 -0.4724 -0.2828 -0.7976
  182SLPC  H14R20805   6.210   6.134   3.412 -0.5650 -1.4146 -3.4927
  182SLPC  H14S20806   6.281   6.230   3.281  0.0156  1.5024 -0.6352
  182SLPC  C21520807   6.077   6.259   3.318  0.1534  0.2594 -0.4075
  182SLPC  H15R20808   6.008   6.280   3.402  0.7487  0.7260 -0.0238
  182SLPC  H15S20809   6.033   6.166   3.277 -0.6372  1.1278 -1.6151
  182SLPC  C21620810   6.072   6.370   3.212  0.3965 -0.9606  0.3773
  182SLPC  H16R20811   6.170   6.423   3.208 -0.2169  0.2099  0.2440
  182SLPC  H16S20812   5.998   6.440   3.257  2.3987  0.4618  1.6789
  182SLPC  C21720813   6.024   6.316   3.072  0.2158  0.3328 -0.9887
  182SLPC  H17R20814   5.923   6.271   3.084 -0.4566  1.8747 -0.6179
  182SLPC  H17S20815   6.088   6.233   3.035 -2.0535 -0.8333 -2.5603
  182SLPC  C21820816   6.026   6.435   2.981 -0.0353 -0.4868  0.5116
  182SLPC  H18R20817   6.003   6.402   2.877  0.6463 -1.7960  0.7557
  182SLPC  H18S20818   6.121   6.490   2.996  0.1853 -0.4712 -0.7616
  182SLPC  H18T20819   5.939   6.497   3.011  0.9186  0.8151  0.6792
  182SLPC   C3320820   5.838   5.724   3.222  0.3477  0.2222  0.2909
  182SLPC   H3X20821   5.882   5.799   3.291 -1.1896  0.7072  0.8074
  182SLPC   H3Y20822   5.911   5.643   3.199 -1.0448 -0.8476 -0.5478
  182SLPC   C3420823   5.722   5.645   3.284 -0.4779  0.0577 -0.8147
  182SLPC   H4X20824   5.685   5.580   3.202 -0.2771  0.7028 -1.4258
  182SLPC   H4Y20825   5.627   5.702   3.291 -2.8265 -3.6501  0.4448
  182SLPC   C3520826   5.750   5.578   3.424 -0.5574  0.2201  0.4624
  182SLPC   H5X20827   5.847   5.525   3.417 -0.5298  0.4213 -1.0474
  182SLPC   H5Y20828   5.669   5.506   3.443 -2.2146  1.0189 -2.8125
  182SLPC   C3620829   5.757   5.682   3.537 -0.1798  0.0083 -0.4236
  182SLPC   H6X20830   5.695   5.770   3.510  0.0216  0.4328  0.4526
  182SLPC   H6Y20831   5.862   5.716   3.533 -0.0509 -0.1027  1.2967
  182SLPC   C3720832   5.711   5.641   3.680  0.4111 -0.3905  0.3683
  182SLPC   H7X20833   5.772   5.558   3.722 -0.2904  0.1406  2.5762
  182SLPC   H7Y20834   5.604   5.609   3.677  0.2540  0.1418  0.1834
  182SLPC   C3820835   5.723   5.758   3.777 -0.7379 -0.5259 -0.5837
  182SLPC   H8X20836   5.649   5.834   3.744 -1.2720 -1.3490 -1.3448
  182SLPC   H8Y20837   5.824   5.803   3.773 -1.4718  1.4269  1.0447
  182SLPC   C3920838   5.702   5.710   3.919  0.0200 -0.4238 -0.0666
  182SLPC   H9X20839   5.764   5.619   3.929 -0.5516 -1.1537 -2.4990
  182SLPC   H9Y20840   5.593   5.686   3.915 -0.2231  0.7431 -1.1969
  182SLPC  C31020841   5.722   5.805   4.035  0.4413  0.0505 -0.4799
  182SLPC  H10X20842   5.660   5.896   4.022 -2.2960 -1.6354 -0.0340
  182SLPC  H10Y20843   5.832   5.823   4.035  0.2629  1.3001 -1.4515
  182SLPC  C31120844   5.694   5.730   4.167  0.7136 -0.5938 -0.7907
  182SLPC  H11X20845   5.772   5.651   4.168  2.1546  0.7656 -1.7440
  182SLPC  H11Y20846   5.596   5.679   4.154  0.5595 -0.2238 -1.1305
  182SLPC  C31220847   5.688   5.826   4.294  0.9254  0.4782  0.2409
  182SLPC  H12X20848   5.614   5.907   4.278  0.3147 -0.0221  0.4944
  182SLPC  H12Y20849   5.791   5.865   4.306  1.9323 -1.3154 -1.7890
  182SLPC  C31320850   5.652   5.757   4.426  0.4008  0.0124  0.5000
  182SLPC  H13X20851   5.708   5.661   4.433 -0.5174 -0.4489  2.0693
  182SLPC  H13Y20852   5.543   5.735   4.431  0.3549 -0.0804 -0.5904
  182SLPC  C31420853   5.686   5.828   4.557  0.0402 -0.5837 -0.4751
  182SLPC  H14X20854   5.796   5.837   4.569  0.0665 -0.6330 -0.6750
  182SLPC  H14Y20855   5.657   5.760   4.640 -0.7389 -1.7152 -1.6367
  182SLPC  C31520856   5.607   5.959   4.572 -0.8031  0.0841  0.3272
  182SLPC  H15X20857   5.500   5.927   4.568  0.4942 -5.0300 -0.4708
  182SLPC  H15Y20858   5.627   6.031   4.490 -0.0653  0.4641  0.8405
  182SLPC  C31620859   5.656   6.049   4.691 -0.1616  0.1089  0.0367
  182SLPC  H16X20860   5.651   5.980   4.778 -1.9781  1.0623  0.7404
  182SLPC  H16Y20861   5.574   6.123   4.706 -1.8236 -0.6005 -4.1227
  182SLPC  C31720862   5.783   6.128   4.670  0.2374  0.3556  0.0116
  182SLPC  H17X20863   5.774   6.189   4.577 -1.9120 -0.3217 -0.2829
  182SLPC  H17Y20864   5.864   6.053   4.658 -0.1214 -0.0541  0.1637
  182SLPC  C31820865   5.818   6.216   4.791 -0.1240  0.7070 -0.6879
  182SLPC  H18X20866   5.741   6.289   4.822 -2.7096 -2.0443 -0.2047
  182SLPC  H18Y20867   5.911   6.268   4.759  1.0610 -1.8052 -1.5900
  182SLPC  H18Z20868   5.850   6.168   4.886  1.2743  3.2092  0.1947
  183SLPC     N20869   1.767   6.884   2.578  0.4631  0.0151  0.5494
  183SLPC   C1320870   1.780   6.741   2.516  0.0400  0.6741 -0.8316
  183SLPC  H13A20871   1.691   6.685   2.541  1.6143 -0.0229  4.4102
  183SLPC  H13B20872   1.794   6.749   2.409 -3.2225  0.4226 -1.3992
  183SLPC  H13C20873   1.856   6.680   2.564  0.1160  1.2774 -0.1750
  183SLPC   C1420874   1.660   6.951   2.497 -1.4007  0.0627  0.1055
  183SLPC  H14A20875   1.676   6.929   2.393 -3.7194 -2.5028  0.1748
  183SLPC  H14B20876   1.559   6.921   2.521 -0.2720 -3.0713  1.5405
  183SLPC  H14C20877   1.667   7.058   2.508  0.7390  0.0169 -0.2735
  183SLPC   C1520878   1.895   6.955   2.563  0.2868  0.2877  0.4310
  183SLPC  H15A20879   1.979   6.892   2.590  1.3424  1.5839  0.3064
  183SLPC  H15B20880   1.903   6.987   2.460 -0.3164  1.3471  0.6908
  183SLPC  H15C20881   1.902   7.041   2.629 -2.9731  1.6493 -0.7800
  183SLPC   C1220882   1.740   6.877   2.725  0.0025  0.0596  0.3293
  183SLPC  H12A20883   1.815   6.820   2.776 -0.2143 -0.0442  0.5341
  183SLPC  H12B20884   1.647   6.824   2.739 -2.5584  3.2436 -2.5576
  183SLPC   C1120885   1.732   7.009   2.802 -0.4292 -0.3293 -0.0546
  183SLPC  H11A20886   1.833   7.054   2.809 -0.2241 -0.8390  0.3434
  183SLPC  H11B20887   1.703   6.984   2.907 -3.0999  2.0210 -0.1174
  183SLPC     P20888   1.483   7.073   2.768 -0.2474 -0.0291  0.1483
  183SLPC   O1320889   1.407   7.200   2.737 -0.7797  0.0640  0.3704
  183SLPC   O1420890   1.435   6.951   2.693  0.1021 -0.5856  0.1831
  183SLPC   O1220891   1.637   7.102   2.747  0.2426 -0.3075 -0.0176
  183SLPC   O1120892   1.463   7.028   2.912  0.0144  0.5653 -0.6690
  183SLPC    C120893   1.493   7.110   3.030  0.2934  0.1619 -0.2315
  183SLPC    HA20894   1.601   7.137   3.042  1.0060 -2.7757  0.7784
  183SLPC    HB20895   1.422   7.195   3.034 -0.3148 -0.3588  3.2114
  183SLPC    C220896   1.461   7.034   3.153 -0.3881 -0.6322 -1.0012
  183SLPC    HS20897   1.372   6.972   3.133 -0.0203 -1.2152 -0.8525
  183SLPC   O2120898   1.431   7.128   3.260  0.8288  0.7240 -0.6538
  183SLPC   C2120899   1.302   7.147   3.292  0.5841  0.7356 -0.2914
  183SLPC   O2220900   1.209   7.103   3.232  0.3302 -0.0826 -0.1374
  183SLPC   C2220901   1.284   7.237   3.416 -0.2907  0.0492  0.7504
  183SLPC   H2R20902   1.383   7.249   3.464  1.5336 -4.3710 -1.2912
  183SLPC   H2S20903   1.236   7.329   3.377 -2.1102 -0.8176  0.8139
  183SLPC    C320904   1.580   6.941   3.201 -0.0866 -0.5483 -0.4037
  183SLPC    HX20905   1.673   6.993   3.234  0.2425 -0.7255 -1.0224
  183SLPC    HY20906   1.612   6.872   3.120  2.1802 -0.4369  0.3233
  183SLPC   O3120907   1.523   6.858   3.302 -0.5813 -0.1355  0.9243
  183SLPC   C3120908   1.527   6.897   3.432  0.5537  0.5605  0.3387
  183SLPC   O3220909   1.578   6.991   3.479 -0.8945 -0.0573 -0.5309
  183SLPC   C3220910   1.442   6.792   3.510  0.3004 -0.1640 -0.1761
  183SLPC   H2X20911   1.482   6.689   3.504  0.1983 -0.2949  1.1242
  183SLPC   H2Y20912   1.342   6.798   3.462  0.3874  0.1964 -0.3188
  183SLPC   C2320913   1.183   7.175   3.518 -0.2904 -0.1126 -0.4632
  183SLPC   H3R20914   1.220   7.079   3.559 -1.0930 -0.3077 -0.1767
  183SLPC   H3S20915   1.094   7.161   3.453  0.2323 -1.7184 -0.8729
  183SLPC   C2420916   1.165   7.272   3.632  0.7242 -0.0754 -0.0665
  183SLPC   H4R20917   1.094   7.352   3.605 -0.8092 -0.7895  1.6401
  183SLPC   H4S20918   1.266   7.303   3.666  1.4456 -1.9319 -0.4105
  183SLPC   C2520919   1.087   7.216   3.758  0.3528 -0.8944  0.1851
  183SLPC   H5R20920   0.987   7.178   3.729  0.6064 -0.8916 -0.7294
  183SLPC   H5S20921   1.070   7.301   3.827  2.3084 -1.5093  1.5038
  183SLPC   C2620922   1.161   7.112   3.831 -0.9598 -0.5289  0.9210
  183SLPC   H6R20923   1.252   7.163   3.868  1.0271 -2.0989 -1.5625
  183SLPC   H6S20924   1.208   7.036   3.765  0.1100  0.4205  0.5616
  183SLPC   C2720925   1.092   7.063   3.958  0.1338 -0.2919 -0.0963
  183SLPC   H7R20926   1.005   7.002   3.926  0.3452 -0.7257  0.1399
  183SLPC   H7S20927   1.051   7.154   4.007 -0.2971  2.0573 -4.3090
  183SLPC   C2820928   1.187   6.990   4.053 -0.0606  0.0548 -0.5278
  183SLPC   H8R20929   1.254   7.067   4.097  1.7969 -1.7245 -0.0639
  183SLPC   H8S20930   1.247   6.922   3.989  0.1067  0.0067 -0.3229
  183SLPC   C2920931   1.136   6.888   4.156 -0.0228  0.2728  0.3427
  183SLPC   H9R20932   1.051   6.829   4.119 -0.1900 -0.1544  1.3737
  183SLPC  C21020933   1.158   6.874   4.287  0.2729 -0.0017 -0.0567
  183SLPC  H10R20934   1.104   6.803   4.351 -1.7404  2.8181  1.5710
  183SLPC  C21120935   1.261   6.961   4.368  0.3097  0.1615 -0.4599
  183SLPC  H11R20936   1.230   7.068   4.361  0.6919  0.3876  1.0618
  183SLPC  H11S20937   1.357   6.951   4.313 -0.3504 -0.4253 -1.5469
  183SLPC  C21220938   1.286   6.919   4.512 -0.2835  0.3978 -0.2587
  183SLPC  H12R20939   1.281   6.811   4.535 -1.3803  0.7441  1.2826
  183SLPC  C21320940   1.302   6.990   4.623 -0.3227  0.9577  0.1806
  183SLPC  H13R20941   1.318   6.935   4.718  0.2114  1.6280  0.4846
  183SLPC  C21420942   1.322   7.136   4.633  0.2059  0.2257  0.8832
  183SLPC  H14R20943   1.322   7.191   4.536 -1.1208  0.7217  1.1477
  183SLPC  H14S20944   1.414   7.172   4.684  1.3853  0.4947 -1.2957
  183SLPC  C21520945   1.220   7.216   4.715 -0.0219 -0.6290 -0.9316
  183SLPC  H15R20946   1.251   7.321   4.734 -1.2424 -0.6130  1.1499
  183SLPC  H15S20947   1.206   7.176   4.817  0.2012  2.5851  0.4636
  183SLPC  C21620948   1.087   7.227   4.647  0.3401  0.4656 -0.4207
  183SLPC  H16R20949   1.062   7.124   4.614  0.4086  0.2908  0.0547
  183SLPC  H16S20950   1.089   7.291   4.557 -1.0075 -2.0093 -2.3568
  183SLPC  C21720951   0.973   7.286   4.745  0.0972 -0.3145  0.1176
  183SLPC  H17R20952   0.905   7.321   4.665  1.5593  1.1252 -0.5683
  183SLPC  H17S20953   1.000   7.387   4.781 -0.0698  0.4175 -1.7017
  183SLPC  C21820954   0.899   7.190   4.841 -0.6568 -0.5323  0.4740
  183SLPC  H18R20955   0.860   7.105   4.782  0.6997 -0.4022 -0.6768
  183SLPC  H18S20956   0.818   7.239   4.898 -1.4540  1.1022 -1.9061
  183SLPC  H18T20957   0.978   7.145   4.904  0.8144  0.6098 -0.4765
  183SLPC   C3320958   1.423   6.821   3.660 -0.4662  0.0967  0.1991
  183SLPC   H3X20959   1.362   6.739   3.705  0.6097 -1.6730 -1.4433
  183SLPC   H3Y20960   1.386   6.922   3.686  0.9744  0.1659  2.2024
  183SLPC   C3420961   1.549   6.787   3.738 -0.3278 -0.0786 -0.7044
  183SLPC   H4X20962   1.629   6.861   3.714  0.0040  0.0279  0.6439
  183SLPC   H4Y20963   1.598   6.689   3.721  1.2850  0.8890 -2.0743
  183SLPC   C3520964   1.518   6.800   3.890 -0.4008 -0.5003 -0.8560
  183SLPC   H5X20965   1.432   6.738   3.925 -1.8443  1.6818 -0.3311
  183SLPC   H5Y20966   1.503   6.909   3.908 -1.4849 -0.4923 -1.6835
  183SLPC   C3620967   1.641   6.764   3.987 -0.9408 -0.1803 -0.2007
  183SLPC   H6X20968   1.739   6.788   3.941 -1.6318  0.6661 -1.3001
  183SLPC   H6Y20969   1.652   6.656   4.010 -0.7430  0.2766  2.1812
  183SLPC   C3720970   1.623   6.836   4.118  0.3192 -0.2745 -0.1351
  183SLPC   H7X20971   1.525   6.805   4.158 -0.1226 -0.4518 -1.3079
  183SLPC   H7Y20972   1.624   6.947   4.106  1.5244  0.0263  2.1256
  183SLPC   C3820973   1.735   6.806   4.222  0.9650 -0.0838  0.8955
  183SLPC   H8X20974   1.817   6.879   4.203  0.3089  0.6038  0.6132
  183SLPC   H8Y20975   1.758   6.699   4.206  2.9716  0.6444 -2.1393
  183SLPC   C3920976   1.690   6.832   4.366 -0.4030  0.0659 -0.2887
  183SLPC   H9X20977   1.589   6.792   4.387 -0.8237  1.6083  0.8376
  183SLPC   H9Y20978   1.683   6.941   4.388 -0.8495 -0.3101  1.5475
  183SLPC  C31020979   1.780   6.765   4.469 -0.5814 -0.0797  0.0252
  183SLPC  H10X20980   1.770   6.655   4.457  0.0041 -0.1785  0.3678
  183SLPC  H10Y20981   1.739   6.788   4.570  1.5244  1.1790  0.6655
  183SLPC  C31120982   1.929   6.784   4.441  0.1211  0.5648 -0.0148
  183SLPC  H11X20983   1.963   6.889   4.448 -0.6694  0.7845  0.6870
  183SLPC  H11Y20984   1.955   6.735   4.344  1.3946  2.0824 -0.4763
  183SLPC  C31220985   2.023   6.727   4.542  0.3194  0.6514 -0.1103
  183SLPC  H12X20986   2.014   6.783   4.637 -0.8304  1.0626 -0.4439
  183SLPC  H12Y20987   2.132   6.731   4.519  0.2347  0.8505 -0.4864
  183SLPC  C31320988   1.994   6.579   4.573  0.6316  0.3121 -0.4604
  183SLPC  H13X20989   1.989   6.528   4.475 -3.2383 -0.6360  0.0754
  183SLPC  H13Y20990   1.895   6.565   4.622  1.0150  1.3137  0.6621
  183SLPC  C31420991   2.109   6.519   4.653  0.4836  0.8062  0.7392
  183SLPC  H14X20992   2.209   6.531   4.605  0.2682  0.2730  0.1425
  183SLPC  H14Y20993   2.076   6.413   4.652 -1.1120  1.2811  0.0997
  183SLPC  C31520994   2.121   6.560   4.792 -0.1233 -0.7098  0.0536
  183SLPC  H15X20995   2.021   6.577   4.836 -0.8009 -1.0014 -1.3462
  183SLPC  H15Y20996   2.180   6.652   4.809 -2.2380  0.7186 -0.0838
  183SLPC  C31620997   2.193   6.454   4.883 -0.0543 -0.6001  0.4952
  183SLPC  H16X20998   2.298   6.465   4.848 -1.0389  1.7047 -2.1355
  183SLPC  H16Y20999   2.163   6.348   4.872 -0.9740 -0.3836  0.8294
  183SLPC  C31721000   2.204   6.491   5.030  0.9570 -0.4675 -0.8358
  183SLPC  H17X21001   2.248   6.589   5.057  1.4067 -1.4782  2.4817
  183SLPC  H17Y21002   2.273   6.423   5.084  1.5458  0.6912 -0.1010
  183SLPC  C31821003   2.068   6.486   5.096  0.1352  0.0624 -0.3352
  183SLPC  H18X21004   2.069   6.534   5.196 -0.1162 -0.8962  0.1421
  183SLPC  H18Y21005   2.020   6.386   5.109 -2.3869  1.2506  0.2365
  183SLPC  H18Z21006   1.996   6.545   5.036  1.4677  2.2168  0.0806
  184SLPC     N21007   6.355   2.845   2.065 -0.3470 -0.3049  0.3648
  184SLPC   C1321008   6.296   2.719   2.045 -0.0218  0.1389 -0.6165
  184SLPC  H13A21009   6.364   2.639   2.018 -1.5387 -1.0015 -1.2337
  184SLPC  H13B21010   6.266   2.678   2.140 -1.5157  0.3600 -0.9758
  184SLPC  H13C21011   6.209   2.713   1.982 -1.9757  0.8949  1.8528
  184SLPC   C1421012   6.254   2.939   2.132 -0.1331 -0.6162 -0.6711
  184SLPC  H14A21013   6.294   3.039   2.142 -0.5685 -0.6168  1.9151
  184SLPC  H14B21014   6.169   2.942   2.066  1.2178 -1.3123 -2.4996
  184SLPC  H14C21015   6.228   2.902   2.230  1.3896 -1.2678 -0.4823
  184SLPC   C1521016   6.400   2.907   1.931 -0.8230  0.0377  0.3560
  184SLPC  H15A21017   6.444   3.004   1.951  0.0424 -0.5847  1.6913
  184SLPC  H15B21018   6.468   2.837   1.885  0.3712  0.2097  1.7790
  184SLPC  H15C21019   6.320   2.917   1.859 -0.0893 -1.2787 -0.6845
  184SLPC   C1221020   6.475   2.832   2.164  0.3870  0.7466 -0.6804
  184SLPC  H12A21021   6.515   2.929   2.188  1.0132  0.5924 -1.0938
  184SLPC  H12B21022   6.556   2.778   2.117 -0.8131 -1.5432 -0.2806
  184SLPC   C1121023   6.450   2.764   2.299  0.3408 -0.5601 -0.1598
  184SLPC  H11A21024   6.546   2.732   2.344  0.3278 -0.4507 -0.0529
  184SLPC  H11B21025   6.385   2.675   2.286 -0.7054  0.1219  0.2339
  184SLPC     P21026   6.413   2.948   2.487 -0.3340  0.2967  0.0446
  184SLPC   O1321027   6.476   3.061   2.419  0.3702  0.3293 -0.3890
  184SLPC   O1421028   6.302   2.983   2.572  0.0887  0.4232  0.2230
  184SLPC   O1221029   6.364   2.837   2.390  0.3102  0.2840  0.7248
  184SLPC   O1121030   6.519   2.869   2.566 -0.2584  0.4583 -0.4157
  184SLPC    C121031   6.491   2.736   2.621  0.3452  0.2988  0.3755
  184SLPC    HA21032   6.387   2.699   2.606  0.1781  1.2354 -1.0141
  184SLPC    HB21033   6.546   2.659   2.563 -1.1194 -1.7459  1.5687
  184SLPC    C221034   6.509   2.744   2.773  0.0160 -0.4702 -0.4664
  184SLPC    HS21035   6.608   2.794   2.779  1.0416 -2.5461  1.4809
  184SLPC   O2121036   6.525   2.614   2.824 -0.1610  0.3817  0.0993
  184SLPC   C2121037   6.596   2.591   2.927  0.0257  0.3662 -0.2498
  184SLPC   O2221038   6.684   2.659   2.980  0.2809  0.0571 -0.4711
  184SLPC   C2221039   6.582   2.444   2.969 -0.6540 -0.3426 -0.2739
  184SLPC   H2R21040   6.473   2.427   2.977 -0.4593 -0.8655  1.9579
  184SLPC   H2S21041   6.634   2.379   2.894  0.4616 -0.5518  0.6644
  184SLPC    C321042   6.401   2.821   2.852 -0.1791 -0.5775 -0.3236
  184SLPC    HX21043   6.319   2.746   2.857  0.2434 -0.9525  2.1134
  184SLPC    HY21044   6.374   2.913   2.796 -1.4774 -0.8377 -0.1378
  184SLPC   O3121045   6.437   2.841   2.985  0.4346  0.1292  0.0753
  184SLPC   C3121046   6.520   2.937   3.015 -0.7636  0.1485 -0.0026
  184SLPC   O3221047   6.583   2.997   2.936 -0.8127  0.0516  0.3729
  184SLPC   C3221048   6.510   2.968   3.160  0.0745  0.2812 -0.0252
  184SLPC   H2X21049   6.420   3.033   3.161  0.1240  0.3472  0.3111
  184SLPC   H2Y21050   6.602   3.030   3.164  0.8273 -0.6432 -1.8597
  184SLPC   C2321051   6.649   2.407   3.107 -0.2866 -0.6127 -0.0329
  184SLPC   H3R21052   6.743   2.464   3.123 -0.2908 -0.4582 -0.5322
  184SLPC   H3S21053   6.673   2.299   3.103  1.2042 -0.3952  1.7595
  184SLPC   C2421054   6.545   2.437   3.218 -0.0038  0.3219  0.2973
  184SLPC   H4R21055   6.458   2.370   3.205 -0.3443  0.9292 -0.7573
  184SLPC   H4S21056   6.497   2.535   3.196  0.1415  0.5246  0.8700
  184SLPC   C2521057   6.626   2.441   3.348 -0.1356  0.1842  0.1085
  184SLPC   H5R21058   6.719   2.499   3.329  1.8358 -2.8823 -0.3041
  184SLPC   H5S21059   6.646   2.335   3.375 -4.5421 -1.1880 -1.1012
  184SLPC   C2621060   6.532   2.491   3.459 -0.1893  0.4274 -0.1064
  184SLPC   H6R21061   6.437   2.433   3.455  0.8152 -1.2261 -0.6722
  184SLPC   H6S21062   6.507   2.594   3.426 -0.6122  0.4142  0.1618
  184SLPC   C2721063   6.591   2.482   3.600  0.4674 -0.3064 -0.1005
  184SLPC   H7R21064   6.692   2.529   3.600  0.6538 -0.7012 -0.1072
  184SLPC   H7S21065   6.599   2.375   3.631 -0.7556 -0.2763  0.3614
  184SLPC   C2821066   6.510   2.566   3.710  0.3253 -0.6223 -0.0679
  184SLPC   H8R21067   6.450   2.637   3.651 -1.0998 -0.8946  1.0057
  184SLPC   H8S21068   6.577   2.632   3.769 -1.1827  0.4113  0.5408
  184SLPC   C2921069   6.429   2.489   3.803  0.5018 -0.7072  0.1584
  184SLPC   H9R21070   6.320   2.479   3.794  0.1871  0.0174  2.4001
  184SLPC  C21021071   6.489   2.421   3.904  0.1804  0.0083  0.1445
  184SLPC  H10R21072   6.426   2.364   3.974  0.3187  1.3364  1.3976
  184SLPC  C21121073   6.642   2.414   3.938  0.7257  0.8942  0.2522
  184SLPC  H11R21074   6.659   2.465   4.036  0.0602  2.7374 -0.5390
  184SLPC  H11S21075   6.693   2.477   3.862  0.0523  1.1240 -0.0163
  184SLPC  C21221076   6.709   2.279   3.952 -0.3071  0.4370  0.1558
  184SLPC  H12R21077   6.769   2.252   3.864 -1.1624 -0.6217 -0.1206
  184SLPC  C21321078   6.686   2.180   4.036  0.0273  0.1549 -0.1102
  184SLPC  H13R21079   6.749   2.090   4.032 -0.7100 -0.4245  0.8427
  184SLPC  C21421080   6.605   2.195   4.165  0.7350  0.1259 -0.1855
  184SLPC  H14R21081   6.588   2.092   4.204  0.9729 -0.2777 -1.1063
  184SLPC  H14S21082   6.511   2.254   4.162  1.5349  1.7313  2.6997
  184SLPC  C21521083   6.692   2.260   4.269  0.4632  0.2454  0.0620
  184SLPC  H15R21084   6.726   2.364   4.251  2.9175 -0.8360 -2.2276
  184SLPC  H15S21085   6.793   2.214   4.268  1.1956  1.8075 -1.1777
  184SLPC  C21621086   6.647   2.236   4.414 -0.0098  0.3281 -0.6494
  184SLPC  H16R21087   6.649   2.127   4.436  1.2617  0.6992  1.4664
  184SLPC  H16S21088   6.540   2.255   4.436  0.1377 -1.6430  2.5058
  184SLPC  C21721089   6.746   2.307   4.514  0.4996 -0.2336 -0.1303
  184SLPC  H17R21090   6.751   2.415   4.486 -1.2094  0.3639  1.6341
  184SLPC  H17S21091   6.847   2.262   4.523  0.9908  0.5063 -1.6509
  184SLPC  C21821092   6.676   2.311   4.649 -0.3146 -0.0563 -0.3644
  184SLPC  H18R21093   6.744   2.364   4.719 -1.1558  1.3627 -0.5832
  184SLPC  H18S21094   6.670   2.203   4.671  0.7409  0.3303  2.1066
  184SLPC  H18T21095   6.578   2.362   4.664 -1.6911 -3.2624  3.1562
  184SLPC   C3321096   6.514   2.851   3.259 -0.1086  0.3925  0.5868
  184SLPC   H3X21097   6.601   2.785   3.240 -0.4886  0.1192 -0.2529
  184SLPC   H3Y21098   6.422   2.790   3.243  0.7305 -0.6014 -0.5384
  184SLPC   C3421099   6.523   2.899   3.402  0.2290  0.3118  0.0621
  184SLPC   H4X21100   6.476   2.817   3.460  2.0720 -1.9700 -1.4806
  184SLPC   H4Y21101   6.458   2.988   3.417 -1.4710 -0.3143 -2.8254
  184SLPC   C3521102   6.667   2.919   3.438 -0.2046  0.8158 -0.6477
  184SLPC   H5X21103   6.678   2.987   3.525 -0.7711  2.3019 -1.7000
  184SLPC   H5Y21104   6.723   2.984   3.369 -0.3700  0.9182 -0.6845
  184SLPC   C3621105   6.740   2.784   3.482 -0.7682 -0.2693 -0.0494
  184SLPC   H6X21106   6.739   2.714   3.396  0.0437 -0.4316  0.0661
  184SLPC   H6Y21107   6.669   2.742   3.557  1.3161  0.7815  2.6698
  184SLPC   C3721108   6.880   2.795   3.545 -0.4519 -0.2257 -0.3582
  184SLPC   H7X21109   6.937   2.854   3.470  1.0175  0.5533  1.2834
  184SLPC   H7Y21110   6.918   2.691   3.550 -1.9654 -0.7784  0.3622
  184SLPC   C3821111   6.887   2.843   3.693 -0.7896  0.4752  0.2020
  184SLPC   H8X21112   6.880   2.953   3.682  3.4052  0.7995 -1.1124
  184SLPC   H8Y21113   6.992   2.820   3.721  0.1304  0.1811 -3.1083
  184SLPC   C3921114   6.798   2.796   3.804  0.3401  0.4281  0.5192
  184SLPC   H9X21115   6.794   2.685   3.797 -3.2970  0.5301 -1.6337
  184SLPC   H9Y21116   6.694   2.824   3.778  0.4386  1.0856  0.8170
  184SLPC  C31021117   6.835   2.847   3.944  0.1329 -0.4918 -0.4854
  184SLPC  H10X21118   6.835   2.958   3.951 -0.5524 -0.5120 -0.0527
  184SLPC  H10Y21119   6.932   2.797   3.964 -0.6149 -2.7060 -1.9636
  184SLPC  C31121120   6.720   2.802   4.037  0.1935  0.4208  0.4094
  184SLPC  H11X21121   6.704   2.692   4.025  1.9123  0.0541  1.0322
  184SLPC  H11Y21122   6.630   2.849   3.993  0.9110 -0.0121 -1.6331
  184SLPC  C31221123   6.735   2.839   4.190  0.1055  0.1346 -0.2414
  184SLPC  H12X21124   6.793   2.933   4.201 -0.2092  0.1449  1.5860
  184SLPC  H12Y21125   6.789   2.764   4.251 -1.9690  0.1098  1.6868
  184SLPC  C31321126   6.596   2.843   4.260  0.0396  0.0029  0.2051
  184SLPC  H13X21127   6.521   2.904   4.205  1.0603  2.5034  1.4795
  184SLPC  H13Y21128   6.613   2.896   4.356  1.8508 -0.0820 -0.0483
  184SLPC  C31421129   6.540   2.705   4.311 -0.4667  0.5954 -0.5090
  184SLPC  H14X21130   6.549   2.633   4.227 -0.0162  1.9133 -1.6305
  184SLPC  H14Y21131   6.437   2.720   4.348 -0.0464  1.2834  0.4376
  184SLPC  C31521132   6.618   2.663   4.436  0.4685  0.3286 -0.0858
  184SLPC  H15X21133   6.725   2.687   4.420  0.6309 -0.5585 -0.4061
  184SLPC  H15Y21134   6.608   2.552   4.442  0.6124  0.3718  1.5283
  184SLPC  C31621135   6.548   2.721   4.558 -0.1846  1.3092 -0.4231
  184SLPC  H16X21136   6.450   2.674   4.579  0.2970  0.7573  0.6527
  184SLPC  H16Y21137   6.520   2.828   4.546 -2.1678  1.0184  1.1949
  184SLPC  C31721138   6.634   2.691   4.679 -0.3644  0.1116  0.8284
  184SLPC  H17X21139   6.744   2.680   4.665 -0.9344 -1.8038 -3.6154
  184SLPC  H17Y21140   6.604   2.591   4.716 -3.1053 -0.1283 -1.7519
  184SLPC  C31821141   6.577   2.783   4.792 -0.0487  0.7704  0.3311
  184SLPC  H18X21142   6.612   2.766   4.896 -1.7570  1.5110  1.0582
  184SLPC  H18Y21143   6.467   2.773   4.801  0.0165  1.4561  2.2596
  184SLPC  H18Z21144   6.595   2.890   4.771 -0.2432  1.1250  1.8866
  185POPC     N21145   1.181   1.526   7.195  0.5716 -0.2124 -0.9030
  185POPC   C1221146   1.106   1.528   7.061 -0.9980 -0.4163  0.1215
  185POPC  H12A21147   1.059   1.624   7.045 -1.0410 -0.5269 -0.4129
  185POPC  H12B21148   1.020   1.462   7.067 -0.8073 -0.6431  0.3956
  185POPC   C1321149   1.294   1.621   7.194  0.7335 -0.1182  0.5892
  185POPC  H13A21150   1.337   1.632   7.292  1.1919  1.1943  0.2531
  185POPC  H13B21151   1.376   1.598   7.127  0.3574  0.4596 -0.0851
  185POPC  H13C21152   1.268   1.722   7.166 -0.4114 -0.0233  1.9006
  185POPC   C1421153   1.086   1.574   7.305 -0.1649 -0.2834 -0.0114
  185POPC  H14A21154   1.130   1.602   7.399 -2.3831  2.6954  0.2709
  185POPC  H14B21155   1.040   1.669   7.282  0.2403 -0.3854 -1.3432
  185POPC  H14C21156   1.030   1.488   7.336 -0.7996 -0.6063 -1.9240
  185POPC   C1521157   1.223   1.393   7.245 -0.8041 -0.0093 -0.3856
  185POPC  H15A21158   1.265   1.330   7.168 -0.4712 -0.2219 -0.0294
  185POPC  H15B21159   1.137   1.344   7.288  0.8729 -0.5556  2.5658
  185POPC  H15C21160   1.300   1.393   7.320  2.3838 -2.1473 -3.3894
  185POPC   C1121161   1.185   1.485   6.933 -0.0790 -1.4327  0.1426
  185POPC  H11A21162   1.265   1.561   6.920 -0.8204 -0.0996  2.7388
  185POPC  H11B21163   1.114   1.483   6.847 -0.1136 -1.7817  0.1791
  185POPC     P21164   1.140   1.232   6.937 -0.4143 -0.3099 -0.2806
  185POPC   O1321165   1.008   1.264   7.005 -0.6372 -0.4591 -0.2421
  185POPC   O1421166   1.224   1.107   6.978  1.4351  0.6424  0.6323
  185POPC   O1221167   1.237   1.357   6.951 -0.1194  0.6247  0.4786
  185POPC   O1121168   1.099   1.226   6.783  0.6328 -0.3540 -0.1586
  185POPC    C121169   1.204   1.172   6.700 -0.0306 -0.7358  0.2214
  185POPC    HA21170   1.213   1.063   6.715 -1.0294 -0.8874 -0.2373
  185POPC    HB21171   1.306   1.214   6.715 -0.1972  0.1839 -0.9863
  185POPC    C221172   1.193   1.192   6.543  0.4283 -0.0444 -0.0804
  185POPC    HS21173   1.291   1.177   6.492  0.9238  1.7897  0.2420
  185POPC   O2121174   1.153   1.329   6.504 -0.1299  0.0824  0.2547
  185POPC   C2121175   1.240   1.429   6.543 -0.4434 -0.2834 -0.4482
  185POPC   O2221176   1.356   1.409   6.575 -0.0826 -0.4477  0.6755
  185POPC   C2221177   1.157   1.558   6.556 -0.2044 -0.0561 -0.1458
  185POPC   H2R21178   1.074   1.536   6.627 -0.2410 -1.2080 -0.5265
  185POPC   H2S21179   1.106   1.562   6.457 -0.3708  1.6630 -0.0176
  185POPC    C321180   1.088   1.090   6.486  0.4122  0.1734  0.2462
  185POPC    HX21181   0.994   1.135   6.525  1.5657  0.4845  2.8918
  185POPC    HY21182   1.114   0.992   6.532 -1.9140 -0.9055 -0.5674
  185POPC   O3121183   1.091   1.097   6.348  0.2332  0.1209  0.1989
  185POPC   C3121184   1.161   1.010   6.273  0.1514  0.3825  0.4221
  185POPC   O3221185   1.240   0.929   6.316  0.2858  0.1729 -1.1612
  185POPC   C3221186   1.133   1.055   6.126 -0.1298 -0.2970 -0.1289
  185POPC   H2X21187   1.150   1.165   6.123 -0.0152 -0.3219 -0.5520
  185POPC   H2Y21188   1.024   1.041   6.109 -1.3962  4.1278  2.8025
  185POPC   C2321189   1.230   1.688   6.590 -0.1371  0.7047 -0.6657
  185POPC   H3R21190   1.340   1.674   6.575  0.2897  0.4676  2.1648
  185POPC   H3S21191   1.215   1.706   6.698 -0.8061 -1.9102 -0.2505
  185POPC   C2421192   1.191   1.808   6.511 -0.0430  0.1606 -0.1209
  185POPC   H4R21193   1.220   1.895   6.574  0.9947 -0.4712  0.2962
  185POPC   H4S21194   1.080   1.802   6.499 -0.0400 -3.4061  0.5464
  185POPC   C2521195   1.250   1.792   6.374 -0.1607 -0.9217  0.2243
  185POPC   H5R21196   1.251   1.686   6.342  0.3468 -0.1417 -2.6575
  185POPC   H5S21197   1.355   1.827   6.372 -0.8327  1.2195 -0.1754
  185POPC   C2621198   1.174   1.870   6.263  0.2682  0.6757  0.8564
  185POPC   H6R21199   1.082   1.815   6.235 -0.4126  2.1381  0.1126
  185POPC   H6S21200   1.232   1.871   6.168  0.5692  0.0077  1.0237
  185POPC   C2721201   1.145   2.020   6.305 -0.1896  0.6581  0.0124
  185POPC   H7R21202   1.224   2.045   6.379 -0.1323 -1.6045  0.7855
  185POPC   H7S21203   1.045   2.021   6.353 -0.2868  0.6210 -0.1853
  185POPC   C2821204   1.135   2.122   6.185 -0.6368 -0.1072  0.0723
  185POPC   H8R21205   1.114   2.219   6.235 -3.9750 -0.6381 -0.0838
  185POPC   H8S21206   1.036   2.103   6.139 -0.3329 -2.5996  0.3314
  185POPC   C2921207   1.250   2.125   6.100  0.3816 -0.3724  0.6826
  185POPC   H9121208   1.341   2.132   6.162  0.8656 -2.4287  0.2864
  185POPC  C21021209   1.253   2.106   5.967 -0.2341 -0.1108 -0.1989
  185POPC  H10121210   1.349   2.100   5.914 -0.4125 -1.5915 -0.4049
  185POPC  C21121211   1.135   2.089   5.868 -0.7371 -0.0800  0.4821
  185POPC  H11R21212   1.130   2.175   5.798  0.4490  0.3493  0.8905
  185POPC  H11S21213   1.036   2.099   5.918 -0.6574  0.1814  0.5920
  185POPC  C21221214   1.137   1.957   5.792  0.1887  0.7165 -0.2166
  185POPC  H12R21215   1.220   1.961   5.718  0.6148 -1.6905  0.0647
  185POPC  H12S21216   1.041   1.963   5.736  0.8158  0.1536 -1.3837
  185POPC  C21321217   1.142   1.830   5.880 -0.3703 -0.5709  0.1836
  185POPC  H13R21218   1.062   1.814   5.955 -1.5301  0.9333 -0.6535
  185POPC  H13S21219   1.240   1.833   5.931 -0.5706  0.6293  0.5348
  185POPC  C21421220   1.143   1.704   5.785 -0.4223 -0.4278 -0.0801
  185POPC  H14R21221   1.241   1.711   5.734 -1.0225 -2.2035 -1.6488
  185POPC  H14S21222   1.074   1.710   5.697  1.2480  0.4850 -1.3720
  185POPC  C21521223   1.135   1.581   5.874  0.0503  0.1379 -0.3477
  185POPC  H15R21224   1.149   1.484   5.820  0.4524 -0.3854  0.6701
  185POPC  H15S21225   1.036   1.585   5.925 -0.9669 -2.5345 -1.9216
  185POPC  C21621226   1.225   1.572   5.996  0.3875  0.8859  0.0961
  185POPC  H16R21227   1.223   1.662   6.060 -0.9186 -0.5313  2.1827
  185POPC  H16S21228   1.331   1.573   5.964  0.8846 -1.1130  1.4751
  185POPC  C21721229   1.192   1.445   6.073 -0.1058 -0.8959  0.2380
  185POPC  H17R21230   1.179   1.359   6.004 -1.5418  0.2052 -0.9315
  185POPC  H17S21231   1.090   1.464   6.111  0.2874  2.4924 -0.0482
  185POPC  C21821232   1.294   1.409   6.181  0.0149  0.2332  0.7939
  185POPC  H18R21233   1.270   1.307   6.219  0.7559 -0.0110  0.6271
  185POPC  H18S21234   1.290   1.477   6.269  0.1680  1.3475 -0.0445
  185POPC  H18T21235   1.395   1.410   6.134  0.1132  2.8060  0.9030
  185POPC   C3321236   1.225   0.980   6.032  0.4387  0.5294  0.7025
  185POPC   H3X21237   1.176   0.886   6.001  1.2268  0.2584  0.2456
  185POPC   H3Y21238   1.324   0.956   6.078  0.7867  1.0523  0.2549
  185POPC   C3421239   1.262   1.053   5.904 -0.7284 -0.5496 -0.2937
  185POPC   H4X21240   1.364   1.014   5.881 -0.1719 -0.5023  1.8369
  185POPC   H4Y21241   1.259   1.164   5.914  2.3663 -0.2325 -1.4609
  185POPC   C3521242   1.167   1.029   5.791  0.4940 -0.2089  0.6417
  185POPC   H5X21243   1.067   1.073   5.811  0.7317  2.1945 -2.5620
  185POPC   H5Y21244   1.154   0.923   5.762 -0.4189  0.2778 -0.8624
  185POPC   C3621245   1.202   1.083   5.653 -0.1743  0.2399 -0.6962
  185POPC   H6X21246   1.121   1.059   5.580 -1.1228  0.2010  0.3474
  185POPC   H6Y21247   1.281   1.014   5.614 -0.9680 -2.2649  1.8096
  185POPC   C3721248   1.228   1.234   5.640 -0.6723  0.7262  0.2650
  185POPC   H7X21249   1.299   1.269   5.718 -0.8293  2.6601 -0.3962
  185POPC   H7Y21250   1.136   1.296   5.641 -1.1175  0.0780  0.0317
  185POPC   C3821251   1.307   1.267   5.514  0.2636  0.3713 -0.3917
  185POPC   H8X21252   1.373   1.181   5.489 -0.2514  0.3172 -1.6235
  185POPC   H8Y21253   1.382   1.349   5.520  0.5782  0.0685 -0.0681
  185POPC   C3921254   1.219   1.301   5.393  0.5091 -0.3460  0.2397
  185POPC   H9X21255   1.150   1.384   5.418 -0.7901 -1.4582  0.4473
  185POPC   H9Y21256   1.153   1.212   5.380 -1.1031  0.7911  0.3145
  185POPC  C31021257   1.313   1.333   5.269  0.0241  0.9473  0.1406
  185POPC  H10X21258   1.378   1.245   5.252 -2.7236 -1.6114  1.8875
  185POPC  H10Y21259   1.377   1.414   5.309  1.0145 -0.5396  1.6828
  185POPC  C31121260   1.241   1.374   5.139 -0.4775  0.6056  0.6420
  185POPC  H11X21261   1.308   1.436   5.076 -0.9459 -0.3770 -0.8726
  185POPC  H11Y21262   1.154   1.440   5.161 -0.6632  1.2033 -1.5832
  185POPC  C31221263   1.192   1.248   5.071  0.3167  0.0216 -0.0249
  185POPC  H12X21264   1.102   1.214   5.127 -1.1471  1.5254 -1.3586
  185POPC  H12Y21265   1.269   1.168   5.062 -1.2565 -1.3807 -2.1938
  185POPC  C31321266   1.133   1.258   4.930  0.3286  0.1316  0.0643
  185POPC  H13X21267   1.033   1.307   4.939 -0.8977 -2.3646  0.8671
  185POPC  H13Y21268   1.119   1.153   4.898 -0.1148 -0.4500  2.0477
  185POPC  C31421269   1.216   1.330   4.830 -0.1719  0.0862  0.1154
  185POPC  H14X21270   1.303   1.264   4.812  0.5911  0.6764  1.4583
  185POPC  H14Y21271   1.263   1.424   4.867 -1.7287  0.5291  1.0849
  185POPC  C31521272   1.146   1.355   4.695 -0.4788 -0.0782 -0.5085
  185POPC  H15X21273   1.048   1.405   4.712 -0.4936 -0.5730  1.0395
  185POPC  H15Y21274   1.120   1.264   4.637 -0.4057 -0.3870 -0.0603
  185POPC  C31621275   1.238   1.433   4.604 -0.5309 -0.4889  0.0066
  185POPC  H16X21276   1.188   1.473   4.513 -0.2569  2.5626  1.0903
  185POPC  H16Y21277   1.323   1.367   4.577  0.6100 -0.1357  2.4334
  185POPC  H16Z21278   1.274   1.527   4.651  0.8782  0.6488 -3.0586
  186POPC     N21279   1.796   0.135   7.573 -0.4360  0.5053  0.0190
  186POPC   C1221280   1.811   0.085   7.426  0.4512 -0.5832  0.0670
  186POPC  H12A21281   1.721   0.109   7.372  1.1751  1.4682 -0.3136
  186POPC  H12B21282   1.819  -0.022   7.432 -0.3576 -0.6421  0.1982
  186POPC   C1321283   1.666   0.075   7.626 -0.0917  0.1953  0.1008
  186POPC  H13A21284   1.590   0.097   7.553 -1.9368 -0.7105  1.6724
  186POPC  H13B21285   1.680  -0.029   7.648  0.4058  0.1871 -0.2311
  186POPC  H13C21286   1.634   0.109   7.723 -0.7600 -0.1484  0.0046
  186POPC   C1421287   1.918   0.099   7.652  0.1038  0.2501 -0.1074
  186POPC  H14A21288   2.004   0.147   7.607  0.9361 -0.9207  0.1725
  186POPC  H14B21289   1.906   0.108   7.759  0.6043  0.0602 -0.0310
  186POPC  H14C21290   1.945  -0.003   7.627  2.2516  1.3270 -2.7118
  186POPC   C1521291   1.770   0.283   7.579 -0.1461 -0.3995  0.3522
  186POPC  H15A21292   1.732   0.312   7.676 -0.2085  0.4679  0.0787
  186POPC  H15B21293   1.681   0.301   7.519 -0.4835 -0.3052  0.8757
  186POPC  H15C21294   1.849   0.352   7.551  0.9061 -0.9905  1.7577
  186POPC   C1121295   1.938   0.139   7.342  0.4992  0.3223  0.1897
  186POPC  H11A21296   1.923   0.087   7.244 -0.8331  0.2304  0.4295
  186POPC  H11B21297   2.032   0.113   7.395  0.0607  1.8397  1.7947
  186POPC     P21298   1.845   0.356   7.227 -0.3526  0.1237  0.1628
  186POPC   O1321299   1.866   0.503   7.242  0.3980  0.2654 -0.4307
  186POPC   O1421300   1.708   0.303   7.234 -0.2457 -0.6994  0.2807
  186POPC   O1221301   1.930   0.283   7.334 -0.0581 -0.1290  0.3412
  186POPC   O1121302   1.904   0.294   7.096  0.3143 -0.2398  0.7357
  186POPC    C121303   2.043   0.296   7.075 -0.4729 -0.2340  0.3214
  186POPC    HA21304   2.058   0.204   7.015 -2.2577  0.3576 -1.0906
  186POPC    HB21305   2.108   0.283   7.165 -1.0589 -1.6384  0.5588
  186POPC    C221306   2.096   0.425   7.010 -0.4813  1.0345 -0.4225
  186POPC    HS21307   2.085   0.509   7.081  2.3467  0.1494  1.2498
  186POPC   O2121308   2.022   0.447   6.888 -0.1439 -0.2025  0.1259
  186POPC   C2121309   2.043   0.570   6.842 -0.0067 -0.2644 -0.7782
  186POPC   O2221310   2.097   0.664   6.898 -0.2016 -0.0686 -0.1077
  186POPC   C2221311   1.977   0.571   6.702  0.2656  0.5934 -0.1769
  186POPC   H2R21312   1.902   0.652   6.702  2.0978  2.3773  0.6533
  186POPC   H2S21313   1.935   0.469   6.690  2.5242 -0.6455  1.6012
  186POPC    C321314   2.254   0.405   6.990 -0.2793  0.7724 -1.3216
  186POPC    HX21315   2.282   0.389   7.096  2.5868 -2.1893 -2.3795
  186POPC    HY21316   2.292   0.505   6.959  3.5284  0.2600  1.0825
  186POPC   O3121317   2.303   0.300   6.902 -0.2807  0.3741 -0.0051
  186POPC   C3121318   2.427   0.272   6.907 -0.5302  0.1084  0.0165
  186POPC   O3221319   2.505   0.321   6.987  0.7538  0.3222 -0.3601
  186POPC   C3221320   2.463   0.181   6.793  0.0265  0.2278  0.5811
  186POPC   H2X21321   2.402   0.214   6.707 -2.2926  1.2261  2.4714
  186POPC   H2Y21322   2.428   0.080   6.823  2.5410 -0.9991 -0.3283
  186POPC   C2321323   2.068   0.575   6.581 -0.3307 -0.0531  1.1306
  186POPC   H3R21324   2.171   0.537   6.598  0.9944  3.2470  1.1623
  186POPC   H3S21325   2.070   0.680   6.545 -0.5196 -0.8721 -1.5305
  186POPC   C2421326   2.003   0.506   6.458  0.3226  0.2286  0.0423
  186POPC   H4R21327   1.896   0.532   6.445 -0.3452 -1.5569  1.5977
  186POPC   H4S21328   2.010   0.397   6.479 -1.6326 -0.0210 -0.3465
  186POPC   C2521329   2.064   0.550   6.323 -0.6216  0.9828 -0.3978
  186POPC   H5R21330   2.172   0.532   6.344 -1.3570 -1.4763  1.9761
  186POPC   H5S21331   2.038   0.655   6.302  0.3874  1.1385 -0.9316
  186POPC   C2621332   2.018   0.452   6.213  0.1650 -0.0057 -0.2889
  186POPC   H6R21333   1.909   0.463   6.193  0.0356  0.1768  0.4764
  186POPC   H6S21334   2.036   0.344   6.231  0.8641 -0.4247 -3.0727
  186POPC   C2721335   2.101   0.482   6.092  0.4758 -0.5077  0.7056
  186POPC   H7R21336   2.205   0.462   6.125 -0.2214 -3.0419  1.6151
  186POPC   H7S21337   2.081   0.583   6.050  0.0559 -0.6845  0.4713
  186POPC   C2821338   2.073   0.376   5.974 -0.1815 -0.3729 -0.2412
  186POPC   H8R21339   2.115   0.282   6.015 -3.2952 -2.0762 -0.6646
  186POPC   H8S21340   2.132   0.410   5.886 -0.6545  1.5161  0.1282
  186POPC   C2921341   1.925   0.351   5.948 -0.2079  0.0240  0.3628
  186POPC   H9121342   1.875   0.307   6.036 -1.7317 -0.7517 -0.8299
  186POPC  C21021343   1.855   0.369   5.829  1.3443  0.0603 -0.1171
  186POPC  H10121344   1.749   0.338   5.827  1.8194 -1.7240 -2.2412
  186POPC  C21121345   1.915   0.421   5.701 -0.5481  0.3376 -0.2076
  186POPC  H11R21346   2.023   0.442   5.713 -0.5320 -0.2177  0.8212
  186POPC  H11S21347   1.861   0.518   5.697 -2.8354 -0.8534 -0.3229
  186POPC  C21221348   1.898   0.364   5.560 -0.0323 -0.5951 -0.1125
  186POPC  H12R21349   1.799   0.396   5.523 -0.6550 -1.5989  0.6388
  186POPC  H12S21350   1.901   0.252   5.558  0.5429 -0.5736 -1.0748
  186POPC  C21321351   2.000   0.420   5.458  0.1093 -0.2050 -0.7724
  186POPC  H13R21352   2.098   0.372   5.478 -0.0616  0.7599  3.1116
  186POPC  H13S21353   2.014   0.531   5.456  0.8290 -0.1319  2.5275
  186POPC  C21421354   1.963   0.386   5.313 -0.0010 -0.1733 -0.0720
  186POPC  H14R21355   1.931   0.281   5.302 -0.9583  0.2759 -1.9336
  186POPC  H14S21356   2.056   0.387   5.251 -0.1680  0.6525 -0.3180
  186POPC  C21521357   1.861   0.483   5.250  0.1983 -0.2531  0.1335
  186POPC  H15R21358   1.887   0.586   5.282 -1.2776  0.8716 -2.0526
  186POPC  H15S21359   1.754   0.462   5.273  0.8177 -2.0185  1.7046
  186POPC  C21621360   1.868   0.478   5.099  0.4788  0.0379 -0.0116
  186POPC  H16R21361   1.832   0.391   5.040  0.4829  0.7711 -1.1500
  186POPC  H16S21362   1.973   0.483   5.063  0.2006 -1.9431 -1.2262
  186POPC  C21721363   1.782   0.586   5.028  0.6832 -0.0221 -0.6821
  186POPC  H17R21364   1.804   0.590   4.920 -2.3539 -0.4772 -1.4000
  186POPC  H17S21365   1.804   0.689   5.064 -2.0908  0.6151 -0.6349
  186POPC  C21821366   1.632   0.564   5.041  0.3748 -0.3403  0.3089
  186POPC  H18R21367   1.599   0.546   5.146 -1.7230  3.3094  0.4280
  186POPC  H18S21368   1.599   0.473   4.986 -2.0375  0.1853  0.7522
  186POPC  H18T21369   1.580   0.655   5.004  0.7678 -0.1352  0.2640
  186POPC   C3321370   2.604   0.181   6.738 -0.6912  0.3846 -0.7242
  186POPC   H3X21371   2.612   0.118   6.647  0.9448  0.5339 -0.7103
  186POPC   H3Y21372   2.675   0.125   6.801  0.3301  0.2373 -1.9524
  186POPC   C3421373   2.672   0.314   6.715 -0.4404  0.9635  0.4520
  186POPC   H4X21374   2.781   0.294   6.708 -0.3017  2.1690 -2.9973
  186POPC   H4Y21375   2.662   0.378   6.805  0.2924  0.4851  0.8824
  186POPC   C3521376   2.650   0.390   6.580  0.1549  0.4480 -0.2251
  186POPC   H5X21377   2.653   0.315   6.498  0.5540  0.1274  0.0791
  186POPC   H5Y21378   2.742   0.452   6.567  1.2617 -0.8970  0.9776
  186POPC   C3621379   2.516   0.473   6.586 -0.5855 -0.5295  0.2973
  186POPC   H6X21380   2.534   0.542   6.671  0.7070  1.5989 -1.6050
  186POPC   H6Y21381   2.426   0.416   6.616 -1.2547  0.0261 -0.6038
  186POPC   C3721382   2.484   0.566   6.473  0.4798 -0.3537  0.3697
  186POPC   H7X21383   2.391   0.628   6.476  1.8786  1.8693  0.4578
  186POPC   H7Y21384   2.451   0.497   6.392  3.1933  2.1916 -3.2381
  186POPC   C3821385   2.598   0.660   6.422  0.5488  0.8518 -0.4329
  186POPC   H8X21386   2.690   0.603   6.397 -1.4317 -2.0273 -1.6968
  186POPC   H8Y21387   2.626   0.731   6.503  1.3335  0.5255 -0.4145
  186POPC   C3921388   2.554   0.746   6.304 -0.5666  0.2694  0.2422
  186POPC   H9X21389   2.641   0.803   6.266 -0.2078 -1.7287 -2.1845
  186POPC   H9Y21390   2.485   0.823   6.345 -0.7033  0.2125  0.1191
  186POPC  C31021391   2.499   0.658   6.188 -0.4757  0.1996 -0.7423
  186POPC  H10X21392   2.402   0.618   6.226  1.5289 -1.7283  2.8519
  186POPC  H10Y21393   2.573   0.575   6.183  1.6055  1.5060  3.4531
  186POPC  C31121394   2.492   0.747   6.068 -0.1139 -0.3117  0.0111
  186POPC  H11X21395   2.591   0.784   6.036 -0.4312  1.8795  1.3879
  186POPC  H11Y21396   2.422   0.830   6.088  0.5618  0.0841  0.7414
  186POPC  C31221397   2.440   0.683   5.936 -0.0097 -0.5514  0.2357
  186POPC  H12X21398   2.405   0.760   5.863 -0.5270  0.0721  1.1286
  186POPC  H12Y21399   2.347   0.624   5.949 -0.6695  0.4499  0.1780
  186POPC  C31321400   2.525   0.562   5.863 -0.0377 -0.3635  0.2631
  186POPC  H13X21401   2.564   0.481   5.928  1.7666 -0.1712 -0.5233
  186POPC  H13Y21402   2.618   0.601   5.816 -0.1834  0.7893  0.9008
  186POPC  C31421403   2.448   0.504   5.744 -0.1917 -0.0347 -0.3392
  186POPC  H14X21404   2.449   0.577   5.660  0.3745  0.5837  0.1927
  186POPC  H14Y21405   2.345   0.485   5.780 -0.3487 -1.9843 -1.6562
  186POPC  C31521406   2.508   0.365   5.698  0.2833 -1.3195 -0.0999
  186POPC  H15X21407   2.535   0.308   5.789 -0.8877 -1.6524  0.0555
  186POPC  H15Y21408   2.604   0.376   5.643 -0.8421  0.1611 -1.8846
  186POPC  C31621409   2.409   0.292   5.607  0.1612 -0.5151  0.0646
  186POPC  H16X21410   2.365   0.356   5.528  0.4300 -0.2025  0.1666
  186POPC  H16Y21411   2.329   0.248   5.671 -0.1832 -0.3700 -0.2615
  186POPC  H16Z21412   2.458   0.211   5.549 -0.9508  1.3173 -3.7862
  187POPC     N21413   5.961   3.736   1.967  0.1141  1.1097  0.3246
  187POPC   C1221414   5.852   3.737   2.075  0.4622 -0.2705  0.1604
  187POPC  H12A21415   5.759   3.702   2.032  0.7461  1.1313 -1.7058
  187POPC  H12B21416   5.822   3.838   2.097 -1.9725 -1.4222  2.7508
  187POPC   C1321417   5.897   3.798   1.848 -0.0875 -0.1867  0.5308
  187POPC  H13A21418   5.842   3.884   1.883  1.6691  1.4829 -0.6355
  187POPC  H13B21419   5.977   3.816   1.778 -0.2397 -0.3789  0.3063
  187POPC  H13C21420   5.824   3.738   1.795  0.6929  0.1003 -0.9247
  187POPC   C1421421   6.064   3.829   2.013 -0.5669  0.1860 -0.6761
  187POPC  H14A21422   6.162   3.810   1.971 -0.5323  0.1040 -0.5592
  187POPC  H14B21423   6.048   3.935   2.000 -0.5188  0.2332 -0.3672
  187POPC  H14C21424   6.079   3.806   2.118 -3.2151 -2.4896 -0.7548
  187POPC   C1521425   6.022   3.603   1.939 -0.9324 -0.3009  0.3987
  187POPC  H15A21426   6.092   3.614   1.858 -0.9851 -1.4829  0.1645
  187POPC  H15B21427   5.950   3.526   1.913 -1.6278  0.5768 -0.3349
  187POPC  H15C21428   6.077   3.558   2.020  1.3296 -0.2963 -1.0711
  187POPC   C1121429   5.889   3.677   2.209  0.2179 -0.2624  0.0444
  187POPC  H11A21430   5.910   3.568   2.203 -2.8842 -1.0305  1.2010
  187POPC  H11B21431   5.792   3.681   2.263  1.1304 -0.3966  1.7728
  187POPC     P21432   6.088   3.704   2.372  0.3849  0.5245  0.0937
  187POPC   O1321433   6.128   3.802   2.471 -0.2652  0.1751 -0.1399
  187POPC   O1421434   6.196   3.652   2.282  0.0636 -0.9525 -0.1334
  187POPC   O1221435   5.978   3.763   2.281 -0.8824 -0.5243  0.3945
  187POPC   O1121436   6.025   3.576   2.447  0.2874 -0.0202  0.5779
  187POPC    C121437   5.910   3.596   2.529  0.4432  0.3080 -0.1713
  187POPC    HA21438   5.824   3.536   2.494  0.1342  1.2891 -1.1596
  187POPC    HB21439   5.873   3.701   2.527 -1.6759 -0.3913 -0.2507
  187POPC    C221440   5.935   3.563   2.677  0.3982  0.3773  0.0473
  187POPC    HS21441   5.840   3.520   2.715  1.1687 -0.9746  0.5129
  187POPC   O2121442   5.975   3.683   2.756 -0.4977 -0.2068 -0.0425
  187POPC   C2121443   5.869   3.752   2.787  0.8355 -0.5037  0.0444
  187POPC   O2221444   5.753   3.725   2.768 -0.0722 -0.2638 -0.3702
  187POPC   C2221445   5.914   3.869   2.863  0.7429 -0.2952 -0.0336
  187POPC   H2R21446   5.860   3.953   2.814  0.7359 -1.2935 -1.8266
  187POPC   H2S21447   6.019   3.896   2.842  0.9714 -1.8391 -1.1022
  187POPC    C321448   6.035   3.445   2.696 -0.4066 -0.4253  0.1241
  187POPC    HX21449   6.136   3.470   2.657  0.4079 -1.4224  1.4797
  187POPC    HY21450   5.999   3.360   2.634 -0.6312  0.7980 -1.4755
  187POPC   O3121451   6.065   3.406   2.837  0.8843  0.1589  0.2565
  187POPC   C3121452   6.149   3.483   2.903  0.0476 -0.9813  0.1803
  187POPC   O3221453   6.212   3.579   2.865 -0.3093  0.2602  0.4951
  187POPC   C3221454   6.147   3.428   3.049  0.0404  0.6007 -0.0699
  187POPC   H2X21455   6.138   3.317   3.050 -1.0063  0.6668 -0.8159
  187POPC   H2Y21456   6.061   3.471   3.105  0.2495  0.9489 -0.0117
  187POPC   C2321457   5.885   3.860   3.013  0.3861  0.0818 -0.0388
  187POPC   H3R21458   5.803   3.790   3.040 -0.1248  0.7711  0.2366
  187POPC   H3S21459   5.856   3.962   3.046 -0.7190 -0.2197 -0.0352
  187POPC   C2421460   6.015   3.831   3.089  0.3705  0.2344  0.3563
  187POPC   H4R21461   6.109   3.872   3.048  0.6765  0.8155  1.5979
  187POPC   H4S21462   6.022   3.721   3.071 -0.8706  0.3534 -1.1004
  187POPC   C2521463   5.999   3.871   3.235  0.0360 -0.6599 -0.3240
  187POPC   H5R21464   5.892   3.863   3.265  0.1221  0.8606  0.4786
  187POPC   H5S21465   6.021   3.979   3.247  1.5774 -0.8959 -0.8496
  187POPC   C2621466   6.071   3.788   3.332  0.1335  0.0199 -0.6397
  187POPC   H6R21467   6.180   3.777   3.310  0.2549 -1.3806  0.4899
  187POPC   H6S21468   6.028   3.685   3.332 -2.2325  0.9690 -0.3356
  187POPC   C2721469   6.048   3.846   3.475  0.3299 -0.5023 -0.2354
  187POPC   H7R21470   5.943   3.881   3.474  1.5228  3.8949  1.9265
  187POPC   H7S21471   6.100   3.944   3.482  0.1970 -0.3476 -1.1933
  187POPC   C2821472   6.062   3.751   3.591  0.1276  0.0682  0.4540
  187POPC   H8R21473   6.020   3.653   3.562  3.9366 -1.6943  0.2689
  187POPC   H8S21474   6.022   3.804   3.680  0.3239  1.3526 -0.1909
  187POPC   C2921475   6.203   3.736   3.626  0.0818  1.2034  0.1701
  187POPC   H9121476   6.261   3.714   3.535 -0.1510 -0.1539  0.3328
  187POPC  C21021477   6.266   3.754   3.745 -0.9399 -0.0805 -0.0152
  187POPC  H10121478   6.376   3.748   3.745 -0.8232  1.5257 -0.6296
  187POPC  C21121479   6.211   3.785   3.885 -0.7176  0.2126 -0.2596
  187POPC  H11R21480   6.219   3.695   3.949 -2.3160  1.0418  1.1802
  187POPC  H11S21481   6.104   3.811   3.872 -0.4980  1.4925  0.3249
  187POPC  C21221482   6.257   3.907   3.962 -0.7696  0.0743 -0.2404
  187POPC  H12R21483   6.225   3.997   3.905 -2.9271 -1.9802 -2.5102
  187POPC  H12S21484   6.367   3.906   3.980 -0.6919 -1.7193 -0.6236
  187POPC  C21321485   6.208   3.897   4.105  0.1569 -0.6755 -0.9702
  187POPC  H13R21486   6.242   3.800   4.145  2.1766 -0.1421 -1.3110
  187POPC  H13S21487   6.097   3.890   4.116 -0.0613  0.6101 -2.0784
  187POPC  C21421488   6.265   4.011   4.187  0.4926  0.4346 -0.3304
  187POPC  H14R21489   6.374   4.028   4.172  0.4871  2.5757  1.4201
  187POPC  H14S21490   6.254   3.987   4.295  1.4945  0.6654 -0.1665
  187POPC  C21521491   6.194   4.148   4.160 -0.0803  0.4346  0.1405
  187POPC  H15R21492   6.083   4.147   4.171 -0.2098 -1.4305 -1.0075
  187POPC  H15S21493   6.209   4.174   4.053 -5.6275  2.7642 -0.4197
  187POPC  C21621494   6.249   4.266   4.237  0.2097 -0.2445  0.1739
  187POPC  H16R21495   6.359   4.285   4.231  0.3727 -0.6565  1.5613
  187POPC  H16S21496   6.230   4.251   4.345 -1.1624 -2.2295 -0.2929
  187POPC  C21721497   6.183   4.399   4.204 -0.0425 -0.4215  0.5844
  187POPC  H17R21498   6.218   4.473   4.279  1.2567 -1.3207  0.8973
  187POPC  H17S21499   6.073   4.383   4.207 -0.0318 -0.5701  0.2274
  187POPC  C21821500   6.227   4.451   4.069 -0.1887 -0.6392  0.2346
  187POPC  H18R21501   6.240   4.373   3.991 -0.0716 -0.0311 -0.3601
  187POPC  H18S21502   6.325   4.504   4.069 -0.8287  0.5789 -0.3604
  187POPC  H18T21503   6.161   4.529   4.026  2.5629  1.0327 -1.2568
  187POPC   C3321504   6.273   3.465   3.124 -0.0799  0.6290 -0.2049
  187POPC   H3X21505   6.315   3.565   3.097  2.0694  0.6254  2.6113
  187POPC   H3Y21506   6.356   3.393   3.106  0.4163  0.2503  2.9407
  187POPC   C3421507   6.267   3.458   3.277 -0.1490 -0.2367 -0.8013
  187POPC   H4X21508   6.185   3.525   3.310  2.6041  1.7230  2.8098
  187POPC   H4Y21509   6.361   3.495   3.321 -0.0205  1.7657 -2.6274
  187POPC   C3521510   6.227   3.314   3.324 -0.0922 -0.7960  0.2467
  187POPC   H5X21511   6.306   3.239   3.303 -2.0754 -2.5927 -1.1917
  187POPC   H5Y21512   6.138   3.285   3.265  0.1489  1.4131 -1.3450
  187POPC   C3621513   6.183   3.306   3.475  0.0038  0.2062 -0.1746
  187POPC   H6X21514   6.130   3.211   3.499 -0.4558 -0.1899 -2.4746
  187POPC   H6Y21515   6.097   3.375   3.488 -1.1428 -1.3060  0.5847
  187POPC   C3721516   6.283   3.333   3.576 -1.0410  0.2947 -0.6532
  187POPC   H7X21517   6.323   3.432   3.546  0.6470 -0.8195 -2.2775
  187POPC   H7Y21518   6.369   3.262   3.574 -0.3549  0.9752  1.5469
  187POPC   C3821519   6.226   3.342   3.723 -0.0218 -0.4792  0.7590
  187POPC   H8X21520   6.152   3.424   3.720  1.1145  0.6032 -3.4404
  187POPC   H8Y21521   6.300   3.372   3.800 -1.2140 -0.4643  1.9335
  187POPC   C3921522   6.167   3.213   3.765  0.4740  0.1301 -0.1785
  187POPC   H9X21523   6.085   3.166   3.707  0.6493 -1.9307  1.1487
  187POPC   H9Y21524   6.125   3.227   3.867 -0.9635 -0.6699 -0.6287
  187POPC  C31021525   6.276   3.103   3.786 -0.8101  0.1689 -0.2796
  187POPC  H10X21526   6.372   3.141   3.828 -0.3036  0.7242 -1.8625
  187POPC  H10Y21527   6.301   3.054   3.689  0.0255 -1.3043  0.6384
  187POPC  C31121528   6.229   2.993   3.887  0.6169 -0.1206  0.3789
  187POPC  H11X21529   6.251   2.887   3.862 -3.0883 -1.3732  1.6535
  187POPC  H11Y21530   6.118   2.990   3.901  0.7481  1.2782  1.9550
  187POPC  C31221531   6.264   3.013   4.034  0.1273 -0.2441  0.1689
  187POPC  H12X21532   6.238   3.114   4.073  1.6549 -0.6977  2.5885
  187POPC  H12Y21533   6.371   3.013   4.062 -0.0991 -2.5327  1.3277
  187POPC  C31321534   6.205   2.909   4.130 -0.3301 -0.0513  1.4201
  187POPC  H13X21535   6.237   2.804   4.110 -1.9843 -0.3241  0.0520
  187POPC  H13Y21536   6.097   2.901   4.109  0.1697 -2.7733 -0.7399
  187POPC  C31421537   6.225   2.942   4.279 -0.3676 -0.0862 -0.4790
  187POPC  H14X21538   6.184   3.043   4.298 -1.3454 -0.6373  0.5089
  187POPC  H14Y21539   6.332   2.935   4.307 -0.6967 -0.6448  0.7675
  187POPC  C31521540   6.149   2.837   4.364 -0.2486 -0.3495  1.3876
  187POPC  H15X21541   6.186   2.736   4.336 -1.5062  0.1435 -2.7658
  187POPC  H15Y21542   6.043   2.835   4.331  0.4254 -3.3608 -1.0482
  187POPC  C31621543   6.155   2.865   4.513 -0.1805  0.1926  0.0603
  187POPC  H16X21544   6.257   2.853   4.554 -0.0368 -2.4206 -0.8386
  187POPC  H16Y21545   6.075   2.800   4.554 -4.0102  1.2621 -4.7592
  187POPC  H16Z21546   6.127   2.972   4.525 -1.9614 -0.2585  0.2404
  188POPC     N21547   6.239   1.826   2.417  0.0415  0.0928  0.5474
  188POPC   C1221548   6.292   1.689   2.443  0.2841  0.2575  1.0892
  188POPC  H12A21549   6.274   1.639   2.349  0.9047  0.4157  0.8802
  188POPC  H12B21550   6.231   1.646   2.521  0.4390  1.4254  1.8837
  188POPC   C1321551   6.210   1.905   2.551  0.8698 -0.1833  0.1251
  188POPC  H13A21552   6.152   1.850   2.623  1.1393 -0.6217  0.0107
  188POPC  H13B21553   6.300   1.937   2.600  0.1041  0.8881  0.8746
  188POPC  H13C21554   6.159   1.999   2.534  0.3829  0.0696  2.6831
  188POPC   C1421555   6.323   1.912   2.333  0.2866 -0.7050 -0.2799
  188POPC  H14A21556   6.321   1.890   2.227  2.8188  1.5038 -0.9029
  188POPC  H14B21557   6.288   2.014   2.336  1.3414 -0.3500  1.2474
  188POPC  H14C21558   6.423   1.904   2.374 -0.0120 -0.0103  0.6124
  188POPC   C1521559   6.109   1.814   2.344  1.0649  0.2119 -0.0398
  188POPC  H15A21560   6.120   1.736   2.270 -1.6530 -0.1909 -0.1401
  188POPC  H15B21561   6.074   1.904   2.296  1.0530  0.2689  0.0756
  188POPC  H15C21562   6.032   1.788   2.415 -0.3776  1.6539 -1.0208
  188POPC   C1121563   6.440   1.674   2.482 -1.1551  0.3009  0.3067
  188POPC  H11A21564   6.456   1.577   2.533 -0.5946 -0.4770 -1.2923
  188POPC  H11B21565   6.470   1.757   2.550  0.6405  1.5543 -1.8632
  188POPC     P21566   6.536   1.544   2.272  0.0711 -0.4002  0.1004
  188POPC   O1321567   6.612   1.564   2.140  0.5182  0.1610  0.6919
  188POPC   O1421568   6.401   1.482   2.258  0.1704 -0.0709  0.2655
  188POPC   O1221569   6.530   1.675   2.367  0.2594  0.5317  0.2596
  188POPC   O1121570   6.618   1.443   2.353 -0.0806  0.3301 -0.2178
  188POPC    C121571   6.745   1.470   2.410 -0.3377  0.0123  0.1057
  188POPC    HA21572   6.753   1.580   2.421 -2.9687  0.4373 -1.3044
  188POPC    HB21573   6.826   1.435   2.342  1.0999  1.6349  0.8968
  188POPC    C221574   6.761   1.393   2.542  0.2319 -0.4352 -0.4718
  188POPC    HS21575   6.713   1.299   2.510  0.1278 -1.4506  2.3962
  188POPC   O2121576   6.680   1.466   2.635  0.2350  0.3510  0.0641
  188POPC   C2121577   6.641   1.392   2.732  0.3571 -0.4464 -0.5046
  188POPC   O2221578   6.659   1.271   2.751  0.7538 -0.4665 -0.3566
  188POPC   C2221579   6.572   1.481   2.834  0.0844  0.1848  0.3424
  188POPC   H2R21580   6.468   1.496   2.799  0.3656  0.0411 -0.5845
  188POPC   H2S21581   6.623   1.579   2.844  1.6967 -0.6764  0.9963
  188POPC    C321582   6.913   1.375   2.574  0.3162  0.2622  1.0092
  188POPC    HX21583   6.948   1.478   2.554 -1.2447  0.5199 -0.7018
  188POPC    HY21584   6.965   1.317   2.494  0.4640  1.5887  0.1174
  188POPC   O3121585   6.940   1.328   2.708 -0.0177 -0.0189  0.4697
  188POPC   C3121586   7.053   1.257   2.725 -0.4770 -0.3105 -0.2800
  188POPC   O3221587   7.127   1.219   2.636 -0.5209 -0.1703  0.3626
  188POPC   C3221588   7.085   1.249   2.871  0.1917 -0.3026  0.0487
  188POPC   H2X21589   6.988   1.245   2.924  0.1617 -0.5768 -0.0249
  188POPC   H2Y21590   7.148   1.336   2.901 -2.5394  1.9170 -0.2665
  188POPC   C2321591   6.561   1.426   2.977 -0.4549  0.1660 -0.3327
  188POPC   H3R21592   6.525   1.321   2.978  1.9040 -0.6898  0.0699
  188POPC   H3S21593   6.492   1.493   3.033 -1.7397 -2.3468  1.2629
  188POPC   C2421594   6.697   1.433   3.047 -0.0916  0.0350 -0.4145
  188POPC   H4R21595   6.748   1.532   3.048 -1.9260  1.0119 -0.2329
  188POPC   H4S21596   6.775   1.372   2.996  1.8590  2.5908 -0.6576
  188POPC   C2521597   6.698   1.384   3.198 -0.2747  0.2244  1.3152
  188POPC   H5R21598   6.806   1.365   3.221  0.3208  1.4327 -0.2906
  188POPC   H5S21599   6.636   1.292   3.201 -0.2952  0.2369  1.2749
  188POPC   C2621600   6.652   1.499   3.287  0.1205  0.2234 -0.3742
  188POPC   H6R21601   6.566   1.547   3.236 -0.8364 -0.4090  0.6203
  188POPC   H6S21602   6.735   1.571   3.304  0.3743 -0.1287 -0.1119
  188POPC   C2721603   6.608   1.458   3.431 -0.4973 -0.4958  0.6075
  188POPC   H7R21604   6.686   1.393   3.478 -0.1289 -0.2736  0.3151
  188POPC   H7S21605   6.513   1.402   3.427 -1.4874  1.1561  0.3493
  188POPC   C2821606   6.581   1.575   3.518  0.0223  0.3046  0.0735
  188POPC   H8R21607   6.505   1.635   3.464 -0.7613 -1.1354 -0.4786
  188POPC   H8S21608   6.674   1.629   3.546 -1.5022  3.3555 -0.2800
  188POPC   C2921609   6.541   1.525   3.655  0.7355 -0.0513  0.5349
  188POPC   H9121610   6.609   1.468   3.721 -2.8478 -2.5987  2.3812
  188POPC  C21021611   6.422   1.539   3.706  0.4100  0.6450 -0.0461
  188POPC  H10121612   6.396   1.489   3.800 -0.6923 -2.8138 -2.0451
  188POPC  C21121613   6.308   1.615   3.634 -0.6444 -0.0268  0.8435
  188POPC  H11R21614   6.305   1.588   3.526  1.5052 -0.4453  0.8619
  188POPC  H11S21615   6.334   1.723   3.631  0.5312 -0.2856  1.3367
  188POPC  C21221616   6.160   1.590   3.694  0.5950  0.2734 -0.0745
  188POPC  H12R21617   6.123   1.486   3.685  1.0374  0.0191  0.8457
  188POPC  H12S21618   6.098   1.656   3.629 -1.0397  0.4436  1.5686
  188POPC  C21321619   6.145   1.634   3.842  0.1158 -0.4654  0.6162
  188POPC  H13R21620   6.169   1.741   3.857 -1.5054  0.2151 -1.2356
  188POPC  H13S21621   6.211   1.571   3.905  0.7321 -2.0917 -1.5502
  188POPC  C21421622   5.995   1.619   3.904 -0.4449 -0.3581 -0.1504
  188POPC  H14R21623   6.007   1.612   4.014  1.5706  0.7853 -0.2415
  188POPC  H14S21624   5.950   1.528   3.858  0.3440 -0.1807 -1.3371
  188POPC  C21521625   5.889   1.719   3.855 -0.1416  0.0741 -0.4364
  188POPC  H15R21626   5.877   1.711   3.745  0.6912 -0.7896 -0.4789
  188POPC  H15S21627   5.926   1.823   3.867 -1.7315  0.8238 -1.6314
  188POPC  C21621628   5.747   1.698   3.921  0.9397 -0.2151  0.0887
  188POPC  H16R21629   5.744   1.666   4.027 -0.3275 -1.6945 -0.3495
  188POPC  H16S21630   5.713   1.603   3.874 -0.3790  0.5884 -0.6438
  188POPC  C21721631   5.649   1.817   3.905 -0.2783 -0.1037 -0.2550
  188POPC  H17R21632   5.689   1.895   3.973 -0.4370  0.4401 -0.7681
  188POPC  H17S21633   5.552   1.779   3.942 -0.5243 -1.2188 -1.9126
  188POPC  C21821634   5.628   1.871   3.757 -0.0303 -0.1879  0.6474
  188POPC  H18R21635   5.704   1.950   3.742 -1.7349  1.6567  1.3144
  188POPC  H18S21636   5.525   1.903   3.731 -0.0100 -1.9916 -2.0647
  188POPC  H18T21637   5.650   1.801   3.673 -1.3585 -1.1766  1.0965
  188POPC   C3321638   7.156   1.112   2.897  0.0217 -0.2350  0.1532
  188POPC   H3X21639   7.260   1.118   2.859 -0.1522 -0.7662 -0.4093
  188POPC   H3Y21640   7.108   1.023   2.852 -0.7687 -1.6494  3.5244
  188POPC   C3421641   7.167   1.077   3.045  0.3012  0.1556  0.2097
  188POPC   H4X21642   7.229   0.985   3.047  0.8620  0.5358  0.6708
  188POPC   H4Y21643   7.065   1.058   3.083 -0.2243  0.8867 -0.7930
  188POPC   C3521644   7.218   1.186   3.137  0.0334  0.4307 -0.2417
  188POPC   H5X21645   7.136   1.260   3.152 -0.1482  0.1244  0.2873
  188POPC   H5Y21646   7.296   1.235   3.075  0.1230 -2.4647 -2.6638
  188POPC   C3621647   7.273   1.135   3.272 -0.2997  0.5649  0.2474
  188POPC   H6X21648   7.377   1.100   3.253  0.5059  1.5797  2.4384
  188POPC   H6Y21649   7.206   1.055   3.311  1.3671 -0.2856  1.4824
  188POPC   C3721650   7.271   1.244   3.371  0.4037 -0.2343 -0.1353
  188POPC   H7X21651   7.163   1.263   3.385  0.4132  2.7495 -2.9345
  188POPC   H7Y21652   7.319   1.337   3.334 -3.1620  2.1204  0.7214
  188POPC   C3821653   7.310   1.200   3.515 -0.7295  0.0183 -0.5686
  188POPC   H8X21654   7.421   1.202   3.521 -0.6028 -0.3368 -2.3076
  188POPC   H8Y21655   7.280   1.095   3.533  0.3139 -0.3813 -1.0667
  188POPC   C3921656   7.254   1.294   3.618  0.1004 -0.2291  0.4672
  188POPC   H9X21657   7.146   1.280   3.596 -0.7434  0.4759  3.6022
  188POPC   H9Y21658   7.281   1.400   3.598 -0.2886 -0.1385  0.4143
  188POPC  C31021659   7.286   1.262   3.762 -0.1355  0.1704 -0.5125
  188POPC  H10X21660   7.263   1.154   3.772 -1.4537  0.3051 -1.7958
  188POPC  H10Y21661   7.217   1.324   3.824 -0.9693  0.4526 -1.7004
  188POPC  C31121662   7.430   1.298   3.799 -0.1942 -0.1196  0.4382
  188POPC  H11X21663   7.434   1.362   3.889 -1.2426  0.9673 -0.2516
  188POPC  H11Y21664   7.493   1.344   3.719 -0.9521  1.3644  0.6586
  188POPC  C31221665   7.494   1.170   3.855 -0.0339  0.1543 -0.4831
  188POPC  H12X21666   7.537   1.099   3.782 -0.7361 -0.0998 -0.6629
  188POPC  H12Y21667   7.412   1.116   3.907  1.0789 -1.2837 -0.1610
  188POPC  C31321668   7.617   1.200   3.951 -0.1851  0.1970 -0.1217
  188POPC  H13X21669   7.584   1.248   4.046 -2.0347  1.3520 -1.2970
  188POPC  H13Y21670   7.679   1.278   3.902 -0.3102 -1.0124 -2.3364
  188POPC  C31421671   7.695   1.078   3.988 -0.3123  1.0976  0.1524
  188POPC  H14X21672   7.770   1.119   4.060 -1.1444 -1.6026  2.7743
  188POPC  H14Y21673   7.752   1.027   3.908  1.6218  1.5261  1.1814
  188POPC  C31521674   7.613   0.968   4.063 -0.1057 -0.2286 -0.1283
  188POPC  H15X21675   7.542   0.916   3.995  1.5281 -3.6270  0.5432
  188POPC  H15Y21676   7.555   1.029   4.136  0.4605  1.8371 -1.3333
  188POPC  C31621677   7.702   0.858   4.125  0.0946  0.3306  0.8027
  188POPC  H16X21678   7.648   0.796   4.200  0.0862 -0.5885  0.0514
  188POPC  H16Y21679   7.784   0.919   4.168  0.4424  0.6105 -0.2472
  188POPC  H16Z21680   7.740   0.793   4.044  0.3601  0.9106  0.4561
  189SAPI   C1221681   4.407   4.287   7.602 -0.2395  0.6591 -0.1146
  189SAPI    H221682   4.487   4.258   7.531 -0.4908 -0.4249  0.0308
  189SAPI    O221683   4.391   4.190   7.709  0.0782 -0.0642 -0.0381
  189SAPI   HO221684   4.360   4.104   7.680  1.3471 -0.9351  1.1116
  189SAPI   C1321685   4.445   4.421   7.661  0.0960  0.3784 -0.0631
  189SAPI    H321686   4.452   4.486   7.571 -0.4369  0.1424 -0.2745
  189SAPI    O321687   4.580   4.415   7.719 -0.0525 -0.0345  0.3793
  189SAPI   HO321688   4.583   4.364   7.800  1.4936 -1.6439 -0.6011
  189SAPI   C1421689   4.347   4.471   7.760 -0.2394 -0.2398 -0.3135
  189SAPI    H421690   4.376   4.412   7.849  2.8897  2.6940  0.8366
  189SAPI    O421691   4.388   4.609   7.794  0.3239  0.3921  0.2464
  189SAPI   HO421692   4.451   4.604   7.866  1.1334 -1.9540 -0.5258
  189SAPI   C1521693   4.199   4.461   7.722 -0.8350 -0.3656 -0.4273
  189SAPI    H521694   4.186   4.552   7.659 -1.9855 -1.2519 -1.5088
  189SAPI    O521695   4.112   4.483   7.828 -0.3386 -0.0287 -0.2625
  189SAPI   HO521696   4.026   4.499   7.787  0.9738 -0.9046 -3.7099
  189SAPI   C1621697   4.166   4.345   7.625  0.4297 -0.5243  0.1368
  189SAPI    H621698   4.146   4.259   7.693  0.9342 -0.9003 -0.1873
  189SAPI    O621699   4.044   4.376   7.556 -0.2545 -0.2570 -0.2018
  189SAPI   HO621700   4.057   4.353   7.463 -0.7878 -0.3973 -0.2436
  189SAPI   C1121701   4.282   4.316   7.526  0.2189 -0.6082  0.5006
  189SAPI    H121702   4.299   4.399   7.455 -2.8030  0.5000  0.8932
  189SAPI     P21703   4.178   4.191   7.318 -0.2533 -0.5253  0.1301
  189SAPI   O1321704   4.104   4.318   7.305 -0.0981 -0.4876 -0.1686
  189SAPI   O1421705   4.103   4.060   7.307 -0.7475  0.3037  0.1249
  189SAPI   O1221706   4.257   4.191   7.459  0.2444  0.2795 -0.0799
  189SAPI   O1121707   4.290   4.181   7.207 -0.1126  0.0159 -0.1307
  189SAPI    C121708   4.379   4.291   7.177 -0.2955 -0.0529 -0.4283
  189SAPI    HA21709   4.349   4.381   7.234 -1.3320 -1.1075  0.7375
  189SAPI    HB21710   4.485   4.270   7.204 -0.6056 -1.0009  0.0904
  189SAPI    C221711   4.396   4.332   7.024 -0.4151 -0.1389  0.0121
  189SAPI    HS21712   4.500   4.363   7.004 -0.1918 -1.1287 -0.4150
  189SAPI   O2121713   4.303   4.439   6.983 -0.4732  0.0057 -0.6411
  189SAPI   C2121714   4.308   4.564   7.031  0.0285  0.4345 -0.2979
  189SAPI   O2221715   4.378   4.601   7.127  0.2523  0.0367 -0.0873
  189SAPI   C2221716   4.234   4.668   6.946  0.0504  0.0760  0.9803
  189SAPI   H2R21717   4.141   4.692   7.001 -1.5242  0.2170 -1.5963
  189SAPI   H2S21718   4.293   4.761   6.933 -1.3303  0.7506 -0.8469
  189SAPI    C321719   4.365   4.206   6.937 -0.3329  0.0648 -0.4871
  189SAPI    HX21720   4.271   4.158   6.972 -0.5918  0.5332 -0.5319
  189SAPI    HY21721   4.442   4.128   6.953 -1.2956 -0.9992 -0.8534
  189SAPI   O3121722   4.372   4.249   6.796  0.2393  0.5216 -0.0843
  189SAPI   C3121723   4.250   4.262   6.752  0.2019  0.5027 -1.1612
  189SAPI   O3221724   4.146   4.233   6.813  0.8761 -0.1283  0.8148
  189SAPI   C3221725   4.260   4.306   6.601  0.6979  0.2590  0.2742
  189SAPI   H2X21726   4.367   4.289   6.574  1.3019 -0.1840  2.6687
  189SAPI   H2Y21727   4.241   4.415   6.607 -1.2594 -0.0683  0.6022
  189SAPI   C2321728   4.196   4.615   6.800  0.6178 -0.5968  0.4739
  189SAPI   H3R21729   4.119   4.537   6.817 -1.9911  1.8848  0.6882
  189SAPI   H3S21730   4.287   4.565   6.761  0.5991 -0.7103  0.5741
  189SAPI   C2421731   4.136   4.712   6.699  0.4511 -0.0262  0.3498
  189SAPI   H4R21732   4.051   4.766   6.746 -0.8365 -0.5783 -1.2338
  189SAPI   H4S21733   4.094   4.639   6.626 -0.5596  0.7268  0.1518
  189SAPI   C2521734   4.245   4.807   6.657  0.1334  0.5798  0.5203
  189SAPI   H5R21735   4.303   4.857   6.736  1.7224  0.8002 -0.7373
  189SAPI   C2621736   4.289   4.813   6.532 -0.4418 -0.4754 -0.0020
  189SAPI   H6R21737   4.387   4.858   6.507  0.2262 -1.1971  1.2199
  189SAPI   C2721738   4.226   4.745   6.416  0.1835  0.0931  0.6382
  189SAPI   H7R21739   4.195   4.643   6.448  1.3914 -0.2613  0.7112
  189SAPI   H7S21740   4.300   4.714   6.339 -0.0980 -0.0846  0.4377
  189SAPI   C2821741   4.121   4.832   6.354  0.5973  0.7409 -0.1194
  189SAPI   H8R21742   4.056   4.875   6.432  1.3995 -0.9081  1.5303
  189SAPI   C2921743   4.090   4.853   6.224  0.1764  0.3235  0.2285
  189SAPI   H9R21744   3.998   4.911   6.207  0.2906  0.8847  1.4882
  189SAPI  C21021745   4.154   4.803   6.095  0.5950 -0.5997  0.5978
  189SAPI  H10R21746   4.262   4.799   6.120  0.7753  0.8160  0.1430
  189SAPI  H10S21747   4.145   4.881   6.016  1.2684 -0.8932  0.2318
  189SAPI  C21121748   4.111   4.669   6.058  0.4514  0.2900  0.7889
  189SAPI  H11R21749   4.094   4.593   6.136 -1.8850  0.4333  0.4711
  189SAPI  C21221750   4.090   4.649   5.921 -0.5704 -0.6066 -1.0554
  189SAPI  H12R21751   4.059   4.549   5.885  1.8579 -0.8544 -2.7245
  189SAPI  C21321752   4.130   4.741   5.809  0.5824 -0.5058  0.1099
  189SAPI  H13R21753   4.239   4.762   5.801  0.4908 -0.1404 -0.2169
  189SAPI  H13S21754   4.088   4.842   5.825  1.1047  0.3571 -3.1403
  189SAPI  C21421755   4.088   4.701   5.667 -0.4585  0.2592  0.2116
  189SAPI  H14R21756   4.133   4.610   5.626  0.4633  1.4026 -1.4777
  189SAPI  C21521757   3.999   4.765   5.586  0.4674 -0.4278 -0.5428
  189SAPI  H15R21758   3.979   4.723   5.486  1.1475  0.6588 -1.1571
  189SAPI  C21621759   3.929   4.893   5.625  0.0049  0.0061  0.1304
  189SAPI  H16R21760   3.978   4.943   5.711  2.1107 -0.8556 -0.5014
  189SAPI  H16S21761   3.822   4.878   5.652 -0.8074  2.8259 -1.1562
  189SAPI  C21721762   3.930   4.995   5.511 -0.3025  0.5774 -0.6798
  189SAPI  H17R21763   4.037   5.008   5.484 -0.2237 -1.1133 -1.2950
  189SAPI  H17S21764   3.882   5.091   5.543  0.5022  0.3547  1.3540
  189SAPI  C21821765   3.854   4.947   5.390 -0.2366 -0.7616 -0.3275
  189SAPI  H18R21766   3.748   4.925   5.412  0.1056 -0.2391  2.1391
  189SAPI  H18S21767   3.908   4.861   5.345  0.0239 -0.5612 -0.4002
  189SAPI  C21921768   3.855   5.065   5.294 -0.4921 -0.1099 -0.7814
  189SAPI  H19R21769   3.958   5.106   5.300 -0.4903 -0.3283  1.8683
  189SAPI  H19S21770   3.793   5.147   5.338  0.0159  0.1985 -0.6230
  189SAPI  C22021771   3.810   5.021   5.153  0.3379 -0.3208 -0.4782
  189SAPI  H20R21772   3.871   4.941   5.106  1.2478  1.1793 -1.9600
  189SAPI  H20S21773   3.822   5.103   5.078  0.2509 -0.7855 -1.0066
  189SAPI  H20T21774   3.702   4.995   5.152  0.4794 -1.7237  3.2720
  189SAPI   C3321775   4.152   4.229   6.513 -0.4899 -0.3678  0.1873
  189SAPI   H3X21776   4.057   4.222   6.569  0.1870  1.1570  1.6078
  189SAPI   H3Y21777   4.190   4.125   6.504  1.4916  0.3041  0.2289
  189SAPI   C3421778   4.138   4.278   6.361 -0.0366  0.2360 -0.6906
  189SAPI   H4X21779   4.238   4.278   6.313  0.1942 -1.2349 -0.2775
  189SAPI   H4Y21780   4.090   4.378   6.365  1.0109  0.7102  0.7678
  189SAPI   C3521781   4.051   4.190   6.270  0.0664  0.0494  0.7499
  189SAPI   H5X21782   3.951   4.170   6.314  0.5890  1.5512  2.7571
  189SAPI   H5Y21783   4.094   4.088   6.274  0.1913  0.1300  1.6645
  189SAPI   C3621784   4.054   4.249   6.122 -0.4003  0.7109  0.4397
  189SAPI   H6X21785   4.163   4.257   6.101 -0.2651 -0.7972  0.4817
  189SAPI   H6Y21786   4.016   4.353   6.128  1.6121  1.4726  0.8611
  189SAPI   C3721787   3.982   4.171   6.011  0.0144 -0.0811  0.2666
  189SAPI   H7X21788   3.873   4.166   6.033  0.1540 -0.6622  0.8746
  189SAPI   H7Y21789   4.022   4.067   6.012  3.0919  0.9907 -0.0284
  189SAPI   C3821790   4.002   4.233   5.873  0.2123 -0.4099  0.6465
  189SAPI   H8X21791   4.111   4.247   5.858 -0.0666 -0.8370 -2.3383
  189SAPI   H8Y21792   3.953   4.332   5.869  2.3435  0.6528 -1.2781
  189SAPI   C3921793   3.958   4.131   5.762  0.2877  0.2278 -0.1146
  189SAPI   H9X21794   3.850   4.107   5.768  0.7448 -1.8247  0.6498
  189SAPI   H9Y21795   4.010   4.034   5.780 -0.3694 -0.0268  0.4218
  189SAPI  C31021796   3.984   4.178   5.621  0.7134  0.1523  0.5889
  189SAPI  H10X21797   3.953   4.284   5.607 -1.0124 -0.4930 -0.9596
  189SAPI  H10Y21798   3.928   4.119   5.545 -2.3915  1.6411  1.5545
  189SAPI  C31121799   4.132   4.173   5.589  0.2168  0.2186 -0.0179
  189SAPI  H11X21800   4.164   4.070   5.619  0.2098 -0.2101 -1.4002
  189SAPI  H11Y21801   4.183   4.251   5.650  2.6408 -1.2682  0.0023
  189SAPI  C31221802   4.176   4.202   5.448 -0.1584 -0.1076  0.1797
  189SAPI  H12X21803   4.286   4.202   5.459 -0.2474  1.1298  1.3192
  189SAPI  H12Y21804   4.145   4.304   5.418 -2.8915 -1.0410 -0.5464
  189SAPI  C31321805   4.138   4.101   5.338 -0.0822  0.2215 -0.5896
  189SAPI  H13X21806   4.032   4.122   5.310  0.0605  0.4667 -0.9596
  189SAPI  H13Y21807   4.136   4.000   5.384 -2.8089  0.3979 -0.1563
  189SAPI  C31421808   4.237   4.101   5.220 -0.3547  0.1474  0.3092
  189SAPI  H14X21809   4.335   4.083   5.268 -0.9214 -1.4312  0.9134
  189SAPI  H14Y21810   4.250   4.210   5.200  0.2239  0.2782  1.3531
  189SAPI  C31521811   4.213   3.999   5.107 -0.3766  0.3860  0.1113
  189SAPI  H15X21812   4.104   3.980   5.095 -0.5542  1.2302  0.3469
  189SAPI  H15Y21813   4.264   3.905   5.135  0.1252  1.0093  1.3288
  189SAPI  C31621814   4.286   4.032   4.969  0.1777  0.6632 -0.3003
  189SAPI  H16X21815   4.247   4.127   4.925  2.0921  1.1905 -0.9651
  189SAPI  H16Y21816   4.264   3.943   4.906  1.1073  1.5459 -1.9421
  189SAPI  C31721817   4.440   4.032   4.983  0.2247 -0.1886 -0.4027
  189SAPI  H17X21818   4.479   3.946   5.041 -0.1366 -0.3969 -0.4627
  189SAPI  H17Y21819   4.466   4.124   5.039  1.4938 -0.6016 -0.2930
  189SAPI  C31821820   4.516   4.043   4.850  0.6328 -0.9290  0.4983
  189SAPI  H18X21821   4.625   4.047   4.871  1.2613 -0.8724 -2.3320
  189SAPI  H18Y21822   4.504   4.143   4.803  2.8536  0.4459  2.5816
  189SAPI  H18Z21823   4.501   3.955   4.784  1.7419 -2.1000  1.7397
  190SAPI   C1221824   3.776   4.220   6.992  0.3437  0.3155  0.5359
  190SAPI    H221825   3.703   4.163   6.930  0.0004  2.9348 -1.6688
  190SAPI    O221826   3.887   4.136   7.033  0.4739 -0.1845 -0.0608
  190SAPI   HO221827   3.847   4.068   7.087 -1.8994  0.7160 -0.5296
  190SAPI   C1321828   3.818   4.341   6.921  0.6662 -0.8518  0.0089
  190SAPI    H321829   3.718   4.382   6.894  0.0970 -1.6485  0.8473
  190SAPI    O321830   3.887   4.327   6.799 -0.1808  0.0251  0.1191
  190SAPI   HO321831   3.972   4.284   6.814  0.3625  0.7363 -0.8419
  190SAPI   C1421832   3.883   4.445   7.015  0.1504  0.4994  0.1996
  190SAPI    H421833   3.988   4.412   7.029  0.3613  1.1026  0.0455
  190SAPI    O421834   3.891   4.577   6.958  0.1996 -0.4581  0.2033
  190SAPI   HO421835   3.983   4.601   6.944 -0.2881  3.0704  1.9238
  190SAPI   C1521836   3.839   4.454   7.158 -0.8678 -0.4708  0.3809
  190SAPI    H521837   3.755   4.527   7.158  0.0271  0.5821  0.3499
  190SAPI    O521838   3.946   4.508   7.235 -0.1364  0.4772 -0.1470
  190SAPI   HO521839   4.001   4.435   7.264 -0.2862  0.0792 -0.8349
  190SAPI   C1621840   3.783   4.329   7.215  0.3022  0.0565 -0.4695
  190SAPI    H621841   3.869   4.268   7.251  0.2746  0.4979  0.3728
  190SAPI    O621842   3.705   4.356   7.334 -0.1243  0.3071  0.0246
  190SAPI   HO621843   3.669   4.273   7.366 -2.0084  0.4142 -1.6150
  190SAPI   C1121844   3.693   4.254   7.116  0.5798 -0.3345 -0.1559
  190SAPI    H121845   3.615   4.324   7.078 -0.5419 -0.2196  2.1704
  190SAPI     P21846   3.487   4.086   7.123  0.1447 -0.0391 -0.3203
  190SAPI   O1321847   3.404   4.210   7.114  0.2571  0.2252 -0.4794
  190SAPI   O1421848   3.430   3.973   7.206 -0.3312  0.1368 -0.5560
  190SAPI   O1221849   3.637   4.137   7.178  0.2622  0.8558 -0.2150
  190SAPI   O1121850   3.524   4.035   6.984  0.0319 -0.1327 -0.0392
  190SAPI    C121851   3.421   4.019   6.884 -0.4693 -0.3627  0.4247
  190SAPI    HA21852   3.337   3.960   6.927  1.0188 -1.8390  1.4296
  190SAPI    HB21853   3.376   4.119   6.865 -0.0232 -0.1968  0.2480
  190SAPI    C221854   3.461   3.955   6.748  0.0487 -0.0548 -0.9237
  190SAPI    HS21855   3.475   3.845   6.764  1.6662 -0.0370 -1.9489
  190SAPI   O2121856   3.577   4.024   6.699 -0.6603  0.2051 -0.0778
  190SAPI   C2121857   3.682   3.953   6.682  0.6054  0.7630  0.1075
  190SAPI   O2221858   3.699   3.833   6.701 -0.4530  0.0787  0.3110
  190SAPI   C2221859   3.791   4.033   6.615 -0.1826  0.0919 -0.4963
  190SAPI   H2R21860   3.742   4.123   6.570  0.7878  0.2068 -1.3820
  190SAPI   H2S21861   3.860   4.064   6.697 -1.3202  0.3533  0.3838
  190SAPI    C321862   3.348   3.978   6.645 -0.0471  0.1575 -0.3341
  190SAPI    HX21863   3.336   4.088   6.632 -1.9040 -0.1915 -2.3859
  190SAPI    HY21864   3.253   3.935   6.684  0.0356 -1.3282 -1.6647
  190SAPI   O3121865   3.381   3.930   6.512  0.1929 -0.3853  0.0580
  190SAPI   C3121866   3.367   3.797   6.492 -0.1429  0.5388  0.6814
  190SAPI   O3221867   3.327   3.713   6.570  0.1291 -0.2872  0.1159
  190SAPI   C3221868   3.415   3.767   6.355  0.3234  0.7269 -0.3750
  190SAPI   H2X21869   3.490   3.689   6.378 -0.9063  0.3848  3.0365
  190SAPI   H2Y21870   3.457   3.858   6.307 -2.9900  2.1339 -0.9379
  190SAPI   C2321871   3.873   3.952   6.514  0.1727  0.3919  0.1223
  190SAPI   H3R21872   3.913   3.858   6.557  0.2615  0.1059 -0.5722
  190SAPI   H3S21873   3.960   4.013   6.481 -0.6657  2.2585  1.1798
  190SAPI   C2421874   3.797   3.925   6.385  0.5674  0.6209 -0.7482
  190SAPI   H4R21875   3.747   4.019   6.353 -0.6897  0.5977  1.0169
  190SAPI   H4S21876   3.710   3.858   6.401  2.2784 -1.6668 -0.6168
  190SAPI   C2521877   3.892   3.872   6.286 -0.5223 -0.2641 -0.6532
  190SAPI   H5R21878   3.972   3.942   6.257  0.7227 -1.4966 -0.2833
  190SAPI   C2621879   3.898   3.755   6.218 -0.6592 -0.2700 -0.6174
  190SAPI   H6R21880   3.977   3.745   6.143  0.4090  0.1368  0.4191
  190SAPI   C2721881   3.815   3.636   6.227  0.6782  0.2659 -0.9825
  190SAPI   H7R21882   3.708   3.665   6.220  0.1313 -1.1528  0.7742
  190SAPI   H7S21883   3.825   3.604   6.333  0.9457 -1.8634 -1.6118
  190SAPI   C2821884   3.826   3.520   6.133  0.2384  1.0600 -0.0384
  190SAPI   H8R21885   3.845   3.428   6.190  0.8120  0.2542 -1.4766
  190SAPI   C2921886   3.835   3.522   5.992  0.5036 -0.7113 -0.9430
  190SAPI   H9R21887   3.838   3.421   5.949  0.9928 -0.2162 -2.1305
  190SAPI  C21021888   3.804   3.638   5.903 -0.6645  0.9853 -0.6856
  190SAPI  H10R21889   3.764   3.722   5.963  0.4550  0.2767  1.1457
  190SAPI  H10S21890   3.715   3.610   5.842 -2.2270  1.8125  1.1284
  190SAPI  C21121891   3.934   3.674   5.836  0.0271  0.0265 -0.8580
  190SAPI  H11R21892   4.024   3.671   5.899  0.0725  2.4860 -0.6982
  190SAPI  C21221893   3.951   3.710   5.706  0.3791  0.3318 -0.2402
  190SAPI  H12R21894   4.048   3.748   5.670  0.5678  0.5313  0.4680
  190SAPI  C21321895   3.840   3.717   5.608 -0.0860  0.0937 -0.3950
  190SAPI  H13R21896   3.741   3.739   5.654  0.1186  0.9239 -0.3388
  190SAPI  H13S21897   3.839   3.617   5.558  0.8104  0.0377 -0.3118
  190SAPI  C21421898   3.865   3.831   5.518  0.2264 -0.2059 -0.5976
  190SAPI  H14R21899   3.841   3.927   5.566 -0.3527 -0.3554 -0.5804
  190SAPI  C21521900   3.904   3.822   5.393  0.3062 -0.1325  0.4979
  190SAPI  H15R21901   3.906   3.916   5.335 -0.9244 -0.5539 -0.2646
  190SAPI  C21621902   3.925   3.699   5.311 -0.3328  0.0268  1.4493
  190SAPI  H16R21903   3.855   3.702   5.225 -1.1127 -1.6748  1.9932
  190SAPI  H16S21904   3.903   3.602   5.358  2.2271 -0.6087  1.4742
  190SAPI  C21721905   4.076   3.683   5.258 -0.3150  0.1832 -0.6265
  190SAPI  H17R21906   4.146   3.649   5.337  1.2696 -0.3023 -2.1756
  190SAPI  H17S21907   4.113   3.783   5.226  1.3228  1.0634  3.4354
  190SAPI  C21821908   4.089   3.579   5.146  0.2032  0.6113  0.3730
  190SAPI  H18R21909   4.018   3.604   5.065  1.8181  0.4955 -1.1359
  190SAPI  H18S21910   4.055   3.477   5.173  0.4965  0.4159  0.0130
  190SAPI  C21921911   4.223   3.581   5.086 -0.9585 -0.5726  0.2700
  190SAPI  H19R21912   4.300   3.535   5.152  1.1166  2.1728 -0.0410
  190SAPI  H19S21913   4.255   3.686   5.067 -1.4521 -0.1986  1.4553
  190SAPI  C22021914   4.238   3.509   4.946 -0.7150  0.0065  0.6685
  190SAPI  H20R21915   4.233   3.398   4.946 -0.0056 -0.0996 -1.7960
  190SAPI  H20S21916   4.339   3.524   4.903 -0.4140 -0.5504  1.1606
  190SAPI  H20T21917   4.166   3.539   4.867 -0.1879  0.6845  0.4382
  190SAPI   C3321918   3.323   3.698   6.248 -0.7263 -0.6593 -0.3013
  190SAPI   H3X21919   3.233   3.763   6.236 -0.8926 -0.6114  1.0605
  190SAPI   H3Y21920   3.281   3.600   6.277 -0.5558 -0.9738 -1.0760
  190SAPI   C3421921   3.395   3.668   6.113  0.3074 -0.4329 -0.1804
  190SAPI   H4X21922   3.495   3.626   6.139  0.1032 -2.1048 -1.8684
  190SAPI   H4Y21923   3.410   3.757   6.048 -0.5190 -0.3487 -0.2676
  190SAPI   C3521924   3.318   3.563   6.032 -0.3662  0.1717 -0.1885
  190SAPI   H5X21925   3.217   3.603   6.007 -0.3725  0.8729  0.8900
  190SAPI   H5Y21926   3.295   3.476   6.098 -0.7364 -1.1054 -1.9372
  190SAPI   C3621927   3.386   3.513   5.901 -0.0081 -0.2355  0.8868
  190SAPI   H6X21928   3.338   3.415   5.881 -0.7473  0.5315 -1.3361
  190SAPI   H6Y21929   3.494   3.493   5.920 -0.7338 -2.1444  3.6203
  190SAPI   C3721930   3.381   3.593   5.769 -0.6526 -0.2252 -0.3152
  190SAPI   H7X21931   3.407   3.697   5.797 -0.4029 -0.1147 -0.9482
  190SAPI   H7Y21932   3.277   3.589   5.730 -0.9586  1.3173  0.2444
  190SAPI   C3821933   3.473   3.541   5.656  0.3838  0.1526 -0.1768
  190SAPI   H8X21934   3.455   3.435   5.627  0.0962  0.7189 -2.2039
  190SAPI   H8Y21935   3.580   3.546   5.686  0.2088 -2.0690  1.0579
  190SAPI   C3921936   3.438   3.613   5.519 -0.4313 -0.1417 -0.0156
  190SAPI   H9X21937   3.456   3.721   5.535  0.2664  0.2398 -2.9064
  190SAPI   H9Y21938   3.332   3.590   5.495 -0.1139 -2.4737  0.5872
  190SAPI  C31021939   3.533   3.563   5.413  0.3737  1.0434 -0.5450
  190SAPI  H10X21940   3.554   3.455   5.429 -1.3093  0.9725  1.7055
  190SAPI  H10Y21941   3.630   3.612   5.435  0.9517  0.4565 -1.6747
  190SAPI  C31121942   3.488   3.592   5.272 -0.0099  0.2400  0.0107
  190SAPI  H11X21943   3.472   3.702   5.262  0.2436  0.3632  0.8895
  190SAPI  H11Y21944   3.388   3.545   5.255 -2.0467  3.7147  1.3647
  190SAPI  C31221945   3.588   3.546   5.163 -0.3326 -0.5256 -0.3310
  190SAPI  H12X21946   3.585   3.435   5.158  1.1154 -0.5708 -0.5463
  190SAPI  H12Y21947   3.691   3.574   5.194  0.9197 -1.0249 -3.6559
  190SAPI  C31321948   3.550   3.604   5.026 -0.2825  0.2924 -0.5220
  190SAPI  H13X21949   3.516   3.709   5.040  0.0445  0.1544  1.5626
  190SAPI  H13Y21950   3.463   3.544   4.991 -1.2126  1.9749 -1.2057
  190SAPI  C31421951   3.656   3.589   4.911 -0.0860 -0.2371 -0.0613
  190SAPI  H14X21952   3.599   3.591   4.816 -0.9938  1.7068  0.4602
  190SAPI  H14Y21953   3.710   3.495   4.936 -0.5570 -0.7151 -0.8200
  190SAPI  C31521954   3.754   3.701   4.918 -0.1245  0.1410  0.4303
  190SAPI  H15X21955   3.789   3.682   5.022 -3.3723 -1.6833  1.3431
  190SAPI  H15Y21956   3.700   3.798   4.909  1.7403  1.0629 -1.6597
  190SAPI  C31621957   3.875   3.684   4.838  0.3680 -0.9778  0.4275
  190SAPI  H16X21958   3.942   3.601   4.867  0.1870 -0.4895  2.4244
  190SAPI  H16Y21959   3.938   3.770   4.870  0.3900 -0.6904 -0.3644
  190SAPI  C31721960   3.861   3.689   4.682 -0.3312 -0.4108 -0.1784
  190SAPI  H17X21961   3.847   3.791   4.641  0.0291 -0.2099  0.1879
  190SAPI  H17Y21962   3.772   3.631   4.651 -1.6184  1.7475 -0.7319
  190SAPI  C31821963   3.979   3.633   4.615  0.4023  0.2505  0.3229
  190SAPI  H18X21964   4.073   3.674   4.657  0.1016  0.7860  0.4865
  190SAPI  H18Y21965   3.974   3.623   4.505 -0.6181 -4.5664  0.5603
  190SAPI  H18Z21966   3.979   3.526   4.646 -0.3858 -0.1005 -0.8117
  191SAPI   C1221967   5.363   2.037   2.172  0.6980 -0.1368 -1.4709
  191SAPI    H221968   5.419   2.110   2.234 -0.4496  0.9727 -1.7059
  191SAPI    O221969   5.254   1.982   2.252  0.0197 -0.0296 -0.1140
  191SAPI   HO221970   5.202   2.053   2.291 -3.8475 -2.1648 -0.8652
  191SAPI   C1321971   5.308   2.116   2.052  0.0954  0.5976 -0.0761
  191SAPI    H321972   5.399   2.147   1.996  2.1617 -3.5459  0.6009
  191SAPI    O321973   5.216   2.223   2.092 -0.0426  1.0954 -0.1087
  191SAPI   HO321974   5.226   2.293   2.027  1.1148  1.8373  0.8292
  191SAPI   C1421975   5.238   2.025   1.958 -0.2084  0.1744 -0.4480
  191SAPI    H421976   5.148   1.997   2.017  1.4570  0.2097  2.3176
  191SAPI    O421977   5.199   2.096   1.837  0.3568  0.1629 -1.0957
  191SAPI   HO421978   5.113   2.058   1.820 -0.2141  0.8401  0.0870
  191SAPI   C1521979   5.307   1.885   1.934 -0.1888  0.8884  0.0573
  191SAPI    H521980   5.383   1.914   1.859 -2.1111 -1.3630 -3.0298
  191SAPI    O521981   5.228   1.775   1.879  0.1019  0.1438  0.2986
  191SAPI   HO521982   5.162   1.759   1.946  0.3112  1.5377  0.8735
  191SAPI   C1621983   5.402   1.832   2.041 -0.0457  0.2251  0.0449
  191SAPI    H621984   5.341   1.764   2.104  0.8543  0.4628  1.2002
  191SAPI    O621985   5.512   1.757   1.984 -0.5633 -0.4495 -0.1758
  191SAPI   HO621986   5.595   1.788   2.022 -0.5534  0.5318 -0.9614
  191SAPI   C1121987   5.456   1.929   2.143 -0.4733  0.3331 -0.3001
  191SAPI    H121988   5.545   1.979   2.099 -0.5557 -1.2372 -2.3890
  191SAPI     P21989   5.657   1.843   2.305  0.0157 -0.4961 -0.1829
  191SAPI   O1321990   5.742   1.830   2.187 -0.2821  0.3335 -0.0379
  191SAPI   O1421991   5.662   1.736   2.412 -0.0052 -0.2534 -0.2159
  191SAPI   O1221992   5.502   1.856   2.260  1.3195  0.2491 -0.1508
  191SAPI   O1121993   5.692   1.990   2.367 -0.3796 -0.0609  0.1652
  191SAPI    C121994   5.604   2.048   2.461  0.3230  0.4383  0.2282
  191SAPI    HA21995   5.565   2.131   2.398 -0.1838 -1.9676 -2.9006
  191SAPI    HB21996   5.522   1.983   2.499  0.4634 -1.0626 -1.8498
  191SAPI    C221997   5.679   2.091   2.593  0.0347 -0.2840  0.2861
  191SAPI    HS21998   5.766   2.155   2.565 -0.7984  0.6267 -0.3041
  191SAPI   O2121999   5.723   1.968   2.659 -0.1178  0.1691 -0.0306
  191SAPI   C2122000   5.833   1.986   2.743  0.6153 -0.3757  0.1431
  191SAPI   O2222001   5.898   2.089   2.751  0.1351  0.5617  0.5595
  191SAPI   C2222002   5.830   1.876   2.844  0.2582  0.5078 -0.3545
  191SAPI   H2R22003   5.723   1.848   2.855  0.2475 -0.9917 -3.2268
  191SAPI   H2S22004   5.875   1.785   2.798 -0.1388 -0.6171  1.3711
  191SAPI    C322005   5.579   2.163   2.684  0.0603 -0.3464 -0.2680
  191SAPI    HX22006   5.504   2.088   2.716  0.8807 -0.5813  1.1702
  191SAPI    HY22007   5.535   2.242   2.619  1.6812  0.5112 -0.3696
  191SAPI   O3122008   5.649   2.221   2.799  0.5614 -0.0405 -1.0455
  191SAPI   C3122009   5.725   2.319   2.767 -0.3759 -0.3743  0.2051
  191SAPI   O3222010   5.753   2.369   2.660  0.1618  0.5052 -0.0802
  191SAPI   C3222011   5.759   2.383   2.906 -0.6996 -0.4363 -0.4548
  191SAPI   H2X22012   5.864   2.418   2.904 -0.6174 -0.6810 -2.5321
  191SAPI   H2Y22013   5.750   2.304   2.983 -0.2050 -1.4812 -1.4506
  191SAPI   C2322014   5.890   1.916   2.983 -0.4572 -0.7544  0.1627
  191SAPI   H3R22015   5.996   1.948   2.968 -0.1798 -2.2239 -1.2503
  191SAPI   H3S22016   5.886   1.824   3.045  0.1723 -1.8356 -1.3558
  191SAPI   C2422017   5.806   2.012   3.066  0.0233  0.3042 -0.8308
  191SAPI   H4R22018   5.700   1.979   3.061  0.5343 -1.8493  1.0440
  191SAPI   H4S22019   5.803   2.114   3.022  0.5165 -0.1878 -2.0695
  191SAPI   C2522020   5.850   2.017   3.207 -0.4939  0.5578 -0.0272
  191SAPI   H5R22021   5.913   2.105   3.229  0.8554 -0.1415 -0.9131
  191SAPI   C2622022   5.816   1.918   3.298 -0.1484  0.3014  0.6556
  191SAPI   H6R22023   5.852   1.925   3.402 -0.1481  0.2333  0.6599
  191SAPI   C2722024   5.724   1.799   3.273 -0.0559 -0.3577 -0.7853
  191SAPI   H7R22025   5.785   1.707   3.286  0.0643 -0.0564  1.1688
  191SAPI   H7S22026   5.684   1.799   3.170  0.9935 -1.7613 -1.2203
  191SAPI   C2822027   5.604   1.793   3.371 -0.6280 -0.1576  0.9847
  191SAPI   H8R22028   5.591   1.701   3.430 -2.4424  1.4308  3.2102
  191SAPI   C2922029   5.511   1.888   3.387 -0.3326  0.1292  0.2314
  191SAPI   H9R22030   5.424   1.875   3.452 -0.9089  2.4134  0.0072
  191SAPI  C21022031   5.501   2.019   3.315 -0.4389 -0.0661  0.0498
  191SAPI  H10R22032   5.547   2.022   3.213 -0.0814  0.7998  0.2287
  191SAPI  H10S22033   5.553   2.098   3.373  0.1017 -0.5216  0.2007
  191SAPI  C21122034   5.356   2.056   3.283 -1.0784  0.1043  0.6819
  191SAPI  H11R22035   5.318   2.005   3.193  0.3419  0.9412 -0.4364
  191SAPI  C21222036   5.274   2.134   3.356  0.3894 -0.0454 -0.1410
  191SAPI  H12R22037   5.177   2.164   3.312 -0.8425 -3.9888 -0.4539
  191SAPI  C21322038   5.311   2.204   3.489 -0.3872  0.2813  0.0163
  191SAPI  H13R22039   5.341   2.309   3.466 -0.6744  0.1865 -0.8269
  191SAPI  H13S22040   5.401   2.155   3.530  0.7096  1.9762 -0.2548
  191SAPI  C21422041   5.192   2.220   3.586 -0.4389  0.0722  0.5095
  191SAPI  H14R22042   5.100   2.258   3.541 -1.9812 -1.1866  2.4365
  191SAPI  C21522043   5.197   2.195   3.718 -0.5848 -0.0498  0.7864
  191SAPI  H15R22044   5.103   2.209   3.773 -1.4367 -0.3141 -0.5678
  191SAPI  C21622045   5.314   2.148   3.795 -0.2399 -0.9895 -0.7886
  191SAPI  H16R22046   5.396   2.221   3.777 -1.2610  0.1960 -0.7062
  191SAPI  H16S22047   5.344   2.045   3.765  0.2301 -0.5808 -1.7666
  191SAPI  C21722048   5.289   2.153   3.948  0.1672  0.3327 -0.3040
  191SAPI  H17R22049   5.372   2.105   4.004 -0.7381 -0.2037  0.6094
  191SAPI  H17S22050   5.196   2.097   3.971  0.0946  0.0063 -1.3573
  191SAPI  C21822051   5.267   2.293   4.004  0.3156 -0.1603 -0.2168
  191SAPI  H18R22052   5.186   2.336   3.942  0.2071 -3.3633 -2.5060
  191SAPI  H18S22053   5.360   2.354   3.994  0.9511 -1.2511 -1.1245
  191SAPI  C21922054   5.226   2.285   4.155  0.2167 -0.0590  0.0571
  191SAPI  H19R22055   5.138   2.218   4.161 -1.9098  2.4172 -1.2806
  191SAPI  H19S22056   5.189   2.385   4.184  0.1573  0.2165 -0.9142
  191SAPI  C22022057   5.326   2.244   4.267  0.2845  0.2942  0.3995
  191SAPI  H20R22058   5.410   2.316   4.278  0.5393 -0.0975  1.1537
  191SAPI  H20S22059   5.362   2.142   4.243  1.0196  0.1789  1.8425
  191SAPI  H20T22060   5.263   2.245   4.359 -1.1175 -2.0757 -0.4346
  191SAPI   C3322061   5.666   2.495   2.953 -0.2604 -0.3184 -0.1050
  191SAPI   H3X22062   5.559   2.469   2.965 -0.3299  0.8751  2.9593
  191SAPI   H3Y22063   5.680   2.574   2.876  1.5130 -1.1313 -0.6675
  191SAPI   C3422064   5.715   2.543   3.090  0.0446 -0.7721  0.0052
  191SAPI   H4X22065   5.658   2.636   3.111 -1.6265 -1.0248 -2.8592
  191SAPI   H4Y22066   5.817   2.585   3.092 -1.2647  2.7477  0.6661
  191SAPI   C3522067   5.690   2.437   3.196  0.2444  0.4837 -0.1963
  191SAPI   H5X22068   5.747   2.343   3.183  0.4510  0.5244  0.3834
  191SAPI   H5Y22069   5.582   2.411   3.196  0.2241  0.5643  0.0778
  191SAPI   C3622070   5.721   2.472   3.342  0.5979  0.2391  0.5587
  191SAPI   H6X22071   5.658   2.555   3.380  2.3386  0.6958  2.6286
  191SAPI   H6Y22072   5.829   2.498   3.347  0.3359  1.9788 -1.1678
  191SAPI   C3722073   5.715   2.354   3.440 -0.2288 -0.3128 -0.5817
  191SAPI   H7X22074   5.784   2.273   3.407 -0.3996 -0.0268 -1.6699
  191SAPI   H7Y22075   5.614   2.309   3.429 -0.3919 -0.0597 -0.1274
  191SAPI   C3822076   5.723   2.396   3.587  0.7118 -0.2734  0.5865
  191SAPI   H8X22077   5.648   2.477   3.596  0.4261 -0.4816  0.1431
  191SAPI   H8Y22078   5.827   2.425   3.610  0.7744 -0.1044  0.1081
  191SAPI   C3922079   5.670   2.281   3.682  0.4782  0.0685  0.1784
  191SAPI   H9X22080   5.727   2.189   3.657 -1.0320 -0.7067 -0.5996
  191SAPI   H9Y22081   5.562   2.270   3.656  0.4071 -0.6220  0.7338
  191SAPI  C31022082   5.678   2.314   3.832  0.2718  0.3293 -0.1775
  191SAPI  H10X22083   5.590   2.376   3.860  0.2447  0.3434 -0.2924
  191SAPI  H10Y22084   5.771   2.367   3.861 -0.6160  2.6923 -1.3323
  191SAPI  C31122085   5.671   2.191   3.921  0.4656  0.1466 -0.0927
  191SAPI  H11X22086   5.746   2.118   3.884  0.8070  0.2360  0.4147
  191SAPI  H11Y22087   5.570   2.145   3.915  0.4334  0.1822  0.1648
  191SAPI  C31222088   5.695   2.224   4.071  0.4879  0.0870  0.4294
  191SAPI  H12X22089   5.617   2.298   4.098 -1.0837 -0.6526 -1.8034
  191SAPI  H12Y22090   5.794   2.273   4.079  1.7921 -2.2099 -0.7335
  191SAPI  C31322091   5.678   2.100   4.163  0.7330  0.3336  0.4061
  191SAPI  H13X22092   5.759   2.029   4.137 -0.9190 -0.6718 -2.5191
  191SAPI  H13Y22093   5.599   2.034   4.120  2.4053 -1.5082 -0.0155
  191SAPI  C31422094   5.679   2.135   4.306  0.4660 -0.1084 -0.4256
  191SAPI  H14X22095   5.582   2.186   4.323 -0.1280 -0.4482 -2.5313
  191SAPI  H14Y22096   5.755   2.213   4.330 -0.8144  0.8807  0.5484
  191SAPI  C31522097   5.683   2.017   4.400 -0.0822  0.7721 -0.2406
  191SAPI  H15X22098   5.670   2.049   4.506  2.4196  0.0864  0.3309
  191SAPI  H15Y22099   5.788   1.980   4.401 -0.3977 -0.1937  1.5560
  191SAPI  C31622100   5.573   1.913   4.359  0.1487 -0.1832  0.1989
  191SAPI  H16X22101   5.589   1.874   4.256  0.0918  0.3752 -0.0239
  191SAPI  H16Y22102   5.473   1.963   4.357 -0.6366 -1.6998 -0.2293
  191SAPI  C31722103   5.566   1.792   4.448 -0.2862 -0.2098  0.2237
  191SAPI  H17X22104   5.667   1.748   4.453 -0.4025 -0.4904  0.1176
  191SAPI  H17Y22105   5.506   1.712   4.400 -1.0771 -0.0547  0.9212
  191SAPI  C31822106   5.502   1.824   4.581 -0.3811 -0.3975 -0.1871
  191SAPI  H18X22107   5.557   1.904   4.635  1.7608 -1.6912 -0.3296
  191SAPI  H18Y22108   5.515   1.743   4.656 -0.8801  0.3046  0.6777
  191SAPI  H18Z22109   5.395   1.851   4.589 -0.4168 -0.5301 -0.2083
  192SAPI   C1222110   2.072   1.277   2.406  0.0993  1.1520  0.0902
  192SAPI    H222111   1.975   1.222   2.409  0.8799 -0.3077 -0.4499
  192SAPI    O222112   2.142   1.244   2.280 -0.5131  0.4574  0.1430
  192SAPI   HO222113   2.177   1.155   2.282  1.3840  1.1542 -0.4246
  192SAPI   C1322114   2.031   1.422   2.412 -0.0046 -0.0510  0.2568
  192SAPI    H322115   1.964   1.431   2.500  1.1243 -1.1360  1.2749
  192SAPI    O322116   1.945   1.459   2.301  0.3772  0.0406 -0.3567
  192SAPI   HO322117   1.933   1.554   2.306 -0.1219 -0.0621  3.3014
  192SAPI   C1422118   2.155   1.518   2.427  0.1353 -0.2827  0.4310
  192SAPI    H422119   2.181   1.528   2.320 -1.7568 -0.5037 -0.0835
  192SAPI    O422120   2.120   1.653   2.470 -0.0445 -0.4918  0.1788
  192SAPI   HO422121   2.189   1.712   2.441  0.5619 -0.9398  0.6730
  192SAPI   C1522122   2.282   1.466   2.496 -0.4668  0.0138  0.0503
  192SAPI    H522123   2.262   1.499   2.601 -0.4691  1.5723 -0.4136
  192SAPI    O522124   2.397   1.528   2.450 -0.0980  0.2862  0.0819
  192SAPI   HO522125   2.459   1.548   2.521  0.8299 -1.2181 -0.2606
  192SAPI   C1622126   2.290   1.310   2.507 -0.1707 -0.2326  0.0864
  192SAPI    H622127   2.336   1.272   2.413 -0.3023 -2.4461  0.8506
  192SAPI    O622128   2.377   1.267   2.617 -0.1144 -0.6938  0.4196
  192SAPI   HO622129   2.466   1.253   2.585 -0.1349 -2.4795  1.0528
  192SAPI   C1122130   2.155   1.245   2.528 -0.3445  0.6179 -0.1750
  192SAPI    H122131   2.104   1.286   2.617  1.0192 -0.9537  1.4105
  192SAPI     P22132   2.079   1.012   2.631  0.2041 -0.2247 -0.1553
  192SAPI   O1322133   2.088   0.871   2.589  0.0476 -0.4352  0.6331
  192SAPI   O1422134   1.942   1.067   2.642 -0.0335 -0.0749 -0.3680
  192SAPI   O1222135   2.161   1.100   2.529 -0.3369  0.0345  0.0353
  192SAPI   O1122136   2.150   1.033   2.772  0.3832 -0.8019 -0.2337
  192SAPI    C122137   2.258   0.945   2.800 -0.9163 -0.5573  0.0457
  192SAPI    HA22138   2.221   0.841   2.811 -1.3555 -0.5855 -1.5478
  192SAPI    HB22139   2.334   0.945   2.719 -1.4000  0.2480 -0.4191
  192SAPI    C222140   2.320   0.986   2.942  0.0833  0.9890  0.2663
  192SAPI    HS22141   2.326   0.892   3.001  0.7320 -0.7511 -2.4125
  192SAPI   O2122142   2.241   1.088   3.002  0.2046 -0.2890 -0.2999
  192SAPI   C2122143   2.131   1.052   3.055  0.2366 -0.4570 -0.3173
  192SAPI   O2222144   2.091   0.937   3.071 -0.1051 -0.1527 -0.2466
  192SAPI   C2222145   2.057   1.180   3.108  0.0705 -0.1997 -0.4467
  192SAPI   H2R22146   2.132   1.229   3.173 -0.9009 -0.6060  1.0152
  192SAPI   H2S22147   2.049   1.250   3.022 -0.6035  1.6336  1.0323
  192SAPI    C322148   2.465   1.039   2.928  0.4944  0.3459 -0.7441
  192SAPI    HX22149   2.456   1.142   2.886 -0.3834  1.1645  1.3119
  192SAPI    HY22150   2.520   0.964   2.868  1.6070 -0.1112  0.7836
  192SAPI   O3122151   2.514   1.048   3.061 -0.1978  0.1244  0.9612
  192SAPI   C3122152   2.625   1.113   3.076 -0.3958 -0.2543 -0.6185
  192SAPI   O3222153   2.688   1.165   2.982  0.8054  0.1645 -0.3946
  192SAPI   C3222154   2.666   1.105   3.225  0.5127  0.0499 -0.0065
  192SAPI   H2X22155   2.728   1.197   3.232 -1.2190  1.1701  1.6125
  192SAPI   H2Y22156   2.724   1.010   3.219 -0.1129 -0.4588  1.5250
  192SAPI   C2322157   1.920   1.174   3.188  0.3850 -0.2201 -0.2761
  192SAPI   H3R22158   1.846   1.134   3.115 -0.4145  0.4527  0.1443
  192SAPI   H3S22159   1.881   1.276   3.209 -0.2682 -0.6780  0.7924
  192SAPI   C2422160   1.924   1.087   3.312 -0.2658  0.2519  0.3888
  192SAPI   H4R22161   1.990   1.127   3.391 -1.0406  0.3790  0.9807
  192SAPI   H4S22162   1.962   0.989   3.276 -0.1187  0.2516  0.5466
  192SAPI   C2522163   1.789   1.060   3.364  0.0337 -0.5598  0.3222
  192SAPI   H5R22164   1.719   1.018   3.290 -0.1907 -0.2639  0.3630
  192SAPI   C2622165   1.747   1.101   3.480 -0.0976  0.2599 -0.1506
  192SAPI   H6R22166   1.640   1.091   3.501  0.0572  0.0508  0.5524
  192SAPI   C2722167   1.826   1.166   3.592 -0.4879 -0.0353  0.4907
  192SAPI   H7R22168   1.885   1.251   3.551 -0.8255  0.2808  0.6563
  192SAPI   H7S22169   1.900   1.090   3.627 -1.1932  0.5458  3.5266
  192SAPI   C2822170   1.730   1.211   3.697 -0.1412  0.7814  0.1643
  192SAPI   H8R22171   1.628   1.228   3.661 -0.4525 -1.2687 -0.0763
  192SAPI   C2922172   1.775   1.218   3.820  0.0043  0.1602 -0.0189
  192SAPI   H9R22173   1.703   1.266   3.888 -0.9684  0.9598 -1.5407
  192SAPI  C21022174   1.915   1.201   3.876 -0.0799  0.7100 -0.1601
  192SAPI  H10R22175   1.987   1.205   3.792 -1.3056 -0.7506 -1.3443
  192SAPI  H10S22176   1.937   1.105   3.928 -0.5960  1.5002  1.6161
  192SAPI  C21122177   1.941   1.321   3.971 -0.1617 -0.2874  0.1999
  192SAPI  H11R22178   1.976   1.415   3.924 -0.2813 -0.1081  0.4675
  192SAPI  C21222179   1.943   1.320   4.103  0.6888  0.2139 -0.4602
  192SAPI  H12R22180   1.964   1.414   4.155  2.8719 -0.7977  0.6206
  192SAPI  C21322181   1.905   1.203   4.191 -0.0015 -0.6714 -0.5669
  192SAPI  H13R22182   1.994   1.179   4.252  1.1985  0.7685 -1.6625
  192SAPI  H13S22183   1.872   1.107   4.145 -1.0569 -1.6494  2.0387
  192SAPI  C21422184   1.781   1.256   4.274 -0.0230  0.9862 -0.0984
  192SAPI  H14R22185   1.682   1.268   4.228 -0.7747  0.8078  1.4160
  192SAPI  C21522186   1.786   1.290   4.402  0.7128  0.9752 -0.7456
  192SAPI  H15R22187   1.711   1.356   4.447  1.0256  0.6562  0.2822
  192SAPI  C21622188   1.909   1.268   4.486  1.0253  0.5971  0.1325
  192SAPI  H16R22189   1.942   1.162   4.483 -0.8125 -0.0189  0.1587
  192SAPI  H16S22190   1.871   1.277   4.590 -3.8081  0.8847 -1.4190
  192SAPI  C21722191   2.011   1.382   4.463  0.5541 -0.1749  0.2870
  192SAPI  H17R22192   1.977   1.464   4.529 -0.4462 -0.9379  0.7487
  192SAPI  H17S22193   2.022   1.423   4.360  0.3785 -1.1738 -0.1469
  192SAPI  C21822194   2.154   1.328   4.505 -0.2492  0.2346  0.2053
  192SAPI  H18R22195   2.163   1.227   4.460  0.8691  1.2728 -2.0371
  192SAPI  H18S22196   2.164   1.323   4.616  0.2383  2.2914  0.2835
  192SAPI  C21922197   2.265   1.417   4.440 -0.2012 -0.0166 -0.3148
  192SAPI  H19R22198   2.268   1.509   4.502  1.3414 -0.6511  0.6223
  192SAPI  H19S22199   2.233   1.435   4.335  2.2538  0.2213 -1.0925
  192SAPI  C22022200   2.402   1.335   4.450  0.6961 -0.5671 -0.4964
  192SAPI  H20R22201   2.447   1.358   4.548 -1.4415  2.4788 -0.0760
  192SAPI  H20S22202   2.471   1.359   4.366  0.1893 -2.0086 -1.3498
  192SAPI  H20T22203   2.378   1.227   4.445  1.4576 -0.8244  1.0284
  192SAPI   C3322204   2.543   1.126   3.317 -0.2635  0.0939  0.6764
  192SAPI   H3X22205   2.573   1.092   3.418  1.8728  1.1635  0.4657
  192SAPI   H3Y22206   2.463   1.059   3.279 -1.0984  0.5042  1.6979
  192SAPI   C3422207   2.467   1.259   3.330 -0.0460 -0.4865  0.0600
  192SAPI   H4X22208   2.427   1.299   3.235  1.6962  0.3296 -0.3674
  192SAPI   H4Y22209   2.540   1.335   3.366 -0.9520 -0.4097  1.8650
  192SAPI   C3522210   2.344   1.258   3.428 -0.7030 -0.1924 -0.2999
  192SAPI   H5X22211   2.258   1.212   3.373 -1.1342 -0.2517  0.4055
  192SAPI   H5Y22212   2.318   1.365   3.443 -1.5660 -0.4035 -0.2322
  192SAPI   C3622213   2.367   1.194   3.567 -0.2633  1.0654  0.0168
  192SAPI   H6X22214   2.458   1.242   3.609 -0.4048  1.8956 -0.6203
  192SAPI   H6Y22215   2.397   1.092   3.534  0.0353  1.2048 -0.1535
  192SAPI   C3722216   2.250   1.205   3.658  0.2959  0.5022 -0.8112
  192SAPI   H7X22217   2.151   1.167   3.623 -0.0342  0.7068 -0.1122
  192SAPI   H7Y22218   2.230   1.310   3.686 -0.4964  0.3482 -0.7798
  192SAPI   C3822219   2.270   1.130   3.795 -0.1069 -0.6186 -0.6516
  192SAPI   H8X22220   2.264   1.022   3.769  0.1426 -0.2342 -2.4123
  192SAPI   H8Y22221   2.188   1.158   3.864  0.9113  1.3242 -0.1356
  192SAPI   C3922222   2.405   1.158   3.879  0.5038 -0.6503 -0.5261
  192SAPI   H9X22223   2.406   1.266   3.905 -1.3089 -1.0188  1.3884
  192SAPI   H9Y22224   2.485   1.123   3.810  0.1655 -0.5842 -0.9586
  192SAPI  C31022225   2.411   1.069   4.003 -0.1666  0.8018  0.5151
  192SAPI  H10X22226   2.400   0.965   3.965 -2.7883  1.8505 -1.9191
  192SAPI  H10Y22227   2.322   1.084   4.067 -0.1206 -1.5976  1.2494
  192SAPI  C31122228   2.536   1.082   4.099 -0.5008 -0.0280 -0.8955
  192SAPI  H11X22229   2.534   1.189   4.129 -0.5327 -0.3627  0.3376
  192SAPI  H11Y22230   2.625   1.057   4.038 -0.0471 -1.1709  0.1927
  192SAPI  C31222231   2.513   1.000   4.229  0.3692  0.2091 -0.1071
  192SAPI  H12X22232   2.523   0.896   4.192 -0.4315  0.3777 -0.8216
  192SAPI  H12Y22233   2.413   1.027   4.270  1.0577  1.2163  1.0097
  192SAPI  C31322234   2.623   1.022   4.334  0.6803  0.4228  0.3360
  192SAPI  H13X22235   2.592   1.115   4.388 -0.5756  0.4674 -0.4260
  192SAPI  H13Y22236   2.719   1.033   4.280  0.0174 -0.5879 -1.1020
  192SAPI  C31422237   2.631   0.905   4.431  0.0377 -0.1924  0.1945
  192SAPI  H14X22238   2.666   0.807   4.392 -0.5824 -0.3484  0.0197
  192SAPI  H14Y22239   2.530   0.880   4.470  0.9413 -1.4620  1.8508
  192SAPI  C31522240   2.714   0.942   4.555  0.1593 -0.1510  0.0006
  192SAPI  H15X22241   2.668   1.026   4.612  1.7933  1.5659 -1.0948
  192SAPI  H15Y22242   2.808   0.989   4.519  0.8214 -1.6395 -0.2816
  192SAPI  C31622243   2.727   0.820   4.649  0.5017 -0.1689 -0.7187
  192SAPI  H16X22244   2.746   0.729   4.588 -0.9311 -0.4514 -0.7770
  192SAPI  H16Y22245   2.632   0.798   4.703  1.2783 -0.6478  0.4994
  192SAPI  C31722246   2.837   0.844   4.755 -0.3156  0.3288 -0.5746
  192SAPI  H17X22247   2.810   0.938   4.808  0.4369 -0.7610  1.8484
  192SAPI  H17Y22248   2.932   0.850   4.697  0.6630 -1.8410  0.6979
  192SAPI  C31822249   2.846   0.748   4.874 -0.4881  0.1713 -0.1543
  192SAPI  H18X22250   2.945   0.762   4.922  0.0777  1.5315 -1.6357
  192SAPI  H18Y22251   2.852   0.639   4.853 -0.7510  0.5355 -2.4747
  192SAPI  H18Z22252   2.752   0.769   4.930 -3.0854 -0.7317 -3.7399
  193SOD    SOD22253   3.304   6.580   7.709 -0.0061  0.2647 -0.1770
  194SOD    SOD22254   4.979   0.236   7.267 -0.2821  0.1776  0.2305
  195SOD    SOD22255   1.636   6.220   8.513 -0.2157 -0.3723  0.1338
  196SOD    SOD22256   4.290   4.802   2.137 -0.1196  0.7373 -0.5677
  197SOD    SOD22257   5.248   0.711   1.694  0.4270  0.0493 -0.4156
  198SOD    SOD22258   5.851   4.182   2.467 -0.1015 -0.1012  0.2400
  199SOD    SOD22259   1.119   4.323   2.757  0.6417  0.5278  0.0994
  200SOD    SOD22260   2.549   4.169   7.691 -0.0643 -0.2500 -0.0881
  201SOD    SOD22261   6.724   5.396   7.566  0.5811  0.1684 -0.0130
  202SOD    SOD22262   6.290   6.161   1.181 -0.2599 -0.1694 -0.2980
  203SOD    SOD22263   2.227   4.700   2.378  0.3597 -0.1266  0.0396
  204SOD    SOD22264   0.582   0.030   8.536 -0.3623  0.2347 -0.1661
  205SOD    SOD22265   5.624   5.617   6.657 -0.1974  0.4081  0.2911
  206SOD    SOD22266   2.894   5.197   2.711 -0.3513  0.3718 -0.0903
  207SOD    SOD22267   5.985   2.197   8.192  0.1982  0.4977 -0.1464
  208SOD    SOD22268   6.698   0.985   2.179 -0.2149  0.0289 -0.0946
  209SOD    SOD22269   5.471   1.379   0.007 -0.1704 -0.0947 -0.5897
  210SOD    SOD22270   3.851   2.937   1.460  0.0973 -0.1785  0.3218
  211SOD    SOD22271   0.966   4.260   7.945  0.4523  0.3387  0.0222
  212SOD    SOD22272   4.143   4.361   8.521 -0.2390 -0.1629 -0.3655
  213SOD    SOD22273   4.084   2.131   0.488  0.0137 -0.3324 -0.1444
  214SOD    SOD22274   5.260   4.610   6.920  0.3169  0.0168  0.6729
  215SOD    SOD22275   0.485   4.007   2.208  0.3850  0.2776  0.2935
  216SOD    SOD22276   4.428   2.648   0.406 -0.2564 -0.1939  0.3209
  217SOD    SOD22277   3.368   3.934   7.676  0.2854  0.0557 -0.1392
  218SOD    SOD22278   3.066   0.293   7.846 -0.5177 -0.5416 -0.0430
  219SOD    SOD22279   4.735   2.261   2.195  0.0437 -0.5888 -0.3527
  220SOD    SOD22280   1.469   3.683   8.449 -0.8488 -0.3299  0.2158
  221SOD    SOD22281   2.778   5.621   0.130  0.1546  0.5601 -0.6267
  222SOD    SOD22282   5.423   3.529   2.478 -0.2953  0.1254  0.0340
  223SOD    SOD22283   3.607   1.658   1.925 -0.0318  0.3706  0.3607
  224SOD    SOD22284   6.720   1.698   1.998 -0.3640 -0.5226 -0.1628
  225SOD    SOD22285   3.920   2.906   2.379  0.2559 -0.2213 -0.1366
  226SOD    SOD22286   3.595   2.538   8.655 -0.3449 -0.0099  0.1509
  227SOD    SOD22287   2.793   0.654   7.545 -0.4515  0.4669  0.0397
  228SOD    SOD22288   5.025   5.543   1.235  0.4635  0.4793 -0.1660
  229SOD    SOD22289   1.020   0.972   2.584  0.0757 -0.3321  0.6613
  230SOD    SOD22290   1.620   0.395   8.403  0.1331  0.1612 -0.1130
  231SOD    SOD22291   0.761   6.502   7.384 -0.4222  0.3274  0.3705
  232SOD    SOD22292   0.227   6.216   1.747 -0.2915 -0.3206 -0.1381
  233SOD    SOD22293   3.910   6.251   7.999 -0.4405 -0.1781  0.2724
  234CLA    CLA22294   5.041   0.990   8.509 -0.0646  0.1391  0.0474
  235CLA    CLA22295   4.427   4.126   1.012 -0.1098 -0.1801  0.0911
  236CLA    CLA22296   0.512   4.101   1.635  0.1594  0.1120 -0.0472
  237CLA    CLA22297   0.105   3.422   7.729  0.1490 -0.5739  0.1588
  238CLA    CLA22298   3.283   3.721   8.085  0.1232  0.1978  0.4500
  239CLA    CLA22299   4.423   5.568   0.640 -0.0665  0.5201 -0.3778
  240CLA    CLA22300   5.563   3.202   1.634 -0.1424  0.1862 -0.2709
  241CLA    CLA22301   4.034   4.216   2.419 -0.0127  0.1049  0.0383
  242CLA    CLA22302   0.377   0.404   0.170  0.6470  0.1522 -0.2078
  243CLA    CLA22303   5.625   0.683   8.194 -0.2608  0.3639 -0.0660
  244CLA    CLA22304   4.871   5.443   1.881  0.0374 -0.2206  0.3267
  245CLA    CLA22305   1.474   6.729   8.649 -0.4496 -0.0836 -0.4718
  246CLA    CLA22306   3.381   2.395   1.817 -0.2500  0.2960  0.4364
  247CLA    CLA22307   1.823   5.061   0.384 -0.6889  0.2160  0.1472
  248CLA    CLA22308   5.796   6.292   1.095  0.0763 -0.5399 -0.1295
  249CLA    CLA22309   6.352   5.273   0.865 -0.3326  0.1446 -0.3224
  250CLA    CLA22310   6.140   0.869   7.108 -0.0069  0.2541 -0.3945
  251TIP3   OH222311   1.454   6.391   8.297  0.0024  0.3274 -0.0868
  251TIP3    H122312   1.513   6.343   8.239  0.7569  0.7068  0.3438
  251TIP3    H222313   1.382   6.331   8.314  1.0889 -0.7873  0.7039
  252TIP3   OH222314   4.650   6.205   7.918 -0.1504  0.4217  0.6355
  252TIP3    H122315   4.679   6.272   7.856  1.5404 -0.4211  0.4522
  252TIP3    H222316   4.571   6.168   7.878  1.3407 -0.6739 -1.5463
  253TIP3   OH222317   1.407   0.969   8.090 -0.1600  0.3420 -0.3383
  253TIP3    H122318   1.473   1.004   8.031  0.8142 -1.4595 -0.3941
  253TIP3    H222319   1.323   0.999   8.054  0.4544 -0.0728 -2.1908
  254TIP3   OH222320   0.279   4.030   7.415  0.4271  0.0897  0.0419
  254TIP3    H122321   0.214   4.006   7.481 -0.2999 -0.6237 -0.9141
  254TIP3    H222322   0.259   3.974   7.340  0.1248  2.0719 -1.4418
  255TIP3   OH222323   5.271   6.357   8.417 -0.2003 -0.8924 -0.1205
  255TIP3    H122324   5.211   6.283   8.420 -2.7191  0.9872 -0.3388
  255TIP3    H222325   5.246   6.411   8.492  0.3665  0.5712 -0.9406
  256TIP3   OH222326   3.688   6.382   1.798 -0.1705 -0.2241  0.5042
  256TIP3    H122327   3.731   6.414   1.878  2.4807  1.2491 -1.3429
  256TIP3    H222328   3.608   6.434   1.791  1.5959  2.7252  0.1888
  257TIP3   OH222329   5.985   3.861   0.471  0.1176  0.0146  0.3334
  257TIP3    H122330   5.924   3.925   0.435 -0.0334  0.2903  1.0728
  257TIP3    H222331   5.948   3.776   0.446 -0.9750  0.1554  1.4110
  258TIP3   OH222332   4.456   4.932   7.460 -0.2160  0.2172 -0.1318
  258TIP3    H122333   4.494   5.017   7.484 -0.2366  0.4506 -0.9079
  258TIP3    H222334   4.385   4.954   7.400  0.7847 -0.4253 -1.5963
  259TIP3   OH222335   1.834   3.893   0.520  0.3357  0.7156 -0.1108
  259TIP3    H122336   1.868   3.940   0.597  1.2326  1.2489 -0.8219
  259TIP3    H222337   1.879   3.808   0.522  0.9713  1.0427 -0.5012
  260TIP3   OH222338   1.211   6.195   0.805  0.3453  0.0794  0.1721
  260TIP3    H122339   1.302   6.170   0.789  0.3006 -0.0994  0.2044
  260TIP3    H222340   1.209   6.220   0.898 -0.2043 -2.3886  0.8897
  261TIP3   OH222341   5.172   3.625   1.926 -0.1013 -0.4423 -0.1019
  261TIP3    H122342   5.222   3.618   1.844  1.2718  1.3273  0.5209
  261TIP3    H222343   5.136   3.714   1.924  1.7119  0.4315  2.1051
  262TIP3   OH222344   0.894   6.228   1.057 -0.0962  0.2307 -0.0794
  262TIP3    H122345   0.810   6.185   1.043  0.4181 -0.6625 -0.5122
  262TIP3    H222346   0.943   6.168   1.113  0.9690 -0.2015 -1.4266
  263TIP3   OH222347   4.576   4.518   0.718 -0.2845  0.4226  0.4762
  263TIP3    H122348   4.499   4.472   0.683 -0.8098 -0.1334  2.2834
  263TIP3    H222349   4.610   4.460   0.787  0.2682  1.8147  1.4164
  264TIP3   OH222350   5.116   2.556   2.142 -0.4858 -0.1792  0.4917
  264TIP3    H122351   5.075   2.528   2.224 -2.2979 -0.6867 -0.5491
  264TIP3    H222352   5.210   2.541   2.157 -0.9316 -2.0576  1.8017
  265TIP3   OH222353   3.847   4.701   8.458  0.4015 -0.5685 -0.2140
  265TIP3    H122354   3.892   4.617   8.454 -0.2160 -0.8672 -1.9118
  265TIP3    H222355   3.762   4.681   8.497  0.0155 -0.8731 -1.1826
  266TIP3   OH222356   1.272   4.155   1.308 -0.0580  0.7220  0.3252
  266TIP3    H122357   1.185   4.138   1.343 -0.0657  0.2851  0.1072
  266TIP3    H222358   1.307   4.068   1.289  0.8006  0.8279  1.3113
  267TIP3   OH222359   2.785   0.514   1.479  0.6262 -0.1353  0.4139
  267TIP3    H122360   2.692   0.538   1.473  0.4333 -0.5864  1.4618
  267TIP3    H222361   2.814   0.512   1.388 -0.0087  1.4471  0.1390
  268TIP3   OH222362   0.107   5.981   0.109 -0.0285  0.1462  0.1556
  268TIP3    H122363   0.094   5.887   0.097  1.7725 -0.0038 -0.9898
  268TIP3    H222364   0.121   5.991   0.203  1.2113 -0.9808  0.1294
  269TIP3   OH222365   0.384   2.509   8.128  0.0337 -0.0339 -0.0027
  269TIP3    H122366   0.379   2.599   8.158 -2.6901  0.1623 -0.7258
  269TIP3    H222367   0.352   2.457   8.202 -1.0619 -0.0929 -0.4894
  270TIP3   OH222368   0.013   2.139   6.374  0.8348  0.0901 -0.4901
  270TIP3    H122369   0.040   2.075   6.440  1.7917 -0.4796 -1.3914
  270TIP3    H222370   0.046   2.223   6.406  0.1204  0.0359  0.3987
  271TIP3   OH222371   6.048   1.295   2.300  0.9803 -0.1595 -0.0601
  271TIP3    H122372   6.062   1.202   2.282  0.9596  0.0698 -1.3370
  271TIP3    H222373   5.959   1.299   2.337  0.7278 -0.5776 -0.6124
  272TIP3   OH222374   5.698   2.754   1.277  0.2428 -0.1527  0.0446
  272TIP3    H122375   5.754   2.747   1.199  0.3660 -0.3695  0.1528
  272TIP3    H222376   5.673   2.846   1.280 -0.4316 -0.2984 -0.7213
  273TIP3   OH222377   6.472   5.746   7.699 -0.9175 -0.6586  0.7563
  273TIP3    H122378   6.410   5.810   7.734 -0.3136  0.0005  0.6493
  273TIP3    H222379   6.451   5.665   7.744 -2.6007 -0.7361 -0.1087
  274TIP3   OH222380   5.297   2.448   0.365 -0.2105 -0.4256  0.3962
  274TIP3    H122381   5.371   2.508   0.376  0.0219 -0.2992 -1.4411
  274TIP3    H222382   5.223   2.493   0.406  0.0952  0.8745 -0.4102
  275TIP3   OH222383   4.210   2.708   3.162  0.2049  0.0649 -0.5781
  275TIP3    H122384   4.278   2.761   3.204 -0.0264 -0.9270  1.1743
  275TIP3    H222385   4.127   2.744   3.194  0.0502 -2.4314  2.3230
  276TIP3   OH222386   2.795   0.197   0.514  0.3449  0.6251  0.1648
  276TIP3    H122387   2.703   0.189   0.487  0.6409  0.0213 -0.7331
  276TIP3    H222388   2.793   0.256   0.589 -0.5540  2.3247 -1.1251
  277TIP3   OH222389   0.439   4.707   0.460 -0.6224 -0.6709  0.3417
  277TIP3    H122390   0.372   4.765   0.425 -0.2301 -0.1229  0.4884
  277TIP3    H222391   0.494   4.764   0.515 -0.7338 -1.3414  1.1632
  278TIP3   OH222392   2.368   0.305   0.823 -0.5808  0.3162  0.0085
  278TIP3    H122393   2.413   0.267   0.899 -0.8089 -2.2900 -1.0310
  278TIP3    H222394   2.432   0.366   0.785 -0.4811  1.7138  2.2418
  279TIP3   OH222395   3.710   5.417   1.433 -0.0879 -0.3511  0.2403
  279TIP3    H122396   3.787   5.455   1.390  0.2045 -1.5540 -0.3396
  279TIP3    H222397   3.713   5.324   1.409 -2.1768 -0.2801 -0.4719
  280TIP3   OH222398   0.187   0.107   8.347 -0.4601 -0.5768 -0.3379
  280TIP3    H122399   0.124   0.090   8.418  0.5947 -0.3423  0.6914
  280TIP3    H222400   0.135   0.150   8.279 -1.2163  0.6928  0.9595
  281TIP3   OH222401   0.401   1.277   8.504 -0.2589  0.3797  0.3894
  281TIP3    H122402   0.336   1.345   8.522 -0.1687  0.2222  1.3946
  281TIP3    H222403   0.402   1.224   8.584 -0.6204 -1.0497 -0.5039
  282TIP3   OH222404   0.459   3.136   7.722 -0.4078  0.3976  0.2370
  282TIP3    H122405   0.384   3.110   7.775 -0.2093  3.1371  2.0879
  282TIP3    H222406   0.535   3.115   7.775 -0.0110  0.2046 -0.3935
  283TIP3   OH222407   6.181   5.294   2.537  0.1537  0.2017 -0.1910
  283TIP3    H122408   6.119   5.232   2.498  3.0520 -1.7394 -2.1455
  283TIP3    H222409   6.131   5.374   2.550 -3.2781 -1.8313  0.4721
  284TIP3   OH222410   1.035   6.321   8.149  0.0758 -0.3659  0.1640
  284TIP3    H122411   1.087   6.250   8.186  1.0774  0.0335 -0.4297
  284TIP3    H222412   1.048   6.394   8.210 -0.8804 -0.6520  0.7271
  285TIP3   OH222413   3.054   0.335   7.453 -0.3534  0.1552  0.5871
  285TIP3    H122414   3.077   0.280   7.528 -1.2719  0.0377  0.8000
  285TIP3    H222415   2.958   0.334   7.452 -0.3799  1.4561  0.3793
  286TIP3   OH222416   4.640   4.328   0.920  0.2686  0.6115 -0.2526
  286TIP3    H122417   4.568   4.283   0.963  0.6575  1.8978  1.9090
  286TIP3    H222418   4.718   4.277   0.945  0.3433  0.4872 -0.7325
  287TIP3   OH222419   3.195   0.393   0.610 -0.1139 -0.1823  0.6018
  287TIP3    H122420   3.156   0.307   0.590 -2.9677  0.9811  0.7383
  287TIP3    H222421   3.221   0.427   0.524  0.9461 -1.0913  0.5353
  288TIP3   OH222422   5.545   5.920   0.992  1.0053  0.5731  0.1873
  288TIP3    H122423   5.625   5.954   1.034  0.1167  0.9889  1.6368
  288TIP3    H222424   5.484   5.909   1.065  0.1973 -1.1202 -0.7008
  289TIP3   OH222425   2.035   5.108   1.997 -0.0464  0.0506 -0.7690
  289TIP3    H122426   2.107   5.051   2.025 -0.6507 -1.2230 -1.7166
  289TIP3    H222427   2.076   5.193   1.983  1.0284 -0.3333 -0.0365
  290TIP3   OH222428   3.292   0.073   1.292 -0.8780 -0.7158  0.2803
  290TIP3    H122429   3.374   0.090   1.245 -0.9104 -0.3208  0.3647
  290TIP3    H222430   3.241   0.154   1.281 -1.1821 -0.8918  0.3835
  291TIP3   OH222431   3.341   5.275   0.214 -0.5385  0.4606  0.5735
  291TIP3    H122432   3.376   5.336   0.278  1.4493  1.5849 -1.4363
  291TIP3    H222433   3.417   5.241   0.167 -1.7380 -2.0395  0.2372
  292TIP3   OH222434   5.553   3.339   2.521 -0.1502 -0.3370 -0.0897
  292TIP3    H122435   5.577   3.326   2.613 -0.4343  0.1812  0.0609
  292TIP3    H222436   5.635   3.327   2.473 -0.0771 -1.0196  0.1844
  293TIP3   OH222437   6.535   4.367   2.151 -0.0717 -0.2436 -0.4563
  293TIP3    H122438   6.570   4.328   2.231 -0.8467 -1.1427 -0.5414
  293TIP3    H222439   6.605   4.426   2.121 -0.2895  1.1880  1.5955
  294TIP3   OH222440   2.612   1.750   1.399  0.1832  0.1520 -0.0682
  294TIP3    H122441   2.548   1.692   1.441  1.9396 -0.4542  1.9653
  294TIP3    H222442   2.570   1.836   1.398 -1.2547 -0.5189 -0.2834
  295TIP3   OH222443   6.304   1.627   1.334  0.5526  0.2272 -0.5033
  295TIP3    H122444   6.292   1.615   1.428  3.6354 -2.0177 -0.2444
  295TIP3    H222445   6.384   1.678   1.325  0.0062  0.9013 -1.9584
  296TIP3   OH222446   0.149   2.685   0.010  0.3223  0.0611  0.0846
  296TIP3    H122447   0.231   2.651  -0.025  1.0690  0.5279  1.2893
  296TIP3    H222448   0.164   2.690   0.105 -1.4160 -0.6746  0.4332
  297TIP3   OH222449   2.036   1.509   7.306 -0.4688  0.5959  0.3335
  297TIP3    H122450   1.994   1.444   7.250 -1.3909  0.6680  0.9164
  297TIP3    H222451   2.025   1.592   7.260 -0.4031  0.5170  0.1775
  298TIP3   OH222452   3.162   0.399   8.328 -0.5190  0.2855  0.3029
  298TIP3    H122453   3.238   0.457   8.339  1.1048 -1.1082 -2.5167
  298TIP3    H222454   3.190   0.316   8.367 -0.7246 -0.1375 -0.4429
  299TIP3   OH222455   2.815   1.830   8.290 -0.2541  0.2765  0.4070
  299TIP3    H122456   2.878   1.810   8.358 -0.0075  1.6264  0.5907
  299TIP3    H222457   2.821   1.755   8.229  2.2593  0.8329 -0.1242
  300TIP3   OH222458   1.181   1.008   2.248  0.1840 -0.0841  0.4144
  300TIP3    H122459   1.168   0.996   2.342 -0.0724  0.5431  0.4651
  300TIP3    H222460   1.274   0.988   2.234  0.1515 -0.4688  0.7528
  301TIP3   OH222461   4.689   1.534   0.556 -0.2356  0.0526 -0.0949
  301TIP3    H122462   4.617   1.575   0.604  0.0756  1.0901 -0.4987
  301TIP3    H222463   4.765   1.545   0.612 -0.4671 -1.5204  0.5778
  302TIP3   OH222464   0.406   3.795   1.677  0.3091 -1.0853 -0.3916
  302TIP3    H122465   0.410   3.890   1.685 -0.9197 -1.1641  2.0160
  302TIP3    H222466   0.491   3.764   1.709  1.1945 -0.8298 -2.3215
  303TIP3   OH222467   0.869   1.281   7.238  0.1161  0.8298 -0.0441
  303TIP3    H122468   0.905   1.262   7.152  0.8612  2.6308 -0.1735
  303TIP3    H222469   0.819   1.203   7.261 -0.4814  0.4935 -2.2976
  304TIP3   OH222470   5.357   5.509   7.044 -0.1676  0.2685 -0.0812
  304TIP3    H122471   5.270   5.519   7.083  0.1492 -1.7905  1.2952
  304TIP3    H222472   5.412   5.476   7.115  1.7299  1.3772 -0.9640
  305TIP3   OH222473   1.732   6.018   2.942  0.5966 -0.3524  0.3187
  305TIP3    H122474   1.711   6.044   3.032  1.7562  1.2583  0.1662
  305TIP3    H222475   1.676   5.942   2.926 -0.9158  0.3662  1.7963
  306TIP3   OH222476   6.838   1.282   0.392  0.8232 -0.0021  0.6040
  306TIP3    H122477   6.784   1.257   0.466  1.3302  1.2254  1.4248
  306TIP3    H222478   6.793   1.357   0.353 -0.8969 -2.2134 -2.0615
  307TIP3   OH222479   4.015   2.668   0.332 -0.4075 -0.0992 -0.2378
  307TIP3    H122480   4.078   2.729   0.371  0.5203 -0.9668 -0.3300
  307TIP3    H222481   4.013   2.691   0.240  0.5099 -0.6521 -0.4143
  308TIP3   OH222482   3.658   4.616   0.061 -0.1634 -0.2911 -0.0938
  308TIP3    H122483   3.687   4.568   0.138  2.7291  0.5325 -0.5561
  308TIP3    H222484   3.647   4.550  -0.007  0.9083 -0.6247  0.0518
  309TIP3   OH222485   5.334   1.727   1.417 -0.6953 -0.7150  0.0174
  309TIP3    H122486   5.265   1.780   1.458  0.7211  1.6799 -0.4834
  309TIP3    H222487   5.355   1.773   1.336  0.1871 -2.4539 -0.7999
  310TIP3   OH222488   5.508   2.271   7.883  0.2937 -0.4597  0.1150
  310TIP3    H122489   5.581   2.332   7.894 -1.1706  1.3596  0.2282
  310TIP3    H222490   5.460   2.304   7.807 -0.0437 -2.0418 -0.4083
  311TIP3   OH222491   4.007   2.772   2.199 -0.2116  0.4974 -0.2566
  311TIP3    H122492   4.081   2.711   2.202  0.0749  0.8702  0.2986
  311TIP3    H222493   3.958   2.746   2.120 -0.1099 -0.4664 -0.0134
  312TIP3   OH222494   6.884   1.607   0.236 -0.2324 -0.0478  0.4322
  312TIP3    H122495   6.811   1.588   0.294 -0.6945  1.4552  0.3965
  312TIP3    H222496   6.848   1.598   0.148 -0.0229 -0.5630  0.3984
  313TIP3   OH222497   4.192   0.711   7.377 -0.3136  0.4330 -0.6244
  313TIP3    H122498   4.152   0.641   7.325 -0.2347 -0.8194  0.9294
  313TIP3    H222499   4.282   0.716   7.344 -0.4064  0.0205 -0.9555
  314TIP3   OH222500   1.490   1.758   0.241 -0.1387 -0.2421 -0.2607
  314TIP3    H122501   1.517   1.767   0.333  0.8610  0.4749 -0.5965
  314TIP3    H222502   1.412   1.813   0.233  0.5732  0.8160 -0.1408
  315TIP3   OH222503   3.600   6.015   1.064 -0.3055 -0.5207  0.4367
  315TIP3    H122504   3.563   5.988   0.979 -3.5099 -1.6635  2.0127
  315TIP3    H222505   3.649   5.939   1.094 -0.5081 -0.7134  0.2847
  316TIP3   OH222506   5.249   3.360   8.021 -0.6125 -0.3192 -0.4197
  316TIP3    H122507   5.218   3.443   8.056  0.5428  0.5903 -1.4685
  316TIP3    H222508   5.292   3.383   7.938  2.4205 -1.4888  0.6861
  317TIP3   OH222509   3.813   5.391   1.998  0.1213  0.0561  0.6291
  317TIP3    H122510   3.895   5.378   1.951  1.0455 -0.5888  2.3401
  317TIP3    H222511   3.788   5.303   2.028 -0.3802  0.4554  1.4160
  318TIP3   OH222512   6.552   2.759   1.050  0.6148  0.6361  0.5586
  318TIP3    H122513   6.615   2.737   0.982  0.0602 -1.5704  0.7011
  318TIP3    H222514   6.589   2.721   1.130 -1.2706 -1.5726  0.4800
  319TIP3   OH222515   5.461   3.149   0.764  0.0689  0.2950 -0.9479
  319TIP3    H122516   5.530   3.127   0.827 -0.4381 -0.4699 -0.6440
  319TIP3    H222517   5.390   3.185   0.818 -0.1326  0.2135 -1.1575
  320TIP3   OH222518   0.373   3.997   7.844 -0.0241 -0.0602 -0.0042
  320TIP3    H122519   0.408   4.052   7.914  0.1909  0.8024 -0.7756
  320TIP3    H222520   0.429   3.919   7.845  0.0412 -0.0071  0.7139
  321TIP3   OH222521   5.175   4.285   1.588  0.1775  0.2962 -0.2449
  321TIP3    H122522   5.118   4.246   1.654 -1.4350  2.0870 -0.4827
  321TIP3    H222523   5.215   4.210   1.544 -1.4644 -1.0402  0.4025
  322TIP3   OH222524   0.966   5.795   2.205  0.0050  0.1074  0.2602
  322TIP3    H122525   0.999   5.814   2.293 -1.5310  0.8828  0.6907
  322TIP3    H222526   0.873   5.776   2.217 -0.1095 -0.3310 -1.1377
  323TIP3   OH222527   1.033   0.451   1.000 -0.3011  0.0499 -0.6095
  323TIP3    H122528   0.942   0.465   1.026  0.3495 -0.4413  2.2931
  323TIP3    H222529   1.069   0.540   0.992 -0.0026  0.3590  2.6960
  324TIP3   OH222530   0.788   3.671   1.117 -0.6157  0.7287  0.0145
  324TIP3    H122531   0.778   3.751   1.168 -1.5003  0.4799  0.2454
  324TIP3    H222532   0.713   3.617   1.143  0.4110 -0.5040  0.4542
  325TIP3   OH222533   0.369   1.352   6.673  0.8517  0.6263 -0.4870
  325TIP3    H122534   0.362   1.327   6.765  2.7669  1.4334 -0.0782
  325TIP3    H222535   0.358   1.447   6.673 -2.0652  0.3752 -1.5037
  326TIP3   OH222536   5.100   2.249   8.186  0.1144  0.0507  0.1722
  326TIP3    H122537   5.082   2.294   8.269  0.2166  0.4738 -0.0329
  326TIP3    H222538   5.117   2.320   8.124  0.1430 -0.2700 -0.1863
  327TIP3   OH222539   3.048   2.911   2.000 -0.0581 -0.3741  0.0677
  327TIP3    H122540   3.031   2.987   1.944 -2.1986 -2.5919 -2.5553
  327TIP3    H222541   3.083   2.845   1.940  0.1601 -2.0137  1.9287
  328TIP3   OH222542   0.267   2.573   1.621 -0.8291 -0.4669 -0.4078
  328TIP3    H122543   0.276   2.652   1.675  0.1538 -0.5839 -0.3856
  328TIP3    H222544   0.187   2.588   1.571 -1.0241  0.2454  0.0873
  329TIP3   OH222545   6.833   1.851   1.105  0.0530  0.1181  0.8679
  329TIP3    H122546   6.812   1.764   1.072 -0.0369 -0.2083  1.7522
  329TIP3    H222547   6.750   1.899   1.102  0.2405  0.3950 -0.2439
  330TIP3   OH222548   3.399   6.071   2.788  0.2235 -0.7822 -0.5514
  330TIP3    H122549   3.305   6.075   2.807  0.6675  2.6342  1.6590
  330TIP3    H222550   3.441   6.069   2.874  2.2235 -0.1870 -1.4523
  331TIP3   OH222551   2.372   0.911   1.574 -0.3995  0.0077  0.0469
  331TIP3    H122552   2.376   1.006   1.565 -0.6173  0.5353  3.9706
  331TIP3    H222553   2.279   0.890   1.564 -0.2690  0.0237 -1.5187
  332TIP3   OH222554   0.843   5.467   6.277 -0.1800  0.2364 -0.0584
  332TIP3    H122555   0.937   5.486   6.279 -0.1232  0.0036 -0.4768
  332TIP3    H222556   0.837   5.377   6.309 -0.2820  0.3276  0.1801
  333TIP3   OH222557   0.970   2.976   7.716  0.1996 -0.5429 -0.4315
  333TIP3    H122558   1.033   2.937   7.776  0.5934 -0.2597 -0.6496
  333TIP3    H222559   0.986   3.070   7.722  0.5935 -0.5359 -1.3481
  334TIP3   OH222560   6.415   3.027   1.068  0.4947  0.0979 -0.1882
  334TIP3    H122561   6.479   3.061   1.005 -0.6102 -0.9253 -1.9809
  334TIP3    H222562   6.454   2.946   1.100  1.4802  1.0922  1.2265
  335TIP3   OH222563   4.707   0.724   2.891  0.3231 -0.0782 -0.3346
  335TIP3    H122564   4.795   0.741   2.857  0.4928  0.3450  0.3000
  335TIP3    H222565   4.649   0.736   2.816  0.7349  0.4032 -0.5777
  336TIP3   OH222566   1.026   4.092   7.385 -0.0411 -0.0271 -0.4316
  336TIP3    H122567   0.978   4.025   7.335  0.3549  0.5088 -1.5693
  336TIP3    H222568   1.105   4.108   7.334  0.6505  0.1626  0.6652
  337TIP3   OH222569   1.842   0.630   0.062  0.3992 -0.5588 -0.1668
  337TIP3    H122570   1.807   0.640   0.150  1.8837 -1.3873  0.5501
  337TIP3    H222571   1.863   0.720   0.035  0.2804 -0.3362  0.4555
  338TIP3   OH222572   6.669   6.350   6.669  0.2336  0.7107  0.7699
  338TIP3    H122573   6.631   6.262   6.677  0.4476  0.7019  1.8760
  338TIP3    H222574   6.742   6.339   6.609 -0.9420  0.5527 -0.7103
  339TIP3   OH222575   3.696   6.227   7.936  0.0042 -0.2007  0.4691
  339TIP3    H122576   3.646   6.148   7.956 -1.3531  0.6915  0.7651
  339TIP3    H222577   3.675   6.247   7.845  0.3875 -0.2026  0.3769
  340TIP3   OH222578   3.568   5.405   1.912  0.2268 -0.2811  0.2303
  340TIP3    H122579   3.649   5.431   1.957  0.3900  1.2732 -0.8488
  340TIP3    H222580   3.588   5.419   1.819 -0.5008 -2.2208 -0.2467
  341TIP3   OH222581   0.860   6.820   0.567 -0.3518  0.1644  0.0525
  341TIP3    H122582   0.794   6.876   0.526 -0.8015  0.7014  1.4829
  341TIP3    H222583   0.815   6.782   0.642  0.5095 -0.7011  0.1421
  342TIP3   OH222584   1.706   5.738   0.586  0.1330  0.2793  0.3417
  342TIP3    H122585   1.776   5.801   0.569  0.0465  0.5963  1.0798
  342TIP3    H222586   1.638   5.759   0.522  1.0263 -0.5700 -0.9345
  343TIP3   OH222587   2.558   1.189   0.004 -0.3806 -0.0024  0.2574
  343TIP3    H122588   2.563   1.171   0.098 -0.0902 -0.0386  0.2361
  343TIP3    H222589   2.504   1.268  -0.002 -0.5628 -0.1132  0.4420
  344TIP3   OH222590   1.164   5.000   0.864 -0.2800  0.7447 -0.2895
  344TIP3    H122591   1.203   4.917   0.836  2.6470  2.1055 -0.5824
  344TIP3    H222592   1.100   5.020   0.795 -2.3208 -1.9817  0.6368
  345TIP3   OH222593   6.653   1.515   0.378 -0.2295 -0.1331  0.0049
  345TIP3    H122594   6.588   1.490   0.443 -3.1508  1.1283 -2.2301
  345TIP3    H222595   6.606   1.517   0.295  3.1790 -1.1577 -2.1876
  346TIP3   OH222596   2.493   2.899   2.303 -0.0778 -0.3886 -0.2872
  346TIP3    H122597   2.479   2.993   2.303 -2.4952 -0.6876 -0.6456
  346TIP3    H222598   2.531   2.880   2.389  0.7157  0.9121 -0.3260
  347TIP3   OH222599   1.602   2.062   0.744 -0.0401 -0.6008  0.4654
  347TIP3    H122600   1.537   2.076   0.812  0.4404 -1.8706  1.2135
  347TIP3    H222601   1.553   2.030   0.669 -0.5995  0.9946  0.1191
  348TIP3   OH222602   4.501   1.036   8.055  0.0615  0.1851  0.2478
  348TIP3    H122603   4.427   0.976   8.053  0.5342 -0.4185  0.4684
  348TIP3    H222604   4.522   1.050   7.963 -0.1946  0.1873  0.1899
  349TIP3   OH222605   2.761   4.659   1.158  0.3688 -0.4248  0.2340
  349TIP3    H122606   2.789   4.577   1.200 -0.3638 -1.6131 -1.4683
  349TIP3    H222607   2.759   4.638   1.065 -0.7754  1.2650 -0.1650
  350TIP3   OH222608   4.313   1.071   1.056  0.3820 -0.2346  0.3260
  350TIP3    H122609   4.304   1.022   1.138  2.0259  0.0343  0.6901
  350TIP3    H222610   4.310   1.003   0.988  0.2573 -0.5923  0.6826
  351TIP3   OH222611   1.403   5.300   0.461  0.7092  0.4632  0.3727
  351TIP3    H122612   1.465   5.306   0.388 -0.5024  1.3658 -0.6277
  351TIP3    H222613   1.326   5.347   0.430 -1.0151 -1.7912  1.0328
  352TIP3   OH222614   0.287   1.951   0.301  0.2281 -0.0666 -0.7102
  352TIP3    H122615   0.373   1.948   0.260  0.7661  0.2947  0.3507
  352TIP3    H222616   0.227   1.920   0.233  1.0089  0.9570 -1.9111
  353TIP3   OH222617   2.781   2.917   1.562  0.0996  0.4183 -0.1862
  353TIP3    H122618   2.867   2.879   1.580  0.9624  2.3181  0.0128
  353TIP3    H222619   2.742   2.930   1.648  0.1517  0.6828 -0.2000
  354TIP3   OH222620   6.438   4.877   7.296 -0.2436 -0.3391  0.2694
  354TIP3    H122621   6.486   4.936   7.238  0.4905 -0.8989  0.2898
  354TIP3    H222622   6.452   4.912   7.384  0.0641 -0.4554  0.2674
  355TIP3   OH222623   4.619   4.409   1.971  0.4492  0.3146  0.5286
  355TIP3    H122624   4.603   4.321   1.937  1.8695  0.0412  0.4985
  355TIP3    H222625   4.553   4.464   1.928  0.3056 -0.5302 -0.3726
  356TIP3   OH222626   3.450   2.388   1.485 -0.0693 -0.3210 -0.2803
  356TIP3    H122627   3.538   2.413   1.515  0.0818 -1.0666 -0.0687
  356TIP3    H222628   3.403   2.366   1.565 -0.0505 -1.1246 -0.4733
  357TIP3   OH222629   4.942   0.588   7.549  0.2561  0.0615 -0.7931
  357TIP3    H122630   4.977   0.614   7.464 -1.7116 -0.8412 -1.9357
  357TIP3    H222631   5.016   0.544   7.592  0.3273 -3.1618 -3.7049
  358TIP3   OH222632   4.755   3.231   1.216  0.5218  0.5827  0.2768
  358TIP3    H122633   4.843   3.213   1.248  1.3952 -0.7275 -2.4928
  358TIP3    H222634   4.769   3.271   1.130 -1.5843  0.0798 -0.3562
  359TIP3   OH222635   4.176   2.485   0.100  0.6416  0.3705  0.1688
  359TIP3    H122636   4.144   2.575   0.099 -0.0571  0.1291  0.5601
  359TIP3    H222637   4.249   2.485   0.038 -1.6642  0.3728 -2.7954
  360TIP3   OH222638   6.047   0.771   1.239 -0.1776  0.1629  0.0413
  360TIP3    H122639   6.027   0.693   1.187  0.4523  0.4948 -0.7175
  360TIP3    H222640   5.996   0.760   1.320 -2.2084  0.2590 -1.1656
  361TIP3   OH222641   4.570   0.597   7.483 -0.2642 -0.3078  0.4656
  361TIP3    H122642   4.579   0.664   7.415  1.6424 -1.5735 -0.6070
  361TIP3    H222643   4.522   0.526   7.440 -0.2010 -0.5885  0.8621
  362TIP3   OH222644   2.289   2.003   7.814 -0.1078  0.4890  0.2623
  362TIP3    H122645   2.253   1.918   7.839 -0.4957  0.5631 -0.0431
  362TIP3    H222646   2.220   2.046   7.764 -0.6997  1.8001  2.0832
  363TIP3   OH222647   6.718   0.307   8.567  0.7897 -0.0198 -0.6265
  363TIP3    H122648   6.741   0.351   8.485 -0.1920 -2.5133 -2.3646
  363TIP3    H222649   6.623   0.304   8.568  0.8089 -1.5996 -0.3394
  364TIP3   OH222650   1.943   3.480   2.311  0.1390  0.6513  0.2319
  364TIP3    H122651   1.917   3.543   2.377 -1.0211  1.6367 -1.0934
  364TIP3    H222652   1.860   3.450   2.272  0.6266 -1.7686  0.8488
  365TIP3   OH222653   6.275   2.916   1.283  0.0702 -0.2848 -0.2600
  365TIP3    H122654   6.289   2.991   1.225 -0.1743  2.5503  3.0442
  365TIP3    H222655   6.184   2.925   1.313 -0.0549 -2.1001  0.0004
  366TIP3   OH222656   4.658   1.287   0.040 -0.1372  0.6407 -0.1432
  366TIP3    H122657   4.687   1.227  -0.029 -0.4441 -0.1974  0.4494
  366TIP3    H222658   4.738   1.328   0.071 -0.2057  3.5618 -3.2167
  367TIP3   OH222659   4.382   0.045   7.041 -0.8021 -0.7291 -0.1521
  367TIP3    H122660   4.441   0.096   6.986  0.1250  0.2070  1.6293
  367TIP3    H222661   4.299   0.046   6.994 -1.1019  3.2125  0.1569
  368TIP3   OH222662   2.670   0.850   8.119 -0.4113 -0.1262  0.5410
  368TIP3    H122663   2.691   0.918   8.056 -1.5632 -0.9834 -0.8453
  368TIP3    H222664   2.664   0.770   8.067 -4.0370 -0.4486  1.1395
  369TIP3   OH222665   0.249   0.130   1.615  0.1878 -0.4325 -0.0712
  369TIP3    H122666   0.235   0.129   1.710  0.8233 -1.3919  0.0212
  369TIP3    H222667   0.175   0.082   1.579  0.1333 -0.3790 -0.0301
  370TIP3   OH222668   2.076   3.196   2.286 -0.0850 -0.3272 -0.0145
  370TIP3    H122669   2.058   3.290   2.286  2.0122  0.2720 -4.1441
  370TIP3    H222670   2.121   3.181   2.370 -0.4877  2.3114  0.7653
  371TIP3   OH222671   4.316   6.676   2.764 -0.4807 -0.3985  0.3239
  371TIP3    H122672   4.280   6.748   2.816 -1.5112 -1.8245  1.6740
  371TIP3    H222673   4.397   6.652   2.808 -1.3649 -1.6212  1.3597
  372TIP3   OH222674   5.500   5.637   0.960  0.2129  0.3340  0.3144
  372TIP3    H122675   5.562   5.710   0.953 -1.5819  2.1458  1.9717
  372TIP3    H222676   5.521   5.596   1.043  0.8589 -0.7365 -0.3613
  373TIP3   OH222677   2.341   5.414   0.975 -0.6488 -0.0025  0.2337
  373TIP3    H122678   2.346   5.495   0.924  1.3436  1.1465  2.0717
  373TIP3    H222679   2.417   5.418   1.033 -1.5189 -2.3325  1.6548
  374TIP3   OH222680   1.920   6.128   7.875  0.1660  0.3528 -0.4701
  374TIP3    H122681   1.877   6.206   7.912 -0.3608 -0.1837  0.0685
  374TIP3    H222682   1.848   6.071   7.849  0.5521  0.0156 -0.8157
  375TIP3   OH222683   5.284   0.876   0.750 -0.1121  0.6122  0.2245
  375TIP3    H122684   5.256   0.810   0.814  0.4092  0.5292  0.3696
  375TIP3    H222685   5.203   0.906   0.710 -0.4772  0.9231  1.1718
  376TIP3   OH222686   1.640   6.641   7.503  0.2506 -0.4837 -0.0500
  376TIP3    H122687   1.582   6.698   7.452  0.3236 -2.1823 -2.1992
  376TIP3    H222688   1.728   6.669   7.479  0.3121 -0.0637  0.6424
  377TIP3   OH222689   3.395   1.972   0.170  0.1282  0.5377  0.5934
  377TIP3    H122690   3.335   2.017   0.110  3.5961 -0.7857 -4.4770
  377TIP3    H222691   3.442   2.043   0.214  0.0756  1.7188 -1.1664
  378TIP3   OH222692   2.532   3.000   7.459  0.2047  0.0306  0.1274
  378TIP3    H122693   2.467   2.930   7.469 -0.7370  0.9044  0.3449
  378TIP3    H222694   2.482   3.080   7.475  1.6977  0.6405  1.9812
  379TIP3   OH222695   2.451   3.185   2.432 -0.3259 -0.2301 -0.2809
  379TIP3    H122696   2.416   3.142   2.510  1.2434  1.0239  1.2029
  379TIP3    H222697   2.397   3.264   2.422  0.0382  0.0711  0.0955
  380TIP3   OH222698   0.237   6.723   7.740 -0.3917  0.2019  0.2407
  380TIP3    H122699   0.150   6.689   7.763 -0.3408  0.0687  0.2381
  380TIP3    H222700   0.279   6.651   7.692  0.3855 -0.4233  1.7806
  381TIP3   OH222701   6.080   4.238   0.733  0.2157  0.2674  0.1899
  381TIP3    H122702   6.002   4.264   0.685 -1.9314  1.0099  3.7415
  381TIP3    H222703   6.147   4.302   0.707 -0.6970  0.4700 -1.8708
  382TIP3   OH222704   4.767   5.044   1.081  0.0018  0.5542 -0.1216
  382TIP3    H122705   4.755   5.136   1.058  0.0865  0.7103  0.4621
  382TIP3    H222706   4.716   4.997   1.015 -2.7337  1.1397  1.4169
  383TIP3   OH222707   4.193   5.464   2.503 -0.2646 -0.1857 -0.7102
  383TIP3    H122708   4.215   5.456   2.411  1.5168  2.4196 -0.5921
  383TIP3    H222709   4.275   5.485   2.547 -0.9236 -1.9605  1.6376
  384TIP3   OH222710   2.904   0.778   1.339  0.7056  0.4208  0.1072
  384TIP3    H122711   2.989   0.819   1.358  0.7475  0.0897  0.6635
  384TIP3    H222712   2.845   0.815   1.404  0.1798  1.3979 -0.8963
  385TIP3   OH222713   3.210   3.244   7.262 -0.1145 -0.2962 -0.3173
  385TIP3    H122714   3.279   3.178   7.264  0.7279  0.5545 -0.3075
  385TIP3    H222715   3.257   3.327   7.268 -1.2867  0.2761  3.0249
  386TIP3   OH222716   4.316   0.924   1.271 -0.3506  0.5966 -0.1990
  386TIP3    H122717   4.227   0.893   1.259 -0.6079  1.0426  0.5372
  386TIP3    H222718   4.352   0.870   1.341 -0.1782  0.6801 -0.2210
  387TIP3   OH222719   1.986   3.825   2.809  0.1970  0.4404 -0.2085
  387TIP3    H122720   1.961   3.850   2.898  0.5052  0.7510 -0.2061
  387TIP3    H222721   2.082   3.819   2.812  0.1366 -1.0073 -0.1376
  388TIP3   OH222722   6.415   3.201   2.207  0.6596  0.1502  0.3167
  388TIP3    H122723   6.407   3.142   2.283  0.1113 -0.6861 -0.3671
  388TIP3    H222724   6.351   3.270   2.224  0.3770 -0.1535  0.5145
  389TIP3   OH222725   5.767   2.215   8.078  0.3910  0.0221 -0.0051
  389TIP3    H122726   5.781   2.237   7.986 -1.1336 -0.4152 -0.3717
  389TIP3    H222727   5.737   2.124   8.076  1.0307 -0.2298  0.9998
  390TIP3   OH222728   5.388   1.904   7.354 -0.4910 -0.3905  0.1076
  390TIP3    H122729   5.446   1.876   7.425 -1.1740 -0.9649  0.4582
  390TIP3    H222730   5.392   1.832   7.290 -2.0798 -1.2501  0.9084
  391TIP3   OH222731   3.885   0.953   7.073  0.2144 -0.0613 -0.3788
  391TIP3    H122732   3.949   1.023   7.059  0.6540 -0.1686  0.9643
  391TIP3    H222733   3.926   0.896   7.138 -1.3999  0.0756  0.8075
  392TIP3   OH222734   2.092   0.059   8.608  0.0783  0.5249  0.2436
  392TIP3    H122735   2.140   0.041   8.689 -0.1015  1.3443  0.5384
  392TIP3    H222736   2.068   0.151   8.614 -0.8164  0.3368 -0.2855
  393TIP3   OH222737   6.257   2.067   8.587  0.1798 -0.0541 -0.0398
  393TIP3    H122738   6.282   2.082   8.678  0.7961 -1.1473 -0.0159
  393TIP3    H222739   6.171   2.024   8.592 -0.4437  1.1522 -0.0356
  394TIP3   OH222740   6.390   6.218   0.960 -0.2764 -0.1463  0.4221
  394TIP3    H122741   6.397   6.154   0.889  0.4328  0.2604  0.1062
  394TIP3    H222742   6.382   6.302   0.914 -1.7028 -0.0336  0.8227
  395TIP3   OH222743   2.717   0.287   1.850  0.0092  0.2865 -0.3115
  395TIP3    H122744   2.722   0.345   1.926 -1.1220 -1.1466  0.9215
  395TIP3    H222745   2.808   0.275   1.823  0.4686  0.5344  1.0598
  396TIP3   OH222746   1.622   6.659   1.265 -0.2465 -0.8909 -0.0824
  396TIP3    H122747   1.573   6.615   1.334 -0.5888  0.5017  0.5997
  396TIP3    H222748   1.713   6.652   1.294 -0.5567  2.4144  2.3067
  397TIP3   OH222749   1.515   2.842   2.738 -0.4601  0.1020  0.1586
  397TIP3    H122750   1.523   2.927   2.781  3.6310 -0.2756  0.5757
  397TIP3    H222751   1.538   2.859   2.647 -0.9602 -0.3898 -0.0687
  398TIP3   OH222752   4.277   3.023   1.807  0.6370 -0.4259 -0.0719
  398TIP3    H122753   4.284   2.980   1.892 -2.3327 -0.8912  0.0498
  398TIP3    H222754   4.297   2.953   1.744 -1.5997 -1.4139  0.2023
  399TIP3   OH222755   0.178   6.731   7.125 -0.0788 -0.0575 -0.0815
  399TIP3    H122756   0.129   6.754   7.046  0.8170 -0.4825 -0.7945
  399TIP3    H222757   0.209   6.815   7.159 -1.8341  0.2866  0.7838
  400TIP3   OH222758   2.843   0.460   7.046 -0.6442  0.0412 -1.1339
  400TIP3    H122759   2.886   0.544   7.064 -0.0510 -0.4718 -0.0289
  400TIP3    H222760   2.911   0.407   7.004 -0.3336 -0.5851  0.1131
  401TIP3   OH222761   2.739   1.493   7.273  0.2658  0.3890  0.1152
  401TIP3    H122762   2.752   1.401   7.248  0.6139  0.5648 -0.3628
  401TIP3    H222763   2.823   1.535   7.254  0.0763  0.8270  0.2436
  402TIP3   OH222764   0.994   3.957   2.154 -0.3886  0.0272  0.4534
  402TIP3    H122765   1.073   3.904   2.144  0.0137  0.6040  0.5477
  402TIP3    H222766   0.945   3.915   2.224 -1.2586 -1.6560 -1.0615
  403TIP3   OH222767   2.832   3.297   8.036 -0.4105  0.0357  0.2778
  403TIP3    H122768   2.902   3.360   8.053  0.8762 -1.1324 -0.5156
  403TIP3    H222769   2.812   3.309   7.943  1.5252 -2.3018 -0.5201
  404TIP3   OH222770   1.964   1.936   8.159  0.3851  0.2170  0.5519
  404TIP3    H122771   1.875   1.935   8.194 -0.3834 -0.1481 -1.2931
  404TIP3    H222772   1.954   1.968   8.069  2.0285 -0.5285  0.0687
  405TIP3   OH222773   5.740   3.238   0.935 -0.4861 -0.5081  0.0478
  405TIP3    H122774   5.800   3.313   0.945 -1.1254 -0.1923  1.9016
  405TIP3    H222775   5.781   3.184   0.867  1.2921  0.2738  0.4237
  406TIP3   OH222776   6.619   4.281   2.388  0.0727 -0.2839 -0.1002
  406TIP3    H122777   6.622   4.186   2.385 -1.0630 -0.4078  1.5670
  406TIP3    H222778   6.636   4.303   2.479  0.0177  1.1089 -0.4024
  407TIP3   OH222779   1.104   0.523   7.854  0.2358 -0.8254  0.0129
  407TIP3    H122780   1.009   0.526   7.855  0.2427  2.4768  0.2393
  407TIP3    H222781   1.127   0.527   7.761  0.1193  0.0195  0.0099
  408TIP3   OH222782   6.378   6.788   0.829 -0.7326  0.4381 -0.4849
  408TIP3    H122783   6.422   6.717   0.876 -2.6845 -1.1476 -0.9164
  408TIP3    H222784   6.377   6.861   0.891  1.5743  0.2418 -0.1249
  409TIP3   OH222785   4.295   2.152   2.338  0.2113 -0.0890 -0.6795
  409TIP3    H122786   4.276   2.232   2.386 -1.6189 -0.7554 -0.2364
  409TIP3    H222787   4.216   2.134   2.288  1.2913 -0.5994 -2.3149
  410TIP3   OH222788   4.741   0.608   2.234 -0.5674  0.3025 -0.1449
  410TIP3    H122789   4.746   0.523   2.278  1.4140  1.6440  2.5353
  410TIP3    H222790   4.833   0.632   2.219 -1.0923  1.8639 -1.0724
  411TIP3   OH222791   6.465   4.822   0.906  0.9990  0.3142  0.4465
  411TIP3    H122792   6.422   4.876   0.840  2.1605  0.0321 -0.5771
  411TIP3    H222793   6.397   4.804   0.971 -0.1065  0.7896 -0.5528
  412TIP3   OH222794   4.743   6.435   1.855  0.1909 -0.0977 -0.2148
  412TIP3    H122795   4.772   6.471   1.771 -0.5029  0.6439 -0.1482
  412TIP3    H222796   4.751   6.340   1.845  0.2601 -0.0053 -1.0631
  413TIP3   OH222797   0.083   5.954   7.487  0.2098 -0.3430 -0.3570
  413TIP3    H122798   0.171   5.964   7.451 -0.6872  0.8376 -2.3765
  413TIP3    H222799   0.080   6.015   7.561  0.2376  1.8123 -2.0465
  414TIP3   OH222800   6.681   1.345   1.950  0.0775  0.0822  0.3520
  414TIP3    H122801   6.711   1.430   1.983 -0.0914  1.2761 -2.3093
  414TIP3    H222802   6.684   1.288   2.027 -1.5292  2.8692  2.7213
  415TIP3   OH222803   6.856   0.661   2.392 -0.0073  0.0921 -0.0741
  415TIP3    H122804   6.767   0.674   2.361  0.0630  0.8029  0.0108
  415TIP3    H222805   6.897   0.747   2.385  0.9214 -0.3908 -0.8884
  416TIP3   OH222806   2.882   1.641   1.305 -0.3282  0.0144  0.3678
  416TIP3    H122807   2.891   1.568   1.366 -1.5386  1.7758  2.8105
  416TIP3    H222808   2.791   1.671   1.316 -0.9056 -0.0844 -2.9895
  417TIP3   OH222809   4.922   3.484   1.762 -0.0229  0.0079  0.6366
  417TIP3    H122810   4.909   3.418   1.693 -1.7236  0.3767  0.5657
  417TIP3    H222811   4.951   3.434   1.838 -1.2374 -0.8454  0.5696
  418TIP3   OH222812   3.306   3.497   7.240  0.9144 -0.4023 -0.0756
  418TIP3    H122813   3.278   3.589   7.238 -0.6679 -0.8648 -0.2082
  418TIP3    H222814   3.345   3.482   7.154 -0.0956 -0.2182 -0.5750
  419TIP3   OH222815   3.746   5.621   0.861 -0.4390 -0.3468  0.2102
  419TIP3    H122816   3.730   5.541   0.911 -0.5341  0.1932  1.0490
  419TIP3    H222817   3.659   5.652   0.837 -0.4920  0.3315  1.2134
  420TIP3   OH222818   3.488   2.764   8.194  0.0890 -0.3623 -0.0557
  420TIP3    H122819   3.495   2.668   8.191 -1.0938 -0.4665  0.0330
  420TIP3    H222820   3.566   2.791   8.243  0.7664 -1.2235 -0.6183
  421TIP3   OH222821   0.942   5.981   7.183  0.4396  0.0447  0.3892
  421TIP3    H122822   0.948   5.886   7.174  0.6918  0.0708  0.2718
  421TIP3    H222823   1.001   6.015   7.116  0.5415  0.2799  0.5965
  422TIP3   OH222824   3.143   3.177   2.297  0.7982  0.4248  0.1514
  422TIP3    H122825   3.142   3.110   2.364 -0.8343 -0.2646 -0.5240
  422TIP3    H222826   3.173   3.131   2.218  1.3287  0.8990  0.0692
  423TIP3   OH222827   0.602   5.485   0.704  0.2962 -0.0414 -0.5587
  423TIP3    H122828   0.648   5.403   0.725  1.3160  1.3830  3.8641
  423TIP3    H222829   0.527   5.486   0.763  0.5775  2.3340 -0.1424
  424TIP3   OH222830   3.551   2.776   7.492  0.8725  0.6263 -0.5210
  424TIP3    H122831   3.464   2.761   7.455  0.4018 -2.9469  1.4979
  424TIP3    H222832   3.608   2.714   7.446  1.9840  1.6236 -0.5525
  425TIP3   OH222833   2.192   6.724   1.489  0.4212  0.2779 -0.4224
  425TIP3    H122834   2.213   6.739   1.582 -0.8789 -1.5755  0.2323
  425TIP3    H222835   2.120   6.785   1.471  0.3017  0.2511 -0.0530
  426TIP3   OH222836   4.087   3.227   2.606 -0.1094  0.0937  0.4413
  426TIP3    H122837   4.016   3.269   2.654  1.9433  1.8860  2.1281
  426TIP3    H222838   4.166   3.270   2.639  1.6539 -0.5100 -2.6468
  427TIP3   OH222839   4.936   5.494   8.362 -0.0175  0.2802  0.2639
  427TIP3    H122840   5.016   5.449   8.333  0.2703  0.5450  0.6333
  427TIP3    H222841   4.931   5.475   8.456 -0.8781 -0.4718  0.0813
  428TIP3   OH222842   4.051   0.128   0.745 -0.3739 -0.0892  0.1585
  428TIP3    H122843   4.114   0.071   0.702 -1.7881  0.0008 -2.2220
  428TIP3    H222844   3.990   0.068   0.787  1.0446 -0.1776  2.2266
  429TIP3   OH222845   0.015   3.567   1.621 -0.5023  0.6499  0.6427
  429TIP3    H122846  -0.056   3.560   1.557 -1.1243 -2.6829  1.5104
  429TIP3    H222847  -0.025   3.543   1.705  1.4671 -0.6551  1.2823
  430TIP3   OH222848   1.440   4.252   6.801  0.2163  0.2109  0.4979
  430TIP3    H122849   1.390   4.306   6.740  0.4255  0.1145  0.2358
  430TIP3    H222850   1.373   4.206   6.852 -0.0314  2.9152  2.7984
  431TIP3   OH222851   6.487   6.314   2.362  0.3538 -0.7991 -0.2780
  431TIP3    H122852   6.542   6.354   2.429 -0.6169 -0.8482  0.5758
  431TIP3    H222853   6.534   6.329   2.280  1.8267 -1.1898  0.4549
  432TIP3   OH222854   0.213   1.240   2.260 -0.3373 -0.0576 -0.6466
  432TIP3    H122855   0.266   1.320   2.263  0.8847 -0.8476 -0.9410
  432TIP3    H222856   0.150   1.256   2.189 -1.8101  1.6541  0.9402
  433TIP3   OH222857   0.249   1.025   2.449  0.6550  0.0686  0.2685
  433TIP3    H122858   0.262   1.076   2.529  3.8658  0.0799 -0.1071
  433TIP3    H222859   0.250   1.091   2.379  0.9738 -0.1818  0.0333
  434TIP3   OH222860   0.494   4.169   7.370  0.3421  0.4038 -0.9035
  434TIP3    H122861   0.543   4.135   7.445  1.6712  0.7278 -1.5757
  434TIP3    H222862   0.425   4.105   7.355  0.9995 -0.4585 -0.3458
  435TIP3   OH222863   6.683   3.515   0.231  0.2610 -0.5923  0.5114
  435TIP3    H122864   6.628   3.549   0.160  0.6480  0.3473  0.6504
  435TIP3    H222865   6.771   3.510   0.193  0.1770 -1.6508  0.4307
  436TIP3   OH222866   6.504   3.441   8.291  0.1152  0.3110 -0.1414
  436TIP3    H122867   6.491   3.518   8.346  0.4255 -0.4047  0.9518
  436TIP3    H222868   6.598   3.425   8.294  0.2860  0.8235 -1.6848
  437TIP3   OH222869   2.924   3.286   1.357  0.1110  0.3722 -0.6983
  437TIP3    H122870   2.905   3.192   1.358 -1.2081  0.6185  0.1528
  437TIP3    H222871   3.019   3.291   1.346  0.9600 -1.2002  3.7453
  438TIP3   OH222872   0.444   4.744   1.307  0.2366 -0.0732 -0.2552
  438TIP3    H122873   0.498   4.674   1.270  1.5119 -0.0694  1.4346
  438TIP3    H222874   0.416   4.710   1.392 -1.7586  0.2818 -0.7229
  439TIP3   OH222875   2.330   1.236   0.891 -0.3681 -0.2786 -0.6813
  439TIP3    H122876   2.243   1.199   0.906  0.0781 -0.1346  2.9083
  439TIP3    H222877   2.386   1.160   0.879 -0.2472 -0.6916  1.9658
  440TIP3   OH222878   4.331   4.135   2.492  0.0670 -0.4772  0.9498
  440TIP3    H122879   4.337   4.183   2.575 -0.4439 -1.1482  1.3896
  440TIP3    H222880   4.238   4.138   2.470  0.4774  1.7426 -0.8700
  441TIP3   OH222881   5.904   3.154   1.952 -0.6193 -0.0017 -0.2013
  441TIP3    H122882   5.958   3.147   2.031  0.8415  1.3480 -1.0234
  441TIP3    H222883   5.895   3.065   1.920 -1.2888 -0.5874  1.4854
  442TIP3   OH222884   5.531   4.183   0.707  0.3323 -0.5445 -0.4732
  442TIP3    H122885   5.567   4.114   0.763 -2.6454 -2.0095 -0.1894
  442TIP3    H222886   5.569   4.166   0.621  0.3745 -1.9606 -0.1927
  443TIP3   OH222887   2.818   5.698   6.897 -0.0599  0.2383 -0.1619
  443TIP3    H122888   2.855   5.699   6.985  0.8871 -2.7441 -0.3994
  443TIP3    H222889   2.810   5.605   6.876 -1.1107  0.8530 -2.9039
  444TIP3   OH222890   5.982   2.954   8.274  0.4305 -0.3349 -0.0971
  444TIP3    H122891   5.887   2.969   8.272  0.2854 -1.0061  0.8985
  444TIP3    H222892   6.011   2.994   8.356  0.6652 -1.8316  0.5885
  445TIP3   OH222893   0.808   5.318   8.319 -0.0706  0.0784  0.3508
  445TIP3    H122894   0.901   5.296   8.325 -0.3351 -0.8175  1.5682
  445TIP3    H222895   0.804   5.386   8.252  1.1174 -1.7468 -1.7033
  446TIP3   OH222896   6.777   5.143   8.565  0.1691 -0.4664  0.1357
  446TIP3    H122897   6.862   5.120   8.604  1.1811 -2.2753 -2.8593
  446TIP3    H222898   6.798   5.210   8.500 -0.5873 -1.3500 -1.0402
  447TIP3   OH222899   4.296   2.702   7.868 -0.2416 -0.3554 -0.1320
  447TIP3    H122900   4.361   2.676   7.802 -0.7087  1.9143 -1.6012
  447TIP3    H222901   4.216   2.719   7.817 -0.3347  2.4927  0.7584
  448TIP3   OH222902   5.571   0.912   1.490  0.2577  0.0320 -0.2257
  448TIP3    H122903   5.648   0.916   1.547 -0.2450 -0.2761  0.4894
  448TIP3    H222904   5.592   0.844   1.426  0.0341 -1.0311  0.8066
  449TIP3   OH222905   3.610   6.471   7.461 -0.0816  0.4036  0.0044
  449TIP3    H122906   3.535   6.415   7.440  0.7386 -1.0088  0.7210
  449TIP3    H222907   3.626   6.520   7.381 -0.3853 -0.9245 -0.9029
  450TIP3   OH222908   2.725   5.829   8.164 -0.1917  0.1588 -0.1416
  450TIP3    H122909   2.644   5.876   8.143 -0.9965 -1.0874  0.0047
  450TIP3    H222910   2.734   5.766   8.093 -0.3673 -0.9309  0.7719
  451TIP3   OH222911   3.224   3.178   1.620  0.2034  0.4565 -0.5371
  451TIP3    H122912   3.227   3.084   1.638 -0.9029  0.4964 -0.0498
  451TIP3    H222913   3.234   3.185   1.526  3.2439  0.0471 -0.3290
  452TIP3   OH222914   3.755   1.151   8.630 -0.0329  0.4451  0.0224
  452TIP3    H122915   3.790   1.240   8.629  0.1766  0.4360 -3.2260
  452TIP3    H222916   3.820   1.101   8.681  0.4950  1.8800  0.8197
  453TIP3   OH222917   6.722   2.010   7.632 -0.0840 -0.1513  1.1644
  453TIP3    H122918   6.813   1.987   7.651  0.0134 -0.2169  0.6250
  453TIP3    H222919   6.708   1.981   7.542 -0.8070 -0.6401  1.4211
  454TIP3   OH222920   4.356   0.797   0.961 -0.2462  0.3190  0.1335
  454TIP3    H122921   4.266   0.766   0.967 -0.5594  1.2479  0.3681
  454TIP3    H222922   4.402   0.749   1.030 -1.2105  1.9837  2.0409
  455TIP3   OH222923   1.373   0.762   8.288 -0.2784  0.6259 -0.5082
  455TIP3    H122924   1.282   0.781   8.313 -0.9046 -0.6454 -1.6906
  455TIP3    H222925   1.399   0.838   8.236 -0.1422  1.6652  1.0114
  456TIP3   OH222926   0.851   5.406   7.469 -0.0149 -0.4301 -0.1082
  456TIP3    H122927   0.855   5.361   7.554  0.3556  1.4780  0.9373
  456TIP3    H222928   0.942   5.407   7.439  0.0811  0.2098  0.1990
  457TIP3   OH222929   0.789   3.885   1.325  0.3759 -0.0974 -0.0745
  457TIP3    H122930   0.812   3.873   1.417 -0.9547  0.0683  0.2964
  457TIP3    H222931   0.698   3.914   1.326  0.6693  0.9672 -1.4002
  458TIP3   OH222932   6.146   6.151   7.703 -0.4097  0.2303  0.1891
  458TIP3    H122933   6.109   6.119   7.785  1.4186 -0.8872  0.6261
  458TIP3    H222934   6.104   6.097   7.635  0.2512 -0.9091  0.6597
  459TIP3   OH222935   3.237   5.485   1.518 -0.1639 -0.2000 -0.4580
  459TIP3    H122936   3.164   5.429   1.543 -0.8389  0.7140 -0.3207
  459TIP3    H222937   3.263   5.529   1.600  0.4130 -0.3678 -0.5436
  460TIP3   OH222938   4.977   5.644   1.479 -0.6445  0.4522 -0.0182
  460TIP3    H122939   4.960   5.729   1.520  1.9142  1.2187 -0.3609
  460TIP3    H222940   4.984   5.583   1.553 -1.6421  0.6722  0.2809
  461TIP3   OH222941   2.596   5.809   8.421  0.3541  0.1695 -0.0442
  461TIP3    H122942   2.624   5.786   8.333  1.4450 -0.5936  0.4887
  461TIP3    H222943   2.537   5.738   8.447  1.4735 -0.5673  0.5210
  462TIP3   OH222944   3.880   2.182   1.718  0.1446 -0.1735  0.0875
  462TIP3    H122945   3.883   2.094   1.753  1.1935 -0.1856 -0.0293
  462TIP3    H222946   3.816   2.177   1.647  0.1070 -0.8001  0.1610
  463TIP3   OH222947   2.873   4.456   1.274  0.7655 -0.0631  0.0654
  463TIP3    H122948   2.944   4.415   1.224  0.2951 -0.2862 -0.4167
  463TIP3    H222949   2.910   4.466   1.362  1.1993 -0.7036 -0.0358
  464TIP3   OH222950   3.139   2.702   8.450  0.0722  0.0521 -0.0073
  464TIP3    H122951   3.120   2.764   8.380 -1.1963 -0.1614  0.1251
  464TIP3    H222952   3.234   2.702   8.457  0.1076  1.8012 -0.1711
  465TIP3   OH222953   0.428   1.845   1.719  0.8095 -0.2030  0.3438
  465TIP3    H122954   0.388   1.925   1.754  0.0505 -1.0496  1.5094
  465TIP3    H222955   0.461   1.799   1.796  0.7042 -1.2913 -0.2384
  466TIP3   OH222956   3.130   1.135   1.132  0.1419  0.0675  0.0950
  466TIP3    H122957   3.055   1.155   1.075 -0.5987 -0.9621  0.6628
  466TIP3    H222958   3.207   1.158   1.081 -0.5636  0.9348 -0.5950
  467TIP3   OH222959   4.947   2.306   2.195 -0.6082 -0.3771  0.1516
  467TIP3    H122960   4.976   2.225   2.236 -0.3486 -0.1626  0.3957
  467TIP3    H222961   5.012   2.323   2.127  1.7040  1.7314  2.6641
  468TIP3   OH222962   3.132   6.039   7.926 -0.7055  0.0408  0.0062
  468TIP3    H122963   3.159   5.985   7.851  0.4083 -0.1948  0.5488
  468TIP3    H222964   3.041   6.061   7.908 -0.7079 -0.6997 -1.0115
  469TIP3   OH222965   1.123   0.562   7.589  0.4338 -0.1576  0.3534
  469TIP3    H122966   1.219   0.561   7.598  0.4237 -0.0834  0.4805
  469TIP3    H222967   1.106   0.630   7.525  0.5415 -1.0820 -0.6813
  470TIP3   OH222968   1.968   0.746   7.182 -0.1534  0.3098  0.2121
  470TIP3    H122969   1.926   0.666   7.212 -0.4202  0.8424  1.3038
  470TIP3    H222970   2.021   0.718   7.107  0.1004 -0.9738  0.8282
  471TIP3   OH222971   3.388   6.382   1.911  0.6450  0.6387 -0.7869
  471TIP3    H122972   3.331   6.333   1.970  0.3287  0.2917 -1.3673
  471TIP3    H222973   3.356   6.472   1.915  0.4903  0.5732 -0.5895
  472TIP3   OH222974   0.005   4.613   6.537  0.4230  0.2870  0.4907
  472TIP3    H122975  -0.025   4.523   6.527 -0.5888  0.3979  2.2489
  472TIP3    H222976  -0.069   4.666   6.508 -0.4931  0.5416  3.0550
  473TIP3   OH222977   4.717   6.577   0.566  0.1967 -0.4441 -0.0048
  473TIP3    H122978   4.780   6.505   0.572 -0.2207 -0.6886  2.9220
  473TIP3    H222979   4.759   6.641   0.509  2.0590 -1.6211 -0.0361
  474TIP3   OH222980   5.721   0.403   7.998 -0.3829  0.1342 -0.0661
  474TIP3    H122981   5.729   0.488   8.041 -0.9331  0.4407 -0.5609
  474TIP3    H222982   5.627   0.392   7.983 -0.3249 -0.6123  0.0930
  475TIP3   OH222983   1.050   0.691   0.378 -0.0176  0.2224 -0.1175
  475TIP3    H122984   1.071   0.607   0.419 -0.1317  0.4747  0.4736
  475TIP3    H222985   0.963   0.713   0.412 -1.6430 -1.1404 -3.0365
  476TIP3   OH222986   2.651   6.148   7.691  0.0733 -0.4272  0.0243
  476TIP3    H122987   2.713   6.126   7.622  1.0083 -0.7150  0.9300
  476TIP3    H222988   2.631   6.240   7.677  0.4420 -0.4202 -0.4860
  477TIP3   OH222989   1.689   4.296   6.922  0.0042  0.0082  0.0389
  477TIP3    H122990   1.612   4.282   6.868 -1.2647  2.5638  1.0040
  477TIP3    H222991   1.666   4.259   7.007  0.3255 -0.2641  0.0103
  478TIP3   OH222992   2.712   3.259   8.516  0.3206 -0.1420 -0.4771
  478TIP3    H122993   2.708   3.354   8.520 -2.3275 -0.1874 -0.0873
  478TIP3    H222994   2.671   3.237   8.432  0.8386 -0.9561 -0.5307
  479TIP3   OH222995   4.228   0.197   1.198  0.3241  0.0891 -0.1287
  479TIP3    H122996   4.241   0.290   1.219 -1.8933  0.9087 -1.9388
  479TIP3    H222997   4.256   0.189   1.107  0.4171 -0.9913 -0.0085
  480TIP3   OH222998   3.054   0.367   2.214 -0.2729  0.0890 -0.0569
  480TIP3    H122999   3.075   0.327   2.299  0.4805  1.0511  0.2303
  480TIP3    H223000   3.130   0.347   2.159 -1.6285 -2.3337 -1.2163
  481TIP3   OH223001   3.321   6.021   6.705  0.1696  0.3325 -0.3379
  481TIP3    H123002   3.272   6.022   6.787 -2.2057  0.2686 -1.6514
  481TIP3    H223003   3.353   5.931   6.696  0.6348  0.3964  0.5941
  482TIP3   OH223004   1.104   5.172   7.278  0.0658  0.1648 -0.8104
  482TIP3    H123005   1.130   5.254   7.320  0.1348  1.6025 -3.4413
  482TIP3    H223006   1.080   5.114   7.350 -1.2471  2.9134  1.1408
  483TIP3   OH223007   6.162   2.762   1.092 -0.4384  0.5096  0.0922
  483TIP3    H123008   6.224   2.750   1.163  1.1238 -0.6396 -1.3807
  483TIP3    H223009   6.131   2.673   1.071  1.0171  0.4489 -2.1962
  484TIP3   OH223010   2.576   4.526   0.857  0.2353 -0.4507  0.2329
  484TIP3    H123011   2.532   4.517   0.941  0.0638  0.7444  0.2846
  484TIP3    H223012   2.568   4.440   0.816 -2.1584 -0.2838  0.2439
  485TIP3   OH223013   2.996   5.795   1.666  0.0862 -0.0616  0.1297
  485TIP3    H123014   2.964   5.816   1.578  1.5326 -0.0864 -0.4316
  485TIP3    H223015   3.081   5.753   1.651 -0.1694 -1.1364  1.4978
  486TIP3   OH223016   2.939   4.360   8.170 -0.5257 -0.6423 -0.4269
  486TIP3    H123017   2.968   4.369   8.260 -1.6445 -1.1693  0.0065
  486TIP3    H223018   3.001   4.299   8.130 -0.7410 -1.3593  0.3297
  487TIP3   OH223019   5.059   3.065   1.563  0.1625  0.4620 -0.0517
  487TIP3    H123020   5.049   3.061   1.658  1.1994 -2.7701  0.0168
  487TIP3    H223021   5.152   3.049   1.548 -0.0676  0.4507 -1.6425
  488TIP3   OH223022   5.999   1.547   1.319  0.4675 -0.1833 -0.0037
  488TIP3    H123023   6.036   1.525   1.233  0.8961  0.3387  0.0440
  488TIP3    H223024   6.022   1.473   1.375  1.4466  0.1317  0.0232
  489TIP3   OH223025   0.681   0.650   0.842  0.0338  0.5764  0.1960
  489TIP3    H123026   0.749   0.642   0.776  0.2234 -2.4019  0.6353
  489TIP3    H223027   0.599   0.658   0.792  0.0853 -2.4317 -0.5303
  490TIP3   OH223028   1.403   1.356   2.601 -0.0387  0.9916 -0.1595
  490TIP3    H123029   1.316   1.378   2.635  0.1059 -0.3288  1.1345
  490TIP3    H223030   1.449   1.316   2.675  0.5766 -1.2432 -1.6388
  491TIP3   OH223031   6.815   3.474   1.877  0.0353  0.0065 -0.0620
  491TIP3    H123032   6.750   3.424   1.927  0.7773 -0.1781  0.7355
  491TIP3    H223033   6.894   3.472   1.931  0.3830  1.1823 -0.4905
  492TIP3   OH223034   1.334   2.422   2.258  0.2113  0.1699 -0.1851
  492TIP3    H123035   1.367   2.423   2.168  2.3381 -0.0986  0.5285
  492TIP3    H223036   1.325   2.515   2.281  0.7296  0.2652 -0.3400
  493TIP3   OH223037   2.179   6.609   0.615 -0.5557 -0.3757 -0.1006
  493TIP3    H123038   2.091   6.599   0.651 -0.4325 -1.3200 -0.0334
  493TIP3    H223039   2.227   6.534   0.649  0.1417 -0.1422 -0.5507
  494TIP3   OH223040   5.086   4.072   2.271 -0.0256 -0.1290  0.2024
  494TIP3    H123041   5.104   4.158   2.309  2.2155 -0.9573  1.2183
  494TIP3    H223042   5.150   4.014   2.312 -1.2800 -2.2459 -0.6662
  495TIP3   OH223043   4.490   4.853   2.437 -0.5964  0.1031 -0.2101
  495TIP3    H123044   4.532   4.783   2.387  1.1125  0.5340  0.5583
  495TIP3    H223045   4.508   4.833   2.528 -0.3418  1.3585  0.0396
  496TIP3   OH223046   6.753   5.106   0.200 -0.2807  0.3793 -0.4671
  496TIP3    H123047   6.732   5.136   0.288  0.5636 -0.0860 -0.0857
  496TIP3    H223048   6.849   5.115   0.194 -0.2829  0.0319 -1.1929
  497TIP3   OH223049   4.173   3.101   0.953  0.6999 -0.1185  0.5313
  497TIP3    H123050   4.246   3.156   0.979  1.6195 -1.2845  0.4728
  497TIP3    H223051   4.127   3.151   0.886  0.3889  1.3877  1.8169
  498TIP3   OH223052   1.886   1.644   1.241  0.3794 -0.1242 -0.5911
  498TIP3    H123053   1.801   1.686   1.256  0.0113 -0.6617 -1.1336
  498TIP3    H223054   1.911   1.610   1.327  1.4219  2.4964  0.2432
  499TIP3   OH223055   1.398   5.037   7.187  0.0513  0.3784 -0.0793
  499TIP3    H123056   1.413   5.132   7.188  1.8004  0.1197  0.4333
  499TIP3    H223057   1.324   5.026   7.128  0.4136  1.9874 -0.8983
  500TIP3   OH223058   1.373   6.780   7.596  0.0618  0.1859 -0.0643
  500TIP3    H123059   1.318   6.764   7.518 -0.6582  0.2102  0.4241
  500TIP3    H223060   1.395   6.692   7.627  0.0877  0.1721 -0.1231
  501TIP3   OH223061   2.694   0.515   0.119 -0.6800  0.7935  0.6593
  501TIP3    H123062   2.707   0.487   0.028  0.4649 -0.4364  1.1815
  501TIP3    H223063   2.781   0.538   0.150 -0.8607 -0.0275  1.8337
  502TIP3   OH223064   6.799   5.625   6.834  0.2192  0.0685 -0.0159
  502TIP3    H123065   6.875   5.588   6.788 -1.0300 -2.1263 -0.4592
  502TIP3    H223066   6.753   5.676   6.767 -0.6721 -1.7185 -0.8472
  503TIP3   OH223067   5.163   2.203   6.905 -0.2933 -0.3867  0.0560
  503TIP3    H123068   5.205   2.160   6.830 -1.5927 -0.8189 -0.4560
  503TIP3    H223069   5.195   2.154   6.981  0.8392 -0.1066 -0.2160
  504TIP3   OH223070   1.102   2.932   8.262  0.0928  0.6006 -0.1482
  504TIP3    H123071   1.047   2.989   8.315 -1.1749  0.5587 -1.3919
  504TIP3    H223072   1.179   2.917   8.317 -0.4260  1.8970  0.9976
  505TIP3   OH223073   6.743   1.529   0.009 -0.1440 -0.7830  0.2411
  505TIP3    H123074   6.722   1.436   0.002 -1.0331 -0.5645 -0.1512
  505TIP3    H223075   6.658   1.572   0.017 -0.0105  0.2564 -2.6722
  506TIP3   OH223076   0.928   5.017   8.086  0.1635 -0.0037 -0.2959
  506TIP3    H123077   0.881   4.935   8.104  2.5963 -1.1787  1.3350
  506TIP3    H223078   0.971   5.038   8.170 -0.1808  2.8363 -0.7487
  507TIP3   OH223079   4.628   4.026   8.302  0.3204 -0.5182  0.1154
  507TIP3    H123080   4.579   3.951   8.268 -0.2743 -0.3158  0.5118
  507TIP3    H223081   4.720   4.003   8.288  0.2336 -2.0420  1.6930
  508TIP3   OH223082   5.414   1.954   0.422 -0.2290 -0.8558 -0.5573
  508TIP3    H123083   5.431   1.968   0.329  1.1230 -0.9386 -0.3435
  508TIP3    H223084   5.403   2.042   0.458 -2.9533 -0.8912 -1.1424
  509TIP3   OH223085   5.508   6.369   1.255  0.1627  0.5835 -0.2475
  509TIP3    H123086   5.515   6.347   1.348 -3.3179 -1.4009 -0.2910
  509TIP3    H223087   5.589   6.336   1.216  0.2917 -1.5530  1.6313
  510TIP3   OH223088   4.443   4.556   0.965  0.4577  0.2106 -0.4852
  510TIP3    H123089   4.442   4.582   0.872  2.0185 -2.8706 -1.4867
  510TIP3    H223090   4.531   4.576   0.995  0.0786  0.8275  0.2553
  511TIP3   OH223091   6.783   2.611   0.549 -0.2350  0.2669  0.0504
  511TIP3    H123092   6.765   2.577   0.462  0.6798  0.4056 -0.2077
  511TIP3    H223093   6.779   2.706   0.539  2.0712  0.3838 -0.3996
  512TIP3   OH223094   0.267   3.799   8.245  0.2444 -0.3407  0.0130
  512TIP3    H123095   0.326   3.872   8.263 -1.2032  0.6204  1.0333
  512TIP3    H223096   0.224   3.822   8.163  1.3885 -1.1654 -0.8734
  513TIP3   OH223097   2.458   5.237   1.860  0.1898 -0.3034  0.1148
  513TIP3    H123098   2.524   5.168   1.864  0.2145 -0.2780  0.1551
  513TIP3    H223099   2.386   5.204   1.914  0.5182  0.0320  0.7734
  514TIP3   OH223100   4.162   0.655   8.082 -0.1930  0.4394 -0.2976
  514TIP3    H123101   4.171   0.565   8.051  1.5724  1.0620 -1.7305
  514TIP3    H223102   4.168   0.648   8.178  0.2585 -0.9264 -0.4094
  515TIP3   OH223103   0.726   3.283   8.134 -0.0455  0.1483  0.3944
  515TIP3    H123104   0.726   3.294   8.230  0.4333 -1.2041  0.5635
  515TIP3    H223105   0.765   3.198   8.120  1.5156  1.0660 -1.1129
  516TIP3   OH223106   4.863   6.270   8.439  0.5408 -0.0909 -0.3335
  516TIP3    H123107   4.911   6.353   8.439  0.3253  0.0348 -0.8256
  516TIP3    H223108   4.928   6.205   8.466  1.2210 -0.0538 -1.8065
  517TIP3   OH223109   2.006   0.610   0.966  0.0933  0.4289 -0.4092
  517TIP3    H123110   2.038   0.520   0.962 -0.9550 -0.0599  1.2485
  517TIP3    H223111   2.073   0.662   0.921  0.4012 -1.2392 -1.9496
  518TIP3   OH223112   1.971   1.346   7.026 -0.2452  0.4726  0.4033
  518TIP3    H123113   1.892   1.292   7.018 -0.4687  0.7614  0.6362
  518TIP3    H223114   1.943   1.433   6.998 -0.2722  0.8068  1.4048
  519TIP3   OH223115   0.746   1.110   6.536 -0.7705  0.6358 -0.1196
  519TIP3    H123116   0.795   1.056   6.597 -1.2514  0.0514 -0.2378
  519TIP3    H223117   0.771   1.200   6.557  0.5613  0.3431 -0.3759
  520TIP3   OH223118   5.134   0.942   0.166  0.0407 -0.4330 -0.0125
  520TIP3    H123119   5.059   0.993   0.195 -0.0203 -0.6415  0.2043
  520TIP3    H223120   5.139   0.956   0.072 -1.6706 -2.2373 -0.4364
  521TIP3   OH223121   1.596   1.307   8.168  1.0486 -0.5545 -0.0856
  521TIP3    H123122   1.686   1.339   8.165  0.4062  1.3685 -0.4174
  521TIP3    H223123   1.572   1.310   8.260  1.6840 -2.2309  0.1573
  522TIP3   OH223124   0.911   6.212   7.627 -0.0614 -0.7296 -0.3833
  522TIP3    H123125   0.831   6.160   7.630 -0.8598  0.3543 -1.8994
  522TIP3    H223126   0.891   6.290   7.680  1.2685 -2.0019  2.2315
  523TIP3   OH223127   3.524   3.277   1.392 -0.5604 -0.4670  0.6542
  523TIP3    H123128   3.473   3.240   1.464 -0.9228 -2.8698 -0.7079
  523TIP3    H223129   3.555   3.361   1.424 -4.0507  0.4054  2.1339
  524TIP3   OH223130   4.123   1.663   1.775 -0.0199 -0.2709  0.0403
  524TIP3    H123131   4.085   1.576   1.786 -0.2906 -0.1754 -0.1357
  524TIP3    H223132   4.184   1.654   1.701 -0.1308 -0.2829 -0.0495
  525TIP3   OH223133   2.225   0.210   1.191  0.7986  0.6459  0.0159
  525TIP3    H123134   2.230   0.176   1.280  0.2352 -1.4395 -0.6917
  525TIP3    H223135   2.284   0.154   1.141  0.2608  1.0768 -1.1286
  526TIP3   OH223136   2.229   4.887   7.573 -0.0051 -0.3107  0.1450
  526TIP3    H123137   2.314   4.847   7.555  0.0552 -0.1552  0.0880
  526TIP3    H223138   2.249   4.974   7.606 -0.1644  0.0891 -0.7844
  527TIP3   OH223139   1.832   5.799   7.101 -0.7433 -0.3647 -0.1739
  527TIP3    H123140   1.827   5.847   7.019 -2.6185 -1.3047 -0.6798
  527TIP3    H223141   1.750   5.748   7.104  0.9740 -3.3595  0.4130
  528TIP3   OH223142   4.977   3.288   0.547  0.4591  0.2077 -0.1412
  528TIP3    H123143   5.025   3.208   0.570 -0.0231  0.8117  3.4828
  528TIP3    H223144   5.032   3.329   0.480  1.3617 -2.4663 -1.2014
  529TIP3   OH223145   3.848   1.553   3.017 -0.7771  0.2978 -0.0901
  529TIP3    H123146   3.797   1.583   2.941  1.1173 -0.2138 -1.6705
  529TIP3    H223147   3.932   1.598   3.007 -0.3571 -0.0938  1.5180
  530TIP3   OH223148   2.987   6.519   1.377 -0.2614  0.3517 -0.6742
  530TIP3    H123149   2.963   6.542   1.467  2.0295  0.9833 -0.1766
  530TIP3    H223150   3.034   6.594   1.344  1.5720 -1.0191 -1.3367
  531TIP3   OH223151   2.662   2.563   0.412 -0.6483  0.2470  0.0244
  531TIP3    H123152   2.608   2.577   0.335  0.3660 -2.0004 -1.2010
  531TIP3    H223153   2.751   2.586   0.385 -0.0588 -1.8116  0.0187
  532TIP3   OH223154   3.638   3.940   8.046 -0.0745 -0.0515 -0.0219
  532TIP3    H123155   3.690   3.941   7.966 -0.3401 -0.4821 -0.2035
  532TIP3    H223156   3.693   3.985   8.111  1.3290 -2.0086  0.2556
  533TIP3   OH223157   3.729   1.690   1.015  0.0006 -0.2458  0.7006
  533TIP3    H123158   3.648   1.725   1.052 -0.8252 -0.6220 -0.6573
  533TIP3    H223159   3.700   1.613   0.965  1.1030 -0.0224 -0.3131
  534TIP3   OH223160   4.270   4.020   8.209 -0.5721 -0.2010 -0.3728
  534TIP3    H123161   4.267   4.030   8.114 -1.2547 -0.5388 -0.3955
  534TIP3    H223162   4.264   3.925   8.224  0.6760 -0.2455 -0.0201
  535TIP3   OH223163   3.970   2.593   0.979 -0.4244 -0.3906 -0.0343
  535TIP3    H123164   3.915   2.596   0.900  0.2868 -1.5733 -0.6066
  535TIP3    H223165   4.059   2.611   0.947 -0.3693  0.9817  0.8038
  536TIP3   OH223166   3.517   0.903   0.416  0.0918 -0.1349  0.4540
  536TIP3    H123167   3.446   0.966   0.424  0.3642  0.0778  1.4311
  536TIP3    H223168   3.579   0.929   0.485  1.5324  0.2197 -0.9143
  537TIP3   OH223169   2.053   0.535   0.625 -0.3006 -0.3490 -0.1794
  537TIP3    H123170   2.125   0.593   0.603 -1.7654  1.4068 -0.5020
  537TIP3    H223171   2.006   0.580   0.696 -2.7168 -0.0117 -1.8748
  538TIP3   OH223172   6.694   3.671   8.112  0.0885  0.4796  0.0867
  538TIP3    H123173   6.773   3.655   8.061 -0.2255 -0.6690 -0.0644
  538TIP3    H223174   6.632   3.604   8.083 -0.8984  1.2681  0.3025
  539TIP3   OH223175   6.637   5.820   1.707  0.1541  0.2598 -0.3542
  539TIP3    H123176   6.725   5.796   1.679  0.2514 -0.9061  0.8609
  539TIP3    H223177   6.651   5.890   1.772 -0.0408  2.5079 -2.5654
  540TIP3   OH223178   3.860   3.749   2.010 -0.0263 -0.5753  0.4985
  540TIP3    H123179   3.831   3.828   2.056 -0.7026 -1.7252  2.1657
  540TIP3    H223180   3.891   3.780   1.925 -1.5601  1.3211  0.5629
  541TIP3   OH223181   4.284   0.610   8.358  0.5467  0.0322  0.0989
  541TIP3    H123182   4.228   0.534   8.372  2.0388 -1.2710 -0.5976
  541TIP3    H223183   4.330   0.622   8.441 -1.4347  1.7550  1.0169
  542TIP3   OH223184   6.045   1.274   1.448  0.0087  0.3226 -0.1529
  542TIP3    H123185   6.066   1.249   1.358 -2.1348 -0.9495 -0.3779
  542TIP3    H223186   6.120   1.244   1.499 -0.5615 -2.9953 -0.9974
  543TIP3   OH223187   6.135   6.414   8.036  0.8305 -0.1973  0.4515
  543TIP3    H123188   6.138   6.496   8.085  0.0646 -1.2749  2.4103
  543TIP3    H223189   6.215   6.368   8.061  0.2911 -0.8847  0.9398
  544TIP3   OH223190   6.493   5.183   1.529 -0.1117 -0.5755  0.6083
  544TIP3    H123191   6.528   5.098   1.502  0.5875 -0.3832  0.8994
  544TIP3    H223192   6.570   5.236   1.549 -0.5529  0.0297  0.7330
  545TIP3   OH223193   2.901   6.426   0.212 -0.3595 -0.3247 -0.2071
  545TIP3    H123194   2.939   6.513   0.201 -1.5002  0.0943 -0.9905
  545TIP3    H223195   2.946   6.390   0.289  2.3059 -0.2726 -1.6309
  546TIP3   OH223196   4.814   4.725   1.748 -0.2032  0.1556  0.0040
  546TIP3    H123197   4.863   4.663   1.693 -0.0717 -0.3977  0.7244
  546TIP3    H223198   4.726   4.724   1.712 -0.5763 -1.5557  0.8543
  547TIP3   OH223199   4.794   2.396   0.287 -0.5991  0.4754 -0.5211
  547TIP3    H123200   4.848   2.473   0.269  0.5830  0.3315  2.0337
  547TIP3    H223201   4.707   2.431   0.308  0.0480  1.2044  1.0716
  548TIP3   OH223202   0.242   4.808   8.290  0.0255 -0.0897 -0.2677
  548TIP3    H123203   0.254   4.882   8.231 -1.3053  1.7978  1.6785
  548TIP3    H223204   0.171   4.757   8.251 -0.0374  0.4657 -0.8902
  549TIP3   OH223205   0.947   6.798   7.819 -0.1502  0.4264  0.4997
  549TIP3    H123206   0.970   6.814   7.727 -3.1397  0.8218 -0.2866
  549TIP3    H223207   0.876   6.734   7.815 -0.2342  0.3265  2.5562
  550TIP3   OH223208   0.777   2.361   8.643  0.3155  0.1102  0.7483
  550TIP3    H123209   0.743   2.431   8.587  1.2450  1.3007  1.6136
  550TIP3    H223210   0.758   2.280   8.595 -3.2129  0.6854  0.9041
  551TIP3   OH223211   2.002   2.474   2.422 -0.0159 -0.4612 -0.3011
  551TIP3    H123212   2.026   2.559   2.386  0.8218 -0.1137  0.9830
  551TIP3    H223213   2.083   2.441   2.460 -0.1880 -2.1360 -1.3291
  552TIP3   OH223214   1.110   2.547   6.886  0.2053  0.4792 -0.5576
  552TIP3    H123215   1.148   2.463   6.861  0.2552 -0.0447  1.1321
  552TIP3    H223216   1.087   2.589   6.803 -0.0542 -1.3061 -1.4414
  553TIP3   OH223217   3.673   0.304   2.969  0.3942  0.0410  0.0833
  553TIP3    H123218   3.738   0.318   3.039 -1.0553 -1.0488  1.7312
  553TIP3    H223219   3.611   0.376   2.980  1.6417  1.5615 -2.0150
  554TIP3   OH223220   2.487   0.160   2.314  0.2274  0.7788 -0.5622
  554TIP3    H123221   2.463   0.253   2.309 -0.0991  0.7632  0.4575
  554TIP3    H223222   2.437   0.127   2.389  1.8024  0.2221  0.2845
  555TIP3   OH223223   3.976   2.305   7.499 -0.3921  0.5792 -0.0805
  555TIP3    H123224   3.980   2.213   7.473 -1.1267 -0.0784  2.0005
  555TIP3    H223225   4.014   2.352   7.424 -0.9933 -1.2967 -1.6511
  556TIP3   OH223226   6.402   1.335   8.456  0.4278 -0.5494 -0.2329
  556TIP3    H123227   6.343   1.262   8.438 -0.1813 -0.7326  2.1771
  556TIP3    H223228   6.480   1.317   8.404 -1.0088 -1.0830 -2.3334
  557TIP3   OH223229   3.402   4.814   0.934 -0.1044  0.1475  0.8431
  557TIP3    H123230   3.482   4.793   0.982 -0.2857  0.9148  1.5008
  557TIP3    H223231   3.353   4.731   0.932  0.3555 -0.1338  1.1023
  558TIP3   OH223232   5.914   2.765   0.487  0.3193  0.6658 -0.1386
  558TIP3    H123233   6.009   2.779   0.490  0.0738  2.6058 -0.1654
  558TIP3    H223234   5.880   2.812   0.563 -0.7389  1.2972 -0.9652
  559TIP3   OH223235   5.430   3.416   0.280  0.2164  0.0232  1.0428
  559TIP3    H123236   5.511   3.414   0.229 -0.6131 -1.7971 -0.3308
  559TIP3    H223237   5.371   3.356   0.234 -1.3084 -0.1182  3.0188
  560TIP3   OH223238   0.273   4.324   0.573  0.1792  0.2732 -0.4404
  560TIP3    H123239   0.295   4.261   0.504  1.6074 -1.3220  1.3731
  560TIP3    H223240   0.236   4.271   0.643 -0.1476  1.6913  0.4958
  561TIP3   OH223241   0.381   4.522   7.220  0.6397 -0.2808  0.2651
  561TIP3    H123242   0.388   4.604   7.269  0.3024 -0.1236  0.0632
  561TIP3    H223243   0.355   4.549   7.132 -1.0761 -0.6853  0.6024
  562TIP3   OH223244   5.657   5.290   1.268  0.2212  0.6602 -0.5527
  562TIP3    H123245   5.693   5.206   1.240 -0.6397  0.4322 -0.9806
  562TIP3    H223246   5.651   5.282   1.363  0.9680  0.5732 -0.5038
  563TIP3   OH223247   5.302   2.601   7.570  0.2931  0.7976  0.0744
  563TIP3    H123248   5.281   2.685   7.610 -0.4370  0.2302  0.9206
  563TIP3    H223249   5.318   2.621   7.478 -1.9865  1.5722 -0.1991
  564TIP3   OH223250   0.416   0.332   8.312 -0.3247  0.2701 -0.3411
  564TIP3    H123251   0.406   0.276   8.389  1.7484  0.6682  0.2684
  564TIP3    H223252   0.330   0.327   8.268 -0.8257 -1.8125  0.7143
  565TIP3   OH223253   2.670   1.402   7.542 -0.6697 -0.1820 -0.8201
  565TIP3    H123254   2.689   1.416   7.450  0.8418  1.8799 -0.2680
  565TIP3    H223255   2.753   1.421   7.587 -2.2980  2.9022  1.2678
  566TIP3   OH223256   1.696   0.643   0.305  0.3029 -0.1614 -0.2319
  566TIP3    H123257   1.601   0.647   0.306  0.2213 -0.8488 -1.9255
  566TIP3    H223258   1.719   0.584   0.377 -0.5263  0.1359  0.2835
  567TIP3   OH223259   1.091   5.565   6.288 -0.1304 -0.3151 -0.7101
  567TIP3    H123260   1.154   5.634   6.269 -2.1073  2.1267  1.0562
  567TIP3    H223261   1.131   5.516   6.360  0.3290  0.4171 -0.4543
  568TIP3   OH223262   3.746   4.628   0.695  0.0300  0.2603 -0.0022
  568TIP3    H123263   3.756   4.692   0.625  0.4601 -0.9739 -1.1179
  568TIP3    H223264   3.795   4.551   0.665 -0.4736 -0.6036  1.2729
  569TIP3   OH223265   2.435   2.371   7.604 -0.2149  0.1201 -0.3408
  569TIP3    H123266   2.364   2.314   7.576 -0.8608 -0.5028  2.2987
  569TIP3    H223267   2.509   2.312   7.619  0.5584  0.6204 -1.9290
  570TIP3   OH223268   4.179   4.385   2.188  0.5902 -0.4428 -0.5795
  570TIP3    H123269   4.272   4.363   2.198  0.9753  1.0406 -0.6364
  570TIP3    H223270   4.133   4.320   2.241  1.7508 -0.4694  0.4414
  571TIP3   OH223271   1.398   4.828   0.327  0.2899  0.3575  0.4024
  571TIP3    H123272   1.380   4.922   0.336 -0.0917  0.1828  1.5387
  571TIP3    H223273   1.484   4.824   0.283  0.4375  1.2364  0.5993
  572TIP3   OH223274   1.027   0.315   3.051  0.9670  0.2127 -0.1030
  572TIP3    H123275   1.069   0.258   3.116 -0.4762 -1.3349 -0.4639
  572TIP3    H223276   1.092   0.384   3.034  1.8250  0.0418  2.1228
  573TIP3   OH223277   1.416   2.440   8.098  0.4917 -0.2753 -0.0874
  573TIP3    H123278   1.358   2.364   8.086  0.3398 -0.0045 -1.2432
  573TIP3    H223279   1.372   2.511   8.050  0.9839  0.3544  0.3841
  574TIP3   OH223280   2.711   5.753   1.429  0.0080 -0.1391  0.3512
  574TIP3    H123281   2.751   5.840   1.424  2.9890 -1.3934  0.2567
  574TIP3    H223282   2.673   5.750   1.517  1.3920  0.7120  1.0226
  575TIP3   OH223283   0.812   5.138   1.764  0.3734  0.2154 -0.5093
  575TIP3    H123284   0.758   5.093   1.698 -1.2572 -0.4497  1.1962
  575TIP3    H223285   0.843   5.069   1.821  1.5075  0.8202 -0.3705
  576TIP3   OH223286   4.788   6.616   0.290 -0.4071 -0.0040  0.2119
  576TIP3    H123287   4.852   6.545   0.291 -0.5797 -0.1613  0.3204
  576TIP3    H223288   4.835   6.691   0.326  0.2880  0.4043 -1.4764
  577TIP3   OH223289   0.574   5.579   7.461 -0.4097  0.1418  0.4601
  577TIP3    H123290   0.646   5.562   7.401  0.2058 -1.7622  1.6376
  577TIP3    H223291   0.497   5.544   7.417 -0.0345 -0.8514  0.5577
  578TIP3   OH223292   5.284   2.614   8.490 -0.0031  0.2885 -0.2498
  578TIP3    H123293   5.308   2.624   8.398 -2.7460  1.0003 -0.9780
  578TIP3    H223294   5.208   2.671   8.502 -0.5809 -0.8211  2.1172
  579TIP3   OH223295   4.367   1.510   0.336 -0.2649  0.1944 -0.1588
  579TIP3    H123296   4.444   1.453   0.343 -0.0153  0.6266  0.7611
  579TIP3    H223297   4.396   1.583   0.282 -0.6569 -0.6386 -1.5504
  580TIP3   OH223298   4.570   2.191   1.765  0.1042  0.7780  0.5689
  580TIP3    H123299   4.574   2.102   1.800 -0.3301  0.1525 -0.8865
  580TIP3    H223300   4.477   2.214   1.771 -0.0409  0.5013 -0.5352
  581TIP3   OH223301   4.814   4.226   1.783 -0.4046 -0.3336  0.0070
  581TIP3    H123302   4.737   4.223   1.840 -0.7008  2.0912 -0.1800
  581TIP3    H223303   4.788   4.283   1.711  1.4142  0.1505 -0.3067
  582TIP3   OH223304   2.838   0.580   0.523 -0.7894  0.1034 -0.5290
  582TIP3    H123305   2.905   0.527   0.479 -0.2192  0.5439 -0.2097
  582TIP3    H223306   2.765   0.520   0.536 -0.0054 -0.7205  0.1811
  583TIP3   OH223307   2.551   4.027   1.419  0.2644  0.1293  0.0327
  583TIP3    H123308   2.585   4.094   1.360 -0.3249 -0.0314 -0.5031
  583TIP3    H223309   2.472   4.066   1.458  0.8629  0.3804  1.0227
  584TIP3   OH223310   1.940   5.421   2.065  0.1043  0.4602 -0.3333
  584TIP3    H123311   1.895   5.484   2.121  0.4174  0.3890 -0.0006
  584TIP3    H223312   1.986   5.363   2.126 -1.0315 -0.7485 -0.5739
  585TIP3   OH223313   6.244   3.441   8.112  0.0821 -0.1375  0.2377
  585TIP3    H123314   6.161   3.483   8.136 -0.6012  0.1933 -2.3744
  585TIP3    H223315   6.306   3.470   8.178 -1.2474  1.9042  0.6667
  586TIP3   OH223316   6.839   1.487   0.901 -0.1934  0.1350  0.0709
  586TIP3    H123317   6.908   1.506   0.964 -0.4470 -0.2965  0.4841
  586TIP3    H223318   6.849   1.555   0.833  1.1923 -0.4444 -0.3359
  587TIP3   OH223319   5.839   2.925   0.726 -0.3781  0.1543  0.8009
  587TIP3    H123320   5.900   2.998   0.735  0.9650 -0.5371 -1.7350
  587TIP3    H223321   5.870   2.860   0.788  0.6615  0.3629  0.5168
  588TIP3   OH223322   2.311   4.802   7.242  0.0438  0.2159  0.2979
  588TIP3    H123323   2.334   4.893   7.228 -0.0403  0.4736  1.6638
  588TIP3    H223324   2.217   4.797   7.223  0.4174 -0.0257 -1.6440
  589TIP3   OH223325   0.191   0.740   8.438 -0.3297 -0.0697 -0.3934
  589TIP3    H123326   0.166   0.669   8.497 -1.3822 -0.7988 -1.6707
  589TIP3    H223327   0.127   0.809   8.455  0.6609  0.6100  0.8085
  590TIP3   OH223328   3.739   5.168   8.056 -0.2299  0.8090 -0.1751
  590TIP3    H123329   3.743   5.107   8.130  0.3428  1.2570  0.1649
  590TIP3    H223330   3.647   5.167   8.030 -0.0822 -0.9940 -0.8420
  591TIP3   OH223331   0.764   2.882   0.251  0.0995  0.5556  0.7209
  591TIP3    H123332   0.831   2.857   0.315  2.0657  2.7571 -0.3487
  591TIP3    H223333   0.699   2.929   0.303  0.5959  0.4776  1.4370
  592TIP3   OH223334   4.793   1.023   7.876  0.3916  0.1386  0.0742
  592TIP3    H123335   4.738   0.999   7.801 -3.1359  1.0725  2.1082
  592TIP3    H223336   4.804   1.118   7.868  0.7762  0.1120  0.2788
  593TIP3   OH223337   5.175   6.512   1.297 -0.8798 -0.1990  0.5852
  593TIP3    H123338   5.145   6.427   1.329  0.0904 -0.8718 -0.2157
  593TIP3    H223339   5.162   6.509   1.202 -0.2770  0.3052  0.4752
  594TIP3   OH223340   6.830   2.698   7.661 -0.4658 -0.1600 -0.2181
  594TIP3    H123341   6.781   2.621   7.692 -0.4417 -0.3371 -0.6140
  594TIP3    H223342   6.922   2.671   7.666 -0.5088 -0.8055 -1.9920
  595TIP3   OH223343   0.401   0.893   1.859 -0.1757  0.7520 -0.3565
  595TIP3    H123344   0.310   0.919   1.871  0.1340  1.2490  1.1697
  595TIP3    H223345   0.434   0.878   1.948  0.3996 -2.4355 -0.9901
  596TIP3   OH223346   6.083   5.624   8.554  0.1362  0.3044 -0.3739
  596TIP3    H123347   6.052   5.586   8.472 -1.4123  0.6329  0.0360
  596TIP3    H223348   6.176   5.599   8.558 -0.7077 -3.4510 -0.1233
  597TIP3   OH223349   1.125   3.756   7.845  0.5356  0.1720 -0.0893
  597TIP3    H123350   1.087   3.796   7.766 -0.1403 -1.3294 -0.5603
  597TIP3    H223351   1.074   3.794   7.917  0.4744  0.7938 -0.4466
  598TIP3   OH223352   4.294   2.373   1.170  0.3721  0.6152  0.3878
  598TIP3    H123353   4.295   2.303   1.104 -0.0495  1.4862 -0.5811
  598TIP3    H223354   4.288   2.454   1.118  1.2847  1.3960  1.4643
  599TIP3   OH223355   1.668   0.926   0.042  0.4813  0.9158  0.2588
  599TIP3    H123356   1.631   0.909   0.128 -1.6465  0.6244 -0.6378
  599TIP3    H223357   1.591   0.935  -0.015  1.7907 -1.8965 -2.1708
  600TIP3   OH223358   2.937   4.803   0.285 -0.1819  0.1322 -0.1557
  600TIP3    H123359   2.899   4.735   0.340  0.2283 -0.4176 -0.5411
  600TIP3    H223360   2.972   4.867   0.348  1.2834 -1.0372  0.2746
  601TIP3   OH223361   4.141   4.881   1.960 -0.1487 -0.3975  0.1249
  601TIP3    H123362   4.148   4.896   1.866 -0.1249  0.5897  0.2791
  601TIP3    H223363   4.061   4.829   1.969  1.3883 -3.0750 -0.6925
  602TIP3   OH223364   1.032   2.524   7.725  0.3371 -0.1317 -0.4644
  602TIP3    H123365   1.089   2.471   7.669  0.9447 -0.4223  0.4206
  602TIP3    H223366   1.063   2.614   7.711 -0.0117 -0.1128 -1.1658
  603TIP3   OH223367   5.896   5.147   7.765 -0.0165 -0.5954  0.2334
  603TIP3    H123368   5.938   5.066   7.796 -0.2397  0.0870  2.4826
  603TIP3    H223369   5.849   5.120   7.687  2.5864 -1.9191 -1.0205
  604TIP3   OH223370   2.070   0.406   7.508 -0.5258  0.3070 -0.5318
  604TIP3    H123371   2.127   0.342   7.551  0.9090  1.0718 -1.2104
  604TIP3    H223372   2.022   0.355   7.443 -0.6483 -0.3570  0.0624
  605TIP3   OH223373   4.548   3.016   0.721  0.0145 -0.6362 -0.1474
  605TIP3    H123374   4.541   2.988   0.812 -0.0771  0.7135  0.2875
  605TIP3    H223375   4.494   3.095   0.716  0.9931  0.0079 -1.0696
  606TIP3   OH223376   0.677   4.708   1.986  0.2310 -0.2365  0.3365
  606TIP3    H123377   0.619   4.733   1.915 -0.7242 -0.9164  0.8523
  606TIP3    H223378   0.625   4.720   2.065  0.6335 -1.2957  0.7788
  607TIP3   OH223379   5.534   1.144   0.065 -0.2287 -0.3540 -0.1416
  607TIP3    H123380   5.518   1.074   0.003 -0.5803 -0.5560  0.1733
  607TIP3    H223381   5.600   1.109   0.125 -1.1110 -0.7941  0.6052
  608TIP3   OH223382   5.331   5.898   1.202 -0.0288  0.1174  0.1614
  608TIP3    H123383   5.372   5.897   1.288  3.2338  0.7546 -1.2303
  608TIP3    H223384   5.297   5.987   1.193  1.6724  0.7826 -0.0212
  609TIP3   OH223385   3.704   6.127   6.903  0.0222 -1.1070 -0.1312
  609TIP3    H123386   3.734   6.179   6.828 -1.8670  1.3951  0.7106
  609TIP3    H223387   3.783   6.109   6.953  0.9126  0.0065 -1.0799
  610TIP3   OH223388   4.758   6.847   8.503 -0.0968 -0.0867  0.0363
  610TIP3    H123389   4.835   6.902   8.522  0.2232 -0.2153 -0.8337
  610TIP3    H223390   4.771   6.769   8.556 -0.6555  0.7363  1.4440
  611TIP3   OH223391   6.127   4.276   1.005 -0.1548 -0.0852  0.5155
  611TIP3    H123392   6.125   4.233   0.920  2.1152  1.7422 -0.5826
  611TIP3    H223393   6.176   4.216   1.062 -0.6303 -0.7616  0.2284
  612TIP3   OH223394   0.054   6.545   0.087 -0.4587 -0.5737 -0.3382
  612TIP3    H123395   0.140   6.531   0.128 -0.7752  2.2105  1.5860
  612TIP3    H223396  -0.002   6.477   0.125  0.9712 -3.0431 -2.3301
  613TIP3   OH223397   0.870   3.837   1.868  0.2359  0.0881  0.3032
  613TIP3    H123398   0.924   3.763   1.895 -0.9072 -0.7547  0.3288
  613TIP3    H223399   0.900   3.910   1.923 -1.1565 -1.2608  3.0592
  614TIP3   OH223400   4.730   5.220   7.765 -0.3047  0.4374  0.2167
  614TIP3    H123401   4.675   5.227   7.842  3.0703  0.4966  2.8745
  614TIP3    H223402   4.755   5.310   7.745 -0.6869  0.3709 -0.6006
  615TIP3   OH223403   0.375   1.698   7.740 -0.0589 -0.5162 -0.2139
  615TIP3    H123404   0.447   1.751   7.776 -1.6538  1.5254  0.1727
  615TIP3    H223405   0.368   1.623   7.799  0.8592 -0.0151  0.5484
  616TIP3   OH223406   3.651   0.072   1.730  0.1149 -0.4487  0.2270
  616TIP3    H123407   3.614   0.029   1.652  0.3946  1.4065 -0.9772
  616TIP3    H223408   3.590   0.049   1.801 -1.5081 -0.1826 -1.0293
  617TIP3   OH223409   3.335   0.364   0.902 -0.3613 -0.5299 -0.2643
  617TIP3    H123410   3.334   0.350   0.807 -0.2243 -2.2980 -0.0390
  617TIP3    H223411   3.245   0.348   0.930 -0.5295  0.5546 -0.1486
  618TIP3   OH223412   0.715   3.141   7.504 -0.1895  0.4133 -0.7290
  618TIP3    H123413   0.739   3.093   7.424 -0.9354  0.1862 -0.8172
  618TIP3    H223414   0.701   3.072   7.569  4.4379  0.5909  0.8550
  619TIP3   OH223415   2.191   1.193   1.879  0.2204 -0.0706  0.4853
  619TIP3    H123416   2.165   1.102   1.894 -1.2383  0.1942 -0.2908
  619TIP3    H223417   2.125   1.228   1.819 -0.3000  2.0176  2.1291
  620TIP3   OH223418   1.771   0.756   8.017  0.3097  0.2794  0.1579
  620TIP3    H123419   1.861   0.731   7.997 -0.0641 -0.3550 -0.8149
  620TIP3    H223420   1.724   0.743   7.935 -0.9664 -0.7501  1.0178
  621TIP3   OH223421   1.958   0.628   1.655 -0.1811 -0.1547  0.5599
  621TIP3    H123422   2.024   0.561   1.637  1.1679  0.9672  1.0958
  621TIP3    H223423   1.882   0.601   1.604 -0.0865 -2.6567  1.6011
  622TIP3   OH223424   2.288   1.489   7.412 -0.6706  0.1644 -0.1288
  622TIP3    H123425   2.343   1.434   7.356  0.7173  1.2128  0.1322
  622TIP3    H223426   2.202   1.487   7.371 -0.1521 -0.5947 -1.2317
  623TIP3   OH223427   5.107   6.345   2.527  0.0165  0.0307  0.1467
  623TIP3    H123428   5.124   6.429   2.570 -1.2039 -0.2725  1.2742
  623TIP3    H223429   5.019   6.355   2.491  0.3055 -0.3890 -0.6920
  624TIP3   OH223430   1.976   1.829   7.809  0.5494  0.6329  0.2389
  624TIP3    H123431   1.982   1.780   7.728  0.3747  1.3409 -0.2161
  624TIP3    H223432   2.007   1.769   7.877  0.5137 -0.0277 -0.3230
  625TIP3   OH223433   6.547   0.512   2.385  0.0049  0.8448 -0.2090
  625TIP3    H123434   6.502   0.589   2.351 -1.5745  0.2299  0.3918
  625TIP3    H223435   6.478   0.447   2.395  1.6821 -1.7091 -3.4412
  626TIP3   OH223436   1.594   3.118   2.830 -0.2185  0.2772 -0.4136
  626TIP3    H123437   1.679   3.081   2.806  0.1855  0.5846  0.5269
  626TIP3    H223438   1.602   3.211   2.810 -0.0479  0.4499  0.4366
  627TIP3   OH223439   4.415   6.430   7.961 -0.5053 -0.3060 -0.1328
  627TIP3    H123440   4.384   6.340   7.974 -1.6633  0.0804 -0.1255
  627TIP3    H223441   4.414   6.441   7.866  0.5027 -0.5834 -0.1867
  628TIP3   OH223442   4.574   4.061   0.713 -1.0709 -0.5053 -0.1311
  628TIP3    H123443   4.498   4.005   0.696 -1.4547 -0.2178  0.5826
  628TIP3    H223444   4.560   4.094   0.801  0.3050 -1.0774  0.3251
  629TIP3   OH223445   3.411   1.227   8.617 -0.0231  0.7585 -0.2141
  629TIP3    H123446   3.478   1.204   8.681 -1.3071 -0.2719  0.8340
  629TIP3    H223447   3.367   1.304   8.656 -0.6274  0.2996  0.0286
  630TIP3   OH223448   4.236   2.634   2.235 -0.1316 -0.1213 -0.0480
  630TIP3    H123449   4.293   2.560   2.214  0.1326  0.5348 -1.8459
  630TIP3    H223450   4.263   2.661   2.322  1.7525 -0.3902 -0.5028
  631TIP3   OH223451   6.302   5.175   8.367  0.3170 -0.2288 -0.0153
  631TIP3    H123452   6.359   5.146   8.439 -0.9423 -0.2953  0.9962
  631TIP3    H223453   6.271   5.094   8.328  1.1626 -0.1923 -0.7933
  632TIP3   OH223454   6.355   3.760   1.148 -0.1672  0.1116  0.0917
  632TIP3    H123455   6.359   3.811   1.229 -0.0268  0.2536 -0.0040
  632TIP3    H223456   6.300   3.685   1.170  1.3245 -0.8040  0.8547
  633TIP3   OH223457   2.654   1.991   8.446 -0.5716  0.0669 -0.1551
  633TIP3    H123458   2.701   2.064   8.407 -0.1440 -0.2535 -0.2437
  633TIP3    H223459   2.679   1.915   8.394 -0.1151 -0.3383  0.6279
  634TIP3   OH223460   6.248   2.273   7.137 -0.0528 -0.3216 -0.2820
  634TIP3    H123461   6.235   2.332   7.211  3.1451  0.2645 -0.0164
  634TIP3    H223462   6.203   2.314   7.064  2.1605  2.6556 -0.1384
  635TIP3   OH223463   5.713   2.430   7.875  0.0107  0.0315 -0.4006
  635TIP3    H123464   5.776   2.490   7.916  0.0860  0.9400 -1.7889
  635TIP3    H223465   5.738   2.428   7.783 -1.5639 -0.1258 -0.8581
  636TIP3   OH223466   5.390   6.046   2.056 -0.0675  0.0823  0.2250
  636TIP3    H123467   5.418   5.983   1.991  0.1972 -0.0516  0.4652
  636TIP3    H223468   5.468   6.097   2.076  0.3547 -1.0899  1.7969
  637TIP3   OH223469   6.252   0.463   6.073  0.0053 -0.5808 -0.3848
  637TIP3    H123470   6.288   0.433   6.156  0.0240  1.8153  0.5380
  637TIP3    H223471   6.328   0.496   6.024 -0.3451  0.5898 -0.1707
  638TIP3   OH223472   1.221   0.749   7.182 -0.4913  0.1730  0.9447
  638TIP3    H123473   1.181   0.713   7.103  0.1570  0.3152  0.5404
  638TIP3    H223474   1.303   0.701   7.191  0.5628  1.7515  0.2008
  639TIP3   OH223475   4.325   3.830   0.417 -0.3688 -0.5711 -0.2841
  639TIP3    H123476   4.249   3.781   0.448 -2.0694  2.6724  1.2699
  639TIP3    H223477   4.385   3.831   0.492  0.0550 -0.9666 -0.6121
  640TIP3   OH223478   5.814   1.538   7.354 -0.0932 -0.3890 -0.2098
  640TIP3    H123479   5.857   1.453   7.341 -1.9779 -1.4167 -0.0150
  640TIP3    H223480   5.848   1.570   7.438  0.0022 -1.3535  0.1240
  641TIP3   OH223481   2.296   3.188   0.384 -0.1158 -0.0912  0.0551
  641TIP3    H123482   2.306   3.203   0.290  1.5986 -0.3373  0.1667
  641TIP3    H223483   2.302   3.093   0.394 -1.5190 -0.1739  0.3141
  642TIP3   OH223484   1.865   4.386   1.225 -0.6914  0.3477 -0.0331
  642TIP3    H123485   1.915   4.332   1.164 -1.5765  0.5965 -1.0049
  642TIP3    H223486   1.930   4.443   1.265  0.1244 -0.8014  0.3450
  643TIP3   OH223487   0.868   3.811   2.357 -0.1183 -0.0630  0.4478
  643TIP3    H123488   0.866   3.869   2.433  0.6123  0.9599 -0.2886
  643TIP3    H223489   0.776   3.791   2.339 -0.2905 -0.5304  1.7310
  644TIP3   OH223490   6.446   6.725   8.614 -0.1638 -0.4668 -0.0111
  644TIP3    H123491   6.541   6.721   8.626 -0.0737 -0.6524 -0.7191
  644TIP3    H223492   6.411   6.737   8.702  0.5346 -0.0886  0.2263
  645TIP3   OH223493   3.061   2.719   1.820  0.0802  0.0474  0.0110
  645TIP3    H123494   3.057   2.629   1.854 -2.8095 -0.1982 -0.7323
  645TIP3    H223495   3.026   2.713   1.731  0.6501  1.8014 -0.3793
  646TIP3   OH223496   0.141   2.652   0.568  0.2741 -0.2519 -0.0834
  646TIP3    H123497   0.051   2.623   0.551 -0.0119 -0.3895  1.4652
  646TIP3    H223498   0.183   2.576   0.610  1.7608 -0.9193 -2.5725
  647TIP3   OH223499   2.755   6.529   8.569  0.2482  0.3337  0.4238
  647TIP3    H123500   2.814   6.551   8.641 -0.8791  0.0812  1.4649
  647TIP3    H223501   2.812   6.491   8.502  1.4010  1.0840  0.9520
  648TIP3   OH223502   5.485   3.464   8.581  0.0438 -0.0308  0.7155
  648TIP3    H123503   5.396   3.466   8.546  0.1793 -0.8444  0.3062
  648TIP3    H223504   5.515   3.374   8.566  1.2198  0.4429  0.1295
  649TIP3   OH223505   2.851   1.086   0.242 -0.0289 -0.5497 -0.3158
  649TIP3    H123506   2.847   0.995   0.215  1.4748  0.1768 -3.4455
  649TIP3    H223507   2.759   1.115   0.243 -0.4334 -1.7833 -0.4708
  650TIP3   OH223508   6.736   4.028   0.519  0.2026 -0.0001  0.3343
  650TIP3    H123509   6.665   3.964   0.523 -0.2295  0.4693  0.3373
  650TIP3    H223510   6.810   3.979   0.485  0.0802 -0.6749  1.0041
  651TIP3   OH223511   6.350   1.505   7.659  0.0119 -0.0375 -0.0332
  651TIP3    H123512   6.333   1.481   7.750 -0.3479  0.0716 -0.0720
  651TIP3    H223513   6.288   1.575   7.640  1.2484  1.1438  0.1614
  652TIP3   OH223514   0.817   1.003   0.676  0.1483 -0.4070 -0.7255
  652TIP3    H123515   0.871   0.994   0.755 -0.1867 -2.6967 -0.6816
  652TIP3    H223516   0.732   1.034   0.708  0.1928 -0.7482 -0.2611
  653TIP3   OH223517   0.572   4.108   7.689  0.6930 -0.0857 -0.0453
  653TIP3    H123518   0.480   4.116   7.716  1.4163  1.6160  2.2525
  653TIP3    H223519   0.594   4.017   7.706 -0.2246 -0.1840  0.6852
  654TIP3   OH223520   4.415   5.174   1.777 -0.1037 -0.4726  0.0530
  654TIP3    H123521   4.422   5.234   1.851 -1.2691  0.5141 -0.6029
  654TIP3    H223522   4.469   5.213   1.708 -0.9582 -0.1011 -0.4168
  655TIP3   OH223523   6.076   5.277   7.193 -0.1319  0.1458  0.5420
  655TIP3    H123524   6.167   5.267   7.221  0.1409  4.3223  1.8486
  655TIP3    H223525   6.079   5.347   7.128 -2.4505  0.5970  0.8360
  656TIP3   OH223526   6.546   5.374   1.794 -0.3959 -0.4924 -0.4075
  656TIP3    H123527   6.593   5.390   1.712 -1.2184  1.7870 -0.5046
  656TIP3    H223528   6.547   5.459   1.839  0.2604 -1.7203  2.1114
  657TIP3   OH223529   5.018   3.945   8.560 -0.5151 -0.0638 -0.1365
  657TIP3    H123530   4.959   4.020   8.551 -0.7358 -0.4100 -2.3488
  657TIP3    H223531   5.102   3.977   8.525 -0.5182 -0.7239 -0.7682
  658TIP3   OH223532   6.049   5.478   2.165 -0.8380  0.4634  0.5366
  658TIP3    H123533   6.028   5.558   2.214  0.0902 -0.3390  2.3638
  658TIP3    H223534   5.991   5.412   2.202  1.5703 -0.7344  2.4688
  659TIP3   OH223535   1.901   6.302   7.085 -0.0443  0.0178  0.1458
  659TIP3    H123536   1.849   6.229   7.118 -2.2335  0.8170 -1.3006
  659TIP3    H223537   1.990   6.267   7.077 -0.2901 -1.4010  2.7398
  660TIP3   OH223538   4.014   3.711   8.483  0.8672 -0.1943 -0.2335
  660TIP3    H123539   4.073   3.643   8.450  0.5604 -0.7701  0.3822
  660TIP3    H223540   3.950   3.723   8.413  1.7644  0.5182 -0.9551
  661TIP3   OH223541   6.756   1.355   1.410  0.2787  0.8524  0.3774
  661TIP3    H123542   6.808   1.309   1.344 -0.5083  1.7306 -0.9101
  661TIP3    H223543   6.815   1.366   1.484  0.7104 -1.5703  0.4835
  662TIP3   OH223544   2.997   6.675   0.288  0.1989  0.4901 -0.1333
  662TIP3    H123545   3.089   6.689   0.310  0.1094  0.7406  0.0891
  662TIP3    H223546   2.963   6.763   0.270  0.1203  0.3531 -0.6758
  663TIP3   OH223547   1.859   6.638   1.417  0.5986 -0.0091  0.6204
  663TIP3    H123548   1.896   6.563   1.462  0.6893  0.2077  0.9060
  663TIP3    H223549   1.887   6.714   1.468  0.1025  0.1838  0.6118
  664TIP3   OH223550   3.702   2.105   7.489 -0.1126  0.0260 -0.5607
  664TIP3    H123551   3.779   2.085   7.543 -1.3752 -1.3372  0.8305
  664TIP3    H223552   3.699   2.034   7.425 -0.4281 -0.1509 -0.3525
  665TIP3   OH223553   3.609   3.358   1.123 -0.0406 -0.1396  0.4502
  665TIP3    H123554   3.560   3.339   1.043 -1.1756  0.5377  0.9569
  665TIP3    H223555   3.610   3.275   1.170  2.4356 -1.1173 -1.1468
  666TIP3   OH223556   2.503   3.687   0.885 -0.5526 -0.5926  0.2054
  666TIP3    H123557   2.502   3.659   0.793  0.3590 -1.3279  0.4017
  666TIP3    H223558   2.514   3.782   0.880 -0.7100 -0.6014 -0.4545
  667TIP3   OH223559   3.819   0.418   2.286 -0.5689 -0.2503 -0.1345
  667TIP3    H123560   3.782   0.487   2.341 -1.0113 -0.3756 -0.2733
  667TIP3    H223561   3.821   0.456   2.198  0.4265  0.0627  0.0132
  668TIP3   OH223562   2.729   4.118   6.845 -0.0809 -0.4143 -0.5817
  668TIP3    H123563   2.643   4.152   6.867  0.8344  2.3323 -0.9124
  668TIP3    H223564   2.719   4.082   6.756 -0.8326  0.0105 -0.6761
  669TIP3   OH223565   3.602   0.403   0.426 -0.2999 -0.0731  0.0195
  669TIP3    H123566   3.543   0.462   0.474 -0.4351  1.8069 -2.2974
  669TIP3    H223567   3.548   0.326   0.408 -1.5257  0.8652 -0.5216
  670TIP3   OH223568   6.078   3.004   8.022 -0.1068  0.6847 -0.0077
  670TIP3    H123569   6.008   2.998   7.957 -0.0600  1.4738 -0.1406
  670TIP3    H223570   6.037   2.978   8.104 -0.4497  0.7583 -0.1549
  671TIP3   OH223571   5.765   0.914   8.368 -0.5050 -0.2280 -0.1640
  671TIP3    H123572   5.850   0.940   8.334  0.4320 -1.2456  1.2859
  671TIP3    H223573   5.740   0.839   8.314 -1.4265  1.1879 -1.8288
  672TIP3   OH223574   5.622   1.708   7.457 -0.2368  0.3154  0.3230
  672TIP3    H123575   5.679   1.780   7.486  1.2271 -1.5053  2.2875
  672TIP3    H223576   5.677   1.657   7.397 -1.1380  0.5627 -0.7506
  673TIP3   OH223577   2.461   3.990   7.797  0.4039  0.2237 -0.4405
  673TIP3    H123578   2.450   4.014   7.889  1.1155 -0.4687 -0.1705
  673TIP3    H223579   2.404   3.915   7.784 -0.7990  1.1953 -0.9465
  674TIP3   OH223580   2.252   2.571   6.728  0.6065 -0.1071  0.2200
  674TIP3    H123581   2.275   2.490   6.774  2.6826 -0.2742 -0.9910
  674TIP3    H223582   2.275   2.640   6.789 -2.1307 -0.3322  1.6847
  675TIP3   OH223583   0.375   0.363   6.575 -0.2629  0.1002  0.4367
  675TIP3    H123584   0.340   0.286   6.531  0.5858  0.4065 -0.8421
  675TIP3    H223585   0.307   0.429   6.567 -0.3861 -0.0596  0.1678
  676TIP3   OH223586   6.150   3.340   6.555 -0.0320 -0.0755 -0.2785
  676TIP3    H123587   6.059   3.324   6.582 -0.2656 -0.4882 -1.2761
  676TIP3    H223588   6.191   3.254   6.555  0.6824  0.2329  1.2254
  677TIP3   OH223589   5.928   5.599   7.991  0.3426  0.0277  0.8700
  677TIP3    H123590   5.927   5.686   7.950  0.2067 -0.8162 -1.0030
  677TIP3    H223591   6.013   5.594   8.035  0.1827  1.2529  1.3582
  678TIP3   OH223592   5.955   4.252   7.777 -0.7162 -0.0943  0.0900
  678TIP3    H123593   6.041   4.290   7.756 -1.1784 -0.0453 -1.9286
  678TIP3    H223594   5.921   4.307   7.848  0.8828 -0.0950  0.9021
  679TIP3   OH223595   5.381   2.161   8.282  0.1480 -0.4859  1.0665
  679TIP3    H123596   5.417   2.073   8.281  0.3150 -0.4151  0.3731
  679TIP3    H223597   5.351   2.176   8.193  0.8902  0.4716  0.9540
  680TIP3   OH223598   3.356   0.066   7.540 -0.3793  0.0312  0.4732
  680TIP3    H123599   3.348   0.053   7.445 -1.1165  0.5462  0.4520
  680TIP3    H223600   3.448   0.089   7.553 -0.2502 -0.1266 -0.1031
  681TIP3   OH223601   4.341   6.311   8.325  0.4409  0.0794  0.7278
  681TIP3    H123602   4.383   6.235   8.366  0.5297  1.3046  3.0679
  681TIP3    H223603   4.400   6.384   8.343 -0.3983  0.9924 -0.1141
  682TIP3   OH223604   2.474   5.026   7.448 -0.3864 -0.7600  0.1878
  682TIP3    H123605   2.420   5.084   7.501 -0.2002 -1.0626  0.7305
  682TIP3    H223606   2.443   5.037   7.359  0.7481  1.4313  0.0002
  683TIP3   OH223607   4.085   3.438   0.446  0.0337 -0.2152 -0.1912
  683TIP3    H123608   4.033   3.512   0.476  1.1449  0.8163 -0.7305
  683TIP3    H223609   4.023   3.364   0.445 -1.1772  0.7592  0.0482
  684TIP3   OH223610   4.725   5.670   2.335 -0.5159 -0.6357  0.4619
  684TIP3    H123611   4.741   5.728   2.409  2.5120 -0.0887 -0.4807
  684TIP3    H223612   4.797   5.607   2.338 -0.5920 -0.8874 -1.7070
  685TIP3   OH223613   0.121   3.803   0.859  0.0577 -0.4201 -0.9779
  685TIP3    H123614   0.064   3.731   0.832 -2.8553  0.7703  1.4219
  685TIP3    H223615   0.154   3.776   0.945  0.5288  0.2999 -0.9260
  686TIP3   OH223616   0.721   6.645   1.127 -0.2358  0.3438 -0.0562
  686TIP3    H123617   0.694   6.681   1.212 -2.1620  1.5091 -1.1098
  686TIP3    H223618   0.702   6.714   1.064  0.8265 -0.6313 -1.5165
  687TIP3   OH223619   4.781   5.684   8.615 -0.1937 -0.1798  0.2551
  687TIP3    H123620   4.749   5.655   8.700 -0.2825 -0.9747 -0.0410
  687TIP3    H223621   4.824   5.768   8.633  0.9168 -0.9476  1.3093
  688TIP3   OH223622   0.664   5.713   8.260  0.2968  0.4693  0.3175
  688TIP3    H123623   0.579   5.676   8.239  0.1015 -0.2616  2.2119
  688TIP3    H223624   0.726   5.663   8.205 -0.4568  1.0422 -1.0997
  689TIP3   OH223625   0.315   4.786   1.539  0.1313  0.2003 -0.3855
  689TIP3    H123626   0.309   4.881   1.541  1.1961  0.3236  2.4535
  689TIP3    H223627   0.224   4.757   1.533 -0.5111  1.4931  1.8021
  690TIP3   OH223628   6.472   0.105   8.211 -0.1678  0.3773  0.1316
  690TIP3    H123629   6.428   0.185   8.183 -2.1657 -0.9589 -0.7330
  690TIP3    H223630   6.449   0.096   8.303  0.3577  0.9767  0.3240
  691TIP3   OH223631   6.109   1.434   8.296  0.0877  0.5753 -0.2153
  691TIP3    H123632   6.072   1.352   8.265  0.6739  0.3408 -0.3094
  691TIP3    H223633   6.189   1.446   8.244 -2.5396  3.8704 -4.0986
  692TIP3   OH223634   3.148   0.798   1.510 -0.1598  0.3694 -0.3325
  692TIP3    H123635   3.217   0.734   1.528 -0.0174  0.4199 -0.6978
  692TIP3    H223636   3.080   0.777   1.574  0.2377  0.3946  0.1082
  693TIP3   OH223637   6.590   4.131   1.463 -0.2938 -0.5911  0.5272
  693TIP3    H123638   6.598   4.191   1.537 -0.0308 -0.2324  0.2130
  693TIP3    H223639   6.629   4.050   1.493 -0.2795 -0.4757  0.8174
  694TIP3   OH223640   1.577   2.547   1.449 -0.2598 -0.5128 -0.2208
  694TIP3    H123641   1.496   2.497   1.445  0.1245 -1.3992  1.9029
  694TIP3    H223642   1.551   2.637   1.428 -1.4692 -1.0679 -1.2180
  695TIP3   OH223643   4.272   0.470   1.228  0.2842  0.3324  0.5514
  695TIP3    H123644   4.223   0.531   1.283  0.0605  0.6798 -0.0302
  695TIP3    H223645   4.343   0.523   1.191 -0.3817  0.4572 -0.5990
  696TIP3   OH223646   4.317   5.723   1.693  0.3816  0.3284  0.1255
  696TIP3    H123647   4.282   5.702   1.606  0.3764  0.8694 -0.0037
  696TIP3    H223648   4.254   5.683   1.754  1.1423 -1.2903 -0.1096
  697TIP3   OH223649   5.941   1.579   2.481  0.2556 -0.0247  0.6305
  697TIP3    H123650   5.938   1.572   2.386 -0.5489 -0.4359  0.6717
  697TIP3    H223651   5.849   1.589   2.507  0.3854 -0.7156  1.4133
  698TIP3   OH223652   2.174   4.408   0.778 -0.2533 -0.4829  0.3630
  698TIP3    H123653   2.226   4.412   0.698  1.5883 -0.5601  1.4979
  698TIP3    H223654   2.109   4.340   0.761 -1.0744  0.7167 -1.6839
  699TIP3   OH223655   1.382   3.658   1.245 -0.3864 -0.3709 -0.4576
  699TIP3    H123656   1.287   3.645   1.247 -0.2941 -2.0838 -2.8232
  699TIP3    H223657   1.396   3.716   1.170  0.4981 -1.0747 -0.8485
  700TIP3   OH223658   2.902   0.097   7.043  0.1230  0.5483 -0.4966
  700TIP3    H123659   2.939   0.019   7.001  0.1061  0.5614 -0.5358
  700TIP3    H223660   2.956   0.170   7.011  0.4747  0.4928 -0.0524
  701TIP3   OH223661   4.166   3.682   0.589  0.0857 -0.3714  0.2434
  701TIP3    H123662   4.106   3.712   0.657 -2.1883 -0.1355 -1.7289
  701TIP3    H223663   4.175   3.588   0.605 -2.2341 -0.7522 -0.3515
  702TIP3   OH223664   3.950   6.724   8.001  0.4108  0.1705 -0.1039
  702TIP3    H123665   3.868   6.712   7.952  0.8424 -2.3045 -0.3389
  702TIP3    H223666   3.964   6.640   8.045  3.0029  0.4139 -0.3493
  703TIP3   OH223667   2.661   5.406   7.159 -0.3288 -0.0036  0.0014
  703TIP3    H123668   2.657   5.392   7.253  0.2605  0.8480  0.1620
  703TIP3    H223669   2.619   5.328   7.121  1.8594 -1.6927  0.8675
  704TIP3   OH223670   0.553   4.252   7.111 -0.5638  0.3216  0.1147
  704TIP3    H123671   0.530   4.226   7.200 -0.9139 -0.1580 -0.1066
  704TIP3    H223672   0.479   4.223   7.058  0.1082 -0.3745 -0.4789
  705TIP3   OH223673   0.523   1.961   2.138  0.0764  0.3016  0.5313
  705TIP3    H123674   0.455   1.982   2.202 -0.7748  0.1037 -0.2973
  705TIP3    H223675   0.597   1.932   2.192 -1.0840 -1.2293  1.4122
  706TIP3   OH223676   5.974   1.140   2.050 -0.4073  0.5461 -0.2865
  706TIP3    H123677   6.064   1.147   2.018 -0.5959  0.3953 -0.8444
  706TIP3    H223678   5.980   1.077   2.122  0.1721  1.5642  0.5878
  707TIP3   OH223679   2.258   5.475   0.119  0.2482  0.5294  0.0139
  707TIP3    H123680   2.191   5.412   0.144  0.0578 -0.0121 -1.7288
  707TIP3    H223681   2.281   5.451   0.029  1.1122  2.1499 -0.2291
  708TIP3   OH223682   4.695   1.366   0.867  0.0820 -0.0215 -0.0387
  708TIP3    H123683   4.698   1.293   0.805  1.2507  0.4302 -0.5610
  708TIP3    H223684   4.765   1.424   0.837 -1.2226  1.6279 -0.0251
  709TIP3   OH223685   5.373   5.255   1.436 -0.2693  0.0374  0.0849
  709TIP3    H123686   5.442   5.191   1.452 -0.6905 -0.3571  0.3612
  709TIP3    H223687   5.359   5.297   1.521  0.1827  0.6731 -0.1576
  710TIP3   OH223688   6.219   0.482   1.386  0.4032 -0.5691 -0.9446
  710TIP3    H123689   6.139   0.506   1.432  1.4603  0.2721  0.5771
  710TIP3    H223690   6.191   0.422   1.317 -1.4038 -0.9764  0.0880
  711TIP3   OH223691   4.020   2.662   0.674  0.5871  0.1425  0.5193
  711TIP3    H123692   3.969   2.721   0.618  0.8844  2.3192  2.3908
  711TIP3    H223693   3.965   2.584   0.684 -0.7444  0.9243 -0.4248
  712TIP3   OH223694   4.819   3.302   0.744 -0.0454  0.4596 -0.0039
  712TIP3    H123695   4.842   3.384   0.789  1.6993 -0.3200  0.5815
  712TIP3    H223696   4.857   3.311   0.657  0.4770  0.1298  0.1859
  713TIP3   OH223697   0.098   5.314   0.091 -1.0225  0.2041 -0.3452
  713TIP3    H123698   0.098   5.226   0.054 -1.3502  0.3535 -0.7193
  713TIP3    H223699   0.037   5.363   0.035 -1.3940  0.4857  0.2896
  714TIP3   OH223700   0.226   3.097   8.633 -0.2070  0.1643  0.1559
  714TIP3    H123701   0.313   3.057   8.634 -0.2351  0.0911 -0.2371
  714TIP3    H223702   0.244   3.192   8.635 -0.1281  0.1454  0.4286
  715TIP3   OH223703   4.528   3.175   7.004  0.4166 -0.0223 -0.1295
  715TIP3    H123704   4.519   3.270   6.991  2.4222  0.2007 -0.2340
  715TIP3    H223705   4.500   3.137   6.921  0.7817  0.5812 -0.5410
  716TIP3   OH223706   1.081   5.777   2.467 -0.2859  0.0413  0.5107
  716TIP3    H123707   1.022   5.725   2.521  0.7462 -1.1131  0.5586
  716TIP3    H223708   1.101   5.854   2.521 -1.8500  0.5361  0.4219
  717TIP3   OH223709   4.922   4.054   7.347  0.4482 -0.4638 -0.0457
  717TIP3    H123710   4.844   4.080   7.299  1.5290  1.4713 -0.8798
  717TIP3    H223711   4.895   4.049   7.438 -1.0038 -1.4826 -0.4978
  718TIP3   OH223712   0.910   0.911   6.671 -0.1116 -0.1832 -0.1859
  718TIP3    H123713   0.992   0.906   6.719  0.5424 -0.2281 -1.2746
  718TIP3    H223714   0.867   0.827   6.689  0.2145 -0.2856  0.1387
  719TIP3   OH223715   5.771   3.782   6.682  0.0121  0.0103  0.0131
  719TIP3    H123716   5.841   3.843   6.705 -0.8816  1.6659 -1.4227
  719TIP3    H223717   5.782   3.766   6.589 -0.8843 -0.5415 -0.0131
  720TIP3   OH223718   5.959   1.238   8.641 -0.1001 -0.2622  0.1602
  720TIP3    H123719   5.908   1.275   8.568  0.7909 -1.2285 -0.9997
  720TIP3    H223720   6.044   1.282   8.635 -0.2190  0.0978  1.0145
  721TIP3   OH223721   2.899   2.322   0.542  0.2002 -0.3691 -0.0431
  721TIP3    H123722   2.966   2.304   0.476 -1.3151  0.2502 -1.8177
  721TIP3    H223723   2.823   2.271   0.514  0.4062 -2.5998  2.9871
  722TIP3   OH223724   2.485   1.908   8.131 -0.1722 -0.6445  0.5779
  722TIP3    H123725   2.445   1.984   8.089  0.9341 -1.7420 -2.7540
  722TIP3    H223726   2.580   1.923   8.124  0.1327 -2.9895 -1.7423
  723TIP3   OH223727   0.626   6.022   7.500  0.0646 -0.0018  0.3121
  723TIP3    H123728   0.601   6.104   7.459  0.4339  0.0186  0.1190
  723TIP3    H223729   0.634   5.960   7.427 -0.4692 -0.2779  0.4806
  724TIP3   OH223730   1.955   3.523   1.962 -0.4627  0.2518 -0.9940
  724TIP3    H123731   1.960   3.428   1.974 -0.3421  0.2907 -0.7327
  724TIP3    H223732   1.917   3.555   2.043  0.3758  0.5194 -0.6959
  725TIP3   OH223733   0.329   3.324   0.075  0.0563  0.0742  0.2044
  725TIP3    H123734   0.300   3.377   0.149 -1.3492  1.0742 -1.0059
  725TIP3    H223735   0.422   3.307   0.092 -0.4494 -0.6186  2.6868
  726TIP3   OH223736   1.725   2.510   0.379  0.1369 -0.4186  0.2715
  726TIP3    H123737   1.794   2.573   0.401 -0.7159  0.7558 -0.3036
  726TIP3    H223738   1.650   2.537   0.433 -0.3475 -0.7236 -0.2411
  727TIP3   OH223739   5.936   1.217   8.204  0.5456  0.1855  0.1883
  727TIP3    H123740   5.843   1.237   8.215  0.7960  1.2054  0.6346
  727TIP3    H223741   5.940   1.123   8.189 -0.7980  0.4873 -2.6707
  728TIP3   OH223742   5.023   5.740   7.906  0.0374  0.2308 -0.7553
  728TIP3    H123743   5.018   5.830   7.939  0.0833  0.3580 -1.0856
  728TIP3    H223744   4.965   5.690   7.963  0.3761  0.3813 -0.2781
  729TIP3   OH223745   6.592   0.915   8.402  0.0858  0.1119  0.4081
  729TIP3    H123746   6.555   0.832   8.431  0.6776  0.0123  0.8920
  729TIP3    H223747   6.603   0.905   8.308 -0.9837  0.0959  0.2710
  730TIP3   OH223748   0.530   2.369   7.085 -0.5273 -0.0168 -0.3515
  730TIP3    H123749   0.558   2.365   7.177  0.4818  1.1508 -0.5766
  730TIP3    H223750   0.595   2.316   7.038  1.0106  2.0854 -0.7772
  731TIP3   OH223751   4.720   1.740   7.438 -0.1874  0.0339  0.2417
  731TIP3    H123752   4.778   1.816   7.440 -1.8904  1.4532 -1.4579
  731TIP3    H223753   4.768   1.674   7.387  1.4499 -0.2425  2.0331
  732TIP3   OH223754   2.073   1.172   0.857 -0.3067 -0.2458  0.2524
  732TIP3    H123755   2.022   1.133   0.786  1.2317  0.3220 -1.2346
  732TIP3    H223756   2.025   1.148   0.936 -4.3387  2.3741 -1.0894
  733TIP3   OH223757   4.178   3.519   8.372  0.1651  0.5108 -0.1338
  733TIP3    H123758   4.173   3.462   8.295 -0.7676  0.4841 -0.0745
  733TIP3    H223759   4.244   3.478   8.428 -1.4566 -1.3704  0.5512
  734TIP3   OH223760   5.481   0.675   2.126 -0.5775 -0.3381  0.0470
  734TIP3    H123761   5.400   0.722   2.110  0.1243  0.1886 -2.3121
  734TIP3    H223762   5.508   0.644   2.040 -0.1338 -3.6841  1.2457
  735TIP3   OH223763   3.382   4.354   7.671  0.2687  0.1952  0.0708
  735TIP3    H123764   3.356   4.384   7.584  0.5942  1.3103  0.3437
  735TIP3    H223765   3.400   4.434   7.720  0.3811 -0.4266  1.0805
  736TIP3   OH223766   4.153   3.096   3.057  0.1152  0.2988  0.2023
  736TIP3    H123767   4.095   3.047   3.116 -0.1798 -0.8402 -0.9841
  736TIP3    H223768   4.102   3.171   3.028 -0.6190 -0.4394 -0.4593
  737TIP3   OH223769   5.416   4.679   7.234  0.2722 -0.0770  0.0151
  737TIP3    H123770   5.472   4.676   7.157  0.6498  0.4352  0.2647
  737TIP3    H223771   5.331   4.647   7.203  0.5875 -0.4630 -0.4610
  738TIP3   OH223772   3.053   4.121   7.080 -0.3413 -0.3981 -0.0272
  738TIP3    H123773   3.057   4.179   7.004 -0.2682 -0.6603 -0.2273
  738TIP3    H223774   3.067   4.033   7.044 -1.1052 -0.6164  0.1830
  739TIP3   OH223775   2.659   6.387   8.228  0.8032  0.5821  0.1383
  739TIP3    H123776   2.744   6.426   8.249  0.1223  0.6820  3.0062
  739TIP3    H223777   2.633   6.342   8.307 -0.1939 -2.6517 -1.8389
  740TIP3   OH223778   1.670   5.355   8.165  0.4442 -0.0741 -0.9132
  740TIP3    H123779   1.602   5.422   8.161  0.6625  0.1302 -1.2237
  740TIP3    H223780   1.630   5.278   8.123 -0.6739 -0.9231  1.5379
  741TIP3   OH223781   5.891   0.192   0.034 -0.0720 -0.3034 -0.9095
  741TIP3    H123782   5.858   0.239  -0.043 -1.5767  2.3066  1.1394
  741TIP3    H223783   5.912   0.261   0.097  0.1988 -2.3202  1.3773
  742TIP3   OH223784   1.098   6.465   2.789 -0.4322 -0.5593  0.5377
  742TIP3    H123785   1.033   6.517   2.742 -0.2187 -0.3139  0.5087
  742TIP3    H223786   1.106   6.509   2.874  1.6232  1.0387 -0.3734
  743TIP3   OH223787   2.334   5.702   0.267  0.0316 -0.2770  0.0255
  743TIP3    H123788   2.311   5.777   0.212 -2.4187 -0.4941  0.6047
  743TIP3    H223789   2.310   5.626   0.214  0.1622 -0.5576  0.3651
  744TIP3   OH223790   5.878   6.548   1.592  0.3201  0.1034 -0.0049
  744TIP3    H123791   5.962   6.538   1.638 -0.2796  1.0068  1.3776
  744TIP3    H223792   5.814   6.506   1.649  0.0905 -3.1679 -2.3734
  745TIP3   OH223793   4.902   4.991   1.807  0.2687 -0.1044 -0.0107
  745TIP3    H123794   4.897   4.896   1.819  1.6174 -0.1545  0.4231
  745TIP3    H223795   4.994   5.007   1.785 -0.0017  1.0799 -0.3769
  746TIP3   OH223796   0.462   2.151   8.289  0.0086  0.3970 -0.3557
  746TIP3    H123797   0.544   2.199   8.282  0.8134 -0.8341  0.4148
  746TIP3    H223798   0.439   2.155   8.382 -1.5661  1.8876 -0.7315
  747TIP3   OH223799   3.259   5.917   1.102  0.5142 -0.4019  0.1343
  747TIP3    H123800   3.305   5.839   1.132 -1.2652 -0.9472  1.6150
  747TIP3    H223801   3.305   5.990   1.145  0.7941 -0.8195  0.5584
  748TIP3   OH223802   0.121   2.192   7.519 -0.7528  0.1759  1.0547
  748TIP3    H123803   0.129   2.222   7.609 -1.2474  1.1721  0.7824
  748TIP3    H223804   0.027   2.172   7.509 -0.6518 -0.2046  0.8424
  749TIP3   OH223805   2.648   4.816   8.356  0.1694 -0.1595 -0.2955
  749TIP3    H123806   2.727   4.801   8.408 -1.1085  0.1365  1.8594
  749TIP3    H223807   2.632   4.733   8.311 -0.5117 -1.6434  2.4868
  750TIP3   OH223808   2.082   3.263   1.624 -0.3399 -0.2153 -0.2070
  750TIP3    H123809   2.113   3.351   1.645  0.4291 -0.4486 -0.3359
  750TIP3    H223810   2.048   3.230   1.707  2.5367 -1.0770  0.7677
  751TIP3   OH223811   6.473   2.569   8.631  0.1759 -0.3240 -0.2206
  751TIP3    H123812   6.491   2.592   8.540 -2.9331 -1.7611 -1.3465
  751TIP3    H223813   6.555   2.585   8.677  1.7615  0.7855 -3.1860
  752TIP3   OH223814   5.420   3.694   0.260  0.3528  0.7173  0.6145
  752TIP3    H123815   5.436   3.600   0.263  0.1628  0.6371 -0.4776
  752TIP3    H223816   5.324   3.702   0.266  0.3243  0.7975  0.1185
  753TIP3   OH223817   4.204   6.659   1.329 -0.7335 -0.1752 -0.4354
  753TIP3    H123818   4.249   6.577   1.346  0.2933  0.3627 -0.4641
  753TIP3    H223819   4.245   6.694   1.250 -0.9244  0.5143 -0.2428
  754TIP3   OH223820   1.211   5.526   0.940  0.2794 -0.3155 -0.1478
  754TIP3    H123821   1.263   5.504   0.863  0.2323 -2.0946  0.2858
  754TIP3    H223822   1.216   5.448   0.996  0.8933  1.1382  1.9803
  755TIP3   OH223823   5.739   4.740   1.360 -0.0717 -0.1419  0.0574
  755TIP3    H123824   5.832   4.719   1.356 -0.0839 -0.1759 -0.0584
  755TIP3    H223825   5.721   4.785   1.277  0.2237  1.4328  0.8181
  756TIP3   OH223826   3.065   2.363   8.322 -0.5866  0.4183 -0.0715
  756TIP3    H123827   3.125   2.310   8.269 -0.3209  3.5908 -3.3398
  756TIP3    H223828   3.122   2.418   8.375 -0.6066  1.3245 -0.9487
  757TIP3   OH223829   4.848   6.150   8.116 -0.1154  0.1786  0.4354
  757TIP3    H123830   4.764   6.165   8.072  0.3639  0.2032 -0.5025
  757TIP3    H223831   4.859   6.226   8.173  1.1112  2.3241 -2.4066
  758TIP3   OH223832   1.045   2.769   7.103 -0.6765  0.0055  0.6423
  758TIP3    H123833   1.126   2.745   7.058 -0.3881  0.1971  1.0595
  758TIP3    H223834   0.976   2.731   7.049 -0.3081 -0.1962  0.3081
  759TIP3   OH223835   6.517   6.469   1.482  0.0166  0.2234  0.5508
  759TIP3    H123836   6.484   6.394   1.530  3.0917  0.4584  3.4201
  759TIP3    H223837   6.481   6.545   1.528 -0.6892  0.5260 -0.4682
  760TIP3   OH223838   2.878   4.860   8.533  0.0863  0.2720 -0.3525
  760TIP3    H123839   2.873   4.772   8.572 -0.5492 -0.2807 -1.5905
  760TIP3    H223840   2.949   4.854   8.469 -0.3271  0.4778 -0.8398
  761TIP3   OH223841   3.334   6.293   2.651  0.3427  0.4043  0.2443
  761TIP3    H123842   3.358   6.224   2.712 -1.1174 -1.4955 -1.1902
  761TIP3    H223843   3.291   6.360   2.704  0.8457 -0.2811  1.5363
  762TIP3   OH223844   1.448   1.508   0.958  0.4353 -0.0956 -0.5333
  762TIP3    H123845   1.477   1.548   0.876 -1.5999  1.7384 -0.4160
  762TIP3    H223846   1.382   1.567   0.993  0.2392 -1.5312  1.7683
  763TIP3   OH223847   4.657   2.058   0.951 -0.6008  0.6882 -0.0576
  763TIP3    H123848   4.739   2.075   0.904 -1.0670  0.4913 -0.9535
  763TIP3    H223849   4.682   2.061   1.044  1.1924 -2.9337 -0.2633
  764TIP3   OH223850   2.789   5.311   8.163  0.5599 -0.3106 -0.1714
  764TIP3    H123851   2.839   5.369   8.106  1.8783 -0.7726  0.4593
  764TIP3    H223852   2.717   5.280   8.109  2.1976 -1.3739 -1.8936
  765TIP3   OH223853   1.163   0.105   6.417 -0.3734  0.1797 -0.3436
  765TIP3    H123854   1.180   0.013   6.439  0.0163  0.1303 -0.8227
  765TIP3    H223855   1.175   0.152   6.499 -0.3395 -0.1669 -0.1466
  766TIP3   OH223856   6.739   0.499   1.044  0.4668  0.2901  0.0720
  766TIP3    H123857   6.672   0.455   1.097  1.3304 -0.3935  0.6212
  766TIP3    H223858   6.711   0.591   1.041 -0.2746  0.0903  0.6426
  767TIP3   OH223859   1.277   2.861   7.696  0.3313  0.4819  0.1630
  767TIP3    H123860   1.225   2.808   7.635 -0.3640  0.2429  0.9491
  767TIP3    H223861   1.358   2.878   7.649  0.7328 -1.5834 -0.0079
  768TIP3   OH223862   5.064   6.127   0.750 -0.3154 -0.9414  0.2001
  768TIP3    H123863   5.024   6.207   0.785  0.4982 -0.6179  0.3979
  768TIP3    H223864   5.041   6.127   0.657  1.1773  0.4547 -0.1957
  769TIP3   OH223865   0.096   3.812   7.233 -0.4416  0.0911 -0.9449
  769TIP3    H123866   0.038   3.742   7.263  0.4701 -0.6040 -0.7319
  769TIP3    H223867   0.157   3.768   7.173  1.4177  0.2433  0.7257
  770TIP3   OH223868   5.445   4.416   8.570  0.3899  0.3788  0.1053
  770TIP3    H123869   5.536   4.443   8.582  1.1340 -1.4918 -0.8914
  770TIP3    H223870   5.396   4.498   8.567  2.2616  1.5321 -1.0826
  771TIP3   OH223871   3.855   0.963   0.156  0.3287 -0.7355 -0.4569
  771TIP3    H123872   3.847   1.008   0.240  0.6302  2.7724 -2.1000
  771TIP3    H223873   3.773   0.915   0.146 -0.1027 -0.4551  1.3974
  772TIP3   OH223874   2.050   5.182   0.811  0.9678 -0.3666 -0.1370
  772TIP3    H123875   1.975   5.203   0.756  0.7115 -1.5354 -0.2543
  772TIP3    H223876   2.070   5.264   0.856  1.2522  0.6458 -2.0236
  773TIP3   OH223877   2.496   0.336   8.537 -0.4487  0.4888  0.1747
  773TIP3    H123878   2.481   0.267   8.602  1.8128 -0.2018  0.0556
  773TIP3    H223879   2.413   0.383   8.533 -2.3188 -2.5627 -0.1702
  774TIP3   OH223880   2.590   1.529   8.405  0.3188 -0.3633 -0.4729
  774TIP3    H123881   2.505   1.572   8.414  0.1197 -0.8512 -0.0022
  774TIP3    H223882   2.625   1.524   8.494  0.6267 -0.6004 -0.6046
  775TIP3   OH223883   5.482   1.117   8.220  0.2884  0.2630 -0.3599
  775TIP3    H123884   5.431   1.118   8.301  1.9614 -0.0866  0.7433
  775TIP3    H223885   5.469   1.028   8.185 -2.3277  1.0970 -1.8148
  776TIP3   OH223886   0.198   1.793   8.259  0.7064  0.2188  0.0401
  776TIP3    H123887   0.291   1.816   8.249  0.5839 -0.3296 -3.4665
  776TIP3    H223888   0.152   1.877   8.248  0.6866  0.3521  0.9723
  777TIP3   OH223889   0.935   0.798   6.391 -0.1371 -0.4497  0.0964
  777TIP3    H123890   0.935   0.849   6.472 -1.0113 -0.5781  0.1834
  777TIP3    H223891   1.020   0.754   6.390 -0.6283 -1.5058  1.6249
  778TIP3   OH223892   2.585   2.391   8.233  0.5755 -0.5609  0.1360
  778TIP3    H123893   2.676   2.417   8.221  0.5296 -0.3041  0.3287
  778TIP3    H223894   2.547   2.397   8.145  0.5971 -0.0919  0.1559
  779TIP3   OH223895   4.425   2.392   1.964  0.5815 -0.1703 -0.2825
  779TIP3    H123896   4.349   2.445   1.942 -0.3429 -0.8402  1.1121
  779TIP3    H223897   4.497   2.454   1.971 -0.2440  0.7660  0.2221
  780TIP3   OH223898   6.788   0.817   1.217  0.1522 -0.1311 -0.3300
  780TIP3    H123899   6.780   0.807   1.122  0.2333  0.2845 -0.3853
  780TIP3    H223900   6.872   0.862   1.229  0.8372 -1.4710  0.0305
  781TIP3   OH223901   4.541   5.202   0.226 -0.9834  0.4133  0.3444
  781TIP3    H123902   4.582   5.283   0.253  1.3439 -0.5428 -0.1019
  781TIP3    H223903   4.563   5.193   0.133  0.2307 -1.4495  0.7398
  782TIP3   OH223904   1.605   5.489   2.412  0.2723  0.0114 -0.0605
  782TIP3    H123905   1.525   5.529   2.444 -0.6469 -0.7068 -1.3882
  782TIP3    H223906   1.627   5.539   2.333  1.0628  0.1100  0.2108
  783TIP3   OH223907   1.790   0.418   0.881  0.1434  0.0263  0.3136
  783TIP3    H123908   1.831   0.434   0.966 -0.9201 -1.9331  1.2606
  783TIP3    H223909   1.857   0.374   0.830 -0.1457 -1.5299  1.2238
  784TIP3   OH223910   6.629   1.960   0.727 -0.0716  0.1428  0.1362
  784TIP3    H123911   6.681   2.039   0.712  0.7035 -0.3253  0.2822
  784TIP3    H223912   6.618   1.957   0.822  1.9320 -1.1394  0.4039
  785TIP3   OH223913   0.044   0.547   1.581 -0.3761 -0.5084 -0.6760
  785TIP3    H123914  -0.018   0.576   1.514 -1.1311 -0.8827 -0.1539
  785TIP3    H223915   0.120   0.604   1.570 -0.9360  0.1626 -1.1327
  786TIP3   OH223916   0.211   2.801   7.668 -0.3757 -0.2703  0.3785
  786TIP3    H123917   0.279   2.782   7.733 -0.7907 -3.3106  0.0961
  786TIP3    H223918   0.257   2.842   7.596  1.3478 -2.6141  0.0212
  787TIP3   OH223919   3.782   0.192   2.144  0.8099 -0.3847 -0.6227
  787TIP3    H123920   3.756   0.264   2.201  1.0418  0.3937 -1.4718
  787TIP3    H223921   3.833   0.134   2.200 -1.6341 -1.3237  0.7603
  788TIP3   OH223922   0.904   2.953   2.376  1.0255 -0.1413  0.0454
  788TIP3    H123923   0.996   2.977   2.391  0.8357 -0.4706  1.9380
  788TIP3    H223924   0.867   2.944   2.463 -0.8329 -0.0204 -0.6886
  789TIP3   OH223925   0.107   5.982   2.292  0.2274  0.1839  0.3177
  789TIP3    H123926   0.101   5.887   2.300  2.0010 -0.1314 -1.3971
  789TIP3    H223927   0.199   6.000   2.275 -0.2562  2.0930 -0.6431
  790TIP3   OH223928   6.887   2.907   0.287 -0.8476 -0.2027  0.1487
  790TIP3    H123929   6.814   2.858   0.324 -0.9195 -0.6467 -0.5693
  790TIP3    H223930   6.962   2.849   0.296 -1.2270 -1.1676 -2.1518
  791TIP3   OH223931   3.318   2.550   7.357 -0.2609  0.6537 -0.5246
  791TIP3    H123932   3.263   2.498   7.299  0.1500 -0.7643  0.3128
  791TIP3    H223933   3.268   2.556   7.439  1.2484 -1.7270  0.6898
  792TIP3   OH223934   4.568   4.967   7.109  0.8121  0.0794 -0.3338
  792TIP3    H123935   4.536   5.004   7.192  2.5183  0.2602  0.2927
  792TIP3    H223936   4.506   4.997   7.043  0.6962  1.8995  0.5475
  793TIP3   OH223937   4.572   2.344   0.948  0.2134 -0.2385  0.2879
  793TIP3    H123938   4.604   2.264   0.905  2.1786  1.0863 -0.8407
  793TIP3    H223939   4.598   2.334   1.039 -1.4750 -1.8006  0.6735
  794TIP3   OH223940   6.298   2.024   6.631 -0.3139 -0.6274  0.0084
  794TIP3    H123941   6.347   2.088   6.580  1.3641 -1.3056  0.6706
  794TIP3    H223942   6.230   1.992   6.572 -0.0762  0.4912 -0.8979
  795TIP3   OH223943   4.973   4.278   8.040  0.3838  0.4038  0.1953
  795TIP3    H123944   4.882   4.281   8.008  0.5370 -0.9170 -0.4481
  795TIP3    H223945   5.008   4.364   8.017 -0.7718  1.0369  0.6900
  796TIP3   OH223946   1.208   2.146   0.767  0.4706  0.2441  0.0299
  796TIP3    H123947   1.287   2.110   0.726  0.6678  1.1280 -0.3849
  796TIP3    H223948   1.201   2.235   0.732 -0.2304  0.4748  0.7319
  797TIP3   OH223949   0.573   5.608   7.104  0.2360  0.0107  0.4715
  797TIP3    H123950   0.511   5.550   7.149 -0.9518  0.9562  0.0944
  797TIP3    H223951   0.653   5.602   7.156 -1.1095  1.1611  2.8406
  798TIP3   OH223952   1.286   0.934   7.717 -0.4031  0.5631 -0.2674
  798TIP3    H123953   1.317   0.947   7.807 -0.9686  0.6816 -0.0872
  798TIP3    H223954   1.311   0.844   7.696  1.2802  1.0805 -0.6188
  799TIP3   OH223955   3.392   2.934   1.353 -0.2728 -0.6622  0.6732
  799TIP3    H123956   3.410   2.862   1.292  0.8772  0.0141  0.1926
  799TIP3    H223957   3.450   2.918   1.427  0.5919  0.2091  0.1979
  800TIP3   OH223958   2.888   2.012   0.104 -0.1674 -0.0868  0.2464
  800TIP3    H123959   2.910   1.955   0.177 -0.7207  0.5220  0.8974
  800TIP3    H223960   2.809   2.058   0.132 -0.3266  0.2284 -0.6922
  801TIP3   OH223961   4.654   6.094   8.487  0.0754 -0.1680 -0.3302
  801TIP3    H123962   4.646   6.071   8.580 -0.5171 -1.3222 -0.6530
  801TIP3    H223963   4.726   6.157   8.485  0.8767 -1.0096  0.7725
  802TIP3   OH223964   0.763   3.168   2.276 -0.4339  0.4011  0.2352
  802TIP3    H123965   0.684   3.144   2.228 -0.7056  1.8162 -0.0544
  802TIP3    H223966   0.805   3.084   2.296 -1.5246 -0.3206 -0.4130
  803TIP3   OH223967   2.839   4.416   0.215  0.1051 -0.4931 -0.6574
  803TIP3    H123968   2.832   4.421   0.310  1.0731 -2.1062 -0.4700
  803TIP3    H223969   2.914   4.358   0.199  0.1810  0.0244 -2.4080
  804TIP3   OH223970   6.372   1.203   2.302 -0.5400 -0.2106 -0.3892
  804TIP3    H123971   6.398   1.201   2.394  1.1103 -0.9446 -0.8473
  804TIP3    H223972   6.338   1.291   2.288 -2.1796 -0.5046  1.2501
  805TIP3   OH223973   0.581   3.079   1.060  0.3876  0.2251  1.0909
  805TIP3    H123974   0.634   3.037   0.993  3.3851  0.3852  3.1498
  805TIP3    H223975   0.534   3.149   1.014  0.4860 -1.1272 -1.1798
  806TIP3   OH223976   6.500   6.707   6.950 -0.2362 -0.2035 -0.3106
  806TIP3    H123977   6.472   6.763   7.022  0.2499 -0.9529  0.4824
  806TIP3    H223978   6.419   6.691   6.900 -0.6985 -0.1597  0.4076
  807TIP3   OH223979   5.063   4.530   2.196 -0.3397  0.2206  0.1448
  807TIP3    H123980   4.990   4.497   2.144  0.3287 -1.9925  0.5183
  807TIP3    H223981   5.096   4.453   2.242  2.1935  1.1777  0.0353
  808TIP3   OH223982   2.303   6.465   1.860 -0.3647 -0.4931 -0.8441
  808TIP3    H123983   2.276   6.556   1.846  1.6387  0.4321  0.8515
  808TIP3    H223984   2.384   6.457   1.810  1.0112 -0.4207  1.2830
  809TIP3   OH223985   2.534   5.768   6.955 -0.0687 -0.2061  0.1094
  809TIP3    H123986   2.623   5.735   6.950  0.0145 -0.5002  2.4040
  809TIP3    H223987   2.544   5.861   6.975 -0.3190  0.3346 -2.0437
  810TIP3   OH223988   3.684   0.871   0.967 -0.1193 -0.4838  0.1370
  810TIP3    H123989   3.719   0.938   1.025 -1.1051  1.3635 -1.2936
  810TIP3    H223990   3.761   0.836   0.922  0.3118  0.6675 -0.0621
  811TIP3   OH223991   6.849   6.733   7.770 -0.1901 -0.3011  0.0329
  811TIP3    H123992   6.782   6.801   7.778  0.1758  0.2435 -1.3022
  811TIP3    H223993   6.888   6.747   7.684  0.7348 -1.4481  0.2341
  812TIP3   OH223994   6.096   0.269   1.559 -0.0918  0.2346  0.0771
  812TIP3    H123995   6.189   0.288   1.567 -0.4252  1.3027  2.0842
  812TIP3    H223996   6.055   0.355   1.549 -0.9571 -0.0872  0.7015
  813TIP3   OH223997   0.889   5.371   8.649  0.3310 -0.0828  0.0445
  813TIP3    H123998   0.902   5.419   8.567 -0.4186  1.0190  0.5565
  813TIP3    H223999   0.839   5.430   8.704 -1.5493 -1.8229  0.3290
  814TIP3   OH224000   3.396   4.059   2.811  0.1161 -0.2900  0.3527
  814TIP3    H124001   3.435   4.012   2.885  0.2461  0.4635  0.7737
  814TIP3    H224002   3.412   4.003   2.736  0.8026 -0.6441  0.7481
  815TIP3   OH224003   3.382   4.361   8.012  0.5382  0.1295  0.6026
  815TIP3    H124004   3.381   4.451   7.980 -0.7887  0.5432  1.6701
  815TIP3    H224005   3.474   4.338   8.018  0.8771  0.8034 -1.2844
  816TIP3   OH224006   3.831   0.762   1.520 -0.2949 -0.4316  0.0455
  816TIP3    H124007   3.771   0.725   1.456 -0.3910  2.2650 -1.5660
  816TIP3    H224008   3.918   0.741   1.486 -0.3402 -0.2800 -0.1642
  817TIP3   OH224009   0.949   2.305   1.404 -0.3594  0.6430  0.2069
  817TIP3    H124010   0.879   2.349   1.453  1.3880  0.4683  3.1306
  817TIP3    H224011   0.924   2.212   1.406 -1.0599  0.7975 -0.6628
  818TIP3   OH224012   2.119   2.968   8.144  0.2073 -0.0801 -0.6576
  818TIP3    H124013   2.055   2.898   8.134 -0.5713  0.6680 -1.0674
  818TIP3    H224014   2.201   2.931   8.110  0.8719 -2.1849  2.7882
  819TIP3   OH224015   5.929   6.897   7.677  0.2026 -0.1080  0.0655
  819TIP3    H124016   5.912   6.954   7.602 -0.7387  0.0364  0.3747
  819TIP3    H224017   5.923   6.955   7.753 -0.5936 -0.5742  0.3693
  820TIP3   OH224018   1.830   3.806   0.020 -0.4576  0.3320  0.2861
  820TIP3    H124019   1.835   3.714  -0.005 -0.9250  0.3429  0.1444
  820TIP3    H224020   1.907   3.846  -0.020 -0.1155 -0.0458  0.5650
  821TIP3   OH224021   5.946   4.824   8.429 -0.0796 -0.2439  0.4938
  821TIP3    H124022   5.903   4.774   8.360 -0.3053 -0.8054  1.0328
  821TIP3    H224023   5.896   4.805   8.508 -1.8191  2.8837  0.2873
  822TIP3   OH224024   0.835   0.192   0.858  0.0722  0.1575 -0.0704
  822TIP3    H124025   0.927   0.193   0.884  0.1716 -0.7977 -0.3531
  822TIP3    H224026   0.790   0.241   0.927  0.4951 -1.2478  1.2528
  823TIP3   OH224027   2.272   1.051   1.211  0.1204 -0.1049  0.3785
  823TIP3    H124028   2.272   0.956   1.225  0.6838  0.0648  1.7520
  823TIP3    H224029   2.222   1.085   1.286  0.8672  0.7442  0.4973
  824TIP3   OH224030   3.647   4.531   8.207  0.4480  0.2775 -0.0166
  824TIP3    H124031   3.730   4.560   8.168  0.4700 -1.7626 -1.6765
  824TIP3    H224032   3.584   4.599   8.181  1.5226  1.7912  1.1674
  825TIP3   OH224033   2.420   6.213   8.366  0.1585 -0.2656  0.0665
  825TIP3    H124034   2.380   6.266   8.297  1.0820  1.7815  0.9908
  825TIP3    H224035   2.422   6.272   8.442  1.9683 -1.3787  0.9397
  826TIP3   OH224036   0.291   6.693   0.897  0.4259 -0.0156 -0.2422
  826TIP3    H124037   0.273   6.612   0.945 -1.9369  0.5474 -0.0561
  826TIP3    H224038   0.327   6.752   0.963  1.2331 -0.5856 -0.1597
  827TIP3   OH224039   4.233   3.457   1.388  0.2021 -0.1351  0.0083
  827TIP3    H124040   4.307   3.495   1.436  0.7460 -1.2287  0.0768
  827TIP3    H224041   4.241   3.492   1.300 -0.2539  1.1510  0.4568
  828TIP3   OH224042   4.791   1.238   2.971 -0.2429 -0.1009 -0.3288
  828TIP3    H124043   4.766   1.147   2.989 -1.2703  0.4108  0.9771
  828TIP3    H224044   4.886   1.238   2.976 -0.1366 -1.3574 -1.6681
  829TIP3   OH224045   1.665   5.156   2.437 -0.0282  0.7012  0.3304
  829TIP3    H124046   1.756   5.152   2.408  0.0887  0.4949  0.7234
  829TIP3    H224047   1.627   5.228   2.387  0.1412  0.2763 -0.4187
  830TIP3   OH224048   6.070   6.372   1.766  0.6775 -0.1282  0.5377
  830TIP3    H124049   6.134   6.388   1.697  0.6279  0.0084  0.5228
  830TIP3    H224050   6.075   6.278   1.783 -1.8850 -0.8773 -2.1954
  831TIP3   OH224051   0.395   4.316   6.849  0.7515 -0.4241 -0.1126
  831TIP3    H124052   0.316   4.328   6.900  1.2620  1.1408  0.3717
  831TIP3    H224053   0.418   4.224   6.860 -0.8721 -0.8502 -0.1065
  832TIP3   OH224054   0.904   1.693   8.223 -0.5397 -0.0593  0.1870
  832TIP3    H124055   0.885   1.766   8.163  1.6283  0.5891  0.1956
  832TIP3    H224056   0.954   1.631   8.170  0.8639  0.2319  1.1168
  833TIP3   OH224057   1.563   0.274   7.815  0.5136 -0.1682  0.0819
  833TIP3    H124058   1.498   0.203   7.810  0.8083 -0.5758  1.5715
  833TIP3    H224059   1.529   0.333   7.882  0.3729  1.0267 -1.0035
  834TIP3   OH224060   1.525   1.880   2.298 -0.1115  0.1564  0.1240
  834TIP3    H124061   1.564   1.831   2.225 -1.5916 -0.6728 -0.1554
  834TIP3    H224062   1.572   1.850   2.375  0.1580 -0.4314 -0.2613
  835TIP3   OH224063   6.250   6.204   0.458 -0.0079  0.0249 -0.1367
  835TIP3    H124064   6.200   6.265   0.513 -1.3637 -1.2737  0.1451
  835TIP3    H224065   6.198   6.124   0.459  1.3428 -0.8974 -1.1170
  836TIP3   OH224066   0.842   3.673   8.479  0.3501  0.0447  0.1720
  836TIP3    H124067   0.916   3.727   8.450  1.8055 -1.5109  0.8005
  836TIP3    H224068   0.883   3.600   8.525 -1.5428 -1.5123 -0.4916
  837TIP3   OH224069   4.304   1.973   8.008  0.5930 -0.1869 -0.0238
  837TIP3    H124070   4.352   1.978   7.926 -1.0332 -0.2971 -1.0313
  837TIP3    H224071   4.333   2.050   8.058 -0.1722  1.2808 -1.7243
  838TIP3   OH224072   4.465   1.688   7.566  1.0570  0.1520  0.3665
  838TIP3    H124073   4.413   1.697   7.486 -0.2660 -1.7631  0.9650
  838TIP3    H224074   4.556   1.683   7.534  0.5324 -0.9093 -1.0619
  839TIP3   OH224075   1.369   0.372   0.220 -0.5957  0.2717 -0.3971
  839TIP3    H124076   1.310   0.335   0.286 -1.1744  0.9560 -0.5223
  839TIP3    H224077   1.327   0.353   0.137 -1.9127  2.8212 -0.4123
  840TIP3   OH224078   2.799   2.299   7.442  0.0464 -0.1562 -0.6013
  840TIP3    H124079   2.740   2.253   7.501 -0.0232  0.3138 -0.2998
  840TIP3    H224080   2.886   2.263   7.462  0.0435  0.1068 -0.1059
  841TIP3   OH224081   0.943   1.064   1.894  0.1287 -0.6794  0.0273
  841TIP3    H124082   0.881   1.070   1.967  0.4119 -0.9386  0.2942
  841TIP3    H224083   0.925   1.140   1.840  0.0097 -0.4117  0.4429
  842TIP3   OH224084   5.801   4.226   8.447 -0.2084 -0.0693  0.5001
  842TIP3    H124085   5.860   4.246   8.374  0.5580  0.7622  1.3100
  842TIP3    H224086   5.713   4.240   8.412  0.1647  0.8119 -0.1316
  843TIP3   OH224087   4.444   2.123   1.327 -0.6661  0.4354  0.6112
  843TIP3    H124088   4.375   2.057   1.330  0.1847 -0.4689  0.9670
  843TIP3    H224089   4.414   2.192   1.387 -1.1293 -0.0727  0.9700
  844TIP3   OH224090   3.331   5.123   0.943 -0.3633  0.5170  0.1401
  844TIP3    H124091   3.354   5.031   0.955 -1.4101  0.3452  1.0338
  844TIP3    H224092   3.347   5.163   1.029 -1.4943  0.7959  0.2320
  845TIP3   OH224093   0.575   2.732   1.234  0.4938  0.2442 -0.4741
  845TIP3    H124094   0.555   2.663   1.298 -0.4199 -0.3781 -1.4003
  845TIP3    H224095   0.582   2.686   1.151  2.1075  0.9887 -0.7808
  846TIP3   OH224096   1.316   2.672   2.604  0.0691 -0.1241 -0.1666
  846TIP3    H124097   1.341   2.676   2.512 -1.8884  0.9447 -0.6863
  846TIP3    H224098   1.383   2.724   2.649  0.7838 -0.2860 -1.0198
  847TIP3   OH224099   4.755   0.781   1.167  0.7833 -0.1399 -0.4772
  847TIP3    H124100   4.805   0.863   1.165  1.8098 -0.7575 -0.3370
  847TIP3    H224101   4.783   0.734   1.089  0.3086 -0.4348 -0.4709
  848TIP3   OH224102   2.526   3.985   0.159  0.0893 -0.3387 -0.3484
  848TIP3    H124103   2.496   4.076   0.149 -0.2511 -0.1401  1.9999
  848TIP3    H224104   2.569   3.965   0.076  1.0094  2.2846 -0.5932
  849TIP3   OH224105   1.843   6.123   1.969  0.3894  0.0724  0.0973
  849TIP3    H124106   1.775   6.056   1.976 -0.3137  0.6472 -0.9968
  849TIP3    H224107   1.797   6.206   1.980  0.4906  0.5946 -2.6204
  850TIP3   OH224108   2.495   6.640   8.527 -0.2685 -0.6735 -0.8229
  850TIP3    H124109   2.510   6.725   8.485  1.2855 -1.5211 -2.1008
  850TIP3    H224110   2.583   6.603   8.538 -0.8934 -1.9763  0.0485
  851TIP3   OH224111   0.198   0.294   7.168  0.1621 -0.5914 -0.7006
  851TIP3    H124112   0.133   0.247   7.116 -1.9346 -0.5535  1.6734
  851TIP3    H224113   0.207   0.241   7.247  1.6915  0.3599 -0.2055
  852TIP3   OH224114   4.314   2.390   0.835 -0.1247 -0.2098  0.2466
  852TIP3    H124115   4.281   2.468   0.879 -0.1229  1.5810 -2.6746
  852TIP3    H224116   4.407   2.386   0.860 -0.2767  0.3124  0.9462
  853TIP3   OH224117   3.558   0.999   3.165 -0.1504  0.0792 -0.2854
  853TIP3    H124118   3.514   0.919   3.195  0.8649 -0.5022 -0.3242
  853TIP3    H224119   3.649   0.989   3.193  0.7734 -0.2909 -3.1778
  854TIP3   OH224120   1.918   6.382   3.027  0.1495  0.2956  0.0974
  854TIP3    H124121   1.835   6.429   3.017 -0.4080 -0.3741  1.2951
  854TIP3    H224122   1.920   6.358   3.120  1.0076 -0.9304 -0.2204
  855TIP3   OH224123   4.470   4.921   0.096 -0.3009 -0.0271 -0.0923
  855TIP3    H124124   4.471   4.996   0.036  0.5537 -0.0220 -0.0772
  855TIP3    H224125   4.529   4.857   0.057  0.5070  0.0922  0.8874
  856TIP3   OH224126   4.632   2.858   7.416 -0.0761  0.2073  0.2403
  856TIP3    H124127   4.538   2.868   7.397 -0.4732 -3.2748 -0.4002
  856TIP3    H224128   4.676   2.892   7.338 -1.0794 -1.4891 -1.1628
  857TIP3   OH224129   2.634   6.261   7.368  0.1011  0.2065  1.1514
  857TIP3    H124130   2.656   6.353   7.383  0.3678  0.5059 -0.7811
  857TIP3    H224131   2.718   6.219   7.349 -0.1896 -0.0963  0.5118
  858TIP3   OH224132   2.182   4.478   7.795 -0.6022  0.1863 -0.1450
  858TIP3    H124133   2.123   4.442   7.861 -1.6539 -1.3721 -1.8906
  858TIP3    H224134   2.127   4.534   7.741 -0.5446 -1.3041 -1.8084
  859TIP3   OH224135   1.921   5.956   0.233  0.0185 -0.3628 -0.1232
  859TIP3    H124136   1.964   5.899   0.297  1.3876  0.8178  0.0573
  859TIP3    H224137   1.933   6.044   0.268 -0.5978  0.1875 -1.2408
  860TIP3   OH224138   6.879   6.246   7.568  0.0818  0.2585 -0.0505
  860TIP3    H124139   6.916   6.245   7.480 -0.1239 -1.7417 -0.1485
  860TIP3    H224140   6.784   6.241   7.554  0.1097 -1.6571  0.2710
  861TIP3   OH224141   5.605   0.178   0.979 -0.5165  0.2965  0.3580
  861TIP3    H124142   5.521   0.221   0.965 -1.2991 -1.0445  0.7531
  861TIP3    H224143   5.611   0.112   0.909 -1.1345 -1.5259  1.9378
  862TIP3   OH224144   5.312   0.668   0.438  0.3339 -0.2807 -0.6011
  862TIP3    H124145   5.291   0.761   0.429  0.0113 -0.2843  0.0592
  862TIP3    H224146   5.274   0.627   0.360  1.3154  0.2713 -1.3807
  863TIP3   OH224147   5.321   3.372   7.633  0.3852  0.5356  0.0142
  863TIP3    H124148   5.239   3.412   7.665 -0.1556  0.6525 -1.4667
  863TIP3    H224149   5.390   3.424   7.675 -0.3032  1.2870  0.2580
  864TIP3   OH224150   4.320   5.945   2.404 -0.2678 -0.1387  0.0099
  864TIP3    H124151   4.279   5.990   2.330 -1.4613 -1.7544 -0.3536
  864TIP3    H224152   4.385   5.887   2.364  0.0845  0.0144  0.3532
  865TIP3   OH224153   6.482   6.360   0.080 -0.1328  0.1602  0.0386
  865TIP3    H124154   6.508   6.269   0.099  1.3130  0.6064  0.2748
  865TIP3    H224155   6.389   6.353   0.059  0.5104 -1.7751 -2.7014
  866TIP3   OH224156   4.384   5.951   2.668  0.1850  0.0855 -0.4526
  866TIP3    H124157   4.352   5.954   2.577  0.9009  0.0490 -0.7113
  866TIP3    H224158   4.457   6.014   2.669  1.2183 -1.0848 -0.3161
  867TIP3   OH224159   6.883   6.750   1.151 -0.0073  0.5522 -0.2353
  867TIP3    H124160   6.962   6.801   1.134  0.1075  1.0998  1.7310
  867TIP3    H224161   6.884   6.735   1.245 -1.4054 -0.8583 -0.4101
  868TIP3   OH224162   2.600   1.444   1.264 -0.3213 -0.2069 -0.5517
  868TIP3    H124163   2.608   1.429   1.170  1.8468 -1.3679 -0.2564
  868TIP3    H224164   2.604   1.539   1.274 -2.3103  0.0462 -1.7098
  869TIP3   OH224165   5.768   0.835   1.701 -0.0652  0.1620 -0.8533
  869TIP3    H124166   5.788   0.911   1.756  3.0136 -0.4081 -1.0447
  869TIP3    H224167   5.722   0.775   1.760  3.0536 -0.3967  1.2588
  870TIP3   OH224168   3.681   0.615   7.267 -0.1661  0.0296 -0.2983
  870TIP3    H124169   3.600   0.602   7.317  0.1314 -1.5695 -0.1857
  870TIP3    H224170   3.703   0.528   7.234  1.4148  0.4706 -0.4727
  871TIP3   OH224171   6.176   4.930   8.299 -1.0535  0.3045 -0.1620
  871TIP3    H124172   6.153   4.914   8.207 -2.7601  0.6319  0.1752
  871TIP3    H224173   6.093   4.923   8.346 -0.1778 -0.0622  1.3992
  872TIP3   OH224174   6.556   6.122   6.605  0.0429 -0.0151  0.3234
  872TIP3    H124175   6.471   6.077   6.605 -1.1262  2.0371 -0.7378
  872TIP3    H224176   6.611   6.069   6.547 -0.7550 -0.9326  0.3669
  873TIP3   OH224177   1.472   0.981   6.931 -0.2943 -0.3565 -0.2978
  873TIP3    H124178   1.499   1.065   6.894  0.0634 -0.6077 -0.6178
  873TIP3    H224179   1.380   0.992   6.952 -0.3979 -0.0767 -0.8920
  874TIP3   OH224180   4.858   0.397   8.650  0.2670  0.1559  0.2286
  874TIP3    H124181   4.874   0.467   8.713  0.8724 -0.4137  0.7185
  874TIP3    H224182   4.856   0.441   8.565  0.5467  0.7761  0.5380
  875TIP3   OH224183   3.740   3.897   0.915  0.0369 -0.8381 -0.2070
  875TIP3    H124184   3.765   3.982   0.952  0.8394 -1.4155  0.6352
  875TIP3    H224185   3.645   3.901   0.905 -0.0316 -0.1599  0.6621
  876TIP3   OH224186   3.683   5.728   1.396 -0.2150  0.3975  0.0053
  876TIP3    H124187   3.723   5.647   1.365  0.0586 -0.2938  2.0123
  876TIP3    H224188   3.618   5.750   1.329 -0.1549 -1.3670 -0.6739
  877TIP3   OH224189   5.719   4.663   1.014 -0.1306  0.1613 -0.4357
  877TIP3    H124190   5.630   4.664   0.979  0.4003  0.6155 -1.8399
  877TIP3    H224191   5.773   4.698   0.944  0.9686  1.3579  0.9456
  878TIP3   OH224192   4.606   3.428   1.431  0.4653  0.1220  0.4078
  878TIP3    H124193   4.551   3.362   1.474 -0.6265  0.7747  0.0570
  878TIP3    H224194   4.695   3.395   1.441  0.0818 -0.6253  1.6053
  879TIP3   OH224195   1.043   3.254   7.746 -0.2805 -0.7457  0.2131
  879TIP3    H124196   1.053   3.344   7.713  0.8320 -1.1825 -0.7207
  879TIP3    H224197   1.078   3.259   7.836  0.0127 -0.3023  0.0818
  880TIP3   OH224198   5.091   4.435   7.194  0.0376 -0.2031  0.5823
  880TIP3    H124199   5.092   4.526   7.166  1.4279 -0.0036  1.2132
  880TIP3    H224200   5.154   4.392   7.136  1.3105 -0.2217  1.9271
  881TIP3   OH224201   2.232   3.875   7.142  0.3783  0.0473  0.2341
  881TIP3    H124202   2.298   3.942   7.123 -0.8685  0.9793 -1.0259
  881TIP3    H224203   2.151   3.925   7.157 -0.3980 -1.1269  0.0714
  882TIP3   OH224204   3.482   1.239   1.167  0.5423 -0.0545 -0.0816
  882TIP3    H124205   3.436   1.212   1.087 -0.0021  0.6952 -0.0381
  882TIP3    H224206   3.422   1.302   1.208 -0.2411 -2.0631  2.0848
  883TIP3   OH224207   5.878   3.392   7.512 -0.1664  0.3244 -0.3052
  883TIP3    H124208   5.932   3.382   7.434 -0.2724 -0.2759 -0.3042
  883TIP3    H224209   5.791   3.363   7.485  0.0199 -0.8555  0.3004
  884TIP3   OH224210   2.829   3.027   1.317  0.0104  0.2850 -0.3281
  884TIP3    H124211   2.844   2.978   1.398  0.0136  0.1720 -0.3971
  884TIP3    H224212   2.741   3.001   1.289 -0.1522  0.6279 -0.1473
  885TIP3   OH224213   4.053   2.040   0.695  0.3989 -0.4184 -0.2155
  885TIP3    H124214   4.099   2.066   0.776 -1.6641 -0.0891  0.9239
  885TIP3    H224215   3.984   1.981   0.725 -1.1500  0.6237 -1.5696
  886TIP3   OH224216   6.664   5.747   6.617  0.6887 -0.4128 -0.3009
  886TIP3    H124217   6.609   5.735   6.539  0.6244 -0.8298 -0.1973
  886TIP3    H224218   6.710   5.829   6.602  0.3408 -0.2652 -0.5762
  887TIP3   OH224219   4.999   0.126   8.230 -0.1858 -0.3706 -0.5049
  887TIP3    H124220   4.957   0.145   8.314  2.6784  0.4648  0.8533
  887TIP3    H224221   4.927   0.128   8.166 -2.1560  1.0727  1.6037
  888TIP3   OH224222   6.233   5.158   1.127 -0.3695 -0.7496 -0.0063
  888TIP3    H124223   6.292   5.219   1.172  0.5516 -1.4089 -0.2854
  888TIP3    H224224   6.255   5.169   1.034 -0.9287 -0.7676 -0.1465
  889TIP3   OH224225   0.434   2.316   6.550 -0.1240 -0.2021  0.2034
  889TIP3    H124226   0.403   2.242   6.497 -1.4606  1.6991 -1.8598
  889TIP3    H224227   0.389   2.392   6.513  2.3708  1.8930  1.1770
  890TIP3   OH224228   2.827   1.709   0.585  0.4631  0.1136  0.0476
  890TIP3    H124229   2.776   1.631   0.562  0.6588  0.0693 -0.2353
  890TIP3    H224230   2.911   1.675   0.614  0.7763  0.2422 -0.6754
  891TIP3   OH224231   0.664   6.828   0.931  0.0438  0.0751  0.0868
  891TIP3    H124232   0.712   6.762   0.880  0.9673  0.3967  0.5364
  891TIP3    H224233   0.692   6.912   0.895 -1.1138  0.2462 -0.4655
  892TIP3   OH224234   5.514   2.637   0.278  0.4083 -0.2425  0.0236
  892TIP3    H124235   5.601   2.598   0.272  0.2570 -0.6075  0.2009
  892TIP3    H224236   5.497   2.671   0.190  1.2883  1.0485  0.3188
  893TIP3   OH224237   1.206   1.796   1.842 -0.1252 -0.0851 -0.7570
  893TIP3    H124238   1.286   1.745   1.847 -1.5629 -2.5545 -0.9923
  893TIP3    H224239   1.157   1.774   1.921 -1.7753 -0.9540 -1.9355
  894TIP3   OH224240   1.402   3.797   8.064  0.3219 -0.1245  0.5019
  894TIP3    H124241   1.452   3.864   8.111  0.5859 -1.5173  2.3058
  894TIP3    H224242   1.398   3.723   8.124 -1.3474 -1.1678 -0.7972
  895TIP3   OH224243   0.830   5.835   7.772 -0.2723 -0.6876  0.1223
  895TIP3    H124244   0.832   5.739   7.771 -2.5331 -0.8463  1.9058
  895TIP3    H224245   0.847   5.858   7.864 -0.7153  0.5456 -0.0794
  896TIP3   OH224246   6.378   5.786   7.152 -0.1454 -0.3060 -0.2518
  896TIP3    H124247   6.415   5.841   7.221  0.5056  0.5166 -1.2248
  896TIP3    H224248   6.366   5.845   7.078 -1.6985 -0.9753 -0.5689
  897TIP3   OH224249   5.924   5.111   0.549 -0.5187 -0.1245 -0.0422
  897TIP3    H124250   5.954   5.176   0.612 -1.6788  0.7601 -0.3673
  897TIP3    H224251   6.001   5.094   0.494  0.1070  0.1276  0.7332
  898TIP3   OH224252   1.597   4.774   0.535 -0.6249 -0.3293 -0.4525
  898TIP3    H124253   1.593   4.848   0.597  1.6362  1.0804 -1.8237
  898TIP3    H224254   1.542   4.801   0.462  0.8791  0.5028 -1.3439
  899TIP3   OH224255   5.356   3.774   2.435 -0.8023 -0.0042  0.2157
  899TIP3    H124256   5.296   3.837   2.475 -2.9684 -2.0696  0.4435
  899TIP3    H224257   5.320   3.757   2.348 -0.3603 -1.0320  0.2154
  900TIP3   OH224258   0.814   6.014   0.264 -0.5652  0.1483 -1.1721
  900TIP3    H124259   0.725   5.990   0.289  0.2783 -1.1971  0.6842
  900TIP3    H224260   0.840   5.948   0.200  0.4314 -1.9102  1.2033
  901TIP3   OH224261   4.897   5.353   1.316  0.3916  0.1732  0.2231
  901TIP3    H124262   4.921   5.323   1.403 -2.4862 -0.9628  0.7482
  901TIP3    H224263   4.892   5.273   1.264  0.3923  0.6539 -0.5298
  902TIP3   OH224264   3.090   2.860   1.355  0.5192 -0.2034 -0.1652
  902TIP3    H124265   3.039   2.880   1.277  2.2737 -1.8942 -1.8502
  902TIP3    H224266   3.144   2.938   1.368  1.5867 -0.6006 -1.8604
  903TIP3   OH224267   4.917   1.591   1.115 -0.2372 -0.1342  0.1772
  903TIP3    H124268   4.946   1.648   1.186  0.5914  0.1776 -0.3866
  903TIP3    H224269   4.859   1.647   1.062  1.2459  0.5076 -0.8528
  904TIP3   OH224270   1.235   4.105   2.788 -0.3263 -0.0620 -0.3089
  904TIP3    H124271   1.282   4.085   2.868 -0.2495 -2.1194 -0.8058
  904TIP3    H224272   1.156   4.050   2.792 -0.9253  0.6996 -1.0986
  905TIP3   OH224273   3.317   1.311   7.734  0.3282  0.1464  0.1862
  905TIP3    H124274   3.329   1.281   7.824  0.2356  0.6442  0.3676
  905TIP3    H224275   3.372   1.388   7.727  3.6753 -2.1354 -1.4297
  906TIP3   OH224276   6.541   6.209   0.421 -0.3264  0.0290  0.3819
  906TIP3    H124277   6.457   6.179   0.388 -0.1911  0.4005 -0.3120
  906TIP3    H224278   6.604   6.143   0.393 -0.1650  0.4972 -0.3850
  907TIP3   OH224279   6.871   0.947   2.378  0.1363 -0.1510  0.1631
  907TIP3    H124280   6.843   0.976   2.465 -0.2188  0.4236 -0.1342
  907TIP3    H224281   6.947   1.001   2.358  0.2540 -0.3243  0.1425
  908TIP3   OH224282   0.655   6.195   7.714 -0.5230 -0.3248 -0.2335
  908TIP3    H124283   0.651   6.178   7.808 -1.0280 -0.7515 -0.3301
  908TIP3    H224284   0.627   6.112   7.673 -1.7101  0.3026 -0.7368
  909TIP3   OH224285   6.700   4.717   2.396 -0.2569 -0.0826  0.0387
  909TIP3    H124286   6.687   4.624   2.412 -0.0895 -0.1945 -0.4454
  909TIP3    H224287   6.613   4.756   2.407  0.0115  0.0072  2.1127
  910TIP3   OH224288   1.662   4.521   8.169 -0.4775 -0.4480 -0.3576
  910TIP3    H124289   1.660   4.511   8.074 -0.9485  0.5850 -0.4651
  910TIP3    H224290   1.749   4.555   8.188 -0.8645  0.6785 -0.5667
  911TIP3   OH224291   5.329   3.800   6.844 -0.3755  0.3204 -0.1010
  911TIP3    H124292   5.408   3.749   6.831 -1.0695 -0.7392 -0.2803
  911TIP3    H224293   5.312   3.794   6.938 -0.5502  0.0647 -0.1468
  912TIP3   OH224294   3.893   4.838   2.108  0.4393 -0.3884  0.1523
  912TIP3    H124295   3.867   4.808   2.195 -0.2574  1.4514  0.6376
  912TIP3    H224296   3.811   4.856   2.063  0.7878  1.0529  0.0306
  913TIP3   OH224297   3.479   0.756   8.243  0.5206  0.4772 -0.3856
  913TIP3    H124298   3.550   0.770   8.180 -0.6278  0.4341 -1.7300
  913TIP3    H224299   3.483   0.832   8.301  2.1029  0.1167  0.0250
  914TIP3   OH224300   2.724   6.801   0.732 -0.4067  0.3526 -0.0144
  914TIP3    H124301   2.690   6.768   0.816 -0.5467  1.8505  0.5461
  914TIP3    H224302   2.650   6.793   0.672 -1.5189  2.5815  0.9308
  915TIP3   OH224303   5.691   4.594   7.357 -0.4978  0.0247  0.1358
  915TIP3    H124304   5.671   4.525   7.294 -0.1901 -0.0015  0.0688
  915TIP3    H224305   5.728   4.665   7.304  1.2519 -0.5967  0.4774
  916TIP3   OH224306   1.275   5.426   0.270  0.3993 -0.1288 -0.0717
  916TIP3    H124307   1.204   5.491   0.272  0.3156 -0.2288  1.4149
  916TIP3    H224308   1.248   5.364   0.203 -0.6578  0.1522  0.0657
  917TIP3   OH224309   4.857   0.612   0.156  0.4326 -0.5606  0.4204
  917TIP3    H124310   4.769   0.638   0.183  0.4983 -0.9167  0.9895
  917TIP3    H224311   4.880   0.674   0.087 -0.6831 -1.1494 -0.4947
  918TIP3   OH224312   1.385   1.285   0.790 -0.5997 -0.1098 -0.0136
  918TIP3    H124313   1.458   1.342   0.813 -1.4035  1.2518 -0.7096
  918TIP3    H224314   1.413   1.241   0.709 -0.4003  0.1156 -0.0671
  919TIP3   OH224315   2.313   2.322   6.900 -0.0896  0.0206  0.0401
  919TIP3    H124316   2.227   2.283   6.881 -0.1072 -0.2265  0.6233
  919TIP3    H224317   2.366   2.250   6.932  1.1089 -0.3766 -2.5641
  920TIP3   OH224318   0.772   5.209   2.196  0.3577 -0.3010 -0.4736
  920TIP3    H124319   0.842   5.266   2.230  0.9911 -1.6673  0.5870
  920TIP3    H224320   0.696   5.267   2.189  1.1780  0.8564 -0.1760
  921TIP3   OH224321   1.535   0.002   7.329  0.0243  0.0348  0.1485
  921TIP3    H124322   1.588  -0.007   7.250  1.9202  1.0319  1.2102
  921TIP3    H224323   1.450  -0.033   7.306  0.3270  0.8738 -2.5169
  922TIP3   OH224324   6.452   0.589   7.054 -0.3604  0.6044  0.7929
  922TIP3    H124325   6.367   0.609   7.013 -0.3273  0.4063  0.6266
  922TIP3    H224326   6.516   0.627   6.994 -0.3886  2.7626  2.0438
  923TIP3   OH224327   0.535   6.430   1.476 -0.7058  0.4350  0.1795
  923TIP3    H124328   0.619   6.393   1.501 -1.2917 -0.6632  0.5693
  923TIP3    H224329   0.536   6.519   1.511 -0.0379  0.1476  0.9043
  924TIP3   OH224330   1.982   0.604   7.906 -0.0248 -0.8757 -0.9250
  924TIP3    H124331   1.986   0.619   7.812  0.8653 -0.3504 -0.8155
  924TIP3    H224332   1.924   0.528   7.916  0.2167 -1.2065 -1.9181
  925TIP3   OH224333   2.478   1.743   0.680  0.3335 -0.0266  0.3164
  925TIP3    H124334   2.483   1.787   0.765 -1.7086  1.0354 -0.0449
  925TIP3    H224335   2.466   1.651   0.701 -1.3462  0.3649  1.2567
  926TIP3   OH224336   5.373   6.810   7.629 -0.0472  0.2629 -0.4067
  926TIP3    H124337   5.349   6.747   7.562  1.1334  0.2939 -0.8689
  926TIP3    H224338   5.311   6.793   7.700 -0.5033 -0.6111 -0.9928
  927TIP3   OH224339   6.312   3.987   2.398  0.5337 -0.0214 -0.2424
  927TIP3    H124340   6.251   3.919   2.428 -1.0310  2.1612  1.9609
  927TIP3    H224341   6.284   4.008   2.309 -0.3704 -0.7458 -0.1397
  928TIP3   OH224342   0.952   4.635   0.056  0.7494  0.0621 -0.4564
  928TIP3    H124343   0.918   4.691  -0.015  1.9973 -0.5121 -1.5476
  928TIP3    H224344   1.015   4.690   0.102  1.1246 -0.0596 -0.8136
  929TIP3   OH224345   3.106   3.251   8.233 -0.2361  0.4713  0.6859
  929TIP3    H124346   3.067   3.195   8.300 -0.4464  1.6790  1.6125
  929TIP3    H224347   3.199   3.232   8.237 -0.4041 -0.5193  0.2895
  930TIP3   OH224348   3.878   2.018   7.688  0.6696 -0.4079  0.8353
  930TIP3    H124349   3.973   2.013   7.693  0.6618 -0.1386  1.3122
  930TIP3    H224350   3.852   2.062   7.769  0.3035  1.8041 -0.3988
  931TIP3   OH224351   1.840   5.679   1.518 -0.3528 -0.4353 -0.6676
  931TIP3    H124352   1.877   5.724   1.594  1.1813  2.3078 -2.8393
  931TIP3    H224353   1.884   5.594   1.517 -2.1501 -1.5763  2.7072
  932TIP3   OH224354   0.732   4.112   1.843  0.0049 -0.7067 -0.3005
  932TIP3    H124355   0.663   4.080   1.786  0.1109 -1.1036 -0.2035
  932TIP3    H224356   0.777   4.179   1.791 -0.4975 -0.3930 -0.3345
  933TIP3   OH224357   5.803   0.375   7.711  0.4423 -0.5190  0.1662
  933TIP3    H124358   5.713   0.346   7.722  0.4213 -0.3188  0.5206
  933TIP3    H224359   5.852   0.330   7.779  0.2071  1.1814  1.5333
  934TIP3   OH224360   5.282   6.556   7.814  0.1279 -0.2968  0.0087
  934TIP3    H124361   5.317   6.524   7.731 -1.0710  1.8506 -1.4240
  934TIP3    H224362   5.197   6.593   7.792  0.2134  1.3169  1.9756
  935TIP3   OH224363   4.514   1.102   7.760  0.1458  0.0880 -0.6987
  935TIP3    H124364   4.477   1.029   7.710  1.0434 -0.7804 -0.1297
  935TIP3    H224365   4.527   1.171   7.696 -2.4476  0.4644 -0.9414
  936TIP3   OH224366   1.664   2.525   1.997  0.1798 -0.4138  0.0879
  936TIP3    H124367   1.696   2.435   1.990  0.8831 -0.1229 -0.6566
  936TIP3    H224368   1.681   2.563   1.911 -0.7219  0.2391  0.1920
  937TIP3   OH224369   4.931   3.922   1.415 -0.4026 -0.2182  0.0010
  937TIP3    H124370   4.928   3.855   1.483  0.7477 -1.1224 -0.8024
  937TIP3    H224371   4.849   3.971   1.426 -1.0877 -1.4982  0.8615
  938TIP3   OH224372   6.263   4.874   1.103  0.2568  0.0339 -0.3338
  938TIP3    H124373   6.237   4.959   1.138  1.9795  0.6988 -0.5842
  938TIP3    H224374   6.189   4.847   1.048 -0.1789  1.5020 -0.5088
  939TIP3   OH224375   4.763   0.279   0.530 -0.1335  0.1115 -0.4555
  939TIP3    H124376   4.674   0.312   0.520  0.0470  0.4866 -0.8672
  939TIP3    H224377   4.795   0.268   0.441 -0.0501 -0.8137 -0.3183
  940TIP3   OH224378   4.089   0.565   2.147 -0.3718  0.3306  0.0426
  940TIP3    H124379   4.132   0.503   2.089 -0.8488  0.2900 -0.2707
  940TIP3    H224380   3.997   0.564   2.120 -0.2652  1.7274 -0.4695
  941TIP3   OH224381   1.935   4.384   7.905  0.3723  0.2537  0.4078
  941TIP3    H124382   1.904   4.309   7.955  0.3686  0.2390  0.3833
  941TIP3    H224383   1.934   4.354   7.814 -0.0429  0.4249  0.3527
  942TIP3   OH224384   2.321   3.814   7.476  0.4008  0.3654  0.1188
  942TIP3    H124385   2.399   3.802   7.421 -0.0158  0.1394 -0.4327
  942TIP3    H224386   2.263   3.742   7.451  0.3592  0.0214  1.1445
  943TIP3   OH224387   0.338   2.439   0.646  0.7294  0.5055  0.0040
  943TIP3    H124388   0.265   2.386   0.677  0.6528  0.8558  0.4352
  943TIP3    H224389   0.348   2.415   0.553 -0.4715  1.0627 -0.2857
  944TIP3   OH224390   4.394   2.747   8.524 -0.1495 -0.5811 -0.1032
  944TIP3    H124391   4.485   2.778   8.524 -0.1672 -0.5056 -1.2644
  944TIP3    H224392   4.401   2.652   8.519 -0.1220 -0.7528  2.0939
  945TIP3   OH224393   4.393   3.645   7.667  0.1566 -0.2716 -0.1615
  945TIP3    H124394   4.435   3.608   7.590  0.3395  2.1708 -1.3394
  945TIP3    H224395   4.332   3.578   7.697 -0.3019 -1.1045 -2.7483
  946TIP3   OH224396   5.644   5.068   0.664  0.8236  0.0699 -0.1071
  946TIP3    H124397   5.740   5.070   0.659  0.7756  0.2950 -1.3429
  946TIP3    H224398   5.616   5.126   0.593 -0.2305  0.0430  0.2791
  947TIP3   OH224399   2.775   5.438   1.775 -0.5941  0.4153 -0.2896
  947TIP3    H124400   2.709   5.445   1.844 -0.4406  1.5541 -0.2518
  947TIP3    H224401   2.858   5.449   1.820 -0.3680 -0.7876 -0.3747
  948TIP3   OH224402   0.263   6.661   8.274 -0.1686  0.0293 -0.0944
  948TIP3    H124403   0.190   6.723   8.276 -0.7449 -0.6455  0.2007
  948TIP3    H224404   0.231   6.584   8.321 -0.0022 -1.0764 -1.6748
  949TIP3   OH224405   5.365   3.186   1.968  0.4050 -0.3283 -0.1613
  949TIP3    H124406   5.366   3.201   2.063 -1.1753 -3.2068  0.4347
  949TIP3    H224407   5.457   3.183   1.943  0.8596 -0.1722  1.4076
  950TIP3   OH224408   2.134   3.604   7.479 -0.5243  0.0665 -0.4195
  950TIP3    H124409   2.141   3.586   7.386 -0.3541 -2.7203  0.0391
  950TIP3    H224410   2.085   3.529   7.514  0.1775  0.5864  1.8412
  951TIP3   OH224411   4.455   3.998   1.618  0.4516  0.3718  0.7803
  951TIP3    H124412   4.381   4.006   1.558  0.2618 -3.0277  0.3763
  951TIP3    H224413   4.531   4.016   1.563  0.1204 -0.0128  0.1777
  952TIP3   OH224414   6.887   4.213   0.712  0.1121  0.0259  0.6512
  952TIP3    H124415   6.847   4.295   0.741 -1.9826 -0.9233  0.6231
  952TIP3    H224416   6.823   4.176   0.651  1.9185 -0.6911 -0.9163
  953TIP3   OH224417   1.262   1.665   8.360 -0.1603  0.4741  0.0281
  953TIP3    H124418   1.290   1.651   8.450 -0.7523  1.7907  0.4540
  953TIP3    H224419   1.171   1.635   8.358 -0.3164  0.9370  0.0229
  954TIP3   OH224420   6.704   5.372   1.558 -0.4033 -0.1507  0.5112
  954TIP3    H124421   6.748   5.384   1.474 -2.5961 -2.5244 -1.1256
  954TIP3    H224422   6.715   5.456   1.603  1.6404  0.8919 -1.7332
  955TIP3   OH224423   0.225   6.097   8.159  0.2482  0.6184  0.1615
  955TIP3    H124424   0.285   6.157   8.115  0.4318  0.9815  0.8798
  955TIP3    H224425   0.177   6.053   8.088  1.0244  0.6698 -0.4024
  956TIP3   OH224426   6.835   6.694   7.326  1.0070 -0.2901  0.5377
  956TIP3    H124427   6.911   6.676   7.382  1.4627 -1.7105 -0.4710
  956TIP3    H224428   6.761   6.662   7.377  1.2375 -0.1734  0.9548
  957TIP3   OH224429   3.969   2.990   8.575 -0.1068 -0.4426  0.5472
  957TIP3    H124430   3.881   3.024   8.555  0.4356 -0.0757 -1.4060
  957TIP3    H224431   4.023   3.020   8.502  1.2372 -2.2817  0.7242
  958TIP3   OH224432   0.615   3.754   1.847  0.2407  0.1016 -0.2481
  958TIP3    H124433   0.616   3.671   1.895 -1.8118  1.9453  3.3991
  958TIP3    H224434   0.706   3.783   1.848  0.5141 -0.6904  1.3011
  959TIP3   OH224435   6.348   6.049   0.196  0.1314  0.1984  0.8451
  959TIP3    H124436   6.443   6.061   0.199  0.0541  0.6466  1.9368
  959TIP3    H224437   6.328   5.998   0.274 -0.3155 -1.6729 -0.4142
  960TIP3   OH224438   4.957   6.687   8.045 -0.2074  0.2611 -0.5685
  960TIP3    H124439   4.938   6.625   8.116  3.5201  0.0405  0.4521
  960TIP3    H224440   4.967   6.632   7.967  0.5434 -0.1308 -0.2048
  961TIP3   OH224441   6.065   4.505   0.414  0.0702  0.2082 -0.1103
  961TIP3    H124442   6.126   4.482   0.344  0.6672  0.5832  0.2747
  961TIP3    H224443   6.047   4.422   0.458  0.2232  0.0775 -0.2919
  962TIP3   OH224444   5.607   0.598   6.792 -0.1805 -0.1181  0.2018
  962TIP3    H124445   5.560   0.562   6.716 -0.2824 -3.2516  1.5797
  962TIP3    H224446   5.577   0.545   6.866  0.7891  2.0386  2.2783
  963TIP3   OH224447   5.178   4.911   7.484 -0.1965 -0.1031 -0.1630
  963TIP3    H124448   5.108   4.863   7.440  0.1619 -0.0225 -0.8216
  963TIP3    H224449   5.183   4.995   7.438  0.6498 -0.2906 -0.4234
  964TIP3   OH224450   3.192   6.847   0.946 -0.2838 -0.1127 -0.0472
  964TIP3    H124451   3.132   6.900   0.895  0.6193 -1.1199 -2.2714
  964TIP3    H224452   3.279   6.874   0.917  0.2132 -3.0305 -1.6609
  965TIP3   OH224453   1.200   5.443   1.355  0.6576 -0.0236 -0.1185
  965TIP3    H124454   1.253   5.423   1.432  1.4560  0.5953 -0.4951
  965TIP3    H224455   1.152   5.362   1.338 -1.3000  0.5015  2.3695
  966TIP3   OH224456   1.782   6.449   2.333  0.0623  0.7001  0.4662
  966TIP3    H124457   1.718   6.452   2.262  0.2245 -0.2640  0.2697
  966TIP3    H224458   1.731   6.455   2.413 -0.1604  1.2746  0.2905
  967TIP3   OH224459   0.672   2.571   8.489 -0.1561 -0.6410 -0.1581
  967TIP3    H124460   0.683   2.598   8.398  0.6218 -1.2638 -0.2643
  967TIP3    H224461   0.703   2.645   8.540 -2.6804  0.6425 -0.3116
  968TIP3   OH224462   1.308   2.568   8.555 -0.1856 -0.0999 -0.1124
  968TIP3    H124463   1.298   2.479   8.522 -1.9052  0.1028 -0.2472
  968TIP3    H224464   1.300   2.559   8.650  0.4912 -0.1850 -0.0624
  969TIP3   OH224465   1.975   0.700   2.960  0.5003  0.1663 -0.2482
  969TIP3    H124466   2.021   0.771   3.006  0.3324  0.5682 -0.6860
  969TIP3    H224467   1.959   0.634   3.027  0.9141  0.4198  0.1050
  970TIP3   OH224468   4.695   1.726   2.178 -0.5252 -0.3771 -0.8148
  970TIP3    H124469   4.738   1.655   2.225  0.0347 -0.9594 -2.1853
  970TIP3    H224470   4.678   1.691   2.091 -0.3345  1.1285 -1.4871
  971TIP3   OH224471   6.495   2.410   1.776  0.9616 -0.2268 -0.1478
  971TIP3    H124472   6.497   2.424   1.871  0.3614  1.7957 -0.3765
  971TIP3    H224473   6.544   2.484   1.740 -2.1071  1.3540 -1.5190
  972TIP3   OH224474   3.268   4.397   6.997  0.1113 -0.0793 -0.5801
  972TIP3    H124475   3.219   4.342   6.937  0.4765 -2.1696  0.9122
  972TIP3    H224476   3.323   4.336   7.046  1.4423  1.7658  0.3579
  973TIP3   OH224477   0.118   3.832   2.349  0.4412  0.3581  0.6325
  973TIP3    H124478   0.115   3.743   2.384  1.6611  0.1749  0.3347
  973TIP3    H224479   0.082   3.824   2.260  1.8787 -0.1495  0.0633
  974TIP3   OH224480   6.485   4.811   6.644 -0.4670  0.3933 -0.7547
  974TIP3    H124481   6.509   4.882   6.704 -1.0011  0.5682 -0.7366
  974TIP3    H224482   6.474   4.735   6.700  1.1589  0.0142 -0.8981
  975TIP3   OH224483   4.587   5.481   1.788  0.0400  0.6078  0.6777
  975TIP3    H124484   4.677   5.483   1.821  0.0493 -0.4480  0.7197
  975TIP3    H224485   4.596   5.478   1.693  0.0545  0.0616  0.6962
  976TIP3   OH224486   4.873   3.762   7.999 -0.6509 -0.0293  0.1593
  976TIP3    H124487   4.923   3.782   8.078 -1.6785  0.6478  0.6573
  976TIP3    H224488   4.916   3.813   7.930 -0.4088  0.2297  0.4991
  977TIP3   OH224489   1.454   6.858   0.638  0.3039 -0.5215  0.1668
  977TIP3    H124490   1.466   6.930   0.576 -0.0154 -2.4498 -2.3055
  977TIP3    H224491   1.361   6.860   0.660 -0.2208 -1.4436 -1.7089
  978TIP3   OH224492   3.378   1.453   7.094  0.4235  0.3426  0.0720
  978TIP3    H124493   3.289   1.435   7.126  1.3546 -1.9068  1.6010
  978TIP3    H224494   3.419   1.500   7.166  1.3096 -1.1829  0.6042
  979TIP3   OH224495   1.984   0.298   3.042 -0.6659  0.3982  0.2611
  979TIP3    H124496   2.008   0.286   2.950  0.7994 -0.5403  0.7211
  979TIP3    H224497   2.037   0.372   3.071  0.1009 -0.3165  0.7363
  980TIP3   OH224498   0.508   5.979   6.788 -0.5062  0.7089 -0.6751
  980TIP3    H124499   0.549   6.025   6.714  1.0170 -2.1718 -1.8204
  980TIP3    H224500   0.435   5.932   6.748 -0.5109  0.2037 -0.0737
  981TIP3   OH224501   1.899   5.132   2.299  0.1050 -0.1863 -0.6029
  981TIP3    H124502   1.985   5.171   2.282  0.0616 -0.1891 -0.8323
  981TIP3    H224503   1.899   5.051   2.247  1.1884 -1.8548  1.7937
  982TIP3   OH224504   1.106   1.511   1.510 -0.1778 -0.0333  0.6594
  982TIP3    H124505   1.101   1.484   1.418  1.0039 -2.0295  1.1244
  982TIP3    H224506   1.040   1.458   1.554  1.1070 -1.1065  1.3579
  983TIP3   OH224507   6.024   6.750   0.800 -0.0809  0.3147  0.0527
  983TIP3    H124508   6.082   6.674   0.795 -1.2122 -0.5088 -1.3071
  983TIP3    H224509   5.938   6.716   0.775 -1.1778  1.5086  1.9749
  984TIP3   OH224510   0.506   2.918   8.617 -0.0608 -0.1907  0.2016
  984TIP3    H124511   0.587   2.868   8.615  0.1944 -0.0129  2.6234
  984TIP3    H224512   0.527   3.001   8.574  0.3502 -1.0067 -1.2181
  985TIP3   OH224513   3.313   4.472   1.961  0.2930 -0.0562  0.6571
  985TIP3    H124514   3.238   4.529   1.976  0.9197  1.0193 -0.1233
  985TIP3    H224515   3.289   4.421   1.883  0.7435  1.0109 -0.2093
  986TIP3   OH224516   2.809   6.153   0.186 -0.0212 -0.5219  0.1259
  986TIP3    H124517   2.879   6.106   0.141  0.0898  0.0808 -0.3359
  986TIP3    H224518   2.854   6.223   0.233 -0.4926  1.5781 -2.3087
  987TIP3   OH224519   3.896   6.029   7.068 -0.3518 -0.1935  0.0150
  987TIP3    H124520   3.852   5.961   7.118 -0.3578 -0.7031 -0.6733
  987TIP3    H224521   3.988   6.021   7.094 -0.2660 -0.8222 -0.4527
  988TIP3   OH224522   5.386   2.773   2.481 -0.8545  0.5047 -0.4910
  988TIP3    H124523   5.377   2.868   2.482 -1.0877  0.5050  1.4596
  988TIP3    H224524   5.299   2.740   2.506 -0.5090 -0.1833 -0.1681
  989TIP3   OH224525   3.910   1.530   1.277 -0.0540 -0.3862 -0.6282
  989TIP3    H124526   3.928   1.603   1.218  1.9282 -0.7797 -0.5914
  989TIP3    H224527   3.929   1.563   1.364 -1.3008 -0.3173 -0.3663
  990TIP3   OH224528   4.154   1.765   1.529 -0.1487 -0.1530 -0.0838
  990TIP3    H124529   4.203   1.748   1.449 -0.1035  1.6534 -0.4973
  990TIP3    H224530   4.070   1.722   1.516  0.1250 -0.4764 -0.7897
  991TIP3   OH224531   2.392   4.808   1.050 -0.2144  0.0228  0.0701
  991TIP3    H124532   2.447   4.734   1.076 -1.9869 -2.3563 -2.4651
  991TIP3    H224533   2.303   4.776   1.061 -1.1064  2.4818  0.5793
  992TIP3   OH224534   0.329   2.774   8.173  0.2292 -0.0852  0.1139
  992TIP3    H124535   0.369   2.844   8.122  0.3579 -1.3943 -1.6939
  992TIP3    H224536   0.237   2.799   8.181  0.2345  0.2015 -0.6841
  993TIP3   OH224537   0.105   2.036   1.883 -0.2066  0.1045 -0.0592
  993TIP3    H124538   0.195   2.050   1.855  0.3669 -1.1675  1.0363
  993TIP3    H224539   0.076   1.959   1.833  0.0239 -0.7245  1.0547
  994TIP3   OH224540   4.832   1.763   1.823 -0.8960  0.4298  0.2416
  994TIP3    H124541   4.744   1.726   1.836 -0.8179 -0.9505 -2.4809
  994TIP3    H224542   4.887   1.687   1.804 -0.0222  1.5599 -2.2043
  995TIP3   OH224543   0.727   5.931   2.496 -0.1486 -0.4999  0.0480
  995TIP3    H124544   0.674   5.906   2.420 -3.9531 -0.5150  2.4495
  995TIP3    H224545   0.735   5.850   2.547  1.7644 -0.3393  0.0887
  996TIP3   OH224546   2.026   0.471   8.594 -0.1656 -0.0594 -0.9646
  996TIP3    H124547   1.970   0.406   8.552  0.3026 -0.6391 -0.7130
  996TIP3    H224548   1.966   0.539   8.625 -0.8945 -1.2703  0.4130
  997TIP3   OH224549   2.831   3.500   0.139  0.2664  0.0874  0.3278
  997TIP3    H124550   2.898   3.440   0.173 -0.6680  0.1992  2.5708
  997TIP3    H224551   2.865   3.587   0.158 -0.3898  0.1481  1.3149
  998TIP3   OH224552   1.857   4.599   7.431  0.0531 -0.0817 -0.1524
  998TIP3    H124553   1.767   4.582   7.456 -0.2065  0.6760 -0.5431
  998TIP3    H224554   1.863   4.572   7.339 -0.6256  2.6134 -1.0993
  999TIP3   OH224555   4.712   1.679   2.993  0.0182 -0.0921  0.2546
  999TIP3    H124556   4.755   1.635   2.919  0.3125  0.9455 -0.2084
  999TIP3    H224557   4.646   1.617   3.022 -0.3407 -0.3905 -1.1024
 1000TIP3   OH224558   4.018   6.895   1.266 -0.1357 -0.1570  0.4848
 1000TIP3    H124559   4.077   6.969   1.251 -0.5486 -0.2217 -1.7616
 1000TIP3    H224560   4.076   6.818   1.269 -0.0185 -0.1523 -1.0980
 1001TIP3   OH224561   1.058   2.852   7.974  0.8100 -0.3162 -0.6654
 1001TIP3    H124562   1.031   2.760   7.980  1.8728 -0.5665  0.8822
 1001TIP3    H224563   1.117   2.864   8.049 -1.7917  2.4765  1.1884
 1002TIP3   OH224564   4.920   6.473   8.212 -0.3634  0.4565 -0.1597
 1002TIP3    H124565   4.852   6.415   8.248  0.0306 -0.2647 -0.5506
 1002TIP3    H224566   4.981   6.414   8.168 -0.2130  1.2105 -1.0060
 1003TIP3   OH224567   4.332   4.932   0.336  0.3831  0.0531  0.0941
 1003TIP3    H124568   4.380   4.910   0.256  0.3033 -1.9045  0.5242
 1003TIP3    H224569   4.396   4.919   0.406 -0.4441 -1.6130  0.5904
 1004TIP3   OH224570   2.146   3.303   0.096 -0.1589 -0.1300 -0.0750
 1004TIP3    H124571   2.074   3.313   0.158 -0.6655  0.7897 -0.7663
 1004TIP3    H224572   2.220   3.348   0.137  0.2768 -1.7384  0.9798
 1005TIP3   OH224573   5.995   5.404   1.844 -0.1985 -0.1348  0.0479
 1005TIP3    H124574   6.082   5.432   1.873  0.3212 -2.2620  0.6787
 1005TIP3    H224575   5.945   5.392   1.925 -0.5675 -0.5026 -0.2295
 1006TIP3   OH224576   4.185   4.980   1.028  0.2310  0.0076  0.0029
 1006TIP3    H124577   4.125   5.022   1.089  0.5742 -0.0454  0.3861
 1006TIP3    H224578   4.138   4.903   0.995 -1.3226  1.8874 -2.4817
 1007TIP3   OH224579   1.960   5.448   8.586 -0.2016 -0.5275 -0.1346
 1007TIP3    H124580   1.879   5.485   8.550 -0.6758 -0.1104  1.2975
 1007TIP3    H224581   1.941   5.436   8.679  1.2839 -0.7408  0.1594
 1008TIP3   OH224582   5.593   4.226   0.383  0.7195  0.0856  0.3924
 1008TIP3    H124583   5.506   4.260   0.404  1.3592  1.3661  1.0781
 1008TIP3    H224584   5.613   4.263   0.297  1.3184  1.3406  1.0370
 1009TIP3   OH224585   2.265   3.192   1.032 -0.5514  0.3696 -0.2851
 1009TIP3    H124586   2.202   3.133   0.991 -1.3626  1.3845 -0.5396
 1009TIP3    H224587   2.252   3.180   1.126  1.2323 -1.8805 -0.2309
 1010TIP3   OH224588   0.226   3.617   1.767  0.1953  0.4736 -0.8179
 1010TIP3    H124589   0.153   3.612   1.706 -1.5471  1.8222  1.0218
 1010TIP3    H224590   0.280   3.689   1.735 -0.4751  0.8935 -1.0165
 1011TIP3   OH224591   6.641   1.209   2.219 -0.1273  0.7348  0.0549
 1011TIP3    H124592   6.658   1.283   2.277 -0.6243  0.5032  0.5031
 1011TIP3    H224593   6.545   1.201   2.217 -0.1519  1.0118 -1.1433
 1012TIP3   OH224594   4.568   0.360   2.249  0.5509 -0.4530  0.3085
 1012TIP3    H124595   4.634   0.378   2.316 -1.9412  3.5039  2.0427
 1012TIP3    H224596   4.501   0.309   2.294 -0.8123  1.6396  0.7644
 1013TIP3   OH224597   2.597   3.424   8.295 -0.2103 -0.7088 -0.0934
 1013TIP3    H124598   2.558   3.420   8.207 -2.1102  2.0083  0.5020
 1013TIP3    H224599   2.672   3.483   8.285 -1.2133  0.6847  0.2902
 1014TIP3   OH224600   2.819   0.024   0.018 -0.0149 -0.4388 -0.3154
 1014TIP3    H124601   2.903   0.024  -0.028  0.1392 -0.1200 -0.0345
 1014TIP3    H224602   2.770   0.097  -0.021 -0.4183 -1.0367 -0.9422
 1015TIP3   OH224603   5.054   1.662   0.576  0.3708 -0.2134 -0.2642
 1015TIP3    H124604   5.149   1.668   0.588  0.3513  1.1130 -0.5752
 1015TIP3    H224605   5.043   1.638   0.484  0.4058 -1.5289  0.0609
 1016TIP3   OH224606   2.857   2.463   8.139 -0.0867 -0.8496 -0.0585
 1016TIP3    H124607   2.885   2.550   8.111 -0.3977 -1.1030 -1.2062
 1016TIP3    H224608   2.929   2.432   8.194  0.3859 -0.1785 -0.2806
 1017TIP3   OH224609   4.632   4.595   1.292 -0.2428 -0.0040  0.3367
 1017TIP3    H124610   4.655   4.636   1.209 -1.0467  0.4921  0.3487
 1017TIP3    H224611   4.647   4.502   1.278 -0.5154  0.0616 -0.4155
 1018TIP3   OH224612   0.734   1.724   7.481  0.0967  0.7094 -0.1807
 1018TIP3    H124613   0.727   1.630   7.465 -0.8178  0.7884 -0.3238
 1018TIP3    H224614   0.669   1.763   7.423 -3.2145  1.0294  3.3086
 1019TIP3   OH224615   3.218   5.470   2.246 -0.0861  0.0686 -0.1398
 1019TIP3    H124616   3.232   5.376   2.259  0.6538 -0.3325 -3.1155
 1019TIP3    H224617   3.176   5.477   2.160 -0.6591  2.4651  0.2395
 1020TIP3   OH224618   2.681   4.067   6.585 -0.1539  0.9069  0.3029
 1020TIP3    H124619   2.654   4.157   6.569 -1.9325  0.8999  2.7087
 1020TIP3    H224620   2.599   4.019   6.597  0.7334 -1.2106 -1.5435
 1021TIP3   OH224621   6.564   2.373   0.178 -0.1057 -0.2133  0.4439
 1021TIP3    H124622   6.521   2.381   0.093 -1.0043  1.0074  0.9791
 1021TIP3    H224623   6.533   2.290   0.214 -1.0639  0.0677  0.2848
 1022TIP3   OH224624   2.505   4.322   7.862  0.2017 -0.2731  0.3555
 1022TIP3    H124625   2.426   4.331   7.916  0.6933  1.6892  0.7995
 1022TIP3    H224626   2.567   4.384   7.900  1.1851 -0.1568 -1.3846
 1023TIP3   OH224627   1.482   4.224   0.038  0.1634  0.2122  0.2835
 1023TIP3    H124628   1.551   4.184  -0.015 -1.1229 -0.7614 -0.7549
 1023TIP3    H224629   1.526   4.255   0.117  2.0674  1.2165 -1.1031
 1024TIP3   OH224630   0.730   0.321   8.374  0.6400 -0.0823  0.1177
 1024TIP3    H124631   0.746   0.233   8.340  0.4039 -1.8722  4.1052
 1024TIP3    H224632   0.639   0.340   8.351 -0.3433 -2.3363  1.8542
 1025TIP3   OH224633   0.840   6.309   0.238  0.3030  0.4737 -0.3945
 1025TIP3    H124634   0.930   6.293   0.265  0.2351  0.2512 -0.2903
 1025TIP3    H224635   0.801   6.221   0.233  0.7494  0.3482 -2.7842
 1026TIP3   OH224636   1.585   4.458   1.217 -0.8214  0.5722 -0.4723
 1026TIP3    H124637   1.674   4.427   1.196 -1.5143 -2.0471  0.1324
 1026TIP3    H224638   1.574   4.535   1.162  1.5782  0.5905 -1.0770
 1027TIP3   OH224639   3.821   2.522   1.878  0.5112  0.6566  0.7368
 1027TIP3    H124640   3.769   2.493   1.952 -0.1734 -0.5444 -0.1670
 1027TIP3    H224641   3.776   2.486   1.801  0.9431  2.2199 -0.3004
 1028TIP3   OH224642   4.071   1.682   7.698 -0.3583  0.8820  0.2455
 1028TIP3    H124643   4.015   1.626   7.752  0.4356 -2.5100 -2.1210
 1028TIP3    H224644   4.021   1.694   7.616  1.4284 -0.5812 -1.1489
 1029TIP3   OH224645   0.840   5.854   8.057  0.1091 -0.3394  0.6790
 1029TIP3    H124646   0.751   5.878   8.082 -0.8190  0.3349 -2.8434
 1029TIP3    H224647   0.891   5.934   8.071 -0.8310  0.6876 -1.4154
 1030TIP3   OH224648   1.810   1.247   7.656 -0.5722  0.0288  0.2360
 1030TIP3    H124649   1.900   1.230   7.684 -0.3950  2.5579  1.4411
 1030TIP3    H224650   1.771   1.160   7.649  1.1140 -1.0516  2.6446
 1031TIP3   OH224651   4.650   2.121   8.269  0.0812  0.5800 -0.1158
 1031TIP3    H124652   4.671   2.028   8.265 -1.1119  0.3278 -0.9315
 1031TIP3    H224653   4.728   2.162   8.306  1.3599 -0.5025 -1.4982
 1032TIP3   OH224654   6.063   1.356   7.637 -0.0196  0.6552  0.1255
 1032TIP3    H124655   6.091   1.321   7.722  1.9587  0.8019 -0.4207
 1032TIP3    H224656   6.111   1.304   7.572 -0.5857  1.3380 -0.8625
 1033TIP3   OH224657   2.510   6.199   7.105 -0.5432 -0.3718 -0.3257
 1033TIP3    H124658   2.555   6.201   7.189 -0.6340 -1.0611 -0.2539
 1033TIP3    H224659   2.482   6.289   7.090  2.2577  0.4738 -1.1237
 1034TIP3   OH224660   2.410   0.415   1.365 -0.4645  0.4349  0.3116
 1034TIP3    H124661   2.377   0.375   1.285  0.5015 -0.4934  0.3462
 1034TIP3    H224662   2.483   0.359   1.391 -0.3227  1.1198  1.4625
 1035TIP3   OH224663   4.105   1.934   0.042  0.3530 -0.7813  0.1826
 1035TIP3    H124664   4.101   1.849   0.085  0.2932 -0.3455  1.0527
 1035TIP3    H224665   4.189   1.971   0.068  0.5359 -0.7167 -0.4766
 1036TIP3   OH224666   5.785   1.497   8.101  0.0432  0.0419 -0.4817
 1036TIP3    H124667   5.862   1.552   8.116  0.4060 -0.8716  1.1812
 1036TIP3    H224668   5.773   1.499   8.006  1.5441  0.9502 -0.6897
 1037TIP3   OH224669   2.413   0.904   0.997 -0.2719  0.0513 -0.1297
 1037TIP3    H124670   2.329   0.923   1.039 -0.9084 -1.2720 -0.7432
 1037TIP3    H224671   2.454   0.840   1.054  0.0245  0.1972 -0.1781
 1038TIP3   OH224672   5.464   2.005   0.148 -0.1036  0.5346 -0.3647
 1038TIP3    H124673   5.548   2.050   0.147 -0.1163  0.5608 -0.2697
 1038TIP3    H224674   5.410   2.052   0.084 -0.1733  0.7638 -0.1395
 1039TIP3   OH224675   6.056   2.505   1.054 -0.2575 -0.0847 -0.5014
 1039TIP3    H124676   6.031   2.465   1.137  2.0264  2.1854  1.4308
 1039TIP3    H224677   6.074   2.431   0.996 -0.0624 -1.7615  1.6133
 1040TIP3   OH224678   5.399   5.506   2.085 -0.3105  0.6680  0.1704
 1040TIP3    H124679   5.304   5.521   2.088 -0.7519 -1.8222  2.8852
 1040TIP3    H224680   5.411   5.447   2.011 -1.5550 -1.9911  1.9190
 1041TIP3   OH224681   0.585   3.370   2.393 -0.2041  0.3412  0.3004
 1041TIP3    H124682   0.649   3.312   2.353 -0.5071  0.6639 -0.6928
 1041TIP3    H224683   0.517   3.312   2.427 -1.4274  0.1360 -2.3031
 1042TIP3   OH224684   4.442   5.153   8.617 -0.2088  0.1552 -0.0932
 1042TIP3    H124685   4.397   5.144   8.533  0.4175 -3.1595 -0.1926
 1042TIP3    H224686   4.373   5.177   8.679 -1.3019 -0.4855 -1.0188
 1043TIP3   OH224687   0.934   5.859   8.420  0.1750 -0.0214  0.3782
 1043TIP3    H124688   0.982   5.916   8.360  0.2323  0.0015  0.4461
 1043TIP3    H224689   0.925   5.777   8.373 -2.9284  1.0433 -1.2018
 1044TIP3   OH224690   1.594   2.066   1.751 -0.2901  0.3480  0.8030
 1044TIP3    H124691   1.500   2.070   1.770 -0.5552  1.6354 -0.6397
 1044TIP3    H224692   1.602   1.995   1.687 -0.2435  0.1538  1.0201
 1045TIP3   OH224693   0.065   2.800   8.423  0.0784 -0.2802 -0.3228
 1045TIP3    H124694  -0.019   2.841   8.444  1.2072  2.1489 -0.2606
 1045TIP3    H224695   0.099   2.770   8.508  1.2372  2.8288  0.4615
 1046TIP3   OH224696   1.813   3.570   1.725  0.1744 -0.1098 -0.1899
 1046TIP3    H124697   1.861   3.531   1.798 -1.2425 -1.4126  0.1122
 1046TIP3    H224698   1.827   3.664   1.735 -0.2090 -0.2115  1.9934
 1047TIP3   OH224699   6.230   2.666   8.336 -0.2984 -0.0899  0.4092
 1047TIP3    H124700   6.218   2.755   8.369  2.0290  1.6454 -2.8293
 1047TIP3    H224701   6.151   2.648   8.286  0.2366  1.2718 -1.0019
 1048TIP3   OH224702   3.126   0.979   7.892 -0.5511  0.2431 -0.1399
 1048TIP3    H124703   3.217   0.990   7.916 -0.8376  1.9598  0.3042
 1048TIP3    H224704   3.087   0.929   7.964 -0.4147  1.3954  0.7536
 1049TIP3   OH224705   2.725   5.189   1.173  0.4030  0.5794 -0.4014
 1049TIP3    H124706   2.692   5.099   1.166  0.2321  0.6479 -0.4822
 1049TIP3    H224707   2.650   5.244   1.149  0.1952  0.7757  0.6473
 1050TIP3   OH224708   5.308   4.417   1.272  0.0744  0.4808  0.5996
 1050TIP3    H124709   5.307   4.485   1.339  0.4814 -0.4129  1.5424
 1050TIP3    H224710   5.401   4.403   1.252 -0.0687  2.3086 -1.8595
 1051TIP3   OH224711   1.909   4.471   6.942 -0.1948 -0.5970 -0.1431
 1051TIP3    H124712   1.897   4.456   7.036 -1.3752  0.8454 -0.0401
 1051TIP3    H224713   1.832   4.431   6.901 -0.7339  0.5761 -0.3023
 1052TIP3   OH224714   4.174   1.757   2.398 -0.3501  0.0469 -0.2808
 1052TIP3    H124715   4.253   1.766   2.345  0.2613  0.7575  0.7304
 1052TIP3    H224716   4.203   1.772   2.488 -1.1256 -2.3233  0.4565
 1053TIP3   OH224717   3.287   6.297   3.012 -0.1669 -0.3474 -0.4001
 1053TIP3    H124718   3.229   6.353   3.064  0.5213  0.5082 -0.5315
 1053TIP3    H224719   3.237   6.278   2.932 -0.8046 -0.7744  0.0957
 1054TIP3   OH224720   3.300   2.597   6.984  0.6397 -0.5111  0.2159
 1054TIP3    H124721   3.286   2.578   6.891  0.1337  0.1251  0.1505
 1054TIP3    H224722   3.231   2.548   7.029 -0.5908  0.9878  0.0564
 1055TIP3   OH224723   1.079   3.611   0.752  0.1868  0.1494  0.1578
 1055TIP3    H124724   1.162   3.576   0.718 -0.0379  0.1313 -0.3738
 1055TIP3    H224725   1.093   3.617   0.846  1.0873  0.9242 -0.0164
 1056TIP3   OH224726   0.901   3.538   2.727 -0.1973  0.8645 -0.0633
 1056TIP3    H124727   0.962   3.607   2.752  1.7778 -1.3194  1.6943
 1056TIP3    H224728   0.907   3.474   2.799 -1.0090 -1.6478 -2.0679
 1057TIP3   OH224729   6.778   3.328   7.914  0.7220  0.0682  0.3435
 1057TIP3    H124730   6.765   3.234   7.929 -0.8693  0.3647  1.0015
 1057TIP3    H224731   6.847   3.332   7.847  0.6248 -1.5673  0.1054
 1058TIP3   OH224732   3.579   2.945   6.408  0.2025  0.4924 -0.0281
 1058TIP3    H124733   3.623   2.872   6.451  0.4345 -0.4033 -1.6903
 1058TIP3    H224734   3.650   3.002   6.378  0.3876 -1.1693 -3.0894
 1059TIP3   OH224735   5.052   1.913   0.814 -0.0228  0.3052  0.0715
 1059TIP3    H124736   4.982   1.964   0.854  0.8825  1.3134  0.4243
 1059TIP3    H224737   5.056   1.944   0.724 -0.0395  0.2204  0.0408
 1060TIP3   OH224738   1.953   1.531   0.703 -0.3355  0.1378  0.3223
 1060TIP3    H124739   1.925   1.621   0.720 -1.0327 -0.3948  2.2951
 1060TIP3    H224740   2.025   1.516   0.765  1.0868 -0.0958 -1.3071
 1061TIP3   OH224741   4.157   2.401   2.406 -0.4628 -0.1118 -0.2435
 1061TIP3    H124742   4.076   2.421   2.453 -0.0120  2.1300 -0.3396
 1061TIP3    H224743   4.161   2.466   2.336  1.1812 -0.5017 -0.5436
 1062TIP3   OH224744   5.338   5.144   8.034 -0.7330 -0.3025 -0.1260
 1062TIP3    H124745   5.420   5.162   7.988 -0.1065 -1.5618  0.4520
 1062TIP3    H224746   5.270   5.150   7.966 -0.0754 -0.0114 -0.7636
 1063TIP3   OH224747   5.962   3.255   1.509  0.5342  0.4480 -0.4564
 1063TIP3    H124748   5.901   3.297   1.448 -0.2344  0.4530  0.3052
 1063TIP3    H224749   5.978   3.169   1.471  0.4774  0.6467 -0.9395
 1064TIP3   OH224750   0.658   5.838   7.285  0.9188 -0.0619  0.0520
 1064TIP3    H124751   0.729   5.775   7.294  0.8321 -0.4438 -1.6230
 1064TIP3    H224752   0.605   5.805   7.212  2.1771  3.0894 -2.5555
 1065TIP3   OH224753   2.019   1.155   7.812  0.0326  0.2274  0.2946
 1065TIP3    H124754   2.055   1.112   7.890  2.9511  1.7588 -0.0677
 1065TIP3    H224755   2.044   1.247   7.822  0.3292  0.5058 -2.3260
 1066TIP3   OH224756   3.228   6.798   7.728 -0.0040  0.3103  0.1284
 1066TIP3    H124757   3.277   6.843   7.660  1.3365  1.1862  1.6030
 1066TIP3    H224758   3.136   6.816   7.708  0.3059 -0.0617 -1.8118
 1067TIP3   OH224759   1.953   3.544   1.344  0.4765 -0.5235 -0.9989
 1067TIP3    H124760   2.037   3.515   1.379  1.1028  0.9652 -1.2110
 1067TIP3    H224761   1.960   3.639   1.339 -0.9488 -0.4265 -1.7243
 1068TIP3   OH224762   1.919   5.858   1.288 -0.3824  0.1816 -0.2931
 1068TIP3    H124763   1.910   5.816   1.374  0.2516  5.3619  2.7117
 1068TIP3    H224764   1.835   5.902   1.274 -0.0903  0.3084 -1.8164
 1069TIP3   OH224765   5.115   6.297   8.138  0.0308  0.2394  0.2039
 1069TIP3    H124766   5.124   6.212   8.096 -0.2515  0.2582  0.1009
 1069TIP3    H224767   5.201   6.338   8.129 -0.5381  1.0672 -2.1631
 1070TIP3   OH224768   5.222   3.262   7.263 -0.1792 -0.3134 -0.2808
 1070TIP3    H124769   5.230   3.167   7.250  0.2904 -0.2494 -0.4771
 1070TIP3    H224770   5.135   3.273   7.301 -0.2897 -0.8121 -0.3730
 1071TIP3   OH224771   1.632   1.743   1.593 -0.3855 -0.2162  0.1996
 1071TIP3    H124772   1.707   1.788   1.553 -0.8666  0.5595  0.1543
 1071TIP3    H224773   1.601   1.684   1.525 -0.6556  0.4632 -0.2797
 1072TIP3   OH224774   4.395   1.793   2.202  0.0198  0.2985 -0.5201
 1072TIP3    H124775   4.474   1.819   2.251 -2.0793  3.8129  1.3585
 1072TIP3    H224776   4.404   1.835   2.117  0.7477 -0.5161 -0.8685
 1073TIP3   OH224777   0.021   2.406   2.444 -0.5078 -0.0128  0.0026
 1073TIP3    H124778  -0.006   2.321   2.408 -1.0485  0.8849 -1.8488
 1073TIP3    H224779   0.117   2.406   2.436 -0.6158  0.1646 -1.5245
 1074TIP3   OH224780   6.019   6.197   8.448  0.3976  0.1556  0.0180
 1074TIP3    H124781   6.057   6.144   8.518 -0.6689 -0.9466 -0.2083
 1074TIP3    H224782   6.045   6.287   8.470  2.7340 -0.4653  0.1067
 1075TIP3   OH224783   1.684   5.601   7.903  0.2601 -0.0880  0.2350
 1075TIP3    H124784   1.697   5.537   7.833  0.8851  0.4119 -0.1230
 1075TIP3    H224785   1.615   5.564   7.957 -0.4091 -0.3646 -0.7860
 1076TIP3   OH224786   4.282   5.928   1.067 -0.4547 -0.2542 -0.2324
 1076TIP3    H124787   4.269   5.844   1.021 -1.2627 -0.8700  1.0502
 1076TIP3    H224788   4.361   5.914   1.119 -1.3071 -0.7233  0.9874
 1077TIP3   OH224789   3.495   3.192   8.296  0.5801  0.8921 -0.0712
 1077TIP3    H124790   3.548   3.269   8.275  1.6610  0.2021  0.0686
 1077TIP3    H224791   3.448   3.172   8.215  1.6769  0.6331 -0.6559
 1078TIP3   OH224792   4.961   1.599   7.984  0.4033  0.1210  0.8067
 1078TIP3    H124793   5.004   1.515   7.970 -1.7558 -0.7083 -1.8038
 1078TIP3    H224794   5.033   1.662   7.993  2.0628 -1.7976  1.7173
 1079TIP3   OH224795   0.740   5.841   5.919  0.1769 -0.3390 -0.5484
 1079TIP3    H124796   0.657   5.815   5.959  0.1357  0.0513 -0.3752
 1079TIP3    H224797   0.807   5.793   5.967  0.1394  0.2459  0.1062
 1080TIP3   OH224798   3.677   2.131   0.950  0.1265  0.6260  0.1642
 1080TIP3    H124799   3.664   2.224   0.935  1.9745  0.8006 -0.5971
 1080TIP3    H224800   3.746   2.106   0.888 -0.4504 -1.2913  0.2231
 1081TIP3   OH224801   4.270   3.956   1.870  0.6711 -0.2217  0.2963
 1081TIP3    H124802   4.296   3.922   1.784  0.2073  0.8606 -0.2916
 1081TIP3    H224803   4.185   3.917   1.887  0.7178 -0.3578  0.2150
 1082TIP3   OH224804   4.884   1.786   8.658  0.0202  0.0105 -0.3010
 1082TIP3    H124805   4.818   1.855   8.663  0.0308  0.0075 -0.0969
 1082TIP3    H224806   4.840   1.714   8.612 -0.3891 -0.2929  0.5440
 1083TIP3   OH224807   1.643   4.855   1.780  0.4342  0.3823  0.0704
 1083TIP3    H124808   1.652   4.766   1.744 -2.6215 -0.8207  1.8407
 1083TIP3    H224809   1.563   4.889   1.740  0.5526  1.5916  0.8196
 1084TIP3   OH224810   3.128   3.106   0.016 -0.2860  0.0177 -0.1736
 1084TIP3    H124811   3.044   3.094  -0.027 -1.0924 -1.3700  1.6288
 1084TIP3    H224812   3.191   3.062  -0.041 -1.0144 -0.1546 -0.8567
 1085TIP3   OH224813   4.995   6.355   7.657 -0.1505 -0.0666  0.2586
 1085TIP3    H124814   5.033   6.288   7.713  0.0070 -0.8444 -0.7447
 1085TIP3    H224815   4.900   6.348   7.673 -0.1764 -0.8435 -0.1478
 1086TIP3   OH224816   2.822   2.721   0.558  0.2435 -0.0641  0.3460
 1086TIP3    H124817   2.850   2.810   0.576  0.5335 -0.4562  2.0369
 1086TIP3    H224818   2.726   2.727   0.550  0.1940  0.2969  1.1581
 1087TIP3   OH224819   3.573   3.867   2.383  0.0686  0.1835 -0.3004
 1087TIP3    H124820   3.657   3.837   2.418 -1.0028 -0.1729  2.1741
 1087TIP3    H224821   3.546   3.936   2.443 -1.1963  0.6068 -1.3346
 1088TIP3   OH224822   1.580   6.624   1.720  0.4233  0.3293 -0.4256
 1088TIP3    H124823   1.486   6.619   1.733  0.3521  1.6475 -0.2636
 1088TIP3    H224824   1.609   6.695   1.777  1.7739 -1.0748  0.7167
 1089TIP3   OH224825   0.005   4.580   7.514  0.0764 -0.4700  0.4896
 1089TIP3    H124826   0.041   4.578   7.425  1.3928 -0.4642  1.0055
 1089TIP3    H224827   0.079   4.558   7.570 -0.5673  0.2656  1.6485
 1090TIP3   OH224828   2.299   0.966   8.561 -0.1448  0.4227  0.2192
 1090TIP3    H124829   2.336   0.929   8.641  0.9124  0.8459 -0.0472
 1090TIP3    H224830   2.324   0.905   8.492 -1.8779 -0.4400  0.3241
 1091TIP3   OH224831   2.377   6.095   6.831 -0.2103  0.0815  0.2343
 1091TIP3    H124832   2.413   6.153   6.898 -1.9805  1.0816  0.3650
 1091TIP3    H224833   2.426   6.117   6.752  1.5383 -0.7419  1.0214
 1092TIP3   OH224834   1.201   5.099   8.101  0.4859  0.2567 -0.6575
 1092TIP3    H124835   1.141   5.041   8.053 -0.6095 -0.4274  1.4160
 1092TIP3    H224836   1.197   5.182   8.055 -1.4363 -0.0257 -1.0556
 1093TIP3   OH224837   0.956   0.414   1.789 -0.1246  0.1385  0.3730
 1093TIP3    H124838   1.037   0.363   1.789 -0.4556 -0.3858 -0.2124
 1093TIP3    H224839   0.897   0.364   1.846 -0.1206  0.4029  0.6134
 1094TIP3   OH224840   6.442   0.503   7.332 -0.4008 -0.1126 -0.2236
 1094TIP3    H124841   6.414   0.535   7.246  0.6116  2.0065  0.1783
 1094TIP3    H224842   6.450   0.582   7.386 -2.7449 -1.4702  2.4095
 1095TIP3   OH224843   5.548   5.673   1.480  0.3718  0.3150 -0.5585
 1095TIP3    H124844   5.583   5.619   1.551  0.1012  1.2509  0.3227
 1095TIP3    H224845   5.461   5.700   1.511  0.0262  0.3029 -1.4867
 1096TIP3   OH224846   3.870   0.147   1.890 -0.1116 -0.2771 -0.0243
 1096TIP3    H124847   3.791   0.126   1.840  0.7040 -1.0316 -1.0304
 1096TIP3    H224848   3.840   0.149   1.981 -0.9713 -2.3691 -0.1957
 1097TIP3   OH224849   0.868   5.886   1.222  0.0674 -0.4155  0.1266
 1097TIP3    H124850   0.930   5.954   1.196 -0.4902 -0.6853 -2.0897
 1097TIP3    H224851   0.921   5.807   1.231  0.2465 -0.3594 -0.4159
 1098TIP3   OH224852   5.676   1.946   8.131 -0.0959 -0.6963 -0.1632
 1098TIP3    H124853   5.582   1.928   8.128 -0.5273  1.4128 -1.6005
 1098TIP3    H224854   5.714   1.887   8.066 -0.6219 -0.6110 -0.5532
 1099TIP3   OH224855   2.200   4.069   7.392 -0.1218  0.0404  0.3881
 1099TIP3    H124856   2.118   4.071   7.343 -0.3800  0.5655  0.8387
 1099TIP3    H224857   2.253   4.003   7.347 -0.6926 -0.1206 -0.0558
 1100TIP3   OH224858   3.876   2.231   0.426  0.4680 -0.4780  0.0109
 1100TIP3    H124859   3.882   2.316   0.383 -0.5162 -0.0981  0.6002
 1100TIP3    H224860   3.792   2.232   0.470  0.7746 -1.4707  0.6547
 1101TIP3   OH224861   1.127   3.077   2.430  0.2619  0.0585  0.2261
 1101TIP3    H124862   1.064   3.141   2.463 -0.3614  0.0947 -0.9800
 1101TIP3    H224863   1.179   3.053   2.507 -1.0226  0.2549  1.1889
 1102TIP3   OH224864   4.209   5.724   1.443 -0.4321 -0.2818  0.2613
 1102TIP3    H124865   4.144   5.656   1.460  1.0229 -1.5415  1.0151
 1102TIP3    H224866   4.170   5.778   1.374 -1.9578 -1.4018  0.2026
 1103TIP3   OH224867   4.100   0.979   0.809  0.5704 -0.0403  0.0005
 1103TIP3    H124868   4.057   1.065   0.800 -0.5583 -0.6712 -1.0180
 1103TIP3    H224869   4.131   0.959   0.720 -2.6165 -2.3599 -0.7815
 1104TIP3   OH224870   0.751   6.637   0.747  0.0079 -0.4874 -0.2730
 1104TIP3    H124871   0.797   6.559   0.779 -0.4077  0.1180  1.9869
 1104TIP3    H224872   0.661   6.607   0.733 -0.0674 -0.5193  0.2413
 1105TIP3   OH224873   5.280   0.814   7.513  0.2396 -0.4142 -0.0468
 1105TIP3    H124874   5.219   0.865   7.566 -1.2381 -1.3805 -0.7278
 1105TIP3    H224875   5.253   0.831   7.422  0.0954 -1.8733 -0.3063
 1106TIP3   OH224876   4.192   5.487   8.525  0.0389 -0.1020 -0.5345
 1106TIP3    H124877   4.258   5.555   8.511  0.7760 -0.8487 -0.7421
 1106TIP3    H224878   4.108   5.534   8.525  0.5126  0.7571 -1.0069
 1107TIP3   OH224879   6.491   2.062   0.266  0.0064  0.0655 -0.4285
 1107TIP3    H124880   6.429   2.007   0.315 -1.2372  0.2636 -1.6933
 1107TIP3    H224881   6.503   2.016   0.183  0.7806  0.5445 -0.5919
 1108TIP3   OH224882   1.130   0.411   6.759 -0.0315 -0.6277  0.7431
 1108TIP3    H124883   1.217   0.444   6.738 -0.3920 -0.5636 -0.7791
 1108TIP3    H224884   1.145   0.324   6.793  0.6387 -0.6048  0.5278
 1109TIP3   OH224885   3.924   6.228   1.342 -0.3249 -0.1846  0.0705
 1109TIP3    H124886   3.937   6.311   1.297 -0.5713  0.6576  1.4649
 1109TIP3    H224887   3.918   6.252   1.435 -1.4455 -1.6404  0.4212
 1110TIP3   OH224888   1.305   6.716   1.690  0.1440  0.1488 -0.4162
 1110TIP3    H124889   1.288   6.791   1.747 -2.3426  0.7833 -1.8287
 1110TIP3    H224890   1.348   6.754   1.613 -0.3324  0.0090 -0.7568
 1111TIP3   OH224891   2.541   5.201   8.085 -0.4243  0.0895 -0.9438
 1111TIP3    H124892   2.513   5.116   8.118  0.6046  0.4142  0.9046
 1111TIP3    H224893   2.461   5.253   8.081 -0.5875  0.1008  1.3858
 1112TIP3   OH224894   4.844   2.258   8.418  0.1743  0.4014 -0.0203
 1112TIP3    H124895   4.900   2.335   8.408 -0.3760  0.8007 -0.1400
 1112TIP3    H224896   4.832   2.250   8.513 -0.2235  0.8171 -0.0273
 1113TIP3   OH224897   6.842   2.975   7.530  0.2183  0.0989 -0.7033
 1113TIP3    H124898   6.923   3.003   7.573  0.9817 -0.9999 -1.4022
 1113TIP3    H224899   6.817   2.895   7.576 -0.4680  0.4033 -0.5255
 1114TIP3   OH224900   4.594   5.561   7.560 -0.3441 -0.2119  0.1144
 1114TIP3    H124901   4.589   5.584   7.652 -1.5656  1.3719 -0.3004
 1114TIP3    H224902   4.509   5.587   7.524 -0.8885 -3.0752 -1.0024
 1115TIP3   OH224903   6.746   0.701   1.473 -0.0070  0.5398  0.2821
 1115TIP3    H124904   6.656   0.671   1.455  0.0644  0.4118  0.1378
 1115TIP3    H224905   6.777   0.736   1.389 -0.0948  1.0373  0.4513
 1116TIP3   OH224906   5.352   4.366   7.485 -0.1611  0.1587 -0.3050
 1116TIP3    H124907   5.360   4.365   7.389 -0.2313  1.2424 -0.3299
 1116TIP3    H224908   5.439   4.342   7.516 -0.0404  0.1586 -0.6402
 1117TIP3   OH224909   5.384   0.189   1.712  0.2428  1.0221 -0.0360
 1117TIP3    H124910   5.424   0.238   1.785  1.3910  1.9923 -1.2660
 1117TIP3    H224911   5.454   0.180   1.648 -0.3344 -1.0874 -0.4564
 1118TIP3   OH224912   1.515   5.716   1.428 -0.3175 -0.3846 -0.6183
 1118TIP3    H124913   1.487   5.672   1.348  0.7166  0.4900 -1.4877
 1118TIP3    H224914   1.610   5.704   1.430 -0.4210 -1.1052  0.9219
 1119TIP3   OH224915   2.240   6.327   0.276  0.1906 -0.3890 -0.1434
 1119TIP3    H124916   2.223   6.411   0.234  0.2213 -0.7845 -0.9666
 1119TIP3    H224917   2.333   6.329   0.297 -0.0939  0.3612  1.1807
 1120TIP3   OH224918   2.908   0.222   1.334 -0.3445 -0.0627  0.0636
 1120TIP3    H124919   2.940   0.240   1.422 -0.9257 -0.8669  0.4480
 1120TIP3    H224920   2.959   0.281   1.277  1.2520 -0.7435  0.7371
 1121TIP3   OH224921   5.288   3.036   8.573  0.0138  0.3512  0.0788
 1121TIP3    H124922   5.204   3.065   8.538  0.3976  1.7608  0.2879
 1121TIP3    H224923   5.338   3.009   8.496 -1.5271 -3.1514  0.1191
 1122TIP3   OH224924   6.606   1.303   0.918  0.1064 -0.1049 -0.0865
 1122TIP3    H124925   6.529   1.310   0.862 -0.9279  1.4319  1.3971
 1122TIP3    H224926   6.653   1.386   0.906  1.1592 -0.7364 -0.4436
 1123TIP3   OH224927   5.071   4.330   1.159 -0.0882 -0.5052 -0.6547
 1123TIP3    H124928   5.091   4.268   1.089  1.2510  0.2297 -0.9631
 1123TIP3    H224929   5.156   4.356   1.194 -0.3785  2.6936 -1.9275
 1124TIP3   OH224930   1.278   0.601   8.039  0.3122 -0.8647  0.6496
 1124TIP3    H124931   1.236   0.666   8.095 -0.1334 -0.0190 -0.6217
 1124TIP3    H224932   1.219   0.592   7.964  1.7002 -0.7175 -0.5026
 1125TIP3   OH224933   5.451   5.722   0.247 -1.2239 -0.1091  0.3816
 1125TIP3    H124934   5.428   5.811   0.220 -2.7365 -0.0025  1.8209
 1125TIP3    H224935   5.521   5.734   0.311  0.1736 -0.1542 -1.0766
 1126TIP3   OH224936   3.977   1.421   2.756 -0.3609 -0.5755  0.4467
 1126TIP3    H124937   3.949   1.451   2.842  2.0389  1.0652  0.7414
 1126TIP3    H224938   3.943   1.488   2.696 -1.9648 -1.6767  0.0555
 1127TIP3   OH224939   6.858   4.733   7.032  0.4929 -0.0469  0.2520
 1127TIP3    H124940   6.785   4.684   6.993 -0.2235 -0.0399  1.5195
 1127TIP3    H224941   6.828   4.753   7.121  1.5890  0.9649  0.4142
 1128TIP3   OH224942   0.134   6.482   8.467  0.2601 -0.4472 -0.0793
 1128TIP3    H124943   0.063   6.441   8.417 -1.2313  0.5655  1.1111
 1128TIP3    H224944   0.090   6.530   8.537  2.0543  1.4047 -0.1132
 1129TIP3   OH224945   2.290   2.599   2.663  0.0212 -0.0418  0.0700
 1129TIP3    H124946   2.340   2.678   2.684 -0.7039  0.6398 -0.7091
 1129TIP3    H224947   2.199   2.623   2.679 -0.2769 -0.4473 -0.9456
 1130TIP3   OH224948   4.516   0.308   0.044 -0.4941  0.1666 -0.3240
 1130TIP3    H124949   4.550   0.242  -0.015 -1.6015 -1.9218  1.2404
 1130TIP3    H224950   4.592   0.341   0.091  0.0667  0.0085 -1.1078
 1131TIP3   OH224951   5.750   2.442   7.600 -0.1305 -0.1773 -0.8255
 1131TIP3    H124952   5.685   2.374   7.580 -0.2197 -0.6479  0.9198
 1131TIP3    H224953   5.832   2.408   7.563 -0.4487 -0.5858 -1.1740
 1132TIP3   OH224954   6.535   5.909   0.927  0.3679 -0.0921 -0.2762
 1132TIP3    H124955   6.522   5.967   0.852  1.2542  0.1083 -0.2887
 1132TIP3    H224956   6.556   5.824   0.889  0.3796 -0.0985 -0.2558
 1133TIP3   OH224957   6.811   4.181   0.077  0.2273  0.2410 -0.0813
 1133TIP3    H124958   6.753   4.127   0.131  1.6798 -1.9770 -0.6250
 1133TIP3    H224959   6.752   4.226   0.016 -1.0441 -0.7432  0.3824
 1134TIP3   OH224960   3.562   1.527   0.551  0.3300 -0.0469  0.1394
 1134TIP3    H124961   3.502   1.601   0.552  1.9575  1.3190  0.1361
 1134TIP3    H224962   3.610   1.535   0.468  0.8589 -0.8106  0.3549
 1135TIP3   OH224963   3.391   4.397   0.167 -0.3799  0.0894  0.1951
 1135TIP3    H124964   3.466   4.387   0.225  1.0983 -1.3778 -1.8386
 1135TIP3    H224965   3.377   4.492   0.162  0.0640  0.3019  2.0879
 1136TIP3   OH224966   0.691   0.690   1.699 -0.5663  0.2959 -0.0757
 1136TIP3    H124967   0.661   0.706   1.609  0.7138  0.3555 -0.5072
 1136TIP3    H224968   0.654   0.605   1.721 -0.2521 -0.0851 -0.9570
 1137TIP3   OH224969   0.270   0.976   7.237 -0.0501 -0.0601  0.3164
 1137TIP3    H124970   0.356   1.014   7.253  0.0853 -0.1594 -0.1496
 1137TIP3    H224971   0.252   0.922   7.314 -0.4655  1.3174  1.2222
 1138TIP3   OH224972   6.356   6.813   1.192 -0.0134  0.3097 -0.2332
 1138TIP3    H124973   6.359   6.875   1.265  0.7425 -0.4282  0.3856
 1138TIP3    H224974   6.448   6.792   1.174 -0.2598 -0.8129 -0.2583
 1139TIP3   OH224975   4.913   6.611   2.011  0.5413 -0.4154 -0.1805
 1139TIP3    H124976   4.967   6.564   2.074  1.1520 -2.1521 -1.8783
 1139TIP3    H224977   4.892   6.545   1.944 -1.2600  0.9672 -1.0532
 1140TIP3   OH224978   3.359   3.186   8.065 -0.5613 -0.2395 -0.3627
 1140TIP3    H124979   3.279   3.145   8.033 -0.3451  0.7457 -2.3414
 1140TIP3    H224980   3.377   3.255   8.001  0.8896  0.7297  1.0250
 1141TIP3   OH224981   1.250   5.490   2.039 -0.0654  0.4497 -0.1751
 1141TIP3    H124982   1.343   5.466   2.041  0.4607  1.7692 -3.0132
 1141TIP3    H224983   1.213   5.435   1.970 -1.1660  0.6617  0.2327
 1142TIP3   OH224984   2.918   3.579   1.650  0.1367  0.0821  0.2380
 1142TIP3    H124985   2.978   3.521   1.697 -0.8874 -1.9377 -0.8187
 1142TIP3    H224986   2.954   3.583   1.561 -0.6766 -0.2438 -0.1105
 1143TIP3   OH224987   2.191   2.291   1.271 -0.0306 -0.1167  0.1548
 1143TIP3    H124988   2.280   2.309   1.300  0.5084  0.4486 -1.7129
 1143TIP3    H224989   2.143   2.271   1.351  1.5203  0.6197  1.3163
 1144TIP3   OH224990   4.684   5.571   8.381  0.7114 -0.2157  0.1388
 1144TIP3    H124991   4.770   5.530   8.372  1.3982  1.1630  0.1966
 1144TIP3    H224992   4.683   5.604   8.471 -0.2778 -1.0620  0.4558
 1145TIP3   OH224993   3.864   2.880   6.386 -0.1139 -0.3035  0.5020
 1145TIP3    H124994   3.922   2.826   6.439  0.5809 -0.7078 -0.6337
 1145TIP3    H224995   3.821   2.818   6.327  0.0072  0.2625 -0.1953
 1146TIP3   OH224996   0.950   0.892   7.935  0.1383 -0.7408  0.4785
 1146TIP3    H124997   0.950   0.881   7.840  2.2798 -2.8720  0.6378
 1146TIP3    H224998   0.861   0.867   7.961 -0.5546  0.0810 -0.9345
 1147TIP3   OH224999   5.222   1.256   7.463 -0.5102 -0.0498 -0.4462
 1147TIP3    H125000   5.284   1.187   7.484 -0.4107 -0.1371 -1.0078
 1147TIP3    H225001   5.155   1.250   7.531 -1.4051 -1.8017 -1.3893
 1148TIP3   OH225002   0.621   1.725   0.496 -0.3311 -0.1568  0.3717
 1148TIP3    H125003   0.702   1.748   0.541 -1.8103  0.2949  3.0913
 1148TIP3    H225004   0.635   1.636   0.464  1.8518  0.6022 -0.9990
 1149TIP3   OH225005   4.470   3.961   2.353  0.0837  0.2983  0.2190
 1149TIP3    H125006   4.478   3.900   2.426 -0.9257  0.5187  0.5333
 1149TIP3    H225007   4.425   4.036   2.390 -1.1685  0.0805 -0.8103
 1150TIP3   OH225008   0.121   3.076   1.664  0.8333  0.0399  0.0556
 1150TIP3    H125009   0.073   3.031   1.733 -0.9777 -0.0776 -1.2223
 1150TIP3    H225010   0.175   3.008   1.624 -1.9644 -1.1905 -1.9378
 1151TIP3   OH225011   6.876   0.923   1.590 -0.0093  0.0470  0.2906
 1151TIP3    H125012   6.841   0.948   1.504 -0.3245  0.1324  0.4408
 1151TIP3    H225013   6.847   0.832   1.602  0.6638 -0.2127 -0.0134
 1152TIP3   OH225014   0.628   1.859   0.238 -0.1127  0.4989 -0.4431
 1152TIP3    H125015   0.702   1.911   0.270 -0.3135  0.4618  0.0824
 1152TIP3    H225016   0.601   1.807   0.314  0.3000 -0.6272 -1.0469
 1153TIP3   OH225017   1.981   6.655   0.237  0.3089  0.5005  0.1166
 1153TIP3    H125018   1.900   6.694   0.204 -0.1294 -1.9361 -2.0371
 1153TIP3    H225019   2.018   6.609   0.162  3.8531  1.6344  0.9623
 1154TIP3   OH225020   3.385   3.868   2.590 -0.0638  0.3945  0.4807
 1154TIP3    H125021   3.441   3.791   2.605  0.8149  0.4333 -2.1202
 1154TIP3    H225022   3.298   3.832   2.575  0.3219 -0.1329 -0.6134
 1155TIP3   OH225023   2.657   1.703   0.992 -0.4371  0.0997 -0.0021
 1155TIP3    H125024   2.581   1.648   1.013  0.3171 -0.6652  0.7680
 1155TIP3    H225025   2.650   1.778   1.051 -0.6750  0.1186 -0.0514
 1156TIP3   OH225026   6.105   3.608   1.639 -0.0327  0.2188  0.3458
 1156TIP3    H125027   6.031   3.560   1.675 -0.8979  1.2081 -0.0391
 1156TIP3    H225028   6.065   3.671   1.579  1.1666  0.4395 -0.2450
 1157TIP3   OH225029   0.530   4.018   6.903  0.0447  0.4295 -0.3469
 1157TIP3    H125030   0.466   4.011   6.832 -1.7840  1.9099  1.0707
 1157TIP3    H225031   0.501   3.953   6.968 -0.2742  1.3606  0.4670
 1158TIP3   OH225032   2.007   0.618   7.658  0.1505 -0.0484  0.0679
 1158TIP3    H125033   2.051   0.552   7.605  0.0577 -0.3796  0.4083
 1158TIP3    H225034   1.919   0.623   7.621  0.2132  0.0189 -0.0748
 1159TIP3   OH225035   2.336   2.830   0.628 -0.8251  0.5894 -0.2356
 1159TIP3    H125036   2.385   2.839   0.710  0.3725 -0.6002 -0.7840
 1159TIP3    H225037   2.292   2.745   0.636 -1.9128  1.1508 -0.2144
 1160TIP3   OH225038   6.773   3.626   1.349  0.0191  0.1234  0.2214
 1160TIP3    H125039   6.726   3.543   1.352 -0.0666  0.1167 -0.9364
 1160TIP3    H225040   6.820   3.624   1.266 -0.6000  1.5579 -0.1880
 1161TIP3   OH225041   5.460   4.272   2.751  0.1797  0.5574 -0.3364
 1161TIP3    H125042   5.462   4.337   2.680  0.6190  2.0249  0.9765
 1161TIP3    H225043   5.425   4.320   2.826 -2.7907 -1.6348 -0.1636
 1162TIP3   OH225044   0.529   2.850   8.311  0.0587  0.3151 -0.6064
 1162TIP3    H125045   0.482   2.925   8.347  0.6582  0.1802  0.5138
 1162TIP3    H225046   0.465   2.805   8.256 -1.1427  0.1490  0.8613
 1163TIP3   OH225047   1.643   5.047   8.465  0.3527 -0.5156  0.4079
 1163TIP3    H125048   1.616   4.995   8.390  1.6391  0.4128 -0.7341
 1163TIP3    H225049   1.714   4.997   8.505  1.0133 -0.0534 -0.1830
 1164TIP3   OH225050   6.628   5.365   2.382 -0.1901  0.2878 -0.2817
 1164TIP3    H125051   6.559   5.357   2.315 -2.4583  0.0149  1.9487
 1164TIP3    H225052   6.588   5.331   2.462  3.0448 -1.1784  0.8845
 1165TIP3   OH225053   6.133   1.208   7.113 -0.0838 -0.9469 -0.3017
 1165TIP3    H125054   6.154   1.115   7.121 -0.5144 -1.0878 -0.7556
 1165TIP3    H225055   6.090   1.215   7.028  1.6570 -0.0141 -1.1513
 1166TIP3   OH225056   6.543   0.391   7.585  0.3350 -0.0898 -0.3899
 1166TIP3    H125057   6.523   0.441   7.506  0.0204 -1.9994 -1.5944
 1166TIP3    H225058   6.623   0.431   7.620 -0.9264  2.4366 -0.1470
 1167TIP3   OH225059   0.568   4.926   0.563  0.3078 -0.4106  0.3162
 1167TIP3    H125060   0.531   4.988   0.626 -0.3974 -1.8469  1.3773
 1167TIP3    H225061   0.647   4.969   0.530 -0.2837  1.1310  0.8297
 1168TIP3   OH225062   1.292   4.711   6.835 -0.4465 -0.3030 -0.6063
 1168TIP3    H125063   1.298   4.619   6.859  0.2586 -0.4477 -1.3011
 1168TIP3    H225064   1.285   4.711   6.740  1.8389  0.3978 -0.8503
 1169TIP3   OH225065   4.518   5.703   7.820  0.4978  0.0551  0.3689
 1169TIP3    H125066   4.563   5.762   7.880 -1.0269  0.7904  0.8360
 1169TIP3    H225067   4.467   5.762   7.764  0.6300 -0.7198 -0.5851
 1170TIP3   OH225068   3.716   6.052   2.138  0.1058  0.0536  0.0174
 1170TIP3    H125069   3.628   6.044   2.100  0.2787  2.1681 -0.9430
 1170TIP3    H225070   3.775   6.047   2.063  0.6959  0.5714  0.4434
 1171TIP3   OH225071   2.954   0.363   0.395 -0.8104 -0.0752 -0.0638
 1171TIP3    H125072   2.897   0.289   0.415 -0.8904  0.1712  0.6623
 1171TIP3    H225073   3.038   0.323   0.371 -0.2689 -0.3965  2.1711
 1172TIP3   OH225074   5.616   5.827   7.763 -0.2606  0.2062 -0.7980
 1172TIP3    H125075   5.540   5.769   7.754  0.5094 -0.8480 -0.5865
 1172TIP3    H225076   5.611   5.859   7.854  0.1219 -0.6795 -0.4601
 1173TIP3   OH225077   6.730   2.540   0.288 -0.0652 -0.1229  0.5760
 1173TIP3    H125078   6.664   2.476   0.262 -1.2589  1.6289 -0.9196
 1173TIP3    H225079   6.792   2.542   0.215 -1.0086  1.6331 -0.2358
 1174TIP3   OH225080   5.452   6.860   8.439 -0.1410 -0.4887 -0.2135
 1174TIP3    H125081   5.463   6.778   8.390  3.3409 -1.0872  1.2939
 1174TIP3    H225082   5.390   6.911   8.387  1.0222 -2.2589 -3.6157
 1175TIP3   OH225083   3.298   1.846   2.524 -1.0914 -0.4534 -0.5647
 1175TIP3    H125084   3.261   1.760   2.543  0.0846 -0.6904  0.8544
 1175TIP3    H225085   3.271   1.901   2.598 -1.7319  0.3930 -1.3983
 1176TIP3   OH225086   1.844   4.135   8.009  0.3412  0.4344 -0.2466
 1176TIP3    H125087   1.918   4.079   8.034  0.9486  0.7717 -1.2039
 1176TIP3    H225088   1.780   4.074   7.971  1.1283  0.3792 -1.5693
 1177TIP3   OH225089   3.649   4.178   0.083  0.0080  0.0860 -0.0895
 1177TIP3    H125090   3.688   4.115   0.143 -0.9134 -1.1406 -0.7279
 1177TIP3    H225091   3.635   4.257   0.136  2.0256  0.1170  0.4873
 1178TIP3   OH225092   6.133   2.873   0.162  0.5971 -0.8168  0.4223
 1178TIP3    H125093   6.134   2.794   0.109 -0.3045  0.4507 -1.6356
 1178TIP3    H225094   6.184   2.936   0.112 -1.8297  0.9826  0.0037
 1179TIP3   OH225095   0.650   2.741   7.839 -0.0534  0.2323 -0.1168
 1179TIP3    H125096   0.649   2.649   7.866  2.0801  0.1779 -0.0993
 1179TIP3    H225097   0.671   2.739   7.746 -1.3329  0.6784 -0.4354
 1180TIP3   OH225098   0.905   5.689   2.668  0.3063 -0.3834  0.3912
 1180TIP3    H125099   0.878   5.737   2.746  1.2452  0.2635  0.3288
 1180TIP3    H225100   0.937   5.605   2.701  0.6369 -0.1365  0.7063
 1181TIP3   OH225101   0.166   1.298   7.519  0.3810 -0.6553 -1.0446
 1181TIP3    H125102   0.164   1.392   7.539  1.7539 -0.9192  0.5712
 1181TIP3    H225103   0.241   1.264   7.569 -1.3680 -2.9866  0.2082
 1182TIP3   OH225104   3.039   1.936   0.319 -1.0880 -0.1157 -0.3888
 1182TIP3    H125105   3.110   1.871   0.315  0.9262  2.0221 -1.8014
 1182TIP3    H225106   2.999   1.921   0.404  0.6280 -1.8638  0.2060
 1183TIP3   OH225107   0.781   5.661   1.557  0.3968 -0.2237  0.1467
 1183TIP3    H125108   0.749   5.649   1.647  0.9552  0.9556  0.5377
 1183TIP3    H225109   0.703   5.664   1.503  0.1016 -2.2437  0.3966
 1184TIP3   OH225110   1.877   3.088   2.541 -0.0978 -0.2267 -0.2128
 1184TIP3    H125111   1.968   3.079   2.513 -0.1844  1.1033 -0.9890
 1184TIP3    H225112   1.880   3.071   2.636  1.0555  0.3628 -0.1258
 1185TIP3   OH225113   3.743   2.801   0.282  0.0737 -0.2267  0.3595
 1185TIP3    H125114   3.716   2.710   0.274 -1.2267 -0.0977  2.3781
 1185TIP3    H225115   3.666   2.852   0.255  0.2219  0.2403  0.7862
 1186TIP3   OH225116   0.892   3.871   7.948  0.6037  0.0149  0.0037
 1186TIP3    H125117   0.850   3.886   8.033  2.0579 -0.0167  0.7644
 1186TIP3    H225118   0.861   3.784   7.921 -1.3953  0.8201 -0.4717
 1187TIP3   OH225119   6.665   6.187   7.869  0.4900 -0.4628  0.5875
 1187TIP3    H125120   6.663   6.154   7.959  2.9700 -0.8372  0.5729
 1187TIP3    H225121   6.703   6.115   7.818  0.6816  0.3588 -0.4573
 1188TIP3   OH225122   0.373   5.747   1.176  0.2556  0.1946 -0.2810
 1188TIP3    H125123   0.432   5.816   1.146  0.8371 -0.7549 -1.4198
 1188TIP3    H225124   0.428   5.691   1.231  0.5509 -0.8971 -1.6454
 1189TIP3   OH225125   2.759   3.959   8.093 -0.4221  0.0317 -0.1399
 1189TIP3    H125126   2.671   3.924   8.105 -0.3134  0.2881  1.8101
 1189TIP3    H225127   2.811   3.884   8.061 -1.2991 -0.1513 -1.1670
 1190TIP3   OH225128   4.777   0.346   7.353  0.5398  0.3580  0.2221
 1190TIP3    H125129   4.683   0.362   7.358  0.7544  1.5556  0.6333
 1190TIP3    H225130   4.802   0.321   7.442  0.7354  0.7352  0.2719
 1191TIP3   OH225131   0.440   4.843   1.875 -0.4168 -0.4714  0.0337
 1191TIP3    H125132   0.376   4.912   1.857 -0.3461 -0.3020  0.4215
 1191TIP3    H225133   0.406   4.798   1.953 -0.7570 -1.2387 -0.5425
 1192TIP3   OH225134   1.434   5.810   0.975  0.1170  0.4370 -0.4508
 1192TIP3    H125135   1.373   5.877   1.006  1.4622  3.1396 -3.0359
 1192TIP3    H225136   1.408   5.795   0.884 -0.8776 -3.6525  0.3338
 1193TIP3   OH225137   6.068   4.879   0.180  0.3090 -0.3289  0.1452
 1193TIP3    H125138   6.107   4.800   0.141  0.6010  0.2530 -0.7617
 1193TIP3    H225139   6.007   4.911   0.114 -0.9506 -0.6206  1.1173
 1194TIP3   OH225140   4.734   5.082   0.651  0.6739  0.1774 -0.0320
 1194TIP3    H125141   4.757   4.989   0.650  0.2787  0.0411 -1.9762
 1194TIP3    H225142   4.669   5.090   0.721  0.7835 -0.9929  0.2274
 1195TIP3   OH225143   3.563   0.633   2.283  0.2198  0.1377  0.0955
 1195TIP3    H125144   3.632   0.697   2.263 -0.7767  0.9280 -0.9466
 1195TIP3    H225145   3.552   0.637   2.378  3.4013 -1.9202  0.7161
 1196TIP3   OH225146   2.361   0.083   0.042  0.3345 -0.1810 -0.2180
 1196TIP3    H125147   2.309   0.157   0.073 -0.7855 -1.2390  0.5260
 1196TIP3    H225148   2.399   0.046   0.122  1.8609  0.2617 -0.6948
 1197TIP3   OH225149   6.185   6.248   6.777 -0.2172 -0.1050 -0.2859
 1197TIP3    H125150   6.116   6.226   6.839 -1.0924  0.6992 -0.9513
 1197TIP3    H225151   6.148   6.229   6.691  0.0796  1.0704 -0.7031
 1198TIP3   OH225152   0.856   3.045   0.652  0.1776  0.4514 -0.1425
 1198TIP3    H125153   0.899   3.109   0.709  0.1177  1.3937 -1.1183
 1198TIP3    H225154   0.863   3.083   0.564 -0.9023 -0.3294 -0.5869
 1199TIP3   OH225155   1.237   4.448   7.291 -0.1674 -0.7535  0.1850
 1199TIP3    H125156   1.241   4.367   7.242 -0.5278 -1.5911  1.4889
 1199TIP3    H225157   1.327   4.480   7.292 -0.0321 -1.1023 -0.3764
 1200TIP3   OH225158   5.734   6.897   1.764 -0.4253 -0.4064  0.0811
 1200TIP3    H125159   5.788   6.909   1.686 -1.3827  1.4323 -0.3734
 1200TIP3    H225160   5.653   6.857   1.732 -0.8180  0.3456  0.0933
 1201TIP3   OH225161   2.666   6.132   1.356 -0.3811  0.5216  0.4277
 1201TIP3    H125162   2.580   6.111   1.320 -0.2864 -0.1761  0.6009
 1201TIP3    H225163   2.648   6.160   1.446 -0.5019  1.1590  0.2114
 1202TIP3   OH225164   0.657   1.124   7.789  0.5680  0.2478  0.3655
 1202TIP3    H125165   0.718   1.076   7.733  0.5829  0.1377  0.4740
 1202TIP3    H225166   0.696   1.119   7.877  3.3170  4.7990 -0.2555
 1203TIP3   OH225167   0.333   4.196   2.423 -0.1587 -0.0245  0.1369
 1203TIP3    H125168   0.254   4.169   2.375  0.2933 -0.6861 -0.2534
 1203TIP3    H225169   0.320   4.290   2.440 -0.3080  0.2613 -1.3735
 1204TIP3   OH225170   1.186   2.026   7.844 -0.6514  0.4837  0.4870
 1204TIP3    H125171   1.113   2.060   7.793 -0.8434  0.4503  0.7423
 1204TIP3    H225172   1.199   2.089   7.914 -0.1729  0.7009  0.2130
 1205TIP3   OH225173   1.651   2.402   8.592  0.1767  0.4456  0.1819
 1205TIP3    H125174   1.576   2.427   8.645  0.2811 -0.7163  0.9110
 1205TIP3    H225175   1.727   2.426   8.645  0.3505  1.5553 -0.5243
 1206TIP3   OH225176   6.181   4.828   8.029 -0.1032 -0.1319  0.5649
 1206TIP3    H125177   6.154   4.852   7.940  1.3331  0.3265  0.2124
 1206TIP3    H225178   6.215   4.739   8.021  0.0590 -0.0782  0.6402
 1207TIP3   OH225179   4.872   2.727   0.561  0.2042 -0.2315 -0.3767
 1207TIP3    H125180   4.852   2.819   0.542 -0.3734 -0.2510  0.1131
 1207TIP3    H225181   4.933   2.731   0.635 -1.4749 -0.2804  1.0626
 1208TIP3   OH225182   1.434   1.271   1.108  0.0260 -0.7093 -0.0490
 1208TIP3    H125183   1.463   1.195   1.057 -1.4659 -1.4242  0.1108
 1208TIP3    H225184   1.433   1.343   1.045  0.6371 -0.9988 -0.4030
 1209TIP3   OH225185   6.806   3.614   7.234  0.5055  0.4206  0.6934
 1209TIP3    H125186   6.754   3.659   7.168  0.0613 -0.8891  0.1050
 1209TIP3    H225187   6.745   3.597   7.305 -0.2016 -1.9255 -0.3757
 1210TIP3   OH225188   6.320   0.149   0.985  0.3106 -0.3881 -0.2461
 1210TIP3    H125189   6.256   0.092   1.027  0.2369 -0.8399 -0.9560
 1210TIP3    H225190   6.283   0.236   0.991  0.2447 -0.4654  0.5138
 1211TIP3   OH225191   5.524   0.979   0.517  0.5543  0.5302 -0.0788
 1211TIP3    H125192   5.440   1.004   0.478 -0.5283 -1.0410  1.1447
 1211TIP3    H225193   5.504   0.959   0.608  1.7502 -2.2205 -0.3055
 1212TIP3   OH225194   3.141   5.002   1.143  0.2118 -0.0942  0.1211
 1212TIP3    H125195   3.211   5.065   1.161 -0.1011  0.2684  0.0540
 1212TIP3    H225196   3.061   5.045   1.171 -0.3115  0.4897 -2.1160
 1213TIP3   OH225197   3.966   1.861   2.187  0.0397 -0.0395  0.5640
 1213TIP3    H125198   3.980   1.950   2.219 -1.7660  0.0794  1.1265
 1213TIP3    H225199   4.022   1.807   2.243  1.5717  0.7578 -0.1346
 1214TIP3   OH225200   3.169   1.935   0.847 -0.0883  0.1960  0.1418
 1214TIP3    H125201   3.148   1.908   0.758 -0.5250 -1.0039  0.5917
 1214TIP3    H225202   3.124   2.019   0.857 -2.2852 -0.8866  0.0692
 1215TIP3   OH225203   0.744   5.609   0.500  0.0384  0.0106  0.2424
 1215TIP3    H125204   0.717   5.559   0.577 -1.9755 -0.4706 -0.7040
 1215TIP3    H225205   0.679   5.678   0.492  1.3814  1.3201  0.0918
 1216TIP3   OH225206   2.594   0.867   1.390 -0.4995 -0.8362 -0.1396
 1216TIP3    H125207   2.647   0.850   1.468 -0.7475  2.9964  1.0904
 1216TIP3    H225208   2.513   0.906   1.425 -1.4953 -0.8928 -2.2622
 1217TIP3   OH225209   5.044   6.741   8.607  0.1349 -0.5005 -0.1904
 1217TIP3    H125210   5.098   6.709   8.534 -0.5601  1.1049 -1.4810
 1217TIP3    H225211   5.035   6.835   8.590  0.9382  0.1776  2.6625
 1218TIP3   OH225212   3.874   0.185   8.205  0.0898  0.1234 -0.7746
 1218TIP3    H125213   3.928   0.123   8.254  1.8511  2.1976  0.0689
 1218TIP3    H225214   3.908   0.180   8.115 -0.9692 -1.3286 -1.1386
 1219TIP3   OH225215   0.848   1.628   8.624 -0.2476 -0.5300  0.1868
 1219TIP3    H125216   0.864   1.614   8.717  2.2245 -0.3912 -0.1255
 1219TIP3    H225217   0.780   1.566   8.601 -0.7415 -0.7198  2.0340
 1220TIP3   OH225218   4.098   1.171   8.070 -0.1848 -0.0159  0.2561
 1220TIP3    H125219   4.050   1.096   8.106 -1.8984  0.4529 -0.9116
 1220TIP3    H225220   4.079   1.169   7.977  2.5028 -0.0324 -0.3775
 1221TIP3   OH225221   1.673   0.956   1.721 -0.2027  0.0179  0.2867
 1221TIP3    H125222   1.621   0.886   1.681  0.1782 -0.4668  0.6315
 1221TIP3    H225223   1.751   0.912   1.756 -0.1180  0.5649  0.8071
 1222TIP3   OH225224   0.204   1.486   1.063  0.7203 -0.2429  0.1124
 1222TIP3    H125225   0.160   1.489   1.148 -4.0735  2.5723 -2.0626
 1222TIP3    H225226   0.271   1.554   1.067 -1.6020  2.1578  0.8243
 1223TIP3   OH225227   0.663   0.482   6.874 -0.1340  0.1237 -0.1444
 1223TIP3    H125228   0.661   0.452   6.783 -2.2682  0.2441 -0.1751
 1223TIP3    H225229   0.572   0.483   6.901  0.1182  3.2535  0.9677
 1224TIP3   OH225230   5.808   6.274   1.881 -0.6618  0.0365 -0.3786
 1224TIP3    H125231   5.891   6.316   1.900 -0.6707 -0.7017  1.5288
 1224TIP3    H225232   5.774   6.320   1.805  0.6426  1.5566 -0.0847
 1225TIP3   OH225233   3.269   3.874   1.629 -0.7645 -0.0821  0.3355
 1225TIP3    H125234   3.333   3.805   1.649  0.5673  0.8253 -0.6620
 1225TIP3    H225235   3.273   3.884   1.534 -1.6030  0.7731  0.3726
 1226TIP3   OH225236   6.386   5.573   0.535 -0.3121 -0.2929  0.0888
 1226TIP3    H125237   6.340   5.635   0.592 -0.4083 -0.3093  0.0298
 1226TIP3    H225238   6.339   5.579   0.451 -0.8421 -1.0528  0.3197
 1227TIP3   OH225239   3.847   1.015   2.165  0.0133  0.5558  0.1166
 1227TIP3    H125240   3.934   1.053   2.175  0.1051  0.2159  0.6442
 1227TIP3    H225241   3.818   0.998   2.255 -0.3496  0.1028 -0.0821
 1228TIP3   OH225242   5.232   3.762   2.185 -0.5872 -0.2029 -1.0962
 1228TIP3    H125243   5.277   3.710   2.118 -1.3523 -1.5788 -0.5877
 1228TIP3    H225244   5.156   3.709   2.209 -0.4369  0.3355  0.7172
 1229TIP3   OH225245   6.700   5.020   1.456  0.7817 -0.5591 -0.3278
 1229TIP3    H125246   6.785   5.004   1.498 -0.7613 -1.6483  2.6845
 1229TIP3    H225247   6.678   4.936   1.415 -0.6221 -1.7854  2.6183
 1230TIP3   OH225248   4.620   0.659   0.692 -0.0611  0.3030 -0.1219
 1230TIP3    H125249   4.625   0.641   0.598 -0.9266 -1.0531  0.0507
 1230TIP3    H225250   4.659   0.581   0.732 -1.5866 -0.0905  0.6622
 1231TIP3   OH225251   0.695   0.124   6.210 -0.1549  0.1012 -0.0265
 1231TIP3    H125252   0.786   0.142   6.236  0.0157  0.8906 -1.0995
 1231TIP3    H225253   0.644   0.189   6.258 -0.0472  0.2732 -0.1423
 1232TIP3   OH225254   3.569   4.178   7.741  0.6545  0.7642  0.1046
 1232TIP3    H125255   3.510   4.248   7.713 -0.4998 -0.1998  0.0467
 1232TIP3    H225256   3.543   4.159   7.831  1.1596  0.6129  0.2202
 1233TIP3   OH225257   0.963   6.798   1.241 -0.6595  0.2782  0.2577
 1233TIP3    H125258   0.944   6.827   1.330 -2.0412 -0.3073  0.1705
 1233TIP3    H225259   0.979   6.704   1.250  0.0732  0.3693 -0.0004
 1234TIP3   OH225260   5.510   2.500   1.197 -0.0759  0.2252  0.1014
 1234TIP3    H125261   5.543   2.576   1.148 -1.5538  1.5529  1.0887
 1234TIP3    H225262   5.586   2.470   1.247  0.8793  0.2008 -1.2932
 1235TIP3   OH225263   3.528   5.901   7.836 -0.9053 -0.1843 -0.1930
 1235TIP3    H125264   3.557   5.866   7.920  1.9488 -0.3198 -1.1424
 1235TIP3    H225265   3.481   5.829   7.794  0.2046 -1.1114  0.1182
 1236TIP3   OH225266   0.913   0.220   0.604  0.2126 -0.4328 -0.0692
 1236TIP3    H125267   0.879   0.213   0.693  0.8704  0.6135  0.2816
 1236TIP3    H225268   0.841   0.192   0.548  0.3896 -2.9862  0.8328
 1237TIP3   OH225269   0.673   0.554   7.260 -0.3549  0.1513 -0.1300
 1237TIP3    H125270   0.735   0.485   7.282 -1.7626 -0.7204  1.2825
 1237TIP3    H225271   0.599   0.508   7.221 -1.3630  0.8272  0.9342
 1238TIP3   OH225272   5.737   6.135   8.542 -0.2706 -0.2991  0.2170
 1238TIP3    H125273   5.707   6.203   8.602 -0.7640 -0.5363  0.2497
 1238TIP3    H225274   5.828   6.157   8.523 -0.7402  0.9726 -0.6285
 1239TIP3   OH225275   0.646   3.231   1.642  0.4896  0.3361  0.5745
 1239TIP3    H125276   0.664   3.313   1.688 -1.7333 -0.7390  3.6809
 1239TIP3    H225277   0.553   3.234   1.623  0.5472 -1.0948 -0.0577
 1240TIP3   OH225278   6.263   2.544   0.778 -0.7118  0.0897 -0.9434
 1240TIP3    H125279   6.236   2.627   0.817 -0.1267  0.4596 -1.3250
 1240TIP3    H225280   6.357   2.552   0.765 -0.0345 -1.7793  1.8311
 1241TIP3   OH225281   5.599   5.919   8.317  0.4019 -0.4056 -0.5515
 1241TIP3    H125282   5.576   6.011   8.335  2.0097  0.2831 -1.7712
 1241TIP3    H225283   5.637   5.888   8.399  2.1623  0.8381 -0.8434
 1242TIP3   OH225284   3.675   1.469   0.836 -0.1554 -0.3772  0.8372
 1242TIP3    H125285   3.686   1.381   0.870  0.7425 -1.4375 -1.9195
 1242TIP3    H225286   3.614   1.459   0.762 -0.7970  1.4826  1.0470
 1243TIP3   OH225287   3.384   0.587   8.414  0.2425 -0.1852  0.7737
 1243TIP3    H125288   3.473   0.554   8.430  0.3474 -0.0443  0.4868
 1243TIP3    H225289   3.395   0.656   8.350 -0.1643 -0.7146  0.1137
 1244TIP3   OH225290   0.657   0.389   1.769 -0.6957 -0.7328 -0.0841
 1244TIP3    H125291   0.614   0.303   1.774  0.0188 -1.0473  1.3535
 1244TIP3    H225292   0.704   0.397   1.853 -3.0051  2.2521  1.1142
 1245TIP3   OH225293   6.846   0.490   0.527  0.2848  0.4695 -0.0978
 1245TIP3    H125294   6.831   0.584   0.528  0.7676  0.5749 -1.1001
 1245TIP3    H225295   6.760   0.452   0.547 -0.0118  1.1214 -0.1089
 1246TIP3   OH225296   5.654   4.041   7.270  0.2641  0.4530 -0.0076
 1246TIP3    H125297   5.687   3.974   7.330 -0.5518  0.0585  0.0083
 1246TIP3    H225298   5.619   3.992   7.195 -0.4184  0.8493  0.0443
 1247TIP3   OH225299   4.917   5.250   0.823  0.3587 -0.0129 -0.0113
 1247TIP3    H125300   4.885   5.163   0.799 -0.6992  0.2031  0.5676
 1247TIP3    H225301   4.846   5.309   0.797  0.6973  0.5855  0.4135
 1248TIP3   OH225302   1.681   1.051   1.251  0.5126  0.3848 -0.1082
 1248TIP3    H125303   1.644   1.089   1.331  1.2944 -1.8453  1.4105
 1248TIP3    H225304   1.726   1.124   1.209 -1.0032  1.9282  0.7773
 1249TIP3   OH225305   3.877   2.990   0.438 -0.0661 -0.1661 -0.0694
 1249TIP3    H125306   3.831   2.922   0.389  1.3878 -0.5255 -1.0051
 1249TIP3    H225307   3.955   3.009   0.386  0.6119  0.7608  1.2084
 1250TIP3   OH225308   2.868   1.502   8.409 -0.0002 -0.0755 -0.1016
 1250TIP3    H125309   2.774   1.487   8.398 -0.5374  1.9396  1.0976
 1250TIP3    H225310   2.890   1.455   8.490 -0.2234  0.3699  0.2167
 1251TIP3   OH225311   2.081   1.113   8.634 -0.2593  0.4077  0.1737
 1251TIP3    H125312   2.160   1.075   8.594 -0.0470 -0.7395  1.5908
 1251TIP3    H225313   2.084   1.205   8.610 -0.7313 -0.3288 -3.3474
 1252TIP3   OH225314   0.451   1.328   0.751  0.0451  0.4300 -0.1962
 1252TIP3    H125315   0.385   1.372   0.699 -0.7431  0.5527  0.8661
 1252TIP3    H225316   0.410   1.314   0.836  0.5302 -1.7007 -0.2474
 1253TIP3   OH225317   6.354   5.772   8.281 -0.4365  0.1864 -0.0680
 1253TIP3    H125318   6.356   5.730   8.368  0.5144  0.7734  0.2145
 1253TIP3    H225319   6.306   5.854   8.295  0.1069  0.4943  0.0109
 1254TIP3   OH225320   6.437   6.685   1.616  0.6189 -0.5096  0.1778
 1254TIP3    H125321   6.345   6.689   1.592  0.3748  0.3951  1.1942
 1254TIP3    H225322   6.440   6.715   1.707  1.9245 -0.4331  0.1357
 1255TIP3   OH225323   3.056   0.330   0.927  0.1148 -0.1480 -0.2926
 1255TIP3    H125324   3.039   0.409   0.875 -2.3811 -0.2525  0.2352
 1255TIP3    H225325   2.984   0.272   0.905  0.8520 -1.5245  0.8118
 1256TIP3   OH225326   2.184   4.195   0.249  0.2987  0.4089 -0.6581
 1256TIP3    H125327   2.266   4.210   0.201 -0.2433  1.9802 -1.1451
 1256TIP3    H225328   2.158   4.281   0.280 -1.9361  0.2197 -1.7925
 1257TIP3   OH225329   1.732   1.504   1.033  0.4871  0.5423  0.2520
 1257TIP3    H125330   1.730   1.588   1.079 -0.2850 -0.4814  2.2317
 1257TIP3    H225331   1.641   1.489   1.008  1.0433  1.6201 -2.8229
 1258TIP3   OH225332   6.807   5.244   2.009 -0.0256  0.0953  0.3162
 1258TIP3    H125333   6.815   5.179   2.079  1.0395 -0.5045 -0.3390
 1258TIP3    H225334   6.877   5.306   2.027 -0.9105  0.9703  0.8177
 1259TIP3   OH225335   6.842   5.326   8.362  0.7397 -0.0343 -0.3058
 1259TIP3    H125336   6.811   5.407   8.323 -0.2275 -0.3273 -0.1573
 1259TIP3    H225337   6.875   5.275   8.288 -0.1122 -0.1503 -0.6179
 1260TIP3   OH225338   5.512   1.078   1.287 -0.3636  0.4561 -0.0851
 1260TIP3    H125339   5.519   1.017   1.214  2.9673  0.6231 -0.0260
 1260TIP3    H225340   5.510   1.023   1.365 -0.9558  0.3574 -0.1664
 1261TIP3   OH225341   3.712   2.625   0.632  0.2264  0.4152 -0.0780
 1261TIP3    H125342   3.754   2.658   0.711  0.8987 -0.4211 -0.0783
 1261TIP3    H225343   3.623   2.660   0.636 -0.3295 -1.0342  1.9646
 1262TIP3   OH225344   5.029   6.488   0.309  0.0863  0.6665 -0.0526
 1262TIP3    H125345   5.057   6.564   0.359  1.0069  0.8451 -0.8216
 1262TIP3    H225346   5.068   6.413   0.356 -0.8664  0.6489  0.7340
 1263TIP3   OH225347   5.619   4.659   0.377 -0.2686 -0.7466  0.2756
 1263TIP3    H125348   5.700   4.664   0.327  0.0191 -0.8389  0.7295
 1263TIP3    H225349   5.637   4.595   0.446 -0.2116  0.3374  1.3074
 1264TIP3   OH225350   0.666   5.053   8.279  0.0708  0.1100  0.0397
 1264TIP3    H125351   0.715   5.136   8.280 -1.5952  1.1398  1.2953
 1264TIP3    H225352   0.586   5.073   8.230  0.2683 -1.1838 -0.8589
 1265TIP3   OH225353   3.765   0.845   2.387 -0.1439  0.5148  0.2059
 1265TIP3    H125354   3.858   0.820   2.393  0.5581  2.9776  0.6023
 1265TIP3    H225355   3.720   0.776   2.436  1.6173 -0.0706  1.1216
 1266TIP3   OH225356   0.073   2.208   0.216 -0.2069 -0.0833 -0.0331
 1266TIP3    H125357   0.156   2.221   0.169 -0.1501  0.6590  0.2591
 1266TIP3    H225358   0.012   2.178   0.149 -0.0647  0.7420 -0.5480
 1267TIP3   OH225359   6.328   2.183   1.689 -0.0887  0.0729  0.6371
 1267TIP3    H125360   6.398   2.246   1.702 -0.2106  0.3999 -0.2379
 1267TIP3    H225361   6.338   2.120   1.760  1.2232 -0.0093  0.3910
 1268TIP3   OH225362   6.777   0.075   8.404  0.0210 -0.2986 -0.1779
 1268TIP3    H125363   6.746   0.135   8.336 -2.7335 -1.0938  0.2606
 1268TIP3    H225364   6.778   0.127   8.484  2.7686  0.4967 -0.6317
 1269TIP3   OH225365   0.873   1.286   0.056  0.0362  0.4323 -0.1621
 1269TIP3    H125366   0.843   1.299   0.146 -0.3085  3.1635 -0.5896
 1269TIP3    H225367   0.804   1.326   0.002  1.2480  0.7661 -1.5262
 1270TIP3   OH225368   3.226   1.314   0.263 -0.0846  1.0073  0.4617
 1270TIP3    H125369   3.178   1.382   0.310 -2.2417 -0.3121  0.2987
 1270TIP3    H225370   3.167   1.288   0.193  0.3610 -1.5170  0.9491
 1271TIP3   OH225371   3.987   2.882   7.864  0.4712  0.6664 -0.4294
 1271TIP3    H125372   3.978   2.911   7.773 -0.9267  1.1785 -0.1473
 1271TIP3    H225373   3.995   2.786   7.858  3.5234  0.8800 -1.2569
 1272TIP3   OH225374   5.358   3.100   8.034 -0.2332 -0.4978 -0.4986
 1272TIP3    H125375   5.449   3.126   8.026 -0.7248  1.0593 -1.5661
 1272TIP3    H225376   5.308   3.181   8.018 -1.7914 -0.9694  1.4412
 1273TIP3   OH225377   0.966   2.731   6.694 -0.1637 -0.2131 -0.4248
 1273TIP3    H125378   1.037   2.792   6.715  0.4083 -1.0456  0.1732
 1273TIP3    H225379   0.888   2.769   6.733  0.4887 -0.6510  1.4033
 1274TIP3   OH225380   1.615   0.437   2.404  0.2245  0.8872  0.3926
 1274TIP3    H125381   1.665   0.407   2.480  1.5992  1.1477 -0.3723
 1274TIP3    H225382   1.681   0.474   2.345 -0.7372  0.2594 -1.1473
 1275TIP3   OH225383   0.925   1.942   0.467  0.3276  0.3544 -0.3232
 1275TIP3    H125384   0.964   1.861   0.434  1.1171 -0.2191  1.8550
 1275TIP3    H225385   0.856   1.914   0.527 -0.0578  1.3078 -0.3006
 1276TIP3   OH225386   2.397   3.758   1.620 -0.1039  0.4949  0.2777
 1276TIP3    H125387   2.415   3.665   1.611 -0.6507  0.5803 -2.9193
 1276TIP3    H225388   2.482   3.800   1.606 -0.2833  0.5050 -0.8919
 1277TIP3   OH225389   0.588   3.937   6.566 -0.5171  0.1259 -0.1059
 1277TIP3    H125390   0.647   4.008   6.590 -0.2356 -0.4821  1.0814
 1277TIP3    H225391   0.501   3.966   6.594 -0.2864 -0.3054  1.0981
 1278TIP3   OH225392   4.646   2.529   1.405  0.3793 -0.4187  0.4464
 1278TIP3    H125393   4.631   2.457   1.466  2.0567  1.1324  2.8157
 1278TIP3    H225394   4.732   2.512   1.367  0.6690  0.1818  0.8204
 1279TIP3   OH225395   4.632   6.528   1.161  0.1682  0.1676  0.0221
 1279TIP3    H125396   4.594   6.440   1.158  1.5310 -0.5450  1.9097
 1279TIP3    H225397   4.616   6.558   1.250  3.2621  0.1114  0.7043
 1280TIP3   OH225398   5.249   4.663   1.410 -0.9617  0.2400 -0.2950
 1280TIP3    H125399   5.314   4.733   1.404 -0.2550 -0.3792  0.1296
 1280TIP3    H225400   5.209   4.674   1.497  0.1810 -0.7686  0.3829
 1281TIP3   OH225401   1.613   1.781   8.657 -0.0075  0.3207 -0.2543
 1281TIP3    H125402   1.551   1.796   8.728 -0.7932  0.1260 -0.8753
 1281TIP3    H225403   1.696   1.764   8.700 -0.4346  0.3700  0.6080
 1282TIP3   OH225404   5.137   4.802   0.528  0.0063  0.6194  0.4877
 1282TIP3    H125405   5.164   4.733   0.588  1.3872 -1.1427 -1.9687
 1282TIP3    H225406   5.192   4.877   0.551  0.7486 -0.1176  1.1852
 1283TIP3   OH225407   2.774   4.120   7.724  0.1726 -0.2298  0.5922
 1283TIP3    H125408   2.823   4.051   7.768  1.8437  0.6856  0.2736
 1283TIP3    H225409   2.825   4.139   7.645 -2.0878 -0.9759 -1.1415
 1284TIP3   OH225410   0.456   1.254   0.170 -0.3026 -0.1103  0.1452
 1284TIP3    H125411   0.391   1.250   0.240  0.3707  0.4078  0.8240
 1284TIP3    H225412   0.457   1.165   0.134  2.3166 -1.7730  3.6274
 1285TIP3   OH225413   0.281   5.131   1.107  0.0531 -0.5894  0.1317
 1285TIP3    H125414   0.194   5.140   1.068  1.4491  1.1596 -2.8985
 1285TIP3    H225415   0.291   5.038   1.123 -1.6816 -1.0575 -1.2144
 1286TIP3   OH225416   5.381   2.826   0.756  0.2247 -0.1829  0.0169
 1286TIP3    H125417   5.395   2.732   0.770  0.9201  0.1452  1.7907
 1286TIP3    H225418   5.445   2.850   0.689 -1.0088 -1.2256 -1.6236
 1287TIP3   OH225419   4.635   1.860   7.705 -0.3148 -0.1568  0.5789
 1287TIP3    H125420   4.699   1.799   7.741 -0.1920 -0.1265  0.4120
 1287TIP3    H225421   4.574   1.805   7.655  0.3629 -0.0393 -0.4020
 1288TIP3   OH225422   3.800   3.053   2.538  0.4117  0.2029 -0.1086
 1288TIP3    H125423   3.802   3.141   2.500 -1.6894 -0.1098 -1.1119
 1288TIP3    H225424   3.811   3.068   2.632 -0.8185  1.6819 -0.1507
 1289TIP3   OH225425   1.722   1.461   7.491  0.2447  0.3816  0.4004
 1289TIP3    H125426   1.719   1.436   7.398 -2.1451 -0.2721  0.5879
 1289TIP3    H225427   1.743   1.379   7.536  3.2493  1.0396  0.4250
 1290TIP3   OH225428   4.948   3.264   8.039 -0.4328 -0.5696  0.0430
 1290TIP3    H125429   4.878   3.325   8.015 -1.5878 -0.7492  2.6186
 1290TIP3    H225430   5.026   3.318   8.045 -1.1590  0.4323  0.8685
 1291TIP3   OH225431   5.041   6.388   7.374 -0.3916  0.8834 -0.3409
 1291TIP3    H125432   4.956   6.378   7.332  0.3025 -1.3114 -1.3858
 1291TIP3    H225433   5.021   6.397   7.468 -1.7653 -1.4901 -0.3241
 1292TIP3   OH225434   1.025   0.743   7.406  0.2959  0.1312 -0.1232
 1292TIP3    H125435   1.078   0.749   7.326 -0.1612 -0.3743 -0.4753
 1292TIP3    H225436   1.024   0.832   7.441  1.6771  0.0814  0.0956
 1293TIP3   OH225437   1.174   3.206   1.171  0.0715  0.2171  0.8498
 1293TIP3    H125438   1.116   3.261   1.223  2.5979  2.4901  1.4856
 1293TIP3    H225439   1.217   3.266   1.110  0.2662 -1.7084 -1.0568
 1294TIP3   OH225440   1.701   3.042   1.564 -0.4485 -0.4587 -0.1008
 1294TIP3    H125441   1.675   3.002   1.647 -2.2566  0.9774  0.1129
 1294TIP3    H225442   1.617   3.063   1.521  0.4446 -0.3023 -1.8540
 1295TIP3   OH225443   4.543   2.601   0.828 -0.5446 -0.2564 -0.4740
 1295TIP3    H125444   4.577   2.657   0.898  0.3044  0.6828 -1.6050
 1295TIP3    H225445   4.544   2.513   0.866 -1.2714  0.3779  1.1087
 1296TIP3   OH225446   5.688   5.679   0.439  0.5548  0.4659  0.2159
 1296TIP3    H125447   5.679   5.735   0.516 -0.4487  2.1193 -1.0185
 1296TIP3    H225448   5.623   5.611   0.451 -1.0819  1.8994 -0.0775
 1297TIP3   OH225449   6.690   3.940   8.153  0.3665 -0.6226 -0.3554
 1297TIP3    H125450   6.661   3.849   8.162 -1.1466 -0.3255 -1.7311
 1297TIP3    H225451   6.742   3.941   8.072  1.7862 -0.5416  0.5115
 1298TIP3   OH225452   1.627   2.970   2.273 -0.5447 -0.0666  0.0657
 1298TIP3    H125453   1.713   2.963   2.232 -0.6032 -0.5461  0.0181
 1298TIP3    H225454   1.577   2.897   2.236 -0.5350 -0.6408  1.1241
 1299TIP3   OH225455   1.070   3.577   1.566  0.8002  0.1521  0.2387
 1299TIP3    H125456   0.998   3.527   1.528  1.1616  0.0668 -0.3468
 1299TIP3    H225457   1.076   3.546   1.656 -0.4457  0.7719  0.5553
 1300TIP3   OH225458   0.059   4.340   1.642  0.1059  0.1245  0.5103
 1300TIP3    H125459   0.144   4.385   1.649  0.1435 -0.0456  1.1289
 1300TIP3    H225460   0.028   4.332   1.732 -0.4362 -0.0774  0.3092
 1301TIP3   OH225461   5.775   6.581   8.037 -0.2555  0.9413 -0.1763
 1301TIP3    H125462   5.714   6.627   8.095  0.6383  0.6632  1.0279
 1301TIP3    H225463   5.776   6.633   7.957 -2.2826  0.7846 -0.3534
 1302TIP3   OH225464   3.321   1.633   8.249  0.2392  0.2183 -0.4438
 1302TIP3    H125465   3.407   1.615   8.211  0.0054 -2.6151  0.1365
 1302TIP3    H225466   3.335   1.710   8.304  2.5783 -0.5307  0.1356
 1303TIP3   OH225467   1.361   5.428   0.724 -0.2342  0.2391  0.3142
 1303TIP3    H125468   1.448   5.435   0.764  0.0695 -2.5803  0.3486
 1303TIP3    H225469   1.376   5.381   0.642 -1.6436  0.4817 -0.1062
 1304TIP3   OH225470   6.410   0.836   7.405  0.9031 -0.4121  0.1677
 1304TIP3    H125471   6.451   0.849   7.319  1.1474  0.1213  0.3586
 1304TIP3    H225472   6.317   0.830   7.387  0.8988  0.3140 -0.0779
 1305TIP3   OH225473   0.163   6.859   1.854  0.5416 -0.6103 -0.4010
 1305TIP3    H125474   0.249   6.823   1.877  0.8395 -0.0934 -0.6786
 1305TIP3    H225475   0.155   6.938   1.907 -0.3809 -1.3919  0.6696
 1306TIP3   OH225476   5.894   6.391   8.213  0.4876 -0.1167  0.0117
 1306TIP3    H125477   5.907   6.450   8.139  1.0529 -1.0968 -0.6963
 1306TIP3    H225478   5.976   6.343   8.221  0.8258  0.6775  1.9514
 1307TIP3   OH225479   5.831   3.242   8.532 -0.1625 -0.5415 -0.1837
 1307TIP3    H125480   5.824   3.312   8.467  0.6511 -1.9178 -1.8376
 1307TIP3    H225481   5.744   3.201   8.532 -0.0212 -0.8412 -0.7622
 1308TIP3   OH225482   6.172   4.654   0.751 -1.0539  0.2171 -0.1904
 1308TIP3    H125483   6.173   4.657   0.656 -1.7216 -0.2936 -0.2235
 1308TIP3    H225484   6.080   4.662   0.775 -0.7312  2.3983  0.5154
 1309TIP3   OH225485   3.389   5.363   8.238 -0.3228  0.3469  0.7105
 1309TIP3    H125486   3.325   5.312   8.188  0.9192 -1.5599  0.9508
 1309TIP3    H225487   3.450   5.396   8.172  1.3762 -2.2555  0.8456
 1310TIP3   OH225488   6.872   3.744   2.141  0.4134 -0.2973 -0.0458
 1310TIP3    H125489   6.819   3.683   2.192  1.8784  0.5436  2.7267
 1310TIP3    H225490   6.943   3.690   2.105 -0.6558 -0.9055 -1.3326
 1311TIP3   OH225491   6.368   0.330   8.119 -0.6841 -0.3800  0.2007
 1311TIP3    H125492   6.374   0.420   8.152  2.4757 -0.7846  1.0341
 1311TIP3    H225493   6.312   0.338   8.041  0.2828  2.5332 -0.3508
 1312TIP3   OH225494   4.092   5.247   2.646  0.3012  0.1721  0.5103
 1312TIP3    H125495   4.000   5.270   2.634  0.1827 -0.5597 -0.1085
 1312TIP3    H225496   4.140   5.319   2.606 -0.0216  0.2734  0.3017
 1313TIP3   OH225497   6.001   4.790   1.000  0.5573 -0.5868  0.2066
 1313TIP3    H125498   5.967   4.827   1.081 -0.3675  0.1176 -0.4846
 1313TIP3    H225499   5.981   4.856   0.933  0.7649 -1.4181 -0.6962
 1314TIP3   OH225500   5.829   5.675   7.348 -0.9478 -0.1241  0.4518
 1314TIP3    H125501   5.846   5.660   7.441  0.4400  1.4176  0.4941
 1314TIP3    H225502   5.904   5.726   7.317 -1.5002 -0.3848 -1.4674
 1315TIP3   OH225503   4.165   5.397   8.273 -0.4026  0.6182 -0.3309
 1315TIP3    H125504   4.164   5.429   8.363 -0.8152 -1.2145  0.3745
 1315TIP3    H225505   4.250   5.422   8.238 -0.4843  1.8874  0.3538
 1316TIP3   OH225506   4.643   2.507   8.204 -0.1755 -0.1460 -0.2969
 1316TIP3    H125507   4.622   2.600   8.190 -2.0600 -0.2459  1.4059
 1316TIP3    H225508   4.725   2.508   8.253 -1.2814  0.8013  1.6770
 1317TIP3   OH225509   5.254   2.406   2.458  0.2002  0.8648  0.2334
 1317TIP3    H125510   5.179   2.464   2.472 -1.1102 -0.2358 -1.7138
 1317TIP3    H225511   5.319   2.461   2.415 -1.0534  0.9734 -1.6509
 1318TIP3   OH225512   6.498   3.659   2.723 -0.4577  0.1328  0.0854
 1318TIP3    H125513   6.404   3.643   2.714 -0.1593 -2.3637  0.6058
 1318TIP3    H225514   6.536   3.571   2.731  2.0573  1.0162 -1.2072
 1319TIP3   OH225515   1.529   3.500   0.534  0.0840 -0.0859 -0.1242
 1319TIP3    H125516   1.623   3.496   0.555  0.4022 -0.0491 -1.4239
 1319TIP3    H225517   1.526   3.538   0.446 -1.2436  1.1934  0.4422
 1320TIP3   OH225518   5.022   5.292   2.766  0.0466 -0.1559  0.1056
 1320TIP3    H125519   4.990   5.251   2.846  0.0184  0.3016  0.3304
 1320TIP3    H225520   4.979   5.377   2.763  1.2485  0.4832  0.4222
 1321TIP3   OH225521   5.109   1.041   1.176 -0.1544  0.4400  0.3607
 1321TIP3    H125522   5.015   1.041   1.194 -0.2924 -0.8646 -0.2075
 1321TIP3    H225523   5.149   1.080   1.253 -1.0172 -1.0406  1.6226
 1322TIP3   OH225524   2.884   2.238   1.025 -0.1369  0.0107 -0.9205
 1322TIP3    H125525   2.813   2.290   0.988  2.0664  4.5405  0.5594
 1322TIP3    H225526   2.862   2.230   1.118  0.8056  0.5923 -0.6412
 1323TIP3   OH225527   6.494   1.811   6.715  0.1697 -0.1101  0.1728
 1323TIP3    H125528   6.569   1.812   6.656  0.1911  1.4852  0.1922
 1323TIP3    H225529   6.437   1.881   6.682  0.0386  0.6239  1.8458
 1324TIP3   OH225530   4.452   5.270   8.296 -0.1767  0.2550  0.1927
 1324TIP3    H125531   4.385   5.212   8.332  0.5325 -0.9344 -0.3263
 1324TIP3    H225532   4.497   5.305   8.372 -0.6333  0.1395  0.5175
 1325TIP3   OH225533   6.570   5.759   0.268  0.5637 -0.3263 -0.1350
 1325TIP3    H125534   6.492   5.809   0.290  1.3102  0.2837  1.2446
 1325TIP3    H225535   6.537   5.684   0.219 -0.8459  0.1051  0.1010
 1326TIP3   OH225536   6.772   5.786   0.436 -0.1562  0.2569  0.3984
 1326TIP3    H125537   6.791   5.693   0.429 -0.3506  0.2959 -0.9393
 1326TIP3    H225538   6.694   5.799   0.382  0.9894  1.4988 -1.0603
 1327TIP3   OH225539   6.305   4.373   7.252  0.3582 -0.0247 -0.1041
 1327TIP3    H125540   6.366   4.401   7.184 -0.5259 -1.6629 -1.6441
 1327TIP3    H225541   6.229   4.431   7.242  0.6806  0.4645  0.2460
 1328TIP3   OH225542   1.180   3.610   0.998  0.5242  0.1149 -0.5251
 1328TIP3    H125543   1.231   3.690   1.009  1.2124 -0.4595  0.6912
 1328TIP3    H225544   1.245   3.540   1.002 -0.2595 -0.5936  0.2105
 1329TIP3   OH225545   1.845   0.088   2.027  0.5280  0.7361  0.1828
 1329TIP3    H125546   1.919   0.099   2.087  0.4154  1.6435  0.1641
 1329TIP3    H225547   1.774   0.137   2.067  0.9128  2.8204 -1.4842
 1330TIP3   OH225548   6.384   0.736   8.460 -0.2585  0.5696  0.1590
 1330TIP3    H125549   6.383   0.715   8.554  0.7047 -0.7291 -0.0911
 1330TIP3    H225550   6.345   0.659   8.418 -0.6536  1.1277 -0.5216
 1331TIP3   OH225551   4.015   4.660   1.489  0.1861 -0.6144 -0.0428
 1331TIP3    H125552   4.046   4.622   1.572 -0.4072  1.1411  1.0295
 1331TIP3    H225553   4.083   4.722   1.464 -0.0826 -0.4533 -0.3740
 1332TIP3   OH225554   1.895   1.128   1.977 -0.3201  0.0960 -0.0555
 1332TIP3    H125555   1.801   1.144   1.969 -0.4892 -1.1476 -0.8472
 1332TIP3    H225556   1.902   1.066   2.050 -0.4381 -2.0736 -1.7809
 1333TIP3   OH225557   6.116   2.829   2.677 -0.4650  0.0760 -0.4269
 1333TIP3    H125558   6.102   2.845   2.770  1.3583  0.8058 -0.2282
 1333TIP3    H225559   6.163   2.907   2.646 -0.7966 -0.2782 -1.8895
 1334TIP3   OH225560   0.699   6.770   1.378 -0.4752 -0.3652  0.2126
 1334TIP3    H125561   0.748   6.849   1.399  2.6236 -2.2352  0.7550
 1334TIP3    H225562   0.654   6.747   1.459  1.1879 -0.7753  1.0697
 1335TIP3   OH225563   1.833   5.488   0.471  0.2108  0.2102 -0.1839
 1335TIP3    H125564   1.925   5.491   0.497 -0.1108  1.2794  0.9047
 1335TIP3    H225565   1.799   5.574   0.493 -0.4158  0.8047 -3.1094
 1336TIP3   OH225566   0.871   4.728   0.726 -0.1370 -0.0085  0.2316
 1336TIP3    H125567   0.810   4.790   0.766 -0.2084 -0.4931  0.8915
 1336TIP3    H225568   0.903   4.675   0.800  1.5320  0.6085  0.0027
 1337TIP3   OH225569   1.683   2.118   2.276  0.1983  0.0792 -0.4252
 1337TIP3    H125570   1.758   2.155   2.323  0.5693 -2.9843  1.6840
 1337TIP3    H225571   1.721   2.048   2.222 -0.7879  0.6808 -1.9564
 1338TIP3   OH225572   6.802   0.591   1.882  0.0290 -0.2110  0.1148
 1338TIP3    H125573   6.873   0.615   1.941  0.1067 -0.0528 -0.0422
 1338TIP3    H225574   6.826   0.504   1.849 -0.2168 -0.4757  0.6276
 1339TIP3   OH225575   2.216   0.687   7.453 -0.3231  0.1821 -0.5766
 1339TIP3    H125576   2.150   0.752   7.476  0.5704  0.3794  1.6855
 1339TIP3    H225577   2.187   0.607   7.495  0.6307  0.1750  0.1102
 1340TIP3   OH225578   3.691   1.777   2.321  0.4429 -0.3787 -0.6829
 1340TIP3    H125579   3.765   1.811   2.270 -0.2230  5.2485  1.4840
 1340TIP3    H225580   3.722   1.776   2.411 -1.1283 -1.3102 -0.1143
 1341TIP3   OH225581   1.629   4.522   7.882  0.4466  0.0254 -0.0703
 1341TIP3    H125582   1.602   4.599   7.833  1.7753  0.5953  0.0392
 1341TIP3    H225583   1.668   4.465   7.816  2.6722  0.9969  0.3148
 1342TIP3   OH225584   5.554   4.732   0.772 -0.2509 -0.4119 -0.1074
 1342TIP3    H125585   5.515   4.775   0.696 -0.3143  1.0849  0.7320
 1342TIP3    H225586   5.484   4.676   0.806 -0.1927 -1.1624 -1.1830
 1343TIP3   OH225587   4.258   2.815   2.906  0.4315 -0.0142  0.2196
 1343TIP3    H125588   4.251   2.782   2.995 -0.0812  0.6760  0.4437
 1343TIP3    H225589   4.183   2.875   2.896  2.6971  3.1671  0.7095
 1344TIP3   OH225590   1.844   3.450   8.307  0.0558  0.0225  0.6343
 1344TIP3    H125591   1.840   3.412   8.219 -1.5877  1.2557  0.1224
 1344TIP3    H225592   1.779   3.400   8.357 -0.8069  0.9103  0.4421
 1345TIP3   OH225593   1.666   2.526   7.102 -0.2708 -0.2048 -0.1876
 1345TIP3    H125594   1.594   2.464   7.114  0.7421 -1.1903  1.0531
 1345TIP3    H225595   1.622   2.611   7.092 -1.6691 -1.0240 -1.5764
 1346TIP3   OH225596   5.954   4.569   0.168  0.3035 -0.0029  0.0694
 1346TIP3    H125597   6.041   4.587   0.132  0.1724 -1.6596 -1.2289
 1346TIP3    H225598   5.969   4.548   0.260  1.2539 -0.0385 -0.0884
 1347TIP3   OH225599   3.246   4.118   7.587  0.4485 -0.0854 -0.1418
 1347TIP3    H125600   3.243   4.208   7.619 -1.0449 -0.4550  0.8744
 1347TIP3    H225601   3.213   4.123   7.497  0.0330  0.3376  0.0346
 1348TIP3   OH225602   5.037   2.787   1.339 -0.4870  0.6124  0.0143
 1348TIP3    H125603   5.113   2.732   1.318 -0.0877  1.5700 -1.0943
 1348TIP3    H225604   5.070   2.876   1.338 -1.7733  1.1086 -1.2085
 1349TIP3   OH225605   2.920   6.487   2.241 -0.1812 -0.4074 -0.0623
 1349TIP3    H125606   2.969   6.405   2.247 -1.1471 -0.9713  0.4263
 1349TIP3    H225607   2.882   6.498   2.328 -0.8175  0.0789 -0.3938
 1350TIP3   OH225608   2.994   4.172   1.457 -0.1656 -0.1619 -0.7027
 1350TIP3    H125609   2.978   4.266   1.456  0.8471  0.0722 -3.3333
 1350TIP3    H225610   3.066   4.160   1.518  0.3320  0.9208 -1.0545
 1351TIP3   OH225611   4.264   1.338   7.904  0.7882 -0.0074  0.1703
 1351TIP3    H125612   4.194   1.327   7.840  1.7735  0.1082 -0.9496
 1351TIP3    H225613   4.224   1.311   7.987 -1.9038  3.9743  0.4397
 1352TIP3   OH225614   1.121   6.653   2.271 -0.0293  0.4060  1.0059
 1352TIP3    H125615   1.124   6.741   2.308  2.3422  0.9060 -0.1499
 1352TIP3    H225616   1.079   6.664   2.185  1.0371  0.6041  0.4936
 1353TIP3   OH225617   2.972   2.467   6.517 -0.7091 -0.2042 -0.3497
 1353TIP3    H125618   3.025   2.403   6.564  1.4865  0.2141 -2.1009
 1353TIP3    H225619   2.886   2.462   6.559  1.0738  0.2977  3.7966
 1354TIP3   OH225620   3.829   4.420   2.307 -0.1010  0.2735 -0.3475
 1354TIP3    H125621   3.777   4.419   2.387 -2.3083 -3.4692 -1.5425
 1354TIP3    H225622   3.911   4.377   2.331 -1.2534 -2.0053 -0.2033
 1355TIP3   OH225623   3.897   0.978   7.696  0.7372 -0.0746  0.6047
 1355TIP3    H125624   3.869   0.899   7.741 -2.6029  0.1277 -0.7753
 1355TIP3    H225625   3.827   0.994   7.632  1.1986  4.0145  0.8724
 1356TIP3   OH225626   0.521   3.977   0.655  0.1084  0.2215  0.5608
 1356TIP3    H125627   0.437   3.933   0.643 -0.7510  2.0972 -0.8051
 1356TIP3    H225628   0.518   4.014   0.743 -1.1396  1.4751  0.0251
 1357TIP3   OH225629   1.977   4.782   0.388  0.0503  0.4644 -0.1105
 1357TIP3    H125630   1.907   4.840   0.418  0.8063  1.0474  0.5597
 1357TIP3    H225631   2.053   4.808   0.438  0.7653 -0.1556 -0.8425
 1358TIP3   OH225632   5.923   5.166   1.003 -0.1971 -0.1234 -0.3104
 1358TIP3    H125633   5.982   5.238   0.980 -0.2391 -0.1564 -0.5313
 1358TIP3    H225634   5.928   5.107   0.928 -1.1461  0.2848 -0.7161
 1359TIP3   OH225635   2.901   2.864   7.625  0.3479 -0.1163 -0.3462
 1359TIP3    H125636   2.899   2.960   7.619 -0.6234 -0.1699 -1.2292
 1359TIP3    H225637   2.983   2.838   7.583 -0.2913  0.2460 -1.8793
 1360TIP3   OH225638   3.391   1.329   0.646  0.3861 -0.3075 -0.3334
 1360TIP3    H125639   3.457   1.385   0.605 -1.2192  1.2468 -0.9208
 1360TIP3    H225640   3.363   1.377   0.723 -1.6052  0.1589 -1.2826
 1361TIP3   OH225641   3.393   5.656   8.254  0.2994  0.0939  0.5343
 1361TIP3    H125642   3.323   5.638   8.191  2.5555  1.9035 -2.8667
 1361TIP3    H225643   3.385   5.588   8.320 -2.4766 -1.8717 -1.5801
 1362TIP3   OH225644   1.896   5.811   2.489  0.6542  0.3008  0.1453
 1362TIP3    H125645   1.951   5.886   2.514  0.2134  1.3587 -1.8682
 1362TIP3    H225646   1.872   5.771   2.573  0.8860  2.4211  1.3080
 1363TIP3   OH225647   2.527   1.926   0.041  0.2384  0.0814  0.2381
 1363TIP3    H125648   2.436   1.896   0.035  0.1698  0.4089 -0.5571
 1363TIP3    H225649   2.552   1.943  -0.050  1.8340 -2.1873  0.1594
 1364TIP3   OH225650   3.544   6.737   0.406  0.2601  0.0489  0.8971
 1364TIP3    H125651   3.511   6.661   0.453 -2.9689  1.0508  0.4697
 1364TIP3    H225652   3.573   6.797   0.474  1.0397 -0.7655  1.3066
 1365TIP3   OH225653   3.747   4.148   7.537  0.5018 -0.2231  0.2104
 1365TIP3    H125654   3.836   4.132   7.570  0.0718 -1.8145  0.6743
 1365TIP3    H225655   3.699   4.182   7.612  0.5582  0.0364  0.1293
 1366TIP3   OH225656   3.926   0.989   8.298 -0.3360 -0.2547  0.0444
 1366TIP3    H125657   3.878   0.917   8.341 -3.2267  0.8314 -1.0997
 1366TIP3    H225658   3.949   0.954   8.212  1.2032 -0.8406  0.6625
 1367TIP3   OH225659   3.958   2.663   8.487  0.0967  0.4791  0.0777
 1367TIP3    H125660   3.973   2.594   8.423 -1.6810  1.0317 -1.0248
 1367TIP3    H225661   3.939   2.741   8.434 -1.0443  1.0462  1.2663
 1368TIP3   OH225662   1.646   1.714   7.404  0.0324  0.1034 -0.4722
 1368TIP3    H125663   1.669   1.628   7.440 -0.8956  0.7858  1.9512
 1368TIP3    H225664   1.628   1.697   7.311  1.0046 -2.0795 -0.3241
 1369TIP3   OH225665   5.087   6.238   1.368  0.1457 -0.3608  0.1412
 1369TIP3    H125666   5.074   6.248   1.462  3.2829  0.8153  0.5612
 1369TIP3    H225667   5.059   6.148   1.349 -0.2999 -0.7153  2.2224
 1370TIP3   OH225668   5.095   1.997   8.556 -0.0356  0.4473  0.0446
 1370TIP3    H125669   5.082   1.938   8.631 -1.1105 -2.3802 -2.1844
 1370TIP3    H225670   5.042   2.074   8.576  0.3534  0.1558  2.5005
 1371TIP3   OH225671   6.696   1.886   1.543 -0.0762  0.6316  0.6892
 1371TIP3    H125672   6.778   1.859   1.500  0.3110  0.2807  1.6314
 1371TIP3    H225673   6.643   1.922   1.472  1.8608  3.2193  0.4115
 1372TIP3   OH225674   6.322   6.420   0.756  0.2413  0.1233  0.0536
 1372TIP3    H125675   6.407   6.459   0.736 -0.0052  0.5512 -0.1534
 1372TIP3    H225676   6.289   6.391   0.671  1.1620 -2.0707  0.3721
 1373TIP3   OH225677   4.405   2.442   2.764  0.0878 -0.3158  0.0356
 1373TIP3    H125678   4.366   2.418   2.848  0.6046 -1.8713 -0.1249
 1373TIP3    H225679   4.474   2.376   2.751 -0.5329 -0.6037 -1.9951
 1374TIP3   OH225680   1.617   3.509   0.925 -0.0392  0.2967  0.2447
 1374TIP3    H125681   1.641   3.598   0.897  2.0055  0.4521  2.1714
 1374TIP3    H225682   1.648   3.452   0.854 -1.1707  1.0704 -0.9066
 1375TIP3   OH225683   3.331   1.473   1.160 -0.3436  0.1960 -0.0157
 1375TIP3    H125684   3.423   1.487   1.182 -0.2861 -1.5547  1.0298
 1375TIP3    H225685   3.284   1.486   1.242 -0.5837 -2.5241  0.3436
 1376TIP3   OH225686   4.873   0.989   0.752 -0.2878  0.0622  0.5029
 1376TIP3    H125687   4.932   1.046   0.800 -0.2600  1.1816 -0.7867
 1376TIP3    H225688   4.787   1.030   0.760 -0.0910  0.9270 -1.3003
 1377TIP3   OH225689   2.740   0.842   1.603 -0.1473 -0.0169 -0.3108
 1377TIP3    H125690   2.822   0.801   1.629 -0.8426 -1.1626  0.1493
 1377TIP3    H225691   2.698   0.865   1.686  0.1716  1.5715 -0.5524
 1378TIP3   OH225692   2.516   0.220   1.196 -0.0478  0.4093 -0.5281
 1378TIP3    H125693   2.506   0.155   1.127 -2.6336  0.4762 -0.3443
 1378TIP3    H225694   2.551   0.171   1.271  2.1558  0.2085 -1.6174
 1379TIP3   OH225695   2.671   3.671   1.663  0.0678 -0.3709 -0.1413
 1379TIP3    H125696   2.694   3.733   1.733 -0.2464  0.7051 -0.9678
 1379TIP3    H225697   2.750   3.618   1.652  0.4289  0.0295  0.4215
 1380TIP3   OH225698   3.576   1.189   0.180  0.1559 -0.3604 -0.0384
 1380TIP3    H125699   3.640   1.254   0.152  0.4317 -0.5144  0.2324
 1380TIP3    H225700   3.627   1.123   0.226 -0.0344 -1.1106 -0.8769
 1381TIP3   OH225701   4.745   4.766   0.022  0.4687  0.0104 -0.4108
 1381TIP3    H125702   4.771   4.857   0.007 -1.9788  0.8251 -0.3117
 1381TIP3    H225703   4.747   4.756   0.117 -1.9104  0.9478 -0.1838
 1382TIP3   OH225704   4.756   0.979   2.997 -0.3245 -0.4496  0.1111
 1382TIP3    H125705   4.677   1.004   2.949 -0.5807  0.0698  0.7924
 1382TIP3    H225706   4.746   0.884   3.010 -1.2839 -0.2421  0.9820
 1383TIP3   OH225707   3.786   4.525   7.567  0.2465  0.2825  0.5336
 1383TIP3    H125708   3.746   4.502   7.483  0.1450 -1.0690  0.9285
 1383TIP3    H225709   3.846   4.454   7.585 -0.0286  0.3500  1.7980
 1384TIP3   OH225710   6.176   0.198   7.346  0.0163 -0.1302 -0.0623
 1384TIP3    H125711   6.138   0.209   7.259 -0.1937  0.9503  0.1417
 1384TIP3    H225712   6.270   0.186   7.331 -0.1412 -0.8287 -0.4766
 1385TIP3   OH225713   3.383   4.415   1.118  0.2216 -0.1505  0.0930
 1385TIP3    H125714   3.473   4.446   1.131 -0.1693  1.0058  0.1481
 1385TIP3    H225715   3.353   4.460   1.039  0.0914 -1.4822 -0.6527
 1386TIP3   OH225716   3.594   0.284   0.049 -0.7800 -0.4452 -0.0368
 1386TIP3    H125717   3.658   0.289  -0.022  0.9258  0.9328  1.5048
 1386TIP3    H225718   3.634   0.227   0.114 -0.9309  0.7203  1.1124
 1387TIP3   OH225719   4.761   2.029   2.249  0.6681 -0.5678  0.1326
 1387TIP3    H125720   4.753   1.935   2.235 -1.9668 -0.2313 -1.2785
 1387TIP3    H225721   4.678   2.054   2.289  0.0575  1.5032 -2.1594
 1388TIP3   OH225722   3.255   0.885   1.133 -0.0396  0.6160  0.6283
 1388TIP3    H125723   3.214   0.831   1.066  1.4679  0.2719 -0.0718
 1388TIP3    H225724   3.206   0.967   1.132 -0.3591  0.4258 -0.5518
 1389TIP3   OH225725   1.687   1.423   1.788 -0.2951  0.4032  0.0191
 1389TIP3    H125726   1.634   1.410   1.709 -1.9879 -1.8289  1.4286
 1389TIP3    H225727   1.680   1.341   1.836  2.3281  0.9825  1.5954
 1390TIP3   OH225728   0.751   6.660   0.350  0.0200 -0.0858  0.5805
 1390TIP3    H125729   0.816   6.617   0.406 -0.4020  0.6271  1.6579
 1390TIP3    H225730   0.802   6.700   0.280  0.9448  1.7829  2.2486
 1391TIP3   OH225731   4.929   4.204   8.498  0.5294  0.4322  0.4318
 1391TIP3    H125732   5.018   4.239   8.510  1.1861 -1.0232  0.0153
 1391TIP3    H225733   4.897   4.190   8.587  0.4925  1.4822  0.5923
 1392TIP3   OH225734   4.225   6.870   7.746 -0.5610  0.0230 -0.4171
 1392TIP3    H125735   4.230   6.838   7.836 -0.5885  0.0641 -0.4012
 1392TIP3    H225736   4.295   6.823   7.700  1.0715  1.7789  0.1615
 1393TIP3   OH225737   2.724   3.395   2.076  0.3076 -0.0305 -0.3185
 1393TIP3    H125738   2.817   3.382   2.054  0.1776 -0.7556 -0.4310
 1393TIP3    H225739   2.705   3.329   2.142 -0.1446  0.0915 -0.3229
 1394TIP3   OH225740   3.149   0.683   8.354  0.1387  0.1261  0.5099
 1394TIP3    H125741   3.241   0.688   8.381  0.5619 -1.3010 -0.5300
 1394TIP3    H225742   3.122   0.595   8.381  0.2051 -0.8738 -2.3858
 1395TIP3   OH225743   2.439   4.155   1.845  0.2585 -0.0978  0.5639
 1395TIP3    H125744   2.374   4.174   1.912  0.6520  2.9267  0.2523
 1395TIP3    H225745   2.402   4.083   1.795 -1.7353 -0.0244  1.8277
 1396TIP3   OH225746   1.295   6.721   7.306 -0.1729  0.4076 -0.5103
 1396TIP3    H125747   1.274   6.673   7.226 -0.3075 -0.3532 -0.0277
 1396TIP3    H225748   1.232   6.792   7.309 -1.4712 -0.7193 -0.0710
 1397TIP3   OH225749   5.694   5.324   1.562 -0.0623 -0.2140 -0.1148
 1397TIP3    H125750   5.710   5.412   1.596 -0.8008 -0.6292  1.3954
 1397TIP3    H225751   5.751   5.267   1.613  0.9787 -0.5553 -1.6062
 1398TIP3   OH225752   5.572   3.212   1.167 -0.7606 -0.2553  0.1481
 1398TIP3    H125753   5.488   3.255   1.149 -0.2543  0.9314  0.5256
 1398TIP3    H225754   5.615   3.206   1.082 -0.7762  0.1096  0.1140
 1399TIP3   OH225755   5.645   2.445   8.176 -0.4498  0.2379  0.0026
 1399TIP3    H125756   5.645   2.365   8.124  1.2886  0.2563 -0.0716
 1399TIP3    H225757   5.706   2.427   8.248 -0.5610  1.2482  0.3653
 1400TIP3   OH225758   3.154   5.153   6.684 -0.3589 -0.4014 -0.3275
 1400TIP3    H125759   3.200   5.115   6.609 -2.3928  0.3217 -2.0283
 1400TIP3    H225760   3.215   5.142   6.757  1.9370 -0.6784 -2.1600
 1401TIP3   OH225761   2.686   3.208   0.846  0.0529 -0.0780 -0.1383
 1401TIP3    H125762   2.628   3.139   0.878 -1.1430  0.5967 -0.7719
 1401TIP3    H225763   2.729   3.242   0.925  1.4726 -2.2081  0.0736
 1402TIP3   OH225764   3.521   0.969   1.981  0.2707  0.1308 -0.0466
 1402TIP3    H125765   3.501   1.013   1.898 -1.9914  0.6290  0.6883
 1402TIP3    H225766   3.598   0.917   1.962  0.5180  1.1422 -2.1412
 1403TIP3   OH225767   2.102   6.674   1.807 -0.4223 -0.3610  0.7022
 1403TIP3    H125768   2.042   6.637   1.743  0.1782  0.9368 -0.6666
 1403TIP3    H225769   2.051   6.680   1.888 -2.1542  0.7643 -0.4223
 1404TIP3   OH225770   3.480   2.703   1.206  0.5755 -0.1594  0.2342
 1404TIP3    H125771   3.397   2.714   1.160  0.1995 -1.2383  0.6255
 1404TIP3    H225772   3.505   2.612   1.191  1.5920  0.0998  0.2857
 1405TIP3   OH225773   5.537   1.541   1.397 -0.3534  0.2834  0.4503
 1405TIP3    H125774   5.456   1.591   1.396  0.4018  1.5781 -1.0429
 1405TIP3    H225775   5.606   1.607   1.408  0.7105 -0.2952 -2.0045
 1406TIP3   OH225776   0.994   5.914   0.475 -0.4196  0.2292 -0.1141
 1406TIP3    H125777   0.931   5.960   0.420 -1.2361 -0.9794 -0.2132
 1406TIP3    H225778   0.994   5.963   0.557  2.4750  3.4508 -1.7814
 1407TIP3   OH225779   3.869   3.536   0.243  0.1797 -0.0792 -0.3989
 1407TIP3    H125780   3.869   3.444   0.218 -2.9469  0.2296 -2.0562
 1407TIP3    H225781   3.861   3.584   0.161 -2.2184  1.4066  0.5751
 1408TIP3   OH225782   1.332   0.974   0.922  0.4879  0.2607 -0.2044
 1408TIP3    H125783   1.241   0.954   0.900 -0.0302 -0.7056  2.5153
 1408TIP3    H225784   1.384   0.926   0.857 -0.9122 -3.2838  1.0818
 1409TIP3   OH225785   1.124   4.483   7.553  0.2283 -0.1302  0.5679
 1409TIP3    H125786   1.160   4.477   7.464  2.0602  0.9554  1.1953
 1409TIP3    H225787   1.044   4.535   7.542 -0.4564 -1.3681 -0.6502
 1410TIP3   OH225788   3.965   2.763   2.870  0.1779  0.0817  0.3518
 1410TIP3    H125789   4.001   2.829   2.812 -0.4742  0.4746  0.3822
 1410TIP3    H225790   4.030   2.693   2.871  0.6588  0.5209 -0.0429
 1411TIP3   OH225791   4.027   3.297   7.915 -0.0378  0.6196 -0.2268
 1411TIP3    H125792   3.951   3.352   7.896 -1.0851 -1.0599 -1.1842
 1411TIP3    H225793   4.024   3.228   7.849  0.8707 -0.9069  1.2360
 1412TIP3   OH225794   3.608   3.482   8.507  0.7023  0.3641  0.0231
 1412TIP3    H125795   3.610   3.469   8.412  1.2521 -2.1893  0.3170
 1412TIP3    H225796   3.540   3.548   8.521 -0.8034 -0.6465 -2.0172
 1413TIP3   OH225797   6.276   1.008   8.452 -0.2380 -0.1484 -0.2702
 1413TIP3    H125798   6.258   1.053   8.535 -0.4392  0.2426 -0.5208
 1413TIP3    H225799   6.329   0.933   8.477  0.0855  0.2153  0.1644
 1414TIP3   OH225800   1.733   0.840   2.013 -0.0233 -0.2296 -0.4345
 1414TIP3    H125801   1.676   0.771   2.048 -1.4392  0.0914 -1.9764
 1414TIP3    H225802   1.687   0.922   2.033 -0.0264  0.0483 -1.5033
 1415TIP3   OH225803   0.554   2.237   2.382  0.1967  0.3179 -0.5378
 1415TIP3    H125804   0.621   2.174   2.408 -0.2937 -0.1414 -0.3778
 1415TIP3    H225805   0.601   2.300   2.328  0.8661  0.2911 -0.0059
 1416TIP3   OH225806   1.921   6.123   0.802  0.7922  0.5341 -0.3535
 1416TIP3    H125807   1.959   6.208   0.825  1.9418 -0.0771  0.0514
 1416TIP3    H225808   1.972   6.059   0.852  1.1097 -0.5472 -1.9969
 1417TIP3   OH225809   6.664   5.207   0.887 -0.0575 -0.2987 -0.5591
 1417TIP3    H125810   6.573   5.207   0.858 -0.6323 -0.7291  1.1447
 1417TIP3    H225811   6.669   5.136   0.952  1.2413  0.3645  0.1117
 1418TIP3   OH225812   3.717   2.847   8.333  0.6122 -0.4720 -0.0330
 1418TIP3    H125813   3.686   2.925   8.379  0.2878  0.1521 -1.2899
 1418TIP3    H225814   3.805   2.870   8.304  1.1356 -1.1579  0.9217
 1419TIP3   OH225815   6.226   4.068   1.161 -0.1160  0.5576 -0.1842
 1419TIP3    H125816   6.309   4.089   1.205 -0.1101  0.6749 -0.2521
 1419TIP3    H225817   6.233   3.975   1.140 -0.5010  0.2764  0.8916
 1420TIP3   OH225818   3.184   4.073   0.496  0.1531 -0.9263 -0.6424
 1420TIP3    H125819   3.122   4.017   0.449 -1.1336  0.2110 -0.3837
 1420TIP3    H225820   3.184   4.155   0.447 -2.3246  0.8393  1.9592
 1421TIP3   OH225821   5.087   2.662   0.134  0.2283 -0.7964  0.1929
 1421TIP3    H125822   5.053   2.635   0.220  1.4496  0.6454  1.1887
 1421TIP3    H225823   5.142   2.738   0.153 -0.5870  0.4555 -2.0598
 1422TIP3   OH225824   5.985   4.747   0.540 -0.2384 -0.1184 -0.1894
 1422TIP3    H125825   6.052   4.814   0.527  1.3651 -1.5986  0.1060
 1422TIP3    H225826   6.023   4.668   0.501 -1.2676 -1.2978  1.1360
 1423TIP3   OH225827   4.747   4.910   2.111  0.7975 -0.0090  0.2109
 1423TIP3    H125828   4.686   4.898   2.038  1.0255 -2.7296  0.3480
 1423TIP3    H225829   4.785   4.996   2.096 -1.2498  0.7313 -1.2523
 1424TIP3   OH225830   5.076   3.197   1.924  0.1781  0.2476 -1.2498
 1424TIP3    H125831   5.003   3.235   1.973  0.2169  0.0588 -1.0433
 1424TIP3    H225832   5.149   3.198   1.986 -0.3387 -2.0935 -0.5047
 1425TIP3   OH225833   0.550   3.178   2.091 -0.3002 -0.0613 -0.6387
 1425TIP3    H125834   0.559   3.123   2.013  1.1255  1.5495 -1.6989
 1425TIP3    H225835   0.458   3.205   2.091 -0.9703 -2.1740 -0.2164
 1426TIP3   OH225836   0.560   0.183   8.071 -0.2408  0.1427  0.5580
 1426TIP3    H125837   0.485   0.124   8.080 -0.3054  0.2229  0.5454
 1426TIP3    H225838   0.528   0.267   8.105 -0.4568  0.4282 -0.3304
 1427TIP3   OH225839   4.656   6.419   7.418  0.3502  0.1280 -0.5469
 1427TIP3    H125840   4.605   6.501   7.424  1.7410  0.9390  2.0401
 1427TIP3    H225841   4.696   6.421   7.331  0.7704  2.5245 -0.3681
 1428TIP3   OH225842   3.340   0.630   7.746 -0.2724  0.3417  0.7509
 1428TIP3    H125843   3.250   0.658   7.767  0.1866  2.1241  0.5402
 1428TIP3    H225844   3.388   0.642   7.828  0.4051  2.3537  0.1137
 1429TIP3   OH225845   4.578   2.961   7.689 -0.9035 -0.0944  0.2794
 1429TIP3    H125846   4.584   2.953   7.594  0.6450  1.8582  0.1630
 1429TIP3    H225847   4.491   2.999   7.705 -1.0678 -0.1905 -0.3665
 1430TIP3   OH225848   5.167   6.469   1.026  0.2348 -0.2021 -0.6230
 1430TIP3    H125849   5.176   6.533   0.956  0.6388  0.9010  0.3948
 1430TIP3    H225850   5.195   6.386   0.987  0.9587  0.4815 -1.6059
 1431TIP3   OH225851   5.481   0.138   1.238 -0.3916 -0.3920 -0.1841
 1431TIP3    H125852   5.387   0.150   1.234 -0.6202 -1.9112 -0.0270
 1431TIP3    H225853   5.513   0.164   1.152 -0.4732  3.3413  0.7252
 1432TIP3   OH225854   0.800   2.902   8.306 -0.4106 -0.1041 -0.0818
 1432TIP3    H125855   0.708   2.882   8.322 -0.1306 -1.1939  0.2088
 1432TIP3    H225856   0.844   2.817   8.305  0.3097  0.2168 -2.0863
 1433TIP3   OH225857   3.643   3.638   1.049  0.6979  0.3104 -0.3650
 1433TIP3    H125858   3.620   3.553   1.085  1.0292  0.7253  0.8657
 1433TIP3    H225859   3.671   3.619   0.960 -1.7035 -0.5530 -1.0294
 1434TIP3   OH225860   4.612   1.906   1.232  0.1664 -0.5557 -0.2258
 1434TIP3    H125861   4.568   1.970   1.288 -1.3470  0.8474 -2.8405
 1434TIP3    H225862   4.573   1.822   1.256 -0.0251 -0.0925  1.1598
 1435TIP3   OH225863   5.036   1.393   6.866  0.3846 -0.2251  0.2394
 1435TIP3    H125864   5.031   1.310   6.913 -0.9320  1.1471  2.7424
 1435TIP3    H225865   5.088   1.450   6.923 -1.3308  1.5437  0.1277
 1436TIP3   OH225866   5.566   0.882   1.104  0.0158 -0.2067 -0.1493
 1436TIP3    H125867   5.604   0.880   1.016  0.3680 -2.1910 -0.0042
 1436TIP3    H225868   5.475   0.857   1.091  0.0464 -0.4140  0.0345
 1437TIP3   OH225869   3.615   2.785   6.150  0.1782 -0.2821  0.5425
 1437TIP3    H125870   3.706   2.765   6.173  0.5290  0.8320  0.1404
 1437TIP3    H225871   3.584   2.843   6.219 -0.3749 -0.9903  0.9069
 1438TIP3   OH225872   0.455   1.768   7.392  0.0853  0.0002  0.2294
 1438TIP3    H125873   0.403   1.843   7.422  1.3579  0.6405  0.9445
 1438TIP3    H225874   0.391   1.701   7.370 -1.0409  0.8046  0.9523
 1439TIP3   OH225875   3.435   1.981   8.050 -0.1332  0.3107 -0.3206
 1439TIP3    H125876   3.465   1.925   7.978  1.4847  0.4957  0.1882
 1439TIP3    H225877   3.340   1.966   8.054 -1.0744  2.9806 -4.8877
 1440TIP3   OH225878   1.312   6.545   8.100  0.4319 -0.3666 -0.0981
 1440TIP3    H125879   1.225   6.545   8.141  0.2218  1.5365 -0.4418
 1440TIP3    H225880   1.373   6.543   8.174  0.1237 -1.6211  0.1447
 1441TIP3   OH225881   2.070   5.803   0.398  0.5425 -0.3561 -0.0589
 1441TIP3    H125882   2.102   5.741   0.463 -1.2266 -0.4214  0.7967
 1441TIP3    H225883   2.103   5.769   0.314 -1.8104 -3.5658  0.1256
 1442TIP3   OH225884   3.576   5.932   0.795 -0.5162  0.0972 -0.0062
 1442TIP3    H125885   3.657   5.950   0.749 -1.2301  0.6450 -1.1060
 1442TIP3    H225886   3.547   5.846   0.762  0.8181 -1.3058  2.2138
 1443TIP3   OH225887   4.622   5.158   7.378 -0.3678 -0.2896 -0.3445
 1443TIP3    H125888   4.666   5.239   7.352 -0.2965 -0.1941  0.0661
 1443TIP3    H225889   4.539   5.160   7.330  0.3302 -0.7839 -1.6147
 1444TIP3   OH225890   1.934   4.345   7.626  0.3085 -0.4096  0.4413
 1444TIP3    H125891   1.957   4.417   7.566  1.2555  0.2351  1.5469
 1444TIP3    H225892   1.856   4.306   7.587 -0.9036  1.9098  0.3748
 1445TIP3   OH225893   6.287   5.093   6.991  0.9789  0.1226  0.0896
 1445TIP3    H125894   6.323   5.181   6.989  0.2593  0.4164 -0.6683
 1445TIP3    H225895   6.360   5.037   7.017  1.4207  0.9467  0.6442
 1446TIP3   OH225896   1.244   5.726   8.515 -0.1220  0.7210  0.4971
 1446TIP3    H125897   1.158   5.706   8.553  1.0378 -1.7031  2.0492
 1446TIP3    H225898   1.264   5.650   8.461  2.0296  0.0930  2.0417
 1447TIP3   OH225899   4.620   4.912   0.894 -0.3601 -0.3081 -0.2234
 1447TIP3    H125900   4.555   4.865   0.946  0.9860 -2.0754 -0.0282
 1447TIP3    H225901   4.661   4.843   0.841  1.6172  0.6632 -0.0262
 1448TIP3   OH225902   2.541   3.829   2.031 -0.4832  0.1418 -0.0548
 1448TIP3    H125903   2.561   3.906   1.978 -0.7716 -0.3048 -0.8249
 1448TIP3    H225904   2.620   3.775   2.024  0.1728  0.8452  1.3998
 1449TIP3   OH225905   4.396   3.231   3.035  0.1379  0.0045 -0.6155
 1449TIP3    H125906   4.309   3.198   3.059  0.6998 -0.7398  0.4448
 1449TIP3    H225907   4.454   3.155   3.043  1.0578  0.7128 -0.3789
 1450TIP3   OH225908   3.350   6.659   7.982 -0.7954  0.1161  0.1113
 1450TIP3    H125909   3.260   6.627   7.986 -0.3910 -1.1739 -0.5637
 1450TIP3    H225910   3.371   6.682   8.073 -1.4312 -0.6361  0.4613
 1451TIP3   OH225911   4.694   2.464   7.747  0.0613  0.2164  0.4893
 1451TIP3    H125912   4.687   2.495   7.657  0.9889  0.3931  0.4650
 1451TIP3    H225913   4.604   2.464   7.780 -0.4958 -1.3602 -0.9182
 1452TIP3   OH225914   6.609   2.775   1.449  0.4157 -0.1268  0.3953
 1452TIP3    H125915   6.638   2.842   1.386 -0.8302 -1.0224 -1.2225
 1452TIP3    H225916   6.689   2.730   1.474  0.7821 -0.9931 -2.0978
 1453TIP3   OH225917   2.863   0.552   8.195 -0.0577  0.0355  0.4952
 1453TIP3    H125918   2.871   0.592   8.282  0.2085 -0.9224  0.9375
 1453TIP3    H225919   2.895   0.462   8.208 -1.2738 -0.5378 -0.2831
 1454TIP3   OH225920   3.094   3.162   7.699  0.8108 -0.0092 -0.0344
 1454TIP3    H125921   3.167   3.154   7.637 -0.3059 -0.7733 -1.3211
 1454TIP3    H225922   3.128   3.124   7.780  1.6018 -1.1382 -0.8415
 1455TIP3   OH225923   5.779   6.802   1.500  0.1513 -0.2886  0.5859
 1455TIP3    H125924   5.734   6.802   1.415 -0.2492  1.5291  0.7361
 1455TIP3    H225925   5.784   6.710   1.525  0.2449 -0.8682 -1.3767
 1456TIP3   OH225926   5.002   2.020   3.120  0.1004  0.3251  0.3686
 1456TIP3    H125927   4.926   1.971   3.151 -0.6272  2.2604  1.8863
 1456TIP3    H225928   5.002   2.100   3.173  2.9565  0.6011  0.0957
 1457TIP3   OH225929   0.683   5.023   1.119  0.4061  0.2984  0.6686
 1457TIP3    H125930   0.768   5.060   1.094  0.4181 -0.9692 -1.3905
 1457TIP3    H225931   0.705   4.939   1.159  0.1497  0.3561  0.9334
 1458TIP3   OH225932   1.451   3.166   0.788  0.2060  0.0816  0.4911
 1458TIP3    H125933   1.546   3.163   0.800  0.2565  2.1939  1.0879
 1458TIP3    H225934   1.419   3.209   0.867 -1.0655  0.7567 -0.3618
 1459TIP3   OH225935   6.753   5.997   1.883  0.2050  0.3594 -0.6287
 1459TIP3    H125936   6.721   5.991   1.973 -1.2104 -1.0174 -1.1671
 1459TIP3    H225937   6.765   6.091   1.867 -2.0544  0.8378  0.1683
 1460TIP3   OH225938   1.414   4.126   2.558 -0.4324 -0.3886  0.1138
 1460TIP3    H125939   1.331   4.148   2.600 -0.3855  0.8240 -0.3829
 1460TIP3    H225940   1.473   4.104   2.630 -0.6959  0.4559  0.5969
 1461TIP3   OH225941   3.818   3.382   2.126 -0.3509 -0.1850 -0.1699
 1461TIP3    H125942   3.901   3.394   2.173 -0.5474 -1.8488  0.6779
 1461TIP3    H225943   3.765   3.458   2.152  0.1187 -0.2516  1.0618
 1462TIP3   OH225944   5.722   2.688   8.031  0.1240  0.1907 -0.4525
 1462TIP3    H125945   5.699   2.601   8.064 -0.1868  0.0711 -0.9889
 1462TIP3    H225946   5.642   2.722   7.993  0.5447  0.2300 -1.3190
 1463TIP3   OH225947   0.271   4.343   7.388 -0.6056 -0.3171  0.3991
 1463TIP3    H125948   0.322   4.266   7.413 -0.9306 -0.8527 -0.5324
 1463TIP3    H225949   0.330   4.393   7.332 -0.7152 -0.3729  0.2322
 1464TIP3   OH225950   4.498   1.833   8.202 -0.1598 -0.2878 -0.1325
 1464TIP3    H125951   4.442   1.788   8.139  1.7325 -1.7083 -0.9085
 1464TIP3    H225952   4.586   1.822   8.167  0.5398  3.3024  0.1285
 1465TIP3   OH225953   0.068   6.097   1.013 -0.0433 -0.2529  0.6529
 1465TIP3    H125954  -0.012   6.126   1.056 -0.0356  2.4880 -0.9422
 1465TIP3    H225955   0.138   6.123   1.073 -0.2382 -0.8192  1.1318
 1466TIP3   OH225956   1.462   6.652   7.893  0.1689 -0.6630  0.0264
 1466TIP3    H125957   1.408   6.610   7.961  2.0918 -2.7570  0.3756
 1466TIP3    H225958   1.437   6.607   7.812 -1.1572  0.9111 -0.4963
 1467TIP3   OH225959   2.797   0.014   8.062 -0.0220 -0.7724  0.2077
 1467TIP3    H125960   2.703   0.032   8.063 -0.7109 -3.6696  2.7276
 1467TIP3    H225961   2.812  -0.023   7.975 -1.1818 -0.2198 -0.2590
 1468TIP3   OH225962   1.692   2.663   0.955 -0.1015  0.1235  0.0888
 1468TIP3    H125963   1.649   2.598   0.899  1.0237  0.7718 -1.5812
 1468TIP3    H225964   1.654   2.647   1.042 -1.2397 -1.5049 -0.6422
 1469TIP3   OH225965   3.183   4.147   7.323 -0.4965  0.3687 -0.2111
 1469TIP3    H125966   3.123   4.167   7.250  1.1501 -0.2362 -1.8197
 1469TIP3    H225967   3.267   4.130   7.280  0.5782  0.1282  1.8838
 1470TIP3   OH225968   3.381   6.498   0.235 -0.0440 -0.4080 -0.3196
 1470TIP3    H125969   3.467   6.465   0.261  0.1334 -0.0541 -0.4523
 1470TIP3    H225970   3.334   6.510   0.318  0.0503 -0.5584 -0.2445
 1471TIP3   OH225971   1.346   5.963   0.275 -0.1786 -0.2557  0.2726
 1471TIP3    H125972   1.303   5.936   0.356  0.4137 -0.6804  0.4536
 1471TIP3    H225973   1.418   6.019   0.304  0.3214 -0.7869  0.0798
 1472TIP3   OH225974   1.572   5.769   2.213 -0.2023 -0.6820  0.1159
 1472TIP3    H125975   1.654   5.808   2.184  0.0131 -1.0336  0.2488
 1472TIP3    H225976   1.505   5.833   2.190 -0.5656 -2.3274 -4.4643
 1473TIP3   OH225977   3.848   3.564   0.519  0.4125  0.6616 -0.1124
 1473TIP3    H125978   3.831   3.539   0.428 -0.0845 -1.3341  0.4796
 1473TIP3    H225979   3.761   3.582   0.555  0.4616  0.0668  0.3206
 1474TIP3   OH225980   1.844   3.063   1.083 -0.0126  0.3164  0.4631
 1474TIP3    H125981   1.908   2.991   1.083  0.2485  0.5415 -0.2636
 1474TIP3    H225982   1.763   3.023   1.116  1.0262  0.5453  3.6733
 1475TIP3   OH225983   3.135   5.004   0.805 -0.1635 -0.4337 -0.0848
 1475TIP3    H125984   3.182   4.985   0.724 -1.0281 -0.8395 -0.5104
 1475TIP3    H225985   3.199   5.047   0.861  0.2001  0.7194 -1.3384
 1476TIP3   OH225986   0.545   5.363   3.069  0.2676  0.1007  0.7407
 1476TIP3    H125987   0.489   5.292   3.036  1.3693 -0.5249  0.1623
 1476TIP3    H225988   0.491   5.442   3.060 -0.9365 -0.6198  1.2698
 1477TIP3   OH225989   4.596   2.784   8.165 -0.1321  0.2617  0.4918
 1477TIP3    H125990   4.610   2.858   8.106 -1.7674 -0.4518 -0.8692
 1477TIP3    H225991   4.508   2.753   8.144 -0.2673 -0.8400  2.4409
 1478TIP3   OH225992   1.060   4.534   6.519  0.0196 -0.2909  0.6994
 1478TIP3    H125993   1.102   4.620   6.514  0.3546 -0.4625  0.5008
 1478TIP3    H225994   0.967   4.551   6.504 -0.1212  0.2054  1.9691
 1479TIP3   OH225995   1.708   1.673   2.794  0.1360  0.1997  0.1693
 1479TIP3    H125996   1.788   1.705   2.754  0.4838 -0.2846  0.4755
 1479TIP3    H225997   1.736   1.603   2.853 -0.7602 -1.9525 -1.8048
 1480TIP3   OH225998   1.816   6.477   1.118 -0.4839 -0.3172 -0.1459
 1480TIP3    H125999   1.734   6.487   1.069 -0.1042  1.1920 -0.5163
 1480TIP3    H226000   1.845   6.566   1.135 -0.1475 -0.7990  2.1163
 1481TIP3   OH226001   5.759   0.817   7.911 -0.7246 -0.3062 -0.3955
 1481TIP3    H126002   5.847   0.783   7.895 -0.3752 -0.0689  0.9225
 1481TIP3    H226003   5.731   0.775   7.993 -1.6863 -0.0895 -0.6012
 1482TIP3   OH226004   0.833   0.918   2.238 -0.2653 -0.2962  0.0413
 1482TIP3    H126005   0.891   0.850   2.203  0.3238  0.4216 -0.3955
 1482TIP3    H226006   0.809   0.970   2.162 -0.6041  0.0719  0.3986
 1483TIP3   OH226007   1.113   0.870   6.842 -0.3088  0.1801 -0.2577
 1483TIP3    H126008   1.152   0.925   6.910  1.4077  1.2721 -2.0445
 1483TIP3    H226009   1.112   0.782   6.881  0.6075  0.7689  1.1824
 1484TIP3   OH226010   4.590   1.890   1.612  0.3740  0.3251 -0.0388
 1484TIP3    H126011   4.635   1.935   1.683  0.6495  0.1188 -0.0821
 1484TIP3    H226012   4.497   1.907   1.627  0.4493  0.4995  0.2207
 1485TIP3   OH226013   3.453   6.160   0.181 -0.0473  0.4723  0.1519
 1485TIP3    H126014   3.417   6.207   0.256  1.2577  0.5002  0.7778
 1485TIP3    H226015   3.462   6.070   0.212  3.4083  1.0380  1.1746
 1486TIP3   OH226016   1.747   4.818   2.455  0.4832  0.1878  0.4898
 1486TIP3    H126017   1.674   4.875   2.430  0.2131 -0.0012  0.8364
 1486TIP3    H226018   1.726   4.790   2.544 -0.5666 -2.2685 -0.4381
 1487TIP3   OH226019   1.243   1.701   7.838 -0.4342  0.4476 -0.3845
 1487TIP3    H126020   1.251   1.786   7.881  1.3201 -0.0440  0.3624
 1487TIP3    H226021   1.328   1.659   7.852 -0.5081 -0.5875 -2.5840
 1488TIP3   OH226022   6.866   5.197   8.103 -0.2815 -0.0129  0.2066
 1488TIP3    H126023   6.896   5.107   8.087  0.8306  0.0034  1.8540
 1488TIP3    H226024   6.923   5.251   8.049 -1.0629 -0.2876 -0.9176
 1489TIP3   OH226025   3.929   6.115   2.669 -0.1992 -0.3951  0.3752
 1489TIP3    H126026   4.011   6.066   2.670  0.1577  0.0888 -1.3769
 1489TIP3    H226027   3.912   6.136   2.761  1.4915 -0.7500  0.7974
 1490TIP3   OH226028   2.663   2.728   1.293  0.0400 -0.1202  0.0001
 1490TIP3    H126029   2.590   2.692   1.244 -1.4733  0.8278  1.4613
 1490TIP3    H226030   2.624   2.793   1.351  2.2621  1.7974 -0.4768
 1491TIP3   OH226031   0.397   5.099   8.211 -0.0083 -0.5851  0.3974
 1491TIP3    H126032   0.360   5.035   8.150  1.4654 -1.4693  0.3720
 1491TIP3    H226033   0.346   5.178   8.196  0.6052 -0.6015 -2.3546
 1492TIP3   OH226034   4.100   2.966   2.729 -0.3111 -0.0869 -0.5812
 1492TIP3    H126035   4.084   2.986   2.637  0.5072 -0.4378 -0.8069
 1492TIP3    H226036   4.141   3.045   2.764 -0.5740  0.0266 -0.5203
 1493TIP3   OH226037   5.677   3.474   1.729  0.4776 -0.4715  0.4950
 1493TIP3    H126038   5.747   3.422   1.767  1.4172  0.3483 -0.0824
 1493TIP3    H226039   5.616   3.410   1.692  0.8879 -1.1846  1.0364
 1494TIP3   OH226040   3.932   4.648   1.825  0.3701 -0.1852  0.3622
 1494TIP3    H126041   3.905   4.620   1.912 -0.0837 -0.7052  0.0577
 1494TIP3    H226042   4.002   4.588   1.800  2.2473  1.4819  1.3648
 1495TIP3   OH226043   2.862   6.573   2.523 -0.6296 -0.0899  0.5185
 1495TIP3    H126044   2.868   6.481   2.547  1.0329 -0.3555 -0.7565
 1495TIP3    H226045   2.897   6.620   2.599 -1.8485 -0.4502  1.3289
 1496TIP3   OH226046   3.255   6.469   1.191 -0.6501 -0.2809 -0.2472
 1496TIP3    H126047   3.266   6.563   1.180 -0.2587 -0.4015 -0.9946
 1496TIP3    H226048   3.244   6.456   1.285 -1.4356  0.5797 -0.2043
 1497TIP3   OH226049   5.390   4.837   8.310  0.0673  0.3481  0.2593
 1497TIP3    H126050   5.306   4.820   8.353 -2.7728  2.3083 -3.8259
 1497TIP3    H226051   5.406   4.930   8.323  0.5655  0.3996 -0.6631
 1498TIP3   OH226052   1.393   5.180   1.418 -0.5047 -0.3566  0.1075
 1498TIP3    H126053   1.308   5.182   1.462 -0.9057 -2.1167 -0.4983
 1498TIP3    H226054   1.432   5.265   1.436 -2.0248  0.1535  1.1343
 1499TIP3   OH226055   3.028   0.596   0.235 -0.3112 -0.0423  0.3510
 1499TIP3    H126056   3.108   0.617   0.284 -0.7788  0.3012  0.9782
 1499TIP3    H226057   3.013   0.503   0.253 -0.1938 -0.0444  0.4430
 1500TIP3   OH226058   0.619   0.480   8.624 -0.3189 -0.2490 -0.3633
 1500TIP3    H126059   0.555   0.456   8.692 -0.0008  0.1205  0.0718
 1500TIP3    H226060   0.566   0.504   8.549 -0.6751 -1.5575 -0.5678
 1501TIP3   OH226061   4.636   3.195   2.251  0.6447  0.0957 -0.1786
 1501TIP3    H126062   4.566   3.131   2.245  1.5849 -0.9462 -0.4373
 1501TIP3    H226063   4.607   3.268   2.196 -1.5690  1.0567  2.0615
 1502TIP3   OH226064   0.652   3.015   7.866 -0.2847 -0.2188  0.2413
 1502TIP3    H126065   0.660   2.933   7.817  0.9605  0.3254 -0.5259
 1502TIP3    H226066   0.729   3.017   7.923  0.7293  1.2498 -1.0974
 1503TIP3   OH226067   4.867   2.499   0.888 -0.6541  0.1151 -0.2596
 1503TIP3    H126068   4.894   2.567   0.949  0.3213 -0.4286 -0.0566
 1503TIP3    H226069   4.772   2.492   0.900 -0.6099  0.6621  0.5055
 1504TIP3   OH226070   2.726   1.033   2.727  0.1672  0.2213  0.2254
 1504TIP3    H126071   2.671   0.970   2.680  1.1609 -0.1777 -0.4372
 1504TIP3    H226072   2.742   0.992   2.812 -0.9007  0.5411  0.5972
 1505TIP3   OH226073   4.194   3.475   7.753  0.2903  0.0698  0.3291
 1505TIP3    H126074   4.236   3.420   7.687 -0.5458 -0.1185 -0.0576
 1505TIP3    H226075   4.123   3.421   7.788 -0.4654  0.8535  0.0265
 1506TIP3   OH226076   3.466   6.361   8.356  0.1276  0.3064  0.4879
 1506TIP3    H126077   3.514   6.370   8.438  0.3101  1.5865  0.2720
 1506TIP3    H226078   3.374   6.369   8.380  0.1061 -0.4900  0.6985
 1507TIP3   OH226079   6.866   1.544   0.613 -0.3777 -0.4259 -0.2594
 1507TIP3    H126080   6.810   1.609   0.655 -1.2484 -0.2988 -1.5618
 1507TIP3    H226081   6.849   1.555   0.520  1.4767 -0.7240 -0.6647
 1508TIP3   OH226082   2.117   2.756   1.308  0.3225 -0.0396 -0.2319
 1508TIP3    H126083   2.025   2.763   1.333  0.1571 -0.5221 -0.6709
 1508TIP3    H226084   2.121   2.675   1.257  0.9148  0.1844 -0.5491
 1509TIP3   OH226085   1.626   2.287   1.171  0.0203 -0.1940 -0.2832
 1509TIP3    H126086   1.634   2.219   1.237  0.2076 -1.2400 -1.3424
 1509TIP3    H226087   1.538   2.322   1.182  0.3907  0.3397  1.1387
 1510TIP3   OH226088   2.571   2.695   8.609 -0.1355  0.0269  0.1552
 1510TIP3    H126089   2.660   2.662   8.613  0.2946  1.0512 -0.4350
 1510TIP3    H226090   2.549   2.695   8.516 -1.0262 -0.8888  0.3508
 1511TIP3   OH226091   2.314   1.768   7.980  0.1158 -0.4758 -0.1214
 1511TIP3    H126092   2.369   1.702   7.939  0.4631  0.5146 -1.3212
 1511TIP3    H226093   2.375   1.831   8.018 -0.1973 -0.2892  0.0858
 1512TIP3   OH226094   4.521   2.203   2.117  0.3055  0.4243  0.4395
 1512TIP3    H126095   4.460   2.180   2.188 -1.8555 -0.2559 -1.5022
 1512TIP3    H226096   4.471   2.262   2.061  0.8325 -1.2887 -2.0150
 1513TIP3   OH226097   6.355   2.339   0.369 -0.3808 -0.1020 -0.2581
 1513TIP3    H126098   6.387   2.422   0.406  0.3588  0.3475 -1.8170
 1513TIP3    H226099   6.372   2.274   0.437 -1.0675  1.0245  1.0467
 1514TIP3   OH226100   5.630   3.298   7.885 -0.0447 -0.6491  0.3070
 1514TIP3    H126101   5.655   3.213   7.920  0.4123  0.4075  2.7338
 1514TIP3    H226102   5.600   3.348   7.961 -1.8850  0.8460 -1.2888
 1515TIP3   OH226103   3.451   4.009   0.943  0.1408  0.4924  0.3216
 1515TIP3    H126104   3.429   3.922   0.978  0.6839  0.3579  0.3356
 1515TIP3    H226105   3.389   4.022   0.871  1.5499 -0.9456 -1.2462
 1516TIP3   OH226106   3.997   6.730   2.086 -0.5727  0.0877  0.1030
 1516TIP3    H126107   3.994   6.770   2.173 -1.0725 -0.1175  0.1818
 1516TIP3    H226108   4.063   6.781   2.039 -1.7069  1.4669 -0.0285
 1517TIP3   OH226109   4.580   1.652   1.923 -0.1033 -0.1990 -0.1500
 1517TIP3    H126110   4.501   1.640   1.976 -0.8841  2.8836 -0.4133
 1517TIP3    H226111   4.548   1.653   1.833  0.2832  0.6502 -0.2834
 1518TIP3   OH226112   6.075   4.146   6.683 -0.0552  0.3472  0.4863
 1518TIP3    H126113   6.167   4.160   6.706 -0.2701  2.0138  0.5101
 1518TIP3    H226114   6.042   4.234   6.665 -1.9266 -0.1013  1.5085
 1519TIP3   OH226115   0.867   4.103   7.792  0.6323 -0.5821  0.1431
 1519TIP3    H126116   0.772   4.098   7.795  0.5605  0.4186 -0.1364
 1519TIP3    H226117   0.897   4.026   7.840 -0.3125 -1.2491 -0.3103
 1520TIP3   OH226118   1.952   2.169   1.836  0.2292 -0.1339 -0.1113
 1520TIP3    H126119   2.027   2.197   1.888 -0.5434 -0.6385  1.3172
 1520TIP3    H226120   1.878   2.214   1.875 -0.3836 -0.5899 -0.7274
 1521TIP3   OH226121   6.720   3.550   0.486 -0.6891  0.8824  0.3560
 1521TIP3    H126122   6.676   3.535   0.402 -0.2817 -0.6072  0.3781
 1521TIP3    H226123   6.676   3.626   0.524 -0.3751  2.0660 -1.5394
 1522TIP3   OH226124   5.247   2.949   7.298 -0.3483 -0.5153 -0.0817
 1522TIP3    H126125   5.257   2.946   7.393 -1.6569  0.9457  0.1473
 1522TIP3    H226126   5.274   2.862   7.268  1.3165 -0.5937  1.4759
 1523TIP3   OH226127   3.226   5.407   1.825 -0.3262  0.7490 -0.0493
 1523TIP3    H126128   3.286   5.413   1.899 -1.0525  0.5000  0.5795
 1523TIP3    H226129   3.194   5.497   1.813 -1.1860  0.5684  0.7908
 1524TIP3   OH226130   3.415   4.962   8.478  0.1781 -0.6067  0.1447
 1524TIP3    H126131   3.354   4.922   8.540 -0.9546  0.0031 -0.5317
 1524TIP3    H226132   3.392   5.055   8.479  1.6524 -0.2290  0.4594
 1525TIP3   OH226133   5.581   3.836   7.495  0.3558  0.4668 -0.1208
 1525TIP3    H126134   5.635   3.771   7.451 -0.9012 -0.2314 -0.6759
 1525TIP3    H226135   5.498   3.834   7.449  0.0242  1.9346  0.3392
 1526TIP3   OH226136   4.402   2.455   8.603 -0.5327 -0.3400  0.0232
 1526TIP3    H126137   4.460   2.414   8.539 -0.4958  3.0622 -2.4295
 1526TIP3    H226138   4.443   2.437   8.688  3.6825  0.9471 -1.4729
 1527TIP3   OH226139   5.541   6.025   0.496  0.0835  0.6892  0.5783
 1527TIP3    H126140   5.518   6.044   0.587 -2.2507 -0.5014  0.3368
 1527TIP3    H226141   5.462   5.983   0.460  0.7815  1.4855 -2.1199
 1528TIP3   OH226142   3.952   4.775   0.054  0.1675 -0.3946 -0.2528
 1528TIP3    H126143   3.924   4.807  -0.032 -0.8226 -0.9477 -0.1537
 1528TIP3    H226144   4.009   4.844   0.088  2.5367 -1.1989 -2.3370
 1529TIP3   OH226145   6.370   6.285   6.989 -0.7391  0.1085 -0.2998
 1529TIP3    H126146   6.347   6.374   7.014 -1.5106  0.5587 -2.3592
 1529TIP3    H226147   6.305   6.262   6.922  0.7037 -1.2032 -1.3097
 1530TIP3   OH226148   0.793   3.082   0.047  0.3052 -0.8070  0.1677
 1530TIP3    H126149   0.854   3.062  -0.024  1.4142  0.6077  0.6892
 1530TIP3    H226150   0.824   3.029   0.120  0.4930 -0.6041  0.2347
 1531TIP3   OH226151   3.758   1.819   1.986  0.0251 -0.3897  1.1061
 1531TIP3    H126152   3.834   1.792   2.037 -1.1311 -0.6714  2.7493
 1531TIP3    H226153   3.761   1.915   1.986 -0.0033 -0.3900  1.7682
 1532TIP3   OH226154   2.055   2.048   0.480  0.1214  0.0736  0.0302
 1532TIP3    H126155   1.996   2.030   0.553  1.9107 -3.6056  0.7987
 1532TIP3    H226156   2.120   2.109   0.516  1.1755 -1.9335  1.8132
 1533TIP3   OH226157   0.468   3.698   1.427 -0.3113 -0.4472 -0.4419
 1533TIP3    H126158   0.510   3.782   1.404 -0.2654 -0.5722 -0.8287
 1533TIP3    H226159   0.387   3.723   1.471  0.7858 -0.1934  1.5533
 1534TIP3   OH226160   0.687   6.017   0.953 -0.0618 -0.3279 -0.4023
 1534TIP3    H126161   0.598   6.053   0.962  0.5960  1.3648 -0.1011
 1534TIP3    H226162   0.679   5.926   0.981 -1.3966  0.2520  1.3463
 1535TIP3   OH226163   0.994   3.381   1.755 -0.1432  0.4849 -0.3292
 1535TIP3    H126164   1.077   3.380   1.803 -0.0457  2.5165 -0.3561
 1535TIP3    H226165   0.927   3.368   1.822  0.1697 -1.1529 -0.3052
 1536TIP3   OH226166   2.989   0.824   0.083  0.0183 -0.0359  0.5837
 1536TIP3    H126167   3.078   0.859   0.087  0.6695 -1.3769 -0.9618
 1536TIP3    H226168   2.993   0.741   0.130 -1.1100  1.0910  2.7940
 1537TIP3   OH226169   0.538   5.188   2.625 -0.4842 -0.3180  0.0885
 1537TIP3    H126170   0.590   5.261   2.593 -0.4057 -0.9078 -1.2071
 1537TIP3    H226171   0.455   5.195   2.579 -0.9411 -0.3469  0.8871
 1538TIP3   OH226172   3.219   3.143   1.326  0.4655 -0.4646  0.3470
 1538TIP3    H126173   3.299   3.091   1.336  0.7501 -0.0826  0.0915
 1538TIP3    H226174   3.199   3.141   1.233  1.3899  1.1922  0.0754
 1539TIP3   OH226175   4.721   5.572   0.203 -0.4674 -0.5403 -0.7695
 1539TIP3    H126176   4.661   5.599   0.272  2.2053  1.9108  0.8607
 1539TIP3    H226177   4.785   5.516   0.248 -0.5868 -1.7619 -2.0669
 1540TIP3   OH226178   6.009   2.548   2.292 -0.1576 -0.6849 -0.0192
 1540TIP3    H126179   6.080   2.488   2.310  1.2045  1.1910  1.2162
 1540TIP3    H226180   6.036   2.631   2.332 -1.0829  1.2976 -3.0943
 1541TIP3   OH226181   0.661   6.158   6.612 -0.4940 -0.3755  0.2887
 1541TIP3    H126182   0.715   6.237   6.609 -0.4708 -0.4171 -0.4443
 1541TIP3    H226183   0.591   6.174   6.548 -1.2735 -0.3907  1.0990
 1542TIP3   OH226184   4.904   4.271   2.085  0.2417  0.2158  0.0823
 1542TIP3    H126185   4.835   4.215   2.121  1.1803 -1.3439 -0.4339
 1542TIP3    H226186   4.914   4.242   1.994  0.5683  1.4414 -0.2976
 1543TIP3   OH226187   4.744   3.883   0.239 -0.4453  0.4812 -0.1910
 1543TIP3    H126188   4.652   3.861   0.222 -0.5544 -0.1684  1.1894
 1543TIP3    H226189   4.742   3.938   0.317  0.4263 -0.4803  0.5293
 1544TIP3   OH226190   5.837   0.611   7.472 -0.3922 -0.1202 -0.3389
 1544TIP3    H126191   5.905   0.543   7.476 -0.3079 -0.0030  0.4334
 1544TIP3    H226192   5.810   0.613   7.380  1.5012  0.6602 -0.9198
 1545TIP3   OH226193   2.529   2.081   0.885  0.7224 -0.1657  0.1130
 1545TIP3    H126194   2.472   2.154   0.910  0.3779 -0.2940 -0.2926
 1545TIP3    H226195   2.590   2.119   0.822  0.7746 -0.1469  0.1740
 1546TIP3   OH226196   5.119   5.450   2.086 -0.1920 -0.3357  0.1893
 1546TIP3    H126197   5.185   5.395   2.043 -0.2831  0.8171 -1.4809
 1546TIP3    H226198   5.045   5.451   2.025 -1.1401 -0.2842  1.3012
 1547TIP3   OH226199   5.395   4.081   0.014  0.2311  0.1127  0.5273
 1547TIP3    H126200   5.367   4.069  -0.077  0.4029 -0.4121  0.5427
 1547TIP3    H226201   5.354   4.009   0.061  0.3276  0.2544  0.8306
 1548TIP3   OH226202   4.355   6.006   1.625  0.1237 -0.1474  0.0612
 1548TIP3    H126203   4.314   6.025   1.541 -1.7153 -0.1508  0.9134
 1548TIP3    H226204   4.314   5.924   1.654  0.0538  0.3208  1.3646
 1549TIP3   OH226205   4.076   0.902   1.119 -0.2972 -0.4632 -0.5158
 1549TIP3    H126206   3.982   0.885   1.127 -0.1916 -0.4954  0.7663
 1549TIP3    H226207   4.084   0.956   1.040 -1.3496 -0.7103 -0.8078
 1550TIP3   OH226208   2.658   6.852   2.240  0.1293  0.1042 -0.8841
 1550TIP3    H126209   2.730   6.903   2.202 -0.4605 -0.1350 -2.3825
 1550TIP3    H226210   2.594   6.918   2.265  0.4053  0.2487 -0.5478
 1551TIP3   OH226211   0.978   2.294   2.437 -0.0634 -0.0911 -0.1391
 1551TIP3    H126212   0.989   2.201   2.417 -0.4349 -0.3089  0.6169
 1551TIP3    H226213   1.005   2.302   2.528  2.2216  0.9891 -0.8214
 1552TIP3   OH226214   2.578   2.995   1.315 -0.4228 -0.1351 -0.1640
 1552TIP3    H126215   2.484   2.986   1.327 -0.9455  2.6363 -1.4816
 1552TIP3    H226216   2.607   3.049   1.388  0.3160 -1.4633  0.5694
 1553TIP3   OH226217   4.076   5.045   7.541 -0.1910 -0.5754 -0.0532
 1553TIP3    H126218   4.061   5.133   7.507  1.0915 -0.4230 -0.2861
 1553TIP3    H226219   4.055   4.987   7.467  0.3693 -0.3699 -0.3835
 1554TIP3   OH226220   4.149   2.215   7.011 -0.3489 -0.1376  0.0547
 1554TIP3    H126221   4.218   2.180   6.955 -1.0121 -2.6466  0.6734
 1554TIP3    H226222   4.081   2.243   6.950  0.0904 -0.1835 -0.4647
 1555TIP3   OH226223   6.400   1.264   7.561 -0.1872  0.2779 -0.1432
 1555TIP3    H126224   6.384   1.356   7.580 -0.7377  0.1173  0.1826
 1555TIP3    H226225   6.323   1.235   7.512 -0.7337 -0.3826  1.0536
 1556TIP3   OH226226   6.003   5.254   1.292 -0.3106 -0.3937  0.0771
 1556TIP3    H126227   5.963   5.198   1.358  1.1639 -0.4720  0.9403
 1556TIP3    H226228   6.068   5.199   1.250 -1.0103 -0.2490 -1.2527
 1557TIP3   OH226229   2.171   2.087   8.284  0.0935  1.5994  0.5484
 1557TIP3    H126230   2.172   2.062   8.376  0.2393  0.0254  0.1554
 1557TIP3    H226231   2.102   2.033   8.246  0.2698  1.9770 -0.3358
 1558TIP3   OH226232   6.097   5.381   0.969 -0.5673  0.6625 -0.3159
 1558TIP3    H126233   6.178   5.350   0.929 -0.8464  0.7279 -0.9492
 1558TIP3    H226234   6.116   5.384   1.063 -0.2058 -0.4199 -0.3458
 1559TIP3   OH226235   0.018   3.931   8.392 -0.3429  0.2611 -0.5032
 1559TIP3    H126236  -0.045   3.860   8.386  0.2075 -0.3198  0.2863
 1559TIP3    H226237   0.100   3.893   8.359 -0.0918  0.5879 -0.2628
 1560TIP3   OH226238   6.262   0.479   8.421 -0.0695 -0.0154  0.0479
 1560TIP3    H126239   6.194   0.413   8.425 -0.9650  0.8311 -0.7435
 1560TIP3    H226240   6.285   0.485   8.329  0.2492  0.5270  0.1533
 1561TIP3   OH226241   4.551   1.565   8.579 -0.2249 -0.2626 -0.0112
 1561TIP3    H126242   4.566   1.652   8.541 -0.4950  0.2133  0.9464
 1561TIP3    H226243   4.638   1.530   8.595 -0.1085 -0.3499 -0.7737
 1562TIP3   OH226244   3.630   2.553   1.670 -0.0874  0.5063 -0.0937
 1562TIP3    H126245   3.626   2.639   1.711 -2.4978  0.8221 -0.8728
 1562TIP3    H226246   3.561   2.502   1.713  0.1939 -0.5063 -0.8058
 1563TIP3   OH226247   1.886   5.260   7.943 -0.6097  0.4562  0.0124
 1563TIP3    H126248   1.908   5.350   7.920  1.1846 -0.1791 -1.0048
 1563TIP3    H226249   1.845   5.225   7.863 -0.6593  0.1722  0.1624
 1564TIP3   OH226250   3.078   4.239   1.080 -0.0816  0.0678 -1.5388
 1564TIP3    H126251   3.144   4.205   1.141 -1.5437  0.1887  0.1965
 1564TIP3    H226252   3.110   4.325   1.055  0.1154  0.3949 -0.2126
 1565TIP3   OH226253   0.175   2.752   0.925  0.4097 -0.3867 -0.0638
 1565TIP3    H126254   0.113   2.819   0.896  2.5118  0.7949 -2.1750
 1565TIP3    H226255   0.225   2.795   0.995 -1.3316 -1.5029  1.9806
 1566TIP3   OH226256   6.865   2.977   0.008 -0.6185 -0.2856 -0.4623
 1566TIP3    H126257   6.869   2.939   0.095 -0.6182 -0.2826 -0.4610
 1566TIP3    H226258   6.949   3.021  -0.003 -0.8381  0.1921 -0.2485
 1567TIP3   OH226259   5.216   1.398   8.547  0.4776 -0.0543  0.5014
 1567TIP3    H126260   5.252   1.310   8.558 -0.1398 -0.1928  1.5787
 1567TIP3    H226261   5.144   1.387   8.485  1.1010 -0.1029 -0.2251
 1568TIP3   OH226262   0.819   5.254   6.633 -0.3698 -0.0900  0.2888
 1568TIP3    H126263   0.800   5.161   6.649 -0.7391  0.2419  2.0065
 1568TIP3    H226264   0.913   5.262   6.651  0.0315 -0.3985 -1.4411
 1569TIP3   OH226265   6.353   6.492   7.265  0.1105 -0.1404 -0.5182
 1569TIP3    H126266   6.364   6.521   7.355  1.1922  0.9623 -0.9752
 1569TIP3    H226267   6.307   6.565   7.222 -0.3381 -0.6255 -0.8711
 1570TIP3   OH226268   5.162   1.335   6.634 -0.0956 -0.0231  0.2053
 1570TIP3    H126269   5.107   1.262   6.608 -1.5471  0.6914  1.0826
 1570TIP3    H226270   5.117   1.372   6.711  0.9583  1.3537  0.1965
 1571TIP3   OH226271   0.032   0.870   8.071 -0.4934 -0.5307 -0.0742
 1571TIP3    H126272   0.045   0.875   7.977 -2.1173 -3.1271 -0.5385
 1571TIP3    H226273  -0.063   0.879   8.083 -0.1302  2.5535  1.6560
 1572TIP3   OH226274   3.137   2.815   6.809  0.4029 -0.5054 -0.0651
 1572TIP3    H126275   3.099   2.758   6.743  0.3675 -0.5626  0.0048
 1572TIP3    H226276   3.083   2.802   6.887  0.6231 -0.6586  0.0623
 1573TIP3   OH226277   5.330   6.804   2.858 -0.0276 -0.1878 -0.6297
 1573TIP3    H126278   5.376   6.818   2.775  1.7515  0.2306  0.3587
 1573TIP3    H226279   5.347   6.885   2.908 -0.4183 -0.7345  0.4133
 1574TIP3   OH226280   4.495   6.763   2.405  0.0640  0.8768  0.5540
 1574TIP3    H126281   4.569   6.703   2.407 -0.2297  0.4601 -0.3211
 1574TIP3    H226282   4.510   6.824   2.477  0.6077  0.0377  1.1563
 1575TIP3   OH226283   5.366   1.160   6.544 -0.1189 -0.1270 -0.4561
 1575TIP3    H126284   5.310   1.088   6.575 -0.9708  0.5839 -0.2959
 1575TIP3    H226285   5.314   1.238   6.559  0.7494  0.5188 -0.7504
 1576TIP3   OH226286   6.318   1.234   1.895 -0.2718 -0.7553 -0.0535
 1576TIP3    H126287   6.386   1.287   1.854 -1.0850 -0.7821 -1.4877
 1576TIP3    H226288   6.296   1.282   1.976 -0.8278  1.0362 -1.1964
 1577TIP3   OH226289   3.336   6.653   0.705 -0.4383  0.0414  0.0836
 1577TIP3    H126290   3.373   6.736   0.736 -0.0142  0.0841 -0.5052
 1577TIP3    H226291   3.328   6.599   0.783  0.4431  0.2044  0.2951
 1578TIP3   OH226292   5.456   1.333   1.092 -0.0083 -0.6407  0.0844
 1578TIP3    H126293   5.453   1.249   1.138 -2.1154 -0.4430  0.4051
 1578TIP3    H226294   5.400   1.320   1.015 -0.7630  0.5899  0.4017
 1579TIP3   OH226295   0.340   6.169   0.221  0.4726  0.4662 -0.6082
 1579TIP3    H126296   0.402   6.098   0.233  0.8359  1.1305  2.0859
 1579TIP3    H226297   0.320   6.168   0.128  1.3751 -2.3640 -0.8623
 1580TIP3   OH226298   2.085   3.630   1.104 -0.2452  0.7293  0.7238
 1580TIP3    H126299   2.039   3.584   1.175 -0.7805 -0.1225 -0.1596
 1580TIP3    H226300   2.168   3.584   1.095  0.3629  1.6122  1.6088
 1581TIP3   OH226301   5.322   5.724   7.319 -0.0968 -0.7268 -0.9296
 1581TIP3    H126302   5.272   5.662   7.372  0.5096  1.1345  2.0623
 1581TIP3    H226303   5.402   5.740   7.370  0.7160  0.9289 -2.6077
 1582TIP3   OH226304   1.563   5.167   0.072  0.0892  0.2098 -0.3393
 1582TIP3    H126305   1.601   5.211   0.148 -0.8131 -1.4827  1.1887
 1582TIP3    H226306   1.632   5.107   0.043  0.7546  1.4721 -1.4512
 1583TIP3   OH226307   4.513   0.028   0.904  0.1229 -0.3656 -0.4996
 1583TIP3    H126308   4.537  -0.059   0.936  0.0216  0.1009  0.9214
 1583TIP3    H226309   4.539   0.028   0.812  5.6587  0.0440  0.7210
 1584TIP3   OH226310   1.661   4.322   0.240  0.0184 -0.0853 -0.0485
 1584TIP3    H126311   1.643   4.304   0.333  0.0368 -2.5814 -0.4560
 1584TIP3    H226312   1.754   4.302   0.230  0.6214  2.5296 -0.1523
 1585TIP3   OH226313   5.024   2.546   2.420 -0.1055 -0.1119 -0.5010
 1585TIP3    H126314   5.052   2.634   2.447  0.4210 -0.8028  1.3720
 1585TIP3    H226315   4.930   2.544   2.438 -0.2295  0.2547 -1.0998
 1586TIP3   OH226316   1.723   0.509   1.812  0.8152  0.0347 -0.4197
 1586TIP3    H126317   1.733   0.526   1.718  4.0639  0.2518 -0.1219
 1586TIP3    H226318   1.718   0.414   1.819  0.8562  0.0073 -0.7661
 1587TIP3   OH226319   6.080   1.856   1.851  0.2467  0.8392 -0.6572
 1587TIP3    H126320   6.005   1.909   1.877  1.0983  2.3786 -1.1807
 1587TIP3    H226321   6.110   1.815   1.932 -0.7441  0.7427 -0.3266
 1588TIP3   OH226322   2.041   3.407   0.775  0.3338 -0.4396 -0.2457
 1588TIP3    H126323   2.047   3.375   0.865  1.1643  1.6456  0.5190
 1588TIP3    H226324   2.104   3.480   0.772 -1.9365  1.6043 -1.5797
 1589TIP3   OH226325   5.366   2.366   7.677  0.1437  0.1861  0.2001
 1589TIP3    H126326   5.340   2.456   7.654 -0.0177  0.2195  0.5164
 1589TIP3    H226327   5.339   2.314   7.602  1.3170  0.5727 -0.5361
 1590TIP3   OH226328   4.962   6.809   1.627 -0.1764  0.3859  0.2427
 1590TIP3    H126329   4.991   6.751   1.698  0.2044 -0.6566 -0.7456
 1590TIP3    H226330   4.975   6.758   1.547  2.2580  2.5465 -0.9101
 1591TIP3   OH226331   1.817   2.349   0.987 -0.0975  0.0580 -0.8237
 1591TIP3    H126332   1.739   2.333   1.040  0.8053 -2.5910 -0.1640
 1591TIP3    H226333   1.869   2.269   0.996  3.3977  2.2337 -0.1222
 1592TIP3   OH226334   3.816   5.326   2.618 -0.5334 -0.3807  0.1522
 1592TIP3    H126335   3.763   5.291   2.690 -0.0836  1.7992  1.6048
 1592TIP3    H226336   3.774   5.408   2.595  1.8298  1.1456  0.9701
 1593TIP3   OH226337   6.594   3.322   7.278  0.4661 -0.1834  0.3941
 1593TIP3    H126338   6.617   3.292   7.366  0.8325  0.6421  0.5902
 1593TIP3    H226339   6.544   3.250   7.241 -1.6556  0.2949  2.1023
 1594TIP3   OH226340   2.473   0.050   0.986 -0.3179 -0.0375 -0.0390
 1594TIP3    H126341   2.523  -0.031   0.992  1.5336  1.1218  0.7482
 1594TIP3    H226342   2.400   0.028   0.928  1.0559 -1.8060 -1.2074
 1595TIP3   OH226343   4.230   4.298   1.895  0.0706 -0.0682 -0.0585
 1595TIP3    H126344   4.326   4.301   1.899  0.1973  1.4910 -2.2067
 1595TIP3    H226345   4.202   4.307   1.986  1.9427 -0.7654  0.6391
 1596TIP3   OH226346   4.825   5.787   3.163  0.6087 -0.7177 -0.3496
 1596TIP3    H126347   4.890   5.818   3.100 -0.0938 -0.6995 -1.0891
 1596TIP3    H226348   4.749   5.843   3.148 -0.7421 -2.7758 -1.7974
 1597TIP3   OH226349   1.017   1.845   7.360 -0.1014 -1.0575  0.4475
 1597TIP3    H126350   0.952   1.898   7.406 -0.1295 -1.3762  0.7733
 1597TIP3    H226351   1.073   1.909   7.316 -1.2992 -0.8032 -0.7617
 1598TIP3   OH226352   1.315   6.101   8.080  0.0705 -0.4256  0.1838
 1598TIP3    H126353   1.297   6.145   8.163  2.2283  0.4870  0.2127
 1598TIP3    H226354   1.369   6.162   8.031 -0.4601 -1.2976 -1.5863
 1599TIP3   OH226355   5.931   4.310   8.194 -0.4755 -0.2596 -0.7195
 1599TIP3    H126356   5.879   4.389   8.181 -1.7340 -1.1228 -1.0477
 1599TIP3    H226357   5.972   4.294   8.109 -1.8954 -1.1100 -1.2745
 1600TIP3   OH226358   5.578   3.605   2.000  0.3388 -0.3637  0.0506
 1600TIP3    H126359   5.629   3.534   2.041  1.5657  1.2127  1.4158
 1600TIP3    H226360   5.555   3.571   1.914 -1.3332 -3.4013  1.5441
 1601TIP3   OH226361   6.147   5.971   0.550 -0.3231 -0.0224  0.2861
 1601TIP3    H126362   6.092   5.915   0.497 -0.9139  0.1735  0.6870
 1601TIP3    H226363   6.093   5.994   0.626  0.1171  0.5981  0.4227
 1602TIP3   OH226364   0.134   5.023   7.788 -0.0619  0.5808  0.6848
 1602TIP3    H126365   0.175   4.983   7.712  0.1029 -0.8729  1.5119
 1602TIP3    H226366   0.040   5.003   7.779 -0.0285  0.3129  0.9104
 1603TIP3   OH226367   2.829   2.430   3.210  0.2237  0.0076  0.0022
 1603TIP3    H126368   2.825   2.500   3.145 -2.6893  0.0193  0.0927
 1603TIP3    H226369   2.776   2.359   3.173  1.8551 -1.6168  0.6002
 1604TIP3   OH226370   4.383   3.828   7.373 -0.5264 -0.0894 -0.2963
 1604TIP3    H126371   4.302   3.794   7.411 -0.4424 -0.4899 -0.4685
 1604TIP3    H226372   4.441   3.840   7.447 -0.2372 -1.2107 -0.3213
 1605TIP3   OH226373   2.696   5.472   0.806  0.0876 -0.6716  1.0184
 1605TIP3    H126374   2.718   5.381   0.784 -0.0540 -0.5125  0.2184
 1605TIP3    H226375   2.637   5.464   0.881 -3.0950 -1.4836 -1.3659
 1606TIP3   OH226376   1.300   6.112   1.350 -0.2626  0.3404  0.4382
 1606TIP3    H126377   1.379   6.105   1.295 -0.4069  0.7384  0.1752
 1606TIP3    H226378   1.317   6.187   1.407 -1.3167  1.8049 -1.0785
 1607TIP3   OH226379   2.966   5.174   2.505  0.6399 -0.3930  0.3265
 1607TIP3    H126380   3.053   5.133   2.500  0.5956 -0.4538  0.0458
 1607TIP3    H226381   2.976   5.259   2.463  0.1803 -1.0539 -1.1810
 1608TIP3   OH226382   3.588   0.315   7.354 -0.2018 -0.0160  0.1453
 1608TIP3    H126383   3.612   0.253   7.422  1.5906  1.8087  1.3169
 1608TIP3    H226384   3.507   0.355   7.385 -2.2268 -2.7113 -1.3588
 1609TIP3   OH226385   2.288   0.499   1.781 -0.4283  0.1486 -0.7761
 1609TIP3    H126386   2.252   0.493   1.693  0.2220 -0.7831 -0.9943
 1609TIP3    H226387   2.337   0.417   1.793 -1.6480 -0.3893  0.9670
 1610TIP3   OH226388   0.518   2.096   0.159  0.1644  0.0323 -0.3410
 1610TIP3    H126389   0.542   2.004   0.166  1.2856  0.3336 -0.1548
 1610TIP3    H226390   0.590   2.144   0.199 -1.5323  0.8994  1.9080
 1611TIP3   OH226391   4.851   3.250   0.067  0.4475 -0.0645  0.3065
 1611TIP3    H126392   4.815   3.295  -0.009  1.2026 -0.7762 -0.4826
 1611TIP3    H226393   4.915   3.313   0.103  0.8361 -0.1276 -0.2559
 1612TIP3   OH226394   6.887   6.168   2.130 -0.0892 -0.3588 -0.4553
 1612TIP3    H126395   6.794   6.151   2.146 -0.2381  1.4632  0.8678
 1612TIP3    H226396   6.933   6.115   2.194 -0.2582 -0.4765 -0.4310
 1613TIP3   OH226397   2.738   2.238   0.768 -0.2035  0.2107  0.3730
 1613TIP3    H126398   2.682   2.316   0.764 -0.6225 -0.0704  0.8000
 1613TIP3    H226399   2.820   2.267   0.728 -0.0065  1.1676  1.4174
 1614TIP3   OH226400   5.790   1.696   1.435  0.0455 -0.3261  0.1289
 1614TIP3    H126401   5.851   1.632   1.399 -0.2855 -2.2089  2.6118
 1614TIP3    H226402   5.810   1.698   1.529 -2.5256  0.2869  0.7524
 1615TIP3   OH226403   3.079   2.224   0.863  0.2388  0.2360 -0.3446
 1615TIP3    H126404   3.133   2.188   0.933 -0.1074 -0.8746 -0.6256
 1615TIP3    H226405   2.996   2.245   0.905 -0.1720 -0.9780 -0.5171
 1616TIP3   OH226406   2.766   5.371   2.658  0.6397 -0.3380 -0.3986
 1616TIP3    H126407   2.764   5.432   2.584 -0.6564  0.6548  0.3942
 1616TIP3    H226408   2.677   5.374   2.693  1.3740 -0.2875  1.5669
 1617TIP3   OH226409   1.391   0.676   7.764  0.1340  0.2631 -0.2349
 1617TIP3    H126410   1.412   0.600   7.709 -0.4191  0.0113 -0.1051
 1617TIP3    H226411   1.387   0.639   7.853 -0.8352  0.3051 -0.2539
 1618TIP3   OH226412   3.960   4.960   2.455 -0.1282 -0.3981 -0.3616
 1618TIP3    H126413   3.980   4.994   2.542 -2.8537 -0.5956  0.4236
 1618TIP3    H226414   3.967   5.036   2.397  1.8379 -0.2939 -0.0545
 1619TIP3   OH226415   3.365   4.775   1.402 -0.1091  0.0263  0.7464
 1619TIP3    H126416   3.397   4.809   1.485  1.7716 -0.9797  0.4892
 1619TIP3    H226417   3.445   4.751   1.354 -1.0441  1.6602 -1.8251
 1620TIP3   OH226418   3.026   2.826   0.792 -0.1121 -0.4827  0.0506
 1620TIP3    H126419   2.989   2.854   0.875 -0.4954 -0.5397 -0.0947
 1620TIP3    H226420   3.078   2.749   0.813 -1.8201 -1.7253 -0.0239
 1621TIP3   OH226421   0.868   2.666   7.305 -0.1133  0.0594 -0.6767
 1621TIP3    H126422   0.937   2.712   7.257 -0.2212  0.0921 -0.8026
 1621TIP3    H226423   0.794   2.663   7.243  0.2834 -1.3178 -1.1032
 1622TIP3   OH226424   2.497   1.057   0.735 -0.0106  0.3061  0.4171
 1622TIP3    H126425   2.486   0.963   0.724  0.2321  0.1570  1.3333
 1622TIP3    H226426   2.449   1.096   0.662  0.6582 -0.5462 -0.5077
 1623TIP3   OH226427   6.237   5.076   7.469  0.3508 -0.1377  0.2800
 1623TIP3    H126428   6.291   5.120   7.403  1.4955 -1.1919  0.4740
 1623TIP3    H226429   6.289   5.080   7.549 -0.7622  0.5899  0.9801
 1624TIP3   OH226430   3.691   1.184   8.373 -0.3632  0.5689  0.2227
 1624TIP3    H126431   3.707   1.139   8.457 -1.0317 -0.3158 -0.1091
 1624TIP3    H226432   3.771   1.169   8.323  0.3372  1.7214  0.9536
 1625TIP3   OH226433   2.799   0.867   7.463  0.0076  0.0072  0.2368
 1625TIP3    H126434   2.753   0.874   7.379  1.1552 -3.1376 -0.8015
 1625TIP3    H226435   2.826   0.957   7.482 -0.9105  0.9601 -2.3794
 1626TIP3   OH226436   3.762   0.382   0.859  0.0882  0.1232 -0.3400
 1626TIP3    H126437   3.756   0.295   0.899 -0.7208  0.1371 -0.4133
 1626TIP3    H226438   3.696   0.434   0.904  0.9204  0.8576  0.0606
 1627TIP3   OH226439   2.052   1.550   2.825  0.8387 -0.0969 -0.3610
 1627TIP3    H126440   2.082   1.637   2.850  2.3507 -0.4036 -0.9592
 1627TIP3    H226441   2.132   1.498   2.818 -0.0279 -1.5378 -0.0319
 1628TIP3   OH226442   0.568   2.589   1.010  0.2151  0.3427 -0.3691
 1628TIP3    H126443   0.604   2.501   1.021  1.1604  0.9043  1.5251
 1628TIP3    H226444   0.544   2.594   0.917  0.8141 -1.6351 -0.6826
 1629TIP3   OH226445   1.932   1.778   2.620  0.5682  0.0462  0.2372
 1629TIP3    H126446   1.988   1.737   2.555  0.1153  0.2183 -0.2749
 1629TIP3    H226447   1.990   1.797   2.694  1.1656  0.1572 -0.2509
 1630TIP3   OH226448   6.358   4.712   6.425  0.0162  0.8228  0.0679
 1630TIP3    H126449   6.419   4.749   6.489  0.6771  1.2799 -0.8098
 1630TIP3    H226450   6.357   4.775   6.353 -0.8092  0.3760 -0.3307
 1631TIP3   OH226451   0.649   4.732   8.585  0.0126  0.1489 -0.7451
 1631TIP3    H126452   0.721   4.766   8.532  0.2297  0.3973 -0.2937
 1631TIP3    H226453   0.572   4.744   8.529 -0.1113  2.5001 -0.1866
 1632TIP3   OH226454   0.981   0.683   1.691  0.0884 -0.0515  0.4747
 1632TIP3    H126455   0.890   0.712   1.695 -0.4908 -1.5503 -0.9106
 1632TIP3    H226456   0.976   0.589   1.676  1.8726 -0.0889 -0.1386
 1633TIP3   OH226457   0.887   2.121   7.876 -0.1859  0.4271  0.1906
 1633TIP3    H126458   0.834   2.050   7.840 -0.1551  0.5920 -0.1845
 1633TIP3    H226459   0.934   2.157   7.800  0.7103  0.0730  0.5555
 1634TIP3   OH226460   5.347   1.327   0.224 -0.3590 -0.7208 -0.6997
 1634TIP3    H126461   5.398   1.364   0.297 -1.0399  1.1660 -1.1400
 1634TIP3    H226462   5.308   1.248   0.261  0.6746 -0.7311  0.4635
 1635TIP3   OH226463   6.770   4.778   7.294  0.2795  0.8127 -0.1695
 1635TIP3    H126464   6.728   4.694   7.275  1.5743  0.4347 -1.6260
 1635TIP3    H226465   6.733   4.805   7.378 -1.7951 -0.1258 -0.7126
 1636TIP3   OH226466   4.302   6.013   0.048 -0.1289  0.4647  0.1124
 1636TIP3    H126467   4.222   5.962   0.035  0.6394 -0.5666 -0.6559
 1636TIP3    H226468   4.272   6.104   0.047 -1.6063  0.0663  2.1426
 1637TIP3   OH226469   6.885   1.206   1.762  0.3582  0.3365 -0.1602
 1637TIP3    H126470   6.800   1.204   1.718 -0.2070 -0.4072  0.9165
 1637TIP3    H226471   6.863   1.215   1.855  1.4385 -0.2354  0.1661
 1638TIP3   OH226472   1.568   6.852   1.848 -0.2398 -0.6300 -0.1294
 1638TIP3    H126473   1.524   6.919   1.900  1.7650  1.6061 -1.1174
 1638TIP3    H226474   1.585   6.894   1.764  0.8822 -2.4805 -0.8994
 1639TIP3   OH226475   5.436   6.324   0.440  0.0721 -0.7107  0.3166
 1639TIP3    H126476   5.507   6.260   0.432  1.4368  0.6879  0.7309
 1639TIP3    H226477   5.462   6.380   0.513  0.4518  2.1118 -1.8073
 1640TIP3   OH226478   6.512   3.849   0.038  0.7381 -0.7128  0.0164
 1640TIP3    H126479   6.498   3.942   0.019 -0.3223 -1.2179 -2.0230
 1640TIP3    H226480   6.430   3.807   0.010  2.3494 -2.6167 -2.2701
 1641TIP3   OH226481   5.243   0.758   8.399  0.8961  0.0415 -0.3864
 1641TIP3    H126482   5.217   0.846   8.427 -0.1275 -0.5155  0.4675
 1641TIP3    H226483   5.252   0.765   8.304  0.7738  1.0561 -0.3332
 1642TIP3   OH226484   3.838   5.477   2.273  0.1752  0.6693  0.0830
 1642TIP3    H126485   3.780   5.473   2.349  0.2611  0.1925  0.1303
 1642TIP3    H226486   3.810   5.404   2.217 -0.8004  1.8405 -1.0201
 1643TIP3   OH226487   3.103   2.761   0.374 -0.1227  0.0850  0.2177
 1643TIP3    H126488   3.030   2.777   0.314  0.7276  2.7405 -0.2081
 1643TIP3    H226489   3.107   2.840   0.428  1.3840 -0.7409  1.3785
 1644TIP3   OH226490   1.687   2.346   7.685 -0.3096 -0.1695 -0.1454
 1644TIP3    H126491   1.752   2.320   7.619 -1.4975 -0.7490 -1.1390
 1644TIP3    H226492   1.710   2.295   7.763  0.2287 -0.6331 -0.5989
 1645TIP3   OH226493   3.212   2.900   8.224 -0.1647 -0.4296  0.0212
 1645TIP3    H126494   3.289   2.861   8.184  1.6049  0.2754  2.4679
 1645TIP3    H226495   3.159   2.930   8.150  2.3932 -0.0292 -1.7911
 1646TIP3   OH226496   4.058   3.067   0.170 -0.0950  0.3745  0.0800
 1646TIP3    H126497   4.015   3.152   0.169 -1.4756 -0.2240  2.1208
 1646TIP3    H226498   4.029   3.024   0.090 -0.6911  1.2156 -0.1577
 1647TIP3   OH226499   3.019   5.802   6.630 -0.2043 -0.2133 -0.0132
 1647TIP3    H126500   3.034   5.885   6.585 -1.2622 -0.2070 -0.3702
 1647TIP3    H226501   3.080   5.803   6.703 -2.1985  2.2375  1.7772
 1648TIP3   OH226502   4.096   0.271   2.343  1.3138  0.2815  0.2193
 1648TIP3    H126503   4.095   0.351   2.290  0.2291  1.1235  1.4639
 1648TIP3    H226504   4.131   0.298   2.428  2.0592 -0.8398  0.3030
 1649TIP3   OH226505   4.016   1.391   0.291  0.0642 -0.0572 -0.4689
 1649TIP3    H126506   3.964   1.471   0.280  0.7484  0.7070  1.3755
 1649TIP3    H226507   4.080   1.413   0.359  2.5409 -1.1201 -2.3133
 1650TIP3   OH226508   5.839   1.902   1.965  0.4789  0.3904  0.2915
 1650TIP3    H126509   5.802   1.901   2.053  0.1455  0.6531  0.1572
 1650TIP3    H226510   5.763   1.899   1.906  0.7507 -1.8621 -0.0059
 1651TIP3   OH226511   5.072   1.733   1.291 -0.2742  0.6236 -0.8206
 1651TIP3    H126512   5.074   1.793   1.217 -1.6674  0.9109 -0.6443
 1651TIP3    H226513   5.023   1.780   1.359 -0.1806 -0.1672 -0.1873
 1652TIP3   OH226514   0.974   0.336   7.569 -0.0348 -0.0255  0.2973
 1652TIP3    H126515   0.999   0.429   7.573  0.1097  0.0285 -1.2327
 1652TIP3    H226516   0.979   0.306   7.659  1.4768  1.0641  0.6226
 1653TIP3   OH226517   6.483   0.469   1.143  0.0252  0.2945 -0.0730
 1653TIP3    H126518   6.441   0.538   1.194  3.1924  1.1505  1.6209
 1653TIP3    H226519   6.488   0.394   1.202  1.0464  0.3084 -0.1136
 1654TIP3   OH226520   2.793   3.832   1.886 -0.0764  0.5843  0.1019
 1654TIP3    H126521   2.820   3.804   1.974 -0.0504  2.2915  0.6802
 1654TIP3    H226522   2.873   3.868   1.847 -0.3473  0.8770 -0.1877
 1655TIP3   OH226523   3.420   1.554   2.375 -0.3205 -0.0669 -0.7085
 1655TIP3    H126524   3.460   1.612   2.441 -0.1506 -0.5681 -0.3610
 1655TIP3    H226525   3.371   1.490   2.426 -0.0242 -0.5812 -1.0613
 1656TIP3   OH226526   0.712   4.980   7.405 -0.4038  0.1896  0.1102
 1656TIP3    H126527   0.651   4.937   7.345  0.4727 -0.9049 -0.0164
 1656TIP3    H226528   0.674   4.967   7.492 -1.1786  0.9376 -0.1067
 1657TIP3   OH226529   6.163   6.602   0.546 -1.0590 -0.1533 -0.0092
 1657TIP3    H126530   6.193   6.564   0.463  3.2855 -0.1160  1.2743
 1657TIP3    H226531   6.207   6.687   0.549 -2.5200  0.5827  1.5886
 1658TIP3   OH226532   3.244   1.805   1.115  0.3920 -0.3845 -0.4693
 1658TIP3    H126533   3.265   1.842   1.029  0.9930 -0.6733 -0.4493
 1658TIP3    H226534   3.183   1.733   1.095 -1.5356  1.1487 -0.4335
 1659TIP3   OH226535   4.274   2.975   1.441  0.4314  0.9465  0.0488
 1659TIP3    H126536   4.284   3.059   1.396  1.7172  1.4384  1.1699
 1659TIP3    H226537   4.198   2.987   1.498 -1.6823  0.0709 -2.3899
 1660TIP3   OH226538   2.042   0.669   2.354  0.9348  0.2273  0.2042
 1660TIP3    H126539   2.104   0.710   2.414  0.9886  2.7190 -1.3782
 1660TIP3    H226540   2.063   0.708   2.269 -0.8599 -1.1564 -0.9396
 1661TIP3   OH226541   2.176   6.464   1.374 -0.1250  0.1685  0.3652
 1661TIP3    H126542   2.153   6.557   1.373  1.2240  0.5191  0.7740
 1661TIP3    H226543   2.136   6.430   1.454 -2.9529 -0.2665 -1.0949
 1662TIP3   OH226544   5.512   5.510   1.217  0.2037 -0.1650  0.2064
 1662TIP3    H126545   5.569   5.435   1.228  3.2122  1.6062 -1.7332
 1662TIP3    H226546   5.526   5.563   1.295  1.0813  0.1305 -0.1380
 1663TIP3   OH226547   3.343   5.524   8.513 -0.3156  0.0449  0.6470
 1663TIP3    H126548   3.255   5.538   8.476 -0.1239  0.6179  0.3911
 1663TIP3    H226549   3.327   5.496   8.603 -0.7701 -0.2018  0.4910
 1664TIP3   OH226550   3.802   3.672   0.005  0.0949  0.5421 -0.3740
 1664TIP3    H126551   3.766   3.599  -0.045 -0.0385  1.1131 -1.1298
 1664TIP3    H226552   3.877   3.702  -0.046  0.1072  0.9688 -0.1123
 1665TIP3   OH226553   2.050   2.523   7.471 -0.0845  0.2809 -0.1097
 1665TIP3    H126554   2.091   2.596   7.425  1.9748 -0.6531  0.1640
 1665TIP3    H226555   1.984   2.490   7.410 -0.6488  1.9839 -0.4627
 1666TIP3   OH226556   6.191   3.578   1.275 -0.7688 -0.0978  0.2118
 1666TIP3    H126557   6.206   3.626   1.357 -0.8392  0.1919  0.0572
 1666TIP3    H226558   6.216   3.488   1.295 -1.0184 -0.0786  0.6240
 1667TIP3   OH226559   2.795   2.626   7.564  0.3002  0.4892  1.1571
 1667TIP3    H126560   2.804   2.716   7.597  0.2816  1.7550 -1.9187
 1667TIP3    H226561   2.701   2.609   7.569  0.4043  0.2431  2.6080
 1668TIP3   OH226562   2.735   5.534   2.425 -0.5983 -0.4668 -0.6720
 1668TIP3    H126563   2.766   5.622   2.404 -1.4783 -0.1191 -0.5623
 1668TIP3    H226564   2.649   5.528   2.384 -1.3287 -0.6118  0.8157
 1669TIP3   OH226565   2.847   3.174   0.285  0.0680  0.3560  0.0686
 1669TIP3    H126566   2.791   3.155   0.210 -0.2581  2.4772 -0.2869
 1669TIP3    H226567   2.906   3.243   0.255 -0.8895  2.1673  2.0440
 1670TIP3   OH226568   5.636   2.252   1.794 -0.5638 -0.5097 -0.6456
 1670TIP3    H126569   5.628   2.227   1.886 -0.2736 -1.1694 -0.8016
 1670TIP3    H226570   5.697   2.190   1.757 -0.0026  0.2943 -1.0922
 1671TIP3   OH226571   2.763   4.531   8.649  0.0605  0.1540  0.7171
 1671TIP3    H126572   2.782   4.488   8.732  1.2610  1.0107  0.9084
 1671TIP3    H226573   2.848   4.556   8.614 -0.3895 -0.4274 -0.9296
 1672TIP3   OH226574   1.187   3.214   8.650  0.2951 -0.3040 -0.1726
 1672TIP3    H126575   1.176   3.255   8.737 -0.8817 -0.1700 -0.3639
 1672TIP3    H226576   1.152   3.126   8.661  0.0175 -0.2412 -0.5452
 1673TIP3   OH226577   0.747   5.739   2.009  0.6705 -0.4218 -0.4479
 1673TIP3    H126578   0.811   5.797   1.968  0.1398 -0.0901 -0.8104
 1673TIP3    H226579   0.708   5.791   2.079  1.4689 -0.9397  0.4032
 1674TIP3   OH226580   6.808   2.642   2.377  0.1465  0.2793  0.3551
 1674TIP3    H126581   6.851   2.562   2.403 -0.6478  0.2385  1.6384
 1674TIP3    H226582   6.750   2.616   2.305 -0.3107 -0.3559  0.9463
 1675TIP3   OH226583   4.292   3.500   2.039  0.3598 -0.4931  0.5200
 1675TIP3    H126584   4.299   3.506   1.944 -0.2145 -3.2923  0.2076
 1675TIP3    H226585   4.223   3.562   2.063 -0.9113 -1.2002 -1.1599
 1676TIP3   OH226586   1.293   4.673   8.262 -0.0087  0.0439  0.0907
 1676TIP3    H126587   1.383   4.676   8.292  0.2970  2.0908 -0.8669
 1676TIP3    H226588   1.297   4.626   8.178  0.0002 -0.6419  0.4642
 1677TIP3   OH226589   5.261   3.636   1.648 -0.0530  0.1753  0.2956
 1677TIP3    H126590   5.232   3.633   1.556  1.7688  0.2279 -0.3231
 1677TIP3    H226591   5.260   3.545   1.676 -0.1168  0.0979  0.0523
 1678TIP3   OH226592   2.597   0.097   0.355  0.4357 -0.0962  0.3204
 1678TIP3    H126593   2.577   0.173   0.300  1.2746  2.9270  3.7503
 1678TIP3    H226594   2.515   0.048   0.358 -1.3819  2.7027  0.7313
 1679TIP3   OH226595   0.012   2.240   1.410  0.3076  0.5966  0.1978
 1679TIP3    H126596  -0.029   2.226   1.324  1.9825 -1.6749 -0.3053
 1679TIP3    H226597  -0.061   2.265   1.467 -1.2996 -0.4408 -1.2995
 1680TIP3   OH226598   5.290   2.940   2.855  0.3218 -0.6362  0.3906
 1680TIP3    H126599   5.346   2.864   2.837  1.2247 -0.2342  1.4293
 1680TIP3    H226600   5.329   3.011   2.805 -1.0060 -0.9865 -1.2628
 1681TIP3   OH226601   5.028   1.707   8.320  0.2242 -0.2110 -0.2057
 1681TIP3    H126602   5.036   1.801   8.337  0.6650 -0.2381 -0.2323
 1681TIP3    H226603   5.110   1.685   8.274  0.1708 -0.6286 -0.1011
 1682TIP3   OH226604   0.964   5.869   1.568 -0.3666 -0.2328 -0.0853
 1682TIP3    H126605   0.899   5.801   1.558  0.3729 -0.8335 -0.9688
 1682TIP3    H226606   1.042   5.835   1.524  1.6050 -0.9040  3.5113
 1683TIP3   OH226607   0.481   5.993   1.194 -0.0148 -0.5728  0.3232
 1683TIP3    H126608   0.471   6.070   1.137  3.3514  0.2382  0.5926
 1683TIP3    H226609   0.488   6.030   1.282 -1.7094 -1.5337  0.8954
 1684TIP3   OH226610   6.322   5.405   1.484  0.0101 -0.1779  0.4156
 1684TIP3    H126611   6.397   5.441   1.436 -0.0439 -2.6679 -1.7579
 1684TIP3    H226612   6.345   5.313   1.498 -2.2508 -0.7962  0.4568
 1685TIP3   OH226613   0.144   2.232   0.536  0.5002 -0.2806  0.0692
 1685TIP3    H126614   0.140   2.142   0.504  0.6751 -0.4965  0.6458
 1685TIP3    H226615   0.184   2.281   0.464 -0.5257 -0.4704 -0.6441
 1686TIP3   OH226616   1.103   3.716   1.307  0.2392  0.6124  0.1794
 1686TIP3    H126617   1.099   3.694   1.400 -2.5022 -0.8262 -0.1827
 1686TIP3    H226618   1.046   3.792   1.296  2.7554  2.6182  0.0053
 1687TIP3   OH226619   2.425   6.821   2.698  0.5457  0.3663 -0.1305
 1687TIP3    H126620   2.400   6.751   2.638  3.0962  0.6487 -1.6271
 1687TIP3    H226621   2.499   6.787   2.747 -0.1687  0.9192  1.4275
 1688TIP3   OH226622   1.853   4.190   2.189 -0.2184  0.3514 -0.4761
 1688TIP3    H126623   1.851   4.211   2.282 -3.4559 -0.4998 -0.2546
 1688TIP3    H226624   1.797   4.255   2.148 -0.9318 -0.8144 -1.4297
 1689TIP3   OH226625   1.305   2.745   6.927 -0.1620 -0.8946 -0.2990
 1689TIP3    H126626   1.246   2.674   6.900 -1.3368  0.4288 -1.3932
 1689TIP3    H226627   1.282   2.818   6.870  1.0843  0.3535  0.7200
 1690TIP3   OH226628   5.479   5.843   1.920  0.2213  0.0775  0.2715
 1690TIP3    H126629   5.550   5.856   1.857 -0.9851  2.1044 -0.7977
 1690TIP3    H226630   5.415   5.790   1.873 -1.8660  3.7000 -1.4359
 1691TIP3   OH226631   3.895   6.817   0.769  0.5602  0.7529  0.1431
 1691TIP3    H126632   3.937   6.773   0.694  2.4749  0.3266  1.3978
 1691TIP3    H226633   3.817   6.765   0.786 -0.5224  1.4844 -2.1913
 1692TIP3   OH226634   5.291   2.443   0.080 -0.0805 -0.1915  0.2429
 1692TIP3    H126635   5.300   2.439   0.175 -1.8447  2.6762  0.6371
 1692TIP3    H226636   5.253   2.528   0.063 -0.7612 -1.0139 -3.0098
 1693TIP3   OH226637   3.452   2.369   8.642 -0.0089 -0.0698  0.4593
 1693TIP3    H126638   3.452   2.274   8.628  1.2679 -0.0867  0.4140
 1693TIP3    H226639   3.375   2.400   8.596  0.7617 -0.8411 -1.4799
 1694TIP3   OH226640   0.323   4.467   8.389 -0.3493 -0.2197  0.1750
 1694TIP3    H126641   0.241   4.432   8.424  0.5813 -0.1898  2.5129
 1694TIP3    H226642   0.353   4.531   8.453  1.4399 -0.1068 -0.6931
 1695TIP3   OH226643   2.515   5.945   7.337 -0.2379 -0.0424  0.6563
 1695TIP3    H126644   2.555   5.860   7.357 -0.8132 -0.8097 -1.1834
 1695TIP3    H226645   2.551   5.969   7.252  0.1919  1.7751  1.3173
 1696TIP3   OH226646   1.756   4.440   2.086  0.1961  0.0544 -0.3536
 1696TIP3    H126647   1.767   4.497   2.162 -2.1537  0.2945 -0.1262
 1696TIP3    H226648   1.789   4.491   2.012 -0.7981  1.2469  0.0127
 1697TIP3   OH226649   0.991   3.124   1.681  0.3897 -0.0906  0.0372
 1697TIP3    H126650   0.939   3.133   1.600 -1.7614 -0.2981  1.3208
 1697TIP3    H226651   0.991   3.213   1.718  0.8670 -0.1231  0.1194
 1698TIP3   OH226652   2.208   3.488   1.690 -0.7955 -0.8553  0.0872
 1698TIP3    H126653   2.303   3.475   1.682 -0.7629 -0.8569  0.4560
 1698TIP3    H226654   2.188   3.558   1.628 -0.4180 -0.2597  0.6330
 1699TIP3   OH226655   4.698   5.349   1.068  0.5939  0.1320 -0.2520
 1699TIP3    H126656   4.694   5.375   0.976 -0.4036  1.4814  0.1600
 1699TIP3    H226657   4.787   5.374   1.095  1.0224 -0.6014 -0.9198
 1700TIP3   OH226658   4.977   2.922   2.645 -0.0622 -0.2343 -0.1978
 1700TIP3    H126659   4.931   2.962   2.719 -0.5133 -0.7647 -0.1856
 1700TIP3    H226660   5.058   2.973   2.637  0.6555 -1.0325  1.5093
 1701TIP3   OH226661   3.693   2.863   2.320 -0.0989  0.2358 -0.6340
 1701TIP3    H126662   3.600   2.882   2.307 -0.2022 -1.2687 -2.5202
 1701TIP3    H226663   3.704   2.774   2.288  1.6557 -0.3622  1.3817
 1702TIP3   OH226664   0.034   0.356   6.655 -0.0331 -0.4006 -0.1034
 1702TIP3    H126665  -0.049   0.381   6.695  0.4189  1.9353 -0.5240
 1702TIP3    H226666   0.076   0.438   6.631  1.9225 -1.5559 -0.9267
 1703TIP3   OH226667   3.000   1.256   0.091 -1.0568 -0.7370  0.1667
 1703TIP3    H126668   2.927   1.211   0.135 -1.2311 -0.5582  0.0622
 1703TIP3    H226669   3.001   1.220   0.003 -0.5338 -1.2936  0.3978
 1704TIP3   OH226670   5.382   3.892   0.608 -0.2431  0.4809  0.3603
 1704TIP3    H126671   5.455   3.854   0.558 -0.1432  1.4756 -0.2848
 1704TIP3    H226672   5.412   3.891   0.699  0.2038  0.0467  0.2147
 1705TIP3   OH226673   4.947   5.886   0.590  0.6601  0.4248 -0.1480
 1705TIP3    H126674   4.941   5.952   0.658  1.2039  0.5284 -0.1947
 1705TIP3    H226675   4.914   5.806   0.631  2.1718  0.1765  0.6680
 1706TIP3   OH226676   5.060   1.162   7.010  0.1434 -0.1296 -0.4651
 1706TIP3    H126677   4.994   1.157   7.078  0.4891  1.6473  0.0623
 1706TIP3    H226678   5.142   1.140   7.054  0.3851  1.1396 -0.2315
 1707TIP3   OH226679   0.186   4.078   0.469  0.2733 -0.3851 -0.3248
 1707TIP3    H126680   0.271   4.052   0.434  0.4386 -0.8488  0.4005
 1707TIP3    H226681   0.138   3.996   0.478 -0.5993 -0.0467 -1.5886
 1708TIP3   OH226682   5.246   1.433   0.604 -0.3015 -0.5287  0.2584
 1708TIP3    H126683   5.195   1.367   0.557  0.8776 -0.5509 -1.0362
 1708TIP3    H226684   5.320   1.451   0.547 -0.5412  1.8635  0.5990
 1709TIP3   OH226685   1.625   5.726   8.647  0.0945 -0.3623 -0.0129
 1709TIP3    H126686   1.575   5.682   8.715  0.6478  0.3176  0.8456
 1709TIP3    H226687   1.674   5.795   8.692 -1.0042  1.4052 -1.3364
 1710TIP3   OH226688   3.491   5.351   0.890 -0.6755 -0.4096 -0.1739
 1710TIP3    H126689   3.416   5.295   0.908 -1.8152  1.0775 -0.1117
 1710TIP3    H226690   3.456   5.419   0.832  0.6986  0.1528 -0.3678
 1711TIP3   OH226691   0.129   5.928   1.276 -0.5015  0.3532  0.3317
 1711TIP3    H126692   0.222   5.909   1.283 -0.2263  1.9703  1.6488
 1711TIP3    H226693   0.091   5.849   1.236  1.5939  0.1724 -1.5226
 1712TIP3   OH226694   1.808   3.480   0.631 -0.3370  0.2857 -0.5708
 1712TIP3    H126695   1.886   3.447   0.675 -0.5844  1.3532  0.7524
 1712TIP3    H226696   1.841   3.551   0.574 -0.4482  1.7549  1.1028
 1713TIP3   OH226697   2.420   3.616   0.623  0.0113  0.5133  0.3236
 1713TIP3    H126698   2.469   3.538   0.595 -0.8251  0.8021 -2.2009
 1713TIP3    H226699   2.343   3.581   0.667 -1.2941 -0.2765 -2.3618
 1714TIP3   OH226700   2.186   6.639   8.243  0.5488  0.0203 -0.4255
 1714TIP3    H126701   2.163   6.690   8.166  2.3271  0.9564 -0.3826
 1714TIP3    H226702   2.189   6.702   8.315  1.6413 -0.3181 -0.1476
 1715TIP3   OH226703   5.950   4.976   0.799  0.0391  0.4091 -0.2865
 1715TIP3    H126704   5.981   5.040   0.735  1.2046 -0.5961 -0.7678
 1715TIP3    H226705   5.920   4.902   0.746 -1.3485  0.5415  0.2589
 1716TIP3   OH226706   3.743   5.492   0.038  0.3294  0.7716  0.0642
 1716TIP3    H126707   3.726   5.416  -0.018  0.4120  0.8717 -0.0980
 1716TIP3    H226708   3.824   5.470   0.084 -0.4454  0.1010  1.1701
 1717TIP3   OH226709   5.781   6.786   2.119  0.6216  0.2972 -0.4718
 1717TIP3    H126710   5.772   6.827   2.205  0.5598  0.9585 -0.7870
 1717TIP3    H226711   5.797   6.693   2.138 -2.6711 -0.2543  0.2532
 1718TIP3   OH226712   2.840   1.122   1.670  0.1493 -0.1297  0.1935
 1718TIP3    H126713   2.804   1.034   1.674  0.4493 -0.3478 -1.3633
 1718TIP3    H226714   2.841   1.144   1.577  3.6336 -0.0054  0.1102
 1719TIP3   OH226715   2.261   0.158   2.480  0.0141  0.7559  0.4002
 1719TIP3    H126716   2.235   0.241   2.439 -1.0664  0.6984  0.9090
 1719TIP3    H226717   2.242   0.172   2.573  0.7995  0.2923  0.6321
 1720TIP3   OH226718   1.926   5.374   8.281  0.1472 -0.1916  0.3461
 1720TIP3    H126719   1.848   5.349   8.232 -0.0811 -1.7664  1.4451
 1720TIP3    H226720   1.896   5.441   8.343  0.7085  2.9320 -2.4328
 1721TIP3   OH226721   5.952   3.348   1.779  0.0549  0.0457  0.1159
 1721TIP3    H126722   5.936   3.279   1.843 -2.5791  1.4873  1.1818
 1721TIP3    H226723   5.961   3.302   1.696  0.6050 -1.6905  1.0830
 1722TIP3   OH226724   6.133   6.826   7.962 -0.0051  0.4635  0.0207
 1722TIP3    H126725   6.058   6.781   7.924  0.3835  0.4610 -0.7447
 1722TIP3    H226726   6.163   6.768   8.032 -0.5881  0.3733  0.2038
 1723TIP3   OH226727   1.222   4.049   1.059 -0.1222 -0.0621  0.1326
 1723TIP3    H126728   1.174   4.102   0.995  0.4973  1.2180  0.6687
 1723TIP3    H226729   1.163   4.042   1.133  0.1173  0.6689  0.4061
 1724TIP3   OH226730   5.262   2.620   1.204 -0.0320 -0.4336 -0.2143
 1724TIP3    H126731   5.341   2.578   1.172  1.4682  0.8216  1.6439
 1724TIP3    H226732   5.287   2.661   1.287 -2.6568 -0.0811  0.5230
 1725TIP3   OH226733   6.116   0.446   2.337  0.1626 -0.3244 -0.2369
 1725TIP3    H126734   6.173   0.491   2.399  1.3639 -0.1808 -1.4050
 1725TIP3    H226735   6.116   0.355   2.367 -0.1122 -0.0709  0.5667
 1726TIP3   OH226736   0.565   2.189   1.547 -0.1448 -0.4789 -0.5132
 1726TIP3    H126737   0.529   2.138   1.619 -0.8965 -0.0105 -0.5443
 1726TIP3    H226738   0.502   2.260   1.534  1.1612  0.8107 -0.0750
 1727TIP3   OH226739   2.122   2.379   8.428 -0.0889  0.4145 -0.2189
 1727TIP3    H126740   2.157   2.468   8.431  0.5441  0.1851 -0.5322
 1727TIP3    H226741   2.199   2.324   8.410 -0.1627 -0.3738  1.6409
 1728TIP3   OH226742   1.273   5.342   2.352  0.3433  0.2210 -0.2652
 1728TIP3    H126743   1.234   5.322   2.437  2.4115  2.0907  1.2627
 1728TIP3    H226744   1.270   5.438   2.346  0.8361  0.1764 -2.0078
 1729TIP3   OH226745   6.617   5.625   7.052  0.0260  0.8355  0.2575
 1729TIP3    H126746   6.663   5.639   6.970 -1.3196 -1.4384 -0.9797
 1729TIP3    H226747   6.563   5.703   7.063  0.0370  1.0682 -1.1616
 1730TIP3   OH226748   2.707   3.416   1.452 -0.3491 -0.6770  0.4315
 1730TIP3    H126749   2.784   3.372   1.416 -1.8591 -1.4255 -2.1987
 1730TIP3    H226750   2.705   3.501   1.406 -0.7335 -0.3865  0.9718
 1731TIP3   OH226751   6.766   2.050   0.379  0.6078 -0.3481  0.0337
 1731TIP3    H126752   6.672   2.064   0.362  0.5115  0.1958  0.9936
 1731TIP3    H226753   6.810   2.111   0.319  0.3003  0.5695  0.7168
 1732TIP3   OH226754   4.203   5.098   0.727 -0.5891  0.4421 -0.0340
 1732TIP3    H126755   4.288   5.138   0.708 -0.6710 -0.0387 -1.4607
 1732TIP3    H226756   4.206   5.012   0.685 -0.4148 -1.1674  2.9753
 1733TIP3   OH226757   2.629   5.098   2.040 -0.8913 -0.4027 -0.4031
 1733TIP3    H126758   2.711   5.141   2.064 -1.2699 -0.8124  1.8887
 1733TIP3    H226759   2.567   5.126   2.107 -2.4684 -0.5866 -1.7487
 1734TIP3   OH226760   6.344   5.867   0.399  0.7513 -0.0329 -0.0234
 1734TIP3    H126761   6.278   5.891   0.463  1.9836  1.6965  0.6901
 1734TIP3    H226762   6.318   5.780   0.368 -0.7844 -0.1906  1.5880
 1735TIP3   OH226763   5.306   6.178   1.240  0.5931  0.3387  0.5373
 1735TIP3    H126764   5.375   6.244   1.234 -0.2063  1.1047 -1.0349
 1735TIP3    H226765   5.238   6.219   1.293  0.4673  0.4192  0.3128
 1736TIP3   OH226766   1.987   6.461   8.589 -0.2498  0.5194 -0.0225
 1736TIP3    H126767   1.971   6.554   8.572 -0.1899  0.7675  1.1685
 1736TIP3    H226768   2.082   6.452   8.589 -0.1670 -0.3295 -3.8984
 1737TIP3   OH226769   3.662   6.727   2.152 -0.1276 -0.1493 -0.3254
 1737TIP3    H126770   3.670   6.704   2.244  1.1444  3.6610  0.7202
 1737TIP3    H226771   3.751   6.721   2.118 -0.6426 -1.8968 -1.5114
 1738TIP3   OH226772   1.160   6.237   8.581  0.7676 -0.2553  0.3128
 1738TIP3    H126773   1.079   6.287   8.565  2.2816  2.4911  0.5574
 1738TIP3    H226774   1.133   6.164   8.636 -1.7165 -0.1055 -0.5766
 1739TIP3   OH226775   3.224   5.125   8.081 -0.8157  0.2338  0.2481
 1739TIP3    H126776   3.165   5.052   8.101  0.4439 -0.6168  0.9569
 1739TIP3    H226777   3.166   5.194   8.048 -2.0754 -0.9375 -0.0562
 1740TIP3   OH226778   2.246   5.222   7.981  0.1519  0.0938 -0.1851
 1740TIP3    H126779   2.164   5.238   8.027  0.1496  0.6172 -0.3624
 1740TIP3    H226780   2.235   5.137   7.940  0.3577 -0.6479  1.2258
 1741TIP3   OH226781   6.616   2.304   8.455 -0.8073  0.0400 -0.8430
 1741TIP3    H126782   6.686   2.244   8.430 -0.5948  0.4510 -1.2528
 1741TIP3    H226783   6.662   2.380   8.491 -1.0845 -0.2218  0.1151
 1742TIP3   OH226784   5.233   5.463   1.289 -0.1906  0.0351  0.1111
 1742TIP3    H126785   5.311   5.484   1.238 -0.2882 -1.0096 -0.4942
 1742TIP3    H226786   5.257   5.384   1.337  0.9003  2.4196  3.9473
 1743TIP3   OH226787   0.762   6.502   2.226 -0.1983 -0.1799  0.6702
 1743TIP3    H126788   0.817   6.540   2.157 -0.0679  1.6039  1.6847
 1743TIP3    H226789   0.823   6.481   2.297 -0.5909  0.0473  1.0807
 1744TIP3   OH226790   1.128   6.444   0.132 -0.1573 -0.1373 -0.2095
 1744TIP3    H126791   1.115   6.374   0.196  3.2701 -1.7872 -1.0878
 1744TIP3    H226792   1.076   6.418   0.056  0.6041 -1.4899 -0.3013
 1745TIP3   OH226793   5.486   3.076   0.247  0.4238 -0.3419  0.2559
 1745TIP3    H126794   5.532   3.031   0.318 -0.7181 -0.8929  0.6757
 1745TIP3    H226795   5.424   3.134   0.292  0.7002  0.3838 -0.2914
 1746TIP3   OH226796   0.452   3.054   8.061 -0.1261  0.2295 -0.3871
 1746TIP3    H126797   0.410   3.134   8.031  3.4022  2.5168  0.1797
 1746TIP3    H226798   0.526   3.041   8.002  2.1846  0.2460  2.2580
 1747TIP3   OH226799   2.269   1.485   8.266 -0.0236  0.1162 -0.4579
 1747TIP3    H126800   2.198   1.516   8.210 -0.2226  0.9974  0.2664
 1747TIP3    H226801   2.313   1.565   8.296  2.1406 -0.4010 -1.9654
 1748TIP3   OH226802   3.747   0.303   2.555 -0.0268 -0.6748  0.1251
 1748TIP3    H126803   3.799   0.286   2.477  0.3685  0.3186  0.1599
 1748TIP3    H226804   3.745   0.398   2.563 -1.5910 -0.6915  0.3113
 1749TIP3   OH226805   2.022   5.571   6.997 -0.1513 -0.6939 -0.1837
 1749TIP3    H126806   1.975   5.600   7.075 -2.2143  0.0875 -1.6303
 1749TIP3    H226807   2.114   5.581   7.020 -0.6997  0.4750  1.7895
 1750TIP3   OH226808   0.573   3.899   2.436 -0.5127  0.1467 -0.3011
 1750TIP3    H126809   0.582   3.958   2.511  0.5395 -0.6218  0.1991
 1750TIP3    H226810   0.515   3.829   2.467 -3.3507  1.7790 -1.4812
 1751TIP3   OH226811   4.715   0.438   0.810  0.0661  0.1702  0.2984
 1751TIP3    H126812   4.707   0.376   0.738  2.4983 -1.1772  1.0957
 1751TIP3    H226813   4.652   0.407   0.876 -0.1949 -0.2215 -0.1327
 1752TIP3   OH226814   5.315   2.170   8.647  0.1800  0.0291  0.1120
 1752TIP3    H126815   5.253   2.162   8.575 -0.0468 -1.6048  0.4371
 1752TIP3    H226816   5.317   2.263   8.668 -0.8755  0.3259 -1.0129
 1753TIP3   OH226817   5.605   5.750   7.131 -0.4211 -0.0611  0.6432
 1753TIP3    H126818   5.531   5.751   7.190  0.3879  1.7499  1.7298
 1753TIP3    H226819   5.680   5.726   7.186 -0.1346 -1.6587 -0.3854
 1754TIP3   OH226820   2.944   1.705   1.914  0.2044 -0.1268 -0.0856
 1754TIP3    H126821   3.034   1.688   1.941 -0.1657  1.9076  3.0318
 1754TIP3    H226822   2.893   1.695   1.995 -2.0547  0.6707 -1.3203
 1755TIP3   OH226823   5.722   2.775   1.690 -0.3128  0.1123  0.1434
 1755TIP3    H126824   5.780   2.707   1.726 -2.0536 -1.1099  0.7506
 1755TIP3    H226825   5.634   2.744   1.709 -1.2042  1.7441 -1.0975
 1756TIP3   OH226826   2.812   1.216   8.559  0.0627 -0.3150  0.2181
 1756TIP3    H126827   2.786   1.194   8.470 -0.5072 -0.6945  0.4743
 1756TIP3    H226828   2.732   1.208   8.610  0.4687 -0.4783  0.8352
 1757TIP3   OH226829   0.331   4.660   7.933  0.5057  0.1217 -0.1880
 1757TIP3    H126830   0.251   4.679   7.884 -0.4221 -0.5356  0.9962
 1757TIP3    H226831   0.310   4.581   7.983  1.6947  0.2739  0.6026
 1758TIP3   OH226832   5.039   2.337   7.771 -0.3803  0.0131 -0.0896
 1758TIP3    H126833   5.011   2.343   7.862 -0.5346 -0.2933 -0.1139
 1758TIP3    H226834   5.019   2.424   7.734  0.0193  0.2545  0.2576
 1759TIP3   OH226835   0.443   0.603   8.412 -0.1837 -0.2039 -0.0641
 1759TIP3    H126836   0.405   0.522   8.377 -1.3391 -0.5905  1.9734
 1759TIP3    H226837   0.373   0.668   8.404  0.2579  0.2435 -0.3622
 1760TIP3   OH226838   3.675   3.220   7.980 -0.7148 -0.2525  0.6389
 1760TIP3    H126839   3.751   3.169   8.008 -0.7516 -1.0773 -0.6667
 1760TIP3    H226840   3.604   3.156   7.978 -1.7042  0.6943  2.7272
 1761TIP3   OH226841   2.062   6.777   8.007 -0.1837 -0.4526 -0.5982
 1761TIP3    H126842   2.075   6.793   7.914 -1.1738  0.5550 -0.5863
 1761TIP3    H226843   1.971   6.745   8.014 -0.7228  1.1172  0.1616
 1762TIP3   OH226844   1.460   0.945   2.228  0.0375 -0.0194  0.2774
 1762TIP3    H126845   1.529   1.008   2.206 -0.1711  0.0111 -0.3116
 1762TIP3    H226846   1.488   0.864   2.186 -1.5749  0.6484 -2.3062
 1763TIP3   OH226847   2.225   0.542   2.097  0.3491 -0.7593  0.2595
 1763TIP3    H126848   2.172   0.620   2.114  0.3554 -1.1191  2.1639
 1763TIP3    H226849   2.195   0.510   2.013 -1.1913  0.0776  0.4633
 1764TIP3   OH226850   6.133   0.247   1.236  0.5432  0.0556 -0.4596
 1764TIP3    H126851   6.079   0.182   1.283  1.2838 -1.0685 -1.1115
 1764TIP3    H226852   6.098   0.248   1.147 -0.0338  1.2322 -0.2331
 1765TIP3   OH226853   4.691   2.570   1.752 -0.1695 -0.1361  0.0132
 1765TIP3    H126854   4.746   2.647   1.743 -0.7213  0.2336 -0.2284
 1765TIP3    H226855   4.719   2.530   1.834 -1.3399  1.5194  1.2801
 1766TIP3   OH226856   6.020   3.602   8.196 -0.5827  0.1455 -0.9408
 1766TIP3    H126857   5.983   3.686   8.222 -0.2271  0.4280 -1.3381
 1766TIP3    H226858   6.012   3.601   8.100 -0.9855 -0.4606 -0.9064
 1767TIP3   OH226859   5.505   4.741   0.077  0.0059  0.2884 -0.4111
 1767TIP3    H126860   5.528   4.750   0.169 -0.6118  2.0563 -0.3896
 1767TIP3    H226861   5.579   4.693   0.038  1.5021  1.7107  0.5406
 1768TIP3   OH226862   2.461   2.620   1.119 -0.5522  0.1797  0.3447
 1768TIP3    H126863   2.445   2.542   1.172 -1.8247 -0.3649 -0.7773
 1768TIP3    H226864   2.374   2.657   1.103  0.0299  1.9024  0.9273
 1769TIP3   OH226865   2.509   4.945   0.867  0.2394  0.0314 -0.2590
 1769TIP3    H126866   2.507   5.039   0.883  1.4861  0.1467 -0.7202
 1769TIP3    H226867   2.453   4.908   0.935 -0.8863  1.1554 -0.5321
 1770TIP3   OH226868   2.189   5.292   0.388  0.5316  0.2331 -0.3131
 1770TIP3    H126869   2.273   5.338   0.399  0.7793  0.4366 -2.5669
 1770TIP3    H226870   2.194   5.254   0.301 -0.3908 -2.6882  0.7937
 1771TIP3   OH226871   2.201   6.451   7.925  0.6219 -0.1646  0.0280
 1771TIP3    H126872   2.223   6.472   7.834  0.8589 -0.6495 -0.0269
 1771TIP3    H226873   2.109   6.424   7.921  0.6383 -0.2067 -0.0705
 1772TIP3   OH226874   1.755   5.151   1.382  0.1263  0.3296 -0.1133
 1772TIP3    H126875   1.725   5.064   1.355  0.6175 -0.6614  2.3410
 1772TIP3    H226876   1.775   5.142   1.475 -2.5581  3.7736  1.0218
 1773TIP3   OH226877   5.605   2.394   8.635  0.5500 -0.4960  0.1474
 1773TIP3    H126878   5.681   2.448   8.655  1.7494 -2.5086  1.2561
 1773TIP3    H226879   5.532   2.457   8.633  2.3228  1.7304 -2.4059
 1774TIP3   OH226880   6.870   5.205   2.587 -0.3720  0.5861 -0.2592
 1774TIP3    H126881   6.926   5.148   2.640 -1.7426 -1.6818 -1.0899
 1774TIP3    H226882   6.834   5.268   2.649 -0.9764 -1.2247  1.3452
 1775TIP3   OH226883   3.820   1.718   0.499  0.2827  0.1104 -0.1864
 1775TIP3    H126884   3.889   1.674   0.548 -0.4366 -0.1924  0.5746
 1775TIP3    H226885   3.745   1.718   0.558 -0.1287  1.1650 -0.6969
 1776TIP3   OH226886   3.038   5.756   0.729 -0.0715  0.0521  0.0366
 1776TIP3    H126887   3.064   5.791   0.644  0.3024  0.3655  0.2787
 1776TIP3    H226888   3.008   5.832   0.778 -0.3194 -0.1347  0.1755
 1777TIP3   OH226889   2.033   3.025   7.807 -0.1423 -0.5515 -0.0682
 1777TIP3    H126890   1.981   2.945   7.817 -1.5358  0.2815 -0.2196
 1777TIP3    H226891   2.038   3.038   7.712  1.2317 -1.1554 -0.0915
 1778TIP3   OH226892   3.001   2.486   7.724 -0.5751  0.2337  0.4326
 1778TIP3    H126893   2.919   2.493   7.676  0.4488 -0.3456 -1.5299
 1778TIP3    H226894   3.061   2.545   7.677  0.9491 -1.6657 -0.1232
 1779TIP3   OH226895   6.460   4.112   0.023  0.5765 -0.2490  0.1612
 1779TIP3    H126896   6.381   4.167   0.016  1.6241  1.1949 -1.1288
 1779TIP3    H226897   6.517   4.160   0.084  0.0183 -1.9246  2.0956
 1780TIP3   OH226898   2.748   0.561   1.948  0.1080 -0.0366 -0.5426
 1780TIP3    H126899   2.670   0.518   1.912 -0.7069  0.3756  0.6510
 1780TIP3    H226900   2.716   0.648   1.975  1.2525  0.5695 -1.0749
 1781TIP3   OH226901   1.976   1.922   6.768 -0.1300 -0.4400  0.0059
 1781TIP3    H126902   2.064   1.886   6.780  0.5946  1.1624 -0.2415
 1781TIP3    H226903   1.982   2.011   6.802 -1.5747 -0.1862 -0.3464
 1782TIP3   OH226904   3.992   3.224   7.160  0.0803 -0.6300  0.1289
 1782TIP3    H126905   4.068   3.260   7.114  0.7783 -0.1195  1.5924
 1782TIP3    H226906   4.018   3.225   7.252 -1.1793 -1.7927  0.5260
 1783TIP3   OH226907   2.944   3.746   7.982 -0.2127 -0.5153 -0.0465
 1783TIP3    H126908   2.950   3.680   7.913  2.9765  1.0391 -1.4601
 1783TIP3    H226909   3.021   3.731   8.037 -0.2607  1.0465  0.4967
 1784TIP3   OH226910   6.491   4.502   8.512 -0.3964  0.2795 -0.4528
 1784TIP3    H126911   6.538   4.502   8.429  2.6203 -1.3394  1.0761
 1784TIP3    H226912   6.438   4.582   8.511 -0.6971  0.1717 -3.9630
 1785TIP3   OH226913   3.943   4.382   0.234  0.9124 -0.2239  0.0390
 1785TIP3    H126914   3.976   4.309   0.288  0.0522 -0.4999  0.2117
 1785TIP3    H226915   3.989   4.373   0.151  1.0826 -0.7546  0.1852
 1786TIP3   OH226916   1.750   4.720   1.977  0.0682  0.1229 -0.2166
 1786TIP3    H126917   1.750   4.769   1.894 -1.2184 -0.3869 -0.5397
 1786TIP3    H226918   1.686   4.766   2.031  0.0205 -0.2713  0.0572
 1787TIP3   OH226919   0.766   3.515   0.149 -0.3128 -0.0469 -0.4686
 1787TIP3    H126920   0.805   3.526   0.236 -0.9223 -1.5478  0.0378
 1787TIP3    H226921   0.675   3.544   0.160 -0.0083  1.1360 -1.0010
 1788TIP3   OH226922   2.429   6.032   1.267 -0.4369 -0.2968 -0.1433
 1788TIP3    H126923   2.431   5.940   1.240 -1.7159 -0.5854  0.6504
 1788TIP3    H226924   2.344   6.064   1.237  0.8248  1.2743 -2.3022
 1789TIP3   OH226925   2.542   6.012   0.327  0.4519  0.1631 -0.0438
 1789TIP3    H126926   2.537   6.104   0.353 -1.3670 -0.2065  1.0717
 1789TIP3    H226927   2.472   6.001   0.263  1.4099 -0.2046 -1.0618
 1790TIP3   OH226928   1.117   6.521   8.315  0.2171 -0.2101 -0.2072
 1790TIP3    H126929   1.062   6.598   8.327  1.3341  0.9150 -1.7928
 1790TIP3    H226930   1.170   6.517   8.395 -1.6416 -0.9426  1.0511
 1791TIP3   OH226931   5.850   1.719   0.324  0.0896  0.1387 -0.0441
 1791TIP3    H126932   5.864   1.624   0.326 -0.2831  0.0950  0.7837
 1791TIP3    H226933   5.879   1.745   0.236  1.1521 -0.5866  0.0697
 1792TIP3   OH226934   1.997   3.668   8.334 -0.0415 -0.0356 -0.3262
 1792TIP3    H126935   1.919   3.612   8.326  0.4723 -0.6373 -1.2855
 1792TIP3    H226936   2.066   3.609   8.364  0.3161  0.2643 -0.5529
 1793TIP3   OH226937   0.721   1.048   8.031 -0.3982  0.4932  0.2569
 1793TIP3    H126938   0.805   1.083   8.061 -0.0136 -0.1577 -0.0473
 1793TIP3    H226939   0.691   0.993   8.102 -0.4879  0.5930  0.2963
 1794TIP3   OH226940   1.950   0.849   1.816  0.0355 -0.0695  0.4447
 1794TIP3    H126941   1.948   0.773   1.758 -0.2234  0.8821 -0.8347
 1794TIP3    H226942   1.872   0.838   1.872 -0.4569 -0.3392 -0.2760
 1795TIP3   OH226943   6.167   2.739   7.996  0.1784 -0.2331  0.0386
 1795TIP3    H126944   6.170   2.829   8.028  0.3544 -0.2683  0.1174
 1795TIP3    H226945   6.255   2.706   8.008  0.0436 -0.5079  0.2722
 1796TIP3   OH226946   2.972   1.817   7.844  0.2247  0.7383  0.3830
 1796TIP3    H126947   3.006   1.797   7.757  1.5325  1.6438  0.6583
 1796TIP3    H226948   3.035   1.779   7.905 -0.7164  0.0423  0.9599
 1797TIP3   OH226949   0.864   6.842   0.165  0.2099  0.0900  0.1071
 1797TIP3    H126950   0.841   6.931   0.189  0.3422 -0.2350  1.5961
 1797TIP3    H226951   0.955   6.848   0.134  0.4788  0.3886  0.9068
 1798TIP3   OH226952   3.082   5.715   8.110  0.0485 -0.2092 -0.5124
 1798TIP3    H126953   3.086   5.801   8.068 -1.0018 -0.1190 -0.4465
 1798TIP3    H226954   3.159   5.669   8.076 -0.6122 -0.0569 -2.3433
 1799TIP3   OH226955   1.986   5.432   1.570  0.0042  0.8865  0.1636
 1799TIP3    H126956   1.921   5.410   1.636 -0.9543  0.3117 -0.9263
 1799TIP3    H226957   2.038   5.353   1.559 -1.9084 -0.1968 -2.0268
 1800TIP3   OH226958   6.836   4.447   0.498 -0.0338 -0.3958 -0.6146
 1800TIP3    H126959   6.916   4.397   0.513  0.6243  0.4679 -1.1414
 1800TIP3    H226960   6.800   4.461   0.585 -0.0282 -1.4389 -0.4295
 1801TIP3   OH226961   1.991   4.022   7.196  0.3260  0.6472  0.0620
 1801TIP3    H126962   1.944   4.013   7.113  1.0822 -0.6156 -0.2543
 1801TIP3    H226963   1.939   4.086   7.245 -0.7560  0.5934 -0.9436
 1802TIP3   OH226964   2.924   1.439   7.647 -0.1752  0.4239  0.2998
 1802TIP3    H126965   2.964   1.373   7.704 -1.8867 -2.4561 -1.5738
 1802TIP3    H226966   2.996   1.468   7.591  0.4169 -0.6962  0.4440
 1803TIP3   OH226967   5.750   3.987   2.388 -1.3675  0.7180  0.0866
 1803TIP3    H126968   5.740   3.906   2.437 -1.0532  1.3737  1.2746
 1803TIP3    H226969   5.753   3.959   2.296 -1.5757 -0.5722  0.4479
 1804TIP3   OH226970   2.989   5.008   0.467 -0.2071  0.4114 -0.1958
 1804TIP3    H126971   3.061   5.000   0.530 -1.1269  2.2326  1.1962
 1804TIP3    H226972   3.013   5.082   0.412 -0.4634  0.2784 -0.4876
 1805TIP3   OH226973   6.182   3.988   7.650  0.1209 -0.2375  0.1215
 1805TIP3    H126974   6.203   4.067   7.700 -1.5240 -0.0778  0.6058
 1805TIP3    H226975   6.189   4.015   7.558 -1.5134  0.8033  0.2722
 1806TIP3   OH226976   1.759   4.141   1.368  0.1682  0.5579  0.0492
 1806TIP3    H126977   1.777   4.226   1.328 -0.5489  0.7432  0.1117
 1806TIP3    H226978   1.784   4.152   1.459 -2.0148  1.4349  0.6024
 1807TIP3   OH226979   1.386   2.036   0.589  0.0104 -0.4053  0.5785
 1807TIP3    H126980   1.307   1.982   0.585  0.0284 -0.3630 -1.2810
 1807TIP3    H226981   1.404   2.059   0.498  2.1022 -0.3013  0.9561
 1808TIP3   OH226982   4.098   5.917   8.522 -0.4847  0.1427  0.1352
 1808TIP3    H126983   4.026   5.945   8.465 -0.3710 -0.2516 -0.2117
 1808TIP3    H226984   4.074   5.828   8.549  0.0365 -0.1273 -0.2675
 1809TIP3   OH226985   2.759   4.357   1.677  0.6758 -0.5339  0.0957
 1809TIP3    H126986   2.730   4.337   1.766 -1.8300  0.4976 -0.3950
 1809TIP3    H226987   2.681   4.342   1.623  1.3357  1.3812 -1.5143
 1810TIP3   OH226988   2.880   6.136   7.249  0.1423 -0.1634  0.2818
 1810TIP3    H126989   2.893   6.222   7.208 -0.9012  0.6659  1.6195
 1810TIP3    H226990   2.968   6.098   7.253  0.9969  1.7686  1.5910
 1811TIP3   OH226991   2.011   1.402   2.050 -0.2607  0.1410 -0.0989
 1811TIP3    H126992   2.013   1.307   2.038 -1.2192  0.3396 -2.4551
 1811TIP3    H226993   1.986   1.415   2.141 -1.8551 -1.9139 -0.1838
 1812TIP3   OH226994   5.056   0.465   7.154  0.4468  0.3669 -0.2516
 1812TIP3    H126995   5.028   0.494   7.067 -1.5061 -0.4962  0.0193
 1812TIP3    H226996   5.049   0.543   7.209 -0.1941  0.4843 -0.4903
 1813TIP3   OH226997   2.448   0.885   0.200 -0.8610 -0.4188  0.1118
 1813TIP3    H126998   2.487   0.821   0.260 -0.3065  0.0219  0.2323
 1813TIP3    H226999   2.463   0.970   0.242  0.0465 -0.0454 -0.8942
 1814TIP3   OH227000   2.705   2.562   2.978 -0.0885 -0.4140 -0.1013
 1814TIP3    H127001   2.726   2.645   2.936  0.8069  0.4241  1.8805
 1814TIP3    H227002   2.666   2.509   2.909  0.2302  1.2964 -1.6549
 1815TIP3   OH227003   2.129   0.815   0.801 -0.3929 -0.2813  0.1552
 1815TIP3    H127004   2.120   0.859   0.886 -0.9153 -0.4400  0.1907
 1815TIP3    H227005   2.091   0.876   0.738  0.0580 -0.1341  0.0218
 1816TIP3   OH227006   6.169   1.214   7.427  0.0532 -0.8929  0.1206
 1816TIP3    H127007   6.198   1.226   7.337 -2.3359 -0.1948 -0.6498
 1816TIP3    H227008   6.095   1.154   7.420 -0.3053 -0.6568  1.5814
 1817TIP3   OH227009   2.542   3.591   4.788 -0.5119 -0.3605 -0.0540
 1817TIP3    H127010   2.539   3.514   4.846 -0.1435 -0.2263  0.1506
 1817TIP3    H227011   2.495   3.659   4.837  1.7413  0.4393  1.1603
 1818TIP3   OH227012   4.933   2.605   7.774  0.4829  0.2446  0.2447
 1818TIP3    H127013   4.841   2.587   7.794  0.7379 -0.9722  0.4209
 1818TIP3    H227014   4.932   2.688   7.726 -0.6607  0.4492  0.6068
 1819TIP3   OH227015   5.641   3.243   1.925  0.2081  0.2125  0.2846
 1819TIP3    H127016   5.624   3.243   1.831  0.4787  1.8743  0.2081
 1819TIP3    H227017   5.727   3.203   1.934 -0.4745 -1.4139  0.0025
 1820TIP3   OH227018   5.750   1.700   0.616 -0.3436 -0.2769 -0.2081
 1820TIP3    H127019   5.803   1.725   0.540 -1.3459 -1.3130 -1.3131
 1820TIP3    H227020   5.690   1.773   0.629 -1.1815 -0.7071 -1.4270
 1821TIP3   OH227021   0.302   6.566   7.295 -0.6377 -0.4601  0.3277
 1821TIP3    H127022   0.355   6.626   7.348  1.5968 -1.7531 -0.3269
 1821TIP3    H227023   0.262   6.622   7.228  0.0869  0.5421  0.7076
 1822TIP3   OH227024   0.738   2.554   8.226  0.7714  0.3444 -0.0340
 1822TIP3    H127025   0.831   2.571   8.209  0.8035  0.1037 -0.1007
 1822TIP3    H227026   0.696   2.564   8.140  0.5726  1.4927  0.1731
 1823TIP3   OH227027   5.929   2.372   8.335 -0.0914 -0.1005 -0.2067
 1823TIP3    H127028   5.924   2.467   8.338  2.5945  0.2356 -2.0962
 1823TIP3    H227029   5.927   2.344   8.426  0.2379  1.8790  0.4522
 1824TIP3   OH227030   5.152   1.922   1.094 -0.2052 -0.1187 -0.2568
 1824TIP3    H127031   5.103   2.004   1.092 -0.8639 -0.5112 -0.7361
 1824TIP3    H227032   5.118   1.872   1.020  0.3601 -0.7289 -0.1162
 1825TIP3   OH227033   0.427   0.305   7.402 -0.6547 -0.0467  0.6787
 1825TIP3    H127034   0.423   0.328   7.309  1.9484  0.1711  0.5462
 1825TIP3    H227035   0.509   0.256   7.411 -1.6768 -1.5448  2.5868
 1826TIP3   OH227036   4.512   4.571   1.754 -0.5493  0.0636  0.4490
 1826TIP3    H127037   4.485   4.490   1.711  2.2926 -1.8276  1.9210
 1826TIP3    H227038   4.542   4.628   1.683 -0.6475 -0.9956 -0.4544
 1827TIP3   OH227039   6.648   0.831   8.157 -0.0532 -0.4851 -0.4504
 1827TIP3    H127040   6.630   0.886   8.081 -1.2363 -0.6487 -0.3155
 1827TIP3    H227041   6.640   0.742   8.124 -0.8021 -0.5576 -0.1100
 1828TIP3   OH227042   3.112   6.704   8.424  0.2088 -0.8344 -0.0444
 1828TIP3    H127043   3.192   6.678   8.378 -0.5184 -0.2352 -1.7338
 1828TIP3    H227044   3.045   6.707   8.355 -1.5068 -2.2536  1.4702
 1829TIP3   OH227045   5.394   5.022   7.192  0.1826  0.0706  0.0079
 1829TIP3    H127046   5.396   4.927   7.183 -1.0983 -0.1094  1.2974
 1829TIP3    H227047   5.439   5.039   7.275  0.5829  0.6185 -0.3145
 1830TIP3   OH227048   0.418   1.496   1.585 -0.3675 -0.2284  0.3443
 1830TIP3    H127049   0.506   1.459   1.585 -0.7437 -1.1816  1.5102
 1830TIP3    H227050   0.426   1.577   1.534  1.0575 -0.5596 -0.0018
 1831TIP3   OH227051   2.658   4.136   0.404 -0.2478 -0.3487  0.0677
 1831TIP3    H127052   2.616   4.082   0.337 -0.9928  0.5597 -0.2171
 1831TIP3    H227053   2.648   4.086   0.485 -0.0195 -1.0969 -0.3512
 1832TIP3   OH227054   5.931   5.637   0.752  0.1548  0.3200  0.1042
 1832TIP3    H127055   5.993   5.661   0.821 -0.7909  1.7878  0.5066
 1832TIP3    H227056   5.853   5.689   0.772 -1.0776 -1.2053 -0.5872
 1833TIP3   OH227057   3.423   2.953   2.203 -0.3789 -0.2530  0.3700
 1833TIP3    H127058   3.376   2.871   2.217  0.6739 -0.9972 -0.3495
 1833TIP3    H227059   3.459   2.976   2.288 -0.7402 -0.4802  0.5879
 1834TIP3   OH227060   6.869   0.279   1.403 -0.0348  1.1430  0.2056
 1834TIP3    H127061   6.793   0.247   1.353 -0.0219  1.0753  0.2292
 1834TIP3    H227062   6.899   0.355   1.353  1.5044 -0.3674 -1.3055
 1835TIP3   OH227063   6.422   0.888   0.347  0.3270 -0.4977 -0.1292
 1835TIP3    H127064   6.455   0.852   0.430  0.1498  1.2977  0.7722
 1835TIP3    H227065   6.460   0.832   0.280 -0.1992 -2.5558  1.1708
 1836TIP3   OH227066   1.101   4.961   1.233 -0.4501  0.0374 -0.5394
 1836TIP3    H127067   1.034   4.919   1.287  1.4973 -0.6546  1.4957
 1836TIP3    H227068   1.146   4.889   1.190  1.0691  0.1643  0.7296
 1837TIP3   OH227069   6.319   4.672   1.304 -0.2534 -0.4023  0.1915
 1837TIP3    H127070   6.308   4.746   1.244  1.6411 -0.9236 -0.8575
 1837TIP3    H227071   6.234   4.664   1.347 -0.2985  2.9712  1.0401
 1838TIP3   OH227072   6.704   5.417   6.522 -0.1757 -0.5352 -0.0623
 1838TIP3    H127073   6.681   5.344   6.580 -0.8760 -2.1415 -2.2043
 1838TIP3    H227074   6.799   5.420   6.523 -0.1639  0.1928  1.9153
 1839TIP3   OH227075   2.204   1.123   7.607 -0.1352 -0.0354  0.3772
 1839TIP3    H127076   2.152   1.148   7.683  0.5688  2.7995  0.0258
 1839TIP3    H227077   2.293   1.148   7.630  0.4233 -0.9814 -0.6495
 1840TIP3   OH227078   0.368   1.256   1.001  0.2139  0.3388  0.1624
 1840TIP3    H127079   0.362   1.204   1.080  1.1758  1.1479  0.8009
 1840TIP3    H227080   0.298   1.321   1.008 -0.4040 -0.2737 -0.1989
 1841TIP3   OH227081   3.413   5.716   7.695  0.1508 -0.4493 -0.3029
 1841TIP3    H127082   3.406   5.627   7.730 -1.5807 -0.0817  0.4057
 1841TIP3    H227083   3.411   5.705   7.600 -0.6077 -1.1519 -0.2197
 1842TIP3   OH227084   5.493   4.717   1.672 -0.2161  0.4309  0.1529
 1842TIP3    H127085   5.464   4.685   1.758 -0.4260 -0.9115 -0.4054
 1842TIP3    H227086   5.512   4.810   1.687 -2.3470  0.7646  1.1520
 1843TIP3   OH227087   5.244   1.844   7.713 -0.0084 -0.2918 -0.0715
 1843TIP3    H127088   5.248   1.937   7.694 -1.0497  0.1816  1.7722
 1843TIP3    H227089   5.189   1.807   7.644  2.0328  0.0499 -1.9823
 1844TIP3   OH227090   4.570   5.130   8.002 -0.4052  0.6001 -0.2083
 1844TIP3    H127091   4.531   5.061   8.054 -0.5976 -0.0767 -1.2235
 1844TIP3    H227092   4.536   5.211   8.040  0.0954  0.1665  1.2067
 1845TIP3   OH227093   2.338   0.832   0.589  0.1025  0.0976  0.2229
 1845TIP3    H127094   2.290   0.799   0.513 -0.5325 -3.3242  1.9006
 1845TIP3    H227095   2.271   0.871   0.644  0.4815  2.0533 -0.6108
 1846TIP3   OH227096   0.599   6.377   0.912  0.5878  0.4220  0.1361
 1846TIP3    H127097   0.588   6.404   1.003 -0.0384 -1.8753  0.8290
 1846TIP3    H227098   0.553   6.444   0.861  1.2499  1.9352  1.4482
 1847TIP3   OH227099   5.959   6.174   7.910 -0.2861  0.3334  0.1792
 1847TIP3    H127100   5.870   6.201   7.932 -0.8093 -0.0349 -1.3550
 1847TIP3    H227101   6.013   6.251   7.931 -0.6255 -0.0877  2.9542
 1848TIP3   OH227102   1.249   1.346   0.045  0.3374  0.0168  0.3212
 1848TIP3    H127103   1.209   1.330  -0.041  3.4170  0.3141 -1.3086
 1848TIP3    H227104   1.265   1.259   0.081 -0.0813 -0.1421  0.1271
 1849TIP3   OH227105   6.846   3.845   7.669 -0.3739  0.5014  0.1298
 1849TIP3    H127106   6.802   3.760   7.674 -1.3550  0.9262 -0.8986
 1849TIP3    H227107   6.938   3.825   7.683 -0.3972 -0.9433 -1.4727
 1850TIP3   OH227108   2.530   6.175   2.400 -0.5329  0.8546  0.1760
 1850TIP3    H127109   2.499   6.253   2.445 -2.4575  1.9355 -2.7355
 1850TIP3    H227110   2.479   6.103   2.437 -0.1137  1.2223  1.5337
 1851TIP3   OH227111   2.059   2.346   7.120  0.0997 -0.7336 -0.1163
 1851TIP3    H127112   2.125   2.297   7.169 -1.0124 -1.6219  0.5522
 1851TIP3    H227113   2.109   2.413   7.073  1.3090 -0.3834  1.5625
 1852TIP3   OH227114   4.854   2.814   2.433 -0.1156  0.7962 -0.2164
 1852TIP3    H127115   4.901   2.877   2.489  0.3922  1.3127 -1.2014
 1852TIP3    H227116   4.843   2.860   2.350 -0.1517 -0.2581 -0.8078
 1853TIP3   OH227117   4.946   3.240   7.357  0.0482  0.0069  1.0796
 1853TIP3    H127118   4.901   3.302   7.415  0.5783  1.7490 -0.2902
 1853TIP3    H227119   4.876   3.200   7.306 -0.1130  1.8529 -0.2358
 1854TIP3   OH227120   4.708   3.106   7.213  0.5390  0.5105  0.2705
 1854TIP3    H127121   4.671   3.144   7.133  0.4512  1.4844  0.7517
 1854TIP3    H227122   4.681   3.014   7.211 -0.0880  0.6987 -0.4444
 1855TIP3   OH227123   0.314   5.195   2.471 -0.1030 -0.1397  0.1214
 1855TIP3    H127124   0.230   5.196   2.517  0.2269 -0.2342  0.7364
 1855TIP3    H227125   0.294   5.230   2.384 -0.2916  2.4871  1.1263
 1856TIP3   OH227126   6.498   1.745   0.599  0.6243  0.0009 -0.5239
 1856TIP3    H127127   6.555   1.808   0.643 -1.0015 -0.1575  1.9639
 1856TIP3    H227128   6.464   1.690   0.669 -1.7890 -0.5524 -2.0248
 1857TIP3   OH227129   1.176   5.483   6.532  0.1734 -0.2874  0.4364
 1857TIP3    H127130   1.180   5.392   6.560  0.1202 -0.2708  0.4995
 1857TIP3    H227131   1.209   5.532   6.607  0.2408 -0.2584  0.3871
 1858TIP3   OH227132   5.642   2.909   3.013 -0.1384  0.2146 -0.6392
 1858TIP3    H127133   5.559   2.953   3.027 -0.6093 -0.7021 -0.4723
 1858TIP3    H227134   5.620   2.831   2.962  0.1919 -1.4702  1.6531
 1859TIP3   OH227135   0.418   2.669   0.782  0.4099  0.0777  0.1536
 1859TIP3    H127136   0.336   2.681   0.830  0.1233  1.3242 -0.6021
 1859TIP3    H227137   0.406   2.586   0.736 -1.5067  1.3541 -1.8911
 1860TIP3   OH227138   0.284   0.364   1.443  0.6683 -0.7422  0.8753
 1860TIP3    H127139   0.205   0.415   1.463  0.1877 -0.9201 -0.4831
 1860TIP3    H227140   0.279   0.289   1.503  0.2250 -0.3445  1.3527
 1861TIP3   OH227141   6.233   2.431   0.023  0.0818 -0.2586  0.2227
 1861TIP3    H127142   6.308   2.484   0.049 -0.5766  0.3004  1.0359
 1861TIP3    H227143   6.258   2.393  -0.061  1.6888 -0.9193  0.9637
 1862TIP3   OH227144   6.729   0.636   6.646 -0.6494  0.3913 -0.2162
 1862TIP3    H127145   6.777   0.642   6.564  1.4140 -3.4140  0.4977
 1862TIP3    H227146   6.657   0.575   6.627  0.1652 -0.9525  0.8553
 1863TIP3   OH227147   2.539   6.474   7.090 -0.3182  0.1501 -0.2681
 1863TIP3    H127148   2.624   6.438   7.066  0.0908  0.3095  0.8972
 1863TIP3    H227149   2.538   6.561   7.051  0.3063  0.3768  0.2036
 1864TIP3   OH227150   5.652   5.539   1.717  0.3910 -0.1222  0.1570
 1864TIP3    H127151   5.699   5.561   1.798  3.0805 -2.5509 -0.5965
 1864TIP3    H227152   5.580   5.483   1.746  0.2589  0.4422  0.9875
 1865TIP3   OH227153   5.536   5.015   1.698  0.0200 -0.6612 -0.5719
 1865TIP3    H127154   5.625   5.052   1.694 -0.1284 -0.3332 -0.9147
 1865TIP3    H227155   5.498   5.053   1.777  0.4387 -1.3961 -0.0007
 1866TIP3   OH227156   2.856   2.989   2.348 -0.0960 -0.1890 -0.5782
 1866TIP3    H127157   2.919   2.971   2.418 -1.2066  0.0843  0.5410
 1866TIP3    H227158   2.788   2.922   2.359 -0.1860 -0.2654 -1.5330
 1867TIP3   OH227159   0.650   2.358   2.172  0.8651 -0.2770 -0.2741
 1867TIP3    H127160   0.745   2.356   2.165  1.1707  0.3107  2.5614
 1867TIP3    H227161   0.626   2.449   2.154  1.2291  0.3239  1.9979
 1868TIP3   OH227162   6.435   0.298   6.842  0.1576 -1.1919  0.8471
 1868TIP3    H127163   6.398   0.210   6.838  0.6126 -1.3785  0.5902
 1868TIP3    H227164   6.364   0.353   6.874 -0.5161 -1.4416 -0.1691
 1869TIP3   OH227165   3.196   5.893   7.710  0.2908  0.1717 -0.0009
 1869TIP3    H127166   3.256   5.819   7.715  0.9611  0.7911  2.5411
 1869TIP3    H227167   3.239   5.955   7.651 -0.2553 -1.3357 -2.1254
 1870TIP3   OH227168   2.955   3.991   1.038 -0.1842 -0.0926  0.2112
 1870TIP3    H127169   2.877   3.982   1.093 -1.0606  0.3038 -0.9276
 1870TIP3    H227170   2.968   4.085   1.031 -1.7766  0.0488 -2.4676
 1871TIP3   OH227171   4.006   1.753   7.429  0.1432 -0.1881  0.1916
 1871TIP3    H127172   3.976   1.681   7.373  1.6653  0.4645 -1.5837
 1871TIP3    H227173   4.098   1.763   7.406 -0.0203  2.3041  0.3794
 1872TIP3   OH227174   3.673   6.795   8.219  0.4589  0.8144 -0.7060
 1872TIP3    H127175   3.720   6.719   8.255  0.9094  1.0722 -0.7430
 1872TIP3    H227176   3.721   6.818   8.141 -0.5754  0.2041 -1.5536
 1873TIP3   OH227177   1.631   1.105   2.077 -0.1197 -0.2869 -0.0158
 1873TIP3    H127178   1.657   1.186   2.122  0.4997  0.0694 -0.9959
 1873TIP3    H227179   1.607   1.132   1.989 -0.1546 -1.1389 -0.2812
 1874TIP3   OH227180   1.504   0.444   8.028  0.0980  0.2553 -0.2853
 1874TIP3    H127181   1.419   0.487   8.030 -0.5932 -1.0648  0.1833
 1874TIP3    H227182   1.512   0.403   8.115  0.2226 -1.4371 -1.0456
 1875TIP3   OH227183   1.493   4.084   7.998  0.0331 -0.4008  0.8103
 1875TIP3    H127184   1.559   4.017   8.014  0.5319 -0.0314  0.3256
 1875TIP3    H227185   1.522   4.129   7.918 -1.0880 -0.5877  0.2808
 1876TIP3   OH227186   5.683   1.958   0.993 -0.3081 -0.3759 -0.2734
 1876TIP3    H127187   5.743   1.946   0.920 -0.9865 -1.6543 -0.6504
 1876TIP3    H227188   5.689   1.877   1.044 -0.9355 -0.1072  0.2532
 1877TIP3   OH227189   0.548   5.849   8.464 -0.5427  0.1201 -0.2476
 1877TIP3    H127190   0.520   5.812   8.547  0.0816 -0.0214 -0.0927
 1877TIP3    H227191   0.593   5.777   8.419 -1.3139  0.0481 -0.9300
 1878TIP3   OH227192   3.134   2.018   1.278 -0.2170  0.3825  0.0051
 1878TIP3    H127193   3.166   1.947   1.223 -1.1862  1.1853 -1.6882
 1878TIP3    H227194   3.187   2.014   1.357  1.5819 -0.5242 -1.1928
 1879TIP3   OH227195   5.415   5.284   8.470 -0.4378 -0.5768 -0.2133
 1879TIP3    H127196   5.448   5.311   8.384 -0.5996  2.9100  0.6854
 1879TIP3    H227197   5.359   5.208   8.451 -1.0352  0.4796 -3.3028
 1880TIP3   OH227198   1.727   0.672   0.765 -0.3319 -0.1487 -0.2332
 1880TIP3    H127199   1.744   0.735   0.835  0.8616 -0.6724 -0.0180
 1880TIP3    H227200   1.685   0.598   0.808 -0.9252  0.1245 -0.3331
 1881TIP3   OH227201   4.945   6.214   1.930  0.0911 -0.7144  0.0666
 1881TIP3    H127202   5.012   6.221   1.998 -0.2111 -0.7572  0.3701
 1881TIP3    H227203   4.863   6.204   1.978 -0.0293 -1.5732 -0.3086
 1882TIP3   OH227204   5.539   1.840   7.734  1.0654  0.1664  0.2453
 1882TIP3    H127205   5.453   1.829   7.774  0.6473  2.3497  0.0922
 1882TIP3    H227206   5.528   1.809   7.644  0.8904 -0.9775  0.6434
 1883TIP3   OH227207   2.942   3.911   0.359 -0.1400  0.0498 -0.3485
 1883TIP3    H127208   2.991   3.848   0.412 -0.7668  1.5433  2.2071
 1883TIP3    H227209   2.892   3.857   0.298 -2.0762 -2.1979  2.8998
 1884TIP3   OH227210   2.261   2.990   7.201 -0.0483 -0.2712  0.4160
 1884TIP3    H127211   2.207   2.963   7.127  1.9874 -1.4504 -0.7224
 1884TIP3    H227212   2.204   2.980   7.277 -1.7314 -0.4707 -0.8128
 1885TIP3   OH227213   0.143   0.411   7.781 -0.4930  0.2952  0.2122
 1885TIP3    H127214   0.229   0.427   7.818 -0.2262  2.5890 -1.1999
 1885TIP3    H227215   0.154   0.333   7.727  0.3184 -0.2449  1.1322
 1886TIP3   OH227216   3.508   6.277   0.965 -0.4570 -0.1872 -0.4376
 1886TIP3    H127217   3.568   6.210   0.997 -0.0480 -0.3213 -1.4462
 1886TIP3    H227218   3.422   6.251   0.999  0.0885  0.2136  1.3317
 1887TIP3   OH227219   4.323   6.116   1.888 -0.2630  0.5677  0.6503
 1887TIP3    H127220   4.341   6.060   1.813  0.2290 -0.5826  1.5919
 1887TIP3    H227221   4.280   6.193   1.851 -0.5657 -0.2339 -0.7288
 1888TIP3   OH227222   2.354   6.207   7.422  0.0124  0.4971 -0.2960
 1888TIP3    H127223   2.379   6.129   7.471 -0.3879  0.6369  0.1317
 1888TIP3    H227224   2.438   6.246   7.396  0.2167 -0.5368 -1.2662
 1889TIP3   OH227225   3.408   1.753   8.523  0.0783  0.2411 -0.2053
 1889TIP3    H127226   3.495   1.722   8.548 -0.1276  0.8755  1.4201
 1889TIP3    H227227   3.425   1.826   8.462  0.6291 -0.4981 -0.9601
 1890TIP3   OH227228   4.505   6.321   0.035 -0.1593  0.3442  0.5069
 1890TIP3    H127229   4.525   6.353  -0.052 -0.0327  0.5854  0.6234
 1890TIP3    H227230   4.419   6.278   0.026  1.1897 -2.3738 -0.4069
 1891TIP3   OH227231   0.151   5.282   7.912  0.7967  0.0178 -0.3057
 1891TIP3    H127232   0.175   5.344   7.842  3.2965 -0.1442  0.3175
 1891TIP3    H227233   0.177   5.196   7.877  3.7641  0.0971  1.3607
 1892TIP3   OH227234   5.568   5.880   2.849 -0.1617  0.0462 -0.3976
 1892TIP3    H127235   5.489   5.857   2.896  0.6988 -1.8942  0.1888
 1892TIP3    H227236   5.600   5.798   2.812  0.1862  1.1880 -2.8774
 1893TIP3   OH227237   0.145   4.520   0.139 -0.3007  0.0005  0.1073
 1893TIP3    H127238   0.061   4.515   0.185 -0.6765  0.1158 -0.5439
 1893TIP3    H227239   0.160   4.432   0.106 -1.1656  0.3781 -1.4534
 1894TIP3   OH227240   5.945   6.670   7.823  0.0333 -0.3251  0.3749
 1894TIP3    H127241   5.903   6.599   7.775 -3.7076  0.8746  1.5038
 1894TIP3    H227242   5.925   6.748   7.771 -0.3914  0.4651  1.6755
 1895TIP3   OH227243   3.704   5.536   7.400  0.0857  0.6882  0.5212
 1895TIP3    H127244   3.715   5.457   7.347  3.5102  1.3342  0.0520
 1895TIP3    H227245   3.647   5.592   7.347 -0.1202 -0.3893 -0.4426
 1896TIP3   OH227246   3.485   1.578   2.118 -0.2876 -0.5875 -0.1785
 1896TIP3    H127247   3.469   1.576   2.212 -1.3874  0.0646 -0.3331
 1896TIP3    H227248   3.501   1.487   2.094 -1.2791 -0.9501  0.4526
 1897TIP3   OH227249   2.101   3.229   1.267  0.4085  0.4807  0.4234
 1897TIP3    H127250   2.036   3.174   1.312  0.9438  0.8073  1.6212
 1897TIP3    H227251   2.049   3.282   1.206 -0.1111 -1.4362 -0.8978
 1898TIP3   OH227252   4.896   1.978   7.375 -0.9815  0.4069  0.4819
 1898TIP3    H127253   4.908   2.057   7.323  0.6271 -0.6412 -0.8429
 1898TIP3    H227254   4.956   1.988   7.449 -0.7869  0.4322  0.3198
 1899TIP3   OH227255   0.150   1.047   0.588  0.6626 -0.4926  0.0326
 1899TIP3    H127256   0.128   1.128   0.634  2.0761  1.1845 -2.0195
 1899TIP3    H227257   0.225   1.011   0.636  1.8308  0.9838 -0.5891
 1900TIP3   OH227258   4.517   3.441   1.161 -0.2520 -0.2659  0.3512
 1900TIP3    H127259   4.580   3.397   1.105  0.3563  1.3682 -0.3226
 1900TIP3    H227260   4.543   3.418   1.250 -0.4553 -1.8638  0.0316
 1901TIP3   OH227261   1.998   2.712   0.135 -0.0735  0.0162 -0.4161
 1901TIP3    H127262   2.050   2.736   0.059  1.9775  0.6051  1.0851
 1901TIP3    H227263   1.978   2.796   0.177 -2.5108 -0.1736 -1.0640
 1902TIP3   OH227264   1.458   1.568   8.206  0.0515  0.5685 -0.3600
 1902TIP3    H127265   1.418   1.503   8.148  0.6482 -0.5310  0.4322
 1902TIP3    H227266   1.384   1.607   8.253 -0.1741 -2.0920  1.7737
 1903TIP3   OH227267   4.518   4.933   8.193  0.2626 -0.2764 -0.5656
 1903TIP3    H127268   4.439   4.878   8.188  0.7360 -0.9051 -1.4040
 1903TIP3    H227269   4.576   4.886   8.253  0.1376 -0.0026 -0.2328
 1904TIP3   OH227270   0.158   5.883   0.381  0.3848  0.2317 -0.1158
 1904TIP3    H127271   0.231   5.836   0.422  0.1774  0.3491  0.3928
 1904TIP3    H227272   0.084   5.823   0.388 -0.1492  1.0229  1.4945
 1905TIP3   OH227273   4.434   3.570   0.104  0.1319  0.2489 -0.3253
 1905TIP3    H127274   4.464   3.551   0.016 -2.2517 -1.6672 -0.8049
 1905TIP3    H227275   4.448   3.665   0.114  1.2443  0.3529 -2.3906
 1906TIP3   OH227276   3.265   3.502   8.494 -0.8176  0.5544  0.0226
 1906TIP3    H127277   3.279   3.478   8.403  0.1274  1.0999  0.0179
 1906TIP3    H227278   3.257   3.419   8.540  2.0037  0.1638 -0.0561
 1907TIP3   OH227279   4.940   3.816   7.535 -0.3902 -0.2777 -0.2433
 1907TIP3    H127280   4.907   3.879   7.600 -2.9091 -2.0001  0.3090
 1907TIP3    H227281   4.925   3.858   7.451 -2.8290 -0.3723  0.0744
 1908TIP3   OH227282   4.200   3.384   8.121  0.2038  0.2912  0.1204
 1908TIP3    H127283   4.148   3.346   8.050 -0.1454 -1.4778  1.2509
 1908TIP3    H227284   4.290   3.385   8.088 -0.2235  1.4309 -1.0777
 1909TIP3   OH227285   4.430   0.720   1.556  0.2926 -0.2215  0.4549
 1909TIP3    H127286   4.457   0.761   1.638 -0.8280 -0.4199  0.9499
 1909TIP3    H227287   4.415   0.628   1.579  1.9891 -0.7557 -0.4610
 1910TIP3   OH227288   1.825   1.412   8.484 -0.0510 -0.1788  0.5352
 1910TIP3    H127289   1.825   1.333   8.431  1.4241 -0.9863  1.6825
 1910TIP3    H227290   1.732   1.432   8.497 -0.4410 -1.3798 -0.2429
 1911TIP3   OH227291   6.782   3.418   8.345 -0.4488 -0.0912  0.5129
 1911TIP3    H127292   6.867   3.451   8.318  0.4242  0.4827  3.5830
 1911TIP3    H227293   6.801   3.335   8.387 -0.5811  1.9066  5.0873
 1912TIP3   OH227294   2.099   4.920   8.170 -0.1497 -0.5587  0.1276
 1912TIP3    H127295   2.132   5.008   8.188 -1.2804 -0.6836  3.8294
 1912TIP3    H227296   2.005   4.931   8.159 -0.2484 -1.2205  0.2224
 1913TIP3   OH227297   4.968   0.240   7.911  0.4097  0.0857  0.1246
 1913TIP3    H127298   5.048   0.279   7.947  0.6049 -0.3457  0.1561
 1913TIP3    H227299   4.898   0.295   7.946  0.5311 -0.7707  1.7990
 1914TIP3   OH227300   4.921   6.091   1.008 -0.2972 -0.8308  0.0166
 1914TIP3    H127301   4.937   6.183   0.987  0.6820 -1.1421 -0.6577
 1914TIP3    H227302   4.953   6.081   1.098  1.6762 -0.9902 -0.6532
 1915TIP3   OH227303   5.093   4.857   8.591  0.2816  0.1630  0.2638
 1915TIP3    H127304   5.036   4.849   8.515 -1.1796  0.0968  1.3192
 1915TIP3    H227305   5.082   4.948   8.620  1.9329  0.6158 -0.4075
 1916TIP3   OH227306   1.836   3.159   7.363 -0.4536 -0.0371 -0.2752
 1916TIP3    H127307   1.796   3.179   7.278 -0.1484  0.2481 -0.3575
 1916TIP3    H227308   1.905   3.096   7.342 -0.3551  0.0600 -0.2481
 1917TIP3   OH227309   2.258   4.011   1.703  0.0549  0.3268  0.0635
 1917TIP3    H127310   2.268   3.920   1.677  0.3123  0.7150 -1.2832
 1917TIP3    H227311   2.271   4.061   1.622 -0.3414  1.5444  0.7178
 1918TIP3   OH227312   2.739   1.051   2.305 -0.3404  0.3553  0.4393
 1918TIP3    H127313   2.800   1.066   2.377 -2.0899 -1.0164  2.3204
 1918TIP3    H227314   2.783   0.986   2.250  0.2457 -0.0192  1.3195
 1919TIP3   OH227315   3.918   0.147   0.487 -0.3961 -0.1411 -0.4681
 1919TIP3    H127316   3.956   0.160   0.574  1.6950  1.6035 -1.5621
 1919TIP3    H227317   3.987   0.103   0.437 -0.2400  1.8908 -2.1498
 1920TIP3   OH227318   5.599   3.458   0.487 -0.0473 -0.4443 -0.1435
 1920TIP3    H127319   5.662   3.408   0.538  0.9184 -1.2911 -2.0828
 1920TIP3    H227320   5.539   3.393   0.451 -0.7297  0.1318 -0.0686
 1921TIP3   OH227321   1.787   3.231   8.100  0.0802 -0.7315 -0.1715
 1921TIP3    H127322   1.874   3.254   8.067  0.7061 -1.9542  0.5404
 1921TIP3    H227323   1.750   3.174   8.032  0.3090 -1.1300  0.0325
 1922TIP3   OH227324   5.939   4.587   2.335 -0.1797 -0.3015  0.3446
 1922TIP3    H127325   5.962   4.618   2.248 -0.5618  0.9111  0.6665
 1922TIP3    H227326   5.863   4.638   2.360  0.1683 -0.3383  1.5600
 1923TIP3   OH227327   5.946   4.738   6.306  0.8471 -0.1296 -0.5526
 1923TIP3    H127328   5.890   4.765   6.379 -0.5309  1.0201 -1.9637
 1923TIP3    H227329   6.033   4.768   6.330  0.7294 -1.1522  1.2905
 1924TIP3   OH227330   2.144   4.004   8.343  0.0684  0.3699 -0.0615
 1924TIP3    H127331   2.236   3.978   8.345  1.0841  3.3428 -1.4115
 1924TIP3    H227332   2.146   4.098   8.362 -2.6029  0.6750 -0.9442
 1925TIP3   OH227333   2.711   4.072   8.377 -0.4904  0.5104 -0.5510
 1925TIP3    H127334   2.729   4.166   8.378  1.4633  0.1852  0.9262
 1925TIP3    H227335   2.758   4.039   8.300  0.3332  0.5085 -0.0561
 1926TIP3   OH227336   4.574   4.944   1.879  0.4854 -0.0430  0.7907
 1926TIP3    H127337   4.508   5.011   1.861  1.5958  1.2154  1.2833
 1926TIP3    H227338   4.634   4.950   1.805  1.5068  0.6883  1.6540
 1927TIP3   OH227339   3.048   4.604   8.590 -0.3463  0.4448 -0.4268
 1927TIP3    H127340   3.115   4.601   8.522 -0.9628 -1.7176 -1.0322
 1927TIP3    H227341   3.087   4.655   8.661  0.8047  1.6471 -1.8737
 1928TIP3   OH227342   6.182   3.371   7.848  0.8947  0.0415 -0.0392
 1928TIP3    H127343   6.227   3.368   7.932  2.2118  2.6648 -0.5393
 1928TIP3    H227344   6.226   3.304   7.795  1.0352 -0.6198  0.8833
 1929TIP3   OH227345   4.635   6.740   8.250  0.5463 -0.5386 -0.1336
 1929TIP3    H127346   4.678   6.726   8.166 -0.4881  1.4324 -1.0480
 1929TIP3    H227347   4.706   6.730   8.314  2.0649  0.9533 -1.4668
 1930TIP3   OH227348   3.933   3.805   0.372  0.4626 -0.5225  0.1719
 1930TIP3    H127349   3.914   3.711   0.376 -0.6087 -0.3268 -0.0577
 1930TIP3    H227350   3.902   3.838   0.456  0.6594 -0.3273  0.1687
 1931TIP3   OH227351   5.831   6.493   0.854 -0.8045  0.1113  0.4222
 1931TIP3    H127352   5.804   6.435   0.925 -0.6333  0.9520  1.1823
 1931TIP3    H227353   5.916   6.527   0.882 -0.3385 -0.1882 -0.5762
 1932TIP3   OH227354   5.870   3.951   7.409  0.1559  0.0049  0.7042
 1932TIP3    H127355   5.892   3.997   7.490  1.0833  0.8357 -0.0166
 1932TIP3    H227356   5.937   3.977   7.347  0.1199 -1.5376 -0.0213
 1933TIP3   OH227357   0.342   2.788   1.804 -0.5474  0.1934 -0.0871
 1933TIP3    H127358   0.341   2.849   1.731 -0.8178 -1.4429 -1.5288
 1933TIP3    H227359   0.435   2.768   1.817 -0.4916  0.5683  0.0966
 1934TIP3   OH227360   3.245   4.805   7.283 -0.7111 -0.0331 -0.2289
 1934TIP3    H127361   3.237   4.790   7.377  0.8312  0.8543  0.0793
 1934TIP3    H227362   3.220   4.897   7.271 -1.6065 -0.3375 -0.8153
 1935TIP3   OH227363   0.463   3.572   8.169  0.3435  0.1910 -0.0989
 1935TIP3    H127364   0.449   3.519   8.247 -0.3281 -0.4908 -0.6780
 1935TIP3    H227365   0.411   3.651   8.183 -0.2247 -0.1832 -0.1063
 1936TIP3   OH227366   4.589   6.363   8.176 -1.1374  0.3288 -0.1296
 1936TIP3    H127367   4.548   6.404   8.100  0.8958 -2.2320 -2.8170
 1936TIP3    H227368   4.562   6.271   8.171 -0.9858  0.0819  2.3587
 1937TIP3   OH227369   6.068   3.133   8.459 -0.4829 -0.4970 -0.2160
 1937TIP3    H127370   5.984   3.176   8.479  0.4434  0.7477  1.2703
 1937TIP3    H227371   6.133   3.201   8.475  1.1566 -2.5796  3.1230
 1938TIP3   OH227372   0.195   3.802   1.118  0.2919 -0.0955  0.0638
 1938TIP3    H127373   0.109   3.766   1.138  1.0807 -1.0715  1.9670
 1938TIP3    H227374   0.186   3.896   1.134 -0.3700 -0.2132  0.3969
 1939TIP3   OH227375   2.713   5.064   7.560  0.3874  0.4477  0.0363
 1939TIP3    H127376   2.635   5.065   7.504  0.1239  0.5838  0.4063
 1939TIP3    H227377   2.679   5.077   7.648  0.7033 -0.7868  0.3489
 1940TIP3   OH227378   6.213   3.691   0.320 -0.5026  0.3536 -0.1765
 1940TIP3    H127379   6.241   3.678   0.411 -0.6554  0.3528 -0.1281
 1940TIP3    H227380   6.132   3.640   0.313  0.1455 -0.6395 -0.6560
 1941TIP3   OH227381   2.252   2.183   7.217 -0.0261 -0.3135 -0.0611
 1941TIP3    H127382   2.193   2.110   7.195  0.1496 -0.3340 -0.4605
 1941TIP3    H227383   2.339   2.150   7.197  0.2044 -0.5349  1.1706
 1942TIP3   OH227384   1.054   1.318   7.490 -0.2360  0.0810 -0.1551
 1942TIP3    H127385   1.064   1.398   7.541  0.6737 -0.9807  1.4092
 1942TIP3    H227386   0.960   1.304   7.486 -0.5265  2.0168 -1.8111
 1943TIP3   OH227387   2.231   1.862   8.518  0.3630 -0.0328  0.1834
 1943TIP3    H127388   2.228   1.892   8.609 -0.6176  0.3853  0.0326
 1943TIP3    H227389   2.139   1.864   8.490  0.7599  0.9004 -1.1595
 1944TIP3   OH227390   4.129   3.273   2.027 -0.1416  0.6544 -0.6852
 1944TIP3    H127391   4.109   3.286   2.119  1.5626 -2.5703  0.2794
 1944TIP3    H227392   4.156   3.359   1.996 -3.2069  2.4182  1.0281
 1945TIP3   OH227393   3.465   3.115   0.023  0.6940 -0.3693  0.0120
 1945TIP3    H127394   3.402   3.062  -0.026  0.8938 -0.3307 -0.2906
 1945TIP3    H227395   3.550   3.089  -0.012  0.7873  0.2373 -0.2326
 1946TIP3   OH227396   3.434   4.849   2.464  0.5288 -0.0012  0.4101
 1946TIP3    H127397   3.377   4.776   2.443 -0.3239  0.5827  0.6309
 1946TIP3    H227398   3.510   4.810   2.506  1.5543 -1.0597 -2.2447
 1947TIP3   OH227399   0.714   0.476   0.536  0.2724 -0.5912  0.8700
 1947TIP3    H127400   0.711   0.445   0.445  0.2440 -1.9932  1.3215
 1947TIP3    H227401   0.633   0.443   0.575  0.0070  0.4891  1.2711
 1948TIP3   OH227402   5.237   4.801   6.785  0.4770 -0.3549  0.0354
 1948TIP3    H127403   5.171   4.867   6.808  0.9354 -0.0196  0.4163
 1948TIP3    H227404   5.313   4.852   6.755  1.0114 -0.6835  0.7949
 1949TIP3   OH227405   1.278   0.252   0.007 -0.6871  0.4525  0.2189
 1949TIP3    H127406   1.362   0.225  -0.029  0.1117  0.1698  2.2100
 1949TIP3    H227407   1.218   0.182  -0.018 -0.2749  0.4634 -0.8738
 1950TIP3   OH227408   0.458   6.495   2.875  0.0308  0.2325 -0.1496
 1950TIP3    H127409   0.549   6.519   2.889 -0.3582  1.1693  0.9809
 1950TIP3    H227410   0.427   6.554   2.806  0.2664 -0.0631 -0.5093
 1951TIP3   OH227411   0.857   5.884   2.850 -0.2166 -0.5084  0.3408
 1951TIP3    H127412   0.859   5.937   2.770 -0.3418 -3.3109 -1.7046
 1951TIP3    H227413   0.944   5.896   2.889  0.0575  0.4904 -0.5391
 1952TIP3   OH227414   0.832   5.479   1.989  0.1382  0.4818 -0.2811
 1952TIP3    H127415   0.801   5.565   2.016 -1.6294 -0.4063  0.7106
 1952TIP3    H227416   0.878   5.445   2.065  0.9415  0.5795 -0.7139
 1953TIP3   OH227417   5.906   2.226   1.996 -0.1520 -0.4024  0.6673
 1953TIP3    H127418   5.905   2.208   1.902  0.7922  0.3632  0.4938
 1953TIP3    H227419   5.880   2.143   2.037 -0.7064 -0.7048 -0.2648
 1954TIP3   OH227420   1.397   4.459   0.335 -0.3309 -0.4083 -0.5974
 1954TIP3    H127421   1.311   4.502   0.332 -0.4911 -0.7609 -1.5961
 1954TIP3    H227422   1.452   4.513   0.277 -0.5275 -1.4942 -1.8489
 1955TIP3   OH227423   1.586   6.489   0.733 -0.1895 -0.2494 -0.5393
 1955TIP3    H127424   1.628   6.573   0.751  0.8629 -0.5994 -1.2305
 1955TIP3    H227425   1.518   6.509   0.668  0.3052  0.0164 -0.9814
 1956TIP3   OH227426   4.855   5.485   2.520  0.5799 -0.3629 -0.2051
 1956TIP3    H127427   4.840   5.485   2.615  1.2223  2.0953 -0.0200
 1956TIP3    H227428   4.948   5.463   2.511  1.1088  1.5587 -0.0268
 1957TIP3   OH227429   1.214   5.358   7.974 -1.1484  0.0258 -0.4045
 1957TIP3    H127430   1.289   5.385   7.921 -1.3373  3.1534  0.6992
 1957TIP3    H227431   1.140   5.360   7.914 -1.1496  2.2452 -0.4150
 1958TIP3   OH227432   5.303   1.196   7.733 -0.0058  0.3011  0.2699
 1958TIP3    H127433   5.373   1.130   7.732  0.0346  0.3031 -1.7538
 1958TIP3    H227434   5.222   1.145   7.725  0.0078  0.4466 -0.9952
 1959TIP3   OH227435   4.168   4.865   7.236  0.0944 -0.2643  0.1861
 1959TIP3    H127436   4.238   4.803   7.259  0.7483 -0.4480 -2.0345
 1959TIP3    H227437   4.215   4.943   7.205 -0.6759 -0.0401 -0.4554
 1960TIP3   OH227438   2.289   5.291   1.274 -0.0404  0.4589 -0.0452
 1960TIP3    H127439   2.310   5.373   1.319  0.0495  0.1785  0.4334
 1960TIP3    H227440   2.374   5.256   1.246  0.0631 -0.1769  1.0126
 1961TIP3   OH227441   4.128   6.677   0.001  0.4621 -0.0028 -0.0522
 1961TIP3    H127442   4.096   6.767   0.006  0.2761 -0.1062  0.9063
 1961TIP3    H227443   4.068   6.633  -0.059  1.8512  1.0143 -2.3273
 1962TIP3   OH227444   3.161   2.184   2.026 -0.6119 -0.5039  0.1850
 1962TIP3    H127445   3.201   2.228   2.101 -0.3099 -0.3428 -0.0688
 1962TIP3    H227446   3.187   2.093   2.034  0.8631 -0.1832 -0.6607
 1963TIP3   OH227447   5.654   2.191   0.146 -0.5016  0.2487  0.6489
 1963TIP3    H127448   5.599   2.250   0.094 -2.1987  0.0299  2.1063
 1963TIP3    H227449   5.736   2.185   0.096 -1.6885  0.7660 -1.4961
 1964TIP3   OH227450   0.244   1.291   1.383  0.6095 -0.2285  0.2628
 1964TIP3    H127451   0.225   1.264   1.293  1.3568 -1.5556  0.4752
 1964TIP3    H227452   0.225   1.214   1.436 -1.9320  1.1806  1.5684
 1965TIP3   OH227453   1.682   4.563   2.636  0.3771 -0.6855  0.1396
 1965TIP3    H127454   1.773   4.579   2.663  0.3928 -0.5548  0.0128
 1965TIP3    H227455   1.647   4.503   2.702  1.1470 -2.3126 -0.8899
 1966TIP3   OH227456   0.141   3.536   2.014  0.2906  0.2397  0.0743
 1966TIP3    H127457   0.197   3.560   1.940 -0.4250  1.6073 -0.0437
 1966TIP3    H227458   0.200   3.534   2.089  0.8978 -0.5161 -0.4042
 1967TIP3   OH227459   3.177   4.291   0.320 -0.2956 -0.2429 -0.0015
 1967TIP3    H127460   3.252   4.304   0.262 -0.9422  0.2796 -0.7395
 1967TIP3    H227461   3.182   4.362   0.384  0.8531 -1.2590  1.0972
 1968TIP3   OH227462   1.343   1.042   7.211 -0.0558 -0.2315 -0.3039
 1968TIP3    H127463   1.323   0.950   7.193  0.2340 -0.0076 -1.9044
 1968TIP3    H227464   1.287   1.091   7.152  2.0626  0.5063 -1.8204
 1969TIP3   OH227465   2.486   3.179   7.932  0.2331  0.1188 -0.0608
 1969TIP3    H127466   2.481   3.248   7.998 -0.7145 -0.9319  1.0051
 1969TIP3    H227467   2.570   3.136   7.948 -0.1934 -0.4241  0.7796
 1970TIP3   OH227468   3.619   6.510   1.127  0.2237  0.4169 -0.2404
 1970TIP3    H127469   3.656   6.423   1.141  1.0886  0.5685 -1.4172
 1970TIP3    H227470   3.526   6.500   1.145  0.5305 -0.4247  0.9729
 1971TIP3   OH227471   4.845   5.026   8.631  0.1010 -0.2409  0.0830
 1971TIP3    H127472   4.914   5.074   8.677  1.3522 -2.1432  0.2897
 1971TIP3    H227473   4.842   5.065   8.544  0.5670  0.6721  0.4665
 1972TIP3   OH227474   1.264   0.018   8.445 -0.8560  0.4252  0.3833
 1972TIP3    H127475   1.358   0.017   8.462 -0.7505  2.4839  0.1669
 1972TIP3    H227476   1.257   0.026   8.349 -1.2638  0.0218  0.3766
 1973TIP3   OH227477   4.821   0.828   7.351  0.1680 -0.3333  0.2135
 1973TIP3    H127478   4.727   0.822   7.368 -0.1353  0.5664 -0.9784
 1973TIP3    H227479   4.838   0.922   7.338  0.8428 -0.6311 -1.4254
 1974TIP3   OH227480   6.858   3.170   0.333  0.5113 -0.4543 -0.3354
 1974TIP3    H127481   6.872   3.076   0.320  0.9109 -0.3943 -0.3358
 1974TIP3    H227482   6.786   3.192   0.273 -1.4499 -1.2903  1.5425
 1975TIP3   OH227483   1.452   1.148   0.553 -0.9906 -0.2618  0.3319
 1975TIP3    H127484   1.501   1.067   0.567 -0.9479 -0.2036  0.5260
 1975TIP3    H227485   1.490   1.186   0.475  0.7290  0.8517  1.6336
 1976TIP3   OH227486   0.179   0.328   0.627 -0.6929  0.0962 -0.2472
 1976TIP3    H127487   0.121   0.383   0.575 -0.8398 -0.7617 -1.0014
 1976TIP3    H227488   0.175   0.242   0.586 -1.7876 -0.9707  1.9072
 1977TIP3   OH227489   4.101   3.859   7.472  0.1649  0.3830  0.5975
 1977TIP3    H127490   4.064   3.782   7.429 -0.4191  0.7407  0.4574
 1977TIP3    H227491   4.084   3.931   7.411 -0.5254  0.8693  1.3446
 1978TIP3   OH227492   0.616   3.366   0.347  0.0935 -0.4341 -0.1814
 1978TIP3    H127493   0.642   3.357   0.256  0.2062  0.0687 -0.2029
 1978TIP3    H227494   0.589   3.457   0.355  3.4060  0.5859  1.1149
 1979TIP3   OH227495   2.429   1.764   0.406 -0.4090  0.5715 -0.3889
 1979TIP3    H127496   2.351   1.715   0.432  0.3123 -2.0955 -2.7553
 1979TIP3    H227497   2.471   1.788   0.488 -1.3073 -2.0294  0.9324
 1980TIP3   OH227498   4.381   2.238   0.129  0.3439  0.5003  0.2757
 1980TIP3    H127499   4.372   2.152   0.088 -0.9810  0.4150  0.6890
 1980TIP3    H227500   4.471   2.265   0.109 -0.0044  0.1542 -2.0530
 1981TIP3   OH227501   1.893   3.814   7.422  0.2832  0.5886  0.3648
 1981TIP3    H127502   1.942   3.818   7.340  0.0206 -0.2546  0.1600
 1981TIP3    H227503   1.868   3.722   7.431 -1.0720  0.9500  0.5706
 1982TIP3   OH227504   4.516   3.790   8.206  0.4098  0.2327 -0.2623
 1982TIP3    H127505   4.505   3.722   8.140  0.2259  0.0223 -0.0166
 1982TIP3    H227506   4.429   3.832   8.211 -0.0478 -0.8277  1.0224
 1983TIP3   OH227507   2.126   1.444   0.892 -0.5117  0.3861  0.2709
 1983TIP3    H127508   2.101   1.444   0.984  1.7740  0.0691  0.9534
 1983TIP3    H227509   2.155   1.355   0.874  0.0062  0.6853 -0.4651
 1984TIP3   OH227510   6.660   1.191   1.602 -0.2805 -0.2054 -0.2285
 1984TIP3    H127511   6.640   1.107   1.561  2.0637 -1.2639  0.6257
 1984TIP3    H227512   6.687   1.248   1.530  0.7712 -1.0754 -0.5536
 1985TIP3   OH227513   4.637   0.770   8.577 -0.2763  0.2052  0.2486
 1985TIP3    H127514   4.713   0.714   8.591 -0.4467  0.0547  0.5759
 1985TIP3    H227515   4.667   0.837   8.515  0.2814  0.4810  0.8105
 1986TIP3   OH227516   1.642   4.651   6.676  0.1520  0.0411  0.4091
 1986TIP3    H127517   1.732   4.680   6.663  1.1711 -2.9736 -0.0087
 1986TIP3    H227518   1.634   4.639   6.771  0.4184 -0.3437  0.3841
 1987TIP3   OH227519   4.941   5.407   0.376 -0.1191 -0.0117 -0.4018
 1987TIP3    H127520   4.970   5.333   0.429  1.2366  1.0755  0.4536
 1987TIP3    H227521   4.976   5.388   0.289  0.1373 -0.4389 -0.2128
 1988TIP3   OH227522   6.183   3.520   7.589  0.6270  0.6648 -0.2873
 1988TIP3    H127523   6.128   3.470   7.649  0.8271 -0.5185 -1.0686
 1988TIP3    H227524   6.227   3.585   7.645 -0.7630  0.9686  0.5073
 1989TIP3   OH227525   0.824   1.349   6.210 -0.1139  0.3190  0.3184
 1989TIP3    H127526   0.759   1.406   6.170 -2.3602 -1.5455  1.1049
 1989TIP3    H227527   0.834   1.381   6.299 -0.6133  0.0996  0.4544
 1990TIP3   OH227528   0.802   5.164   7.642  0.2200 -0.5378  0.6526
 1990TIP3    H127529   0.842   5.153   7.729  0.0323 -0.0798  0.7997
 1990TIP3    H227530   0.727   5.105   7.643  1.6507 -2.4841 -0.1331
 1991TIP3   OH227531   3.063   4.323   8.429  0.1102 -0.3930  0.5687
 1991TIP3    H127532   3.102   4.236   8.420  0.7492  0.0862 -1.5594
 1991TIP3    H227533   3.136   4.384   8.423 -0.6463  0.4038 -0.9203
 1992TIP3   OH227534   2.926   5.802   8.361  0.9433 -0.1781 -0.3528
 1992TIP3    H127535   2.837   5.768   8.362  0.2327  1.4993  1.4350
 1992TIP3    H227536   2.947   5.815   8.269 -0.6684 -0.5562 -0.7900
 1993TIP3   OH227537   2.308   4.191   2.088  0.7736  0.2865 -0.0871
 1993TIP3    H127538   2.362   4.251   2.139 -1.5205  0.0593  2.9037
 1993TIP3    H227539   2.226   4.238   2.073  0.2264 -0.8316 -0.8110
 1994TIP3   OH227540   1.923   3.889   8.179  0.3620  0.1208  0.0349
 1994TIP3    H127541   1.979   3.953   8.225  4.1197 -1.0140 -2.4597
 1994TIP3    H227542   1.945   3.806   8.221  0.6952 -0.3731 -1.1042
 1995TIP3   OH227543   2.014   6.382   0.907  0.3062  0.6946 -0.4324
 1995TIP3    H127544   2.001   6.450   0.840 -2.3554 -0.6540 -1.4838
 1995TIP3    H227545   1.961   6.411   0.981 -1.7225 -0.6106 -1.2842
 1996TIP3   OH227546   1.923   1.598   1.803  0.3930 -0.4427 -0.4931
 1996TIP3    H127547   1.917   1.693   1.811 -0.3626 -0.5445  0.4147
 1996TIP3    H227548   1.841   1.566   1.842  1.1262 -1.4998  0.2320
 1997TIP3   OH227549   3.814   0.342   7.180  0.1102  0.0206 -0.3495
 1997TIP3    H127550   3.835   0.295   7.099 -1.1803  0.9375 -1.2678
 1997TIP3    H227551   3.720   0.329   7.191  0.5293 -1.5371  1.9915
 1998TIP3   OH227552   5.861   5.664   7.636  0.3565  0.1881  0.3859
 1998TIP3    H127553   5.871   5.570   7.648 -1.1963 -0.1402 -0.5464
 1998TIP3    H227554   5.797   5.690   7.702  0.9014  0.6373  0.7486
 1999TIP3   OH227555   4.413   4.320   1.553  0.3422 -0.8307  0.5642
 1999TIP3    H127556   4.379   4.239   1.517  1.7418 -0.9515 -0.5734
 1999TIP3    H227557   4.364   4.389   1.509 -0.0973 -1.0344  0.7303
 2000TIP3   OH227558   1.671   6.116   0.932  0.3219 -0.2729  0.1817
 2000TIP3    H127559   1.706   6.084   1.015  1.1015 -0.2447 -0.1237
 2000TIP3    H227560   1.749   6.140   0.881 -0.1809  0.8221 -0.1145
 2001TIP3   OH227561   6.075   1.528   0.183  0.4349 -0.0079 -0.0115
 2001TIP3    H127562   6.083   1.480   0.100  1.2329  0.7212 -0.3662
 2001TIP3    H227563   5.993   1.495   0.222 -1.3933  1.5041 -2.3084
 2002TIP3   OH227564   1.249   0.412   2.157 -0.0399 -0.1162 -0.6724
 2002TIP3    H127565   1.181   0.345   2.167 -0.5798  0.0202 -3.0225
 2002TIP3    H227566   1.331   0.365   2.170 -0.4796 -0.5136  1.0335
 2003TIP3   OH227567   0.343   5.542   0.943 -0.2835 -0.1705 -0.5433
 2003TIP3    H127568   0.370   5.576   1.029 -2.5673  0.4738 -0.0227
 2003TIP3    H227569   0.339   5.620   0.887 -0.4749 -0.3424 -0.7662
 2004TIP3   OH227570   4.904   1.077   0.123 -0.6787 -0.6676 -0.7069
 2004TIP3    H127571   4.901   1.172   0.134 -1.3422 -0.6796 -0.7486
 2004TIP3    H227572   4.931   1.063   0.033  1.4448 -0.5403 -0.1310
 2005TIP3   OH227573   2.606   0.304   8.060  0.2257  0.0805  0.6465
 2005TIP3    H127574   2.563   0.236   8.008  0.2357  0.9890 -0.5821
 2005TIP3    H227575   2.548   0.316   8.135 -0.1282 -0.8030  0.5247
 2006TIP3   OH227576   0.206   1.416   0.323  0.4663 -0.1081 -0.5421
 2006TIP3    H127577   0.183   1.490   0.266 -0.1888  0.1287  0.0134
 2006TIP3    H227578   0.125   1.366   0.331  1.2093 -1.5971 -1.9088
 2007TIP3   OH227579   2.901   3.322   7.608 -0.0862 -0.0594  0.1485
 2007TIP3    H127580   2.821   3.276   7.583 -1.6984  1.9605  1.3012
 2007TIP3    H227581   2.958   3.253   7.644 -2.1295 -1.2771  1.2610
 2008TIP3   OH227582   3.251   5.438   7.792 -0.8052  0.0477 -0.3099
 2008TIP3    H127583   3.168   5.416   7.836 -0.4184 -0.9930 -0.0663
 2008TIP3    H227584   3.260   5.372   7.724  1.4986 -2.1016  1.8852
 2009TIP3   OH227585   6.261   3.761   8.524 -0.5367 -0.2338 -0.6859
 2009TIP3    H127586   6.214   3.814   8.588  0.1143  0.4740 -0.7953
 2009TIP3    H227587   6.199   3.690   8.504 -2.4506  1.7528 -2.3682
 2010TIP3   OH227588   3.675   4.239   2.651  0.7622 -0.0182  0.2565
 2010TIP3    H127589   3.590   4.259   2.692 -0.2023  1.1533 -2.1498
 2010TIP3    H227590   3.719   4.323   2.645  1.2134 -0.2983 -0.3760
 2011TIP3   OH227591   5.365   4.005   2.132  0.2288 -0.1319 -0.5067
 2011TIP3    H127592   5.459   3.984   2.137 -0.0536 -1.2147  2.0791
 2011TIP3    H227593   5.322   3.921   2.119 -0.5899 -0.6596  3.9889
 2012TIP3   OH227594   1.511   5.810   8.417  0.4773 -0.0031 -0.4975
 2012TIP3    H127595   1.418   5.799   8.436  0.1347  2.3647 -0.4553
 2012TIP3    H227596   1.555   5.789   8.500  0.2130 -2.9464 -1.0173
 2013TIP3   OH227597   1.156   5.201   6.991  0.1400  0.0932 -0.1809
 2013TIP3    H127598   1.173   5.112   6.959 -1.0002 -0.4839  0.7914
 2013TIP3    H227599   1.154   5.193   7.086  1.1323  1.3819 -0.0147
 2014TIP3   OH227600   0.920   5.888   7.524  0.5825  0.2467  0.0730
 2014TIP3    H127601   0.877   5.967   7.491  0.7452 -0.6196 -2.4502
 2014TIP3    H227602   0.878   5.871   7.608 -0.7205  1.9854 -0.1624
 2015TIP3   OH227603   5.054   2.965   1.094 -0.1810  0.0565 -0.4003
 2015TIP3    H127604   5.140   2.965   1.136  0.9875 -0.6238 -2.6811
 2015TIP3    H227605   5.049   3.048   1.047 -0.2520 -0.4311 -1.2701
 2016TIP3   OH227606   0.381   5.596   6.848 -0.4399  0.1708  0.4931
 2016TIP3    H127607   0.357   5.587   6.756 -2.7485 -1.3395  1.1481
 2016TIP3    H227608   0.441   5.523   6.865  0.1071  0.5396  0.1724
 2017TIP3   OH227609   4.977   5.929   2.162  0.3535 -0.5760  0.1846
 2017TIP3    H127610   5.033   6.006   2.149 -3.0638  1.9768 -0.9116
 2017TIP3    H227611   4.967   5.892   2.074  0.8612 -1.4671  0.4918
 2018TIP3   OH227612   6.517   1.966   1.743 -0.3386 -0.1240  0.2252
 2018TIP3    H127613   6.554   1.956   1.831  0.1564  0.9254  0.1413
 2018TIP3    H227614   6.587   1.937   1.685  0.3404  1.7334  0.0723
 2019TIP3   OH227615   2.090   2.150   6.899 -0.1016 -0.0546 -0.2734
 2019TIP3    H127616   2.100   2.075   6.958  3.3772  0.1797 -0.3808
 2019TIP3    H227617   2.017   2.200   6.936 -1.8506 -2.8688  0.4125
 2020TIP3   OH227618   1.058   4.133   0.522 -0.1854  0.2924 -0.2916
 2020TIP3    H127619   1.101   4.062   0.571  1.5133 -0.3897 -2.6116
 2020TIP3    H227620   0.964   4.116   0.532  0.1679 -1.5627  0.2091
 2021TIP3   OH227621   1.482   3.858   2.234 -0.3226  0.1441  0.2562
 2021TIP3    H127622   1.481   3.945   2.193 -0.6940 -0.3411 -0.7923
 2021TIP3    H227623   1.567   3.854   2.279  1.2649 -0.2070 -2.5209
 2022TIP3   OH227624   3.120   6.055   6.914 -0.4437  0.0116 -0.0140
 2022TIP3    H127625   3.128   5.960   6.918 -1.7138 -0.0715  1.4683
 2022TIP3    H227626   3.026   6.072   6.909 -0.5181  1.2029  3.1873
 2023TIP3   OH227627   5.645   0.911   6.986 -0.6954  0.5672 -0.5844
 2023TIP3    H127628   5.726   0.922   7.036 -0.7919  1.7694 -0.6628
 2023TIP3    H227629   5.583   0.874   7.048 -1.0899  2.9004  0.5216
 2024TIP3   OH227630   5.215   4.038   1.142 -0.2995 -0.5848  0.4528
 2024TIP3    H127631   5.309   4.053   1.138 -0.4673  0.4824  0.3995
 2024TIP3    H227632   5.197   4.022   1.234  0.0177 -1.4723  0.3790
 2025TIP3   OH227633   3.504   5.427   7.545 -0.8852  0.0224  0.0629
 2025TIP3    H127634   3.576   5.476   7.507 -0.6367  0.0718  0.5910
 2025TIP3    H227635   3.444   5.412   7.472  0.4721 -1.5464 -0.7921
 2026TIP3   OH227636   3.036   0.554   0.766  0.0214  0.1911  0.2999
 2026TIP3    H127637   3.100   0.498   0.722 -1.7463 -1.3851 -0.4084
 2026TIP3    H227638   2.998   0.607   0.696 -0.1856  0.3701  0.5444
 2027TIP3   OH227639   0.038   1.786   1.418 -0.3134 -0.4794  0.0759
 2027TIP3    H127640   0.070   1.698   1.437 -0.9438 -0.6019  0.6393
 2027TIP3    H227641   0.053   1.798   1.324  1.7360 -0.3491  0.3810
 2028TIP3   OH227642   1.323   4.184   8.189  0.1476 -0.3894  0.1172
 2028TIP3    H127643   1.399   4.195   8.247  1.8285 -1.9749 -1.6058
 2028TIP3    H227644   1.362   4.173   8.102 -2.1620 -0.2266 -1.0008
 2029TIP3   OH227645   2.072   6.476   2.397  0.1870 -0.1698  0.1305
 2029TIP3    H127646   1.984   6.483   2.359  0.5366 -1.1664 -0.9301
 2029TIP3    H227647   2.062   6.506   2.487 -1.1753  0.0424 -0.0756
 2030TIP3   OH227648   2.997   6.646   0.917  0.5339  0.7020 -0.3830
 2030TIP3    H127649   2.930   6.688   0.970  0.2340  2.2464 -1.9072
 2030TIP3    H227650   3.075   6.701   0.928  0.9182  0.1562 -0.3315
 2031TIP3   OH227651   2.907   5.568   2.175 -0.1074 -0.1559  0.0141
 2031TIP3    H127652   2.893   5.629   2.249 -0.7311 -0.3707  0.0740
 2031TIP3    H227653   2.952   5.621   2.109  0.1749  0.1239  0.4218
 2032TIP3   OH227654   4.480   1.287   8.289 -0.3507  0.1840  0.2114
 2032TIP3    H127655   4.519   1.200   8.287  0.7405  0.6659 -0.4361
 2032TIP3    H227656   4.546   1.344   8.249 -2.4532  0.7622 -2.7683
 2033TIP3   OH227657   2.890   0.884   0.932  0.2978  0.7633 -0.1614
 2033TIP3    H127658   2.817   0.889   0.870  0.1954  0.9105 -0.0297
 2033TIP3    H227659   2.849   0.892   1.018  0.2748 -0.7623  0.0070
 2034TIP3   OH227660   5.764   5.443   7.208  0.9619 -0.0600 -0.1890
 2034TIP3    H127661   5.789   5.382   7.278 -2.0030  0.2343  1.3084
 2034TIP3    H227662   5.789   5.529   7.242  2.4930 -0.1320 -1.0247
 2035TIP3   OH227663   6.734   2.586   7.330 -0.1689 -0.3130 -0.1662
 2035TIP3    H127664   6.808   2.647   7.335 -1.2709  1.0832 -0.3341
 2035TIP3    H227665   6.657   2.640   7.346 -1.2579 -1.5312 -1.0852
 2036TIP3   OH227666   5.649   0.704   7.670 -0.2278 -0.0381 -0.0788
 2036TIP3    H127667   5.720   0.679   7.611 -0.5572  0.4180 -0.6785
 2036TIP3    H227668   5.693   0.732   7.751  0.2602  0.0579 -0.3755
 2037TIP3   OH227669   3.983   6.486   1.159 -0.6720  0.0478  0.0188
 2037TIP3    H127670   4.026   6.559   1.204 -3.7105  1.1958  1.3669
 2037TIP3    H227671   3.984   6.510   1.066  0.8588  0.3508  0.0914
 2038TIP3   OH227672   6.572   0.460   0.466 -0.1142  0.9613  0.3753
 2038TIP3    H127673   6.554   0.366   0.457 -0.2118  0.9118  1.0707
 2038TIP3    H227674   6.551   0.496   0.380  0.4035  0.2703 -0.0537
 2039TIP3   OH227675   2.762   4.295   7.068  0.1382  0.7195 -0.3386
 2039TIP3    H127676   2.802   4.210   7.051 -0.7476 -0.0832  1.2815
 2039TIP3    H227677   2.726   4.322   6.983 -1.5098 -1.6115 -0.4943
 2040TIP3   OH227678   0.730   1.690   7.082 -0.1881 -0.0925  0.4302
 2040TIP3    H127679   0.718   1.641   7.163 -1.6136  2.7003  2.0444
 2040TIP3    H227680   0.740   1.780   7.110  1.4466  0.7439 -2.4333
 2041TIP3   OH227681   3.465   2.616   0.207 -0.4394  0.2131 -0.3906
 2041TIP3    H127682   3.402   2.682   0.177 -1.3264 -0.8833 -1.0171
 2041TIP3    H227683   3.476   2.633   0.300 -1.3675  0.6618 -0.3565
 2042TIP3   OH227684   5.955   3.642   0.222  0.2243  0.1011 -0.3659
 2042TIP3    H127685   5.921   3.698   0.153 -1.4670 -0.3572  0.0579
 2042TIP3    H227686   5.878   3.608   0.267  1.2281 -1.3291  0.3840
 2043TIP3   OH227687   1.272   1.005   1.253  0.3520 -0.3237 -0.0264
 2043TIP3    H127688   1.267   0.910   1.244  1.6570 -0.4922  0.7937
 2043TIP3    H227689   1.265   1.037   1.163 -2.3565 -1.0141 -0.1622
 2044TIP3   OH227690   6.042   4.032   2.563 -0.0385  0.4561 -0.4154
 2044TIP3    H127691   6.117   4.080   2.599 -0.3361  0.8179 -0.2695
 2044TIP3    H227692   6.077   3.945   2.541  0.3226  0.4823  0.0430
 2045TIP3   OH227693   0.367   3.809   2.233 -0.1431 -0.0969  0.1838
 2045TIP3    H127694   0.389   3.716   2.230  1.4883  0.2939 -0.8311
 2045TIP3    H227695   0.289   3.812   2.290 -0.0354 -2.0193  0.5318
 2046TIP3   OH227696   4.116   2.986   2.438 -0.5814  0.3039  0.3443
 2046TIP3    H127697   4.197   2.939   2.420 -0.7393  0.5606 -1.2486
 2046TIP3    H227698   4.144   3.075   2.460 -0.4305  0.9729 -2.2172
 2047TIP3   OH227699   5.796   1.930   7.507  1.0556 -0.2545  0.3935
 2047TIP3    H127700   5.770   1.978   7.429  2.3116 -0.7250 -0.3460
 2047TIP3    H227701   5.761   1.981   7.580  1.0105  0.9251 -0.4343
 2048TIP3   OH227702   2.605   4.762   0.048  0.1645 -0.2875 -0.5992
 2048TIP3    H127703   2.526   4.720   0.084 -0.6206  0.7054 -1.0930
 2048TIP3    H227704   2.661   4.689   0.022 -0.8950 -1.0317 -0.8641
 2049TIP3   OH227705   1.892   1.189   8.320 -0.0970  0.2311 -0.2231
 2049TIP3    H127706   1.985   1.173   8.331 -0.7004 -4.4102  0.6192
 2049TIP3    H227707   1.876   1.175   8.226 -0.1008 -0.5499 -0.1137
 2050TIP3   OH227708   1.800   0.068   0.629  0.2868  0.6799  0.1155
 2050TIP3    H127709   1.742   0.144   0.626  1.5927  1.7143 -2.5876
 2050TIP3    H227710   1.888   0.105   0.626  1.0187 -0.9165  0.7531
 2051TIP3   OH227711   6.103   1.834   1.261 -0.3495 -0.8383 -0.3552
 2051TIP3    H127712   6.143   1.758   1.305 -0.2419 -0.7456 -0.2938
 2051TIP3    H227713   6.113   1.815   1.168  1.9363  0.2615 -0.3910
 2052TIP3   OH227714   2.423   6.361   0.950 -0.1663 -0.5634  0.1178
 2052TIP3    H127715   2.367   6.395   1.020  0.9026  1.0327  0.2394
 2052TIP3    H227716   2.478   6.296   0.993 -0.0201 -0.1205  0.6059
 2053TIP3   OH227717   6.507   3.497   0.696  0.8711  0.5287  0.5695
 2053TIP3    H127718   6.572   3.435   0.728  2.5827  1.5725 -0.7023
 2053TIP3    H227719   6.531   3.580   0.737  0.7837  1.0670 -0.4424
 2054TIP3   OH227720   2.955   6.259   1.299  0.2273  0.3841 -0.1876
 2054TIP3    H127721   2.990   6.342   1.332  0.2234  0.3982 -0.2185
 2054TIP3    H227722   2.864   6.258   1.329  0.6168 -0.2575  1.0113
 2055TIP3   OH227723   5.943   4.994   8.163 -0.1202  0.0945 -0.1046
 2055TIP3    H127724   5.916   5.081   8.132 -2.4772 -0.3584  0.4701
 2055TIP3    H227725   5.894   4.982   8.244 -0.0934 -1.9183 -0.3559
 2056TIP3   OH227726   5.032   1.137   0.933 -0.3050 -0.3059 -0.1807
 2056TIP3    H127727   5.056   1.113   1.022  4.2045  1.0619 -0.7941
 2056TIP3    H227728   5.013   1.231   0.938  0.1741 -0.1780 -0.6548
 2057TIP3   OH227729   1.235   3.864   0.345 -0.7774  0.4215  0.9593
 2057TIP3    H127730   1.205   3.952   0.322 -0.1283  0.4292  0.0888
 2057TIP3    H227731   1.316   3.853   0.295 -2.3860 -1.8336 -1.3788
 2058TIP3   OH227732   4.859   2.143   0.753  0.3688  0.1711  0.6112
 2058TIP3    H127733   4.925   2.212   0.758  0.8135 -0.2648  0.8998
 2058TIP3    H227734   4.781   2.187   0.720  1.1929  0.4176 -1.1181
 2059TIP3   OH227735   6.640   5.893   7.034 -0.2489 -0.3365 -0.7475
 2059TIP3    H127736   6.666   5.977   6.994 -0.0020  0.6715  1.3924
 2059TIP3    H227737   6.686   5.891   7.117 -2.2380 -1.4019  0.4062
 2060TIP3   OH227738   4.562   0.780   2.065 -0.4898 -0.4463 -0.3390
 2060TIP3    H127739   4.609   0.746   2.141  1.3076  2.6322  0.0771
 2060TIP3    H227740   4.621   0.762   1.991 -0.2021  0.4049 -0.3247
 2061TIP3   OH227741   6.000   0.511   1.101 -1.1242  0.0883  0.0224
 2061TIP3    H127742   5.941   0.451   1.147 -1.2399  0.1688 -0.0234
 2061TIP3    H227743   6.049   0.455   1.041 -1.8033  0.1609 -0.6031
 2062TIP3   OH227744   2.850   6.091   7.520  0.7980 -0.2705  0.0924
 2062TIP3    H127745   2.924   6.151   7.512 -0.0295  0.6948 -0.7425
 2062TIP3    H227746   2.845   6.047   7.435 -0.6099  0.9651 -0.5196
 2063TIP3   OH227747   5.803   5.146   0.031 -0.0984 -0.0061 -0.3739
 2063TIP3    H127748   5.818   5.192   0.114 -0.2159  1.0778 -0.9285
 2063TIP3    H227749   5.742   5.203  -0.017  0.5426 -0.2320 -1.5079
 2064TIP3   OH227750   0.367   4.319   7.829 -0.0517 -0.0979 -0.5832
 2064TIP3    H127751   0.431   4.250   7.842 -0.5967 -1.0226 -2.4660
 2064TIP3    H227752   0.327   4.332   7.915  3.3226  1.2924  0.9689
 2065TIP3   OH227753   5.238   0.952   0.407 -0.2328  0.2330  0.1597
 2065TIP3    H127754   5.166   0.941   0.469 -0.7863 -0.8313 -0.6306
 2065TIP3    H227755   5.197   0.950   0.321  0.7020 -0.1308 -0.3012
 2066TIP3   OH227756   5.502   2.085   1.389 -0.0802  0.7133 -0.3673
 2066TIP3    H127757   5.588   2.045   1.373 -0.4343 -0.3156  0.1971
 2066TIP3    H227758   5.443   2.040   1.328 -0.2062  1.5146 -0.8511
 2067TIP3   OH227759   2.728   1.472   0.526 -0.0317 -0.4896 -0.3589
 2067TIP3    H127760   2.641   1.466   0.486  0.0169 -0.3167 -0.4927
 2067TIP3    H227761   2.739   1.389   0.571 -1.2002  0.3135  1.5548
 2068TIP3   OH227762   3.874   5.558   0.410 -0.2400 -0.9806  0.4398
 2068TIP3    H127763   3.954   5.566   0.461  1.0082  1.2048 -1.6272
 2068TIP3    H227764   3.903   5.527   0.324 -1.8183 -1.5632  0.0828
 2069TIP3   OH227765   4.698   2.137   3.231  0.7968  0.2670 -0.1796
 2069TIP3    H127766   4.736   2.048   3.232  0.9726  0.3364 -0.5946
 2069TIP3    H227767   4.771   2.194   3.254  1.0796  0.4474 -1.4492
 2070TIP3   OH227768   0.977   2.288   0.453  0.5131 -0.3510  0.1101
 2070TIP3    H127769   0.918   2.217   0.427 -0.0812  0.9483 -2.2582
 2070TIP3    H227770   0.940   2.320   0.536 -2.7664  1.0092 -1.6979
 2071TIP3   OH227771   3.600   3.522   1.462  0.2336 -0.1594  0.6978
 2071TIP3    H127772   3.684   3.566   1.451 -1.2260  2.5153 -0.7654
 2071TIP3    H227773   3.558   3.568   1.534 -2.7351  3.7302 -2.9728
 2072TIP3   OH227774   3.016   0.765   1.760 -0.4942 -0.1169 -0.0101
 2072TIP3    H127775   3.005   0.677   1.795 -0.6974 -0.3587 -0.6604
 2072TIP3    H227776   3.023   0.821   1.837 -2.4172 -0.4485  0.4609
 2073TIP3   OH227777   3.773   6.802   1.223 -0.3191 -0.0021 -0.0687
 2073TIP3    H127778   3.782   6.717   1.178 -1.5046  0.3781 -1.1111
 2073TIP3    H227779   3.863   6.834   1.233  0.2808 -2.0202  1.6990
 2074TIP3   OH227780   3.453   1.497   1.810  0.5016  0.8785 -0.1457
 2074TIP3    H127781   3.484   1.434   1.875 -0.2088  0.6596 -0.0052
 2074TIP3    H227782   3.477   1.458   1.725 -0.3946  0.1462 -0.0815
 2075TIP3   OH227783   2.347   1.636   0.971  0.1560  0.2502 -0.3225
 2075TIP3    H127784   2.271   1.693   0.972  0.9246  1.4116 -2.3139
 2075TIP3    H227785   2.315   1.555   0.930 -0.3612  0.1682  0.2395
 2076TIP3   OH227786   4.804   1.491   6.750  0.6181  0.2868 -0.2199
 2076TIP3    H127787   4.876   1.454   6.801  0.9886 -0.4849 -1.2510
 2076TIP3    H227788   4.846   1.548   6.686  0.3813 -0.4987 -1.1099
 2077TIP3   OH227789   2.242   3.367   7.810 -1.0258  0.0864  0.0600
 2077TIP3    H127790   2.318   3.311   7.829 -1.0562 -0.3624 -1.0839
 2077TIP3    H227791   2.258   3.446   7.861  0.6012  0.3043 -0.7208
 2078TIP3   OH227792   3.574   0.934   8.579 -0.3531  0.1554  0.0710
 2078TIP3    H127793   3.587   1.027   8.562  1.3497  0.0151  0.4646
 2078TIP3    H227794   3.529   0.931   8.664 -0.0780  0.6110  0.2356
 2079TIP3   OH227795   3.407   0.083   6.819 -0.2719  0.1354  0.6456
 2079TIP3    H127796   3.420   0.172   6.787 -0.9627  0.5443  1.4635
 2079TIP3    H227797   3.354   0.093   6.898 -1.3618 -1.0771  0.1223
 2080TIP3   OH227798   5.849   0.544   8.341 -0.0019 -0.1508  0.0790
 2080TIP3    H127799   5.778   0.587   8.295  0.2303  1.0262  0.7927
 2080TIP3    H227800   5.917   0.533   8.275 -0.1082  0.4862 -0.1422
 2081TIP3   OH227801   2.958   1.375   0.740  0.0796  0.6533 -0.4270
 2081TIP3    H127802   2.940   1.412   0.826 -0.6913  1.6529 -0.9912
 2081TIP3    H227803   2.883   1.318   0.722 -0.6042  1.7247 -1.1035
 2082TIP3   OH227804   6.064   0.872   1.719  0.1355  0.2882  0.1811
 2082TIP3    H127805   6.082   0.966   1.725 -1.7565  0.6122  2.0423
 2082TIP3    H227806   6.063   0.842   1.809  2.1862 -1.9113 -0.4211
 2083TIP3   OH227807   6.020   3.169   2.179  0.5715 -0.6905  0.2604
 2083TIP3    H127808   5.976   3.130   2.254 -1.1772  2.5265  1.1160
 2083TIP3    H227809   6.069   3.243   2.216  0.8240  0.1167 -1.5648
 2084TIP3   OH227810   4.762   0.898   1.495  0.8437 -0.4567  0.5210
 2084TIP3    H127811   4.726   0.810   1.509 -0.7928  0.0708 -0.0709
 2084TIP3    H227812   4.740   0.918   1.405 -2.9072  2.2532  1.7955
 2085TIP3   OH227813   3.290   2.681   7.832 -0.3738  0.2302  0.4224
 2085TIP3    H127814   3.248   2.659   7.915 -0.0938 -0.2813  0.4328
 2085TIP3    H227815   3.382   2.659   7.845 -0.1812  0.8964  0.2430
 2086TIP3   OH227816   6.798   2.008   8.232 -0.6031  0.3448  0.4341
 2086TIP3    H127817   6.734   2.069   8.194  0.2427  1.1340  0.2198
 2086TIP3    H227818   6.849   1.978   8.157 -0.0855  0.5075  0.7143
 2087TIP3   OH227819   6.360   0.592   8.201 -0.9376 -0.6155  0.1069
 2087TIP3    H127820   6.326   0.682   8.209 -2.5258 -1.1533 -0.1768
 2087TIP3    H227821   6.436   0.600   8.144 -1.4383  0.4810 -0.4372
 2088TIP3   OH227822   6.271   3.627   0.610  0.3014  0.2450 -0.3118
 2088TIP3    H127823   6.271   3.699   0.673 -0.0607 -0.1244  0.1198
 2088TIP3    H227824   6.351   3.579   0.629 -0.2441 -0.3778  0.4765
 2089TIP3   OH227825   5.592   3.391   1.403 -0.1817 -0.0549 -0.4557
 2089TIP3    H127826   5.578   3.326   1.334 -1.3246 -0.2297 -0.0783
 2089TIP3    H227827   5.594   3.339   1.484 -0.0572  0.2744 -0.2464
 2090TIP3   OH227828   1.900   4.761   6.705 -0.4527  0.2570  0.2538
 2090TIP3    H127829   1.977   4.764   6.649 -1.1156  1.0156 -0.6449
 2090TIP3    H227830   1.894   4.848   6.744 -2.5117  1.2748 -2.0455
 2091TIP3   OH227831   2.792   6.101   8.247  0.0315  0.6102  0.9796
 2091TIP3    H127832   2.708   6.096   8.201  0.0844  1.4529  0.7651
 2091TIP3    H227833   2.803   6.015   8.287  0.3150 -0.4232 -1.1782
 2092TIP3   OH227834   6.761   6.388   0.207 -0.5572  1.0891 -0.6564
 2092TIP3    H127835   6.756   6.391   0.303 -0.4923 -2.6549 -0.3987
 2092TIP3    H227836   6.670   6.385   0.178 -0.6184 -1.2638 -0.3941
 2093TIP3   OH227837   3.848   5.937   2.338  0.3622 -0.3058 -0.1004
 2093TIP3    H127838   3.784   5.965   2.273 -1.0974  0.9932  1.7609
 2093TIP3    H227839   3.804   5.867   2.386  1.0515 -0.6229  0.0780
 2094TIP3   OH227840   1.182   4.724   0.179  0.3624  0.4228 -0.4686
 2094TIP3    H127841   1.254   4.767   0.226  0.4194 -1.4868  1.3329
 2094TIP3    H227842   1.218   4.707   0.091  1.9636  0.0077  0.2242
 2095TIP3   OH227843   4.165   2.844   0.478 -0.8695 -0.1714 -0.2832
 2095TIP3    H127844   4.258   2.864   0.468 -0.9187 -0.3300 -1.1445
 2095TIP3    H227845   4.134   2.906   0.544 -0.3668  0.5523 -0.7151
 2096TIP3   OH227846   4.777   4.358   0.154 -0.0689  0.1132  0.0016
 2096TIP3    H127847   4.769   4.359   0.249 -0.0133 -1.6772  0.0609
 2096TIP3    H227848   4.857   4.407   0.135 -0.6366  1.3642  0.7928
 2097TIP3   OH227849   4.744   2.316   1.573 -0.1836  0.0126 -0.4247
 2097TIP3    H127850   4.682   2.262   1.623 -0.3783 -0.0186 -0.6976
 2097TIP3    H227851   4.775   2.380   1.636  0.7925 -1.0106  0.1688
 2098TIP3   OH227852   3.187   2.639   7.590 -0.0935 -0.2652 -0.5027
 2098TIP3    H127853   3.230   2.665   7.671  0.4765  2.2530 -1.4827
 2098TIP3    H227854   3.164   2.723   7.548  0.3700 -1.4224 -3.2913
 2099TIP3   OH227855   2.670   2.997   1.793 -0.3859 -0.2488 -0.0830
 2099TIP3    H127856   2.610   3.066   1.766  0.3629 -0.3376 -2.1927
 2099TIP3    H227857   2.646   2.978   1.883 -1.6943  1.6075  0.0255
 2100TIP3   OH227858   5.465   1.294   1.467 -0.5851  0.0197 -0.1684
 2100TIP3    H127859   5.475   1.368   1.407  0.4476 -0.1148 -0.1936
 2100TIP3    H227860   5.447   1.219   1.411 -0.4654  0.0464 -0.2430
 2101TIP3   OH227861   1.048   3.330   7.446 -0.0824 -0.0582 -0.2775
 2101TIP3    H127862   1.059   3.354   7.538 -1.1192 -0.3917 -0.0539
 2101TIP3    H227863   1.037   3.235   7.447  0.6808 -0.1670 -0.8363
 2102TIP3   OH227864   2.082   3.912   7.598 -0.2649  0.4697  0.3735
 2102TIP3    H127865   2.043   3.859   7.529  1.4484  1.9745 -1.9188
 2102TIP3    H227866   2.172   3.927   7.569  0.8758  0.4379  3.4337
 2103TIP3   OH227867   4.854   0.992   1.735 -0.3338 -0.1584  0.2123
 2103TIP3    H127868   4.844   0.971   1.642  2.9967  2.1258 -0.8496
 2103TIP3    H227869   4.841   0.908   1.780 -1.7928 -1.3909 -2.2838
 2104TIP3   OH227870   1.745   0.438   2.675 -0.2171 -0.4067 -0.0576
 2104TIP3    H127871   1.835   0.461   2.701 -0.3793 -1.1539  1.2775
 2104TIP3    H227872   1.724   0.362   2.730 -1.6412 -0.2747 -0.4031
 2105TIP3   OH227873   5.551   4.897   7.390  0.5841 -0.0226  0.3567
 2105TIP3    H127874   5.530   4.817   7.344  1.5622 -0.2887  0.3601
 2105TIP3    H227875   5.524   4.881   7.481  1.2325 -0.5467  0.4656
 2106TIP3   OH227876   0.530   3.490   1.908 -0.5040 -0.4933  0.0958
 2106TIP3    H127877   0.508   3.531   1.992 -1.2878 -1.2925  0.2961
 2106TIP3    H227878   0.453   3.437   1.886  0.7220 -2.3959  0.1736
 2107TIP3   OH227879   2.036   0.352   1.651 -0.3119  0.4511  0.2189
 2107TIP3    H127880   2.129   0.343   1.630 -0.0507  1.6313  0.7932
 2107TIP3    H227881   2.029   0.320   1.741 -0.5026  0.1987  0.1157
 2108TIP3   OH227882   5.555   3.510   0.782 -0.3397  0.0655  0.1558
 2108TIP3    H127883   5.495   3.491   0.854 -0.4455  0.2042  0.1042
 2108TIP3    H227884   5.564   3.426   0.736  0.2235 -0.1837  0.6971
 2109TIP3   OH227885   4.257   2.965   8.380  0.0356  0.4428  0.4878
 2109TIP3    H127886   4.284   2.874   8.389 -0.3123  0.2750 -0.0917
 2109TIP3    H227887   4.339   3.013   8.370  0.2467  0.2631  1.2838
 2110TIP3   OH227888   2.377   4.551   2.494  0.1456 -0.5446  0.0510
 2110TIP3    H127889   2.470   4.539   2.475  0.6284  1.1431  1.1324
 2110TIP3    H227890   2.375   4.616   2.565 -1.8987  0.4962 -0.8780
 2111TIP3   OH227891   1.734   1.316   1.400  0.0798  0.1499 -0.3912
 2111TIP3    H127892   1.650   1.356   1.376 -1.1167 -1.2295  1.2754
 2111TIP3    H227893   1.799   1.384   1.381 -1.4995  1.5764 -0.9122
 2112TIP3   OH227894   4.559   1.533   6.792  0.2329 -0.2766  1.0935
 2112TIP3    H127895   4.556   1.471   6.865  0.4074 -1.4750  0.1277
 2112TIP3    H227896   4.645   1.519   6.753  0.7698  1.4835  1.5863
 2113TIP3   OH227897   6.627   0.164   7.977  0.4737  0.3872 -0.6295
 2113TIP3    H127898   6.572   0.133   8.049  0.1990 -1.5884 -1.6206
 2113TIP3    H227899   6.567   0.213   7.921  0.3574  0.6745 -0.2547
 2114TIP3   OH227900   6.049   4.861   7.778  0.1716  0.0844  0.6920
 2114TIP3    H127901   5.978   4.834   7.719  0.4410 -2.0362  1.2548
 2114TIP3    H227902   6.108   4.912   7.723  0.9338 -2.6539 -1.2119
 2115TIP3   OH227903   0.854   3.054   2.019 -0.0004 -0.3602  0.2746
 2115TIP3    H127904   0.934   3.025   2.063 -0.1313  0.2337  0.9238
 2115TIP3    H227905   0.864   3.149   2.012  0.9263 -0.5639 -2.7932
 2116TIP3   OH227906   4.984   5.143   2.192  0.7593 -0.0331 -0.0846
 2116TIP3    H127907   4.922   5.192   2.139 -0.9427 -0.8705  1.0480
 2116TIP3    H227908   4.959   5.163   2.282  1.6295 -1.0177  0.3890
 2117TIP3   OH227909   6.502   3.184   1.340 -0.1135 -0.7271  0.0982
 2117TIP3    H127910   6.538   3.156   1.424 -1.5049 -1.2689  0.5502
 2117TIP3    H227911   6.516   3.110   1.281  0.4636 -0.5180 -0.0353
 2118TIP3   OH227912   2.937   2.052   8.135 -0.4069  0.0207  0.2117
 2118TIP3    H127913   2.934   2.127   8.195 -0.9440  0.0157  0.1935
 2118TIP3    H227914   2.920   1.976   8.191 -3.5127  0.2069 -0.2720
 2119TIP3   OH227915   2.627   1.250   2.490 -0.0919  0.5061 -0.2859
 2119TIP3    H127916   2.698   1.189   2.474 -0.9581 -1.0155  1.3320
 2119TIP3    H227917   2.651   1.328   2.440  4.2779  1.3163  2.5379
 2120TIP3   OH227918   1.488   5.863   6.868  0.4633  0.0004  0.1329
 2120TIP3    H127919   1.393   5.871   6.878  0.6750  0.6353  1.9744
 2120TIP3    H227920   1.524   5.932   6.924  2.0075  0.6125 -1.5283
 2121TIP3   OH227921   5.603   4.096   1.636  0.3463 -0.6925  0.6136
 2121TIP3    H127922   5.568   4.183   1.620  0.1345 -0.4685  2.1355
 2121TIP3    H227923   5.698   4.107   1.630  0.2889 -0.7074 -0.7006
 2122TIP3   OH227924   0.418   2.975   0.841  0.3181 -0.0378 -0.1839
 2122TIP3    H127925   0.503   2.973   0.884 -0.0108 -0.7839  0.4556
 2122TIP3    H227926   0.357   2.939   0.906 -0.1770 -1.2857 -1.2776
 2123TIP3   OH227927   3.190   2.523   0.473  0.6791 -0.1200  0.0176
 2123TIP3    H127928   3.096   2.509   0.469  0.7272 -0.3013 -0.7247
 2123TIP3    H227929   3.202   2.613   0.442  0.6423  0.4263  1.5157
 2124TIP3   OH227930   4.004   3.835   1.788 -0.3243 -0.3835 -0.4909
 2124TIP3    H127931   3.965   3.900   1.729 -1.8881 -1.1531 -0.3519
 2124TIP3    H227932   4.059   3.781   1.731 -1.2819 -0.6994 -1.1395
 2125TIP3   OH227933   6.701   1.138   6.625  0.4974  0.5155 -0.0425
 2125TIP3    H127934   6.628   1.184   6.583 -0.5796  0.0745  1.2595
 2125TIP3    H227935   6.778   1.164   6.575 -0.6504  0.2992 -2.0179
 2126TIP3   OH227936   2.768   5.929   6.736  0.2650 -0.3549 -0.1199
 2126TIP3    H127937   2.850   5.930   6.687  1.2623 -0.3734  1.4719
 2126TIP3    H227938   2.769   5.844   6.781  0.4365  0.5064  1.5720
 2127TIP3   OH227939   5.269   4.048   8.410  0.3305  0.3708  0.2546
 2127TIP3    H127940   5.318   4.017   8.334  1.0625  1.1948  0.3631
 2127TIP3    H227941   5.225   4.127   8.378 -1.0104 -0.3978  0.1425
 2128TIP3   OH227942   1.854   2.122   0.697 -0.0963 -0.4363  0.5452
 2128TIP3    H127943   1.804   2.189   0.649  0.4047 -1.0788 -0.9183
 2128TIP3    H227944   1.787   2.064   0.733 -0.4645 -0.4836 -0.1983
 2129TIP3   OH227945   5.763   3.900   8.239 -0.0648 -0.0606  0.1743
 2129TIP3    H127946   5.835   3.959   8.218 -1.0339  1.4202  0.8135
 2129TIP3    H227947   5.798   3.842   8.306  0.4252  0.9228  0.7943
 2130TIP3   OH227948   0.311   6.002   8.436 -0.1096  0.0634  0.3894
 2130TIP3    H127949   0.291   6.038   8.349 -0.4791  0.1540  0.5084
 2130TIP3    H227950   0.399   5.965   8.428 -0.1499  0.0607 -0.0255
 2131TIP3   OH227951   6.606   1.978   6.361  0.5682  0.0139  0.6167
 2131TIP3    H127952   6.551   1.908   6.327 -0.1407  1.1231 -0.6122
 2131TIP3    H227953   6.641   1.943   6.443  2.3078 -2.8119 -1.1205
 2132TIP3   OH227954   5.330   1.747   0.564  0.0715  0.4958 -0.0261
 2132TIP3    H127955   5.345   1.818   0.502 -0.6408 -0.1245 -0.9378
 2132TIP3    H227956   5.336   1.788   0.651  1.8583  1.2367 -0.4555
 2133TIP3   OH227957   0.648   0.764   0.255 -0.2466  0.2361 -0.3808
 2133TIP3    H127958   0.693   0.754   0.339 -0.3313 -0.1083 -0.3765
 2133TIP3    H227959   0.567   0.715   0.266 -0.6788  0.9401 -0.3507
 2134TIP3   OH227960   1.402   4.377   0.598  0.4875  0.0919  0.0804
 2134TIP3    H127961   1.401   4.406   0.507 -1.0884  0.3384  0.1490
 2134TIP3    H227962   1.365   4.289   0.595  0.4608  0.0885  0.4887
 2135TIP3   OH227963   4.475   0.923   0.740 -0.2687 -0.0828  0.1557
 2135TIP3    H127964   4.544   0.871   0.698 -0.3030  0.4053 -0.5169
 2135TIP3    H227965   4.442   0.866   0.810  0.9833 -0.2340  0.6605
 2136TIP3   OH227966   0.723   5.970   1.470  0.1142  0.4637  0.1452
 2136TIP3    H127967   0.751   5.949   1.381  0.1220  1.6373 -0.1433
 2136TIP3    H227968   0.801   5.958   1.524 -0.4656 -2.8369  0.5032
 2137TIP3   OH227969   5.706   5.833   1.767 -0.4562  0.1621  0.0561
 2137TIP3    H127970   5.800   5.849   1.768 -0.9634  4.4002 -1.0798
 2137TIP3    H227971   5.695   5.766   1.699  1.7225 -0.9728  0.7154
 2138TIP3   OH227972   1.844   0.367   7.910  0.1807 -0.2823  0.3548
 2138TIP3    H127973   1.752   0.352   7.888  0.0675 -0.1305  0.7067
 2138TIP3    H227974   1.868   0.291   7.964  0.1084 -0.0661  0.6964
 2139TIP3   OH227975   4.247   3.853   1.057 -0.0770 -0.7763 -0.3803
 2139TIP3    H127976   4.217   3.927   1.006  0.7748 -0.8033 -0.9333
 2139TIP3    H227977   4.339   3.871   1.076 -0.2937 -0.8893  0.9325
 2140TIP3   OH227978   0.078   0.300   0.218  0.4537  0.2534 -0.1999
 2140TIP3    H127979   0.167   0.327   0.193  1.2709  1.2983  3.3218
 2140TIP3    H227980   0.089   0.215   0.259 -0.5480 -0.5554 -1.5200
 2141TIP3   OH227981   3.104   2.462   7.130  0.2075 -0.0337 -0.5706
 2141TIP3    H127982   3.055   2.483   7.210 -0.0794  1.2701 -1.0683
 2141TIP3    H227983   3.046   2.487   7.059  1.3337  0.9947 -1.1686
 2142TIP3   OH227984   0.715   4.431   0.081 -0.3591 -0.7647 -0.1404
 2142TIP3    H127985   0.798   4.475   0.101  0.6877 -2.0244 -1.4562
 2142TIP3    H227986   0.689   4.391   0.164 -1.8663  2.9375  1.3977
 2143TIP3   OH227987   6.857   1.831   1.751 -0.1699  0.3447  0.0893
 2143TIP3    H127988   6.912   1.764   1.709 -1.8115 -0.6859 -0.5052
 2143TIP3    H227989   6.798   1.860   1.682 -1.8138 -0.1741  1.2247
 2144TIP3   OH227990   6.084   3.593   7.315  0.0370 -0.4227  0.2261
 2144TIP3    H127991   6.144   3.586   7.390 -0.6373 -0.6491  0.7635
 2144TIP3    H227992   6.064   3.502   7.293 -0.5919 -0.3427  0.4572
 2145TIP3   OH227993   1.308   5.572   6.949 -0.9159 -1.0719  0.0171
 2145TIP3    H127994   1.353   5.499   6.992 -1.7197 -1.8697 -0.4642
 2145TIP3    H227995   1.336   5.567   6.857 -2.3658 -1.8993 -0.3978
 2146TIP3   OH227996   5.165   0.108   7.548  0.3192 -0.2654 -0.0001
 2146TIP3    H127997   5.138   0.081   7.636  0.0066 -0.3573 -0.1210
 2146TIP3    H227998   5.229   0.042   7.521 -1.7800 -2.0163 -1.0207
 2147TIP3   OH227999   1.307   3.135   7.019  0.3065  0.0089  0.6921
 2147TIP3    H128000   1.344   3.211   6.974  0.5887  0.1966  1.2292
 2147TIP3    H228001   1.226   3.168   7.058 -0.0640 -0.2173  0.1185
 2148TIP3   OH228002   4.918   0.712   8.582  0.2131  0.4967 -0.9855
 2148TIP3    H128003   4.938   0.801   8.553 -0.1357 -0.1501 -3.3368
 2148TIP3    H228004   5.001   0.666   8.578 -0.0747  0.0683 -2.2786
 2149TIP3   OH228005   0.341   5.953   7.374 -0.2689 -0.2418  0.3249
 2149TIP3    H128006   0.305   5.898   7.304 -0.1117 -0.6675  0.5810
 2149TIP3    H228007   0.393   5.894   7.428  0.7354  0.3478  0.0301
 2150TIP3   OH228008   4.917   5.797   0.327 -1.1039  0.7369  0.0818
 2150TIP3    H128009   4.839   5.839   0.291 -2.2634 -0.4678  1.0714
 2150TIP3    H228010   4.926   5.833   0.415 -1.7679 -0.5728  0.7221
 2151TIP3   OH228011   5.031   2.081   7.591  0.3036 -0.4170  0.4272
 2151TIP3    H128012   5.033   2.168   7.631  0.5334 -0.6240  0.8820
 2151TIP3    H228013   4.985   2.027   7.655 -1.4285 -0.2542 -0.6419
 2152TIP3   OH228014   4.686   2.351   0.655  0.0630  0.0073 -0.0822
 2152TIP3    H128015   4.641   2.406   0.591  0.5248  0.3112 -0.1501
 2152TIP3    H228016   4.742   2.412   0.704 -1.4373  0.0695  1.6985
 2153TIP3   OH228017   1.444   1.452   1.313 -0.2828 -0.4617  0.0855
 2153TIP3    H128018   1.448   1.379   1.251  0.7922 -0.7701  0.5088
 2153TIP3    H228019   1.350   1.471   1.321 -0.6718 -2.4469  0.7187
 2154TIP3   OH228020   3.496   4.868   1.641  0.0976 -0.0722 -0.8472
 2154TIP3    H128021   3.570   4.808   1.652  1.0895  1.4233  1.6929
 2154TIP3    H228022   3.434   4.841   1.709 -0.5659  0.2460 -1.3199
 2155TIP3   OH228023   3.457   5.089   7.442  0.5304  0.8309  0.0720
 2155TIP3    H128024   3.514   5.166   7.440  0.3886  0.9788  1.2133
 2155TIP3    H228025   3.420   5.085   7.354 -0.5458  2.8961  0.3700
 2156TIP3   OH228026   1.131   2.575   1.507  0.0661 -0.1252 -0.3012
 2156TIP3    H128027   1.141   2.485   1.477 -0.6816 -0.0663 -0.7723
 2156TIP3    H228028   1.060   2.610   1.452 -1.5924 -0.1121  1.7169
 2157TIP3   OH228029   5.781   3.502   7.771 -0.3572 -0.2618  0.2610
 2157TIP3    H128030   5.795   3.480   7.678  0.1843 -1.1077  0.5256
 2157TIP3    H228031   5.742   3.422   7.808 -0.5267  0.0580  0.7777
 2158TIP3   OH228032   5.965   6.502   7.433 -0.0603  0.3381  0.1223
 2158TIP3    H128033   6.001   6.561   7.500  1.2447  0.3408 -0.5530
 2158TIP3    H228034   6.042   6.458   7.396 -0.8687 -0.5199 -0.5789
 2159TIP3   OH228035   6.494   4.290   0.339 -0.4432 -0.3548  0.3332
 2159TIP3    H128036   6.505   4.379   0.306  1.0992 -0.7155 -0.2209
 2159TIP3    H228037   6.404   4.287   0.370 -0.8690  1.0625 -0.6557
 2160TIP3   OH228038   0.249   6.423   0.985 -0.4230  0.1648  0.2274
 2160TIP3    H128039   0.249   6.430   1.081  0.0078  0.5706  0.1989
 2160TIP3    H228040   0.312   6.354   0.966  0.4428  0.9431  0.1846
 2161TIP3   OH228041   2.463   5.554   1.370  1.0575 -0.2838  0.2919
 2161TIP3    H128042   2.521   5.593   1.436  0.1847  1.9584 -0.1589
 2161TIP3    H228043   2.375   5.581   1.397  0.5364 -0.7718 -0.8594
 2162TIP3   OH228044   1.874   6.383   0.162 -0.3691  0.6031  0.3042
 2162TIP3    H128045   1.813   6.457   0.174 -0.3546  0.5362  0.8037
 2162TIP3    H228046   1.905   6.393   0.072  1.4455  2.5853  1.0776
 2163TIP3   OH228047   0.695   2.226   0.583 -0.3681  0.4250  0.1026
 2163TIP3    H128048   0.628   2.157   0.576 -0.4290  0.4728  0.2125
 2163TIP3    H228049   0.677   2.284   0.509  0.8928 -0.7223 -1.1626
 2164TIP3   OH228050   0.755   4.482   1.017  0.6077 -0.5383  0.7399
 2164TIP3    H128051   0.832   4.471   0.961 -0.2916  0.6634 -0.8421
 2164TIP3    H228052   0.721   4.393   1.029  0.4074 -0.7795 -1.3042
 2165TIP3   OH228053   3.452   6.783   8.597  0.4628 -0.7257 -0.1790
 2165TIP3    H128054   3.482   6.848   8.534 -0.4137 -1.1051 -1.0080
 2165TIP3    H228055   3.526   6.771   8.656  0.4288  1.5286  0.4360
 2166TIP3   OH228056   2.385   3.468   1.345  0.5954 -0.7856  0.1581
 2166TIP3    H128057   2.462   3.524   1.334  0.0701  0.4657  2.2333
 2166TIP3    H228058   2.312   3.529   1.355 -0.2296 -1.8590  0.9844
 2167TIP3   OH228059   3.627   6.086   2.534 -0.4179 -0.3699 -0.2838
 2167TIP3    H128060   3.719   6.059   2.541 -0.0933  0.8556  0.4912
 2167TIP3    H228061   3.630   6.173   2.494 -1.1566  0.0722  0.5647
 2168TIP3   OH228062   0.258   6.804   0.242 -0.5953 -0.5428  0.2935
 2168TIP3    H128063   0.236   6.712   0.253 -1.9433  0.0868  4.2793
 2168TIP3    H228064   0.349   6.811   0.272 -0.6592 -0.4739  0.4677
 2169TIP3   OH228065   6.337   3.720   7.678  0.0699 -0.2374 -0.2730
 2169TIP3    H128066   6.321   3.812   7.657  1.3236  0.1168  0.2458
 2169TIP3    H228067   6.332   3.715   7.773  0.5856 -0.5895 -0.2604
 2170TIP3   OH228068   4.161   3.292   6.976 -0.1169 -0.0994  0.1826
 2170TIP3    H128069   4.185   3.366   7.033 -0.0937 -0.7902  1.0835
 2170TIP3    H228070   4.185   3.322   6.888  0.6070  0.6739  0.6220
 2171TIP3   OH228071   3.157   4.689   0.192 -0.3344  0.2642  0.2364
 2171TIP3    H128072   3.081   4.727   0.237 -0.0145  1.3433 -0.0886
 2171TIP3    H228073   3.223   4.680   0.261  1.2907  4.8643 -0.3168
 2172TIP3   OH228074   3.228   2.695   1.141 -0.2706 -0.4176 -0.5185
 2172TIP3    H128075   3.166   2.650   1.083 -1.4233 -0.4749  0.7056
 2172TIP3    H228076   3.177   2.712   1.221  1.3644 -0.6950  0.6291
 2173TIP3   OH228077   5.269   6.481   0.042  0.2461 -0.0345  0.6050
 2173TIP3    H128078   5.285   6.528   0.124  2.3509  0.9367 -0.3052
 2173TIP3    H228079   5.191   6.428   0.060 -1.0247  2.2338  2.3373
 2174TIP3   OH228080   6.800   3.275   7.548  0.6755  0.1434  0.4893
 2174TIP3    H128081   6.841   3.194   7.519  1.1215  0.7782 -0.6964
 2174TIP3    H228082   6.859   3.308   7.616  0.7842 -0.2435  0.5844
 2175TIP3   OH228083   3.884   5.408   8.422 -0.7212 -0.0519 -0.3258
 2175TIP3    H128084   3.897   5.316   8.398 -1.0543 -0.3652  0.6515
 2175TIP3    H228085   3.790   5.421   8.418 -0.5611  0.7714 -2.2538
 2176TIP3   OH228086   1.706   0.637   7.016  0.2032 -0.5891 -0.0474
 2176TIP3    H128087   1.657   0.558   6.997  0.0764 -0.1205 -1.8253
 2176TIP3    H228088   1.772   0.610   7.080 -1.8531 -1.3904  1.8345
 2177TIP3   OH228089   2.520   0.323   0.230 -0.6432 -0.5748 -0.3374
 2177TIP3    H128090   2.453   0.392   0.230 -0.1907 -0.0375  2.0733
 2177TIP3    H228091   2.599   0.367   0.199 -0.4646 -0.1121  0.7500
 2178TIP3   OH228092   1.622   3.360   3.087 -0.0663 -0.0596 -0.7564
 2178TIP3    H128093   1.555   3.361   3.019 -1.7289  2.9735  0.7350
 2178TIP3    H228094   1.589   3.298   3.152 -0.2737 -0.2662 -1.0551
 2179TIP3   OH228095   3.589   4.575   0.903 -0.5671  0.4339  0.2493
 2179TIP3    H128096   3.674   4.571   0.859 -0.8177  0.7318 -0.2701
 2179TIP3    H228097   3.604   4.532   0.987 -0.1836 -0.5230 -0.2903
 2180TIP3   OH228098   2.903   1.110   8.049  0.2158  0.3464  0.1960
 2180TIP3    H128099   2.979   1.149   8.091 -0.0976  0.8705  0.2918
 2180TIP3    H228100   2.862   1.182   8.001 -1.0134  0.4165  1.2929
 2181TIP3   OH228101   1.542   5.182   1.763 -0.2950  0.4306 -0.3518
 2181TIP3    H128102   1.631   5.212   1.779 -0.1206  0.0453 -0.5897
 2181TIP3    H228103   1.502   5.250   1.710  0.9665 -0.9801 -3.3567
 2182TIP3   OH228104   6.203   0.179   2.407 -0.0120  0.7539 -0.4180
 2182TIP3    H128105   6.263   0.185   2.333  0.6113 -0.8479 -0.0791
 2182TIP3    H228106   6.253   0.214   2.481 -0.0830  0.9071 -0.4411
 2183TIP3   OH228107   3.026   1.526   8.640 -0.1132  0.5599  0.5737
 2183TIP3    H128108   3.119   1.543   8.623 -0.3279  0.7425 -0.4703
 2183TIP3    H228109   3.025   1.442   8.685  0.5282  0.2727  0.0696
 2184TIP3   OH228110   0.398   4.194   0.071 -0.3608 -0.5052  0.3385
 2184TIP3    H128111   0.475   4.202   0.128  0.3306 -0.5155 -0.5644
 2184TIP3    H228112   0.324   4.211   0.129  0.3412 -0.0828  1.1504
 2185TIP3   OH228113   3.949   4.365   1.242  0.4622 -0.2676  0.4781
 2185TIP3    H128114   4.034   4.338   1.275  0.6146  1.3030  1.4692
 2185TIP3    H228115   3.966   4.396   1.153  1.1587  1.0797  1.0551
 2186TIP3   OH228116   5.041   1.996   8.283 -0.8939  0.0069  0.0483
 2186TIP3    H128117   5.077   2.008   8.371 -0.2509 -0.6027 -0.1219
 2186TIP3    H228118   5.036   2.085   8.247 -0.0151  0.1563  0.2642
 2187TIP3   OH228119   0.595   1.562   6.619  0.5216  0.3671  0.1868
 2187TIP3    H128120   0.593   1.516   6.703 -0.5507 -0.7147 -0.3982
 2187TIP3    H228121   0.581   1.653   6.642  0.1359  0.0751  1.1890
 2188TIP3   OH228122   3.264   0.485   0.359  0.4902  0.0159 -0.2226
 2188TIP3    H128123   3.321   0.562   0.364  1.2560 -0.5974  1.5530
 2188TIP3    H228124   3.313   0.422   0.308  0.8637 -0.0588  0.2189
 2189TIP3   OH228125   3.703   1.752   7.328  0.5041 -0.1098 -0.0461
 2189TIP3    H128126   3.732   1.839   7.300 -1.4329  0.2868 -1.0110
 2189TIP3    H228127   3.776   1.694   7.306  0.5801  0.7799 -2.5273
 2190TIP3   OH228128   0.660   5.534   6.097  0.2884 -0.2796 -0.8048
 2190TIP3    H128129   0.701   5.620   6.095  2.1216 -0.9919  1.3790
 2190TIP3    H228130   0.702   5.489   6.171 -1.9888 -2.3652 -0.6428
 2191TIP3   OH228131   0.603   2.465   0.746 -0.1036  0.7835  0.0290
 2191TIP3    H128132   0.518   2.444   0.708 -0.8786  1.5663  1.2556
 2191TIP3    H228133   0.644   2.380   0.764 -1.1650  0.3750  0.5670
 2192TIP3   OH228134   6.876   4.836   2.240 -0.4233 -0.0648  0.1514
 2192TIP3    H128135   6.822   4.812   2.316 -0.7346 -0.2128 -0.1125
 2192TIP3    H228136   6.823   4.901   2.193 -0.0258  0.3812  0.3128
 2193TIP3   OH228137   5.311   0.508   0.686  0.0191 -0.1107  0.2391
 2193TIP3    H128138   5.318   0.559   0.605  0.9522 -1.7723 -0.7969
 2193TIP3    H228139   5.219   0.484   0.691  0.3101 -1.8310 -1.5811
 2194TIP3   OH228140   6.303   3.186   2.821 -0.9218  0.0639 -1.2204
 2194TIP3    H128141   6.248   3.119   2.862 -0.6044  0.8776  0.6164
 2194TIP3    H228142   6.254   3.213   2.743 -1.4094 -1.7297 -1.5911
 2195TIP3   OH228143   2.470   2.872   8.139  0.5242  0.1360 -0.1753
 2195TIP3    H128144   2.453   2.825   8.057 -0.4126  0.5555 -0.2348
 2195TIP3    H228145   2.457   2.964   8.117 -0.4501  0.1959  0.6153
 2196TIP3   OH228146   2.097   4.590   1.298  0.4213 -0.1317  0.0532
 2196TIP3    H128147   2.056   4.660   1.247 -0.0249 -0.5727 -0.2014
 2196TIP3    H228148   2.096   4.624   1.388 -1.7480 -0.6504  0.2887
 2197TIP3   OH228149   3.142   4.089   2.686 -0.1267 -0.4243  0.4327
 2197TIP3    H128150   3.077   4.077   2.755  1.2369  2.6338  2.4857
 2197TIP3    H228151   3.225   4.100   2.733  1.0521  0.7566 -1.7400
 2198TIP3   OH228152   4.748   0.399   2.465  0.1100  0.3208  0.0296
 2198TIP3    H128153   4.777   0.447   2.542 -0.0748 -1.2774  1.1492
 2198TIP3    H228154   4.793   0.315   2.471 -1.0737 -0.4022 -0.7677
 2199TIP3   OH228155   2.737   5.765   0.768 -0.0568  0.0546  0.0963
 2199TIP3    H128156   2.714   5.673   0.783  0.6494  0.0002  0.9309
 2199TIP3    H228157   2.831   5.762   0.748  0.0718  0.6484  0.6160
 2200TIP3   OH228158   3.836   6.112   8.650 -0.0904 -0.7705 -0.4634
 2200TIP3    H128159   3.920   6.067   8.654  0.5601  0.4630  0.2379
 2200TIP3    H228160   3.808   6.119   8.741  0.2918  1.0389 -0.4384
 2201TIP3   OH228161   1.668   3.738   1.228 -0.1493  0.0547  0.6439
 2201TIP3    H128162   1.641   3.829   1.242 -0.7215 -0.1834  1.1691
 2201TIP3    H228163   1.585   3.689   1.227  0.2365 -0.6710  2.0536
 2202TIP3   OH228164   1.005   4.622   1.207  0.4240  0.6804 -0.0077
 2202TIP3    H128165   0.949   4.587   1.138 -1.0974 -0.5358  1.7441
 2202TIP3    H228166   1.090   4.634   1.165 -0.2522 -0.6609 -1.9018
 2203TIP3   OH228167   3.239   0.516   1.556 -0.0382 -0.3477 -0.0574
 2203TIP3    H128168   3.316   0.563   1.525 -0.1591 -1.0029 -1.3841
 2203TIP3    H228169   3.227   0.548   1.646  1.9187 -0.4366  0.2788
 2204TIP3   OH228170   4.556   0.669   0.192  0.5804  0.3949 -0.0436
 2204TIP3    H128171   4.580   0.757   0.160 -1.2486  0.6504 -0.8362
 2204TIP3    H228172   4.485   0.685   0.254  0.4627 -0.5042  0.0560
 2205TIP3   OH228173   4.115   2.692   1.720 -0.4284  0.1859  0.6949
 2205TIP3    H128174   4.082   2.684   1.631 -0.5143 -0.8384  0.8120
 2205TIP3    H228175   4.196   2.742   1.711 -0.3396 -0.0722  0.0236
 2206TIP3   OH228176   1.819   6.362   7.975  0.2730 -0.2969  0.3047
 2206TIP3    H128177   1.882   6.402   8.035  1.7198  0.3800 -1.5579
 2206TIP3    H228178   1.817   6.421   7.900  0.2367 -2.2156 -1.2818
 2207TIP3   OH228179   0.584   2.499   7.693 -0.3446  0.2686  0.9277
 2207TIP3    H128180   0.668   2.500   7.648 -0.7139  1.2897  0.2187
 2207TIP3    H228181   0.521   2.474   7.625 -0.9353  1.9728  0.8081
 2208TIP3   OH228182   2.108   3.394   0.501 -0.6725 -0.5049  0.4533
 2208TIP3    H128183   2.093   3.378   0.594 -1.6063  0.0845  0.4198
 2208TIP3    H228184   2.177   3.332   0.476 -0.9753 -1.2176  1.3473
 2209TIP3   OH228185   1.124   5.745   8.055 -0.1041 -0.3281  0.0627
 2209TIP3    H128186   1.031   5.765   8.049  0.2254  1.3628  0.0935
 2209TIP3    H228187   1.128   5.660   8.098 -1.6487 -0.7717 -0.6112
 2210TIP3   OH228188   5.302   5.857   7.633  0.1681 -0.3460 -0.0678
 2210TIP3    H128189   5.213   5.872   7.601  0.1975  0.1536  0.0636
 2210TIP3    H228190   5.293   5.789   7.699 -0.1963  0.0306  0.2799
 2211TIP3   OH228191   6.693   4.022   6.705 -0.0765 -0.2384  0.1810
 2211TIP3    H128192   6.738   3.985   6.629  1.4640  1.5668  0.1632
 2211TIP3    H228193   6.718   3.965   6.777  3.4342  1.3900  0.4373
 2212TIP3   OH228194   4.908   3.546   1.203 -0.4264 -0.2245 -0.2591
 2212TIP3    H128195   4.989   3.587   1.232 -0.8123  0.7525 -0.4963
 2212TIP3    H228196   4.873   3.502   1.280 -0.2799  0.3871  0.1599
 2213TIP3   OH228197   3.170   4.267   7.826 -0.1131  0.1626 -0.3532
 2213TIP3    H128198   3.173   4.173   7.840 -0.9711  0.0101 -1.0705
 2213TIP3    H228199   3.259   4.298   7.845  0.1661 -0.7761 -0.0961
 2214TIP3   OH228200   2.850   1.440   0.982 -0.5670 -0.2104 -0.4735
 2214TIP3    H128201   2.837   1.534   0.964 -0.1446 -0.2769 -1.1568
 2214TIP3    H228202   2.761   1.407   0.998 -0.8506  0.0913 -1.3338
 2215TIP3   OH228203   4.667   1.963   0.013  0.4688  0.4656  0.7316
 2215TIP3    H128204   4.596   1.925  -0.038  1.1961 -0.7850  0.6001
 2215TIP3    H228205   4.655   2.057   0.006 -0.9703  0.2787  0.4406
 2216TIP3   OH228206   1.657   0.066   1.584 -0.1053 -0.6874  0.3736
 2216TIP3    H128207   1.615   0.138   1.538  0.5482  0.2972  1.2799
 2216TIP3    H228208   1.630  -0.013   1.536 -2.2433 -0.0175  0.3845
 2217TIP3   OH228209   4.053   5.693   7.761  0.1487 -0.8469  0.5337
 2217TIP3    H128210   4.005   5.611   7.759 -1.8121  0.2688 -0.5590
 2217TIP3    H228211   4.017   5.741   7.836  0.8946 -0.7175  0.8300
 2218TIP3   OH228212   5.194   4.302   2.398  0.3650  0.4142 -0.1585
 2218TIP3    H128213   5.133   4.353   2.451  0.5522 -0.7298  1.2384
 2218TIP3    H228214   5.280   4.325   2.432  0.4881 -0.3428  0.0664
 2219TIP3   OH228215   5.720   4.420   8.636  0.3120 -0.2679  0.2886
 2219TIP3    H128216   5.764   4.369   8.567  0.9919  1.3830 -0.5367
 2219TIP3    H228217   5.791   4.457   8.688 -0.0403  1.9321 -0.6900
 2220TIP3   OH228218   5.240   5.544   0.840 -0.1444  0.2918  0.1573
 2220TIP3    H128219   5.332   5.559   0.862 -0.2402  1.6399 -0.2150
 2220TIP3    H228220   5.212   5.627   0.801 -0.7466 -0.9864 -2.3415
 2221TIP3   OH228221   3.129   6.100   2.817 -0.0541 -0.3712 -0.0702
 2221TIP3    H128222   3.075   6.152   2.758  0.8013 -0.1016 -0.6443
 2221TIP3    H228223   3.076   6.023   2.837 -1.3038  0.6506  0.7242
 2222TIP3   OH228224   4.556   1.985   6.839  0.3535 -0.0520  0.6201
 2222TIP3    H128225   4.470   1.981   6.881  0.7979 -0.4290  1.5253
 2222TIP3    H228226   4.607   1.917   6.883  1.5881  1.1818  1.1767
 2223TIP3   OH228227   3.172   5.088   7.269  1.1697 -0.4446  0.0114
 2223TIP3    H128228   3.110   5.148   7.227 -0.8551 -2.8298 -0.6460
 2223TIP3    H228229   3.250   5.091   7.214  0.5393  0.4461 -0.8620
 2224TIP3   OH228230   6.132   0.948   0.935 -0.2932 -0.0232  0.1778
 2224TIP3    H128231   6.204   1.010   0.925  1.2389 -1.7866 -0.3429
 2224TIP3    H228232   6.087   0.950   0.850 -1.1628  1.3970  0.6484
 2225TIP3   OH228233   2.910   6.491   8.191 -0.0733 -0.0100  0.1763
 2225TIP3    H128234   2.858   6.534   8.123  0.2599  0.9683  0.5170
 2225TIP3    H228235   2.990   6.464   8.146  0.0041  0.3351  0.1055
 2226TIP3   OH228236   0.702   4.578   1.464 -0.2477 -0.1901  0.5182
 2226TIP3    H128237   0.705   4.588   1.559 -1.0932  0.1091  0.5230
 2226TIP3    H228238   0.697   4.483   1.450 -1.5916 -0.1828  0.8363
 2227TIP3   OH228239   2.972   4.975   2.744 -0.1977  0.3031 -0.2167
 2227TIP3    H128240   3.050   4.993   2.797 -0.6151  3.0835 -0.3852
 2227TIP3    H228241   3.004   4.926   2.669  1.3391  0.9500 -0.0210
 2228TIP3   OH228242   3.811   3.312   2.418 -0.0395  0.2523  0.3696
 2228TIP3    H128243   3.789   3.392   2.468 -0.1338 -0.6110  1.7650
 2228TIP3    H228244   3.899   3.329   2.384 -0.8045  1.7171 -1.0229
 2229TIP3   OH228245   5.498   6.595   1.126 -0.3787 -0.1076  0.0077
 2229TIP3    H128246   5.483   6.516   1.177  2.1425 -0.9814 -0.4740
 2229TIP3    H228247   5.485   6.567   1.035 -0.6774  0.3738 -0.1028
 2230TIP3   OH228248   1.972   2.316   2.847 -0.0521 -0.5381 -0.3234
 2230TIP3    H128249   1.931   2.323   2.761 -0.3410 -0.1690 -0.1614
 2230TIP3    H228250   1.998   2.406   2.868 -2.0011 -0.2006  0.9476
 2231TIP3   OH228251   3.109   5.825   1.383  0.7419 -0.3114  0.0009
 2231TIP3    H128252   3.109   5.761   1.311  0.8610  0.1955 -0.4536
 2231TIP3    H228253   3.146   5.904   1.344  1.8013 -0.3379  0.8993
 2232TIP3   OH228254   6.301   2.072   7.942  0.0568 -0.8352 -0.2591
 2232TIP3    H128255   6.301   2.084   7.847 -1.1147 -2.2178 -0.4701
 2232TIP3    H228256   6.210   2.086   7.968  0.6525  1.2014  0.9378
 2233TIP3   OH228257   0.434   6.769   1.859 -0.3368  0.0487  0.2958
 2233TIP3    H128258   0.430   6.681   1.896 -0.5994 -0.4798 -0.9446
 2233TIP3    H228259   0.515   6.806   1.895 -0.1283 -0.7589  0.6869
 2234TIP3   OH228260   6.187   0.376   0.930 -0.1785 -0.4257  0.2957
 2234TIP3    H128261   6.159   0.353   0.841  3.6954 -2.7371 -0.5666
 2234TIP3    H228262   6.254   0.444   0.917 -1.2112  0.9608  1.7504
 2235TIP3   OH228263   6.652   1.917   2.375 -0.6290  0.0805  0.3903
 2235TIP3    H128264   6.595   1.845   2.402 -0.3267  0.3869  1.9813
 2235TIP3    H228265   6.681   1.894   2.287 -1.9641 -0.8432  0.1603
 2236TIP3   OH228266   2.746   6.589   8.001  0.0370 -0.6104  0.2027
 2236TIP3    H128267   2.651   6.598   8.009  0.1089  0.2896  0.1582
 2236TIP3    H228268   2.766   6.623   7.914  0.4820 -0.0464  0.5180
 2237TIP3   OH228269   2.069   0.144   2.192 -0.0371  0.4168  0.4445
 2237TIP3    H128270   2.121   0.222   2.214  1.6334 -0.1147 -1.3178
 2237TIP3    H228271   2.093   0.080   2.258 -0.7551  1.0881  1.3887
 2238TIP3   OH228272   0.001   6.338   7.984 -0.1303  0.2152  0.4702
 2238TIP3    H128273  -0.063   6.298   7.925  0.0940 -0.1867  0.4932
 2238TIP3    H228274  -0.033   6.426   8.002 -1.1367 -0.3014  1.1879
 2239TIP3   OH228275   3.519   6.613   7.705  0.5698 -0.4873  0.0838
 2239TIP3    H128276   3.520   6.641   7.614 -1.8665 -2.0704 -0.5198
 2239TIP3    H228277   3.590   6.548   7.711  0.8260 -0.2867 -0.6329
 2240TIP3   OH228278   3.065   5.247   0.262  0.1745  0.3889  0.7383
 2240TIP3    H128279   3.157   5.258   0.238 -0.1844  3.2886  0.4038
 2240TIP3    H228280   3.047   5.318   0.323 -1.6678 -0.6401  1.4828
 2241TIP3   OH228281   5.127   4.629   1.141  0.0398  0.3721  0.1954
 2241TIP3    H128282   5.053   4.670   1.187 -0.7705 -0.8039 -0.0238
 2241TIP3    H228283   5.167   4.572   1.207  1.3958  1.7313  0.6116
 2242TIP3   OH228284   3.399   2.158   0.754 -0.0658  0.9279 -0.0573
 2242TIP3    H128285   3.315   2.147   0.710  0.1998  0.5271 -0.4644
 2242TIP3    H228286   3.387   2.116   0.839 -0.0775  0.3110 -0.3613
 2243TIP3   OH228287   6.886   2.206   8.476  0.5751 -0.5268  0.1959
 2243TIP3    H128288   6.976   2.195   8.507  0.9084 -3.3111 -1.3883
 2243TIP3    H228289   6.837   2.137   8.520 -0.5178  0.1413  0.0671
 2244TIP3   OH228290   3.953   3.141   6.510 -0.4134 -0.2309 -0.1873
 2244TIP3    H128291   3.956   3.090   6.591 -0.8345  0.5472  0.3288
 2244TIP3    H228292   3.955   3.075   6.441 -1.5748 -0.9984  0.4670
 2245TIP3   OH228293   5.999   1.683   7.926  0.2417  0.4112 -0.4249
 2245TIP3    H128294   6.054   1.622   7.877 -0.2999 -0.7276  0.3465
 2245TIP3    H228295   6.052   1.709   8.001 -0.1537 -0.5418  0.2169
 2246TIP3   OH228296   4.410   1.710   0.131  0.2410  0.2807  0.3408
 2246TIP3    H128297   4.321   1.696   0.100  0.2072  0.0922  0.5180
 2246TIP3    H228298   4.465   1.667   0.065  0.2658  1.3069 -0.3334
 2247TIP3   OH228299   4.490   3.165   1.308 -0.5945  0.5553  0.2574
 2247TIP3    H128300   4.581   3.174   1.277 -0.4479  1.6330  0.9421
 2247TIP3    H228301   4.437   3.201   1.237 -0.6456 -1.5406 -0.8569
 2248TIP3   OH228302   4.557   4.180   0.436 -0.1630  0.3233  0.2108
 2248TIP3    H128303   4.603   4.107   0.478  0.1516  0.4253  0.0428
 2248TIP3    H228304   4.623   4.249   0.428  0.2503 -0.2772 -1.9780
 2249TIP3   OH228305   3.606   5.424   8.410 -0.3869 -0.0554 -0.7314
 2249TIP3    H128306   3.529   5.464   8.450 -1.0079 -0.3268 -1.6358
 2249TIP3    H228307   3.574   5.382   8.330  0.3704 -1.7147 -0.2281
 2250TIP3   OH228308   0.866   3.421   1.515  0.2614 -0.0536 -0.0420
 2250TIP3    H128309   0.904   3.390   1.597  0.1291  0.4123  0.1984
 2250TIP3    H228310   0.781   3.376   1.509 -0.1941  0.6951  0.5996
 2251TIP3   OH228311   3.469   5.640   2.235 -0.9731  0.8756 -0.3706
 2251TIP3    H128312   3.519   5.663   2.313 -0.2043 -0.2635 -0.4966
 2251TIP3    H228313   3.396   5.587   2.268  0.0249 -0.6438 -0.4844
 2252TIP3   OH228314   2.063   4.270   8.183  0.0017 -0.3319 -0.3135
 2252TIP3    H128315   1.979   4.262   8.137 -0.2065 -1.1794  0.1923
 2252TIP3    H228316   2.127   4.238   8.120 -0.0159  0.5155 -0.7803
 2253TIP3   OH228317   4.031   0.340   0.898  0.4047 -0.3362  0.3503
 2253TIP3    H128318   4.056   0.274   0.833  1.4888 -0.4514  0.8687
 2253TIP3    H228319   3.938   0.356   0.880  0.6460 -0.4423 -1.1527
 2254TIP3   OH228320   2.736   2.381   8.563 -0.3744  0.1119 -0.0828
 2254TIP3    H128321   2.727   2.344   8.476  0.1969 -1.0041  0.3182
 2254TIP3    H228322   2.679   2.328   8.618 -0.2131  0.3742  0.3489
 2255TIP3   OH228323   1.676   4.213   8.233 -0.4061 -0.5716 -0.2937
 2255TIP3    H128324   1.730   4.229   8.155 -0.8640  0.0914 -0.4822
 2255TIP3    H228325   1.645   4.299   8.259 -1.7628 -0.9811 -0.4684
 2256TIP3   OH228326   1.575   5.549   2.057  0.2715 -0.5455  0.2116
 2256TIP3    H128327   1.549   5.635   2.090  0.2028 -0.2119 -0.6801
 2256TIP3    H228328   1.658   5.564   2.013  1.0055 -1.2278  1.3117
 2257TIP3   OH228329   1.079   0.632   6.982  0.1323  0.0762 -0.8797
 2257TIP3    H128330   0.996   0.602   7.019  1.2632 -1.5353  0.5187
 2257TIP3    H228331   1.104   0.563   6.921  0.9196  0.0338 -0.5229
 2258TIP3   OH228332   2.325   2.922   1.210 -0.4301  0.1874  0.1487
 2258TIP3    H128333   2.314   2.948   1.118 -0.3310  0.4038  0.1958
 2258TIP3    H228334   2.252   2.863   1.227 -0.7064  0.4950  0.0575
 2259TIP3   OH228335   0.626   0.719   1.966  0.4127  0.0361 -0.0687
 2259TIP3    H128336   0.637   0.747   1.875  0.0959  1.2952  0.2721
 2259TIP3    H228337   0.710   0.678   1.988  0.7346  0.3303 -0.7142
 2260TIP3   OH228338   3.210   0.608   2.736  0.0370  0.1744  0.0260
 2260TIP3    H128339   3.202   0.700   2.760 -3.0994  1.0360 -3.4472
 2260TIP3    H228340   3.133   0.566   2.774 -0.1630 -0.3231 -0.8819
 2261TIP3   OH228341   5.571   1.421   1.722 -0.2920  0.6623 -0.3568
 2261TIP3    H128342   5.558   1.513   1.698  1.1157  0.5062 -1.9632
 2261TIP3    H228343   5.633   1.389   1.656 -2.5435 -2.0855 -1.3247
 2262TIP3   OH228344   1.103   4.985   0.445  0.1353  1.1249  1.0737
 2262TIP3    H128345   1.185   5.027   0.473  0.4070  3.5271 -2.6403
 2262TIP3    H228346   1.080   5.029   0.363 -3.7916 -0.9461  0.8168
 2263TIP3   OH228347   2.052   2.545   1.568  0.7202 -0.3901 -0.2301
 2263TIP3    H128348   2.013   2.612   1.512 -0.0107  1.6000  2.4667
 2263TIP3    H228349   2.078   2.592   1.647  2.5554 -2.8804  0.7789
 2264TIP3   OH228350   6.792   6.492   6.342 -0.5986  0.0413  0.0166
 2264TIP3    H128351   6.703   6.509   6.312 -0.3761 -0.2278 -0.8079
 2264TIP3    H228352   6.818   6.573   6.387 -0.8096  0.5892 -0.8197
 2265TIP3   OH228353   2.349   5.001   1.683  0.3651  0.0041 -0.1107
 2265TIP3    H128354   2.434   4.965   1.706  0.4288 -0.2268 -0.6813
 2265TIP3    H228355   2.337   5.076   1.742  0.6948 -0.3215  0.3720
 2266TIP3   OH228356   5.515   6.790   1.652 -0.2572 -0.1208  0.1711
 2266TIP3    H128357   5.457   6.750   1.588  0.6794 -0.2790 -0.6071
 2266TIP3    H228358   5.461   6.803   1.729 -0.4770 -3.4662  0.7288
 2267TIP3   OH228359   3.928   3.077   8.053  0.1793  0.2259 -0.4171
 2267TIP3    H128360   3.940   3.006   7.990 -0.7336  0.2401 -0.6237
 2267TIP3    H228361   3.951   3.156   8.004 -1.6163  0.3617 -1.1373
 2268TIP3   OH228362   2.947   1.140   2.489 -0.6515 -0.5821 -0.0110
 2268TIP3    H128363   2.960   1.127   2.583  0.0315 -0.3160 -0.0591
 2268TIP3    H228364   2.961   1.234   2.476 -2.3046 -0.3308 -0.1462
 2269TIP3   OH228365   4.325   5.709   8.472  0.3023  0.0854  0.5633
 2269TIP3    H128366   4.258   5.776   8.480 -0.7406 -1.0447  1.8412
 2269TIP3    H228367   4.380   5.737   8.399 -1.3249  1.2487 -0.2465
 2270TIP3   OH228368   4.032   6.634   1.756  0.8731  0.1232 -0.6560
 2270TIP3    H128369   3.988   6.602   1.677 -2.7934  0.5993  0.9835
 2270TIP3    H228370   4.041   6.728   1.742  0.2065  0.2111 -0.5467
 2271TIP3   OH228371   3.062   6.233   1.667 -0.5098  0.3856 -0.6946
 2271TIP3    H128372   3.012   6.180   1.606 -0.2178 -0.1967 -0.4390
 2271TIP3    H228373   3.033   6.204   1.753 -1.6214  1.8728 -0.5286
 2272TIP3   OH228374   0.004   2.239   7.901  0.0924 -0.1075  0.1806
 2272TIP3    H128375   0.009   2.326   7.940  0.7692 -0.5328  1.0745
 2272TIP3    H228376   0.036   2.180   7.969  1.6261 -0.8510 -1.1086
 2273TIP3   OH228377   0.103   1.828   0.151 -0.2416 -0.7703  0.1770
 2273TIP3    H128378   0.092   1.796   0.061  0.9399  0.2632 -0.3598
 2273TIP3    H228379   0.071   1.756   0.206  0.3166 -1.9834 -1.0341
 2274TIP3   OH228380   6.329   2.010   1.994  0.0370 -0.3221  0.5008
 2274TIP3    H128381   6.285   1.954   1.930 -1.8612  0.9377  0.6238
 2274TIP3    H228382   6.410   1.963   2.016 -0.1890 -1.6963 -1.3690
 2275TIP3   OH228383   2.740   5.955   0.982 -0.4294 -0.3425 -0.2506
 2275TIP3    H128384   2.705   5.866   0.976  1.9655 -1.5379  1.8225
 2275TIP3    H228385   2.832   5.947   0.958 -0.3100  1.7357 -0.6859
 2276TIP3   OH228386   1.047   0.764   2.158 -0.0534 -0.5662 -0.1960
 2276TIP3    H128387   1.071   0.808   2.076 -2.6492  0.7884 -0.3291
 2276TIP3    H228388   1.094   0.813   2.226  0.1553 -0.1073 -0.6634
 2277TIP3   OH228389   0.419   5.484   2.006 -0.3936  0.9108  0.7452
 2277TIP3    H128390   0.510   5.454   2.008 -0.7699 -0.2955  0.4088
 2277TIP3    H228391   0.409   5.534   2.087  0.1125 -0.3594  1.6348
 2278TIP3   OH228392   6.299   3.163   8.070 -0.5300 -0.0768  0.5683
 2278TIP3    H128393   6.213   3.130   8.045  0.8174 -2.7795 -0.9724
 2278TIP3    H228394   6.281   3.241   8.123 -3.9279 -1.3175  1.4772
 2279TIP3   OH228395   2.628   0.463   0.875  0.3746 -0.1863 -0.0645
 2279TIP3    H128396   2.624   0.557   0.856  2.7218  0.2650  1.3035
 2279TIP3    H228397   2.621   0.458   0.970 -1.4901 -1.6096 -0.2153
 2280TIP3   OH228398   0.559   6.815   7.584  0.2625  0.0986 -0.2909
 2280TIP3    H128399   0.604   6.822   7.669 -2.1665  0.1122  1.0827
 2280TIP3    H228400   0.559   6.905   7.550  0.1134  0.3426  0.3372
 2281TIP3   OH228401   6.849   3.668   1.093  0.5268  0.3984 -0.0025
 2281TIP3    H128402   6.756   3.686   1.081  0.9418  1.0004 -3.2461
 2281TIP3    H228403   6.861   3.580   1.058  1.2329  0.4686  0.0508
 2282TIP3   OH228404   4.954   4.925   0.352 -0.1054  0.0998  0.4055
 2282TIP3    H128405   4.867   4.886   0.343  0.4361 -1.0811  0.0945
 2282TIP3    H228406   5.006   4.858   0.394  1.2166 -0.0687 -1.3727
 2283TIP3   OH228407   3.994   1.185   1.274  0.0597  0.8806 -0.3240
 2283TIP3    H128408   4.015   1.274   1.304 -1.4417  1.1592 -0.0132
 2283TIP3    H228409   4.075   1.136   1.286  0.5619  1.9081  0.6628
 2284TIP3   OH228410   3.891   0.798   0.837 -0.4495 -0.3798 -0.6193
 2284TIP3    H128411   3.907   0.720   0.784  1.0809 -1.5682  1.4453
 2284TIP3    H228412   3.976   0.843   0.840 -1.0010  0.7008 -0.7428
 2285TIP3   OH228413   1.190   0.094   0.668 -0.0569 -0.3988 -0.6695
 2285TIP3    H128414   1.220   0.175   0.710  0.5064 -1.0007  0.1266
 2285TIP3    H228415   1.104   0.117   0.632  0.1847  0.6122 -0.6501
 2286TIP3   OH228416   0.344   3.059   1.304 -0.3358  0.2175  0.1090
 2286TIP3    H128417   0.437   3.081   1.306  0.0507 -0.4400 -3.8251
 2286TIP3    H228418   0.300   3.142   1.288 -0.3251  0.3450  0.7265
 2287TIP3   OH228419   6.226   0.503   0.251 -0.0938 -0.2848 -0.0762
 2287TIP3    H128420   6.317   0.526   0.232 -0.0650  1.1750  1.6095
 2287TIP3    H228421   6.224   0.408   0.242  1.3002 -0.2419 -1.2867
 2288TIP3   OH228422   3.987   5.761   7.007  0.1730  0.7803 -0.7915
 2288TIP3    H128423   4.045   5.836   7.023  1.3427  0.0209 -1.3176
 2288TIP3    H228424   3.936   5.753   7.087 -1.1201  3.0912 -1.3090
 2289TIP3   OH228425   1.079   6.486   7.358  0.2979  0.3990  0.4344
 2289TIP3    H128426   1.039   6.542   7.425 -1.1147 -0.7349  0.5939
 2289TIP3    H228427   1.126   6.420   7.408 -0.7216 -0.4217  0.3460
 2290TIP3   OH228428   4.044   0.778   2.328 -0.0224 -0.3855  0.2870
 2290TIP3    H128429   4.053   0.713   2.258 -3.2132 -1.5843  0.8202
 2290TIP3    H228430   4.047   0.727   2.409 -0.4687  0.4211  0.8306
 2291TIP3   OH228431   2.459   0.023   8.448  0.2594  0.6823 -0.1164
 2291TIP3    H128432   2.435   0.043   8.539 -1.0575  1.0647 -0.5256
 2291TIP3    H228433   2.375   0.014   8.403  0.8727  2.3188 -1.6988
 2292TIP3   OH228434   1.363   1.281   8.358 -0.1529  0.3873 -0.0083
 2292TIP3    H128435   1.283   1.289   8.411 -1.9119  0.9097 -2.5366
 2292TIP3    H228436   1.434   1.297   8.419 -1.9579 -0.1519  2.3977
 2293TIP3   OH228437   5.092   3.110   0.231 -0.1546  0.1536 -0.3860
 2293TIP3    H128438   5.141   3.176   0.181  1.0540  0.4265  1.0771
 2293TIP3    H228439   5.123   3.026   0.197  0.3882  0.3350 -0.3562
 2294TIP3   OH228440   3.776   0.131   0.974  0.0032 -0.1214 -0.5386
 2294TIP3    H128441   3.814   0.044   0.960  3.7936  1.3274 -0.5161
 2294TIP3    H228442   3.788   0.147   1.067 -3.1883 -0.4897  0.0394
 2295TIP3   OH228443   2.444   0.779   8.331 -0.0361 -0.4169  0.1813
 2295TIP3    H128444   2.487   0.733   8.403 -0.3306 -1.3261 -0.2130
 2295TIP3    H228445   2.492   0.751   8.253  0.2535  0.5314  0.0082
 2296TIP3   OH228446   6.533   6.001   1.520  0.0093 -0.1418  0.9841
 2296TIP3    H128447   6.629   6.001   1.522  0.0240  0.2561  0.4844
 2296TIP3    H228448   6.508   5.927   1.576  0.5802  0.4727  2.1023
 2297TIP3   OH228449   6.757   1.768   8.347 -0.0071  0.4901  0.0791
 2297TIP3    H128450   6.738   1.716   8.269 -0.5262  0.5372  0.1689
 2297TIP3    H228451   6.779   1.855   8.313  0.8609  0.2226 -0.0712
 2298TIP3   OH228452   6.260   1.718   2.066 -0.0365 -0.0104  0.0591
 2298TIP3    H128453   6.327   1.653   2.085 -0.7919 -1.2482 -1.3571
 2298TIP3    H228454   6.207   1.680   1.996  0.4654  2.7801 -2.0166
 2299TIP3   OH228455   3.912   6.644   0.534  0.2489 -0.0044 -0.0429
 2299TIP3    H128456   3.849   6.582   0.571  0.4618  0.6447  1.5117
 2299TIP3    H228457   3.993   6.594   0.525  0.1238 -0.2426  0.1528
 2300TIP3   OH228458   4.401   1.525   2.124 -0.0679  0.0048 -0.7012
 2300TIP3    H128459   4.381   1.606   2.170 -2.5838 -0.9366  0.0672
 2300TIP3    H228460   4.320   1.503   2.077  0.1826 -2.5098 -0.1190
 2301TIP3   OH228461   0.513   1.249   1.345 -0.0807 -0.0680  0.3382
 2301TIP3    H128462   0.574   1.322   1.358 -1.1224  0.8931  0.0328
 2301TIP3    H228463   0.447   1.261   1.414 -0.8452 -0.0757 -0.3787
 2302TIP3   OH228464   3.808   1.007   1.185 -0.0748  0.1792 -0.1286
 2302TIP3    H128465   3.753   1.009   1.264  2.0355 -1.8067  1.5405
 2302TIP3    H228466   3.875   1.073   1.201  0.8034 -0.7535  0.1433
 2303TIP3   OH228467   2.673   6.435   1.473 -0.3959 -0.4063  0.3380
 2303TIP3    H128468   2.631   6.433   1.388 -0.4105  0.1627  0.3252
 2303TIP3    H228469   2.666   6.346   1.506  1.4140 -1.1604 -1.1277
 2304TIP3   OH228470   5.859   6.817   0.115  0.1293  0.0010 -0.1698
 2304TIP3    H128471   5.796   6.792   0.048  0.1865  0.1621 -0.2852
 2304TIP3    H228472   5.882   6.908   0.093  0.7471 -0.2037 -0.3976
 2305TIP3   OH228473   5.099   6.634   2.414  0.1988 -0.4856 -0.8275
 2305TIP3    H128474   5.129   6.642   2.504 -0.4879  0.3500 -0.6534
 2305TIP3    H228475   5.098   6.725   2.382  1.1891 -0.8378 -1.9308
 2306TIP3   OH228476   6.124   1.899   6.458 -0.5604  0.0287  0.3443
 2306TIP3    H128477   6.053   1.915   6.396  0.4341  0.8283 -0.6382
 2306TIP3    H228478   6.111   1.809   6.487 -2.4591  0.4244  0.8544
 2307TIP3   OH228479   5.023   6.068   0.302  0.3650 -0.3123 -0.1205
 2307TIP3    H128480   4.953   6.125   0.333  1.1475  0.0627  1.0309
 2307TIP3    H228481   4.988   6.027   0.223 -0.1543  1.9393 -1.1448
 2308TIP3   OH228482   5.321   0.123   6.939  0.7106  0.4676 -0.0988
 2308TIP3    H128483   5.409   0.128   6.977  0.5198  1.4108  0.2661
 2308TIP3    H228484   5.326   0.053   6.875  1.5715  0.1201  0.3356
 2309TIP3   OH228485   0.782   6.388   1.613 -0.1813 -0.1744  0.0331
 2309TIP3    H128486   0.811   6.477   1.592  0.4843 -0.1986  0.8030
 2309TIP3    H228487   0.723   6.399   1.687 -2.4977 -0.0924 -1.7180
 2310TIP3   OH228488   0.022   0.453   2.575  0.0436  0.0069 -0.1459
 2310TIP3    H128489   0.114   0.428   2.570 -0.0678 -0.1768 -1.7596
 2310TIP3    H228490   0.012   0.523   2.510 -1.2115 -0.8572 -0.9290
 2311TIP3   OH228491   3.695   2.886   1.283 -0.2501 -0.1179 -0.1235
 2311TIP3    H128492   3.629   2.955   1.293  0.9643  1.2628 -1.1344
 2311TIP3    H228493   3.648   2.814   1.241 -1.2631  0.5902 -0.2523
 2312TIP3   OH228494   3.580   2.242   6.692  0.4704  0.0618 -0.1579
 2312TIP3    H128495   3.539   2.160   6.718 -0.6739  0.5082 -0.4993
 2312TIP3    H228496   3.597   2.288   6.775 -0.7082  0.3220 -0.0388
 2313TIP3   OH228497   6.262   6.381   7.604  0.1399 -0.1122  0.4221
 2313TIP3    H128498   6.304   6.411   7.684 -0.0470 -0.8520  0.8076
 2313TIP3    H228499   6.208   6.307   7.632  1.0019 -1.1511 -0.5770
 2314TIP3   OH228500   4.223   3.144   0.396  0.4781 -0.3052  0.3674
 2314TIP3    H128501   4.190   3.115   0.311 -0.1609  1.2939  0.0420
 2314TIP3    H228502   4.256   3.232   0.380  0.2233  0.0716  1.7961
 2315TIP3   OH228503   6.175   5.710   7.789 -0.4462  0.3169 -0.0108
 2315TIP3    H128504   6.098   5.744   7.835  1.3486  3.2155  1.1438
 2315TIP3    H228505   6.173   5.753   7.704 -2.0053 -2.5370 -1.5562
 2316TIP3   OH228506   0.392   6.405   0.504 -0.6036  0.2092 -0.9117
 2316TIP3    H128507   0.324   6.338   0.495 -0.8441  0.1875  0.8496
 2316TIP3    H228508   0.473   6.358   0.480 -0.1332 -2.0562  3.9595
 2317TIP3   OH228509   3.521   5.174   0.050 -0.1595 -0.1495 -0.0147
 2317TIP3    H128510   3.489   5.156  -0.038  1.4078 -0.2822 -0.5895
 2317TIP3    H228511   3.614   5.149   0.048 -0.0055  0.1662  1.5689
 2318TIP3   OH228512   0.604   3.534   1.631 -0.5066  0.2022  0.0868
 2318TIP3    H128513   0.617   3.571   1.719 -1.6444 -4.2703  2.4536
 2318TIP3    H228514   0.541   3.592   1.589  0.5550  2.8553  1.9092
 2319TIP3   OH228515   5.892   0.629   7.757 -0.7182 -0.1974 -0.1121
 2319TIP3    H128516   5.978   0.626   7.716  0.1700 -0.3198  1.6564
 2319TIP3    H228517   5.848   0.549   7.729 -0.2782 -0.1255 -1.0363
 2320TIP3   OH228518   3.168   1.255   7.508 -0.2237  0.4185  0.5119
 2320TIP3    H128519   3.222   1.259   7.587  3.3677  0.6510 -1.7350
 2320TIP3    H228520   3.164   1.345   7.476 -1.0806  0.2429  0.0826
 2321TIP3   OH228521   5.951   5.990   0.747  0.0031  0.3867 -0.0887
 2321TIP3    H128522   5.882   5.924   0.753  0.4977 -0.0620  0.7737
 2321TIP3    H228523   5.903   6.073   0.742 -0.6115  0.1589  1.5871
 2322TIP3   OH228524   1.914   5.629   2.278 -0.8984 -0.5114  0.5720
 2322TIP3    H128525   2.008   5.609   2.277 -0.2605  1.9839  1.2237
 2322TIP3    H228526   1.901   5.679   2.358 -2.2687  1.2031 -0.6264
 2323TIP3   OH228527   4.274   6.190   1.017  0.0723  0.0812  0.3389
 2323TIP3    H128528   4.276   6.096   1.033 -1.4027  0.0255  0.2846
 2323TIP3    H228529   4.183   6.210   0.996  0.6647  1.2478 -1.3626
 2324TIP3   OH228530   3.056   6.554   7.689  0.3544  0.2750  0.1005
 2324TIP3    H128531   2.985   6.523   7.745 -0.3285 -1.3346 -1.5676
 2324TIP3    H228532   3.029   6.641   7.662  0.4052  0.8297  1.7264
 2325TIP3   OH228533   2.070   4.683   7.163  0.3491  0.2036  0.2170
 2325TIP3    H128534   1.990   4.731   7.183  0.3858  0.3399  0.0376
 2325TIP3    H228535   2.072   4.677   7.067  1.2994  1.4947  0.1238
 2326TIP3   OH228536   0.452   4.034   0.381 -0.5413 -0.1770 -0.2255
 2326TIP3    H128537   0.522   4.087   0.344 -0.9954  0.2697 -0.4543
 2326TIP3    H228538   0.495   3.952   0.407  0.4389  0.7413  1.2607
 2327TIP3   OH228539   6.712   5.927   1.259  0.1517  0.1401  0.3156
 2327TIP3    H128540   6.705   5.852   1.319 -2.1935 -0.6425 -0.8146
 2327TIP3    H228541   6.762   5.895   1.185 -0.6486 -0.2637 -0.0599
 2328TIP3   OH228542   5.733   1.675   8.531 -0.0504 -0.2640  0.9599
 2328TIP3    H128543   5.652   1.655   8.577 -0.4365  1.7652  1.2347
 2328TIP3    H228544   5.719   1.642   8.442 -0.6443 -1.0993  1.3538
 2329TIP3   OH228545   1.466   5.312   7.447  0.5726 -0.5667  0.2127
 2329TIP3    H128546   1.478   5.406   7.456  2.6407 -0.6821 -0.7604
 2329TIP3    H228547   1.458   5.298   7.353  3.1163 -1.5789  0.0720
 2330TIP3   OH228548   4.726   1.632   7.859 -0.1945  0.3329 -0.2207
 2330TIP3    H128549   4.794   1.625   7.926  0.3194 -1.7956 -0.9081
 2330TIP3    H228550   4.662   1.565   7.882  0.3185 -0.9177 -2.1675
 2331TIP3   OH228551   3.178   4.198   8.142 -0.2782  0.3212  0.3704
 2331TIP3    H128552   3.207   4.114   8.178 -0.0598 -0.3212 -1.2160
 2331TIP3    H228553   3.257   4.233   8.100 -0.7206  0.6279 -0.2081
 2332TIP3   OH228554   4.136   0.792   7.802 -0.5613 -0.4280 -0.0097
 2332TIP3    H128555   4.110   0.701   7.815 -0.7743 -0.1758  1.5816
 2332TIP3    H228556   4.075   0.825   7.736 -0.7555 -1.3113 -0.2947
 2333TIP3   OH228557   0.660   4.496   7.264  0.2084 -0.1733  0.1902
 2333TIP3    H128558   0.575   4.458   7.241 -0.5150  0.9146  0.9896
 2333TIP3    H228559   0.716   4.478   7.188 -0.5771 -1.3474 -0.1320
 2334TIP3   OH228560   5.503   5.771   2.277 -0.4451  0.0836  0.0644
 2334TIP3    H128561   5.565   5.707   2.310 -0.2976 -0.6706 -1.5663
 2334TIP3    H228562   5.463   5.729   2.201 -1.8907  1.1214  0.2157
 2335TIP3   OH228563   0.779   4.269   8.082  0.4632  0.2508 -0.7097
 2335TIP3    H128564   0.808   4.215   8.156 -0.4297 -0.1795 -0.6550
 2335TIP3    H228565   0.749   4.351   8.123  0.0768  0.0575 -0.6028
 2336TIP3   OH228566   4.225   2.703   1.427 -0.4643  0.0324 -0.3216
 2336TIP3    H128567   4.238   2.796   1.408 -2.3036  0.2266 -0.7313
 2336TIP3    H228568   4.291   2.659   1.374  1.0222  1.1199  0.5364
 2337TIP3   OH228569   1.463   2.114   1.469  0.4660 -0.6274  0.1534
 2337TIP3    H128570   1.540   2.170   1.481  0.3795 -0.4507 -0.1065
 2337TIP3    H228571   1.442   2.083   1.557  0.9897 -0.8821  0.1964
 2338TIP3   OH228572   1.750   3.417   7.796 -0.1663 -0.6631 -0.5142
 2338TIP3    H128573   1.688   3.346   7.811  1.0633 -1.9818 -1.4211
 2338TIP3    H228574   1.835   3.381   7.821  0.2763  1.1327  0.8017
 2339TIP3   OH228575   6.543   0.977   2.352  0.5895  0.3954  0.3554
 2339TIP3    H128576   6.538   1.038   2.426  0.2831  0.3762  0.3526
 2339TIP3    H228577   6.495   0.900   2.382  0.9355  0.1726  0.3400
 2340TIP3   OH228578   3.780   6.508   8.416  0.2938 -0.6365 -0.0893
 2340TIP3    H128579   3.835   6.440   8.453  0.4789 -0.1948  0.4632
 2340TIP3    H228580   3.701   6.508   8.470  0.6813  0.1960  0.4960
 2341TIP3   OH228581   3.190   5.025   2.528 -0.5156 -0.0656  0.2338
 2341TIP3    H128582   3.152   4.937   2.518  0.2539 -0.3479 -0.2548
 2341TIP3    H228583   3.278   5.017   2.492 -0.8558  1.2204 -0.9504
 2342TIP3   OH228584   2.438   5.355   7.577 -0.2656 -0.4257 -0.0909
 2342TIP3    H128585   2.403   5.390   7.659 -1.2103 -0.0743 -0.6108
 2342TIP3    H228586   2.422   5.426   7.514  2.1514  0.0759 -0.2190
 2343TIP3   OH228587   3.434   4.573   7.840 -0.6294  0.0762 -0.0432
 2343TIP3    H128588   3.378   4.651   7.832 -0.4949  0.0761 -1.2700
 2343TIP3    H228589   3.522   4.607   7.826 -0.6145 -0.3470 -1.0936
 2344TIP3   OH228590   5.618   2.930   0.553 -0.2051  0.6504  0.6482
 2344TIP3    H128591   5.682   2.906   0.620  1.1440  0.4305 -0.6751
 2344TIP3    H228592   5.653   3.009   0.513 -0.1122 -0.1132 -0.8725
 2345TIP3   OH228593   1.055   5.207   8.348 -0.3555  0.9175  0.0864
 2345TIP3    H128594   1.138   5.245   8.376 -0.1279 -0.1209  0.8826
 2345TIP3    H228595   1.077   5.116   8.329 -1.7422 -0.0218  2.5900
 2346TIP3   OH228596   4.761   1.689   1.517  0.6073 -0.1264 -0.0523
 2346TIP3    H128597   4.697   1.755   1.543  1.1652  1.1980 -1.7760
 2346TIP3    H228598   4.840   1.739   1.496  1.3354 -1.4313 -0.5731
 2347TIP3   OH228599   0.441   5.790   0.061  0.2953  0.2371 -0.3964
 2347TIP3    H128600   0.471   5.699   0.059  0.6018  0.3240  0.1384
 2347TIP3    H228601   0.349   5.784   0.088 -0.1233 -0.0100 -1.7978
 2348TIP3   OH228602   0.182   0.598   0.006  0.0249 -0.3837 -0.1367
 2348TIP3    H128603   0.198   0.689   0.031  0.3738 -0.4505 -0.1136
 2348TIP3    H228604   0.227   0.546   0.072 -2.0730 -0.6275  1.1879
 2349TIP3   OH228605   3.147   6.736   0.507  0.1208 -0.4632  0.1797
 2349TIP3    H128606   3.057   6.717   0.533 -0.2922  0.4161 -0.5707
 2349TIP3    H228607   3.196   6.736   0.590 -0.5726 -0.8782  0.5992
 2350TIP3   OH228608   5.309   1.600   0.832 -0.4628 -0.1963 -0.2296
 2350TIP3    H128609   5.241   1.568   0.892 -0.7403  1.3062  0.3087
 2350TIP3    H228610   5.283   1.566   0.746 -1.3514 -0.4731  0.1363
 2351TIP3   OH228611   2.484   0.313   7.738 -0.3361 -0.2682  0.3269
 2351TIP3    H128612   2.402   0.299   7.690 -1.6964 -1.2729  2.7975
 2351TIP3    H228613   2.457   0.339   7.826  1.9259 -1.8457  1.5916
 2352TIP3   OH228614   2.610   4.615   7.952 -0.3255 -0.3181  0.4608
 2352TIP3    H128615   2.649   4.657   8.030 -2.2425 -0.2847  1.4555
 2352TIP3    H228616   2.663   4.648   7.879 -0.8423  2.7720  1.3405
 2353TIP3   OH228617   5.135   6.857   7.785 -0.1689  0.3608  0.1753
 2353TIP3    H128618   5.104   6.919   7.851  0.0310  0.9760 -0.3080
 2353TIP3    H228619   5.071   6.786   7.788  0.1655  0.0752  1.4576
 2354TIP3   OH228620   1.690   5.332   0.297 -0.1661 -0.3456  0.2826
 2354TIP3    H128621   1.724   5.244   0.308  1.4703  0.0167 -1.4611
 2354TIP3    H228622   1.742   5.386   0.357 -1.3503 -0.5624  1.5518
 2355TIP3   OH228623   3.927   0.037   7.073  0.5107  0.4391  0.4272
 2355TIP3    H128624   3.887   0.063   7.156 -2.2441 -1.3644 -0.2147
 2355TIP3    H228625   3.864   0.064   7.007  1.5335 -0.3157 -0.8899
 2356TIP3   OH228626   0.993   0.208   8.459  0.0760  0.2382 -0.0014
 2356TIP3    H128627   0.907   0.250   8.453 -0.0382  0.1681  0.9608
 2356TIP3    H228628   0.986   0.153   8.537  1.4977  1.4170  1.0102
 2357TIP3   OH228629   4.498   2.315   8.059  0.0182  0.1635  0.3046
 2357TIP3    H128630   4.410   2.353   8.054 -0.4393 -0.8873  0.0531
 2357TIP3    H228631   4.551   2.383   8.101 -1.0458  0.5815  1.0213
 2358TIP3   OH228632   0.555   1.065   0.748 -0.0844 -0.1236  0.6081
 2358TIP3    H128633   0.500   1.143   0.758 -0.1678 -0.2514  1.2186
 2358TIP3    H228634   0.492   0.994   0.734  0.0473  0.1132 -1.4092
 2359TIP3   OH228635   4.398   6.584   0.452  0.3398  0.0402 -0.4049
 2359TIP3    H128636   4.408   6.650   0.383 -0.8618  1.0263  0.3340
 2359TIP3    H228637   4.488   6.555   0.471  0.8750  1.3580 -0.8416
 2360TIP3   OH228638   5.201   0.178   0.231 -0.5438  0.3849 -0.7249
 2360TIP3    H128639   5.294   0.156   0.231 -0.3463  1.1907 -1.3756
 2360TIP3    H228640   5.183   0.210   0.143 -1.3753  0.5127 -0.5216
 2361TIP3   OH228641   1.958   3.789   3.133  0.0370  0.3143 -0.2534
 2361TIP3    H128642   1.907   3.867   3.114  0.8517  0.0949 -3.9758
 2361TIP3    H228643   1.895   3.717   3.126  0.1470  0.3107 -1.1965
 2362TIP3   OH228644   0.430   6.864   8.376  0.5308 -0.1472 -0.0856
 2362TIP3    H128645   0.396   6.774   8.370 -1.1195  0.3221  1.3232
 2362TIP3    H228646   0.366   6.916   8.327  1.3725  0.3147 -0.7168
 2363TIP3   OH228647   6.285   4.307   1.367 -0.5354  0.2702 -0.4570
 2363TIP3    H128648   6.225   4.381   1.362  1.4014  1.9602 -0.2460
 2363TIP3    H228649   6.328   4.305   1.281 -0.4160 -0.4912 -0.3856
 2364TIP3   OH228650   3.103   5.607   8.434  0.6960  0.5537  0.0905
 2364TIP3    H128651   3.041   5.675   8.408 -0.2813 -0.9428 -1.6932
 2364TIP3    H228652   3.058   5.525   8.415  2.4500 -0.5962  0.6913
 2365TIP3   OH228653   3.453   2.043   7.611  0.3144 -0.2370  0.2353
 2365TIP3    H128654   3.531   2.097   7.597  0.0863  0.9527  2.9042
 2365TIP3    H228655   3.419   2.072   7.696 -2.3519 -1.5852 -0.2659
 2366TIP3   OH228656   0.952   2.663   2.329  0.0278  0.6623 -0.0481
 2366TIP3    H128657   1.001   2.641   2.409 -0.3952  2.6758  0.8564
 2366TIP3    H228658   0.912   2.748   2.349 -2.2952 -0.0019 -1.4489
 2367TIP3   OH228659   5.399   3.034   3.119  0.0555 -0.4742 -0.1868
 2367TIP3    H128660   5.338   2.996   3.055  1.4887  1.0177 -2.6131
 2367TIP3    H228661   5.349   3.102   3.163 -0.4695 -0.2927 -1.0453
 2368TIP3   OH228662   1.935   6.508   8.172 -0.3938  0.4526  0.3766
 2368TIP3    H128663   1.868   6.568   8.204 -0.0461  1.3347 -0.5020
 2368TIP3    H228664   2.017   6.556   8.181 -0.1617  0.3005 -0.7624
 2369TIP3   OH228665   5.320   3.294   1.129  0.4580  0.4395  0.4165
 2369TIP3    H128666   5.295   3.203   1.114 -1.4433  1.0468 -0.5118
 2369TIP3    H228667   5.265   3.322   1.202  0.5615  0.9950  0.2892
 2370TIP3   OH228668   1.634   0.256   8.215  0.3151  0.4179  0.1558
 2370TIP3    H128669   1.583   0.176   8.228  0.2464  0.3110 -0.7152
 2370TIP3    H228670   1.703   0.231   8.154 -0.1571  1.1918 -0.7200
 2371TIP3   OH228671   3.245   3.672   0.076 -0.1016 -0.1229 -0.3880
 2371TIP3    H128672   3.217   3.763   0.062  1.6367  0.3471 -1.0417
 2371TIP3    H228673   3.232   3.630  -0.009 -0.3864 -0.3593 -0.2313
 2372TIP3   OH228674   6.662   1.531   6.930 -0.3212 -0.5768 -0.4884
 2372TIP3    H128675   6.674   1.459   6.992 -1.5440  0.1700  0.6692
 2372TIP3    H228676   6.741   1.584   6.938  0.2210 -1.3347 -0.7384
 2373TIP3   OH228677   2.243   2.273   0.144 -0.2152  0.0748 -0.4044
 2373TIP3    H128678   2.264   2.191   0.190  2.7419  0.2275 -1.3105
 2373TIP3    H228679   2.178   2.247   0.079 -0.8210 -1.1161  0.6134
 2374TIP3   OH228680   5.515   4.707   6.636 -1.0024 -0.0847 -0.2079
 2374TIP3    H128681   5.545   4.748   6.717 -0.8466  1.1347 -0.8574
 2374TIP3    H228682   5.472   4.626   6.664  0.2062 -0.3584  0.9859
 2375TIP3   OH228683   0.627   3.850   8.377 -0.9044 -0.1544 -0.0357
 2375TIP3    H128684   0.708   3.800   8.388 -1.0763 -0.5689 -0.5960
 2375TIP3    H228685   0.568   3.814   8.444 -0.7105 -0.0329  0.2005
 2376TIP3   OH228686   5.189   0.116   7.194 -0.1320  0.3123 -0.0933
 2376TIP3    H128687   5.186   0.027   7.229  0.4339  0.7995  1.2653
 2376TIP3    H228688   5.231   0.107   7.109  0.8407 -0.6076  0.4648
 2377TIP3   OH228689   3.074   1.610   1.061  0.3239  0.0275  0.5549
 2377TIP3    H128690   3.045   1.522   1.037  0.3349  0.4084 -0.8974
 2377TIP3    H228691   3.014   1.636   1.131 -1.4249 -0.1050 -0.8326
 2378TIP3   OH228692   4.059   1.128   0.274 -0.0241  0.3639  0.2616
 2378TIP3    H128693   4.096   1.133   0.187  0.1609 -0.2922  0.3022
 2378TIP3    H228694   4.020   1.215   0.288  0.4018  0.6438 -0.2588
 2379TIP3   OH228695   3.273   2.802   0.126  0.3095 -0.3394 -0.1958
 2379TIP3    H128696   3.226   2.830   0.205  0.7314 -1.1791  0.3746
 2379TIP3    H228697   3.211   2.744   0.081 -0.1677  0.6377 -0.8246
 2380TIP3   OH228698   4.162   6.542   8.223 -0.3699 -0.2455 -0.3282
 2380TIP3    H128699   4.180   6.456   8.184 -0.2824 -1.7605  2.7189
 2380TIP3    H228700   4.249   6.575   8.246 -0.5349 -0.4849  0.6665
 2381TIP3   OH228701   6.154   1.427   8.593  0.2007  0.1703 -0.0255
 2381TIP3    H128702   6.228   1.407   8.537  0.1821 -0.4289  0.1573
 2381TIP3    H228703   6.139   1.521   8.581  1.1220  0.3354  0.1036
 2382TIP3   OH228704   6.445   5.751   6.397  0.2261 -0.4932  0.0331
 2382TIP3    H128705   6.408   5.784   6.315 -0.0356  3.0666  1.3997
 2382TIP3    H228706   6.373   5.758   6.460  0.3857 -3.2734  0.6429
 2383TIP3   OH228707   5.634   4.493   1.769  0.3637 -0.2054 -1.1118
 2383TIP3    H128708   5.620   4.538   1.686  1.2962  0.7317 -0.7802
 2383TIP3    H228709   5.552   4.445   1.784 -0.9921  1.9412 -1.1456
 2384TIP3   OH228710   3.480   2.014   2.704  0.6315  0.1718  0.1045
 2384TIP3    H128711   3.492   1.944   2.768  2.0333  0.2015 -0.0864
 2384TIP3    H228712   3.530   2.088   2.739  2.3485 -0.1464 -1.4692
 2385TIP3   OH228713   1.321   3.962   3.020 -0.1311 -0.0535 -0.1840
 2385TIP3    H128714   1.244   3.969   3.076 -0.9247 -1.6643 -1.0014
 2385TIP3    H228715   1.349   3.871   3.029  1.1090  0.2710 -0.6240
 2386TIP3   OH228716   6.100   4.152   1.966 -0.5491  0.1686  0.6243
 2386TIP3    H128717   6.104   4.244   1.941  3.1715  0.7017  2.6217
 2386TIP3    H228718   6.136   4.105   1.891 -0.6794  0.5070  0.3470
 2387TIP3   OH228719   4.355   1.413   7.643  0.0739 -0.6226 -0.2536
 2387TIP3    H128720   4.352   1.375   7.731 -2.4970  1.2369  0.5871
 2387TIP3    H228721   4.420   1.482   7.649 -1.0348  0.3990  0.6835
 2388TIP3   OH228722   3.462   3.960   8.613  0.1196 -0.0041 -0.2705
 2388TIP3    H128723   3.414   4.009   8.680  0.3086  1.2585 -1.0217
 2388TIP3    H228724   3.534   4.018   8.589 -0.4518 -0.0428 -2.1925
 2389TIP3   OH228725   3.483   0.367   2.279  0.0760  0.1531  0.0542
 2389TIP3    H128726   3.502   0.364   2.185  0.3678  1.3122  0.0630
 2389TIP3    H228727   3.484   0.460   2.301  0.5388 -0.1288  1.3114
 2390TIP3   OH228728   4.328   0.492   0.436  0.3725  0.3477  0.5030
 2390TIP3    H128729   4.248   0.488   0.384 -0.3850 -1.0085  1.7006
 2390TIP3    H228730   4.334   0.584   0.463  0.0452  0.7734 -0.8359
 2391TIP3   OH228731   5.268   3.283   0.103  0.2236  0.7784 -0.3305
 2391TIP3    H128732   5.287   3.220   0.033 -0.6038  0.2377 -0.0809
 2391TIP3    H228733   5.239   3.362   0.058 -2.9202 -0.4007 -0.6190
 2392TIP3   OH228734   1.843   0.256   0.358 -0.1809 -0.2797 -0.2613
 2392TIP3    H128735   1.859   0.167   0.390 -3.3366  0.1521  3.1343
 2392TIP3    H228736   1.909   0.310   0.401 -0.7126 -0.5114  0.8688
 2393TIP3   OH228737   4.998   4.536   1.523 -0.5478 -0.3106  0.5914
 2393TIP3    H128738   5.048   4.457   1.542  2.0865  0.5872 -1.8798
 2393TIP3    H228739   5.047   4.607   1.565 -0.2511  0.4776 -1.0016
 2394TIP3   OH228740   2.420   2.665   0.190  0.1849 -0.3804 -0.4763
 2394TIP3    H128741   2.374   2.746   0.170  0.0479  0.1848  1.8759
 2394TIP3    H228742   2.484   2.656   0.119 -0.8572  0.9085 -1.6402
 2395TIP3   OH228743   6.185   2.170   8.302  0.1906 -0.4892 -0.1918
 2395TIP3    H128744   6.198   2.150   8.394 -0.0124 -0.3595 -0.1320
 2395TIP3    H228745   6.251   2.236   8.282 -0.2585  0.0553  0.0651
 2396TIP3   OH228746   2.199   0.678   8.206  0.4180 -0.0845 -0.2036
 2396TIP3    H128747   2.277   0.703   8.255  0.3962 -0.3317 -0.0412
 2396TIP3    H228748   2.127   0.717   8.255  0.5163  1.1694 -1.0120
 2397TIP3   OH228749   3.220   5.599   0.219  0.3194 -0.0995 -0.5834
 2397TIP3    H128750   3.309   5.566   0.215  0.4446  0.2133 -0.4028
 2397TIP3    H228751   3.218   5.671   0.156  0.2007 -0.0896 -0.5690
 2398TIP3   OH228752   0.689   6.126   7.111  0.0596  0.3859  0.0501
 2398TIP3    H128753   0.719   6.055   7.169  0.5136 -0.1300 -0.7945
 2398TIP3    H228754   0.769   6.161   7.072 -0.3199 -0.2769 -1.3973
 2399TIP3   OH228755   1.824   5.286   1.833 -0.1733  0.7320 -0.3117
 2399TIP3    H128756   1.841   5.238   1.914 -1.1651  1.6458  0.4731
 2399TIP3    H228757   1.858   5.373   1.849  0.4678  0.6717 -1.2494
 2400TIP3   OH228758   1.971   6.105   1.460 -0.5174 -0.5750 -1.0311
 2400TIP3    H128759   1.896   6.045   1.459 -0.0732 -1.2720  1.0531
 2400TIP3    H228760   1.933   6.192   1.458 -1.2362 -0.8920 -2.7339
 2401TIP3   OH228761   5.353   6.566   0.277 -1.0361  0.2666  0.2393
 2401TIP3    H128762   5.404   6.631   0.326  1.3308 -0.2213 -1.4191
 2401TIP3    H228763   5.373   6.483   0.320  0.8962 -0.1358 -1.2832
 2402TIP3   OH228764   6.868   4.432   6.804 -0.0419  0.1126  0.5820
 2402TIP3    H128765   6.782   4.474   6.812  0.0345  1.0661 -2.3551
 2402TIP3    H228766   6.884   4.429   6.710  3.4424  0.5596  1.0353
 2403TIP3   OH228767   6.186   2.689   0.341 -0.1662  0.2338 -0.3921
 2403TIP3    H128768   6.266   2.725   0.377  0.0172 -0.6487  0.0941
 2403TIP3    H228769   6.144   2.763   0.298  1.4503  0.4813 -1.6489
 2404TIP3   OH228770   0.570   0.834   1.092 -0.0184  0.3591 -0.2156
 2404TIP3    H128771   0.585   0.829   0.998  0.1294  3.0232 -0.4081
 2404TIP3    H228772   0.489   0.784   1.106 -0.8489  1.1329 -1.9885
 2405TIP3   OH228773   3.464   5.352   2.487 -0.2621 -0.6948  0.4630
 2405TIP3    H128774   3.480   5.277   2.545 -0.5358 -1.5178 -0.4784
 2405TIP3    H228775   3.551   5.390   2.473 -0.4401  0.8743  3.0922
 2406TIP3   OH228776   2.625   2.872   2.080 -0.1022  0.1696 -0.4302
 2406TIP3    H128777   2.692   2.807   2.106  0.1775  0.1607 -1.1560
 2406TIP3    H228778   2.564   2.874   2.154  1.0992  0.7278  0.5919
 2407TIP3   OH228779   3.697   5.285   0.307 -0.1624 -0.2203  0.8818
 2407TIP3    H128780   3.782   5.278   0.351  0.3797 -0.8428 -0.2181
 2407TIP3    H228781   3.718   5.292   0.214 -1.3268 -1.0333  0.5231
 2408TIP3   OH228782   6.389   5.022   0.216  0.3706  0.1151 -0.0566
 2408TIP3    H128783   6.394   5.108   0.173 -0.3464  0.5206  0.6396
 2408TIP3    H228784   6.296   5.012   0.237  0.4056 -0.9585 -0.3739
 2409TIP3   OH228785   6.171   6.273   0.173  0.2127 -0.1649 -0.1621
 2409TIP3    H128786   6.084   6.265   0.212 -0.0513  0.3448 -0.6219
 2409TIP3    H228787   6.217   6.194   0.200 -0.1888 -0.1494  0.5974
 2410TIP3   OH228788   3.143   3.929   0.031  0.2305  0.4326  0.1440
 2410TIP3    H128789   3.182   4.013   0.056  1.6358  0.0317 -0.5842
 2410TIP3    H228790   3.160   3.922  -0.063  1.4250 -1.2870  0.4328
 2411TIP3   OH228791   6.321   4.515   0.944 -0.7986 -0.0962 -0.3755
 2411TIP3    H128792   6.275   4.557   0.871 -0.7062 -1.2944 -1.1520
 2411TIP3    H228793   6.251   4.480   0.998 -1.0595  3.4693  1.9164
 2412TIP3   OH228794   3.203   4.587   1.575 -0.3772  0.0514  0.1835
 2412TIP3    H128795   3.226   4.672   1.536  1.8929 -0.9639 -0.8519
 2412TIP3    H228796   3.170   4.536   1.501 -1.1879 -0.1853  0.6954
 2413TIP3   OH228797   5.762   0.335   8.490  0.4034  0.6018 -0.1850
 2413TIP3    H128798   5.674   0.347   8.526  1.4662  1.5011  2.3191
 2413TIP3    H228799   5.779   0.415   8.441  0.1473  0.8177  0.0752
 2414TIP3   OH228800   3.289   5.788   8.641 -0.1412 -0.9673 -0.0941
 2414TIP3    H128801   3.265   5.875   8.609 -1.4280 -0.2638  2.5105
 2414TIP3    H228802   3.281   5.731   8.565 -0.2161  1.0122 -1.6522
 2415TIP3   OH228803   4.715   3.420   8.553  0.2019 -0.3358 -0.1389
 2415TIP3    H128804   4.773   3.493   8.577  0.4085  0.1858 -2.0370
 2415TIP3    H228805   4.732   3.407   8.460 -1.0020 -1.7775 -0.1806
 2416TIP3   OH228806   6.104   1.691   0.495  0.0902  0.1310 -0.1207
 2416TIP3    H128807   6.049   1.614   0.512  1.3247 -0.5955  0.7352
 2416TIP3    H228808   6.052   1.744   0.434 -0.4323 -1.8139 -1.4814
 2417TIP3   OH228809   1.005   6.890   1.717  0.1612  0.1752 -0.2101
 2417TIP3    H128810   1.009   6.948   1.641 -0.6458  0.3920 -0.0990
 2417TIP3    H228811   1.091   6.847   1.720  1.2427  2.2500  0.4135
 2418TIP3   OH228812   0.785   4.459   2.578  0.1081 -0.0773  0.3462
 2418TIP3    H128813   0.871   4.463   2.619 -0.1281  2.0180  0.7375
 2418TIP3    H228814   0.801   4.420   2.492  0.9239 -2.5432  1.5244
 2419TIP3   OH228815   3.496   3.226   1.700 -0.0861  0.0069  0.4251
 2419TIP3    H128816   3.512   3.216   1.794 -0.5027  0.3702  0.5414
 2419TIP3    H228817   3.401   3.215   1.691 -0.3262  1.8380  0.3161
 2420TIP3   OH228818   0.638   4.189   6.687  0.1963  0.2956 -0.1662
 2420TIP3    H128819   0.565   4.235   6.728  0.2972  0.3332 -0.0291
 2420TIP3    H228820   0.665   4.247   6.616 -0.1022  0.1411 -0.4092
 2421TIP3   OH228821   4.160   1.396   0.521 -0.8745 -0.0166  0.0588
 2421TIP3    H128822   4.245   1.359   0.545 -0.7211  0.0851 -0.3108
 2421TIP3    H228823   4.097   1.354   0.579 -0.8069 -1.4307 -0.8439
 2422TIP3   OH228824   5.059   5.695   2.523 -0.1076  0.8784 -0.4153
 2422TIP3    H128825   4.993   5.699   2.593  0.9891  3.5854  0.6187
 2422TIP3    H228826   5.079   5.602   2.513 -1.6791  0.2712  1.5413
 2423TIP3   OH228827   0.436   6.583   7.638  0.1655  0.1158  0.4082
 2423TIP3    H128828   0.519   6.536   7.635 -0.3499 -0.8046 -0.5249
 2423TIP3    H228829   0.457   6.672   7.611  0.8134 -0.1949 -0.1580
 2424TIP3   OH228830   1.662   3.114   7.582 -0.0465  0.1039  0.7068
 2424TIP3    H128831   1.617   3.030   7.569  1.2797 -0.5644  0.1939
 2424TIP3    H228832   1.706   3.130   7.498 -1.0460  1.8186  0.4728
 2425TIP3   OH228833   6.633   1.373   7.908 -0.1859  0.4704 -0.2927
 2425TIP3    H128834   6.673   1.364   7.821 -1.0364 -0.6014 -0.5984
 2425TIP3    H228835   6.615   1.467   7.916 -1.3480  0.4454 -1.8850
 2426TIP3   OH228836   3.487   3.309   0.894  0.0663 -0.1486 -0.1544
 2426TIP3    H128837   3.414   3.248   0.902  0.8140 -1.0654 -0.1553
 2426TIP3    H228838   3.538   3.277   0.819 -0.5382  1.5841 -1.3716
 2427TIP3   OH228839   0.680   4.875   0.883 -0.2572  0.5320  0.4149
 2427TIP3    H128840   0.666   4.933   0.958 -1.0282  0.8966 -0.0026
 2427TIP3    H228841   0.622   4.801   0.900  0.4102  0.0767  0.7347
 2428TIP3   OH228842   3.778   4.514   2.037 -0.9440 -0.3197  0.4637
 2428TIP3    H128843   3.797   4.493   2.129 -0.5430 -1.9911  0.0287
 2428TIP3    H228844   3.707   4.454   2.013  0.7514 -1.8317 -1.0500
 2429TIP3   OH228845   5.739   5.816   0.809  0.1281  0.0625 -0.8999
 2429TIP3    H128846   5.677   5.887   0.823 -1.2168 -1.0854 -0.8051
 2429TIP3    H228847   5.754   5.780   0.896  0.5241  0.0047 -0.9908
 2430TIP3   OH228848   5.696   4.352   2.409  0.5043  0.0705 -0.2752
 2430TIP3    H128849   5.749   4.416   2.456  0.2275  1.2085 -1.4347
 2430TIP3    H228850   5.671   4.397   2.327  0.1752 -1.4671 -1.0622
 2431TIP3   OH228851   3.817   5.712   2.070  0.1619  0.3929  0.0153
 2431TIP3    H128852   3.837   5.674   2.156  0.0733 -1.0701 -0.5842
 2431TIP3    H228853   3.791   5.638   2.016 -0.4517  1.3850 -1.0994
 2432TIP3   OH228854   4.272   1.741   7.323  0.9078 -0.0767 -0.0136
 2432TIP3    H128855   4.319   1.825   7.326  0.1554  0.3277  0.7977
 2432TIP3    H228856   4.332   1.683   7.275  1.9172  0.6225  0.3489
 2433TIP3   OH228857   1.327   0.739   0.492  0.1300 -0.0365  0.2724
 2433TIP3    H128858   1.364   0.700   0.412  4.7081  2.4003  0.8470
 2433TIP3    H228859   1.243   0.776   0.464 -0.6147 -3.1478 -2.1534
 2434TIP3   OH228860   4.537   1.006   8.314 -0.5715 -0.0442 -0.6565
 2434TIP3    H128861   4.466   0.943   8.328  0.5814 -1.2570  0.0438
 2434TIP3    H228862   4.529   1.031   8.222 -2.6365  0.8311 -0.3072
 2435TIP3   OH228863   0.698   4.838   0.164 -0.4758  0.2037 -0.1185
 2435TIP3    H128864   0.705   4.756   0.214  1.2793  0.3248 -0.0900
 2435TIP3    H228865   0.669   4.810   0.077 -0.6374 -0.3605  0.1090
 2436TIP3   OH228866   1.530   6.879   8.219  0.3053  0.5712 -0.2797
 2436TIP3    H128867   1.491   6.854   8.136  2.3562  0.6298 -1.3396
 2436TIP3    H228868   1.507   6.809   8.280  0.7947 -0.7480 -1.5649
 2437TIP3   OH228869   0.506   5.414   8.179  0.2374  0.4439 -0.5819
 2437TIP3    H128870   0.531   5.407   8.271 -0.1130 -2.1426 -0.6108
 2437TIP3    H228871   0.410   5.404   8.179  0.3466 -0.8225 -1.2780
 2438TIP3   OH228872   6.028   5.426   6.591 -0.1129  0.5235  0.2258
 2438TIP3    H128873   6.110   5.405   6.546  0.1323  0.6480  0.6108
 2438TIP3    H228874   6.037   5.388   6.678 -0.9387 -0.4528 -0.0963
 2439TIP3   OH228875   1.651   4.116   8.506 -0.2228  0.0545  0.3570
 2439TIP3    H128876   1.637   4.140   8.414  0.5543  0.5739  0.3683
 2439TIP3    H228877   1.664   4.021   8.503 -1.5999 -0.1456  0.1085
 2440TIP3   OH228878   6.750   3.711   8.395 -0.2562 -0.1968 -0.4230
 2440TIP3    H128879   6.772   3.621   8.371 -0.4290 -0.0658 -1.0946
 2440TIP3    H228880   6.657   3.719   8.376  0.5259  1.4162 -4.8204
 2441TIP3   OH228881   5.388   6.827   1.889  0.3840 -0.1886  0.5972
 2441TIP3    H128882   5.293   6.823   1.906  0.4244  0.3051  0.9519
 2441TIP3    H228883   5.414   6.914   1.918  0.8384 -0.0913 -0.0831
 2442TIP3   OH228884   6.328   2.723   1.625 -0.5192 -0.2075  0.2111
 2442TIP3    H128885   6.363   2.739   1.538 -1.7342  0.7577 -0.1303
 2442TIP3    H228886   6.379   2.649   1.659  0.6655  0.0784 -0.8923
 2443TIP3   OH228887   3.041   3.312   0.196 -0.0190 -0.3722  0.2937
 2443TIP3    H128888   3.092   3.256   0.138  0.7504 -0.7793  1.3360
 2443TIP3    H228889   3.097   3.389   0.208  0.1502 -0.6113  1.0643
 2444TIP3   OH228890   2.354   1.292   8.459  0.2825  0.1624 -0.1534
 2444TIP3    H128891   2.281   1.342   8.496 -1.3830 -0.2168 -2.6512
 2444TIP3    H228892   2.412   1.358   8.422 -0.5145  0.3991 -1.0303
 2445TIP3   OH228893   5.421   5.993   0.766 -0.1716 -0.0476  0.0037
 2445TIP3    H128894   5.400   5.913   0.717 -0.1722 -0.2174  0.2764
 2445TIP3    H228895   5.435   5.962   0.856  1.8063 -0.0272 -0.2621
 2446TIP3   OH228896   3.564   4.102   0.608 -0.3728  0.3739  0.3919
 2446TIP3    H128897   3.564   4.016   0.566  2.3102 -0.5639  2.0328
 2446TIP3    H228898   3.486   4.101   0.664 -0.1709 -1.2083  0.7090
 2447TIP3   OH228899   6.689   2.988   6.834  0.2647 -0.0222  0.0677
 2447TIP3    H128900   6.769   3.038   6.818  0.3355  0.4355  1.6662
 2447TIP3    H228901   6.657   2.966   6.747  2.3726 -0.6293 -0.6303
 2448TIP3   OH228902   5.827   5.295   6.987  0.3528  0.7320 -0.0658
 2448TIP3    H128903   5.794   5.369   7.037  0.3998  0.1219  0.9102
 2448TIP3    H228904   5.756   5.230   6.992  1.6701 -0.6868  2.2598
 2449TIP3   OH228905   5.273   5.086   8.342 -0.0470  0.0783 -0.0659
 2449TIP3    H128906   5.186   5.054   8.366 -0.6786  1.9976  0.3549
 2449TIP3    H228907   5.268   5.098   8.247  0.0648 -0.6722 -0.1699
 2450TIP3   OH228908   3.029   4.171   1.858 -0.1455 -0.0829 -0.1706
 2450TIP3    H128909   3.124   4.183   1.857 -0.2209  0.6417  0.6036
 2450TIP3    H228910   2.995   4.247   1.811 -0.2861 -1.2674 -2.0998
 2451TIP3   OH228911   2.273   4.170   1.475 -0.0268  0.0157 -1.0402
 2451TIP3    H128912   2.291   4.259   1.503 -1.5706 -0.6929  2.8032
 2451TIP3    H228913   2.238   4.179   1.386 -3.0511  3.6374  0.2678
 2452TIP3   OH228914   0.189   4.085   1.555  0.5757 -0.0259 -0.1930
 2452TIP3    H128915   0.185   4.164   1.501  0.9131  0.3751  0.3464
 2452TIP3    H228916   0.283   4.073   1.572  0.3884  0.8689  1.7262
 2453TIP3   OH228917   1.677   2.588   7.952  0.2931  0.4634 -0.0563
 2453TIP3    H128918   1.655   2.635   7.872 -0.4561 -1.0037 -0.7490
 2453TIP3    H228919   1.601   2.532   7.969  0.8629  0.0014  1.1204
 2454TIP3   OH228920   2.797   4.467   6.797 -0.1311 -0.0312 -0.2318
 2454TIP3    H128921   2.873   4.464   6.740 -0.0428  0.1933 -0.1305
 2454TIP3    H228922   2.828   4.514   6.875 -0.1875 -0.5313  0.0937
 2455TIP3   OH228923   5.855   4.778   8.026 -0.7839  0.2169  0.2359
 2455TIP3    H128924   5.887   4.806   7.941 -0.6990 -0.2854  0.0945
 2455TIP3    H228925   5.900   4.834   8.089 -0.6023  0.3757 -0.0343
 2456TIP3   OH228926   2.082   4.871   2.453  0.4497  0.2342  0.0602
 2456TIP3    H128927   2.058   4.953   2.496  0.2809 -0.3898  1.2187
 2456TIP3    H228928   2.001   4.840   2.413  0.3689  0.3365  0.1435
 2457TIP3   OH228929   4.521   2.011   2.428  0.2571 -0.5578 -0.6323
 2457TIP3    H128930   4.444   2.067   2.419 -0.4322 -1.1479  1.1018
 2457TIP3    H228931   4.526   1.993   2.522  3.7121  1.0965 -0.3366
 2458TIP3   OH228932   4.995   5.933   8.084  0.1456 -0.3318 -0.0949
 2458TIP3    H128933   4.994   5.925   8.180 -2.0428 -0.9781 -0.1078
 2458TIP3    H228934   4.941   6.010   8.066  2.3032  1.0937 -0.7955
 2459TIP3   OH228935   2.157   3.738   1.848 -0.1046 -0.1187  0.1941
 2459TIP3    H128936   2.110   3.669   1.893 -0.1177 -0.6024 -0.5423
 2459TIP3    H228937   2.173   3.805   1.915 -1.6810 -0.0120  0.4935
 2460TIP3   OH228938   4.881   5.965   0.075 -0.5301 -0.0547  0.1578
 2460TIP3    H128939   4.786   5.962   0.087 -0.6048 -0.5409 -0.5185
 2460TIP3    H228940   4.899   6.057   0.054 -0.9370 -0.0971 -0.3971
 2461TIP3   OH228941   6.306   1.911   7.318 -0.5710 -0.8258 -0.1474
 2461TIP3    H128942   6.356   1.858   7.381 -0.1670 -1.7833 -1.2316
 2461TIP3    H228943   6.367   1.980   7.292 -1.2672  0.5283  1.6452
 2462TIP3   OH228944   3.047   5.611   1.180 -0.3275  0.0430  0.2634
 2462TIP3    H128945   2.956   5.597   1.206  0.0107 -0.6170  1.1436
 2462TIP3    H228946   3.045   5.613   1.085 -1.0941 -1.1764  0.2387
 2463TIP3   OH228947   1.133   2.914   1.964 -0.1898 -0.9335 -0.0458
 2463TIP3    H128948   1.182   2.970   2.025 -1.3190 -0.1723  0.2075
 2463TIP3    H228949   1.139   2.826   2.002  0.8766 -0.8451  0.0242
 2464TIP3   OH228950   6.810   6.696   0.867 -0.4827  0.0968 -0.2115
 2464TIP3    H128951   6.824   6.715   0.960  2.7515  2.1569 -0.9681
 2464TIP3    H228952   6.860   6.616   0.851 -0.7665 -0.0728 -0.2574
 2465TIP3   OH228953   0.518   2.422   1.332  0.4505  0.0780 -0.9336
 2465TIP3    H128954   0.438   2.375   1.313  1.3700 -1.5882 -0.8302
 2465TIP3    H228955   0.509   2.451   1.423 -0.2727  0.4384 -1.1172
 2466TIP3   OH228956   3.208   3.923   8.404  0.0878  0.0422  0.2204
 2466TIP3    H128957   3.256   3.896   8.325  0.7541 -0.8312  0.9116
 2466TIP3    H228958   3.267   3.984   8.448 -0.1032  0.1889  0.2750
 2467TIP3   OH228959   3.871   0.689   7.779  1.0360  0.2855 -0.4208
 2467TIP3    H128960   3.839   0.631   7.848  0.3799 -1.0773 -1.8110
 2467TIP3    H228961   3.928   0.633   7.725  1.3942  1.2606 -1.0806
 2468TIP3   OH228962   5.298   2.006   6.728 -0.5382 -0.1910  0.2640
 2468TIP3    H128963   5.387   2.024   6.758  0.2739 -0.0549 -2.0301
 2468TIP3    H228964   5.270   1.929   6.779  1.6262 -1.4182 -0.2868
 2469TIP3   OH228965   2.249   3.995   2.556 -0.0975 -0.1655 -0.1446
 2469TIP3    H128966   2.252   4.091   2.553  0.1814 -0.1070  1.3528
 2469TIP3    H228967   2.273   3.968   2.467 -1.9101  1.1556 -1.1142
 2470TIP3   OH228968   6.663   3.054   2.686 -0.3138  0.7594  0.3063
 2470TIP3    H128969   6.622   3.058   2.772  1.8783 -2.4950  1.6964
 2470TIP3    H228970   6.615   2.987   2.638 -1.1225  2.1123 -0.8694
 2471TIP3   OH228971   3.261   4.548   0.837 -0.3080  0.3493  0.5558
 2471TIP3    H128972   3.235   4.622   0.782 -0.1334  1.1521  1.5346
 2471TIP3    H228973   3.182   4.526   0.886 -1.7962 -3.0517 -2.8164
 2472TIP3   OH228974   0.332   2.874   1.109 -0.2978 -0.3407 -0.5791
 2472TIP3    H128975   0.318   2.949   1.167  0.1403  0.8074 -1.8933
 2472TIP3    H228976   0.425   2.852   1.120 -0.3778 -0.5637 -0.3445
 2473TIP3   OH228977   2.674   5.455   7.750  0.6390 -0.0592 -0.8221
 2473TIP3    H128978   2.584   5.442   7.779  0.9337  1.0032  0.6889
 2473TIP3    H228979   2.668   5.521   7.681  0.2566  0.0542 -0.6850
 2474TIP3   OH228980   3.895   5.503   6.955  0.1460  0.3349  0.4827
 2474TIP3    H128981   3.871   5.476   6.867 -0.2672  0.9215  0.4104
 2474TIP3    H228982   3.906   5.598   6.949  2.2713  0.1544  0.5570
 2475TIP3   OH228983   2.644   5.023   0.038 -0.1740  0.1235  0.3455
 2475TIP3    H128984   2.634   4.928   0.045  0.4196  0.0260 -0.0694
 2475TIP3    H228985   2.560   5.054   0.004 -0.7778 -0.1168  1.5600
 2476TIP3   OH228986   5.338   1.854   8.513 -0.5563  0.2608  0.6878
 2476TIP3    H128987   5.284   1.918   8.560  0.2711 -0.5001  2.7794
 2476TIP3    H228988   5.342   1.888   8.424 -1.9783  1.9340  1.1949
 2477TIP3   OH228989   0.728   0.585   2.502  0.6339  0.1251 -0.9897
 2477TIP3    H128990   0.653   0.528   2.490  0.5783  0.1311 -0.6778
 2477TIP3    H228991   0.804   0.527   2.497  0.5561 -0.0616 -0.1750
 2478TIP3   OH228992   6.714   3.409   0.897  0.4560 -0.3652 -0.1594
 2478TIP3    H128993   6.765   3.338   0.935  1.7185  1.5055  1.9248
 2478TIP3    H228994   6.662   3.443   0.970 -0.6101  0.4377 -1.2474
 2479TIP3   OH228995   1.357   3.882   8.366  0.2026  0.1196 -0.1503
 2479TIP3    H128996   1.320   3.916   8.448 -0.0169  1.3216 -0.7219
 2479TIP3    H228997   1.423   3.947   8.342 -1.2057  0.9466 -2.0139
 2480TIP3   OH228998   3.615   0.244   8.250 -0.3052  0.2731 -0.1999
 2480TIP3    H128999   3.591   0.311   8.186 -1.2619 -2.0940 -2.4608
 2480TIP3    H229000   3.708   0.227   8.232 -0.0095  1.0780  0.5056
 2481TIP3   OH229001   2.758   1.443   2.374  0.1833 -0.0687 -0.1759
 2481TIP3    H129002   2.700   1.516   2.353 -0.0876 -0.2889 -0.1981
 2481TIP3    H229003   2.846   1.474   2.351 -0.1811 -0.6161 -2.4597
 2482TIP3   OH229004   0.935   4.519   8.374 -0.2569  0.0472 -0.7641
 2482TIP3    H129005   0.873   4.453   8.406 -0.5086  0.0313 -1.2707
 2482TIP3    H229006   1.018   4.472   8.370 -0.2861 -0.0389 -0.4432
 2483TIP3   OH229007   0.218   5.792   7.747  0.4419 -0.0786  0.0731
 2483TIP3    H129008   0.158   5.754   7.683  0.2342  1.8722 -0.9550
 2483TIP3    H229009   0.303   5.793   7.703  0.4034  0.7938  0.0074
 2484TIP3   OH229010   3.715   1.658   1.691 -0.3115 -0.0245  0.0725
 2484TIP3    H129011   3.657   1.592   1.653  0.9436  0.0198 -2.1028
 2484TIP3    H229012   3.700   1.737   1.638 -0.0836  0.7470  1.1173
 2485TIP3   OH229013   5.104   5.165   7.837 -0.3944 -0.6539 -0.3070
 2485TIP3    H129014   5.016   5.152   7.802 -0.1742 -1.3365 -0.6132
 2485TIP3    H229015   5.144   5.078   7.838 -0.3715 -0.6622  1.6049
 2486TIP3   OH229016   2.651   2.175   0.162 -0.1844  0.1823 -0.2248
 2486TIP3    H129017   2.611   2.090   0.143  0.3272 -0.0254 -0.3883
 2486TIP3    H229018   2.587   2.239   0.133 -0.9143 -0.1436  0.6097
 2487TIP3   OH229019   3.326   3.126   7.526  0.2366  0.1033  0.2886
 2487TIP3    H129020   3.342   3.063   7.597 -1.7011 -2.1236 -1.1151
 2487TIP3    H229021   3.382   3.096   7.454 -0.4201  0.1912 -0.2707
 2488TIP3   OH229022   1.031   2.144   7.634  0.0018  0.0667  0.2275
 2488TIP3    H129023   1.064   2.212   7.574 -0.9546  2.0247  1.7826
 2488TIP3    H229024   0.949   2.116   7.596  0.1912  0.1019 -0.2133
 2489TIP3   OH229025   3.040   5.936   0.949 -0.2177  0.4702  0.1649
 2489TIP3    H129026   3.040   6.015   0.894 -2.2294 -0.0878 -0.7228
 2489TIP3    H229027   3.126   5.937   0.992  1.4508  1.0323 -2.8755
 2490TIP3   OH229028   0.244   0.213   6.342 -0.0341  0.0213  0.7915
 2490TIP3    H129029   0.201   0.132   6.367  2.4128 -2.6294 -2.7105
 2490TIP3    H229030   0.172   0.273   6.320 -1.9009 -1.8777  1.4569
 2491TIP3   OH229031   5.550   2.667   7.652 -0.3772  0.1618  0.8264
 2491TIP3    H129032   5.467   2.626   7.625  0.4702  0.0492 -1.9062
 2491TIP3    H229033   5.613   2.595   7.654  0.1167  0.5847  0.6907
 2492TIP3   OH229034   4.770   4.416   1.603 -0.3737 -0.2489  0.2352
 2492TIP3    H129035   4.848   4.469   1.582 -0.8615  0.7857  0.9252
 2492TIP3    H229036   4.756   4.362   1.525  1.7145 -1.3151  0.5425
 2493TIP3   OH229037   6.438   6.249   1.635 -0.1065 -0.7121  0.3923
 2493TIP3    H129038   6.475   6.166   1.604 -0.2796 -0.2331 -1.1687
 2493TIP3    H229039   6.358   6.223   1.683  1.4895 -1.6511  2.7319
 2494TIP3   OH229040   3.262   2.153   7.400 -0.0812 -0.5244 -0.0718
 2494TIP3    H129041   3.339   2.120   7.447 -0.7912 -1.3758  0.5197
 2494TIP3    H229042   3.298   2.214   7.336  0.9234  1.1604  1.9442
 2495TIP3   OH229043   6.372   1.580   0.400 -0.0745 -0.3111  0.4945
 2495TIP3    H129044   6.281   1.604   0.418  0.5067  0.9567  2.0767
 2495TIP3    H229045   6.423   1.651   0.439  1.5786 -0.0852 -1.8465
 2496TIP3   OH229046   0.160   4.226   0.224  0.0156  0.0519  0.0080
 2496TIP3    H129047   0.077   4.213   0.179  0.8787 -0.2575 -1.5489
 2496TIP3    H229048   0.160   4.161   0.294 -0.8570 -0.2323 -0.2498
 2497TIP3   OH229049   2.088   4.354   2.106 -0.3917  0.0988  0.6625
 2497TIP3    H129050   2.061   4.410   2.033 -0.5736  0.1504  0.7687
 2497TIP3    H229051   2.007   4.312   2.134 -0.3564  0.2395  0.9750
 2498TIP3   OH229052   3.310   6.341   1.616 -0.2113 -0.7618 -0.1398
 2498TIP3    H129053   3.234   6.288   1.593 -0.0981 -0.8447 -0.3321
 2498TIP3    H229054   3.374   6.277   1.647 -0.0882 -0.7344 -0.3342
 2499TIP3   OH229055   6.523   2.591   7.599  0.1625 -0.2977 -0.3730
 2499TIP3    H129056   6.485   2.531   7.663  0.2610 -0.2281 -0.2468
 2499TIP3    H229057   6.610   2.554   7.581 -0.6586 -1.5031 -2.0786
 2500TIP3   OH229058   0.238   2.550   1.927 -0.2316  0.2751 -0.0328
 2500TIP3    H129059   0.303   2.619   1.917 -0.8948  0.5889 -3.0646
 2500TIP3    H229060   0.288   2.468   1.919  0.0570  0.4562 -0.0789
 2501TIP3   OH229061   1.270   1.892   7.062 -0.0799 -0.4867 -0.2000
 2501TIP3    H129062   1.182   1.896   7.024 -1.4735 -0.2453  2.7502
 2501TIP3    H229063   1.328   1.881   6.987 -2.5070  0.4789 -2.3808
 2502TIP3   OH229064   4.808   1.452   1.661  0.5657 -0.1456 -1.2064
 2502TIP3    H129065   4.778   1.510   1.590  0.1161 -2.2370 -2.8458
 2502TIP3    H229066   4.888   1.492   1.693  1.0323  0.6627 -3.2324
 2503TIP3   OH229067   2.703   3.927   8.609 -0.1142  0.3891 -0.1984
 2503TIP3    H129068   2.742   3.922   8.522  1.0906 -1.1018  0.4008
 2503TIP3    H229069   2.707   4.020   8.632 -0.2085  0.7587 -1.6049
 2504TIP3   OH229070   4.495   1.874   8.470 -0.2617 -0.1965  0.5384
 2504TIP3    H129071   4.506   1.882   8.375  1.4590  0.0897  0.7225
 2504TIP3    H229072   4.402   1.855   8.482 -0.6485  0.4166 -1.1569
 2505TIP3   OH229073   2.813   0.297   0.762 -0.2668  0.2008  0.2053
 2505TIP3    H129074   2.761   0.366   0.803  0.9344  0.2716  1.6778
 2505TIP3    H229075   2.791   0.218   0.810  0.5588  0.1296  0.4833
 2506TIP3   OH229076   4.773   3.391   8.286 -0.7305 -0.7392  0.1873
 2506TIP3    H129077   4.839   3.364   8.222 -0.0829 -0.3378  0.6715
 2506TIP3    H229078   4.725   3.310   8.306 -0.3696 -1.0440 -0.1468
 2507TIP3   OH229079   6.817   5.971   0.648 -0.0857 -0.9478  0.8778
 2507TIP3    H129080   6.803   5.937   0.560 -1.0860  0.6509  0.3794
 2507TIP3    H229081   6.758   5.920   0.704 -1.1638 -0.4466  0.2311
 2508TIP3   OH229082   5.648   4.252   8.058 -0.5451  0.0834 -0.4997
 2508TIP3    H129083   5.647   4.209   8.144  2.0492 -0.7414 -0.8029
 2508TIP3    H229084   5.591   4.199   8.003  0.4937 -1.4385 -0.1486
 2509TIP3   OH229085   3.490   1.950   6.823  0.4068 -0.2354  0.9378
 2509TIP3    H129086   3.567   1.967   6.876 -0.8511  1.1770  2.4050
 2509TIP3    H229087   3.473   1.856   6.835  2.6056 -0.9035 -0.5113
 2510TIP3   OH229088   5.764   3.231   0.397  0.2182  0.0993 -0.6509
 2510TIP3    H129089   5.836   3.175   0.429 -0.9054 -2.5948 -2.4356
 2510TIP3    H229090   5.782   3.241   0.304 -1.4034 -0.1906 -1.0203
 2511TIP3   OH229091   4.015   2.241   8.317  0.7254 -0.0632  0.4436
 2511TIP3    H129092   4.029   2.160   8.269 -1.7421  0.6529 -1.7314
 2511TIP3    H229093   3.965   2.215   8.394 -0.8127 -0.5922 -0.6756
 2512TIP3   OH229094   5.171   2.487   6.942 -0.4620  0.0901  0.3063
 2512TIP3    H129095   5.104   2.525   6.885 -1.3417 -0.1144  1.1841
 2512TIP3    H229096   5.165   2.393   6.926 -3.1045 -0.3852  3.1341
 2513TIP3   OH229097   6.042   2.327   8.001  0.2490 -0.4661 -0.0489
 2513TIP3    H129098   6.034   2.421   7.987  0.1073 -0.5323 -0.4417
 2513TIP3    H229099   6.024   2.289   7.915 -1.2149 -0.9178  0.4197
 2514TIP3   OH229100   4.491   3.437   2.222  0.1520 -0.6004 -0.0062
 2514TIP3    H129101   4.550   3.513   2.223 -2.5762  1.6757  0.6766
 2514TIP3    H229102   4.415   3.465   2.172 -1.7954 -2.1791  1.8573
 2515TIP3   OH229103   6.771   4.899   8.032  0.7241 -0.1843  0.4953
 2515TIP3    H129104   6.728   4.939   8.108  0.4767  0.4846  0.0079
 2515TIP3    H229105   6.802   4.814   8.064 -1.7857 -1.1233  0.6016
 2516TIP3   OH229106   5.839   4.789   7.243  0.0519 -0.1220 -0.2397
 2516TIP3    H129107   5.910   4.852   7.252 -0.7890  1.0548 -1.3958
 2516TIP3    H229108   5.819   4.790   7.149  0.1445 -2.2904 -0.3347
 2517TIP3   OH229109   4.515   4.989   1.324 -0.2576  0.2441 -0.3177
 2517TIP3    H129110   4.489   5.080   1.339 -0.2178  0.2516 -0.2957
 2517TIP3    H229111   4.606   4.985   1.353  0.0227  0.4163 -1.1357
 2518TIP3   OH229112   5.795   4.873   0.090  0.7599 -0.2637 -0.6248
 2518TIP3    H129113   5.814   4.898   0.180  3.0196 -1.2435 -0.7453
 2518TIP3    H229114   5.770   4.955   0.046 -0.0303  0.2758  0.7808
 2519TIP3   OH229115   0.139   2.106   8.161 -0.0370  0.5366 -0.4289
 2519TIP3    H129116   0.214   2.151   8.201  0.8446 -0.0037 -1.4126
 2519TIP3    H229117   0.073   2.103   8.231  1.4563 -0.4508  1.0397
 2520TIP3   OH229118   6.073   0.327   7.675  0.1790  0.0252 -0.0507
 2520TIP3    H129119   6.028   0.314   7.592  0.7914 -1.5542 -0.1709
 2520TIP3    H229120   6.095   0.420   7.676 -0.6142  0.2437 -1.2471
 2521TIP3   OH229121   0.354   3.769   7.551  0.3713  0.4331 -0.7124
 2521TIP3    H129122   0.317   3.857   7.544 -0.8222 -0.1503 -2.3608
 2521TIP3    H229123   0.413   3.762   7.476 -0.5125 -0.5830 -1.3372
 2522TIP3   OH229124   3.666   4.393   0.257 -0.2370 -0.4929  0.3097
 2522TIP3    H129125   3.758   4.393   0.283 -0.5269  0.0718  1.4073
 2522TIP3    H229126   3.618   4.376   0.338 -1.0661 -2.3911 -0.5034
 2523TIP3   OH229127   4.362   2.724   0.210 -0.4896  0.7033  0.2466
 2523TIP3    H129128   4.323   2.801   0.168 -3.5404 -1.0973 -0.5108
 2523TIP3    H229129   4.430   2.695   0.148 -0.7140  1.6225 -0.4486
 2524TIP3   OH229130   4.029   5.543   0.847  0.0883  0.5567  0.5278
 2524TIP3    H129131   3.944   5.540   0.892  0.0516 -2.0426  0.4143
 2524TIP3    H229132   4.009   5.583   0.762 -0.6840  1.4346  1.0904
 2525TIP3   OH229133   1.450   6.304   7.460 -0.6291 -0.2937 -0.1639
 2525TIP3    H129134   1.475   6.247   7.532 -0.1491  1.3827  1.0525
 2525TIP3    H229135   1.354   6.303   7.461 -0.6310 -1.1814 -0.2803
 2526TIP3   OH229136   5.003   1.803   2.329  0.7900 -0.3204 -0.2389
 2526TIP3    H129137   5.048   1.857   2.264 -0.3123 -0.1990 -0.9315
 2526TIP3    H229138   5.052   1.720   2.329  0.1603 -0.7491 -2.0876
 2527TIP3   OH229139   2.996   5.243   1.265 -0.4345  0.3384  0.5003
 2527TIP3    H129140   2.912   5.251   1.220 -0.3437  0.5002  0.3580
 2527TIP3    H229141   2.977   5.267   1.356 -0.6119  0.0384  0.5419
 2528TIP3   OH229142   2.384   5.478   0.459  0.1985 -0.3551 -0.1136
 2528TIP3    H129143   2.474   5.447   0.463  0.1891 -0.7788 -2.2105
 2528TIP3    H229144   2.385   5.547   0.393 -0.5904  1.3262  1.5456
 2529TIP3   OH229145   1.569   6.406   0.046 -0.0548  0.3214  0.0314
 2529TIP3    H129146   1.570   6.498   0.022  0.3312  0.6300  1.1549
 2529TIP3    H229147   1.513   6.402   0.123  0.0743 -0.3588  0.0978
 2530TIP3   OH229148   2.290   2.965   7.908  0.5436 -0.3401 -0.0473
 2530TIP3    H129149   2.342   3.044   7.924  0.4097 -0.4405  1.0043
 2530TIP3    H229150   2.204   2.997   7.881  0.2790 -0.0952  1.0486
 2531TIP3   OH229151   3.879   4.675   1.238 -0.1805 -0.0521  0.5721
 2531TIP3    H129152   3.938   4.640   1.171  0.6754  1.7698  0.2895
 2531TIP3    H229153   3.934   4.689   1.315 -0.9521 -1.2308  1.3667
 2532TIP3   OH229154   5.570   0.145   1.519  0.0699 -0.1837 -0.2241
 2532TIP3    H129155   5.548   0.133   1.427  0.5480  0.7615 -0.4683
 2532TIP3    H229156   5.596   0.058   1.549 -0.8880 -0.6667 -0.7559
 2533TIP3   OH229157   1.966   4.964   1.202 -0.0114 -0.2630 -0.0820
 2533TIP3    H129158   1.932   5.037   1.149  1.5601  1.0174  0.5919
 2533TIP3    H229159   1.888   4.914   1.226 -1.1607  1.2709 -0.4533
 2534TIP3   OH229160   0.600   0.459   8.069  0.2819  0.4698  0.3591
 2534TIP3    H129161   0.678   0.443   8.016 -0.5650  0.2335 -0.8544
 2534TIP3    H229162   0.631   0.516   8.140  1.6460 -0.0108  0.1853
 2535TIP3   OH229163   1.808   6.321   8.388  0.5419 -0.1578 -0.4770
 2535TIP3    H129164   1.874   6.353   8.449  1.1015 -0.3708 -0.9691
 2535TIP3    H229165   1.844   6.340   8.301 -0.0916 -0.1763 -0.7483
 2536TIP3   OH229166   5.800   1.328   0.740  0.5702 -0.0071 -0.0757
 2536TIP3    H129167   5.750   1.309   0.660  0.8909  0.9786 -0.5261
 2536TIP3    H229168   5.734   1.353   0.804  0.4589  1.4034 -0.7012
 2537TIP3   OH229169   4.665   4.353   7.986 -0.4605 -0.5621  0.3444
 2537TIP3    H129170   4.616   4.291   8.040 -1.6950 -0.1799 -0.2987
 2537TIP3    H229171   4.608   4.431   7.982 -0.0581 -0.3129 -0.8932
 2538TIP3   OH229172   5.405   4.706   0.527 -0.1570 -0.1821  0.2777
 2538TIP3    H129173   5.366   4.621   0.505  1.0500 -1.2530  1.9850
 2538TIP3    H229174   5.491   4.704   0.487 -0.9162  1.1937 -1.5096
 2539TIP3   OH229175   0.297   5.487   8.542  0.2066  0.3171  0.1995
 2539TIP3    H129176   0.286   5.408   8.594 -0.6439  0.3396  0.0651
 2539TIP3    H229177   0.375   5.471   8.490  1.8459  0.7870  2.3594
 2540TIP3   OH229178   4.154   3.465   7.336 -0.6057 -0.1267 -0.2246
 2540TIP3    H129179   4.185   3.476   7.247 -0.3385  0.3844 -0.0724
 2540TIP3    H229180   4.197   3.386   7.368  1.3172  1.0765  0.3051
 2541TIP3   OH229181   1.917   2.757   8.167 -0.4592  0.6288  0.0508
 2541TIP3    H129182   1.907   2.807   8.247  1.3759 -0.7102  1.1795
 2541TIP3    H229183   1.915   2.665   8.195  0.8784  0.1343 -1.3295
 2542TIP3   OH229184   5.328   2.999   1.624  0.1232 -0.6985 -0.2324
 2542TIP3    H129185   5.396   3.067   1.620 -0.4099 -0.0943  0.5415
 2542TIP3    H229186   5.330   2.970   1.715  0.8448 -2.2686 -0.7211
 2543TIP3   OH229187   3.760   4.560   1.497  0.8389 -0.1229  0.1378
 2543TIP3    H129188   3.850   4.542   1.472  0.9688 -1.6595  1.5143
 2543TIP3    H229189   3.731   4.628   1.437  3.0654  0.7706 -0.0172
 2544TIP3   OH229190   5.414   0.042   0.111  0.3655 -0.5637 -0.1510
 2544TIP3    H129191   5.361  -0.037   0.109  1.9157 -1.6469 -0.1207
 2544TIP3    H229192   5.503   0.011   0.130  1.2053  1.0546 -1.1814
 2545TIP3   OH229193   1.155   5.227   7.624 -0.8463 -0.4598  0.6786
 2545TIP3    H129194   1.111   5.177   7.556 -2.5236  0.1959  1.2215
 2545TIP3    H229195   1.106   5.206   7.704 -0.3934  0.5717  1.2444
 2546TIP3   OH229196   6.205   0.723   0.589  0.0041  1.0912 -0.2205
 2546TIP3    H129197   6.175   0.703   0.500 -0.2537 -1.5687  0.3961
 2546TIP3    H229198   6.137   0.687   0.646  3.3552 -4.0494  1.2080
 2547TIP3   OH229199   5.477   6.223   8.002  0.3359 -0.2276  0.0963
 2547TIP3    H129200   5.425   6.182   7.932  0.2833  0.2327 -0.1390
 2547TIP3    H229201   5.444   6.183   8.083 -1.7618  1.4040  0.1507
 2548TIP3   OH229202   2.425   0.701   8.613  0.4863  0.4568 -0.5974
 2548TIP3    H129203   2.442   0.755   8.690  0.9112  0.7866 -0.9207
 2548TIP3    H229204   2.503   0.646   8.604 -0.3438 -0.9301  0.3086
 2549TIP3   OH229205   4.570   3.523   0.676  0.1191  0.0639  0.1661
 2549TIP3    H129206   4.563   3.457   0.608  1.8974 -0.2183  0.2174
 2549TIP3    H229207   4.661   3.553   0.672  1.3264 -2.1298  4.3310
 2550TIP3   OH229208   6.394   4.091   8.297  0.2547  0.8124 -0.5654
 2550TIP3    H129209   6.463   4.085   8.362 -0.7104  1.3855  0.5607
 2550TIP3    H229210   6.394   4.183   8.270 -0.4798  0.9665 -0.0683
 2551TIP3   OH229211   1.560   4.964   0.727  0.2486 -0.7667  0.0867
 2551TIP3    H129212   1.651   4.951   0.754 -0.2425 -0.8853  1.8451
 2551TIP3    H229213   1.520   5.013   0.799 -0.9978 -0.3896 -0.8139
 2552TIP3   OH229214   6.529   4.184   0.634  0.1499 -0.6807  0.0425
 2552TIP3    H129215   6.597   4.206   0.570 -0.3927 -0.0962 -0.3471
 2552TIP3    H229216   6.506   4.093   0.616  0.2885 -0.6427 -0.3239
 2553TIP3   OH229217   1.813   0.605   7.480  0.0213 -0.4067 -0.5532
 2553TIP3    H129218   1.773   0.667   7.419  1.8455 -0.1494 -1.5475
 2553TIP3    H229219   1.863   0.546   7.424  1.3475 -0.4653  0.6593
 2554TIP3   OH229220   6.314   0.862   1.276 -0.1351  0.3492  0.9499
 2554TIP3    H129221   6.219   0.847   1.273  0.0156 -1.4715  3.0495
 2554TIP3    H229222   6.352   0.784   1.237  0.6125  2.7125 -3.7252
 2555TIP3   OH229223   2.985   3.123   0.837  0.1451 -0.0403  0.1475
 2555TIP3    H129224   2.929   3.134   0.914  0.1193  0.5603  0.0500
 2555TIP3    H229225   2.968   3.034   0.807  1.2028 -0.8051  1.6779
 2556TIP3   OH229226   6.869   3.246   1.485  0.0106  0.4363  0.1281
 2556TIP3    H129227   6.929   3.213   1.552 -0.7790 -0.0042  0.6338
 2556TIP3    H229228   6.792   3.188   1.490  0.1731 -0.0057 -1.5716
 2557TIP3   OH229229   2.454   4.880   0.312  0.3175  0.0426 -0.1965
 2557TIP3    H129230   2.401   4.941   0.362 -1.7443 -2.1126  0.4463
 2557TIP3    H229231   2.537   4.925   0.299 -0.7280  2.5248  1.0832
 2558TIP3   OH229232   2.519   4.915   8.125  0.0901  0.2174  0.1060
 2558TIP3    H129233   2.587   4.901   8.191  0.1961  1.1662  0.2154
 2558TIP3    H229234   2.449   4.855   8.150  1.7564 -2.5388 -1.3539
 2559TIP3   OH229235   5.022   4.242   0.515 -0.4483  0.2432 -0.1982
 2559TIP3    H129236   5.012   4.165   0.460 -0.6294  1.2481 -1.6352
 2559TIP3    H229237   4.935   4.256   0.553 -1.5069  1.8259 -2.8921
 2560TIP3   OH229238   1.006   6.879   8.078  0.0381 -0.3725 -0.6747
 2560TIP3    H129239   0.991   6.813   8.011  0.6960 -0.2823 -0.9086
 2560TIP3    H229240   1.097   6.905   8.067  0.7336 -1.6512  1.4043
 2561TIP3   OH229241   3.511   2.923   0.201 -0.7124  0.1130  0.4907
 2561TIP3    H129242   3.522   3.008   0.159 -1.9738  0.5300  0.9507
 2561TIP3    H229243   3.433   2.885   0.160 -0.0641 -0.9181  0.1595
 2562TIP3   OH229244   1.956   6.254   3.267  0.0220  0.4917  0.4947
 2562TIP3    H129245   1.935   6.174   3.314  0.0744  0.4623  0.4690
 2562TIP3    H229246   2.047   6.242   3.240 -0.4132 -0.0842 -0.7954
 2563TIP3   OH229247   2.293   6.513   1.136 -0.4656 -0.4880 -0.5416
 2563TIP3    H129248   2.265   6.587   1.082  1.4914  1.7987  1.3408
 2563TIP3    H229249   2.235   6.516   1.213  2.6707  2.4933  1.9982
 2564TIP3   OH229250   5.924   1.051   7.454  0.2038  0.4451  0.1941
 2564TIP3    H129251   5.906   1.135   7.495 -2.3285  0.5148 -0.8933
 2564TIP3    H229252   5.848   0.997   7.476  1.3287 -1.2590  0.0621
 2565TIP3   OH229253   0.208   0.028   8.649  0.8077 -0.1235 -0.4292
 2565TIP3    H129254   0.119   0.057   8.671  0.8415  0.2836 -0.8127
 2565TIP3    H229255   0.241  -0.012   8.729 -0.1426 -1.3254 -0.6073
 2566TIP3   OH229256   6.171   6.001   8.330 -0.3253  0.1306 -0.2913
 2566TIP3    H129257   6.166   6.031   8.421  1.2288  3.5385 -1.1558
 2566TIP3    H229258   6.086   5.960   8.313 -0.4936 -1.0483  2.7546
 2567TIP3   OH229259   4.386   2.810   1.670  0.2783 -0.0752  0.0371
 2567TIP3    H129260   4.398   2.847   1.582  0.4870  0.9794  0.4968
 2567TIP3    H229261   4.406   2.717   1.659 -0.9980 -0.2217 -1.3076
 2568TIP3   OH229262   2.644   1.641   2.572  0.4547 -0.0622 -0.0956
 2568TIP3    H129263   2.633   1.719   2.518 -1.0927 -0.7925 -0.8986
 2568TIP3    H229264   2.666   1.675   2.659  0.6513  1.2205 -0.6236
 2569TIP3   OH229265   1.244   0.268   7.497  0.2574 -0.1360 -0.2789
 2569TIP3    H129266   1.265   0.260   7.405  0.8214  0.6020 -0.2240
 2569TIP3    H229267   1.161   0.316   7.499 -0.5511 -1.4699 -0.4335
 2570TIP3   OH229268   0.627   5.901   1.742 -0.2704 -0.5755 -0.1041
 2570TIP3    H129269   0.542   5.858   1.750 -0.4672 -0.6402 -2.1687
 2570TIP3    H229270   0.655   5.884   1.652  0.7616  1.5431 -0.2503
 2571TIP3   OH229271   0.920   2.616   1.327 -0.1620  0.4015 -0.1004
 2571TIP3    H129272   0.901   2.528   1.359  1.4388  0.5351  1.3708
 2571TIP3    H229273   0.973   2.601   1.248  1.0942 -0.0204  0.7767
 2572TIP3   OH229274   6.337   1.571   1.618  0.0535  0.0321 -0.1429
 2572TIP3    H129275   6.405   1.509   1.643  0.2346  0.6115  0.8434
 2572TIP3    H229276   6.269   1.562   1.685 -0.9372 -0.6451 -1.1924
 2573TIP3   OH229277   6.198   2.442   1.423 -0.0898 -0.1348  0.6037
 2573TIP3    H129278   6.158   2.404   1.345 -0.8656  0.0294  0.9046
 2573TIP3    H229279   6.181   2.378   1.493  1.3502 -0.6876  0.4806
 2574TIP3   OH229280   2.474   3.484   1.619 -1.0441  0.1272 -0.1249
 2574TIP3    H129281   2.560   3.510   1.654 -1.1611 -1.2787  1.3337
 2574TIP3    H229282   2.494   3.445   1.534 -0.2467  0.0719  0.0752
 2575TIP3   OH229283   1.465   0.929   8.522  0.4200  0.0404  0.2539
 2575TIP3    H129284   1.378   0.928   8.484  0.3083 -3.8250  0.2522
 2575TIP3    H229285   1.523   0.953   8.448 -0.3064 -1.5940 -0.9010
 2576TIP3   OH229286   2.449   2.132   2.130 -0.0316  0.1856  0.0798
 2576TIP3    H129287   2.415   2.169   2.211 -0.9751  1.5089 -0.8601
 2576TIP3    H229288   2.484   2.208   2.082  1.1058 -0.6620 -0.4739
 2577TIP3   OH229289   3.300   4.121   2.039  0.0343 -0.1961  0.2329
 2577TIP3    H129290   3.317   4.036   2.080  1.2472  0.9153  2.1672
 2577TIP3    H229291   3.226   4.157   2.089  0.8542  0.7263  0.8257
 2578TIP3   OH229292   2.686   3.535   8.583  0.1386  0.2742  0.2675
 2578TIP3    H129293   2.658   3.625   8.569 -2.3790  0.1261  3.2583
 2578TIP3    H229294   2.768   3.543   8.632  0.0585  0.9434  0.2991
 2579TIP3   OH229295   4.538   4.253   8.199 -0.4075 -0.2312  0.0270
 2579TIP3    H129296   4.551   4.165   8.234 -2.4009 -0.8187 -0.5518
 2579TIP3    H229297   4.460   4.286   8.245 -1.0696  0.2866 -1.4023
 2580TIP3   OH229298   5.325   4.253   8.133 -0.3497  0.3400  0.6332
 2580TIP3    H129299   5.365   4.252   8.046 -0.6597 -1.3825  0.4612
 2580TIP3    H229300   5.273   4.333   8.135  1.3561  1.5181  0.0577
 2581TIP3   OH229301   2.295   6.383   8.172 -0.2838 -0.6224  0.0936
 2581TIP3    H129302   2.265   6.375   8.082 -2.5970  1.9295  0.5254
 2581TIP3    H229303   2.238   6.448   8.211  1.2617 -0.9328  3.1764
 2582TIP3   OH229304   2.118   2.306   0.506 -0.3536  0.1012 -0.6240
 2582TIP3    H129305   2.117   2.326   0.599  1.4166 -2.3712  0.0518
 2582TIP3    H229306   2.166   2.378   0.466 -0.1541  0.6467  0.5717
 2583TIP3   OH229307   3.211   4.362   1.736 -0.1899  0.0235  0.1287
 2583TIP3    H129308   3.248   4.289   1.686  0.1277  0.7473 -0.7272
 2583TIP3    H229309   3.202   4.433   1.672 -0.7039  0.6651  0.8904
 2584TIP3   OH229310   4.241   6.608   0.836 -0.1089 -0.3656 -0.0223
 2584TIP3    H129311   4.284   6.542   0.781 -0.3690 -1.3069  0.8739
 2584TIP3    H229312   4.151   6.577   0.843  0.1242 -0.7808  1.6704
 2585TIP3   OH229313   6.767   3.291   0.602  0.3336 -0.2311 -0.3876
 2585TIP3    H129314   6.747   3.384   0.600  1.1159 -0.0370  0.1858
 2585TIP3    H229315   6.769   3.265   0.510 -3.5978 -0.5563 -0.5460
 2586TIP3   OH229316   6.469   3.702   8.349 -0.0155 -0.2736 -0.6717
 2586TIP3    H129317   6.445   3.768   8.284  0.0865 -0.6176 -1.0574
 2586TIP3    H229318   6.401   3.709   8.416  2.1340  3.1593  1.4894
 2587TIP3   OH229319   4.172   5.006   1.701  0.4001  0.2480 -0.7538
 2587TIP3    H129320   4.134   4.995   1.614  0.1357  0.3916 -0.6571
 2587TIP3    H229321   4.255   5.052   1.686  0.4846  0.0287 -0.9553
 2588TIP3   OH229322   2.916   4.168   7.458  0.1412  0.1291 -0.1027
 2588TIP3    H129323   2.857   4.116   7.404  1.8986 -2.1828  0.0335
 2588TIP3    H229324   2.994   4.181   7.404  1.4745 -1.2461  1.3756
 2589TIP3   OH229325   5.081   3.653   1.430  0.3890  0.3734 -0.1017
 2589TIP3    H129326   5.128   3.656   1.347  0.3683 -0.7623 -0.1656
 2589TIP3    H229327   4.996   3.693   1.411 -0.0322 -0.8688 -0.9230
 2590TIP3   OH229328   0.644   2.339   7.339 -0.1797  0.2149 -0.2733
 2590TIP3    H129329   0.688   2.403   7.395 -0.6039  0.1634  0.1212
 2590TIP3    H229330   0.584   2.293   7.397  1.9029 -2.3010  0.0696
 2591TIP3   OH229331   3.696   5.039   1.540  0.5626 -0.2244  0.0215
 2591TIP3    H129332   3.748   4.959   1.538 -0.7818 -1.1519  0.1868
 2591TIP3    H229333   3.617   5.014   1.589  0.6109  1.5238  1.0942
 2592TIP3   OH229334   3.509   4.203   1.399  0.1789 -0.0049 -0.0398
 2592TIP3    H129335   3.532   4.229   1.488  0.8615 -2.7186  0.6752
 2592TIP3    H229336   3.589   4.219   1.349  0.6558 -0.8255  0.4297
 2593TIP3   OH229337   3.848   2.935   7.574 -0.0366  0.1051 -0.1394
 2593TIP3    H129338   3.794   2.950   7.497 -1.5411 -0.9343  0.6611
 2593TIP3    H229339   3.875   2.843   7.567 -1.8266 -0.6129  1.4933
 2594TIP3   OH229340   1.613   5.535   0.770 -0.1300  0.0397  0.0468
 2594TIP3    H129341   1.670   5.557   0.695  0.0752  0.5993  0.3651
 2594TIP3    H229342   1.574   5.618   0.796 -1.0445 -0.3271 -0.1084
 2595TIP3   OH229343   3.153   1.448   8.319  0.2380  0.3211  0.2074
 2595TIP3    H129344   3.202   1.528   8.297  1.7713 -1.0424 -1.6548
 2595TIP3    H229345   3.062   1.476   8.322  0.7422  2.1506 -0.3678
 2596TIP3   OH229346   1.510   5.751   0.399 -0.6158  0.0935 -0.1138
 2596TIP3    H129347   1.513   5.660   0.369 -2.1743  0.1988 -0.7090
 2596TIP3    H229348   1.445   5.793   0.342  0.0714  1.5842  0.1479
 2597TIP3   OH229349   5.395   5.636   7.789 -0.3215 -0.2219  0.0774
 2597TIP3    H129350   5.380   5.595   7.874 -1.4736 -1.0056 -0.4701
 2597TIP3    H229351   5.437   5.568   7.737  0.7410  0.3847  0.1268
 2598TIP3   OH229352   0.564   6.047   1.963  0.2039 -0.5636  0.3725
 2598TIP3    H129353   0.560   6.015   1.873 -1.7012  0.7703 -0.0763
 2598TIP3    H229354   0.649   6.088   1.970 -0.3669  1.0707 -1.4996
 2599TIP3   OH229355   6.220   5.635   0.323  0.3458  0.4981 -0.0516
 2599TIP3    H129356   6.155   5.588   0.375  1.2020  0.0934  0.6786
 2599TIP3    H229357   6.171   5.667   0.247 -0.7691  0.4869  0.6371
 2600TIP3   OH229358   1.140   6.743   6.503 -0.1774  0.2877  0.0745
 2600TIP3    H129359   1.047   6.750   6.480  0.1454 -0.4615 -1.5858
 2600TIP3    H229360   1.157   6.649   6.507 -0.0780  0.3582  3.0867
 2601TIP3   OH229361   4.025   4.961   0.464  0.3460  0.1867  0.3179
 2601TIP3    H129362   4.092   4.917   0.515 -0.7078  0.0235  1.6061
 2601TIP3    H229363   3.969   4.891   0.431  1.4577  0.2182 -1.7901
 2602TIP3   OH229364   4.720   5.957   2.247  0.0159  0.7597 -0.3310
 2602TIP3    H129365   4.815   5.959   2.232 -0.0523 -0.6245 -1.1775
 2602TIP3    H229366   4.705   5.872   2.289 -0.9182  0.7169 -0.7466
 2603TIP3   OH229367   2.170   4.734   0.583 -0.2811 -0.5610  0.1455
 2603TIP3    H129368   2.252   4.725   0.534 -0.0231  0.9341  0.2458
 2603TIP3    H229369   2.164   4.828   0.602 -0.3520 -1.0613  3.0180
 2604TIP3   OH229370   4.376   5.303   1.189 -0.7112  0.0601 -0.4904
 2604TIP3    H129371   4.390   5.376   1.127  0.0967 -0.9098 -1.4871
 2604TIP3    H229372   4.435   5.234   1.159 -1.8982 -1.2436  0.0635
 2605TIP3   OH229373   3.552   0.550   0.949  0.2095 -0.4752 -0.0046
 2605TIP3    H129374   3.529   0.624   1.006  1.8435  1.6349 -1.8832
 2605TIP3    H229375   3.474   0.495   0.949 -1.0252  1.1351  1.6493
 2606TIP3   OH229376   0.995   3.914   7.625 -0.2157 -0.2383  0.1517
 2606TIP3    H129377   1.001   3.999   7.582  2.6744  1.1468  2.8919
 2606TIP3    H229378   0.916   3.920   7.679 -0.3054  0.5259 -0.0498
 2607TIP3   OH229379   2.037   3.925   1.446 -0.4347  0.2538 -0.1142
 2607TIP3    H129380   1.957   3.977   1.447 -0.1527  0.8169 -2.1798
 2607TIP3    H229381   2.087   3.960   1.372  1.4257 -0.5277  0.7163
 2608TIP3   OH229382   0.142   3.360   0.403 -0.2204  0.5101 -0.1959
 2608TIP3    H129383   0.220   3.319   0.440 -1.6489  0.4766  3.1276
 2608TIP3    H229384   0.083   3.287   0.384 -1.3374  0.6797  2.2317
 2609TIP3   OH229385   2.490   6.083   1.006 -0.2507 -0.7453  0.0928
 2609TIP3    H129386   2.489   6.066   1.100 -0.7499 -1.6434 -0.0680
 2609TIP3    H229387   2.560   6.026   0.973  0.9074  0.6106  0.0892
 2610TIP3   OH229388   5.175   2.644   7.928  0.6437  0.1992 -0.2728
 2610TIP3    H129389   5.103   2.617   7.871  0.1077  1.7034 -0.3495
 2610TIP3    H229390   5.154   2.734   7.953 -0.1201 -0.8790  3.8021
 2611TIP3   OH229391   3.823   4.405   7.839  0.0805  0.0484 -0.4542
 2611TIP3    H129392   3.772   4.477   7.804  1.3298  1.0099 -0.3733
 2611TIP3    H229393   3.758   4.344   7.874 -1.0960  0.1354 -2.3465
 2612TIP3   OH229394   5.292   2.330   0.941  0.0221  0.1057  0.2526
 2612TIP3    H129395   5.208   2.287   0.926 -0.7229  1.3337  0.7155
 2612TIP3    H229396   5.357   2.260   0.939 -1.0817 -0.9409  0.4805
 2613TIP3   OH229397   4.599   3.955   7.527  0.0461 -0.2705 -0.1817
 2613TIP3    H129398   4.529   3.985   7.584  1.7068 -1.4586  2.6863
 2613TIP3    H229399   4.679   3.990   7.567  1.2361  0.4251 -2.9052
 2614TIP3   OH229400   2.492   1.175   1.234 -0.0329 -0.0291 -0.2999
 2614TIP3    H129401   2.486   1.199   1.327 -1.2871  0.7746 -0.5620
 2614TIP3    H229402   2.418   1.117   1.219 -1.9623  2.5224 -1.5105
 2615TIP3   OH229403   1.317   5.715   7.231  0.8025 -0.0520 -0.0850
 2615TIP3    H129404   1.325   5.664   7.151 -0.7723 -1.1374  0.4120
 2615TIP3    H229405   1.407   5.723   7.264  1.5026  0.5546 -1.9939
 2616TIP3   OH229406   3.649   0.123   7.580 -0.2313 -0.3711 -0.0060
 2616TIP3    H129407   3.646   0.069   7.659  0.9919 -0.4535  0.0093
 2616TIP3    H229408   3.740   0.150   7.574 -0.7949  1.6428 -0.0597
 2617TIP3   OH229409   4.256   2.172   1.869 -0.5171 -0.1810 -0.1776
 2617TIP3    H129410   4.192   2.228   1.826 -0.4745  0.8972  1.1296
 2617TIP3    H229411   4.312   2.231   1.919  0.4584 -1.2553  0.0652
 2618TIP3   OH229412   3.031   6.047   8.450  0.1333 -0.0176 -0.3070
 2618TIP3    H129413   3.121   6.042   8.481  0.0832 -0.9116 -0.2755
 2618TIP3    H229414   3.009   5.957   8.425 -0.4899  0.3240 -1.0490
 2619TIP3   OH229415   5.703   0.590   1.840 -0.0326  0.0310  0.5379
 2619TIP3    H129416   5.789   0.563   1.872  0.5308  0.1021 -0.8464
 2619TIP3    H229417   5.649   0.511   1.847  0.4603 -0.3295  0.3850
 2620TIP3   OH229418   6.424   3.307   0.549  0.3945 -0.4402 -0.3742
 2620TIP3    H129419   6.456   3.382   0.600 -0.7148 -1.2915  1.7034
 2620TIP3    H229420   6.329   3.313   0.556  0.2844 -1.6561 -0.7699
 2621TIP3   OH229421   1.364   5.045   0.482 -0.1062 -0.5373  0.0684
 2621TIP3    H129422   1.401   4.998   0.557 -0.3332 -2.3065 -0.8659
 2621TIP3    H229423   1.395   5.135   0.491  0.7101 -0.9542  1.7121
 2622TIP3   OH229424   0.640   3.944   0.033  0.3031 -0.1628 -0.4724
 2622TIP3    H129425   0.636   3.985   0.120 -0.1050 -1.6730  0.2602
 2622TIP3    H229426   0.704   3.996  -0.015  2.1041 -0.4836  1.4240
 2623TIP3   OH229427   0.762   6.850   6.969  0.4927  0.5593  0.1707
 2623TIP3    H129428   0.815   6.901   7.031 -1.0548  1.3546  0.9127
 2623TIP3    H229429   0.768   6.899   6.887  1.7498  0.0480 -0.0616
 2624TIP3   OH229430   0.373   6.124   2.732 -0.5805  0.4365  0.1113
 2624TIP3    H129431   0.317   6.177   2.788  1.0524  0.4506  1.8490
 2624TIP3    H229432   0.314   6.062   2.689 -1.7264 -1.3800  3.8687
 2625TIP3   OH229433   0.475   0.567   1.388  0.0537 -0.3076  0.1769
 2625TIP3    H129434   0.420   0.499   1.428  1.2907 -0.3314  1.9292
 2625TIP3    H229435   0.511   0.525   1.310  0.0323 -1.3521  0.7011
 2626TIP3   OH229436   3.158   0.559   1.251  0.3290  0.2907 -0.0894
 2626TIP3    H129437   3.181   0.619   1.179 -1.3345  2.5741  1.1390
 2626TIP3    H229438   3.227   0.572   1.316  0.0375  0.8141  0.1220
 2627TIP3   OH229439   3.645   0.547   0.200  0.2817 -0.6536 -0.3526
 2627TIP3    H129440   3.602   0.490   0.136 -1.3827  0.1659 -0.0010
 2627TIP3    H229441   3.636   0.501   0.283  1.6177 -1.2700 -0.5173
 2628TIP3   OH229442   1.500   3.040   7.178 -0.2600  0.0299 -0.0471
 2628TIP3    H129443   1.538   3.128   7.178  0.4648 -0.2141  2.2779
 2628TIP3    H229444   1.416   3.050   7.133  0.3605  1.6161 -0.9399
 2629TIP3   OH229445   1.784   5.180   7.633  0.3288  0.4319  0.2880
 2629TIP3    H129446   1.830   5.101   7.661  0.4613  0.7939  1.1060
 2629TIP3    H229447   1.702   5.147   7.595  0.6740 -0.1330  0.0116
 2630TIP3   OH229448   2.576   2.090   1.434 -0.4757 -0.1734  0.0714
 2630TIP3    H129449   2.501   2.104   1.492 -0.4493 -1.1834  0.3699
 2630TIP3    H229450   2.537   2.082   1.346 -0.4023  2.8133 -0.3469
 2631TIP3   OH229451   6.502   4.657   8.017  0.5528 -0.0385 -0.5006
 2631TIP3    H129452   6.418   4.623   7.988 -0.3289  1.5020  0.1380
 2631TIP3    H229453   6.524   4.603   8.093  0.1409 -0.4413 -0.6600
 2632TIP3   OH229454   6.245   3.238   1.555 -0.0978  0.3123 -0.1625
 2632TIP3    H129455   6.212   3.149   1.573  0.9408  0.2933  1.9907
 2632TIP3    H229456   6.167   3.287   1.529 -0.7069 -1.1878 -1.3518
 2633TIP3   OH229457   0.691   1.361   7.642 -0.1309 -0.2470 -0.1548
 2633TIP3    H129458   0.633   1.342   7.568  0.7223  0.4742 -1.0460
 2633TIP3    H229459   0.669   1.295   7.707 -1.6161 -0.2804 -0.6434
 2634TIP3   OH229460   5.478   4.044   7.650  0.4691 -0.1853  0.8922
 2634TIP3    H129461   5.520   4.128   7.637  1.7789 -0.5474  2.4130
 2634TIP3    H229462   5.535   3.981   7.606  0.2403 -0.4303  0.9405
 2635TIP3   OH229463   3.671   6.569   7.205 -0.4014 -0.3362  0.5775
 2635TIP3    H129464   3.670   6.616   7.122  1.1618 -1.9908 -0.4626
 2635TIP3    H229465   3.616   6.492   7.190 -0.1131 -0.6495  1.0603
 2636TIP3   OH229466   4.741   1.135   2.136 -0.0253  0.7144  0.0961
 2636TIP3    H129467   4.725   1.229   2.130 -0.3503  0.5986 -0.9459
 2636TIP3    H229468   4.712   1.111   2.225 -1.7034  1.2689 -0.2607
 2637TIP3   OH229469   1.624   3.649   7.940  0.4423 -0.1252  0.1711
 2637TIP3    H129470   1.654   3.585   7.876  0.3118  1.4128 -1.4943
 2637TIP3    H229471   1.533   3.625   7.957  0.2371 -0.0630 -0.8316
 2638TIP3   OH229472   2.005   6.445   2.675 -0.0697  0.2931  0.4512
 2638TIP3    H129473   2.091   6.454   2.716  0.5025 -0.9203 -0.4020
 2638TIP3    H229474   1.974   6.359   2.705 -0.8055  0.5494  0.4339
 2639TIP3   OH229475   6.158   0.210   7.081  0.0490 -0.0562 -0.2446
 2639TIP3    H129476   6.109   0.264   7.019 -1.6580 -1.8431 -0.5166
 2639TIP3    H229477   6.176   0.129   7.034 -0.2436 -0.9843  1.1814
 2640TIP3   OH229478   1.229   4.379   1.066 -0.2039  0.7181  0.3047
 2640TIP3    H129479   1.257   4.381   1.157  0.1772  2.7357  0.1893
 2640TIP3    H229480   1.284   4.312   1.025  0.3119  0.4938  1.3393
 2641TIP3   OH229481   5.198   1.475   1.314 -0.4682  0.4922 -0.1630
 2641TIP3    H129482   5.246   1.484   1.396  1.1570 -0.5618 -0.9611
 2641TIP3    H229483   5.147   1.556   1.308  0.4045  1.1932  1.2244
 2642TIP3   OH229484   2.928   2.016   0.615  0.1171  0.7559  0.4141
 2642TIP3    H129485   2.852   2.071   0.631  0.0060  0.6574  0.2397
 2642TIP3    H229486   2.931   1.957   0.690 -0.7993 -0.1516 -0.2284
 2643TIP3   OH229487   5.884   5.035   1.462 -0.1289  0.4448  0.0355
 2643TIP3    H129488   5.964   5.012   1.509 -0.7256 -1.4256  0.2305
 2643TIP3    H229489   5.818   5.047   1.530 -0.2112  1.2356 -0.1673
 2644TIP3   OH229490   0.773   3.361   1.937 -0.2696  0.3727 -1.0423
 2644TIP3    H129491   0.759   3.310   2.017 -0.7672  1.7458 -0.2319
 2644TIP3    H229492   0.685   3.386   1.909 -0.2372 -1.2416 -2.8473
 2645TIP3   OH229493   5.852   0.353   0.885  0.7640 -0.0773  0.5934
 2645TIP3    H129494   5.793   0.423   0.858 -0.7528 -2.1660 -1.9773
 2645TIP3    H229495   5.831   0.338   0.977 -1.2040  0.6846  0.3135
 2646TIP3   OH229496   3.947   4.713   7.737  0.7989 -0.7494 -0.5203
 2646TIP3    H129497   3.855   4.741   7.734  1.0791  0.2392 -0.2223
 2646TIP3    H229498   3.969   4.694   7.645  0.5961  0.0064 -0.7299
 2647TIP3   OH229499   0.084   1.853   7.434 -0.4189  0.6325 -0.1795
 2647TIP3    H129500   0.015   1.808   7.386  0.7812 -0.6531 -0.7756
 2647TIP3    H229501   0.147   1.879   7.366  1.2719 -1.1293  0.6022
 2648TIP3   OH229502   2.277   3.722   8.521 -0.0413 -0.1489 -0.1105
 2648TIP3    H129503   2.280   3.639   8.474  1.9652 -1.2023  1.7074
 2648TIP3    H229504   2.315   3.785   8.460 -0.0302 -0.9043 -0.8998
 2649TIP3   OH229505   5.164   4.457   0.569  0.3804  0.1126  0.2824
 2649TIP3    H129506   5.118   4.374   0.552  0.2579  0.5101 -1.4265
 2649TIP3    H229507   5.245   4.431   0.613  0.7658 -1.0046 -1.0360
 2650TIP3   OH229508   6.680   3.098   2.118  0.0374  0.7274  0.4335
 2650TIP3    H129509   6.599   3.132   2.155 -0.6433  0.5818 -0.8404
 2650TIP3    H229510   6.702   3.160   2.048  1.2239  0.9574  0.9921
 2651TIP3   OH229511   6.513   6.790   7.793 -0.7617 -0.2395 -0.5713
 2651TIP3    H129512   6.579   6.727   7.820 -1.3178 -1.5247 -2.0438
 2651TIP3    H229513   6.480   6.828   7.875 -0.2888 -1.7434  0.3453
 2652TIP3   OH229514   5.362   2.761   1.445  0.0231  0.0128  0.1737
 2652TIP3    H129515   5.422   2.799   1.381 -0.8692 -0.6203 -1.0754
 2652TIP3    H229516   5.365   2.820   1.520  2.2514 -0.0411  0.1790
 2653TIP3   OH229517   1.699   0.845   6.840 -0.1078 -0.1410 -0.3825
 2653TIP3    H129518   1.696   0.765   6.894 -0.2486 -1.6451 -2.5132
 2653TIP3    H229519   1.609   0.877   6.840 -0.3953 -0.9313 -0.8609
 2654TIP3   OH229520   1.795   2.082   8.313  0.0207 -0.4692  0.2565
 2654TIP3    H129521   1.859   2.146   8.342 -0.3286 -0.6361  1.4519
 2654TIP3    H229522   1.714   2.132   8.301 -0.5612 -0.8039  2.3011
 2655TIP3   OH229523   6.560   4.922   7.041  0.1336  0.3273 -0.0922
 2655TIP3    H129524   6.576   4.950   6.951 -1.4087 -3.0796 -1.6068
 2655TIP3    H229525   6.597   4.833   7.046 -1.0666 -0.1179  2.1783
 2656TIP3   OH229526   1.603   2.887   7.897  0.4469  0.4385  0.4066
 2656TIP3    H129527   1.577   2.832   7.822  0.9219 -0.8716  1.1613
 2656TIP3    H229528   1.699   2.884   7.896  0.4542  0.1670  1.2307
 2657TIP3   OH229529   3.181   2.449   8.573 -0.3698 -0.5686  0.7854
 2657TIP3    H129530   3.130   2.527   8.549  0.1636  0.2783  2.2932
 2657TIP3    H229531   3.123   2.399   8.630  0.2912  0.1787  2.1485
 2658TIP3   OH229532   2.433   1.531   7.627  0.6696 -0.4024 -0.1635
 2658TIP3    H129533   2.519   1.497   7.604  0.5641  0.9539 -2.9420
 2658TIP3    H229534   2.379   1.515   7.550 -0.7268  1.4332  0.3647
 2659TIP3   OH229535   3.850   0.565   8.045  0.0966  0.4659  0.0370
 2659TIP3    H129536   3.867   0.479   8.009 -2.0528  0.0458 -0.1255
 2659TIP3    H229537   3.905   0.570   8.123  0.1240 -1.1309  0.1541
 2660TIP3   OH229538   5.152   6.659   0.509  0.2205 -0.4653 -0.5896
 2660TIP3    H129539   5.166   6.667   0.603  1.1899 -1.4175 -0.6280
 2660TIP3    H229540   5.220   6.715   0.470 -0.0244 -0.2621 -0.7235
 2661TIP3   OH229541   4.722   5.864   2.539 -0.0067 -0.3250  0.2163
 2661TIP3    H129542   4.757   5.953   2.533 -0.4019 -0.1807  0.0130
 2661TIP3    H229543   4.728   5.843   2.632 -0.3207  0.0854  0.3355
 2662TIP3   OH229544   5.832   6.598   1.145  0.1696  0.3065  0.6830
 2662TIP3    H129545   5.831   6.504   1.125  1.7880  0.7374 -1.8459
 2662TIP3    H229546   5.740   6.621   1.156 -0.7826 -0.8042 -3.2300
 2663TIP3   OH229547   0.347   1.534   6.881 -0.6705 -0.5084  0.2178
 2663TIP3    H129548   0.263   1.581   6.882 -1.3944 -1.5993 -2.2244
 2663TIP3    H229549   0.408   1.595   6.840 -0.4924 -0.1096  1.0462
 2664TIP3   OH229550   4.572   6.160   2.647  0.2751 -0.3207  0.0320
 2664TIP3    H129551   4.656   6.122   2.619 -0.2436 -1.2776 -0.2479
 2664TIP3    H229552   4.586   6.254   2.639  0.4904 -0.4972 -2.5984
 2665TIP3   OH229553   6.108   4.154   8.444 -0.1157 -0.4305  0.4154
 2665TIP3    H129554   6.046   4.167   8.371  0.4147 -0.3123 -0.0233
 2665TIP3    H229555   6.178   4.100   8.406 -0.2793 -1.1290  1.0962
 2666TIP3   OH229556   0.634   6.115   7.992  0.1535  0.8343  0.0500
 2666TIP3    H129557   0.646   6.079   8.080 -1.2118 -1.5092 -0.6254
 2666TIP3    H229558   0.552   6.164   7.998  0.1019  0.7430  0.0907
 2667TIP3   OH229559   4.087   2.895   7.325 -0.4181 -0.0601 -1.1316
 2667TIP3    H129560   4.174   2.857   7.311  0.8920  1.1934  2.4313
 2667TIP3    H229561   4.037   2.824   7.366  0.9439  0.7348  2.2876
 2668TIP3   OH229562   3.916   0.661   7.137  0.7118 -0.3621 -0.0129
 2668TIP3    H129563   3.847   0.656   7.203  1.7469 -1.7911  1.0203
 2668TIP3    H229564   3.893   0.592   7.074  0.6209 -0.1235 -0.2398
 2669TIP3   OH229565   1.186   4.374   1.909 -0.0148  0.0442 -0.1539
 2669TIP3    H129566   1.247   4.350   1.840  1.0044  1.0958  0.3483
 2669TIP3    H229567   1.131   4.296   1.921  0.9625 -0.7799 -0.8741
 2670TIP3   OH229568   3.891   3.373   8.410  0.4049 -0.4146  0.3619
 2670TIP3    H129569   3.868   3.464   8.393 -0.1654 -0.2717  1.7518
 2670TIP3    H229570   3.983   3.366   8.384  0.2826  0.3872 -0.3243
 2671TIP3   OH229571   6.520   1.743   7.116  0.5169  0.9155  0.0044
 2671TIP3    H129572   6.551   1.766   7.204 -0.8029 -1.4693  1.1862
 2671TIP3    H229573   6.596   1.701   7.075  0.5425  0.1316  0.8127
 2672TIP3   OH229574   3.887   3.339   2.750  0.0316  0.5205 -0.2175
 2672TIP3    H129575   3.856   3.414   2.699 -0.0848  0.1968 -0.6275
 2672TIP3    H229576   3.812   3.280   2.755  0.5986 -0.3338 -1.3390
 2673TIP3   OH229577   1.774   6.642   8.334 -0.1907 -0.5976  0.3632
 2673TIP3    H129578   1.683   6.661   8.354  0.1025  2.3374 -0.5770
 2673TIP3    H229579   1.824   6.705   8.386  1.2507 -1.4091  0.0207
 2674TIP3   OH229580   1.713   6.392   2.042  0.2007  0.3966 -0.2288
 2674TIP3    H129581   1.692   6.480   2.012 -0.9490  0.2156  0.0079
 2674TIP3    H229582   1.632   6.360   2.083  1.3437  0.1937  2.0235
 2675TIP3   OH229583   2.575   3.350   1.869 -0.5488  0.0728 -0.2337
 2675TIP3    H129584   2.610   3.371   1.955 -0.2899 -0.4490 -0.2093
 2675TIP3    H229585   2.652   3.338   1.814 -0.6989 -0.2731 -0.3730
 2676TIP3   OH229586   2.237   4.402   1.163  0.2457 -0.1138  0.3830
 2676TIP3    H129587   2.169   4.467   1.182 -2.1101 -2.6572  1.1544
 2676TIP3    H229588   2.212   4.364   1.079  0.4637 -1.3841  0.8710
 2677TIP3   OH229589   3.682   3.231   0.709 -0.3541  0.1669 -0.1439
 2677TIP3    H129590   3.762   3.283   0.700  0.0444 -0.3879  0.1945
 2677TIP3    H229591   3.710   3.151   0.752 -1.2920  0.4679  1.0843
 2678TIP3   OH229592   2.887   3.803   0.114  0.2035 -0.0767  0.2263
 2678TIP3    H129593   2.817   3.840   0.060  0.5716  0.9920  0.4471
 2678TIP3    H229594   2.960   3.864   0.102  1.3573 -1.5368 -0.5616
 2679TIP3   OH229595   3.047   6.268   7.498  0.2784 -0.0432 -0.3405
 2679TIP3    H129596   3.106   6.323   7.549 -0.7783  0.7827  0.0203
 2679TIP3    H229597   2.979   6.328   7.467 -0.6333 -1.0576 -0.3464
 2680TIP3   OH229598   2.943   5.555   0.917  0.8060 -0.1900  0.0142
 2680TIP3    H129599   2.874   5.504   0.874 -0.8534  0.7130  1.4691
 2680TIP3    H229600   2.996   5.588   0.845 -1.6432  0.9518 -1.4184
 2681TIP3   OH229601   1.158   6.475   7.867  0.7648 -0.0208 -0.6167
 2681TIP3    H129602   1.205   6.530   7.930  0.1346 -1.4329  1.1553
 2681TIP3    H229603   1.221   6.405   7.846  0.0294 -1.1143  0.6612
 2682TIP3   OH229604   5.139   1.447   1.015 -0.7764  0.0673  0.1219
 2682TIP3    H129605   5.186   1.454   1.098  1.1045 -0.0751 -0.8681
 2682TIP3    H229606   5.061   1.501   1.027 -0.9096 -0.4891  2.1860
 2683TIP3   OH229607   3.396   3.724   0.997 -0.1300  0.0527  0.2594
 2683TIP3    H129608   3.480   3.686   0.973 -0.1541 -0.2805  0.6761
 2683TIP3    H229609   3.360   3.662   1.061 -0.0275  0.9273  1.1930
 2684TIP3   OH229610   0.136   5.039   0.043  0.0860 -0.9710  0.0897
 2684TIP3    H129611   0.165   4.986   0.116  0.3638  0.9417  1.4400
 2684TIP3    H229612   0.192   5.012  -0.030  1.3625 -1.3451  1.1670
 2685TIP3   OH229613   5.527   5.798   6.528  0.2770 -0.6308  0.2312
 2685TIP3    H129614   5.589   5.850   6.476  0.4856 -1.4301 -0.3451
 2685TIP3    H229615   5.445   5.847   6.525  0.2169 -0.7744 -1.0838
 2686TIP3   OH229616   5.920   3.474   6.821  0.0959  0.1166  0.0395
 2686TIP3    H129617   5.832   3.468   6.858  0.7129 -1.6994  1.3726
 2686TIP3    H229618   5.923   3.406   6.754  0.6306 -0.2142  0.3849
 2687TIP3   OH229619   4.015   3.881   7.981 -0.3797  0.2155 -0.6897
 2687TIP3    H129620   4.058   3.965   7.995 -0.9943  0.2680  1.1040
 2687TIP3    H229621   3.936   3.903   7.930  0.5586  0.3907 -2.1372
 2688TIP3   OH229622   5.856   4.124   0.908 -0.1778 -0.1584 -0.3686
 2688TIP3    H129623   5.802   4.092   0.835 -0.3503 -1.1371  0.1675
 2688TIP3    H229624   5.918   4.184   0.867 -0.8893  0.0549 -1.1792
 2689TIP3   OH229625   1.125   6.678   0.258  0.2910 -0.2658  0.3953
 2689TIP3    H129626   1.093   6.654   0.345 -0.6689 -0.6902 -0.0671
 2689TIP3    H229627   1.113   6.600   0.205 -0.8567  0.5348 -0.5780
 2690TIP3   OH229628   0.612   0.891   8.228  0.1491 -0.5112 -0.2604
 2690TIP3    H129629   0.644   0.861   8.313  0.9204 -0.2336 -0.4514
 2690TIP3    H229630   0.532   0.940   8.249  0.7004  0.1257  0.3697
 2691TIP3   OH229631   1.870   0.148   8.092  0.3773  0.3024  0.3008
 2691TIP3    H129632   1.965   0.157   8.082  0.1918  1.2413 -0.7732
 2691TIP3    H229633   1.849   0.067   8.046  0.3665  1.3548 -1.6504
 2692TIP3   OH229634   6.715   3.950   2.154  0.0109 -0.2131 -0.9123
 2692TIP3    H129635   6.773   3.875   2.164  0.4596  0.1509 -0.7625
 2692TIP3    H229636   6.666   3.953   2.237  1.4035  0.8352 -0.0848
 2693TIP3   OH229637   5.528   3.014   7.394  0.2364 -0.3540  0.4318
 2693TIP3    H129638   5.463   2.972   7.337  1.1902 -0.7578 -0.3778
 2693TIP3    H229639   5.610   2.970   7.374  0.6235 -0.4397  2.0787
 2694TIP3   OH229640   5.483   4.111   1.109  0.2132  0.1613 -0.0129
 2694TIP3    H129641   5.544   4.058   1.161 -0.8364  0.8065  2.0132
 2694TIP3    H229642   5.538   4.177   1.067  1.2762 -1.2539 -0.9227
 2695TIP3   OH229643   4.838   0.399   8.348  0.4923 -0.2109 -0.2165
 2695TIP3    H129644   4.801   0.485   8.326  1.5509 -0.1612 -2.0087
 2695TIP3    H229645   4.774   0.336   8.315 -0.3170 -0.1528  1.1585
 2696TIP3   OH229646   0.651   4.406   2.087  0.3800  0.3403 -0.2457
 2696TIP3    H129647   0.595   4.470   2.131  1.6583  0.4808  1.2500
 2696TIP3    H229648   0.734   4.452   2.073  1.0329 -0.7059  0.0715
 2697TIP3   OH229649   5.529   1.179   7.959  0.2698 -0.0214 -0.1273
 2697TIP3    H129650   5.470   1.245   7.923  0.6120 -0.2485 -1.1369
 2697TIP3    H229651   5.510   1.178   8.053 -0.2630  0.9739 -0.2165
 2698TIP3   OH229652   2.059   3.366   7.600 -0.1393  0.4541  0.1149
 2698TIP3    H129653   2.127   3.391   7.663  0.4994  2.2197 -1.1866
 2698TIP3    H229654   2.072   3.272   7.585  2.0391  0.7391 -0.0932
 2699TIP3   OH229655   1.442   6.652   2.276  0.0882 -0.5779  0.0081
 2699TIP3    H129656   1.395   6.734   2.256  0.7518 -0.4742 -1.2312
 2699TIP3    H229657   1.447   6.650   2.371 -0.1635  0.7075  0.0684
 2700TIP3   OH229658   3.482   3.999   0.249  0.3220  0.0462 -0.2432
 2700TIP3    H129659   3.569   3.972   0.221  0.7213  1.8130 -0.8484
 2700TIP3    H229660   3.445   3.922   0.291  2.5854 -0.4406  1.0048
 2701TIP3   OH229661   4.789   5.494   0.588 -0.0651  0.7064  0.2462
 2701TIP3    H129662   4.817   5.555   0.656  0.3685  1.0615 -0.2441
 2701TIP3    H229663   4.837   5.521   0.510 -0.3047  0.0954 -0.1209
 2702TIP3   OH229664   1.773   0.785   8.291 -0.0812 -0.0612  0.3471
 2702TIP3    H129665   1.769   0.756   8.199  0.5637 -0.6311  0.4834
 2702TIP3    H229666   1.726   0.868   8.292 -1.0616 -0.5849 -0.2807
 2703TIP3   OH229667   6.582   0.250   1.283  0.1609 -0.1289 -0.2660
 2703TIP3    H129668   6.604   0.242   1.190 -0.1946 -0.9128 -0.2946
 2703TIP3    H229669   6.543   0.166   1.305  1.3670 -0.4069  0.9121
 2704TIP3   OH229670   5.159   6.286   0.472  0.3912 -0.3022  0.5638
 2704TIP3    H129671   5.136   6.203   0.432 -0.2087 -0.2473  0.7913
 2704TIP3    H229672   5.251   6.299   0.449  1.0310 -1.8910  2.0360
 2705TIP3   OH229673   5.532   5.458   0.163  0.2305 -0.1992 -0.2424
 2705TIP3    H129674   5.483   5.538   0.185 -0.2292 -0.5189 -0.0894
 2705TIP3    H229675   5.603   5.455   0.227 -0.8014 -0.8545  0.9040
 2706TIP3   OH229676   1.294   0.469   2.562  0.0771 -0.1306 -0.0449
 2706TIP3    H129677   1.203   0.484   2.586  0.3665  0.8350  0.5427
 2706TIP3    H229678   1.323   0.398   2.619 -0.6417 -1.3096 -1.1136
 2707TIP3   OH229679   2.707   1.942   2.593  0.2085 -0.1827  0.2910
 2707TIP3    H129680   2.626   1.925   2.545 -0.9883 -0.5415  2.3585
 2707TIP3    H229681   2.760   1.863   2.579 -0.7977 -0.9865  0.8511
 2708TIP3   OH229682   4.088   4.217   0.048 -0.8427  0.2581  0.9149
 2708TIP3    H129683   4.039   4.145   0.009  0.6338 -0.7642  0.8732
 2708TIP3    H229684   4.151   4.175   0.106  2.1772  1.1759 -1.3980
 2709TIP3   OH229685   2.999   2.095   7.433 -0.6014 -0.1753  0.0860
 2709TIP3    H129686   3.093   2.115   7.431 -0.7283  0.7196  1.2766
 2709TIP3    H229687   2.973   2.090   7.341  0.5759 -0.2506 -0.2579
 2710TIP3   OH229688   3.772   6.432   0.117  0.0156  0.2914 -0.1675
 2710TIP3    H129689   3.731   6.516   0.141 -0.2973  0.4031 -1.0680
 2710TIP3    H229690   3.703   6.384   0.071  0.3399 -0.2751 -0.0697
 2711TIP3   OH229691   4.191   2.156   7.266  0.4070 -0.2894 -0.5691
 2711TIP3    H129692   4.120   2.105   7.305 -0.7008 -0.0034 -2.1292
 2711TIP3    H229693   4.171   2.158   7.173  2.7780 -0.6661 -1.1472
 2712TIP3   OH229694   2.706   3.672   1.074 -0.0978  0.5315 -0.5533
 2712TIP3    H129695   2.726   3.765   1.083  0.7992  0.2923  0.0567
 2712TIP3    H229696   2.632   3.669   1.014  0.3345  1.5923 -1.1609
 2713TIP3   OH229697   4.044   3.146   0.735 -0.2711  0.2523 -0.2632
 2713TIP3    H129698   3.968   3.088   0.742 -1.6123  2.0324  0.6390
 2713TIP3    H229699   4.008   3.230   0.707  1.7219  0.4883 -2.5060
 2714TIP3   OH229700   3.261   1.929   2.072  0.5984  0.3915  0.3826
 2714TIP3    H129701   3.286   1.943   2.163  0.4694 -1.1827  0.6948
 2714TIP3    H229702   3.192   1.862   2.077  0.5936  0.2925 -0.8620
 2715TIP3   OH229703   6.316   0.226   0.252 -0.0943 -0.4680 -0.1232
 2715TIP3    H129704   6.357   0.168   0.188 -1.5286 -2.3551  0.5750
 2715TIP3    H229705   6.298   0.170   0.327 -3.1678  0.4110 -0.0727
 2716TIP3   OH229706   0.930   2.417   2.147 -0.0499 -1.3778 -0.1607
 2716TIP3    H129707   0.965   2.382   2.230  0.9900 -0.9896 -0.4207
 2716TIP3    H229708   0.891   2.501   2.171 -0.9240 -1.8639  0.1524
 2717TIP3   OH229709   5.332   5.796   2.529 -0.0162 -0.6059 -0.2309
 2717TIP3    H129710   5.353   5.826   2.440 -0.6068  0.7059  0.0495
 2717TIP3    H229711   5.241   5.767   2.524  0.3864 -1.9070 -0.3707
 2718TIP3   OH229712   4.421   2.065   1.077  0.2966 -0.2019  0.3600
 2718TIP3    H129713   4.501   2.036   1.034  0.5575 -0.5264  1.0564
 2718TIP3    H229714   4.449   2.096   1.162 -0.3243 -0.3322  0.6190
 2719TIP3   OH229715   5.765   1.351   2.131 -0.7303  0.3150 -0.3889
 2719TIP3    H129716   5.825   1.278   2.114 -0.5175  0.1516  0.9193
 2719TIP3    H229717   5.724   1.329   2.215 -0.8302  1.5941 -0.0816
 2720TIP3   OH229718   3.454   4.739   0.632 -0.3134 -0.0369  0.2574
 2720TIP3    H129719   3.538   4.756   0.590 -0.5027  0.3422  0.0249
 2720TIP3    H229720   3.472   4.741   0.726 -0.1083  0.2789  0.2106
 2721TIP3   OH229721   0.116   0.198   1.993 -0.8956  0.0549  0.1046
 2721TIP3    H129722   0.210   0.197   2.010 -0.8952  0.3877  0.1223
 2721TIP3    H229723   0.103   0.272   1.934 -1.1622  0.0892  0.2057
 2722TIP3   OH229724   5.045   3.090   8.446 -0.4166 -0.2600 -0.5528
 2722TIP3    H129725   5.023   3.062   8.358  1.0922 -2.2177 -0.3505
 2722TIP3    H229726   4.969   3.064   8.499 -0.1644 -1.5616 -0.8194
 2723TIP3   OH229727   3.361   1.778   1.643 -0.1127 -0.3158 -0.4983
 2723TIP3    H129728   3.269   1.751   1.633 -0.3958  0.1668  0.6372
 2723TIP3    H229729   3.378   1.770   1.737  0.3431  1.6787 -0.3686
 2724TIP3   OH229730   0.553   2.996   1.897 -0.0226  0.6259 -0.0007
 2724TIP3    H129731   0.533   2.986   1.804 -1.2985 -0.6379  0.3819
 2724TIP3    H229732   0.601   2.917   1.920  1.0319  1.3105  0.2642
 2725TIP3   OH229733   1.494   0.867   0.660  0.4124 -1.0457  0.0182
 2725TIP3    H129734   1.549   0.793   0.687 -0.2045 -1.1197  1.1398
 2725TIP3    H229735   1.423   0.828   0.610  0.4926 -1.1289 -0.0309
 2726TIP3   OH229736   5.904   2.726   0.909 -0.3483  0.6774  0.2334
 2726TIP3    H129737   5.928   2.639   0.939 -3.0107 -1.0865 -2.2235
 2726TIP3    H229738   5.930   2.784   0.981  2.9853 -1.8484  1.3044
 2727TIP3   OH229739   1.137   2.652   1.118 -0.2837  0.4360 -0.2059
 2727TIP3    H129740   1.138   2.747   1.123 -1.6147  0.5720 -1.7219
 2727TIP3    H229741   1.168   2.633   1.029  1.0693 -0.6276  0.4476
 2728TIP3   OH229742   1.882   1.875   1.845  0.8959 -0.0628 -0.5774
 2728TIP3    H129743   1.801   1.921   1.828  0.4441 -0.5260  0.2510
 2728TIP3    H229744   1.944   1.910   1.781  0.3714  1.1500 -0.4430
 2729TIP3   OH229745   3.485   5.049   8.021  0.0014 -0.3377 -0.1880
 2729TIP3    H129746   3.400   5.082   8.049  0.3357  0.5696 -0.2029
 2729TIP3    H229747   3.475   5.035   7.926 -0.0063  0.1908 -0.2705
 2730TIP3   OH229748   5.503   5.644   0.639 -0.7193  0.2361 -0.0508
 2730TIP3    H129749   5.414   5.679   0.641 -0.2704  1.4410 -0.2585
 2730TIP3    H229750   5.533   5.649   0.730 -0.3463  1.2742 -0.2132
 2731TIP3   OH229751   4.415   0.599   2.827 -0.1372 -0.0255  0.1333
 2731TIP3    H129752   4.444   0.680   2.785 -1.6848  0.9048  0.7766
 2731TIP3    H229753   4.406   0.621   2.919 -0.1736 -1.0587  0.3880
 2732TIP3   OH229754   5.870   2.903   7.879 -0.0330  0.1599  0.0429
 2732TIP3    H129755   5.848   2.822   7.925  2.0585  0.0314  0.9375
 2732TIP3    H229756   5.789   2.928   7.835 -1.4359 -1.0622  1.7722
 2733TIP3   OH229757   2.479   3.158   7.096 -0.5431 -0.4495 -0.4498
 2733TIP3    H129758   2.473   3.247   7.131 -0.1634 -0.6505  0.1377
 2733TIP3    H229759   2.417   3.107   7.147 -0.0536 -0.7244 -0.1155
 2734TIP3   OH229760   4.521   0.126   1.855  0.5337 -0.1359 -0.1317
 2734TIP3    H129761   4.587   0.193   1.872  0.9982 -0.7311  0.4135
 2734TIP3    H229762   4.567   0.059   1.805  1.2639 -2.1032  2.9477
 2735TIP3   OH229763   4.461   2.412   0.336  0.1351 -0.0590  0.3025
 2735TIP3    H129764   4.435   2.375   0.420 -1.2001  1.2349  0.5134
 2735TIP3    H229765   4.411   2.362   0.271 -1.0740  0.7991  0.5279
 2736TIP3   OH229766   2.225   2.228   1.870 -0.3971 -0.7884 -0.5125
 2736TIP3    H129767   2.299   2.186   1.826 -0.7787 -0.0770 -1.9043
 2736TIP3    H229768   2.262   2.263   1.951  0.3509 -2.0658 -0.2856
 2737TIP3   OH229769   2.205   3.044   8.557  0.8775  0.0983  0.2004
 2737TIP3    H129770   2.177   3.094   8.634 -0.0043 -0.2374  0.1088
 2737TIP3    H229771   2.181   3.099   8.483 -2.8256 -1.5590 -0.0876
 2738TIP3   OH229772   5.481   4.293   1.518  0.4907 -0.0156 -0.0029
 2738TIP3    H129773   5.435   4.320   1.598  2.0567  0.1857  0.8540
 2738TIP3    H229774   5.492   4.373   1.469 -0.9402 -0.2158 -0.7124
 2739TIP3   OH229775   0.253   2.479   7.762 -0.0723 -0.2241  0.2751
 2739TIP3    H129776   0.279   2.459   7.672 -0.8344 -0.5063  0.1068
 2739TIP3    H229777   0.316   2.544   7.792  1.3412 -1.4950  0.1828
 2740TIP3   OH229778   0.557   6.422   8.218 -0.1200  0.1267 -0.4830
 2740TIP3    H129779   0.486   6.389   8.163 -1.1111 -3.5284  2.4884
 2740TIP3    H229780   0.522   6.502   8.257 -1.5614 -0.1851 -1.0606
 2741TIP3   OH229781   6.759   3.468   2.674 -0.3249 -0.1833  0.1540
 2741TIP3    H129782   6.736   3.468   2.767  1.3824  1.6224  0.6439
 2741TIP3    H229783   6.826   3.536   2.666 -1.8568  1.1621 -2.7861
 2742TIP3   OH229784   0.499   5.534   6.369 -0.0688  0.2357  0.1144
 2742TIP3    H129785   0.447   5.584   6.432  1.2253  1.3055  0.3854
 2742TIP3    H229786   0.537   5.462   6.419  0.7886  0.9653  0.5497
 2743TIP3   OH229787   1.655   5.926   1.967  0.4015 -0.1449  0.0911
 2743TIP3    H129788   1.604   5.890   1.894 -0.6582 -0.7062  1.0744
 2743TIP3    H229789   1.600   5.997   2.001  1.9823  1.7603 -1.1469
 2744TIP3   OH229790   5.409   6.044   2.333 -0.4730 -0.4541 -0.1010
 2744TIP3    H129791   5.426   6.128   2.290  0.5511  0.0460  1.1979
 2744TIP3    H229792   5.361   5.993   2.268 -1.9241  1.4418 -0.6021
 2745TIP3   OH229793   3.507   3.001   2.497 -0.0651  1.0571  0.0537
 2745TIP3    H129794   3.601   2.994   2.482  0.2980  1.1332  2.0861
 2745TIP3    H229795   3.495   2.976   2.588 -1.7942  2.7543  0.3511
 2746TIP3   OH229796   0.062   1.883   7.704 -0.1943 -0.0912  0.2157
 2746TIP3    H129797   0.150   1.881   7.740  0.2250  0.7016 -0.7186
 2746TIP3    H229798   0.074   1.876   7.609 -0.9553  2.3414 -0.1249
 2747TIP3   OH229799   4.988   2.893   8.262 -0.0171 -0.3657 -0.2873
 2747TIP3    H129800   5.020   2.808   8.232 -0.9380 -1.2385  1.0876
 2747TIP3    H229801   4.917   2.914   8.202  0.7231 -0.1789 -1.1104
 2748TIP3   OH229802   5.644   6.577   7.745  0.1221  0.1039 -0.0004
 2748TIP3    H129803   5.620   6.501   7.798  0.6146 -0.8429 -1.0935
 2748TIP3    H229804   5.657   6.647   7.809 -1.4277 -0.4224  0.9377
 2749TIP3   OH229805   3.622   6.774   7.373  0.8053  0.2075 -0.4278
 2749TIP3    H129806   3.623   6.710   7.302  0.1713  0.1001 -0.3430
 2749TIP3    H229807   3.546   6.829   7.356  0.0539 -0.4382  0.7039
 2750TIP3   OH229808   0.190   3.742   7.778 -0.4804 -0.0596  0.0046
 2750TIP3    H129809   0.264   3.746   7.718  1.1580  0.3524  1.9551
 2750TIP3    H229810   0.188   3.651   7.808 -0.5538  0.0102  0.2132
 2751TIP3   OH229811   4.841   1.033   1.263 -0.0175 -0.1756 -0.0918
 2751TIP3    H129812   4.768   1.067   1.211 -0.5248  0.0085  0.7140
 2751TIP3    H229813   4.843   1.089   1.341  1.9927  0.8397 -0.7918
 2752TIP3   OH229814   5.809   5.747   1.450 -0.4979  0.2411  0.1777
 2752TIP3    H129815   5.721   5.708   1.445 -0.1121 -0.8575  1.5926
 2752TIP3    H229816   5.868   5.673   1.462  0.7045  0.9325 -1.1237
 2753TIP3   OH229817   4.312   5.219   0.377  0.0259  0.6493 -0.1900
 2753TIP3    H129818   4.300   5.125   0.394  1.1270  0.4309 -0.5756
 2753TIP3    H229819   4.392   5.224   0.325 -0.4757  1.7462 -0.8726
 2754TIP3   OH229820   0.000   3.179   0.856 -0.2547 -0.1053 -0.1430
 2754TIP3    H129821   0.003   3.193   0.762 -0.4818 -0.1901 -0.1642
 2754TIP3    H229822   0.083   3.215   0.889 -1.2742  2.3098 -0.0315
 2755TIP3   OH229823   5.202   5.534   7.959  0.2166 -0.0420  0.1673
 2755TIP3    H129824   5.137   5.588   7.913 -0.6209  0.0433  1.4236
 2755TIP3    H229825   5.226   5.467   7.895 -1.6457 -0.5074 -0.0944
 2756TIP3   OH229826   0.311   6.254   0.732  0.0920  0.3253  0.1761
 2756TIP3    H129827   0.256   6.207   0.670 -1.1359 -1.2437  2.3318
 2756TIP3    H229828   0.328   6.338   0.690  0.1587 -0.9808 -2.6679
 2757TIP3   OH229829   5.634   6.392   8.300 -0.3246 -0.0826  0.0309
 2757TIP3    H129830   5.715   6.347   8.325 -0.6239 -0.1572  0.8851
 2757TIP3    H229831   5.564   6.333   8.329 -0.7086 -0.9766 -2.4483
 2758TIP3   OH229832   0.420   4.493   0.253 -0.0383  0.4379 -0.2777
 2758TIP3    H129833   0.328   4.471   0.241  0.1958 -2.4299  2.0125
 2758TIP3    H229834   0.419   4.570   0.309 -1.1680 -1.0375  1.8815
 2759TIP3   OH229835   2.391   3.881   1.067  0.0998  0.0677 -0.5371
 2759TIP3    H129836   2.303   3.844   1.067 -0.6853  1.8737 -0.3455
 2759TIP3    H229837   2.380   3.972   1.042  1.9563  0.2773 -0.7687
 2760TIP3   OH229838   3.731   1.378   3.218  0.2640 -0.0885  0.3713
 2760TIP3    H129839   3.741   1.465   3.179  0.3003 -0.0925  0.3717
 2760TIP3    H229840   3.796   1.324   3.172 -1.2637 -0.6616 -1.2188
 2761TIP3   OH229841   5.119   5.427   2.525  0.2029 -0.5908  0.2690
 2761TIP3    H129842   5.204   5.410   2.484 -0.4572 -0.5590 -1.1743
 2761TIP3    H229843   5.130   5.399   2.616  1.3551 -1.7996 -0.2172
 2762TIP3   OH229844   2.573   3.746   8.372  0.3648 -0.0786  0.0330
 2762TIP3    H129845   2.584   3.748   8.277  1.1381  0.1180  0.1166
 2762TIP3    H229846   2.544   3.657   8.391  0.2635 -0.1344 -0.3810
 2763TIP3   OH229847   6.184   3.226   2.574  0.0448 -0.0454  0.4705
 2763TIP3    H129848   6.255   3.164   2.590  0.1650  0.1651  0.7503
 2763TIP3    H229849   6.126   3.180   2.513  0.1314 -0.4341  0.6778
 2764TIP3   OH229850   5.030   2.339   0.718 -0.2880  0.4493  0.0252
 2764TIP3    H129851   5.102   2.395   0.688  1.9709 -1.8176  0.8429
 2764TIP3    H229852   4.989   2.388   0.789  2.6851  0.5032  1.8682
 2765TIP3   OH229853   6.599   5.431   0.241  0.3263 -0.2227  0.6924
 2765TIP3    H129854   6.515   5.423   0.197  0.7892 -0.9324 -0.0869
 2765TIP3    H229855   6.648   5.353   0.216  0.9024 -0.2577  1.8338
 2766TIP3   OH229856   3.956   5.124   2.217  0.0729 -0.0017 -0.1370
 2766TIP3    H129857   3.883   5.169   2.174 -1.5078 -1.9340  0.3918
 2766TIP3    H229858   3.984   5.058   2.154 -0.2497 -0.8508  0.5920
 2767TIP3   OH229859   0.286   5.883   2.022 -0.1722 -0.0945 -0.2805
 2767TIP3    H129860   0.240   5.826   2.084 -1.2655  0.0345 -0.9382
 2767TIP3    H229861   0.340   5.940   2.076 -0.2386 -0.7366  0.4761
 2768TIP3   OH229862   2.941   3.716   2.410 -0.0450  0.2460  0.1061
 2768TIP3    H129863   2.951   3.722   2.505 -1.5476  1.1120  0.2447
 2768TIP3    H229864   2.958   3.625   2.389  2.1768  0.4166  0.9442
 2769TIP3   OH229865   2.870   0.348   7.938 -0.4815 -0.0571  0.2961
 2769TIP3    H129866   2.797   0.361   7.877 -0.3261  0.7656  0.2847
 2769TIP3    H229867   2.828   0.330   8.022 -0.6963 -1.1314 -0.0185
 2770TIP3   OH229868   2.502   6.578   8.094  0.0913 -0.0693 -0.0799
 2770TIP3    H129869   2.548   6.513   8.147  1.7551  0.7507 -0.4393
 2770TIP3    H229870   2.413   6.544   8.086 -0.1169 -0.4910  2.7905
 2771TIP3   OH229871   3.813   5.842   1.108 -0.1403 -0.1383  0.5682
 2771TIP3    H129872   3.900   5.856   1.146  0.5558  0.6705 -1.1745
 2771TIP3    H229873   3.793   5.751   1.126  0.4538  0.0271  2.1975
 2772TIP3   OH229874   5.632   0.741   1.308  0.0181  0.0715  0.7209
 2772TIP3    H129875   5.641   0.796   1.231  2.2852  0.2043  1.0211
 2772TIP3    H229876   5.643   0.651   1.276  1.5549  0.1603  0.9169
 2773TIP3   OH229877   5.538   2.331   0.620  0.0108  0.1331  0.7921
 2773TIP3    H129878   5.556   2.306   0.529 -1.0536  1.6418  0.1312
 2773TIP3    H229879   5.526   2.426   0.617 -1.9208 -0.0122  2.1601
 2774TIP3   OH229880   3.245   6.523   0.917 -0.3896  0.0157  0.0803
 2774TIP3    H129881   3.152   6.543   0.910 -0.5347 -0.7620 -0.4469
 2774TIP3    H229882   3.253   6.469   0.995 -0.4480 -0.2426 -0.0899
 2775TIP3   OH229883   0.316   6.182   8.617  0.0424  0.0787 -0.5745
 2775TIP3    H129884   0.236   6.234   8.614 -0.1774 -0.1963  0.2313
 2775TIP3    H229885   0.304   6.114   8.550  0.9349  1.8637 -2.6659
 2776TIP3   OH229886   0.112   5.660   8.189 -0.2916  0.7930  0.4921
 2776TIP3    H129887   0.058   5.729   8.151 -0.8182  0.7657  1.1958
 2776TIP3    H229888   0.198   5.701   8.200  0.1205  0.5846 -1.4388
 2777TIP3   OH229889   5.376   1.889   8.229  0.3232  0.0350  0.4306
 2777TIP3    H129890   5.334   1.807   8.205  2.1312 -0.6206 -0.6913
 2777TIP3    H229891   5.394   1.933   8.146  2.3001  0.0013  0.7744
 2778TIP3   OH229892   3.665   4.660   1.731 -0.6770  0.2872 -0.7089
 2778TIP3    H129893   3.666   4.584   1.672  0.3139 -1.8413  1.8406
 2778TIP3    H229894   3.754   4.665   1.766 -1.2026  1.4904  0.5417
 2779TIP3   OH229895   3.566   3.586   7.530 -0.7128  0.1047  0.4962
 2779TIP3    H129896   3.501   3.530   7.487  0.0458 -0.0200 -0.5317
 2779TIP3    H229897   3.582   3.657   7.468 -0.7180  0.7696  1.2423
 2780TIP3   OH229898   4.658   0.259   1.232  0.2436  0.0240  0.0022
 2780TIP3    H129899   4.658   0.297   1.144  2.7328 -1.4721 -0.7327
 2780TIP3    H229900   4.735   0.298   1.274 -0.2114 -0.2282  1.0938
 2781TIP3   OH229901   4.141   2.320   0.637  0.8485 -0.1880 -0.3337
 2781TIP3    H129902   4.069   2.383   0.643  1.4658  0.5899 -0.9124
 2781TIP3    H229903   4.181   2.321   0.724  0.6847  0.0047 -0.2600
 2782TIP3   OH229904   6.286   1.810   6.956 -0.3045  0.1347 -0.5851
 2782TIP3    H129905   6.356   1.824   6.892 -1.0400 -1.0596 -1.7197
 2782TIP3    H229906   6.329   1.820   7.041  1.5231 -1.5417 -1.2102
 2783TIP3   OH229907   5.200   5.265   0.804  0.3245 -0.2064 -0.7111
 2783TIP3    H129908   5.243   5.350   0.811 -1.7246  0.9654 -1.4337
 2783TIP3    H229909   5.107   5.284   0.810 -0.1709 -2.6161  0.8302
 2784TIP3   OH229910   3.454   5.065   0.441  0.4943 -0.0562 -0.2306
 2784TIP3    H129911   3.521   5.021   0.389  0.1548 -1.2248  0.2872
 2784TIP3    H229912   3.433   5.144   0.392  2.3712  0.4245 -0.3141
 2785TIP3   OH229913   3.385   0.367   2.717 -0.2142 -0.0889  0.0327
 2785TIP3    H129914   3.291   0.371   2.704 -0.2637  1.0223  0.5794
 2785TIP3    H229915   3.421   0.347   2.631 -1.0384 -2.6240  0.2107
 2786TIP3   OH229916   1.352   4.249   1.716  0.6210  0.3425 -0.2916
 2786TIP3    H129917   1.318   4.161   1.730  0.8118  0.3889  0.4967
 2786TIP3    H229918   1.321   4.273   1.629  2.0102 -1.1717 -1.2618
 2787TIP3   OH229919   1.315   1.716   1.085  0.7389 -0.3075 -0.4712
 2787TIP3    H129920   1.271   1.775   1.023  1.2177  0.6879  0.1107
 2787TIP3    H229921   1.248   1.696   1.151  1.0475  0.9890  0.2672
 2788TIP3   OH229922   0.691   6.455   7.595 -0.3851  0.2885 -0.5454
 2788TIP3    H129923   0.718   6.487   7.681 -2.5939  0.7816  0.0388
 2788TIP3    H229924   0.666   6.364   7.610 -1.6360  0.6327 -0.4254
 2789TIP3   OH229925   1.914   6.568   0.709 -0.1403 -0.3170  0.3537
 2789TIP3    H129926   1.860   6.647   0.714  0.4764  0.0565  1.2593
 2789TIP3    H229927   1.878   6.520   0.634  0.3838  1.5053 -1.1498
 2790TIP3   OH229928   2.323   4.733   8.214 -0.6274 -0.2048 -0.2301
 2790TIP3    H129929   2.326   4.700   8.124 -1.0488  0.2552 -0.4168
 2790TIP3    H229930   2.241   4.781   8.219  0.4629  1.7943 -0.3322
 2791TIP3   OH229931   3.948   4.975   8.096  0.0048  0.3957 -0.3647
 2791TIP3    H129932   3.884   5.014   8.037 -0.9454 -0.7516 -0.1082
 2791TIP3    H229933   3.998   4.915   8.041 -2.1465 -2.1640  0.2852
 2792TIP3   OH229934   0.613   2.048   7.277 -0.4058  0.3072 -0.5373
 2792TIP3    H129935   0.554   2.112   7.317 -0.9202 -0.4638 -0.0378
 2792TIP3    H229936   0.572   2.028   7.192 -1.9224 -1.6111  0.5698
 2793TIP3   OH229937   0.945   1.748   2.014 -0.6652 -0.4570 -0.4891
 2793TIP3    H129938   0.909   1.693   2.084 -0.9379  0.3436  0.0100
 2793TIP3    H229939   0.903   1.714   1.934 -0.4349 -1.3058 -0.2628
 2794TIP3   OH229940   4.197   4.199   1.198 -0.4429  0.0309  0.0806
 2794TIP3    H129941   4.250   4.164   1.269  0.2063  1.3083  0.2632
 2794TIP3    H229942   4.244   4.177   1.119 -0.3738 -0.0684  0.1494
 2795TIP3   OH229943   4.626   2.283   0.029 -0.2056 -0.1279  0.1032
 2795TIP3    H129944   4.649   2.302  -0.062  0.9041 -2.2768 -0.1388
 2795TIP3    H229945   4.710   2.263   0.071 -1.0070 -2.8891  0.5897
 2796TIP3   OH229946   1.502   4.949   2.357  0.5202 -0.2195 -0.2010
 2796TIP3    H129947   1.549   5.031   2.342  0.1411 -0.2459 -1.6384
 2796TIP3    H229948   1.434   4.972   2.421  2.1787 -0.0992  1.6178
 2797TIP3   OH229949   3.500   2.196   2.486 -0.2477 -0.2384  0.2185
 2797TIP3    H129950   3.580   2.243   2.509 -0.3003 -0.4828  0.9371
 2797TIP3    H229951   3.501   2.118   2.542 -0.0122 -1.2690 -1.1712
 2798TIP3   OH229952   5.384   6.534   7.539  0.3350 -0.8404 -0.6250
 2798TIP3    H129953   5.359   6.525   7.447  2.2813 -1.2796 -1.1617
 2798TIP3    H229954   5.479   6.526   7.538  0.5703  1.0596  1.2068
 2799TIP3   OH229955   1.225   0.303   8.100  0.8461 -0.0440 -0.0159
 2799TIP3    H129956   1.237   0.398   8.093  0.0357  0.0385 -0.3773
 2799TIP3    H229957   1.132   0.292   8.122  1.1918 -0.7140  1.2101
 2800TIP3   OH229958   4.195   2.086   0.935 -0.7145 -0.1287  0.7122
 2800TIP3    H129959   4.283   2.083   0.974  0.0260 -1.6500 -0.9302
 2800TIP3    H229960   4.136   2.070   1.009  0.5384 -1.3102  1.5176
 2801TIP3   OH229961   2.424   3.948   0.728 -0.2179  0.2905  0.2131
 2801TIP3    H129962   2.461   3.882   0.670 -0.1244 -1.3920  2.0910
 2801TIP3    H229963   2.401   4.020   0.670  0.8308 -0.8658 -1.7523
 2802TIP3   OH229964   1.977   3.259   1.920  0.3385  0.4701  0.0876
 2802TIP3    H129965   1.987   3.166   1.943 -0.2326  0.4815  0.3896
 2802TIP3    H229966   1.896   3.262   1.869 -0.1370  0.9401  0.8589
 2803TIP3   OH229967   4.193   3.223   1.644 -0.0013 -0.3080 -0.0911
 2803TIP3    H129968   4.127   3.265   1.699  1.9409  1.2473  1.1509
 2803TIP3    H229969   4.224   3.150   1.696 -0.3858 -0.7713 -0.4954
 2804TIP3   OH229970   5.044   3.027   3.027 -0.3730  0.4734  0.7038
 2804TIP3    H129971   5.104   3.004   2.956  0.0633 -1.6627  1.6549
 2804TIP3    H229972   4.958   3.030   2.986  0.0584  0.8913 -0.1961
 2805TIP3   OH229973   5.523   3.711   1.697  0.1695  0.4753 -0.3312
 2805TIP3    H129974   5.592   3.647   1.682  0.9043  0.5778  2.0962
 2805TIP3    H229975   5.442   3.661   1.688  0.5428  0.1668 -2.3862
 2806TIP3   OH229976   0.318   6.778   2.250  0.2608 -0.3172  0.1981
 2806TIP3    H129977   0.236   6.790   2.201  0.1018  2.0443  0.8983
 2806TIP3    H229978   0.322   6.684   2.268 -3.8033 -0.2406  2.6346
 2807TIP3   OH229979   6.786   6.270   7.214 -0.1288  0.3945  0.3598
 2807TIP3    H129980   6.844   6.339   7.182  0.4234 -0.1888  0.0859
 2807TIP3    H229981   6.708   6.317   7.243  0.8211  1.3063  1.5860
 2808TIP3   OH229982   3.860   0.195   1.471  0.1736  0.0043  0.0568
 2808TIP3    H129983   3.844   0.207   1.377  0.5854 -0.8232 -0.1317
 2808TIP3    H229984   3.893   0.105   1.478  3.2504  1.0281  0.5661
 2809TIP3   OH229985   6.704   2.712   1.970 -0.1356 -0.0297 -0.6835
 2809TIP3    H129986   6.758   2.642   1.933  1.6982  1.1969 -0.4664
 2809TIP3    H229987   6.667   2.673   2.049 -1.2773 -1.5589 -1.9061
 2810TIP3   OH229988   4.140   1.667   0.124  0.3492  0.6513  0.0695
 2810TIP3    H129989   4.183   1.646   0.207  0.5621  0.7656 -0.0098
 2810TIP3    H229990   4.106   1.584   0.092  1.7032  0.3082 -0.5331
 2811TIP3   OH229991   2.923   5.388   8.399 -0.1892 -0.8869  0.3458
 2811TIP3    H129992   2.896   5.344   8.318 -0.2456  0.2084 -0.2501
 2811TIP3    H229993   2.921   5.319   8.465 -0.2739 -1.7768 -0.5539
 2812TIP3   OH229994   2.063   1.368   1.162  0.5775 -0.1705  0.1793
 2812TIP3    H129995   2.015   1.431   1.216  0.1786 -1.0492  0.8735
 2812TIP3    H229996   2.148   1.360   1.205  0.9633  0.5548 -0.4226
 2813TIP3   OH229997   0.248   5.937   2.567 -0.2372  0.1848  0.7908
 2813TIP3    H129998   0.258   5.857   2.515 -1.0946  0.3133  0.4124
 2813TIP3    H229999   0.186   5.913   2.636 -0.4853  0.5175  0.6854
 2814TIP3   OH230000   2.972   4.517   2.223  0.4180 -0.2106  0.3016
 2814TIP3    H130001   2.888   4.472   2.226 -0.3725  1.2119  0.3643
 2814TIP3    H230002   3.001   4.521   2.314 -0.1194  0.4783  0.4543
 2815TIP3   OH230003   3.044   1.249   7.814  0.9587  0.0976  0.1512
 2815TIP3    H130004   3.128   1.238   7.771  1.4615  0.5039  0.9973
 2815TIP3    H230005   3.046   1.185   7.886 -0.8799 -2.3932 -1.8042
 2816TIP3   OH230006   2.813   5.034   7.956 -0.1062 -0.6552 -0.4215
 2816TIP3    H130007   2.795   5.111   7.901 -2.1715 -1.4943 -1.0369
 2816TIP3    H230008   2.734   5.024   8.009  0.0802 -2.3953 -0.4250
 2817TIP3   OH230009   1.377   3.996   1.551 -0.3239  0.4092  0.2178
 2817TIP3    H130010   1.286   3.975   1.572 -0.3423  0.0762 -0.1788
 2817TIP3    H230011   1.416   3.911   1.530 -0.5743  0.7938 -2.1178
 2818TIP3   OH230012   2.001   5.828   8.643 -0.2060  0.0196 -0.2000
 2818TIP3    H130013   1.944   5.860   8.573  0.8316  1.2228 -0.5166
 2818TIP3    H230014   1.994   5.895   8.712  0.2914 -0.1657  0.0366
 2819TIP3   OH230015   1.573   3.846   8.603  0.0580  0.0126  0.1859
 2819TIP3    H130016   1.669   3.842   8.611  0.1127 -2.3926 -0.7749
 2819TIP3    H230017   1.545   3.896   8.680  2.0326 -0.1166  1.0618
 2820TIP3   OH230018   0.507   0.325   6.287 -0.2881  0.5357  0.3435
 2820TIP3    H130019   0.415   0.299   6.292 -0.2936  0.3331 -0.5696
 2820TIP3    H230020   0.505   0.411   6.246 -0.1179  0.9269  1.1366
 2821TIP3   OH230021   5.594   6.633   6.915  0.6579 -0.4137 -0.2392
 2821TIP3    H130022   5.517   6.576   6.913 -1.6767  2.5252 -0.4924
 2821TIP3    H230023   5.592   6.675   7.000  1.4826  0.3808 -0.5912
 2822TIP3   OH230024   2.580   6.221   8.002  1.0640  1.0825  0.3388
 2822TIP3    H130025   2.552   6.281   7.932  1.7119  0.2273 -0.6941
 2822TIP3    H230026   2.624   6.278   8.066  0.4336  1.8909  0.0731
 2823TIP3   OH230027   1.435   4.668   1.628  0.2301 -0.2549 -0.1736
 2823TIP3    H130028   1.453   4.617   1.549 -1.6593 -1.4392  0.0884
 2823TIP3    H230029   1.383   4.742   1.597 -1.8624 -1.5341  0.0408
 2824TIP3   OH230030   1.069   3.739   2.743  0.3257 -0.2909  0.1421
 2824TIP3    H130031   1.081   3.703   2.655  0.0189 -0.4230  0.1529
 2824TIP3    H230032   1.155   3.771   2.767  0.6613 -1.2117  0.2135
 2825TIP3   OH230033   2.354   3.202   1.417 -0.2771 -0.1776 -0.1898
 2825TIP3    H130034   2.393   3.279   1.376  1.4094 -1.5000 -1.2002
 2825TIP3    H230035   2.263   3.202   1.387 -0.6701  2.0256  0.8007
 2826TIP3   OH230036   4.036   2.742   0.074  0.2136 -0.3469  0.3315
 2826TIP3    H130037   4.029   2.837   0.079 -0.8492 -0.3881 -0.1164
 2826TIP3    H230038   4.010   2.720  -0.015 -2.8967 -1.2855  1.3463
 2827TIP3   OH230039   5.688   6.337   6.954 -0.5572 -0.3793  0.6615
 2827TIP3    H130040   5.610   6.286   6.978  0.1479 -1.8378 -0.0305
 2827TIP3    H230041   5.704   6.315   6.863 -0.1091  0.9733  0.3916
 2828TIP3   OH230042   0.710   3.981   8.152  0.6906 -0.2334  0.0644
 2828TIP3    H130043   0.775   4.039   8.192  0.2188  0.7366 -0.5406
 2828TIP3    H230044   0.690   3.917   8.220  0.2255  1.1148  1.2556
 2829TIP3   OH230045   5.408   3.206   2.803  0.3702  0.0970  1.0491
 2829TIP3    H130046   5.498   3.239   2.797  1.0158 -1.5550  0.9309
 2829TIP3    H230047   5.364   3.264   2.865  1.6733  0.6293  1.5016
 2830TIP3   OH230048   6.280   5.089   1.662  0.5497 -0.4601  0.3969
 2830TIP3    H130049   6.295   5.077   1.756 -0.4828 -0.0122  0.6428
 2830TIP3    H230050   6.365   5.113   1.626  0.7774  0.2992  1.3930
 2831TIP3   OH230051   0.776   0.686   6.692 -0.0421 -0.5309 -0.0021
 2831TIP3    H130052   0.737   0.647   6.614 -0.6823 -0.1279  0.1108
 2831TIP3    H230053   0.771   0.618   6.759 -1.1967 -0.2602  0.2071
 2832TIP3   OH230054   3.731   3.882   0.195  0.7072  0.1500  0.0343
 2832TIP3    H130055   3.707   3.813   0.133 -0.4282  0.3928  0.1963
 2832TIP3    H230056   3.819   3.857   0.224 -0.4268 -2.3998  1.6670
 2833TIP3   OH230057   6.115   3.858   1.479 -0.1316 -0.4023 -0.0946
 2833TIP3    H130058   6.204   3.878   1.507 -0.7115  0.7444  1.0558
 2833TIP3    H230059   6.079   3.941   1.450 -0.5448 -1.0268 -1.4581
 2834TIP3   OH230060   3.565   6.189   8.590  0.5024  0.1292  0.2365
 2834TIP3    H130061   3.655   6.156   8.600  1.0128  0.3986 -2.6508
 2834TIP3    H230062   3.526   6.177   8.677  3.1238 -0.5397  1.4433
 2835TIP3   OH230063   4.980   5.989   1.272 -0.0108 -0.2433 -0.0176
 2835TIP3    H130064   4.977   5.910   1.218 -1.4867 -0.7001  0.6884
 2835TIP3    H230065   4.973   5.957   1.362 -1.2045  0.7119  0.2438
 2836TIP3   OH230066   6.749   2.935   1.743  0.5233  0.1944  0.0119
 2836TIP3    H130067   6.733   2.871   1.812  0.0333 -0.7162 -0.9221
 2836TIP3    H230068   6.825   2.902   1.696  1.2665  1.1554  0.4881
 2837TIP3   OH230069   6.655   5.313   8.002 -0.7054 -0.3266 -0.0716
 2837TIP3    H130070   6.580   5.309   8.061 -0.3456 -0.4599  0.3860
 2837TIP3    H230071   6.722   5.260   8.045 -0.2701 -0.0150 -0.3576
 2838TIP3   OH230072   3.976   2.023   7.376 -0.3379  0.8672  0.9245
 2838TIP3    H130073   3.891   2.029   7.332 -0.1316  0.7551  0.5136
 2838TIP3    H230074   3.981   1.933   7.408 -0.2423  0.7894  0.6880
 2839TIP3   OH230075   0.789   2.832   7.583 -0.1906  0.0680  0.2655
 2839TIP3    H130076   0.850   2.875   7.643 -0.2466 -0.7625  0.9331
 2839TIP3    H230077   0.843   2.805   7.509 -0.1461  1.2270 -0.1488
 2840TIP3   OH230078   1.461   3.132   1.329 -0.0231  0.0192  0.1518
 2840TIP3    H130079   1.373   3.128   1.369  0.2395 -3.6728  0.6644
 2840TIP3    H230080   1.466   3.221   1.293 -4.6579 -0.0771 -1.4849
 2841TIP3   OH230081   0.394   5.238   0.430 -0.1087 -0.0819 -0.4581
 2841TIP3    H130082   0.404   5.155   0.384 -1.7580 -0.5961  0.0551
 2841TIP3    H230083   0.422   5.220   0.520 -1.0111 -0.2549 -0.2032
 2842TIP3   OH230084   1.604   3.818   2.712  0.2105 -0.1639 -0.1955
 2842TIP3    H130085   1.617   3.757   2.784  2.2748  0.1894 -0.2215
 2842TIP3    H230086   1.663   3.788   2.643 -0.6477  0.3622 -1.1980
 2843TIP3   OH230087   1.523   4.052   1.849 -0.1105 -0.0581  0.0281
 2843TIP3    H130088   1.481   4.091   1.772 -1.1299  0.0330  0.6164
 2843TIP3    H230089   1.570   4.124   1.890 -0.1544  0.0511 -0.1129
 2844TIP3   OH230090   6.800   0.152   7.772  0.4259 -0.1292 -0.0131
 2844TIP3    H130091   6.730   0.171   7.834  0.4112 -2.8831  0.9362
 2844TIP3    H230092   6.755   0.134   7.689  0.2964  1.3389 -0.2921
 2845TIP3   OH230093   4.072   5.976   0.218 -0.2748 -0.8812  0.1865
 2845TIP3    H130094   4.077   5.926   0.300 -0.8674 -1.3247 -0.0469
 2845TIP3    H230095   4.082   6.067   0.245 -0.5533 -1.0171  0.7652
 2846TIP3   OH230096   4.834   5.159   8.389  0.2063  0.2212  0.5493
 2846TIP3    H130097   4.820   5.190   8.300  1.8963 -0.3548  0.0391
 2846TIP3    H230098   4.841   5.239   8.441  0.7464  0.6084 -0.1053
 2847TIP3   OH230099   3.319   4.158   0.074 -0.1954  0.0421  0.1272
 2847TIP3    H130100   3.371   4.102   0.133  0.6263 -0.2960 -0.8793
 2847TIP3    H230101   3.340   4.247   0.101  0.5495 -0.1019  0.0505
 2848TIP3   OH230102   0.704   1.076   0.250 -0.5046 -0.5557 -0.3329
 2848TIP3    H130103   0.621   1.033   0.269  0.0047 -1.6793 -0.5338
 2848TIP3    H230104   0.721   1.056   0.158 -1.2568  1.8769 -1.0617
 2849TIP3   OH230105   4.284   2.657   7.438  0.1377  0.3268 -0.5369
 2849TIP3    H130106   4.314   2.706   7.361 -1.2024  1.1315 -0.5720
 2849TIP3    H230107   4.237   2.582   7.402 -0.8947  0.9542 -0.5274
 2850TIP3   OH230108   3.784   2.518   0.390  0.4138 -0.0227 -0.3372
 2850TIP3    H130109   3.743   2.543   0.473  0.5077 -0.4678 -0.1515
 2850TIP3    H230110   3.865   2.569   0.388  1.0090 -0.8932  0.4287
 2851TIP3   OH230111   1.107   4.417   0.684 -0.8884 -0.1471  0.5839
 2851TIP3    H130112   1.197   4.449   0.673  1.2625 -4.6901  2.4459
 2851TIP3    H230113   1.089   4.367   0.604 -1.8110  0.6881  0.2491
 2852TIP3   OH230114   6.227   5.490   1.220 -0.5602  0.4817 -0.1130
 2852TIP3    H130115   6.310   5.481   1.173  0.1587  0.6250  1.0864
 2852TIP3    H230116   6.244   5.449   1.305 -2.0264 -0.3576 -0.1906
 2853TIP3   OH230117   2.892   3.150   7.297 -0.5340  0.1763  0.4230
 2853TIP3    H130118   2.971   3.194   7.328 -1.4317  1.8912  0.4081
 2853TIP3    H230119   2.924   3.071   7.253  1.1939  1.0269  0.0743
 2854TIP3   OH230120   2.137   6.823   2.372  0.0404  0.0078 -0.1466
 2854TIP3    H130121   2.206   6.871   2.418 -2.0481  0.9928  2.1342
 2854TIP3    H230122   2.106   6.758   2.435  1.5429 -3.3587 -2.5299
 2855TIP3   OH230123   4.789   5.159   1.993  0.1027  0.5332  0.0393
 2855TIP3    H130124   4.776   5.244   1.953 -1.7797  0.7804  1.0539
 2855TIP3    H230125   4.844   5.111   1.931  3.6690  3.3286  0.6894
 2856TIP3   OH230126   5.674   2.926   0.977  0.7462  0.3364  0.0557
 2856TIP3    H130127   5.715   2.895   0.896  1.2338  1.7871 -0.2908
 2856TIP3    H230128   5.747   2.953   1.033  0.3703  2.5177 -0.3907
 2857TIP3   OH230129   0.548   1.573   8.147  1.0517 -0.3066 -0.4149
 2857TIP3    H130130   0.531   1.574   8.241 -2.3502 -1.6650 -0.8845
 2857TIP3    H230131   0.603   1.495   8.134 -1.4648 -2.2936  0.1505
 2858TIP3   OH230132   1.749   3.603   3.058 -0.7251  0.1123 -0.4489
 2858TIP3    H130133   1.703   3.520   3.069 -0.7948  0.0983 -0.8303
 2858TIP3    H230134   1.742   3.621   2.964 -0.4796  0.4149 -0.4068
 2859TIP3   OH230135   0.203   3.512   8.558  0.3754  0.5945 -0.2440
 2859TIP3    H130136   0.246   3.433   8.590 -2.1008 -0.1576  1.5083
 2859TIP3    H230137   0.214   3.575   8.629 -1.8010  0.1872  0.5234
 2860TIP3   OH230138   3.390   2.187   7.835  0.2810 -0.4106 -0.6230
 2860TIP3    H130139   3.300   2.212   7.816 -0.2505 -1.6943  0.1527
 2860TIP3    H230140   3.390   2.162   7.927  1.5268 -0.0534 -0.4989
 2861TIP3   OH230141   5.904   5.820   8.236  0.1272  0.7144 -0.2673
 2861TIP3    H130142   5.823   5.845   8.280 -0.4500 -1.0072 -0.2810
 2861TIP3    H230143   5.928   5.736   8.276  1.0043  0.3840 -1.4294
 2862TIP3   OH230144   5.782   1.410   1.505 -0.0112  0.3783 -1.0652
 2862TIP3    H130145   5.760   1.498   1.473 -2.1200 -0.6391 -2.7218
 2862TIP3    H230146   5.796   1.359   1.425 -0.2830 -1.1146 -0.1920
 2863TIP3   OH230147   2.105   2.663   1.820  0.2111 -0.1147  0.1307
 2863TIP3    H130148   2.183   2.686   1.870  0.5309 -0.5184 -0.1771
 2863TIP3    H230149   2.063   2.594   1.872  0.5786 -0.5813 -0.1826
 2864TIP3   OH230150   0.682   1.458   1.468 -0.1070  0.2687  0.4289
 2864TIP3    H130151   0.752   1.453   1.534  0.4745  1.6101 -0.0482
 2864TIP3    H230152   0.707   1.532   1.413 -1.0652 -0.2595 -0.7496
 2865TIP3   OH230153   6.606   2.237   7.719  0.5272 -0.2282 -0.2637
 2865TIP3    H130154   6.638   2.155   7.681 -1.4628 -0.8196 -0.8017
 2865TIP3    H230155   6.535   2.264   7.661 -1.1371  0.0315  1.7504
 2866TIP3   OH230156   4.216   4.886   2.862  1.0716 -0.3518  0.0605
 2866TIP3    H130157   4.165   4.963   2.888  0.9219 -0.6147  0.5638
 2866TIP3    H230158   4.243   4.904   2.772  0.8684  0.1995  0.1070
 2867TIP3   OH230159   4.917   4.084   8.249  0.3502 -0.5852 -0.4600
 2867TIP3    H130160   4.933   4.159   8.191 -3.8743  1.2396  0.3499
 2867TIP3    H230161   4.924   4.119   8.337 -0.5261 -1.3886 -0.0483
 2868TIP3   OH230162   6.572   4.838   1.287  0.6514  0.1976 -0.7842
 2868TIP3    H130163   6.558   4.844   1.192  1.6216 -1.2525 -1.0509
 2868TIP3    H230164   6.502   4.780   1.317  0.3838  0.6049 -0.6122
 2869TIP3   OH230165   3.884   0.591   8.615 -0.1663 -0.2686 -0.0416
 2869TIP3    H130166   3.962   0.548   8.650  0.8158  1.5322  0.1079
 2869TIP3    H230167   3.824   0.519   8.595  1.8274 -1.8075 -0.9443
 2870TIP3   OH230168   3.859   2.182   8.522 -0.0746  0.1220 -0.6485
 2870TIP3    H130169   3.814   2.097   8.525 -2.8922  1.5186  0.5199
 2870TIP3    H230170   3.899   2.191   8.608  1.9322 -0.7607 -1.4161
 2871TIP3   OH230171   6.032   1.841   0.834 -1.0956  0.5046  0.5600
 2871TIP3    H130172   5.953   1.875   0.792 -0.9193 -0.5250 -0.6663
 2871TIP3    H230173   6.023   1.746   0.829 -1.3143  0.2934  3.4126
 2872TIP3   OH230174   2.593   5.440   1.982 -0.0178 -0.2131 -0.1007
 2872TIP3    H130175   2.549   5.360   1.957 -0.4882  0.3231 -1.0192
 2872TIP3    H230176   2.579   5.447   2.077 -1.9585 -0.0264 -0.3719
 2873TIP3   OH230177   4.834   6.115   2.563  0.4611  0.2644  0.2275
 2873TIP3    H130178   4.923   6.102   2.596  0.1674  0.7217  1.2375
 2873TIP3    H230179   4.832   6.207   2.536 -0.1981  0.7525  1.8378
 2874TIP3   OH230180   2.199   0.027   8.351  0.4274  0.0776  0.2751
 2874TIP3    H130181   2.169   0.059   8.436  2.1533 -0.1973  1.0234
 2874TIP3    H230182   2.187   0.101   8.291 -1.5725  0.0154  0.5317
 2875TIP3   OH230183   3.621   2.415   0.903  0.3748  0.3540 -0.1537
 2875TIP3    H130184   3.574   2.377   0.828  1.1834 -0.5543 -0.2108
 2875TIP3    H230185   3.552   2.453   0.957 -0.5875 -2.0085  0.3904
 2876TIP3   OH230186   5.186   2.545   0.618  0.4295  0.0462 -0.4833
 2876TIP3    H130187   5.156   2.618   0.673  0.9187 -0.2825  0.2331
 2876TIP3    H230188   5.260   2.507   0.666 -0.5226 -1.6417 -0.2653
 2877TIP3   OH230189   3.441   0.950   7.394 -0.0883 -0.1458  0.2907
 2877TIP3    H130190   3.403   0.877   7.443  2.1139 -1.5426  0.0350
 2877TIP3    H230191   3.375   0.971   7.328 -0.7042 -2.0768  0.2316
 2878TIP3   OH230192   2.224   2.317   2.500 -0.0654  0.1712  0.2331
 2878TIP3    H130193   2.282   2.365   2.559 -0.5525 -0.4738  1.2567
 2878TIP3    H230194   2.274   2.240   2.474  0.0565  0.3274  0.0064
 2879TIP3   OH230195   3.463   0.885   7.837 -0.7634  0.5405 -0.7733
 2879TIP3    H130196   3.500   0.972   7.820 -1.8007  0.9534 -0.9902
 2879TIP3    H230197   3.393   0.876   7.772 -0.2562 -0.7279 -1.1766
 2880TIP3   OH230198   5.179   3.519   0.023  0.0397  0.3312 -0.0498
 2880TIP3    H130199   5.256   3.571   0.001  0.6080 -0.3612  0.2399
 2880TIP3    H230200   5.115   3.540  -0.045  0.1903  1.5213  0.1600
 2881TIP3   OH230201   4.259   0.888   8.312  0.3345  0.1397 -0.0904
 2881TIP3    H130202   4.286   0.796   8.313 -0.1080  0.0089 -0.0989
 2881TIP3    H230203   4.186   0.893   8.374  1.0740  0.7107  0.7740
 2882TIP3   OH230204   6.159   2.033   0.671  0.2745 -0.3674 -0.1413
 2882TIP3    H130205   6.156   1.975   0.748  0.5019 -1.9034 -1.2290
 2882TIP3    H230206   6.096   1.995   0.610 -0.3581  1.1940 -0.5035
 2883TIP3   OH230207   3.264   2.216   2.336  0.0301 -0.0300  0.1619
 2883TIP3    H130208   3.335   2.204   2.399 -0.8871 -3.0190  0.8110
 2883TIP3    H230209   3.301   2.272   2.268  2.0661  0.7844  1.8386
 2884TIP3   OH230210   3.350   5.210   1.222 -0.8405 -0.2122 -0.7900
 2884TIP3    H130211   3.336   5.304   1.208 -2.3419 -0.5234 -1.4897
 2884TIP3    H230212   3.343   5.199   1.317  1.1423  0.6227 -0.4807
 2885TIP3   OH230213   3.887   3.494   1.489  0.5144  0.2105 -0.2411
 2885TIP3    H130214   3.967   3.524   1.532  1.4292 -3.3023  0.8642
 2885TIP3    H230215   3.832   3.461   1.561 -0.7470  0.0721 -1.2343
 2886TIP3   OH230216   5.828   1.754   1.130  0.2361  0.0606  0.0462
 2886TIP3    H130217   5.832   1.660   1.112  1.7369  0.2642 -0.8589
 2886TIP3    H230218   5.902   1.770   1.189  0.6309  0.8247 -0.6386
 2887TIP3   OH230219   5.574   0.103   7.646  0.0380 -0.1520 -0.4429
 2887TIP3    H130220   5.538   0.188   7.670 -1.7944 -0.0784 -3.0924
 2887TIP3    H230221   5.509   0.039   7.677  1.8867 -0.8256  2.4866
 2888TIP3   OH230222   1.484   6.248   0.802  0.1249 -0.6113  0.4375
 2888TIP3    H130223   1.519   6.335   0.785  0.7256 -0.9361 -0.0120
 2888TIP3    H230224   1.547   6.208   0.861 -0.7680 -0.3228  1.6461
 2889TIP3   OH230225   1.404   4.217   7.373  0.0827 -0.5412  0.0158
 2889TIP3    H130226   1.337   4.181   7.315 -0.4277  0.1232  0.1774
 2889TIP3    H230227   1.397   4.166   7.453 -0.6899 -0.0594  0.2717
 2890TIP3   OH230228   1.802   1.932   1.511  0.4515 -0.3237 -0.0500
 2890TIP3    H130229   1.891   1.903   1.532  0.8900  0.5531 -0.6827
 2890TIP3    H230230   1.812   2.021   1.479 -1.0446  1.3725  3.6451
 2891TIP3   OH230231   3.849   5.135   0.922  0.0406 -0.0239  0.2595
 2891TIP3    H130232   3.821   5.057   0.874  1.0839 -0.6312  0.5996
 2891TIP3    H230233   3.914   5.176   0.866  0.2978 -0.0117  0.5619
 2892TIP3   OH230234   6.525   3.026   7.566 -0.8967 -0.0649 -0.0951
 2892TIP3    H130235   6.566   3.034   7.480  0.2603  0.6432  0.5000
 2892TIP3    H230236   6.500   2.934   7.572  1.3502 -0.7213 -0.1778
 2893TIP3   OH230237   1.369   0.386   8.324 -0.1217 -0.5747 -0.4010
 2893TIP3    H130238   1.320   0.468   8.331 -0.2759 -0.6811 -0.2433
 2893TIP3    H230239   1.303   0.318   8.319  0.0058 -0.6753 -0.7367
 2894TIP3   OH230240   4.777   1.302   0.420 -0.2100 -0.0431  0.0271
 2894TIP3    H130241   4.791   1.331   0.330  2.1109  1.0888  0.6490
 2894TIP3    H230242   4.728   1.374   0.461  0.3712  0.3303  0.0928
 2895TIP3   OH230243   0.846   0.879   6.159  0.2225  0.3867  0.4633
 2895TIP3    H130244   0.894   0.851   6.237 -0.8712  1.2471  1.5031
 2895TIP3    H230245   0.795   0.955   6.189  0.4430  1.2800 -1.3352
 2896TIP3   OH230246   4.409   1.411   0.755 -0.5178  0.0677  0.2429
 2896TIP3    H130247   4.404   1.320   0.727  0.2547  0.5844 -1.7929
 2896TIP3    H230248   4.484   1.414   0.814 -1.7979 -0.9479  2.0129
 2897TIP3   OH230249   5.188   0.290   0.476 -0.1946  0.5478  0.1089
 2897TIP3    H130250   5.282   0.303   0.489 -0.1746  0.0441  0.5185
 2897TIP3    H230251   5.181   0.247   0.391 -0.0088  0.1176  0.3067
 2898TIP3   OH230252   0.838   3.948   1.603 -0.3971  0.1570  0.1432
 2898TIP3    H130253   0.827   3.921   1.694 -1.7106 -0.3295 -0.1380
 2898TIP3    H230254   0.761   4.001   1.584 -1.4861 -1.7879 -1.3720
 2899TIP3   OH230255   1.748   4.173   0.745  0.3498 -0.1650 -1.0071
 2899TIP3    H130256   1.743   4.260   0.786 -0.8779 -0.5918 -0.1807
 2899TIP3    H230257   1.717   4.113   0.813 -0.3583 -1.0583 -2.0836
 2900TIP3   OH230258   1.336   3.245   1.867  0.3783 -0.1518  0.2978
 2900TIP3    H130259   1.383   3.164   1.887 -0.9701 -1.5009 -1.6843
 2900TIP3    H230260   1.393   3.291   1.805  1.5372  0.9199  2.0478
 2901TIP3   OH230261   0.806   2.431   1.589 -0.3659  0.1729  0.3384
 2901TIP3    H130262   0.712   2.444   1.602 -0.6851 -1.3098 -0.2386
 2901TIP3    H230263   0.836   2.389   1.670 -0.4353 -0.3814  0.0800
 2902TIP3   OH230264   6.471   3.556   7.302  0.0502  0.5213  0.3476
 2902TIP3    H130265   6.511   3.470   7.289 -0.6097  0.4832 -1.8073
 2902TIP3    H230266   6.456   3.562   7.396  0.4663 -1.5681  0.5847
 2903TIP3   OH230267   6.095   2.452   0.251  0.1937 -0.0639  0.3778
 2903TIP3    H130268   6.128   2.539   0.275 -1.5114  0.6736  0.2007
 2903TIP3    H230269   6.128   2.438   0.163  0.2028  0.5710  0.2745
 2904TIP3   OH230270   3.771   5.033   7.229 -0.3322 -0.6730 -0.0242
 2904TIP3    H130271   3.784   5.059   7.321 -1.4090  0.3869 -0.1493
 2904TIP3    H230272   3.799   4.941   7.226 -0.1589 -0.6857  1.3341
 2905TIP3   OH230273   4.640   4.077   7.277 -0.6365  0.1574  0.0194
 2905TIP3    H130274   4.605   4.010   7.218  0.5962 -0.2817 -0.2492
 2905TIP3    H230275   4.619   4.046   7.365  1.0097 -1.2640 -0.0397
 2906TIP3   OH230276   1.423   3.662   1.996 -0.4001  0.0224  0.1661
 2906TIP3    H130277   1.380   3.681   1.913  0.2191 -0.9205 -0.3918
 2906TIP3    H230278   1.508   3.706   1.991  0.3038 -1.3369 -0.3958
 2907TIP3   OH230279   1.607   5.797   6.635  0.7653 -0.4781  0.4700
 2907TIP3    H130280   1.698   5.824   6.645  0.9054 -0.7012 -0.1922
 2907TIP3    H230281   1.562   5.839   6.708  1.0635  1.1899 -0.2591
 2908TIP3   OH230282   2.665   5.394   7.436  0.0867  0.0000 -0.2998
 2908TIP3    H130283   2.741   5.342   7.461  0.6202  1.0089  0.2231
 2908TIP3    H230284   2.600   5.376   7.503  0.0114 -0.5481 -0.5196
 2909TIP3   OH230285   4.974   2.704   7.268 -0.1089  0.1129  0.0746
 2909TIP3    H130286   4.951   2.777   7.324 -2.5088 -0.6347  0.1826
 2909TIP3    H230287   4.903   2.699   7.204  0.9753 -0.9658 -1.1254
 2910TIP3   OH230288   4.932   6.330   0.875 -0.0395 -0.2768  0.0588
 2910TIP3    H130289   4.958   6.416   0.843 -1.8800 -0.0804 -1.0826
 2910TIP3    H230290   4.836   6.331   0.870 -0.3123 -1.2709  3.0066
 2911TIP3   OH230291   6.083   6.367   7.181  0.0142 -0.1877  0.0813
 2911TIP3    H130292   6.167   6.400   7.212 -0.5327  1.6916 -0.3028
 2911TIP3    H230293   6.069   6.411   7.097 -0.1128 -2.5859 -1.2304
 2912TIP3   OH230294   0.923   3.066   1.407 -0.4379  0.4252 -0.2583
 2912TIP3    H130295   0.917   2.972   1.387 -1.2347  0.1726  1.0569
 2912TIP3    H230296   0.856   3.106   1.351 -1.1266  0.0055  0.2406
 2913TIP3   OH230297   1.155   1.056   0.146  0.1776 -0.7495  0.3535
 2913TIP3    H130298   1.086   1.044   0.081 -0.0286  1.0941  0.1726
 2913TIP3    H230299   1.108   1.084   0.225  0.6496  0.0247  0.3754
 2914TIP3   OH230300   3.981   0.454   7.362  0.3004 -0.3616  0.7039
 2914TIP3    H130301   3.914   0.427   7.300 -0.9020  0.6672  1.5054
 2914TIP3    H230302   4.062   0.414   7.330 -0.3725 -0.2531 -1.2382
 2915TIP3   OH230303   1.359   0.197   7.246 -1.0632 -0.3116  0.1566
 2915TIP3    H130304   1.425   0.251   7.290 -0.0066 -1.2777 -0.1817
 2915TIP3    H230305   1.343   0.242   7.163  0.8956 -1.1929 -0.7793
 2916TIP3   OH230306   0.685   5.400   1.753 -0.0964  0.4264  0.2229
 2916TIP3    H130307   0.724   5.328   1.704 -2.8427 -0.1192 -1.3376
 2916TIP3    H230308   0.717   5.387   1.843  0.1284 -2.2543 -0.1660
 2917TIP3   OH230309   2.615   0.730   0.833 -0.2571  0.4096  0.6203
 2917TIP3    H130310   2.669   0.775   0.768 -0.5001  0.7141  0.6218
 2917TIP3    H230311   2.553   0.797   0.862 -0.2805  0.2195  1.0181
 2918TIP3   OH230312   1.297   0.583   1.929 -0.7531 -0.0004 -0.0897
 2918TIP3    H130313   1.305   0.545   2.017  0.2644  0.4298  0.0179
 2918TIP3    H230314   1.251   0.665   1.943 -0.9381 -0.1171 -0.0102
 2919TIP3   OH230315   2.024   5.430   0.932 -0.1221  0.3174 -0.0780
 2919TIP3    H130316   2.091   5.498   0.937 -0.1782  0.3298  0.5670
 2919TIP3    H230317   1.944   5.473   0.962  0.1802 -0.4618  1.9869
 2920TIP3   OH230318   1.214   5.262   0.983 -0.3350  0.1783  0.0930
 2920TIP3    H130319   1.199   5.199   0.912 -0.8925 -2.0094  2.0145
 2920TIP3    H230320   1.292   5.230   1.028 -0.8106  0.6547  1.3158
 2921TIP3   OH230321   0.205   4.880   0.903 -0.3150  0.2797  0.4718
 2921TIP3    H130322   0.186   4.874   0.997  1.6266  1.1564  0.9806
 2921TIP3    H230323   0.230   4.791   0.878 -2.2212 -0.2810  0.4024
 2922TIP3   OH230324   4.375   4.313   8.573  0.9107  0.1609  0.3180
 2922TIP3    H130325   4.438   4.383   8.590  0.5025  1.0460 -1.6329
 2922TIP3    H230326   4.427   4.242   8.536  1.1913 -0.3030  1.5330
 2923TIP3   OH230327   6.244   0.098   7.764  0.1615 -0.4133 -0.1289
 2923TIP3    H130328   6.213   0.034   7.829 -0.2984  0.0274  0.0859
 2923TIP3    H230329   6.165   0.127   7.719  0.2286  0.8282  0.5177
 2924TIP3   OH230330   0.415   1.227   7.978 -0.3723  0.3590  0.1016
 2924TIP3    H130331   0.404   1.249   8.070 -0.7903 -0.3397  0.2253
 2924TIP3    H230332   0.505   1.195   7.971 -0.9542 -1.5229  0.6873
 2925TIP3   OH230333   6.482   5.101   8.554  0.3653 -0.2853  0.1954
 2925TIP3    H130334   6.576   5.119   8.562  0.9114 -2.4042 -0.5899
 2925TIP3    H230335   6.471   5.017   8.599 -1.2340  0.1332  0.6144
 2926TIP3   OH230336   2.300   2.810   7.511 -0.2272  0.8400  0.1639
 2926TIP3    H130337   2.215   2.793   7.470 -0.4662  1.0728  0.5483
 2926TIP3    H230338   2.278   2.833   7.602  0.0768  2.9372 -0.2424
 2927TIP3   OH230339   0.078   1.690   8.569 -0.1690  0.1308 -0.0563
 2927TIP3    H130340   0.028   1.613   8.596 -0.1732 -0.0751 -0.6424
 2927TIP3    H230341   0.035   1.720   8.489 -1.5599  2.0615  1.3005
 2928TIP3   OH230342   3.163   4.711   1.198 -0.4455 -0.3534  0.1125
 2928TIP3    H130343   3.221   4.710   1.275 -1.2769 -0.9604  0.7553
 2928TIP3    H230344   3.175   4.798   1.160  2.0769 -0.9809 -0.7307
 2929TIP3   OH230345   0.116   5.541   6.689  0.4659  0.8778  0.1737
 2929TIP3    H130346   0.188   5.588   6.648  0.0689  0.6600 -0.8055
 2929TIP3    H230347   0.126   5.451   6.657 -0.6593  1.0030 -0.5905
 2930TIP3   OH230348   5.178   0.423   7.974  0.1168 -0.2449  0.0337
 2930TIP3    H130349   5.146   0.488   8.036  1.0950 -0.0163  0.3153
 2930TIP3    H230350   5.270   0.411   7.998  0.9422  0.9416 -2.3157
 2931TIP3   OH230351   3.485   2.451   2.366 -0.2367  0.4956  0.0251
 2931TIP3    H130352   3.414   2.392   2.389  0.2654 -0.6032 -1.1769
 2931TIP3    H230353   3.557   2.427   2.425 -0.7312  1.4303  1.0574
 2932TIP3   OH230354   6.629   4.700   0.521  0.3660 -0.0157  0.3707
 2932TIP3    H130355   6.585   4.631   0.471  0.7958 -0.7264  0.9517
 2932TIP3    H230356   6.597   4.688   0.611  1.3035 -0.1942  0.6949
 2933TIP3   OH230357   2.766   1.225   7.295 -0.2396 -0.0932 -0.5974
 2933TIP3    H130358   2.838   1.176   7.333  0.6229  0.9540 -0.8341
 2933TIP3    H230359   2.708   1.158   7.259  0.1253 -0.9869  0.4242
 2934TIP3   OH230360   0.501   5.005   1.364  0.8325 -0.6031 -0.1958
 2934TIP3    H130361   0.546   5.058   1.299  2.4164 -2.0819 -0.3870
 2934TIP3    H230362   0.503   4.916   1.329  0.5588 -1.2239  1.2577
 2935TIP3   OH230363   2.840   6.127   1.795 -0.2952 -0.4739  0.2147
 2935TIP3    H130364   2.844   6.061   1.725  1.1427 -0.6984  0.4808
 2935TIP3    H230365   2.891   6.089   1.866 -0.3252  0.4915  0.7551
 2936TIP3   OH230366   4.703   4.101   2.095 -0.7387 -0.2307  0.3971
 2936TIP3    H130367   4.769   4.031   2.089  0.0987  0.4799  1.0838
 2936TIP3    H230368   4.621   4.058   2.073 -0.2353 -1.4331  0.7865
 2937TIP3   OH230369   1.312   2.353   1.151  0.2552  0.9573  0.0092
 2937TIP3    H130370   1.266   2.272   1.173 -0.0215  0.6924 -1.4336
 2937TIP3    H230371   1.278   2.377   1.065  1.3309  1.8708 -0.1853
 2938TIP3   OH230372   1.698   6.223   0.584  0.2324  0.2375  0.2266
 2938TIP3    H130373   1.744   6.182   0.657 -0.0885  1.4435  1.1371
 2938TIP3    H230374   1.695   6.316   0.606  0.5561  0.7085 -1.5632
 2939TIP3   OH230375   4.519   5.679   0.344 -0.0049  0.4170  0.1010
 2939TIP3    H130376   4.497   5.678   0.437 -2.5333 -0.5396 -0.4271
 2939TIP3    H230377   4.487   5.763   0.312  2.6008  1.6076  0.3804
 2940TIP3   OH230378   5.780   1.985   0.748  0.2538  0.1744  0.2700
 2940TIP3    H130379   5.732   2.023   0.675  0.8270  1.1067  0.3670
 2940TIP3    H230380   5.859   2.039   0.755 -0.3691  0.8792  2.3617
 2941TIP3   OH230381   0.267   2.198   8.512 -0.5300  0.5938 -0.0045
 2941TIP3    H130382   0.303   2.239   8.591 -0.8432 -0.1722  0.5336
 2941TIP3    H230383   0.255   2.106   8.535  0.9691 -0.0243 -1.4665
 2942TIP3   OH230384   0.737   1.115   1.663 -0.0729  0.3185  0.1880
 2942TIP3    H130385   0.658   1.168   1.665 -0.1621  0.1635  1.7253
 2942TIP3    H230386   0.734   1.063   1.743  1.7322  0.5523  0.4641
 2943TIP3   OH230387   5.378   3.146   0.493 -0.0650 -0.2430  0.1406
 2943TIP3    H130388   5.414   3.109   0.574  1.1827  0.0349 -0.2688
 2943TIP3    H230389   5.307   3.203   0.523 -0.5941 -1.2791  0.9286
 2944TIP3   OH230390   1.667   2.278   1.472 -1.1366 -0.2932  0.3976
 2944TIP3    H130391   1.733   2.283   1.541  0.6827 -1.4911 -1.1272
 2944TIP3    H230392   1.629   2.366   1.468  0.5132  0.5052  1.2201
 2945TIP3   OH230393   4.965   4.930   8.018  0.0866 -0.5623  0.1304
 2945TIP3    H130394   4.970   4.930   7.922 -0.2236  0.7200  0.0890
 2945TIP3    H230395   4.954   5.023   8.040  1.3169 -0.7069  1.4676
 2946TIP3   OH230396   4.927   3.745   2.713  0.6621  0.0438  0.6938
 2946TIP3    H130397   4.839   3.713   2.694  1.1337 -2.4459  2.2058
 2946TIP3    H230398   4.913   3.828   2.758 -0.8543  0.2361 -0.0760
 2947TIP3   OH230399   2.277   2.782   6.886 -0.2052 -0.0816 -0.1746
 2947TIP3    H130400   2.359   2.826   6.909 -0.1567 -1.9365  4.1929
 2947TIP3    H230401   2.209   2.847   6.905  0.0479  1.2455 -3.2213
 2948TIP3   OH230402   0.618   3.464   6.821  0.4812 -0.1490 -0.0301
 2948TIP3    H130403   0.572   3.512   6.889  0.8785 -2.0367  1.6673
 2948TIP3    H230404   0.613   3.520   6.744  0.6648  2.4469  1.7225
 2949TIP3   OH230405   1.277   1.842   2.370 -0.2283  0.1505 -0.5934
 2949TIP3    H130406   1.297   1.758   2.411 -0.3141  0.5830  0.3716
 2949TIP3    H230407   1.362   1.880   2.350 -0.1717  0.1215 -0.4147
 2950TIP3   OH230408   1.567   5.798   7.292  0.2702 -0.5226 -0.3410
 2950TIP3    H130409   1.549   5.892   7.290 -0.1529 -0.5272  1.3231
 2950TIP3    H230410   1.661   5.791   7.275  0.0781  0.0760 -1.7721
 2951TIP3   OH230411   4.857   6.596   7.153  0.6123  0.1697  0.2221
 2951TIP3    H130412   4.763   6.611   7.155  0.8892  2.1500  0.8953
 2951TIP3    H230413   4.867   6.511   7.111 -1.4655 -0.1030  0.1704
 2952TIP3   OH230414   3.950   2.763   1.927 -0.6479  0.2414 -0.6964
 2952TIP3    H130415   4.019   2.772   1.861 -1.1705  2.6984 -0.9977
 2952TIP3    H230416   3.900   2.687   1.899  0.5389 -0.1785 -1.8003
 2953TIP3   OH230417   1.628   2.976   2.533  0.4416  0.3045  0.8637
 2953TIP3    H130418   1.597   2.962   2.444 -1.5575 -2.7521  1.8776
 2953TIP3    H230419   1.709   3.025   2.523 -0.1313  0.8023 -2.5465
 2954TIP3   OH230420   3.515   6.429   8.101  0.5846  0.9441  0.5495
 2954TIP3    H130421   3.499   6.450   8.193 -0.7538  1.4534  0.2164
 2954TIP3    H230422   3.435   6.386   8.071  1.2131  0.2773 -0.2454
 2955TIP3   OH230423   6.195   0.595   6.986  0.2270  0.0231  0.0763
 2955TIP3    H130424   6.153   0.674   7.020 -0.8117 -1.3474  2.1562
 2955TIP3    H230425   6.124   0.532   6.974  1.1455 -0.9360 -0.5655
 2956TIP3   OH230426   5.727   2.095   7.806  0.0450  0.1834  0.5001
 2956TIP3    H130427   5.643   2.141   7.801  0.2001  0.3614 -0.9749
 2956TIP3    H230428   5.705   2.010   7.845 -0.9044  0.0734 -0.2410
 2957TIP3   OH230429   5.468   1.640   1.052  0.7803 -0.4486 -0.4675
 2957TIP3    H130430   5.438   1.568   1.107  0.8626 -0.7883 -0.8607
 2957TIP3    H230431   5.421   1.629   0.969  2.1058 -1.1099 -1.1759
 2958TIP3   OH230432   3.276   6.739   0.172  0.1598  0.2530 -0.1283
 2958TIP3    H130433   3.327   6.661   0.194  0.0037  0.0165 -0.5808
 2958TIP3    H230434   3.325   6.780   0.101 -0.4511 -0.1638 -0.8045
 2959TIP3   OH230435   3.389   5.601   1.975 -0.2500 -0.4750  0.3739
 2959TIP3    H130436   3.456   5.538   1.948  1.3157  1.6139 -0.9388
 2959TIP3    H230437   3.411   5.622   2.066  0.8065  0.0522  0.0133
 2960TIP3   OH230438   1.603   0.248   0.574  0.4313  0.8771  0.3035
 2960TIP3    H130439   1.649   0.331   0.560 -0.1164  1.0431 -0.5993
 2960TIP3    H230440   1.604   0.205   0.489 -0.6681  0.6684  0.3831
 2961TIP3   OH230441   3.994   6.138   7.813  0.2076  0.0261  0.0628
 2961TIP3    H130442   3.991   6.062   7.754  0.7165  1.0357 -1.3251
 2961TIP3    H230443   4.066   6.192   7.779 -0.7808  1.6155  0.3771
 2962TIP3   OH230444   2.391   6.874   1.380 -0.3279 -0.2529 -0.0622
 2962TIP3    H130445   2.317   6.828   1.419  0.0714 -0.1275  0.8836
 2962TIP3    H230446   2.468   6.824   1.407  0.1089  0.9035  0.9488
 2963TIP3   OH230447   1.373   0.519   1.474  0.3499  0.4831 -0.1011
 2963TIP3    H130448   1.313   0.539   1.403  0.6908 -0.5627 -0.7137
 2963TIP3    H230449   1.446   0.580   1.462 -0.5237  1.7157  0.6100
 2964TIP3   OH230450   3.806   3.000   0.705 -0.1185  0.0031  0.7496
 2964TIP3    H130451   3.826   2.994   0.612  0.5372  1.7807  0.7406
 2964TIP3    H230452   3.748   2.925   0.722  0.4840 -0.8738 -0.8612
 2965TIP3   OH230453   0.239   3.573   1.295 -0.6918 -0.1073 -0.3632
 2965TIP3    H130454   0.188   3.646   1.330 -1.6635 -1.7022  1.8150
 2965TIP3    H230455   0.323   3.580   1.339  0.0431  0.9226 -1.8534
 2966TIP3   OH230456   1.979   6.042   1.043 -0.1466  0.4491 -0.1852
 2966TIP3    H130457   1.944   6.121   1.086  0.6629  0.0334  1.3083
 2966TIP3    H230458   1.982   5.977   1.113  0.8829 -0.3795 -0.9759
 2967TIP3   OH230459   5.113   2.436   1.423 -0.5048 -0.2204  0.0124
 2967TIP3    H130460   5.159   2.436   1.507  0.3829  0.7055 -0.4462
 2967TIP3    H230461   5.181   2.414   1.359 -1.1049 -0.6063 -0.5000
 2968TIP3   OH230462   6.870   6.810   6.895 -0.2556  0.3627  0.2366
 2968TIP3    H130463   6.843   6.722   6.868  1.0266 -0.8576  2.6194
 2968TIP3    H230464   6.915   6.846   6.819 -1.0521 -0.9068 -0.8803
 2969TIP3   OH230465   2.659   5.690   7.377  0.1629  0.6822 -0.5856
 2969TIP3    H130466   2.731   5.679   7.316 -0.3207 -0.3992 -0.9765
 2969TIP3    H230467   2.617   5.604   7.382  0.1025  0.7770  1.1576
 2970TIP3   OH230468   3.022   5.287   0.779 -0.2670 -0.3288 -0.2790
 2970TIP3    H130469   3.083   5.322   0.843 -0.9256 -1.0988  0.7986
 2970TIP3    H230470   2.991   5.205   0.817 -1.3909 -0.3329 -1.1364
 2971TIP3   OH230471   3.668   0.009   0.620  0.2025 -0.3477  0.0287
 2971TIP3    H130472   3.669   0.096   0.580  0.2425 -0.1697  0.4122
 2971TIP3    H230473   3.747   0.006   0.673 -1.4107  0.6914  2.7572
 2972TIP3   OH230474   6.389   5.244   8.057  0.2574 -0.4673 -0.5417
 2972TIP3    H130475   6.294   5.232   8.067  0.0779  1.5908  0.8941
 2972TIP3    H230476   6.427   5.161   8.083 -1.0565 -0.3313  2.2175
 2973TIP3   OH230477   3.555   6.110   7.443 -0.6624  0.3505  0.1532
 2973TIP3    H130478   3.604   6.101   7.361  0.8098  0.7622  0.9334
 2973TIP3    H230479   3.470   6.144   7.417  0.3120  2.0270 -1.1112
 2974TIP3   OH230480   0.701   2.946   0.862  0.0856  0.3407 -0.1415
 2974TIP3    H130481   0.749   2.880   0.911  0.2974 -0.8955 -1.8904
 2974TIP3    H230482   0.758   2.966   0.787 -1.1579  0.5025 -1.0750
 2975TIP3   OH230483   1.506   4.539   1.856 -0.2343  0.0601 -0.4811
 2975TIP3    H130484   1.490   4.582   1.772 -0.0055  0.4089 -0.3461
 2975TIP3    H230485   1.544   4.607   1.911 -0.2804 -0.1987 -0.1285
 2976TIP3   OH230486   3.699   4.447   1.112 -0.1598 -0.9609 -0.1159
 2976TIP3    H130487   3.721   4.355   1.097 -1.8795 -1.5803  0.8514
 2976TIP3    H230488   3.730   4.464   1.201 -1.1448 -1.0760  0.2673
 2977TIP3   OH230489   5.786   3.390   8.282 -0.1305 -0.0666  0.0887
 2977TIP3    H130490   5.703   3.397   8.236  0.6335 -0.6583 -1.4371
 2977TIP3    H230491   5.844   3.452   8.237  0.6283 -0.6248  0.2659
 2978TIP3   OH230492   1.275   1.585   0.517  0.4629 -0.1687 -0.0119
 2978TIP3    H130493   1.299   1.507   0.467 -2.0420  0.2199 -2.0059
 2978TIP3    H230494   1.191   1.612   0.482  0.1333  2.1405  2.2032
 2979TIP3   OH230495   0.207   3.291   1.347  0.2235 -0.2008 -0.3541
 2979TIP3    H130496   0.126   3.296   1.399  0.9753 -3.5850  1.4598
 2979TIP3    H230497   0.226   3.381   1.323 -2.0034  1.1873  2.4959
 2980TIP3   OH230498   1.583   3.788   0.823  0.2704  0.3459  0.0765
 2980TIP3    H130499   1.582   3.759   0.732 -1.4178 -2.3880  0.8455
 2980TIP3    H230500   1.675   3.788   0.847  0.5905 -1.6092 -0.9092
 2981TIP3   OH230501   6.064   0.748   1.986 -0.8263  0.0269 -0.0959
 2981TIP3    H130502   6.013   0.793   2.053  0.5273  1.4531  0.0141
 2981TIP3    H230503   6.147   0.727   2.029 -0.5617 -0.5116 -0.8476
 2982TIP3   OH230504   2.758   2.903   8.359  0.5428  0.4508 -0.4147
 2982TIP3    H130505   2.684   2.842   8.361 -2.1317  3.4425  1.2994
 2982TIP3    H230506   2.746   2.953   8.278 -0.1343  1.8143  0.5021
 2983TIP3   OH230507   0.122   6.411   7.169  0.5856  0.0769 -0.2447
 2983TIP3    H130508   0.197   6.455   7.209  0.7325 -0.5944  0.2473
 2983TIP3    H230509   0.110   6.454   7.085 -0.3104  2.2008  0.8826
 2984TIP3   OH230510   0.097   6.612   7.516 -0.1087 -0.2783 -0.0981
 2984TIP3    H130511   0.099   6.549   7.587  2.5475  0.0068  0.1922
 2984TIP3    H230512   0.161   6.579   7.452 -0.0893  1.0907 -0.8373
 2985TIP3   OH230513   2.143   6.374   1.643 -0.7966 -0.0542 -0.0657
 2985TIP3    H130514   2.153   6.280   1.656  1.2887 -0.0550 -1.3551
 2985TIP3    H230515   2.190   6.414   1.715 -2.3128  0.0484  0.9072
 2986TIP3   OH230516   4.692   2.822   8.430  0.1893  0.3166 -0.2327
 2986TIP3    H130517   4.742   2.902   8.447 -1.2232  0.9040  1.4339
 2986TIP3    H230518   4.672   2.827   8.336  3.1045  0.0785 -0.9687
 2987TIP3   OH230519   4.993   5.726   7.395  0.3859 -0.3116  0.2579
 2987TIP3    H130520   4.986   5.713   7.490 -1.4770  0.8580  0.3314
 2987TIP3    H230521   4.980   5.639   7.358  0.7390 -0.7206  1.0710
 2988TIP3   OH230522   1.014   2.005   2.096 -0.4127  0.1287  0.0679
 2988TIP3    H130523   1.000   1.911   2.085  0.9311 -0.2112  0.9785
 2988TIP3    H230524   0.928   2.044   2.081 -0.9361 -1.2131 -0.6033
 2989TIP3   OH230525   4.427   0.334   8.353 -0.1464  0.0151 -0.6853
 2989TIP3    H130526   4.484   0.285   8.293 -0.4030  1.6557 -2.3418
 2989TIP3    H230527   4.488   0.372   8.417  0.1816 -1.3332 -0.1474
 2990TIP3   OH230528   0.404   3.676   0.940  0.1162 -0.3843  0.1211
 2990TIP3    H130529   0.400   3.650   1.032 -1.7380 -0.2146  0.1393
 2990TIP3    H230530   0.443   3.763   0.941  0.5230 -0.5709  0.7062
 2991TIP3   OH230531   3.607   1.586   8.165 -0.9675 -0.2559 -0.1475
 2991TIP3    H130532   3.673   1.645   8.129  0.7738 -2.5035 -0.8593
 2991TIP3    H230533   3.640   1.565   8.253 -0.6151 -1.5076 -0.5632
 2992TIP3   OH230534   5.035   4.979   8.338  0.1801  0.5327 -0.3897
 2992TIP3    H130535   5.010   4.941   8.254  1.0296 -1.5620  0.2307
 2992TIP3    H230536   4.972   5.050   8.352 -0.7242  0.1542 -2.2267
 2993TIP3   OH230537   4.319   6.433   1.401  0.1713 -0.1247  0.3638
 2993TIP3    H130538   4.246   6.426   1.461  0.1209  2.1166  0.6631
 2993TIP3    H230539   4.396   6.412   1.454 -0.2311 -3.9409 -0.2957
 2994TIP3   OH230540   0.971   4.196   2.620 -0.1038 -0.3912  0.7678
 2994TIP3    H130541   0.961   4.178   2.526 -0.3434  0.0567  0.7016
 2994TIP3    H230542   0.914   4.132   2.663  1.0739 -1.5284  0.6950
 2995TIP3   OH230543   4.412   0.096   8.171 -0.2636  0.1522 -0.1640
 2995TIP3    H130544   4.422   0.025   8.108 -0.3379  1.0742 -1.2612
 2995TIP3    H230545   4.330   0.139   8.146  0.2296  1.1633 -0.1092
 2996TIP3   OH230546   1.271   0.046   7.998  0.4438 -0.0559  0.2172
 2996TIP3    H130547   1.276   0.135   8.032 -0.9651  0.0146  0.2836
 2996TIP3    H230548   1.286   0.055   7.904 -1.4555  0.4998 -0.0616
 2997TIP3   OH230549   6.837   3.106   7.255 -0.3696 -0.2536  0.2957
 2997TIP3    H130550   6.819   3.049   7.330  0.2336 -0.3540  0.3694
 2997TIP3    H230551   6.751   3.138   7.228 -0.4232  1.6136  2.4458
 2998TIP3   OH230552   2.106   2.037   1.173  0.0285 -0.0941  0.1267
 2998TIP3    H130553   2.088   2.065   1.083  0.7743  1.9149  0.5502
 2998TIP3    H230554   2.138   2.116   1.217  1.2514 -1.4024  1.7366
 2999TIP3   OH230555   4.454   0.121   1.341  0.3130 -0.0306 -0.2127
 2999TIP3    H130556   4.518   0.187   1.315  1.4101 -1.0254 -0.1783
 2999TIP3    H230557   4.371   0.150   1.304  0.6156  1.7356  0.4436
 3000TIP3   OH230558   6.415   2.505   7.031  0.2795  0.1478 -0.3809
 3000TIP3    H130559   6.335   2.473   6.988 -0.8367  0.1258  1.5796
 3000TIP3    H230560   6.383   2.553   7.107  2.1069  1.6583 -0.4861
 3001TIP3   OH230561   6.421   3.377   2.495 -0.4253 -0.6163 -0.1425
 3001TIP3    H130562   6.332   3.382   2.530 -0.0948  0.5193  0.5752
 3001TIP3    H230563   6.412   3.402   2.403 -0.6344  1.1472  0.3270
 3002TIP3   OH230564   2.804   6.288   1.027 -0.8569  0.2745  0.3005
 3002TIP3    H130565   2.859   6.294   1.106  0.3456  0.2463 -0.5028
 3002TIP3    H230566   2.777   6.197   1.023  0.2320 -0.0515 -0.0397
 3003TIP3   OH230567   2.454   2.094   1.744  0.1218 -0.3380  0.3125
 3003TIP3    H130568   2.460   2.004   1.777  0.1618 -0.0837  1.0169
 3003TIP3    H230569   2.529   2.139   1.783  0.7724 -0.2806 -0.9693
 3004TIP3   OH230570   0.578   3.583   7.612 -0.2907 -0.4189 -0.7758
 3004TIP3    H130571   0.570   3.489   7.593 -0.2830 -0.3516 -1.1173
 3004TIP3    H230572   0.508   3.600   7.675 -0.4733 -0.5976 -0.9277
 3005TIP3   OH230573   5.564   2.003   6.826  0.5174 -0.2704 -0.3952
 3005TIP3    H130574   5.611   1.922   6.809  0.5218 -0.2772 -0.3494
 3005TIP3    H230575   5.618   2.050   6.890  1.5311  0.6620 -1.8635
 3006TIP3   OH230576   1.982   2.462   2.007  0.0402  0.4674 -0.1252
 3006TIP3    H130577   1.917   2.445   2.075  0.3269 -0.0344  0.0289
 3006TIP3    H230578   2.056   2.502   2.054 -0.3861  1.6013 -0.3922
 3007TIP3   OH230579   2.890   3.154   1.079  0.4410  0.1705  0.0533
 3007TIP3    H130580   2.865   3.108   1.159 -0.0142  0.3959  0.0465
 3007TIP3    H230581   2.857   3.243   1.091 -0.7414 -0.1107 -0.8896
 3008TIP3   OH230582   4.819   3.415   2.766  0.1282  1.0180  0.2221
 3008TIP3    H130583   4.784   3.327   2.753  0.3400  1.0780 -0.8434
 3008TIP3    H230584   4.789   3.441   2.853  1.2768 -0.6673  1.1810
 3009TIP3   OH230585   3.915   5.665   1.587 -0.3923  0.8046  0.2795
 3009TIP3    H130586   3.830   5.685   1.547  0.5141  0.6382 -1.8919
 3009TIP3    H230587   3.944   5.586   1.542  0.2754 -0.0169  2.0741
 3010TIP3   OH230588   2.837   2.203   1.294 -0.1460 -0.0499 -0.0525
 3010TIP3    H130589   2.797   2.225   1.378  2.9239  1.0821  1.2473
 3010TIP3    H230590   2.866   2.112   1.305 -0.6616 -0.2410 -0.2738
 3011TIP3   OH230591   0.246   5.606   0.536  0.6447  0.7617 -0.3519
 3011TIP3    H130592   0.205   5.520   0.547 -1.3938  1.6840 -0.2604
 3011TIP3    H230593   0.248   5.642   0.625  2.6110  0.3741 -0.1985
 3012TIP3   OH230594   3.735   2.675   7.980  0.6259 -0.6106 -0.1119
 3012TIP3    H130595   3.682   2.621   8.038 -0.7115 -0.6055 -1.2756
 3012TIP3    H230596   3.707   2.651   7.892  3.3917 -1.4639 -0.8914
 3013TIP3   OH230597   5.167   4.659   1.929 -0.6713  0.7573  0.4239
 3013TIP3    H130598   5.101   4.655   1.998 -0.0277 -4.0752  1.1022
 3013TIP3    H230599   5.249   4.640   1.973 -0.4615 -4.5057 -1.5309
 3014TIP3   OH230600   2.605   1.940   1.998  0.1900 -0.2466 -0.1309
 3014TIP3    H130601   2.556   2.015   2.033  1.5690 -0.0517  1.5342
 3014TIP3    H230602   2.636   1.894   2.076  1.7585 -0.9318 -1.1171
 3015TIP3   OH230603   0.081   4.148   2.284  0.4474 -0.0123  0.3551
 3015TIP3    H130604   0.132   4.140   2.203  1.9092 -0.5478  1.2933
 3015TIP3    H230605   0.013   4.081   2.277 -0.1170  0.6568 -0.8825
 3016TIP3   OH230606   6.499   0.432   0.181  0.2135 -0.4025 -0.2720
 3016TIP3    H130607   6.515   0.399   0.093  2.4915 -0.4468  0.0829
 3016TIP3    H230608   6.457   0.359   0.227 -0.3660 -0.6158 -1.1359
 3017TIP3   OH230609   4.429   4.044   2.078  0.2609 -0.1567  0.1761
 3017TIP3    H130610   4.437   3.993   2.158 -0.2226  0.5664  0.7010
 3017TIP3    H230611   4.351   4.010   2.036 -0.1584  0.2592  0.6107
 3018TIP3   OH230612   1.212   1.942   2.750  0.5895 -0.4674  0.1445
 3018TIP3    H130613   1.235   1.994   2.827  0.3020 -0.8706  0.5065
 3018TIP3    H230614   1.292   1.892   2.730  0.8582  0.0795 -0.1894
 3019TIP3   OH230615   3.637   2.919   8.044  0.1198  0.0353  0.0388
 3019TIP3    H130616   3.691   2.841   8.029 -0.7648 -0.4572 -0.6992
 3019TIP3    H230617   3.559   2.885   8.089  0.8513  0.8851  2.0475
 3020TIP3   OH230618   5.906   2.072   0.108  0.6141  0.4944 -1.0257
 3020TIP3    H130619   5.888   1.980   0.088  0.1659  0.6807 -1.4775
 3020TIP3    H230620   6.001   2.075   0.119  0.3539 -0.8427  3.1087
 3021TIP3   OH230621   0.087   3.323   8.140  1.0223 -0.3514  0.6914
 3021TIP3    H130622   0.003   3.337   8.095  0.1904 -1.0926  1.9330
 3021TIP3    H230623   0.115   3.410   8.166  1.1234  0.0049 -0.5396
 3022TIP3   OH230624   6.324   4.375   7.567  0.4003  0.1048  0.2424
 3022TIP3    H130625   6.313   4.468   7.544 -1.3686 -0.5684 -2.1542
 3022TIP3    H230626   6.392   4.344   7.507  1.2889 -0.0835  1.3304
 3023TIP3   OH230627   1.916   3.132   1.420 -0.0612 -0.2334  0.0846
 3023TIP3    H130628   1.969   3.169   1.491 -0.5724  0.7329 -0.0260
 3023TIP3    H230629   1.844   3.087   1.465  0.5822 -1.1378  0.2203
 3024TIP3   OH230630   3.141   4.300   2.478 -0.1260  0.4381 -0.3106
 3024TIP3    H130631   3.143   4.244   2.556 -0.2169 -1.0986 -1.3761
 3024TIP3    H230632   3.090   4.377   2.505 -0.1188 -0.0390  1.1484
 3025TIP3   OH230633   0.346   2.297   0.111 -0.4152  0.0102  0.0843
 3025TIP3    H130634   0.400   2.373   0.089  0.6399  0.3418  3.3341
 3025TIP3    H230635   0.406   2.223   0.106 -0.5919 -0.1418  0.2322
 3026TIP3   OH230636   0.287   4.106   7.118 -0.2754 -0.1147 -0.1098
 3026TIP3    H130637   0.281   4.012   7.102 -1.6206 -0.1785  0.6463
 3026TIP3    H230638   0.218   4.125   7.182 -0.4580  1.4926 -0.7236
 3027TIP3   OH230639   4.744   3.164   0.308  0.5096  0.2673 -0.1080
 3027TIP3    H130640   4.661   3.209   0.298  0.4431  0.5452  1.3718
 3027TIP3    H230641   4.802   3.205   0.244  0.9323  3.7493  2.2240
 3028TIP3   OH230642   1.478   6.143   2.041 -0.3629  0.1549 -0.3594
 3028TIP3    H130643   1.415   6.079   2.074 -0.2220  0.6741  0.9625
 3028TIP3    H230644   1.444   6.227   2.071 -0.1228  0.6420 -1.4056
 3029TIP3   OH230645   5.618   0.950   2.262 -0.0882  0.0634 -0.0980
 3029TIP3    H130646   5.595   1.018   2.325 -0.9329  0.6764 -1.0444
 3029TIP3    H230647   5.557   0.962   2.190  3.6192  2.3306 -3.2015
 3030TIP3   OH230648   0.817   0.981   1.394  0.2184  0.0069 -0.0860
 3030TIP3    H130649   0.743   0.921   1.408 -0.8329  1.2456 -0.1867
 3030TIP3    H230650   0.833   1.020   1.480 -0.4997  1.1412 -0.4554
 3031TIP3   OH230651   0.998   1.520   8.421  0.2256  0.0837  0.1062
 3031TIP3    H130652   0.949   1.562   8.350  0.6366  0.1857 -0.1247
 3031TIP3    H230653   0.955   1.550   8.501  0.2246  0.5835 -0.0754
 3032TIP3   OH230654   4.652   2.645   0.240  0.1379 -0.5325  0.2519
 3032TIP3    H130655   4.668   2.630   0.147  0.8247  0.3855  0.2078
 3032TIP3    H230656   4.714   2.714   0.264 -0.0330 -0.7551  1.3912
 3033TIP3   OH230657   0.964   5.474   0.839  0.2477  0.3035  0.2700
 3033TIP3    H130658   1.043   5.515   0.875 -0.0714  1.2410 -0.0814
 3033TIP3    H230659   0.915   5.546   0.800 -0.4575 -0.3768 -0.1231
 3034TIP3   OH230660   2.970   2.064   7.701 -0.6014 -0.2919  0.4976
 3034TIP3    H130661   2.979   2.087   7.609  0.8880 -0.8772  0.4606
 3034TIP3    H230662   2.950   1.971   7.701  0.8687 -0.6265  0.7709
 3035TIP3   OH230663   6.863   5.412   7.093  0.1402 -0.0062  0.1221
 3035TIP3    H130664   6.942   5.385   7.046 -0.8130 -2.8508 -0.0215
 3035TIP3    H230665   6.821   5.475   7.034  1.6364  0.5759 -0.3686
 3036TIP3   OH230666   3.671   1.224   2.171 -0.4099  0.7932 -0.1559
 3036TIP3    H130667   3.724   1.256   2.243  0.1385 -0.0761 -0.1580
 3036TIP3    H230668   3.713   1.142   2.144 -2.3430 -0.5286  0.5761
 3037TIP3   OH230669   4.714   6.370   7.685  0.1434 -0.4542  0.0423
 3037TIP3    H130670   4.713   6.369   7.589  0.1995 -2.4390  0.0094
 3037TIP3    H230671   4.627   6.401   7.710  0.3053  0.5796 -0.6221
 3038TIP3   OH230672   6.109   1.215   0.592  0.2856  0.2305 -0.5123
 3038TIP3    H130673   6.179   1.219   0.526 -0.2088  0.4933 -1.0341
 3038TIP3    H230674   6.093   1.122   0.604 -0.2894  0.1870 -1.5060
 3039TIP3   OH230675   6.774   5.337   7.353  0.3602 -0.8185 -0.0822
 3039TIP3    H130676   6.780   5.389   7.272  0.3941  0.0314  0.4466
 3039TIP3    H230677   6.815   5.254   7.331  0.3083 -0.6270 -0.9645
 3040TIP3   OH230678   2.753   3.091   7.554 -0.4331 -0.1030 -0.3461
 3040TIP3    H130679   2.670   3.049   7.532 -0.6953  1.2285 -2.0695
 3040TIP3    H230680   2.802   3.094   7.472  0.1155  1.7051 -0.0165
 3041TIP3   OH230681   0.952   0.299   8.120 -0.2959  0.1462 -0.0395
 3041TIP3    H130682   0.917   0.386   8.136  0.9515  0.4646  1.1313
 3041TIP3    H230683   0.893   0.240   8.168 -0.5404  0.4469  0.0275
 3042TIP3   OH230684   1.637   0.293   0.174  0.4939 -0.0357 -0.8964
 3042TIP3    H130685   1.551   0.313   0.211  1.2126 -0.1044  0.9180
 3042TIP3    H230686   1.695   0.285   0.250  1.7902 -1.5703 -1.9650
 3043TIP3   OH230687   5.509   0.144   0.619 -0.3339 -1.0208 -0.2519
 3043TIP3    H130688   5.520   0.224   0.670 -0.6527 -0.6193 -0.8099
 3043TIP3    H230689   5.590   0.095   0.634 -0.6958 -1.2224  1.1798
 3044TIP3   OH230690   1.508   5.097   0.942  0.6080 -0.2731 -0.3159
 3044TIP3    H130691   1.551   5.181   0.955  1.6329 -1.0046  1.2887
 3044TIP3    H230692   1.453   5.085   1.020 -1.5651  0.0355 -1.6955
 3045TIP3   OH230693   1.885   2.489   8.080 -0.6728  0.0628  0.1215
 3045TIP3    H130694   1.805   2.531   8.047 -0.6528 -0.2739 -0.3669
 3045TIP3    H230695   1.854   2.425   8.144 -0.7280  0.5613  0.6035
 3046TIP3   OH230696   5.036   0.681   7.302 -0.0398 -0.2808 -0.0410
 3046TIP3    H130697   5.104   0.737   7.264 -0.8689 -0.3955 -1.7857
 3046TIP3    H230698   4.958   0.737   7.305 -1.3114 -1.6186 -3.2296
 3047TIP3   OH230699   4.503   5.190   2.068 -0.3671  1.0825  0.1358
 3047TIP3    H130700   4.494   5.281   2.094 -0.6044  0.7250  1.3401
 3047TIP3    H230701   4.597   5.174   2.066 -0.3049  0.4605  3.2881
 3048TIP3   OH230702   3.193   1.661   2.244  0.5257 -0.2867  0.5666
 3048TIP3    H130703   3.121   1.627   2.296  0.3524  1.0448  1.2146
 3048TIP3    H230704   3.269   1.611   2.273  0.2452 -0.2455  1.3852
 3049TIP3   OH230705   5.151   0.792   1.892 -0.0121 -0.0529  0.1542
 3049TIP3    H130706   5.062   0.817   1.917 -0.4017 -0.7021 -0.5527
 3049TIP3    H230707   5.199   0.785   1.975 -0.0936  2.1812  0.4533
 3050TIP3   OH230708   2.087   1.939   1.589  0.1513 -0.3539 -0.0923
 3050TIP3    H130709   2.173   1.900   1.609 -0.0749  0.0368  1.9180
 3050TIP3    H230710   2.099   2.032   1.608 -0.2691 -0.0023 -1.4814
 3051TIP3   OH230711   1.598   1.023   8.286  0.0007  0.0632 -0.6408
 3051TIP3    H130712   1.644   1.107   8.287  1.3493 -0.6593 -0.5713
 3051TIP3    H230713   1.534   1.032   8.215 -0.8118  1.6147  0.2148
 3052TIP3   OH230714   5.228   2.176   0.292  0.4363  0.1914 -0.6465
 3052TIP3    H130715   5.204   2.252   0.344  0.4965  0.0700 -0.4388
 3052TIP3    H230716   5.193   2.194   0.205  1.9986  1.2734 -1.0875
 3053TIP3   OH230717   0.783   1.161   2.096  0.3781  0.3682  0.1206
 3053TIP3    H130718   0.712   1.198   2.044  0.9157  0.8227 -0.3102
 3053TIP3    H230719   0.813   1.233   2.152  0.5603  0.2112  0.2279
 3054TIP3   OH230720   5.311   5.783   1.612  0.7297  0.0952 -0.3382
 3054TIP3    H130721   5.326   5.878   1.613  3.1885 -0.2339  0.4885
 3054TIP3    H230722   5.216   5.774   1.623  0.6278  2.4265  1.6041
 3055TIP3   OH230723   0.863   3.810   0.094  0.1935 -0.3362  1.0562
 3055TIP3    H130724   0.808   3.879   0.057  2.2276 -0.0755 -1.8702
 3055TIP3    H230725   0.806   3.733   0.097 -0.6741  0.1717 -0.8164
 3056TIP3   OH230726   6.161   2.871   0.585  0.1946 -0.1913 -0.2929
 3056TIP3    H130727   6.164   2.852   0.679  1.3532  1.6604  0.0975
 3056TIP3    H230728   6.249   2.847   0.553 -0.2947 -1.1198 -0.9980
 3057TIP3   OH230729   5.983   4.220   7.460 -0.4917 -0.3627  0.0380
 3057TIP3    H130730   5.962   4.243   7.551 -0.1218 -1.1326  0.3284
 3057TIP3    H230731   5.906   4.247   7.410 -1.1950 -0.9786  0.7570
 3058TIP3   OH230732   6.048   5.494   1.516  0.1497  0.0797 -0.1007
 3058TIP3    H130733   6.142   5.492   1.500  0.5641  1.1836  1.9183
 3058TIP3    H230734   6.017   5.408   1.488  2.1220 -1.1216  1.1768
 3059TIP3   OH230735   3.913   4.976   1.156 -0.1523  0.1235  0.2209
 3059TIP3    H130736   3.881   5.054   1.111  1.4879  1.2803  0.9454
 3059TIP3    H230737   3.871   4.903   1.111 -0.4815  1.3456 -1.5497
 3060TIP3   OH230738   1.900   6.744   1.095 -0.1724  0.0820 -0.1243
 3060TIP3    H130739   1.807   6.764   1.081 -0.4341 -0.5841  0.5881
 3060TIP3    H230740   1.946   6.809   1.042 -1.0472  0.2260 -0.7412
 3061TIP3   OH230741   6.810   4.299   1.855 -0.2539 -0.5254 -0.2697
 3061TIP3    H130742   6.754   4.237   1.900 -1.2017  0.5499  0.0988
 3061TIP3    H230743   6.772   4.385   1.875  0.7223  0.1455 -1.1411
 3062TIP3   OH230744   4.172   5.996   7.088 -0.6261  0.1635  0.0743
 3062TIP3    H130745   4.219   6.038   7.159 -1.1536 -0.0694  0.5684
 3062TIP3    H230746   4.234   5.996   7.014 -0.3959  1.1957  0.2608
 3063TIP3   OH230747   1.536   2.754   2.094  0.5289  0.3929  0.6661
 3063TIP3    H130748   1.489   2.736   2.013 -0.8576 -1.1059  1.7417
 3063TIP3    H230749   1.613   2.698   2.090  0.6393  0.5695  0.2495
 3064TIP3   OH230750   6.763   4.340   7.419 -0.0063  0.8193 -0.2670
 3064TIP3    H130751   6.781   4.274   7.486  0.2897 -0.8153 -1.8530
 3064TIP3    H230752   6.806   4.419   7.450  0.4401  0.0097  1.2738
 3065TIP3   OH230753   1.727   5.547   8.464 -0.3069  0.1804  0.5594
 3065TIP3    H130754   1.681   5.619   8.506 -0.8785  0.0015  0.2411
 3065TIP3    H230755   1.663   5.476   8.459 -0.4847  0.4167 -1.2051
 3066TIP3   OH230756   0.191   2.681   1.286  0.4014  0.3169  0.1551
 3066TIP3    H130757   0.234   2.733   1.219  0.0619 -0.8172 -1.0040
 3066TIP3    H230758   0.233   2.595   1.280 -0.0252  0.0370  1.0001
 3067TIP3   OH230759   0.365   5.796   1.767  0.2959  0.4231  0.0176
 3067TIP3    H130760   0.331   5.708   1.751  3.4324 -0.9781  0.2946
 3067TIP3    H230761   0.328   5.822   1.851 -0.6638 -0.6266 -0.0639
 3068TIP3   OH230762   4.210   2.566   6.881 -0.2541  0.0278 -0.4069
 3068TIP3    H130763   4.127   2.524   6.857  1.1925 -2.1253 -2.0253
 3068TIP3    H230764   4.220   2.637   6.818  0.4522 -1.5722 -2.2069
 3069TIP3   OH230765   4.181   4.638   0.460  0.0965 -0.0598 -1.0868
 3069TIP3    H130766   4.241   4.632   0.385 -0.0438 -0.0566 -1.1983
 3069TIP3    H230767   4.096   4.657   0.421  0.5372  3.2459 -0.7808
 3070TIP3   OH230768   1.250   3.848   7.360 -0.2423  0.2390 -0.1531
 3070TIP3    H130769   1.260   3.914   7.291 -1.8007  1.4548  0.7223
 3070TIP3    H230770   1.324   3.789   7.347  0.7506  1.6887 -1.4914
 3071TIP3   OH230771   3.451   3.041   7.291  0.1746  0.0466  0.0781
 3071TIP3    H130772   3.537   3.083   7.281  1.1568 -1.9212 -0.3411
 3071TIP3    H230773   3.439   2.993   7.209 -2.4237  2.0241 -0.8331
 3072TIP3   OH230774   3.284   5.490   1.256  0.2390  0.0948  0.1687
 3072TIP3    H130775   3.269   5.476   1.349 -2.0783  1.5474  0.0930
 3072TIP3    H230776   3.203   5.530   1.224  0.6697 -1.0324 -2.6378
 3073TIP3   OH230777   3.905   6.431   7.845 -0.8777  0.5214 -0.4688
 3073TIP3    H130778   3.850   6.389   7.778 -1.4840 -1.7494  1.3300
 3073TIP3    H230779   3.843   6.479   7.899 -0.4163  2.1537 -1.3394
 3074TIP3   OH230780   5.283   6.628   6.921 -0.0849  0.2844  0.3869
 3074TIP3    H130781   5.200   6.658   6.960 -0.6423 -0.3305 -0.3125
 3074TIP3    H230782   5.298   6.542   6.960 -1.0224 -0.6638 -1.2566
 3075TIP3   OH230783   4.018   5.440   0.176  0.3667 -0.1241  0.5078
 3075TIP3    H130784   4.090   5.491   0.214 -0.4471  0.1490  1.7434
 3075TIP3    H230785   4.016   5.359   0.227  0.3937 -0.5519 -0.1555
 3076TIP3   OH230786   6.540   2.621   6.701  0.2490  0.3429  0.1163
 3076TIP3    H130787   6.557   2.555   6.634  0.8410 -0.1983  0.7822
 3076TIP3    H230788   6.479   2.681   6.660 -1.2024 -1.2274 -0.1375
 3077TIP3   OH230789   6.553   4.890   1.702 -0.2466 -0.3148  0.1671
 3077TIP3    H130790   6.621   4.868   1.638 -0.0267  0.6995  0.0207
 3077TIP3    H230791   6.587   4.968   1.747 -1.8258  0.9648 -0.7409
 3078TIP3   OH230792   6.550   0.663   0.964  0.3265  0.0802 -0.0921
 3078TIP3    H130793   6.464   0.699   0.942  0.4185 -0.2150 -0.9772
 3078TIP3    H230794   6.530   0.586   1.016  0.0829  0.4852  0.4260
 3079TIP3   OH230795   6.576   5.628   1.895 -0.6034  0.5838 -1.1910
 3079TIP3    H130796   6.607   5.655   1.982 -0.3297 -2.0607 -0.3730
 3079TIP3    H230797   6.597   5.702   1.838  1.8281  1.2977  0.4596
 3080TIP3   OH230798   6.724   6.472   8.512 -0.1929  0.3404 -0.0120
 3080TIP3    H130799   6.698   6.558   8.546  0.5570  0.0847  1.2932
 3080TIP3    H230800   6.656   6.413   8.542  0.4883  0.1084  1.1599
 3081TIP3   OH230801   4.866   1.908   0.492 -0.1186 -0.0566 -0.1996
 3081TIP3    H130802   4.899   1.823   0.523 -0.2134 -0.6071 -1.5672
 3081TIP3    H230803   4.922   1.972   0.536 -0.6680 -0.7503  1.6340
 3082TIP3   OH230804   5.881   5.598   0.111 -0.7117 -0.1535 -0.2951
 3082TIP3    H130805   5.853   5.518   0.155  0.0825  0.0616  0.6212
 3082TIP3    H230806   5.923   5.567   0.030 -1.7538 -0.5673 -0.6929
 3083TIP3   OH230807   1.062   1.735   0.357 -0.5792  0.1995  0.3287
 3083TIP3    H130808   1.014   1.723   0.275  1.2700  0.3079 -0.8317
 3083TIP3    H230809   1.151   1.759   0.330  1.0075 -2.8845  2.2752
 3084TIP3   OH230810   3.540   5.293   7.785 -0.4303  0.1190  0.0399
 3084TIP3    H130811   3.500   5.350   7.720 -0.7643 -0.3839 -0.1948
 3084TIP3    H230812   3.633   5.293   7.763 -0.1537  1.8515  1.0092
 3085TIP3   OH230813   2.562   6.616   7.491 -0.0248  0.1974 -0.4349
 3085TIP3    H130814   2.644   6.665   7.490  0.2244 -0.1702  0.7091
 3085TIP3    H230815   2.501   6.672   7.442  0.7581  0.7264 -0.8302
 3086TIP3   OH230816   1.199   6.028   1.662 -0.0339  0.0481 -0.9317
 3086TIP3    H130817   1.135   6.088   1.625 -0.3160  0.6854  0.5083
 3086TIP3    H230818   1.218   5.965   1.592 -1.6281  0.3197 -1.6301
 3087TIP3   OH230819   2.317   4.627   7.963 -0.0953 -0.2748 -0.4096
 3087TIP3    H130820   2.273   4.576   7.895  0.7103  0.8136 -1.7966
 3087TIP3    H230821   2.410   4.614   7.947  0.1102  0.1851  0.3452
 3088TIP3   OH230822   0.150   1.290   0.024 -0.2082 -0.2949  0.2965
 3088TIP3    H130823   0.055   1.288   0.023 -0.2269 -0.6948  1.4799
 3088TIP3    H230824   0.176   1.198   0.010  0.0345 -0.0547 -0.9572
 3089TIP3   OH230825   1.714   1.419   2.652  0.4282 -0.6145 -0.5096
 3089TIP3    H130826   1.674   1.503   2.672  2.0291  0.9141 -3.1463
 3089TIP3    H230827   1.757   1.392   2.734  0.5351  1.5326  0.1876
 3090TIP3   OH230828   3.106   2.607   8.012 -0.0453  0.0310 -0.7636
 3090TIP3    H130829   3.078   2.560   7.934 -0.7042  0.4669 -0.8036
 3090TIP3    H230830   3.027   2.654   8.041 -0.0194 -0.7163  0.5950
 3091TIP3   OH230831   0.435   3.090   7.033 -0.4553  0.1035  0.0453
 3091TIP3    H130832   0.451   3.143   6.955  0.2964 -0.3996 -0.1535
 3091TIP3    H230833   0.347   3.055   7.021 -0.2375 -0.1955 -0.7144
 3092TIP3   OH230834   2.041   3.029   3.280 -0.0862 -0.1151  0.2663
 3092TIP3    H130835   1.986   3.090   3.328 -0.1640  1.7144 -1.9642
 3092TIP3    H230836   1.983   2.990   3.215  0.3299 -1.4092  0.6496
 3093TIP3   OH230837   1.889   2.433   0.124  0.2224  0.0958 -0.2527
 3093TIP3    H130838   1.811   2.441   0.180 -0.1375  0.6513 -0.8210
 3093TIP3    H230839   1.933   2.518   0.133 -0.3699  0.5624 -1.5889
 3094TIP3   OH230840   6.754   6.256   0.730  0.4061 -0.2927 -0.2772
 3094TIP3    H130841   6.670   6.250   0.776  1.5602 -0.5236  1.9842
 3094TIP3    H230842   6.747   6.192   0.659 -1.2727 -0.4062 -0.0577
 3095TIP3   OH230843   0.219   5.022   1.875 -0.8603 -0.1606 -0.3825
 3095TIP3    H130844   0.259   5.105   1.851 -0.3729 -0.6167 -1.2029
 3095TIP3    H230845   0.214   5.024   1.971 -0.5359  0.6586 -0.3771
 3096TIP3   OH230846   6.289   1.123   0.046 -0.0589 -0.2650  0.1621
 3096TIP3    H130847   6.270   1.061   0.116  0.8033  0.2823  0.9058
 3096TIP3    H230848   6.292   1.208   0.090  2.2252 -0.1015 -0.1904
 3097TIP3   OH230849   3.131   2.980   0.558  0.0269  0.3406 -0.0932
 3097TIP3    H130850   3.218   3.013   0.581  0.4123 -0.2675 -0.6207
 3097TIP3    H230851   3.102   2.933   0.636 -0.4551  1.7337  0.5991
 3098TIP3   OH230852   1.544   4.249   2.366  0.3930 -0.8961  0.2836
 3098TIP3    H130853   1.499   4.195   2.431  1.6197 -0.5851  1.4191
 3098TIP3    H230854   1.635   4.251   2.395  0.5601  0.9632 -0.2922
 3099TIP3   OH230855   6.099   2.347   1.701  0.2118  0.2830 -0.3166
 3099TIP3    H130856   6.075   2.346   1.794  0.4045 -1.4841 -0.2472
 3099TIP3    H230857   6.173   2.287   1.695  1.1692  1.5242 -1.3980
 3100TIP3   OH230858   6.837   6.023   1.514 -0.0394  0.0004  0.7650
 3100TIP3    H130859   6.831   6.030   1.418 -0.9949 -1.1322  0.7185
 3100TIP3    H230860   6.871   5.934   1.529 -0.4275 -0.0296  1.4875
 3101TIP3   OH230861   2.238   4.903   7.852 -0.0720 -0.0502  0.9570
 3101TIP3    H130862   2.225   4.858   7.769 -3.0223 -0.7357  1.6882
 3101TIP3    H230863   2.261   4.833   7.913  2.1708  0.4618  0.7892
 3102TIP3   OH230864   2.076   1.649   8.068 -0.1309  0.2305  0.0340
 3102TIP3    H130865   2.145   1.709   8.040 -1.5391  1.5479 -0.7293
 3102TIP3    H230866   2.029   1.696   8.137 -0.6182 -0.4203  0.1579
 3103TIP3   OH230867   6.720   6.484   6.896  0.1721  0.3942  0.1255
 3103TIP3    H130868   6.686   6.422   6.832 -0.4536  0.1483  0.6804
 3103TIP3    H230869   6.650   6.550   6.905  0.9449  1.3556 -0.6763
 3104TIP3   OH230870   4.451   3.231   1.553 -0.3323  0.0676 -0.0050
 3104TIP3    H130871   4.454   3.184   1.470 -0.9175 -1.1433  0.6442
 3104TIP3    H230872   4.358   3.244   1.571 -0.1882  1.2840 -0.0539
 3105TIP3   OH230873   1.067   5.251   1.201 -0.1379  0.1072 -0.3579
 3105TIP3    H130874   1.060   5.159   1.227 -0.7388 -0.1297 -1.2847
 3105TIP3    H230875   1.127   5.249   1.126  1.7498  0.7949  1.0656
 3106TIP3   OH230876   2.472   2.374   1.577 -0.2023 -0.3055  0.5526
 3106TIP3    H130877   2.403   2.403   1.516 -0.8987  0.0488  1.4893
 3106TIP3    H230878   2.454   2.281   1.590  0.6772 -0.6774 -0.6972
 3107TIP3   OH230879   6.773   0.531   0.066 -0.7068  0.2756 -0.1347
 3107TIP3    H130880   6.854   0.509   0.112 -1.4591 -1.1583  0.5753
 3107TIP3    H230881   6.768   0.470  -0.007 -1.2618  0.1737 -0.0220
 3108TIP3   OH230882   0.172   5.661   0.124 -0.3575 -0.0078  0.5513
 3108TIP3    H130883   0.229   5.586   0.108 -0.5419 -0.2619  1.0402
 3108TIP3    H230884   0.112   5.631   0.193 -1.9066 -0.1925 -0.8219
 3109TIP3   OH230885   2.805   2.397   2.065  0.6756 -1.0376  0.4445
 3109TIP3    H130886   2.804   2.304   2.086 -0.1055 -1.0423  0.4339
 3109TIP3    H230887   2.869   2.406   1.995  1.7730 -1.3486  1.3786
 3110TIP3   OH230888   2.119   2.739   8.440  0.5537  0.6515 -0.3293
 3110TIP3    H130889   2.034   2.783   8.432  0.0004  0.6722  3.6048
 3110TIP3    H230890   2.184   2.809   8.430 -0.1943  1.8114  2.1785
 3111TIP3   OH230891   5.923   3.781   8.425 -0.6730 -0.1305  0.1965
 3111TIP3    H130892   5.966   3.863   8.450 -0.4206 -0.3172  0.3853
 3111TIP3    H230893   5.960   3.716   8.484 -1.4626 -0.2388  0.5878
 3112TIP3   OH230894   2.158   2.544   7.987  0.0540 -0.4190 -0.0179
 3112TIP3    H130895   2.174   2.451   7.970  1.1132 -0.7791  2.4408
 3112TIP3    H230896   2.082   2.544   8.045  1.8243 -0.0798  2.4619
 3113TIP3   OH230897   5.063   5.887   0.896 -0.1862 -0.1692  1.0847
 3113TIP3    H130898   4.994   5.932   0.945 -2.1902 -0.5598 -1.1492
 3113TIP3    H230899   5.093   5.952   0.832 -0.2991 -0.7654  0.4118
 3114TIP3   OH230900   1.465   1.812   2.717 -0.2801  0.0875  1.0653
 3114TIP3    H130901   1.512   1.761   2.783 -0.0186  0.2302  0.9882
 3114TIP3    H230902   1.533   1.853   2.664 -0.4783  0.8310  1.3668
 3115TIP3   OH230903   0.467   3.543   2.181  0.3656  0.0673  0.2070
 3115TIP3    H130904   0.532   3.507   2.241  0.1866 -0.9692 -0.1970
 3115TIP3    H230905   0.384   3.504   2.208  0.3398 -0.7060 -0.9051
 3116TIP3   OH230906   4.185   6.652   2.328  0.3264 -0.6539  0.4594
 3116TIP3    H130907   4.137   6.588   2.275  0.9663 -1.1836  0.5097
 3116TIP3    H230908   4.166   6.628   2.418 -0.9311  0.3740  0.5043
 3117TIP3   OH230909   4.158   1.106   0.006  0.5022  0.1370  0.5646
 3117TIP3    H130910   4.156   1.124  -0.088  0.2765  2.1444  0.9016
 3117TIP3    H230911   4.246   1.070   0.021  1.5359  2.2380 -0.0682
 3118TIP3   OH230912   1.021   4.327   0.028 -0.5137  0.1323 -0.3236
 3118TIP3    H130913   0.998   4.419   0.043  0.6602  0.5495 -0.8978
 3118TIP3    H230914   1.105   4.331  -0.019 -0.7781 -1.2242 -0.9598
 3119TIP3   OH230915   6.847   1.821   7.029  0.2854  0.1406 -0.1799
 3119TIP3    H130916   6.853   1.913   7.056 -0.8697 -0.2802  1.7280
 3119TIP3    H230917   6.879   1.820   6.939  2.1445  2.1043  0.3741
 3120TIP3   OH230918   2.917   3.073   8.510 -0.6088 -0.1954  0.3187
 3120TIP3    H130919   2.854   3.144   8.527 -0.4691 -0.0107  0.0771
 3120TIP3    H230920   2.867   3.007   8.463 -0.2431  0.6730 -1.3896
 3121TIP3   OH230921   5.407   2.885   1.043 -0.1314 -0.0768 -0.2013
 3121TIP3    H130922   5.502   2.889   1.043 -0.1290  0.7242  1.4070
 3121TIP3    H230923   5.384   2.842   0.961  1.6692 -1.5281 -0.0028
 3122TIP3   OH230924   1.442   2.469   7.655  0.1450  0.8404 -0.4431
 3122TIP3    H130925   1.523   2.423   7.632  0.9980  1.7473  0.6231
 3122TIP3    H230926   1.472   2.548   7.701 -1.3862  0.0099  2.1720
 3123TIP3   OH230927   0.461   5.850   7.019 -0.0146  0.4931 -0.2705
 3123TIP3    H130928   0.492   5.887   6.936  0.1035 -0.1895 -0.5380
 3123TIP3    H230929   0.508   5.768   7.027 -1.9018 -0.6989 -0.8010
 3124TIP3   OH230930   2.890   2.762   1.169  0.5315 -0.2949  0.3247
 3124TIP3    H130931   2.926   2.677   1.194  0.6899  0.4242  2.7437
 3124TIP3    H230932   2.808   2.770   1.218  0.6829  1.0929  0.4037
 3125TIP3   OH230933   4.125   0.989   2.686  0.2473  0.7989 -0.3497
 3125TIP3    H130934   4.112   0.914   2.744 -0.8876  0.8220 -0.5607
 3125TIP3    H230935   4.217   0.984   2.661  1.3203  1.8821  2.9332
 3126TIP3   OH230936   5.981   1.273   7.936 -0.2752  0.3077  0.2105
 3126TIP3    H130937   5.919   1.207   7.905  0.9595 -0.1998 -1.3289
 3126TIP3    H230938   5.966   1.278   8.030 -1.4854 -1.0270  0.1142
 3127TIP3   OH230939   4.537   3.305   2.565  0.0725 -0.5609 -0.5186
 3127TIP3    H130940   4.582   3.317   2.481 -1.8120  0.0450 -1.5081
 3127TIP3    H230941   4.594   3.247   2.615  2.2831  0.7822 -1.3778
 3128TIP3   OH230942   0.364   6.549   8.041 -0.0796  0.1698  0.0445
 3128TIP3    H130943   0.423   6.618   8.010 -1.0841  0.8742 -0.3391
 3128TIP3    H230944   0.320   6.587   8.117 -0.4557 -0.1368 -0.0168
 3129TIP3   OH230945   3.875   0.602   1.080  0.4896 -0.1434 -0.2258
 3129TIP3    H130946   3.897   0.690   1.049 -2.7638  1.5124  1.5750
 3129TIP3    H230947   3.829   0.562   1.006 -0.0529  0.6197 -0.3180
 3130TIP3   OH230948   2.431   3.975   8.380  0.2575  0.0642  0.1840
 3130TIP3    H130949   2.508   4.031   8.393  0.8871 -1.0362  1.4830
 3130TIP3    H230950   2.467   3.886   8.378 -0.7468 -0.3444 -1.5478
 3131TIP3   OH230951   4.322   6.760   1.553 -0.1808  0.1719 -0.6258
 3131TIP3    H130952   4.334   6.720   1.467 -1.0556  2.5959 -1.9712
 3131TIP3    H230953   4.230   6.746   1.574  0.0347 -0.4314 -0.0365
 3132TIP3   OH230954   0.513   1.714   2.829  0.0603  0.0142 -0.0179
 3132TIP3    H130955   0.607   1.697   2.831 -0.2449 -1.8226  0.4329
 3132TIP3    H230956   0.499   1.763   2.748  1.5653  1.5786  0.5949
 3133TIP3   OH230957   2.092   1.490   0.175  0.0290 -0.3398  0.6481
 3133TIP3    H130958   2.169   1.546   0.188 -0.7946  1.0670 -0.2675
 3133TIP3    H230959   2.039   1.505   0.253 -0.9071  1.4214 -0.2709
 3134TIP3   OH230960   4.100   2.458   7.319  0.3631 -0.0120  0.3788
 3134TIP3    H130961   4.167   2.474   7.252  1.1845  1.1883  1.4396
 3134TIP3    H230962   4.029   2.518   7.296  0.9501  0.9417  0.9484
 3135TIP3   OH230963   1.730   5.344   1.193 -0.5473  0.0729 -0.2891
 3135TIP3    H130964   1.775   5.279   1.138  1.1351  0.5130  0.4898
 3135TIP3    H230965   1.734   5.307   1.281 -0.8425  0.5901 -0.0555
 3136TIP3   OH230966   3.523   6.820   1.516 -0.1305 -0.0197  0.0758
 3136TIP3    H130967   3.434   6.851   1.502 -0.4030 -1.4515 -1.7580
 3136TIP3    H230968   3.514   6.748   1.578 -0.2742 -0.2322 -0.1897
 3137TIP3   OH230969   2.534   0.411   2.087 -0.2376 -0.1351  0.3659
 3137TIP3    H130970   2.508   0.398   2.178 -1.9221 -1.9301 -0.3192
 3137TIP3    H230971   2.577   0.497   2.087 -0.4786  0.0584  2.7674
 3138TIP3   OH230972   4.023   2.864   1.340  0.1846  0.1371  0.7598
 3138TIP3    H130973   4.095   2.913   1.299 -1.9311  1.5883 -1.4682
 3138TIP3    H230974   4.039   2.773   1.315  2.9892 -0.2068  3.1623
 3139TIP3   OH230975   3.085   2.135   1.754 -0.1858 -0.5281 -0.5113
 3139TIP3    H130976   3.033   2.057   1.774 -0.8582 -0.2207 -1.0036
 3139TIP3    H230977   3.121   2.163   1.838 -1.0382 -0.5979 -0.1129
 3140TIP3   OH230978   1.469   5.293   2.127 -0.1361 -0.2619  0.1998
 3140TIP3    H130979   1.414   5.314   2.202 -2.2563 -2.0132 -0.7450
 3140TIP3    H230980   1.526   5.370   2.116 -2.9039  2.0343  0.8105
 3141TIP3   OH230981   1.131   1.480   1.239 -0.4513  0.7828 -0.4014
 3141TIP3    H130982   1.072   1.546   1.202 -2.2450 -0.2711  0.4430
 3141TIP3    H230983   1.079   1.399   1.240  0.3684  0.2001  2.0625
 3142TIP3   OH230984   0.594   0.192   6.828 -0.1904  0.1489  0.1151
 3142TIP3    H130985   0.686   0.185   6.857  0.2270  2.1546 -0.5777
 3142TIP3    H230986   0.598   0.247   6.750 -1.7852 -1.4842 -1.1887
 3143TIP3   OH230987   2.696   4.636   2.039 -0.1840 -0.2011 -0.2487
 3143TIP3    H130988   2.725   4.573   2.105  1.9670  0.4839 -0.4732
 3143TIP3    H230989   2.642   4.584   1.978  0.8979 -1.6687 -0.0025
 3144TIP3   OH230990   2.327   2.768   1.971 -0.1081 -0.5496 -0.2574
 3144TIP3    H130991   2.304   2.760   2.063  0.2301  2.2034  0.1527
 3144TIP3    H230992   2.399   2.832   1.969 -0.7375  0.1968 -2.4793
 3145TIP3   OH230993   1.207   0.832   2.483 -0.1564 -0.6550  0.2605
 3145TIP3    H130994   1.278   0.835   2.547  0.9050  0.2882 -0.9054
 3145TIP3    H230995   1.236   0.766   2.420 -0.3981 -0.3791 -0.1386
 3146TIP3   OH230996   6.089   6.889   1.040  0.5896  0.0918 -0.2939
 3146TIP3    H130997   6.150   6.828   1.080  1.4543 -0.5994 -2.5284
 3146TIP3    H230998   6.069   6.851   0.955 -1.1791  1.4666 -0.5540
 3147TIP3   OH230999   0.440   2.871   0.226  1.2228 -0.1423  0.0115
 3147TIP3    H131000   0.492   2.930   0.281  0.4010  1.3063 -0.7058
 3147TIP3    H231001   0.456   2.900   0.137  0.4370 -0.7129 -0.3300
 3148TIP3   OH231002   1.898   5.443   2.924 -0.6049 -0.3246 -0.7072
 3148TIP3    H131003   1.903   5.375   2.857 -1.3748 -0.7573 -0.3349
 3148TIP3    H231004   1.970   5.502   2.903  0.4290 -1.5508 -0.6990
 3149TIP3   OH231005   2.124   3.223   8.245  0.6653  0.2944 -0.8487
 3149TIP3    H131006   2.166   3.137   8.240  0.8554  0.3300 -0.0670
 3149TIP3    H231007   2.054   3.220   8.180 -2.0818 -1.9792  1.9120
 3150TIP3   OH231008   5.044   3.382   0.256  0.0852  0.0621  0.2048
 3150TIP3    H131009   5.057   3.288   0.272  1.0069  0.0998 -0.2511
 3150TIP3    H231010   5.117   3.406   0.199  0.8256  1.4195  1.6454
 3151TIP3   OH231011   3.597   0.090   8.482  0.3103  0.1085 -0.2174
 3151TIP3    H131012   3.597   0.117   8.390 -1.0200 -1.9605 -0.9025
 3151TIP3    H231013   3.678   0.041   8.494  0.4206  0.2659 -0.3249
 3152TIP3   OH231014   3.410   3.531   1.224 -0.3090  0.0001 -0.4320
 3152TIP3    H131015   3.396   3.548   1.318 -0.7942  1.3547 -0.7339
 3152TIP3    H231016   3.485   3.471   1.222  0.7508  1.1938  0.7893
 3153TIP3   OH231017   2.487   2.318   1.270 -0.1508 -0.1155 -0.0566
 3153TIP3    H131018   2.460   2.230   1.244  2.4421 -0.6127 -1.5307
 3153TIP3    H231019   2.563   2.304   1.327 -0.2176  1.1565  0.3790
 3154TIP3   OH231020   4.805   6.024   1.762 -0.4626 -0.2734 -0.2731
 3154TIP3    H131021   4.717   5.987   1.754 -0.5690 -0.0886  0.0151
 3154TIP3    H231022   4.801   6.078   1.841 -0.0791 -0.2957 -0.2352
 3155TIP3   OH231023   0.010   5.503   0.754  0.4297  0.1414 -0.4990
 3155TIP3    H131024   0.098   5.466   0.754  0.0357 -0.8247 -0.5627
 3155TIP3    H231025  -0.023   5.489   0.665 -0.2234 -0.5916 -0.1531
 3156TIP3   OH231026   5.567   3.768   1.058 -0.3550 -0.1609 -0.1962
 3156TIP3    H131027   5.521   3.684   1.068  0.9683 -0.8078  0.8860
 3156TIP3    H231028   5.622   3.774   1.137  0.0615  1.4272 -0.5737
 3157TIP3   OH231029   1.517   6.196   1.599  0.1695 -0.8133  0.3436
 3157TIP3    H131030   1.429   6.231   1.610  0.7213  0.7825 -0.0627
 3157TIP3    H231031   1.511   6.106   1.631 -1.9295 -1.2131 -0.9805
 3158TIP3   OH231032   5.542   6.603   0.465  0.3487 -0.3249 -0.1893
 3158TIP3    H131033   5.568   6.585   0.556  2.2834 -0.2029 -0.6589
 3158TIP3    H231034   5.625   6.621   0.420 -0.6756  0.8298 -1.7244
 3159TIP3   OH231035   5.357   6.852   0.457 -0.0109  0.0499  0.0591
 3159TIP3    H131036   5.385   6.925   0.512  0.6259 -0.2097  0.0871
 3159TIP3    H231037   5.435   6.797   0.447 -0.0610  0.1795 -1.2542
 3160TIP3   OH231038   6.867   4.779   1.208  0.1004 -0.1010 -0.0884
 3160TIP3    H131039   6.889   4.775   1.301  2.0439  1.3780 -0.4061
 3160TIP3    H231040   6.841   4.690   1.185 -0.2022 -0.5485  1.7923
 3161TIP3   OH231041   4.249   6.872   0.599 -0.1066  0.7863  0.4356
 3161TIP3    H131042   4.250   6.796   0.658 -0.5754  0.5956  0.1980
 3161TIP3    H231043   4.341   6.897   0.591  0.0724  0.1153  0.3530
 3162TIP3   OH231044   2.131   1.787   1.303 -0.3214  0.2864  0.5043
 3162TIP3    H131045   2.105   1.855   1.366  0.2678  1.2869 -0.3039
 3162TIP3    H231046   2.050   1.763   1.259 -0.2364  2.1391 -0.7914
 3163TIP3   OH231047   2.906   2.153   8.400  0.0778 -0.3089  0.2302
 3163TIP3    H131048   2.929   2.134   8.491  1.6303 -0.1212 -0.0971
 3163TIP3    H231049   2.951   2.236   8.382  0.2544 -0.6440 -0.8812
 3164TIP3   OH231050   4.547   0.102   0.625  0.5417 -0.3377 -0.3710
 3164TIP3    H131051   4.512   0.189   0.645 -1.5176 -1.2737  0.3297
 3164TIP3    H231052   4.566   0.105   0.531  0.8828  0.9743 -0.2798
 3165TIP3   OH231053   1.053   3.020   7.169 -0.3890 -0.0090 -0.0110
 3165TIP3    H131054   1.083   2.930   7.155  2.3494  0.8167 -0.0517
 3165TIP3    H231055   1.076   3.039   7.260  1.5249  1.4518 -0.7467
 3166TIP3   OH231056   6.668   6.569   8.236 -0.1485 -0.5581  0.0324
 3166TIP3    H131057   6.715   6.549   8.317  0.3274 -0.0575 -0.1148
 3166TIP3    H231058   6.737   6.573   8.169 -0.7604 -3.6933 -0.9582
 3167TIP3   OH231059   3.175   3.455   7.740  0.0916 -0.0359 -0.4145
 3167TIP3    H131060   3.114   3.394   7.699  0.3490 -0.0201 -0.8260
 3167TIP3    H231061   3.217   3.405   7.810  0.6090 -0.4644 -1.0212
 3168TIP3   OH231062   1.666   0.715   7.768  0.4144 -0.1836  0.4159
 3168TIP3    H131063   1.572   0.731   7.770  0.5988  0.9385  1.5025
 3168TIP3    H231064   1.677   0.642   7.707 -1.0690  0.2183 -0.3827
 3169TIP3   OH231065   2.008   5.701   7.841 -0.5018 -0.6794  0.0217
 3169TIP3    H131066   2.017   5.627   7.900  0.0056 -0.6856 -0.0599
 3169TIP3    H231067   2.022   5.778   7.897 -1.7343 -0.6062  0.2505
 3170TIP3   OH231068   2.917   0.984   7.729  0.2638  0.2303 -0.0474
 3170TIP3    H131069   2.990   0.993   7.789  1.2674 -1.8774 -0.8823
 3170TIP3    H231070   2.839   0.991   7.784  1.1277 -0.2725  1.2636
 3171TIP3   OH231071   4.456   6.310   1.187 -0.3393 -0.2426 -0.5063
 3171TIP3    H131072   4.409   6.340   1.265  0.3221  0.2956 -0.3104
 3171TIP3    H231073   4.388   6.305   1.119 -1.0066 -1.1195  0.1885
 3172TIP3   OH231074   0.366   0.087   7.724  0.2123 -0.2141 -0.4923
 3172TIP3    H131075   0.340   0.138   7.647 -0.6302 -0.0180 -0.0825
 3172TIP3    H231076   0.299   0.020   7.732  0.1783 -0.1003  0.2046
 3173TIP3   OH231077   0.453   5.805   7.582 -0.3945 -0.8766 -0.5328
 3173TIP3    H131078   0.517   5.739   7.554  0.3990 -0.0790 -0.6528
 3173TIP3    H231079   0.503   5.865   7.637 -1.2246 -0.6634  0.0060
 3174TIP3   OH231080   4.296   6.742   8.003  0.3651 -0.3266 -0.3758
 3174TIP3    H131081   4.328   6.655   7.979  0.2697 -0.6974  0.7914
 3174TIP3    H231082   4.223   6.726   8.063  2.0353  0.5102  2.0573
 3175TIP3   OH231083   0.607   0.772   1.452  0.0389 -0.2290  0.1488
 3175TIP3    H131084   0.539   0.834   1.479 -0.1010 -0.4855  0.3931
 3175TIP3    H231085   0.559   0.692   1.432  0.0326  0.2084 -1.7491
 3176TIP3   OH231086   4.779   6.039   6.665  0.1228 -0.2016 -0.3432
 3176TIP3    H131087   4.727   6.083   6.732 -1.3284 -0.8403 -1.0101
 3176TIP3    H231088   4.785   5.948   6.695  1.8813  0.0782  0.3021
 3177TIP3   OH231089   5.587   1.689   0.249 -0.5089 -0.0203  0.1028
 3177TIP3    H131090   5.676   1.682   0.283 -1.5030 -1.2683  2.6641
 3177TIP3    H231091   5.578   1.781   0.224  1.5184  0.0978 -0.3861
 3178TIP3   OH231092   6.824   2.010   0.031 -0.0727 -0.2475 -0.0603
 3178TIP3    H131093   6.856   1.947   0.095 -1.4186 -0.0497  0.8451
 3178TIP3    H231094   6.738   1.976   0.005 -0.4764  0.8004 -0.1262
 3179TIP3   OH231095   0.416   1.760   1.472  0.0595  0.3004  0.2237
 3179TIP3    H131096   0.434   1.783   1.563  0.0305  0.7287  0.1241
 3179TIP3    H231097   0.453   1.832   1.421  0.0886  0.0562 -0.1032
 3180TIP3   OH231098   6.255   1.630   0.706  0.2718 -0.6048 -0.1019
 3180TIP3    H131099   6.196   1.564   0.742  0.9128  0.2486  2.8254
 3180TIP3    H231100   6.203   1.677   0.641 -1.0011 -2.2676 -0.3442
 3181TIP3   OH231101   6.644   2.426   6.546 -0.1212 -0.5582 -0.1711
 3181TIP3    H131102   6.719   2.445   6.603 -1.0073 -0.6712  1.0679
 3181TIP3    H231103   6.677   2.361   6.484  1.6812  1.6279 -1.6582
 3182TIP3   OH231104   1.888   6.733   8.605  0.8595  0.4054  0.4383
 3182TIP3    H131105   1.963   6.792   8.594  0.5442  0.6834 -0.2902
 3182TIP3    H231106   1.830   6.779   8.665  0.4033  1.0566 -0.4855
 3183TIP3   OH231107   3.169   0.897   0.439 -0.4373 -0.3010  0.4393
 3183TIP3    H131108   3.123   0.858   0.513 -1.3906  0.1972  0.1253
 3183TIP3    H231109   3.210   0.976   0.474 -0.5651 -0.2712  0.5221
 3184TIP3   OH231110   1.421   4.385   1.422  0.6001  0.4584 -0.0211
 3184TIP3    H131111   1.481   4.434   1.366  2.1581  0.0018  1.1952
 3184TIP3    H231112   1.396   4.309   1.369  2.8502 -0.5075  0.1930
 3185TIP3   OH231113   1.036   0.495   2.659  0.4521  0.3216 -0.5554
 3185TIP3    H131114   1.019   0.577   2.707  2.7525  0.9497 -0.6883
 3185TIP3    H231115   1.023   0.518   2.567 -3.5872 -0.7892 -0.4718
 3186TIP3   OH231116   0.803   3.026   7.254  0.8637 -0.3724  0.4694
 3186TIP3    H131117   0.752   2.971   7.195  0.5769 -1.7506  1.9102
 3186TIP3    H231118   0.893   3.019   7.222  0.5874 -0.3826 -0.3121
 3187TIP3   OH231119   5.827   1.074   0.163 -0.0010 -0.2247  0.1039
 3187TIP3    H131120   5.892   1.126   0.115  1.4322  0.2557  2.4243
 3187TIP3    H231121   5.816   0.995   0.110  2.2538 -0.1738 -0.5270
 3188TIP3   OH231122   3.859   6.785   0.292  0.1528 -0.0393  0.2313
 3188TIP3    H131123   3.842   6.708   0.345 -0.4261  0.7228  1.1913
 3188TIP3    H231124   3.945   6.815   0.321  0.9366 -1.0047 -1.0192
 3189TIP3   OH231125   2.516   0.710   1.170  0.5245  0.0815 -0.4034
 3189TIP3    H131126   2.568   0.630   1.179 -1.3655 -1.0895  0.6330
 3189TIP3    H231127   2.530   0.757   1.253 -0.7059 -0.6749  0.2638
 3190TIP3   OH231128   3.097   2.336   1.344  0.5446 -0.0748  0.2401
 3190TIP3    H131129   3.033   2.268   1.323 -0.0309  0.5142  0.0359
 3190TIP3    H231130   3.093   2.345   1.439  1.1491 -0.8199  0.3472
 3191TIP3   OH231131   5.736   6.165   0.787 -0.0114 -0.3107 -0.1666
 3191TIP3    H131132   5.665   6.226   0.768  0.0033 -0.0914  0.4715
 3191TIP3    H231133   5.750   6.173   0.881 -1.1569 -2.5259  0.2654
 3192TIP3   OH231134   3.089   1.733   1.571 -0.2810  0.3353 -0.0916
 3192TIP3    H131135   3.061   1.824   1.561  4.0277  1.8064 -0.8689
 3192TIP3    H231136   3.031   1.698   1.638 -2.2326  3.5818  0.1639
 3193TIP3   OH231137   4.446   2.902   0.466  0.0439 -0.6628  0.3793
 3193TIP3    H131138   4.458   2.924   0.558 -2.2104 -1.8376  1.0257
 3193TIP3    H231139   4.457   2.986   0.420 -0.8311  0.3698  1.9542
 3194TIP3   OH231140   0.472   4.902   3.011 -0.5967 -0.2025  0.0220
 3194TIP3    H131141   0.446   4.852   2.934 -0.9510 -0.1538  0.1087
 3194TIP3    H231142   0.438   4.990   2.996  0.3805  0.1326 -0.3188
 3195TIP3   OH231143   0.266   3.827   0.636 -0.0717  0.2817 -0.1077
 3195TIP3    H131144   0.212   3.849   0.712  0.3628 -1.7309  0.8473
 3195TIP3    H231145   0.205   3.788   0.574  0.1822 -1.9014  0.9310
 3196TIP3   OH231146   4.692   2.621   2.843  0.1124 -0.1513  0.2248
 3196TIP3    H131147   4.729   2.533   2.829 -0.5449 -0.0987 -2.1499
 3196TIP3    H231148   4.765   2.680   2.824 -0.6490 -0.0966 -2.9948
 3197TIP3   OH231149   0.737   4.670   7.665  0.1225 -1.1427 -0.2147
 3197TIP3    H131150   0.680   4.679   7.741 -1.5071  1.7997 -1.6611
 3197TIP3    H231151   0.689   4.613   7.605  1.4194 -3.4858  0.8261
 3198TIP3   OH231152   4.558   3.728   1.282 -0.2691 -0.0159  0.5348
 3198TIP3    H131153   4.592   3.652   1.234  1.4223  0.6347  0.6499
 3198TIP3    H231154   4.486   3.693   1.334  0.1553 -1.4467  0.1994
 3199TIP3   OH231155   0.239   4.666   7.012 -0.4005 -0.3167 -0.2596
 3199TIP3    H131156   0.152   4.704   7.018 -0.6527 -0.9287  0.0779
 3199TIP3    H231157   0.224   4.579   6.972 -0.0933 -0.8876  0.8341
 3200TIP3   OH231158   6.823   1.643   7.719  0.2351  0.0936 -0.1901
 3200TIP3    H131159   6.766   1.646   7.642 -1.4257  2.0596  1.0075
 3200TIP3    H231160   6.866   1.729   7.721  2.0669 -0.7708 -0.1604
 3201TIP3   OH231161   2.680   4.256   1.915 -0.1248 -0.0769 -0.3594
 3201TIP3    H131162   2.589   4.231   1.899 -0.2910 -0.1831  0.6672
 3201TIP3    H231163   2.676   4.313   1.992  1.0321 -3.2651  2.2864
 3202TIP3   OH231164   4.320   1.116   2.407 -0.3241  0.1391 -0.8750
 3202TIP3    H131165   4.374   1.070   2.342 -1.0185 -1.4649 -0.3843
 3202TIP3    H231166   4.343   1.075   2.490  0.1683  1.8149 -0.1478
 3203TIP3   OH231167   3.819   0.506   1.756 -0.1067 -0.6134 -0.5468
 3203TIP3    H131168   3.846   0.598   1.759 -1.6429 -0.1520  0.2221
 3203TIP3    H231169   3.896   0.459   1.723  1.2195  0.7378  0.5129
 3204TIP3   OH231170   1.207   5.968   0.005  0.0504 -0.1166  0.3815
 3204TIP3    H131171   1.223   5.961   0.099  0.6492  2.0256  0.4899
 3204TIP3    H231172   1.205   5.878  -0.026  0.0787 -0.8593  2.4044
 3205TIP3   OH231173   0.732   3.554   8.137 -0.2846 -0.0389 -0.3208
 3205TIP3    H131174   0.727   3.460   8.123 -0.7634 -0.3001  1.3839
 3205TIP3    H231175   0.640   3.582   8.142 -0.1481  0.5483 -0.9044
 3206TIP3   OH231176   1.046   2.748   8.557  0.0746 -0.0615  0.9654
 3206TIP3    H131177   1.130   2.711   8.586  0.5783  0.7719  0.6144
 3206TIP3    H231178   1.044   2.730   8.463  0.1220  0.4113  0.8739
 3207TIP3   OH231179   6.342   5.262   7.271  0.6300 -0.9543 -0.0185
 3207TIP3    H131180   6.326   5.352   7.299 -1.1118 -1.3874  0.4836
 3207TIP3    H231181   6.429   5.265   7.229  0.2068  1.1408 -0.8736
 3208TIP3   OH231182   6.566   0.704   7.782 -0.4686 -0.2620  0.2409
 3208TIP3    H131183   6.607   0.647   7.717 -0.1043  0.5223 -0.2357
 3208TIP3    H231184   6.475   0.677   7.785 -0.1363 -1.3844  0.5986
 3209TIP3   OH231185   0.933   6.450   2.442  0.5002  0.2115 -0.2101
 3209TIP3    H131186   0.927   6.511   2.516  1.0044  0.1961 -0.1524
 3209TIP3    H231187   1.026   6.431   2.434  0.3235 -0.8039 -0.0315
 3210TIP3   OH231188   0.387   0.029   6.704  0.4393  0.2588 -0.4903
 3210TIP3    H131189   0.316   0.090   6.683  0.4080  0.1887 -0.5871
 3210TIP3    H231190   0.444   0.079   6.763 -0.3321 -0.0791  0.5844
 3211TIP3   OH231191   5.557   2.990   1.317 -0.3014 -0.1471 -0.2432
 3211TIP3    H131192   5.594   3.030   1.395 -2.8677  1.9079  0.0806
 3211TIP3    H231193   5.581   3.049   1.246  1.6201 -1.7572 -1.0256
 3212TIP3   OH231194   6.475   2.205   6.468  0.1678  0.6990 -0.3946
 3212TIP3    H131195   6.522   2.277   6.427  1.5814 -0.0159 -0.1182
 3212TIP3    H231196   6.517   2.126   6.433 -0.4927  0.0434  0.2602
 3213TIP3   OH231197   6.636   6.862   1.539  0.2581 -0.0929  0.1870
 3213TIP3    H131198   6.575   6.923   1.497  0.4984  1.2061  1.6414
 3213TIP3    H231199   6.579   6.797   1.579 -0.0378 -0.3652 -0.6390
 3214TIP3   OH231200   6.729   0.759   2.145 -0.1590 -0.3371  0.0156
 3214TIP3    H131201   6.662   0.704   2.104  0.5617 -1.3399  0.1463
 3214TIP3    H231202   6.811   0.716   2.124  0.4576  0.8580 -0.1084
 3215TIP3   OH231203   3.693   4.991   0.307  0.2324  0.2355  0.1325
 3215TIP3    H131204   3.688   4.965   0.215 -1.0728  2.1673 -0.4094
 3215TIP3    H231205   3.733   5.078   0.305  1.0535 -0.0886  1.4896
 3216TIP3   OH231206   6.268   1.743   8.397 -0.3575  0.2456  0.2666
 3216TIP3    H131207   6.363   1.735   8.407  0.0297  2.4713 -0.9872
 3216TIP3    H231208   6.232   1.696   8.473  1.7271 -0.6437  0.7688
 3217TIP3   OH231209   1.866   1.925   7.399  0.2025  0.4015 -0.5786
 3217TIP3    H131210   1.905   1.947   7.314 -1.5711  1.4454 -1.1945
 3217TIP3    H231211   1.805   1.854   7.380 -0.1681  0.6096 -0.1978
 3218TIP3   OH231212   4.363   3.651   0.877  0.4451  0.2895  0.3201
 3218TIP3    H131213   4.391   3.738   0.904  0.0718  0.9504 -1.3150
 3218TIP3    H231214   4.432   3.621   0.819 -0.4984  0.4582 -0.9193
 3219TIP3   OH231215   1.562   4.289   1.979 -0.0314 -0.1027  0.1871
 3219TIP3    H131216   1.499   4.348   1.938 -1.5557 -0.5482  1.7583
 3219TIP3    H231217   1.625   4.348   2.021 -1.0539  0.4456  1.0196
 3220TIP3   OH231218   0.070   1.942   0.511  0.2546 -0.0338  0.3201
 3220TIP3    H131219   0.116   1.929   0.427 -1.0990 -2.7272 -0.1020
 3220TIP3    H231220  -0.019   1.966   0.486  0.7549  3.1385  1.1271
 3221TIP3   OH231221   1.110   3.371   0.501  0.2983 -0.2476  0.2301
 3221TIP3    H131222   1.161   3.397   0.577  0.9386 -0.0842 -0.2495
 3221TIP3    H231223   1.175   3.346   0.435 -0.2599 -1.4361  0.0958
 3222TIP3   OH231224   5.655   6.777   8.594  0.2063 -0.2784 -0.2228
 3222TIP3    H131225   5.587   6.826   8.546  0.5319  1.3408  0.8892
 3222TIP3    H231226   5.635   6.685   8.576 -1.5553  0.1903 -0.8934
 3223TIP3   OH231227   2.087   2.546   1.123  0.1355  0.1410  0.2279
 3223TIP3    H131228   2.122   2.483   1.060 -0.5880  2.1267 -2.3347
 3223TIP3    H231229   2.002   2.510   1.149 -0.6076  0.3566 -1.7830
 3224TIP3   OH231230   4.352   2.091   7.718 -0.2920 -0.9282 -0.0755
 3224TIP3    H131231   4.314   2.003   7.729  1.7949 -1.9349 -0.3554
 3224TIP3    H231232   4.427   2.077   7.661 -0.9723  1.3957 -1.6598
 3225TIP3   OH231233   6.181   4.215   0.431  0.5252 -0.4935 -0.6330
 3225TIP3    H131234   6.115   4.189   0.368  0.1387  0.7988 -0.7934
 3225TIP3    H231235   6.159   4.168   0.511  0.5806 -1.5681 -1.2339
 3226TIP3   OH231236   6.357   2.809   7.612  0.4853 -0.2438 -0.4358
 3226TIP3    H131237   6.278   2.757   7.599 -0.1469  0.0964  1.6694
 3226TIP3    H231238   6.425   2.744   7.629 -0.2861 -0.5165  2.1041
 3227TIP3   OH231239   1.340   4.475   6.964 -0.2855  0.2885 -0.1321
 3227TIP3    H131240   1.417   4.441   6.919 -1.3009  0.1399 -1.8545
 3227TIP3    H231241   1.272   4.409   6.949 -1.4560  1.6098 -0.9536
 3228TIP3   OH231242   2.899   3.870   1.529  0.3882  0.0924  0.1386
 3228TIP3    H131243   2.880   3.962   1.511 -4.2712 -0.5861  0.3229
 3228TIP3    H231244   2.879   3.859   1.622  0.5676 -1.1678  0.0428
 3229TIP3   OH231245   5.894   4.363   1.776  0.4248  0.2233  0.1683
 3229TIP3    H131246   5.939   4.369   1.861  0.4733  0.7220  0.1078
 3229TIP3    H231247   5.805   4.394   1.793  0.6595  1.0890 -0.1312
 3230TIP3   OH231248   5.332   5.006   0.123 -0.2415  0.6959 -0.0965
 3230TIP3    H131249   5.360   4.971   0.208  0.3011  0.8051 -0.2297
 3230TIP3    H231250   5.353   4.936   0.061 -2.1633 -0.0802  0.0639
 3231TIP3   OH231251   6.749   3.619   2.360 -0.1663 -0.4869  0.0704
 3231TIP3    H131252   6.722   3.683   2.426 -3.3928 -0.3466 -1.2207
 3231TIP3    H231253   6.778   3.543   2.410 -1.3905  0.0309  1.6318
 3232TIP3   OH231254   6.564   3.452   1.334 -0.0079  0.0177 -0.4846
 3232TIP3    H131255   6.523   3.365   1.329 -2.3802  1.0170  0.0660
 3232TIP3    H231256   6.529   3.489   1.415  0.1643  1.8771 -1.2326
 3233TIP3   OH231257   4.403   2.516   7.701 -0.4843  0.6181 -0.3445
 3233TIP3    H131258   4.380   2.528   7.609  0.1949 -0.0235 -0.6123
 3233TIP3    H231259   4.329   2.471   7.740 -0.2553 -0.2425 -0.8810
 3234TIP3   OH231260   3.390   4.635   0.343  0.3538 -0.2643 -0.3322
 3234TIP3    H131261   3.342   4.596   0.416 -0.1416  0.9422  0.0089
 3234TIP3    H231262   3.480   4.641   0.373  0.5112 -1.4070 -0.5140
 3235TIP3   OH231263   5.400   1.868   1.193  0.0920 -0.5284  0.2140
 3235TIP3    H131264   5.326   1.913   1.153  1.4755  1.2740 -0.4420
 3235TIP3    H231265   5.431   1.808   1.125  0.8448  0.6625 -0.5292
 3236TIP3   OH231266   5.584   3.516   7.491  0.3810  0.4496 -0.2115
 3236TIP3    H131267   5.660   3.564   7.457  0.5139  1.2351  1.0925
 3236TIP3    H231268   5.609   3.424   7.486  0.9818  0.6398 -0.8237
 3237TIP3   OH231269   1.896   6.051   7.192 -0.4984  0.1250  0.0843
 3237TIP3    H131270   1.946   6.066   7.272  0.6094  0.4514 -0.6426
 3237TIP3    H231271   1.901   5.957   7.177 -1.7612 -0.1281  1.0346
 3238TIP3   OH231272   5.995   3.141   1.253 -0.1184  0.2901 -0.0226
 3238TIP3    H131273   5.938   3.217   1.244 -0.3815 -0.0504 -1.3661
 3238TIP3    H231274   6.061   3.152   1.185  2.5931  1.6106  2.5752
 3239TIP3   OH231275   6.242   1.399   2.761 -0.0503  0.4618  0.0959
 3239TIP3    H131276   6.248   1.311   2.799 -1.4191  0.7628  1.1004
 3239TIP3    H231277   6.225   1.384   2.668  1.4587 -0.3032 -0.0836
 3240TIP3   OH231278   1.707   3.380   0.278 -0.0118  0.0450  0.2915
 3240TIP3    H131279   1.802   3.389   0.287  0.1767 -2.3270  1.5663
 3240TIP3    H231280   1.680   3.331   0.356 -1.8990 -1.5564 -1.2547
 3241TIP3   OH231281   3.940   1.568   2.225  0.2765 -0.1399 -0.3638
 3241TIP3    H131282   3.961   1.547   2.316  0.5013  1.6366  0.0349
 3241TIP3    H231283   3.844   1.561   2.220  0.2313  0.1293  0.1159
 3242TIP3   OH231284   2.290   2.100   0.744  0.0914 -0.4539 -0.0577
 3242TIP3    H131285   2.313   2.165   0.677 -1.0014 -1.4659 -1.4623
 3242TIP3    H231286   2.375   2.065   0.773  0.6509  1.0081  0.1666
 3243TIP3   OH231287   3.697   3.626   2.200  0.2835 -0.4190 -0.0549
 3243TIP3    H131288   3.728   3.660   2.116  0.4065  1.1055  0.5731
 3243TIP3    H231289   3.663   3.703   2.246 -0.7708 -1.3995  0.8687
 3244TIP3   OH231290   0.773   5.498   8.114 -0.5893  0.2811 -0.0634
 3244TIP3    H131291   0.682   5.468   8.105 -0.2832 -0.5036 -0.6330
 3244TIP3    H231292   0.813   5.478   8.030  0.1544  0.5158  0.2300
 3245TIP3   OH231293   3.841   3.957   0.605  0.0587 -0.2501  0.2607
 3245TIP3    H131294   3.752   3.943   0.572  0.6518 -2.3398 -0.6576
 3245TIP3    H231295   3.838   3.926   0.695 -0.3673  0.6184  0.5497
 3246TIP3   OH231296   3.215   2.076   2.664  0.1957 -0.0873  0.1714
 3246TIP3    H131297   3.311   2.078   2.672  0.2384 -0.0850 -0.3215
 3246TIP3    H231298   3.188   2.167   2.673  0.3593  0.0940 -1.0774
 3247TIP3   OH231299   3.748   0.116   6.902  0.1308  0.3872  0.0754
 3247TIP3    H131300   3.683   0.186   6.892  0.0286  0.3551  0.4973
 3247TIP3    H231301   3.703   0.037   6.874  0.0208  0.3828  0.2604
 3248TIP3   OH231302   4.661   5.408   0.801 -0.6845 -0.1643 -0.1790
 3248TIP3    H131303   4.705   5.444   0.724  0.3519 -0.5076  0.2259
 3248TIP3    H231304   4.572   5.444   0.797 -0.1641  1.1667 -0.6398
 3249TIP3   OH231305   5.809   4.037   7.675  0.1395  0.4637  0.0409
 3249TIP3    H131306   5.806   3.975   7.748 -2.1373  1.1423  0.6171
 3249TIP3    H231307   5.830   4.121   7.715 -2.1706  1.0489  0.1753
 3250TIP3   OH231308   3.558   4.100   1.749 -0.1661  0.8820  0.2173
 3250TIP3    H131309   3.582   4.172   1.690  1.2651  1.1685  1.1061
 3250TIP3    H231310   3.578   4.021   1.699 -0.7802  1.0937 -0.3822
 3251TIP3   OH231311   5.939   3.424   0.944 -0.0579 -0.0202  0.3687
 3251TIP3    H131312   5.914   3.482   1.015 -0.5328 -0.3715  0.4898
 3251TIP3    H231313   6.024   3.388   0.971  0.3868  0.8293  0.1594
 3252TIP3   OH231314   1.688   4.258   7.535 -0.0973  0.2279 -0.1410
 3252TIP3    H131315   1.685   4.225   7.625  0.2863  1.3062  0.2818
 3252TIP3    H231316   1.680   4.179   7.480  3.1154 -0.9081  0.7733
 3253TIP3   OH231317   6.791   4.480   0.237 -0.3234  0.2625 -0.2334
 3253TIP3    H131318   6.812   4.452   0.326  3.3475  1.4028 -0.5956
 3253TIP3    H231319   6.697   4.500   0.240 -0.1635  1.1046  3.6081
 3254TIP3   OH231320   5.732   5.885   2.128  0.4010  0.3331  0.0231
 3254TIP3    H131321   5.652   5.859   2.175  0.7525 -2.0167 -0.5639
 3254TIP3    H231322   5.705   5.961   2.076 -0.9584  0.7011  1.1796
 3255TIP3   OH231323   5.157   6.173   2.097 -0.1229  0.8457 -0.7408
 3255TIP3    H131324   5.228   6.110   2.080 -0.9410 -0.5734  0.8357
 3255TIP3    H231325   5.198   6.244   2.146  0.2306  0.0632  0.1101
 3256TIP3   OH231326   3.965   5.209   0.316 -0.4946  0.0153  0.1579
 3256TIP3    H131327   3.974   5.114   0.324  0.2466  0.1703  1.2761
 3256TIP3    H231328   4.028   5.245   0.378  2.0322  1.2952 -2.8759
 3257TIP3   OH231329   1.834   3.531   7.422 -0.2164  0.2251 -0.3556
 3257TIP3    H131330   1.803   3.501   7.337  1.9232  0.0936 -1.1452
 3257TIP3    H231331   1.862   3.452   7.467  0.9577  0.5167 -0.5368
 3258TIP3   OH231332   4.699   0.852   8.083  0.0816  0.1153  0.6271
 3258TIP3    H131333   4.627   0.912   8.104  0.3098  0.7460 -0.2947
 3258TIP3    H231334   4.757   0.904   8.027 -0.3249 -1.3203 -1.2377
 3259TIP3   OH231335   3.469   6.644   7.008 -0.1783  0.1743  0.3303
 3259TIP3    H131336   3.463   6.563   7.059 -0.8049 -1.1650 -1.7777
 3259TIP3    H231337   3.385   6.688   7.023 -0.9279 -0.8884 -0.5913
 3260TIP3   OH231338   6.176   4.184   8.053  0.2112 -0.4235  0.2900
 3260TIP3    H131339   6.256   4.215   8.097 -0.1193 -0.1652  0.7191
 3260TIP3    H231340   6.195   4.194   7.960  0.8403 -0.7698  0.3749
 3261TIP3   OH231341   4.134   6.872   0.352 -0.7467 -0.4273  0.0204
 3261TIP3    H131342   4.193   6.872   0.427  1.2520 -1.5709 -1.4416
 3261TIP3    H231343   4.182   6.919   0.284 -1.7320 -0.9644 -1.0922
 3262TIP3   OH231344   3.849   6.033   0.555  0.4911 -0.2499 -0.0694
 3262TIP3    H131345   3.875   5.980   0.629  1.7615  0.9415  0.3845
 3262TIP3    H231346   3.926   6.086   0.535 -0.0729  0.0066 -1.7564
 3263TIP3   OH231347   5.199   0.390   1.494 -0.3081  0.1384 -0.1203
 3263TIP3    H131348   5.136   0.357   1.558 -0.9997 -0.2527 -0.9832
 3263TIP3    H231349   5.151   0.457   1.445 -0.6697 -1.3392 -1.9202
 3264TIP3   OH231350   1.687   6.768   0.797  0.0482  0.1783  0.0816
 3264TIP3    H131351   1.607   6.773   0.850  1.0915  0.0427  1.7591
 3264TIP3    H231352   1.699   6.856   0.763 -1.2024  0.0235 -0.8042
 3265TIP3   OH231353   6.027   0.687   8.098 -0.3680 -0.6046  0.3616
 3265TIP3    H131354   6.065   0.719   8.016  0.5734  0.5464  1.1950
 3265TIP3    H231355   6.088   0.718   8.165 -0.2300 -2.9190  1.3866
 3266TIP3   OH231356   4.596   6.397   0.285  0.4392 -0.0810 -0.6271
 3266TIP3    H131357   4.580   6.377   0.193  0.2699 -0.0338 -0.6082
 3266TIP3    H231358   4.630   6.487   0.284  0.6887 -0.1755 -0.6657
 3267TIP3   OH231359   2.518   2.441   2.790 -0.0439 -0.9601  0.0711
 3267TIP3    H131360   2.515   2.364   2.733 -0.9181 -0.9285  0.0534
 3267TIP3    H231361   2.457   2.503   2.749 -0.8209 -1.0052  1.1247
 3268TIP3   OH231362   2.204   4.437   0.102 -0.4129  0.2239 -0.0092
 3268TIP3    H131363   2.265   4.510   0.117 -0.1811  0.2641 -1.0369
 3268TIP3    H231364   2.183   4.443   0.009 -0.8628 -0.6645  0.0280
 3269TIP3   OH231365   6.461   2.534   1.343  0.1872  0.1267  0.4708
 3269TIP3    H131366   6.463   2.627   1.365 -1.3697 -0.1551  2.0063
 3269TIP3    H231367   6.377   2.503   1.376  0.2695 -1.6467 -0.8354
 3270TIP3   OH231368   6.726   6.721   8.617  0.4912 -0.5496 -0.4490
 3270TIP3    H131369   6.806   6.731   8.669 -1.0255  0.3047  1.8822
 3270TIP3    H231370   6.718   6.803   8.569 -1.3144  1.5118  2.9840
 3271TIP3   OH231371   3.859   3.427   6.555  0.7163 -0.2021 -0.9605
 3271TIP3    H131372   3.895   3.349   6.513 -1.5283 -1.1226 -1.3261
 3271TIP3    H231373   3.764   3.415   6.550  0.3291  1.2595  1.4154
 3272TIP3   OH231374   1.516   4.707   7.686  0.2077 -0.4905 -0.2106
 3272TIP3    H131375   1.472   4.769   7.745  1.0060 -0.2511  0.1527
 3272TIP3    H231376   1.519   4.752   7.602 -0.6127 -0.6837 -0.3483
 3273TIP3   OH231377   6.598   2.632   1.703  0.0525  0.3908  0.5315
 3273TIP3    H131378   6.654   2.656   1.778 -1.2169  1.7153  1.1051
 3273TIP3    H231379   6.599   2.709   1.647  2.1744 -1.0848 -1.6799
 3274TIP3   OH231380   2.817   5.406   6.887  0.2788  0.0703  0.1301
 3274TIP3    H131381   2.750   5.390   6.820 -1.0964  0.9974  1.2246
 3274TIP3    H231382   2.794   5.347   6.959  1.3684 -0.4624  0.0590
 3275TIP3   OH231383   0.824   3.677   0.728  0.1311 -0.0185 -0.6180
 3275TIP3    H131384   0.798   3.585   0.725  0.7518 -0.2162 -0.1327
 3275TIP3    H231385   0.919   3.675   0.728  0.1690  0.6837 -1.9909
 3276TIP3   OH231386   2.963   3.926   7.763  0.1380 -0.2225 -0.7408
 3276TIP3    H131387   2.936   3.883   7.844  0.6565  2.1329  0.7789
 3276TIP3    H231388   3.052   3.894   7.747  1.0279  1.0994  1.0952
 3277TIP3   OH231389   6.193   3.185   0.979  0.3292  0.0434 -0.1334
 3277TIP3    H131390   6.271   3.240   0.974  1.3957 -1.4333 -0.4014
 3277TIP3    H231391   6.225   3.100   1.008 -1.2965 -0.4015  0.4736
 3278TIP3   OH231392   6.166   2.182   0.216 -0.0937  0.0706  0.4596
 3278TIP3    H131393   6.210   2.127   0.280 -1.3548 -1.6987 -0.0981
 3278TIP3    H231394   6.183   2.271   0.244  2.1213 -0.5854  1.3603
 3279TIP3   OH231395   3.483   6.120   1.582  0.3569 -0.1028  0.3374
 3279TIP3    H131396   3.579   6.125   1.581  0.3840 -0.5787  0.7057
 3279TIP3    H231397   3.459   6.108   1.490  0.6986 -0.8514  0.3387
 3280TIP3   OH231398   2.742   1.979   7.968  0.3686 -0.0553 -0.4022
 3280TIP3    H131399   2.805   2.021   8.027 -0.4958  0.6064  0.0753
 3280TIP3    H231400   2.788   1.902   7.935  1.8252  0.9850 -0.9103
 3281TIP3   OH231401   5.081   1.661   2.082  0.1341  0.0012  0.0805
 3281TIP3    H131402   4.997   1.618   2.063 -0.5428  0.9069  0.8765
 3281TIP3    H231403   5.101   1.636   2.172  0.9772 -0.5807 -0.2544
 3282TIP3   OH231404   3.528   5.249   2.732  0.2669 -0.4517  0.6463
 3282TIP3    H131405   3.594   5.214   2.792  0.5930 -2.1081 -0.5956
 3282TIP3    H231406   3.449   5.199   2.751 -0.0787  0.1433  0.7861
 3283TIP3   OH231407   5.444   6.645   2.555 -0.1747 -0.1892 -0.0579
 3283TIP3    H131408   5.366   6.594   2.574 -1.2167  2.0562  2.2962
 3283TIP3    H231409   5.410   6.732   2.532  1.5921  0.4058 -0.5742
 3284TIP3   OH231410   0.979   1.926   1.079 -0.4928  0.1996  0.1618
 3284TIP3    H131411   0.965   1.839   1.042  0.7888 -0.4229  1.0683
 3284TIP3    H231412   0.999   1.910   1.172  0.4659  1.3826  0.1900
 3285TIP3   OH231413   4.945   6.708   7.390 -0.2599  0.0390 -0.6512
 3285TIP3    H131414   4.920   6.691   7.299  1.9058  1.9526 -1.6908
 3285TIP3    H231415   4.888   6.650   7.441 -0.0059 -2.8508 -3.2993
 3286TIP3   OH231416   4.576   3.311   0.907  0.3522 -0.2938  1.0242
 3286TIP3    H131417   4.565   3.377   0.839  2.2384  1.5018  2.3591
 3286TIP3    H231418   4.639   3.249   0.871 -0.7057 -0.9083  0.1466
 3287TIP3   OH231419   0.678   2.971   1.615  0.0157 -0.1393  0.1797
 3287TIP3    H131420   0.689   2.980   1.520 -1.4654 -1.1349 -0.1162
 3287TIP3    H231421   0.662   3.060   1.645  0.2419  0.1541 -0.5302
 3288TIP3   OH231422   2.638   1.223   0.261 -0.0282 -0.1873  1.0168
 3288TIP3    H131423   2.548   1.225   0.294 -1.0118 -2.2951 -1.2810
 3288TIP3    H231424   2.654   1.312   0.228 -1.9602 -0.2579 -0.2190
 3289TIP3   OH231425   1.154   2.133   0.263 -0.4693 -0.1774  0.1954
 3289TIP3    H131426   1.106   2.167   0.187  0.5097 -0.8565 -0.7469
 3289TIP3    H231427   1.121   2.186   0.337 -0.7436  1.1524 -0.8304
 3290TIP3   OH231428   6.083   5.842   7.149 -0.1526  0.7091 -0.3245
 3290TIP3    H131429   6.048   5.930   7.159  0.5889  0.8256  1.8832
 3290TIP3    H231430   6.171   5.854   7.114 -1.0943  0.5927 -2.9612
 3291TIP3   OH231431   1.716   6.325   1.734  0.0616  0.2733 -0.6446
 3291TIP3    H131432   1.703   6.313   1.828  1.7541  0.5240 -0.3553
 3291TIP3    H231433   1.645   6.275   1.694 -0.3779 -0.2720  0.7458
 3292TIP3   OH231434   2.619   4.330   6.611  0.3515 -0.0634  0.2141
 3292TIP3    H131435   2.672   4.395   6.658  0.3240  0.4916 -0.5045
 3292TIP3    H231436   2.533   4.334   6.654 -0.2444  1.7794 -1.0162
 3293TIP3   OH231437   2.754   1.621   8.642  0.0494 -0.0581  0.4751
 3293TIP3    H131438   2.749   1.681   8.716  0.9794  0.2796  0.2713
 3293TIP3    H231439   2.844   1.587   8.644 -0.3838 -1.2596  0.4417
 3294TIP3   OH231440   6.322   1.869   1.551  0.2322 -0.3448  0.6597
 3294TIP3    H131441   6.391   1.927   1.583  2.4773 -2.3602 -0.2136
 3294TIP3    H231442   6.322   1.796   1.613  0.8120 -1.6645 -0.8446
 3295TIP3   OH231443   2.211   0.567   1.503 -0.2675  0.1575  0.1773
 3295TIP3    H131444   2.169   0.562   1.417  0.7559 -2.1097 -0.2682
 3295TIP3    H231445   2.303   0.549   1.486  0.6422  2.9892  1.3960
 3296TIP3   OH231446   4.486   0.036   8.466  0.0052 -0.2777 -0.2599
 3296TIP3    H131447   4.574  -0.002   8.467 -0.0913 -0.4990 -0.0948
 3296TIP3    H231448   4.464   0.043   8.373  1.4345  2.6717 -0.4964
 3297TIP3   OH231449   3.226   1.800   0.567 -0.1941 -0.0749 -0.0462
 3297TIP3    H131450   3.193   1.710   0.562 -0.5096  0.0823 -0.9406
 3297TIP3    H231451   3.305   1.799   0.512  0.5929 -0.1303  1.0470
 3298TIP3   OH231452   1.410   0.486   7.573 -0.0271  0.0887  0.0618
 3298TIP3    H131453   1.387   0.393   7.581 -4.4515  0.8709 -1.0182
 3298TIP3    H231454   1.428   0.499   7.480 -1.0286  0.5248 -0.0908
 3299TIP3   OH231455   3.622   4.713   1.286 -0.0327 -0.0527  0.4267
 3299TIP3    H131456   3.704   4.678   1.252 -0.6054  0.2296 -1.3734
 3299TIP3    H231457   3.611   4.797   1.240 -0.6683  0.5602  1.6514
 3300TIP3   OH231458   3.586   5.382   1.657 -0.0901  0.4982  0.0532
 3300TIP3    H131459   3.536   5.301   1.653  2.6784 -1.3483  0.0612
 3300TIP3    H231460   3.599   5.406   1.565 -0.0806  0.4052  0.0305
 3301TIP3   OH231461   4.821   3.171   2.455 -0.2340  0.1123  0.5267
 3301TIP3    H131462   4.826   3.079   2.481 -0.6403  0.2345  1.0623
 3301TIP3    H231463   4.744   3.176   2.398  0.5925 -0.1344 -0.6419
 3302TIP3   OH231464   4.267   2.951   7.024  0.3357 -0.1189  0.1758
 3302TIP3    H131465   4.232   2.904   6.949 -0.4512  1.5289 -0.5401
 3302TIP3    H231466   4.337   3.006   6.987  1.9034 -1.3586  1.1463
 3303TIP3   OH231467   2.632   1.292   1.719 -0.4649  0.0996  0.4216
 3303TIP3    H131468   2.706   1.231   1.728  0.9851  1.7064 -0.0029
 3303TIP3    H231469   2.573   1.269   1.791  0.1532 -1.6002  0.4299
 3304TIP3   OH231470   0.772   2.030   2.446 -0.2478  0.5590  0.5253
 3304TIP3    H131471   0.867   2.026   2.462  0.0253  2.3884 -0.3387
 3304TIP3    H231472   0.760   1.978   2.366  0.4193  2.1533 -0.6615
 3305TIP3   OH231473   0.961   0.253   0.132  0.2433  0.2778 -0.5307
 3305TIP3    H131474   0.996   0.341   0.115  0.5471 -0.1648 -2.3582
 3305TIP3    H231475   1.030   0.209   0.182  1.5352  0.0459 -2.4279
 3306TIP3   OH231476   3.222   1.505   1.414  0.1426  0.0040  0.0659
 3306TIP3    H131477   3.142   1.452   1.421  0.9094 -1.1548  0.5453
 3306TIP3    H231478   3.205   1.582   1.469 -1.2137  0.5653 -1.0934
 3307TIP3   OH231479   1.909   2.188   0.299 -0.6000 -0.1479 -0.0878
 3307TIP3    H131480   1.990   2.152   0.336 -0.4753 -0.9847 -1.1377
 3307TIP3    H231481   1.932   2.278   0.276 -0.0866 -0.2579 -0.0256
 3308TIP3   OH231482   1.743   1.969   0.270 -0.1353  0.6036  0.5528
 3308TIP3    H131483   1.799   2.047   0.264  0.3251  0.4470  2.3524
 3308TIP3    H231484   1.654   2.005   0.274  0.0035  0.9864  0.3049
 3309TIP3   OH231485   3.617   3.348   0.451  0.0216  0.4628  0.0711
 3309TIP3    H131486   3.553   3.419   0.445 -0.5273 -0.1156 -1.4496
 3309TIP3    H231487   3.612   3.318   0.542 -2.3725 -0.0138 -0.1707
 3310TIP3   OH231488   0.447   5.427   1.348  0.6073 -0.6125  0.2393
 3310TIP3    H131489   0.506   5.435   1.273  1.1058 -0.9919  0.5826
 3310TIP3    H231490   0.361   5.410   1.310  1.0725 -2.0257 -0.2137
 3311TIP3   OH231491   5.177   4.958   1.806  0.2146  0.3475  0.3096
 3311TIP3    H131492   5.262   5.002   1.811  1.1445 -1.4451  1.2713
 3311TIP3    H231493   5.156   4.937   1.897 -1.0412  0.3256  0.0292
 3312TIP3   OH231494   1.130   1.564   7.647 -0.2716  0.5103  0.1268
 3312TIP3    H131495   1.197   1.550   7.580  0.8781 -0.4556  1.4299
 3312TIP3    H231496   1.175   1.613   7.716 -0.1999 -2.0559  2.0215
 3313TIP3   OH231497   0.068   4.561   7.230  0.1357 -0.3767  1.2018
 3313TIP3    H131498  -0.004   4.612   7.192 -0.0505 -1.2782  0.3330
 3313TIP3    H231499   0.114   4.524   7.155 -0.3606 -2.3575  1.8231
 3314TIP3   OH231500   4.611   5.743   0.944 -0.1051  0.2100  0.4333
 3314TIP3    H131501   4.655   5.796   0.878  0.0916 -0.1420  0.2837
 3314TIP3    H231502   4.549   5.689   0.895  1.0383 -1.0824  0.3728
 3315TIP3   OH231503   0.451   3.211   6.754  0.5378  0.3051 -0.0204
 3315TIP3    H131504   0.490   3.297   6.768  1.8644  0.1909 -2.5657
 3315TIP3    H231505   0.506   3.169   6.688 -0.7248 -2.0873  0.3054
 3316TIP3   OH231506   2.521   2.900   6.976  0.0578 -0.3109 -0.2751
 3316TIP3    H131507   2.554   2.981   7.016 -0.5977  0.1102 -0.5641
 3316TIP3    H231508   2.575   2.831   7.013 -0.5641  0.0456  1.3874
 3317TIP3   OH231509   1.550   4.644   8.367  0.5148 -0.0981 -0.4402
 3317TIP3    H131510   1.576   4.584   8.298  0.3162 -0.3030 -0.3374
 3317TIP3    H231511   1.611   4.626   8.439  0.3081 -0.3412 -0.3230
 3318TIP3   OH231512   2.828   3.051   7.841  0.1288  0.2402 -0.1169
 3318TIP3    H131513   2.795   3.095   7.763 -1.2546  0.5149  0.6047
 3318TIP3    H231514   2.850   2.963   7.811  0.6467  0.6645 -1.0404
 3319TIP3   OH231515   1.401   0.254   2.345 -0.4375 -0.1737  0.1124
 3319TIP3    H131516   1.476   0.300   2.385 -0.8201  1.7877 -1.2534
 3319TIP3    H231517   1.339   0.244   2.417 -0.1143  1.0309  0.6047
 3320TIP3   OH231518   2.713   4.730   1.754  0.2516  0.0795  0.1116
 3320TIP3    H131519   2.762   4.693   1.681  1.0555  1.0264  0.1451
 3320TIP3    H231520   2.744   4.682   1.831 -0.2229 -0.5682 -0.0943
 3321TIP3   OH231521   1.692   2.894   0.198 -0.3864  0.1602  0.4400
 3321TIP3    H131522   1.778   2.866   0.231  0.3648  0.5208 -1.1271
 3321TIP3    H231523   1.707   2.984   0.167 -1.3182  0.2055  0.1074
 3322TIP3   OH231524   1.302   1.599   8.614  0.4668  0.5160 -0.2387
 3322TIP3    H131525   1.249   1.664   8.659  1.5057  1.8353 -0.8441
 3322TIP3    H231526   1.272   1.515   8.649 -1.0027  1.2962  0.4626
 3323TIP3   OH231527   6.808   5.440   1.306  0.2835 -0.1042  0.2802
 3323TIP3    H131528   6.780   5.372   1.244  1.3100 -0.5992  0.3244
 3323TIP3    H231529   6.835   5.513   1.251  0.9722 -0.4561  0.1363
 3324TIP3   OH231530   5.077   4.192   0.911 -0.2167 -0.1834 -0.1935
 3324TIP3    H131531   5.134   4.129   0.954 -0.0716  1.1359  1.6340
 3324TIP3    H231532   5.109   4.195   0.821  1.6544 -0.5426  0.4201
 3325TIP3   OH231533   4.535   4.613   8.010  0.5480  0.1196 -0.7014
 3325TIP3    H131534   4.611   4.665   8.034  1.4208 -1.4525  0.1162
 3325TIP3    H231535   4.474   4.622   8.083  0.2463  0.8068 -1.0330
 3326TIP3   OH231536   1.012   4.066   1.254  0.3526 -0.0244 -0.1246
 3326TIP3    H131537   0.936   4.015   1.282  0.3918  0.4099  0.8215
 3326TIP3    H231538   0.976   4.144   1.213  0.1638  1.5096  2.6650
 3327TIP3   OH231539   2.338   4.433   8.157  0.3695 -0.1374 -1.0665
 3327TIP3    H131540   2.278   4.361   8.137 -0.2118  0.0658 -0.0888
 3327TIP3    H231541   2.308   4.505   8.101 -0.5741  0.0912 -0.2962
 3328TIP3   OH231542   6.295   3.302   8.429 -0.7109 -0.0632  0.3854
 3328TIP3    H131543   6.364   3.328   8.368 -1.5990 -1.5464 -1.3283
 3328TIP3    H231544   6.342   3.261   8.501  0.2397 -0.5241 -0.4701
 3329TIP3   OH231545   2.254   6.088   0.891 -0.1680 -0.3788  0.3342
 3329TIP3    H131546   2.332   6.052   0.932  0.4306 -1.9207 -1.9618
 3329TIP3    H231547   2.196   6.108   0.964  1.8894 -0.3000  2.0380
 3330TIP3   OH231548   4.874   3.323   2.044 -0.5538 -0.2679  0.4881
 3330TIP3    H131549   4.790   3.359   2.015  0.6258  3.2694  0.8683
 3330TIP3    H231550   4.856   3.290   2.132 -1.4331  1.2164  0.9103
 3331TIP3   OH231551   0.225   1.842   1.076  0.0952 -0.1037  0.4450
 3331TIP3    H131552   0.228   1.892   1.158  0.6922  2.0822 -0.8503
 3331TIP3    H231553   0.133   1.846   1.049  0.0044 -0.3496  0.7097
 3332TIP3   OH231554   3.279   1.009   2.126  0.3652  0.2581 -0.2056
 3332TIP3    H131555   3.350   0.987   2.065  0.3504  0.6283 -0.3597
 3332TIP3    H231556   3.269   1.103   2.117 -1.0514  0.0534 -1.2077
 3333TIP3   OH231557   2.362   5.142   0.973  0.8252  0.5431 -0.1153
 3333TIP3    H131558   2.283   5.093   0.948  1.2503 -1.9481  2.8902
 3333TIP3    H231559   2.332   5.232   0.981 -0.7396  0.3886 -2.8033
 3334TIP3   OH231560   1.836   2.478   1.277  0.2205  0.2994  0.5123
 3334TIP3    H131561   1.766   2.426   1.238  0.6047  1.3965 -1.7807
 3334TIP3    H231562   1.795   2.519   1.354 -1.0447 -0.6510  0.3824
 3335TIP3   OH231563   5.831   4.788   6.958  0.1763  0.2600 -0.1154
 3335TIP3    H131564   5.872   4.870   6.986 -1.2866  1.2996 -0.9089
 3335TIP3    H231565   5.752   4.815   6.912 -1.1904 -1.6679  0.9802
 3336TIP3   OH231566   5.550   4.557   1.453 -0.0633  0.1246 -0.1326
 3336TIP3    H131567   5.518   4.615   1.522  0.7948 -0.2215  0.5695
 3336TIP3    H231568   5.602   4.614   1.397  0.7989  0.0428  0.5702
 3337TIP3   OH231569   4.849   0.833   7.643  0.3463 -0.2977 -0.3302
 3337TIP3    H131570   4.872   0.894   7.572 -1.2390 -0.4512 -1.0161
 3337TIP3    H231571   4.860   0.746   7.605 -5.0592 -0.5165 -2.2273
 3338TIP3   OH231572   0.809   4.213   7.495  0.2823  0.0263  0.0477
 3338TIP3    H131573   0.880   4.157   7.464 -1.2806 -1.7811 -0.4554
 3338TIP3    H231574   0.813   4.207   7.591  1.0689  0.3177  0.0393
 3339TIP3   OH231575   2.228   6.691   0.921  0.3373  0.3766  0.2359
 3339TIP3    H131576   2.190   6.765   0.875 -1.5535  0.1484  1.3262
 3339TIP3    H231577   2.228   6.619   0.857 -0.7868  0.4853  0.0935
 3340TIP3   OH231578   1.087   1.756   0.064  0.5871  0.9707  0.1164
 3340TIP3    H131579   1.024   1.697   0.023 -1.0152  1.9944  1.0160
 3340TIP3    H231580   1.052   1.843   0.049  2.2881  1.6553 -0.1391
 3341TIP3   OH231581   6.450   6.400   8.115 -0.7965  0.0357 -0.2872
 3341TIP3    H131582   6.440   6.308   8.140 -0.6731 -0.0741 -0.6417
 3341TIP3    H231583   6.499   6.440   8.188  1.1204 -0.6625 -1.1340
 3342TIP3   OH231584   3.441   6.878   0.810  0.1974  0.8007  0.1000
 3342TIP3    H131585   3.511   6.853   0.749  0.6822 -1.5813  1.4922
 3342TIP3    H231586   3.488   6.912   0.886 -0.2576  0.9798  0.2996
 3343TIP3   OH231587   4.615   5.402   2.316  0.5524  0.0186 -0.4234
 3343TIP3    H131588   4.696   5.373   2.275  0.3175  0.8253 -1.5070
 3343TIP3    H231589   4.642   5.470   2.378  0.6283  0.9290 -1.4395
 3344TIP3   OH231590   6.162   5.919   1.642 -0.6696 -0.4360  0.1745
 3344TIP3    H131591   6.206   5.904   1.558 -0.5139  0.7277  0.0220
 3344TIP3    H231592   6.103   5.845   1.652 -0.4559 -0.7611 -0.8160
 3345TIP3   OH231593   2.647   5.986   7.074 -0.4861  0.0391  0.3205
 3345TIP3    H131594   2.734   6.004   7.110 -1.0329  0.1392  1.6542
 3345TIP3    H231595   2.606   6.072   7.067 -1.0792 -0.1417  1.3425
 3346TIP3   OH231596   2.550   1.297   7.045  0.1925 -0.0805  0.2089
 3346TIP3    H131597   2.579   1.207   7.037  0.4267 -0.0541  0.6839
 3346TIP3    H231598   2.613   1.348   6.993 -0.5981 -0.2946 -1.0000
 3347TIP3   OH231599   1.991   4.686   0.081  0.0545  0.1100  0.5764
 3347TIP3    H131600   1.986   4.622   0.151  0.1896 -0.3551  0.1719
 3347TIP3    H231601   1.913   4.740   0.091  0.0082 -0.0376  1.0046
 3348TIP3   OH231602   3.224   0.977   7.226  0.3548 -0.1723 -0.4252
 3348TIP3    H131603   3.142   1.024   7.241  0.4957  0.2938 -1.0693
 3348TIP3    H231604   3.206   0.921   7.151 -0.0683 -1.8136  0.8279
 3349TIP3   OH231605   3.027   6.675   2.062 -0.2928 -0.4311  0.0623
 3349TIP3    H131606   2.993   6.764   2.073  0.7457 -0.0766  0.5646
 3349TIP3    H231607   2.974   6.621   2.120 -1.9267 -0.4334 -1.3449
 3350TIP3   OH231608   6.623   4.144   1.985  0.2817  0.2143 -0.1830
 3350TIP3    H131609   6.567   4.195   2.043 -0.4041 -0.6151 -0.1072
 3350TIP3    H231610   6.649   4.069   2.037  2.3987  1.1166  0.1784
 3351TIP3   OH231611   0.806   4.341   7.030  0.1245  0.3613  0.1721
 3351TIP3    H131612   0.722   4.313   7.065  0.3086  0.6555  0.8653
 3351TIP3    H231613   0.864   4.342   7.106  0.8934 -0.3668 -0.3940
 3352TIP3   OH231614   4.181   2.816   0.899 -0.2834  0.4336  0.0346
 3352TIP3    H131615   4.155   2.809   0.807 -1.6284  2.5722  0.1806
 3352TIP3    H231616   4.152   2.903   0.925 -1.2562 -0.6394  2.8964
 3353TIP3   OH231617   4.854   2.357   7.967  0.2664 -0.6066 -0.1299
 3353TIP3    H131618   4.801   2.284   8.001 -2.8660  1.6051  0.2141
 3353TIP3    H231619   4.809   2.382   7.886 -0.1254  2.2039  0.8477
 3354TIP3   OH231620   4.012   2.608   7.799 -0.2307  0.3452  0.7654
 3354TIP3    H131621   4.050   2.521   7.814  0.6939  0.0587 -2.5363
 3354TIP3    H231622   3.922   2.591   7.773  0.4161  0.1670 -1.5176
 3355TIP3   OH231623   6.421   3.262   7.676 -0.4638  0.0624  0.5240
 3355TIP3    H131624   6.480   3.269   7.751  1.2912 -2.8492 -0.4175
 3355TIP3    H231625   6.453   3.186   7.627 -3.5631 -0.1898 -1.4048
 3356TIP3   OH231626   5.279   4.233   2.008 -0.4354  0.1123 -0.0464
 3356TIP3    H131627   5.224   4.284   2.068  0.0837 -1.4641  1.8928
 3356TIP3    H231628   5.290   4.148   2.052  1.4662 -0.5074 -1.5644
 3357TIP3   OH231629   2.426   1.272   7.290  1.0027 -0.2075 -0.2779
 3357TIP3    H131630   2.472   1.314   7.218 -1.1351 -0.1010 -1.6587
 3357TIP3    H231631   2.433   1.178   7.272  0.0047 -0.1636 -0.9661
 3358TIP3   OH231632   6.385   4.998   0.704 -0.5223  0.2649  0.5398
 3358TIP3    H131633   6.375   5.065   0.772 -0.2593  1.2280 -0.3447
 3358TIP3    H231634   6.451   5.035   0.644 -1.7013  0.0320 -0.9530
 3359TIP3   OH231635   1.696   3.283   8.474  0.0595  0.2228 -0.3195
 3359TIP3    H131636   1.617   3.236   8.501  0.0524 -0.6232 -1.6857
 3359TIP3    H231637   1.768   3.232   8.512 -0.0162  0.4228  0.0966
 3360TIP3   OH231638   0.597   4.559   7.926 -0.2700 -0.7776 -0.4101
 3360TIP3    H131639   0.507   4.584   7.905 -0.4482 -1.7200 -0.8125
 3360TIP3    H231640   0.596   4.540   8.019  0.0177  1.2820  0.0585
 3361TIP3   OH231641   3.563   3.584   0.791  0.4710  0.0363 -0.4391
 3361TIP3    H131642   3.538   3.494   0.811  2.0840 -0.7523 -1.7210
 3361TIP3    H231643   3.495   3.615   0.732 -1.0156  0.2986  1.3171
 3362TIP3   OH231644   1.998   1.328   1.684 -0.4668 -0.3057  0.5751
 3362TIP3    H131645   1.943   1.372   1.749  1.3760 -1.2864  2.9551
 3362TIP3    H231646   1.945   1.253   1.656 -1.7436  0.7561  0.0039
 3363TIP3   OH231647   5.930   3.599   1.165  0.1111  0.5643 -0.0713
 3363TIP3    H131648   5.897   3.687   1.182 -1.8480  0.0040 -0.6999
 3363TIP3    H231649   6.021   3.601   1.195 -0.5482  2.1324  2.0491
 3364TIP3   OH231650   0.356   2.395   0.388  0.6009  0.1362  0.0439
 3364TIP3    H131651   0.406   2.468   0.352 -2.0536  1.4291 -1.3765
 3364TIP3    H231652   0.335   2.342   0.311  3.2391 -2.8013  1.1431
 3365TIP3   OH231653   5.328   2.152   0.661 -0.5763 -0.6600  0.3370
 3365TIP3    H131654   5.382   2.228   0.642 -0.7947 -1.1057 -2.4883
 3365TIP3    H231655   5.365   2.116   0.742  2.0855  0.2059 -0.3838
 3366TIP3   OH231656   2.076   3.736   7.935 -0.8888 -0.7573 -0.4530
 3366TIP3    H131657   2.019   3.722   7.859 -0.8253 -0.5476 -0.5420
 3366TIP3    H231658   2.027   3.796   7.991 -0.3075  0.2945 -1.0426
 3367TIP3   OH231659   2.902   4.129   2.540 -0.2505  0.6221  0.0211
 3367TIP3    H131660   2.994   4.112   2.520 -1.0930 -4.8593 -0.7249
 3367TIP3    H231661   2.901   4.153   2.633  1.8499 -0.0722  0.2629
 3368TIP3   OH231662   1.810   2.863   0.556 -0.0976  0.2959 -0.1117
 3368TIP3    H131663   1.737   2.858   0.618 -1.0833 -3.2594 -1.3042
 3368TIP3    H231664   1.842   2.773   0.549  1.9631  1.0936 -2.4882
 3369TIP3   OH231665   6.771   4.597   7.946 -0.0380 -0.1829 -0.3090
 3369TIP3    H131666   6.760   4.502   7.936 -0.3184 -0.3181  1.1252
 3369TIP3    H231667   6.683   4.632   7.938 -0.1913 -0.2397  0.9377
 3370TIP3   OH231668   4.089   2.328   1.724  0.8379 -0.1373 -0.5904
 3370TIP3    H131669   4.020   2.261   1.724 -0.0304  0.7187  0.2071
 3370TIP3    H231670   4.066   2.386   1.651  0.3025  0.5244  0.0824
 3371TIP3   OH231671   0.416   2.089   7.073  0.5686  0.3660 -0.9315
 3371TIP3    H131672   0.481   2.095   7.003  0.6237  2.6971 -0.7635
 3371TIP3    H231673   0.332   2.086   7.027  0.7139 -1.4309 -1.1244
 3372TIP3   OH231674   5.421   6.213   2.988  0.0684  0.5655  0.7698
 3372TIP3    H131675   5.412   6.125   3.025 -0.0164  0.7640  1.2273
 3372TIP3    H231676   5.512   6.217   2.958 -0.4811 -0.4044 -1.1825
 3373TIP3   OH231677   6.568   3.554   1.083  0.2354  0.0065  0.2640
 3373TIP3    H131678   6.564   3.520   1.172 -0.0916 -1.0660 -0.1330
 3373TIP3    H231679   6.563   3.649   1.092  1.3341 -0.0200  1.4424
 3374TIP3   OH231680   3.222   3.166   1.033  0.0079 -0.5224  0.7087
 3374TIP3    H131681   3.142   3.151   0.983  0.2322 -0.8562  0.4546
 3374TIP3    H231682   3.217   3.259   1.057 -1.1828 -0.8677  1.9540
 3375TIP3   OH231683   2.795   0.870   2.984  0.0424 -0.2324  0.3790
 3375TIP3    H131684   2.727   0.803   2.983  1.0505 -1.3056 -1.1736
 3375TIP3    H231685   2.877   0.821   2.992  0.7391  0.9025  0.4537
 3376TIP3   OH231686   2.407   2.297   0.602  0.0272 -0.1345 -0.0839
 3376TIP3    H131687   2.401   2.322   0.510  2.2262 -0.0192 -0.2501
 3376TIP3    H231688   2.460   2.366   0.642 -0.0850 -0.6931  1.0543
 3377TIP3   OH231689   5.726   2.001   0.447  0.3548 -0.4459 -0.0009
 3377TIP3    H131690   5.728   2.079   0.391 -0.9316 -1.0754 -0.9687
 3377TIP3    H231691   5.635   1.973   0.446 -0.2902  0.8223  4.3378
 3378TIP3   OH231692   2.237   0.801   1.229  0.1335  0.3854  0.1724
 3378TIP3    H131693   2.320   0.764   1.258 -0.5761  1.1532  3.6528
 3378TIP3    H231694   2.174   0.730   1.241 -0.1708  0.6972  0.4294
 3379TIP3   OH231695   5.162   4.892   7.846  0.4982  0.2164  0.1733
 3379TIP3    H131696   5.154   4.815   7.791  0.6825  0.1919  0.1793
 3379TIP3    H231697   5.174   4.858   7.935 -3.2215  0.2003  0.8460
 3380TIP3   OH231698   0.024   5.563   8.580  0.3110 -0.2750  0.1097
 3380TIP3    H131699   0.114   5.549   8.550  0.4258  0.7022 -0.0427
 3380TIP3    H231700   0.033   5.609   8.663 -0.0224  2.0081 -1.0322
 3381TIP3   OH231701   5.810   4.817   7.593 -0.0361 -0.0549  0.2241
 3381TIP3    H131702   5.802   4.751   7.525 -0.8962 -0.4563  0.6956
 3381TIP3    H231703   5.744   4.882   7.571 -0.7899 -0.5282  1.0333
 3382TIP3   OH231704   2.978   4.125   0.184 -0.7690 -0.4844  0.2444
 3382TIP3    H131705   3.072   4.136   0.200 -0.0935 -0.2470 -3.1674
 3382TIP3    H231706   2.944   4.087   0.265  1.4752  3.0319  3.1704
 3383TIP3   OH231707   4.705   4.518   7.435  0.9562  0.1615  0.5486
 3383TIP3    H131708   4.704   4.461   7.512 -3.8450  2.4915  2.6696
 3383TIP3    H231709   4.672   4.463   7.364  0.5109 -0.7808  1.4616
 3384TIP3   OH231710   2.101   3.664   0.176  0.2436 -0.0123 -0.2692
 3384TIP3    H131711   2.141   3.713   0.249  1.1849  0.0687 -0.8279
 3384TIP3    H231712   2.164   3.595   0.157  0.0898  0.0809 -1.1315
 3385TIP3   OH231713   1.104   4.181   2.319 -0.0515  0.0741 -0.0136
 3385TIP3    H131714   1.061   4.133   2.248  0.6099  1.0910 -1.1331
 3385TIP3    H231715   1.183   4.130   2.338 -0.8883 -0.9148  0.9295
 3386TIP3   OH231716   3.122   0.574   7.311 -0.0305  0.3024 -0.4880
 3386TIP3    H131717   3.040   0.608   7.274 -0.6971 -0.8427 -0.1049
 3386TIP3    H231718   3.100   0.486   7.341  0.7068  0.8525  1.8440
 3387TIP3   OH231719   3.442   5.731   1.198  0.2489 -0.5595 -0.1089
 3387TIP3    H131720   3.406   5.657   1.246  1.0477  0.1040  1.6043
 3387TIP3    H231721   3.442   5.703   1.106 -1.1964 -1.9327  0.2705
 3388TIP3   OH231722   1.641   0.923   2.978  0.1294  0.3367  0.5011
 3388TIP3    H131723   1.653   0.838   3.019  0.1551 -0.3581 -0.8705
 3388TIP3    H231724   1.549   0.925   2.952  0.3967  0.2066 -0.5258
 3389TIP3   OH231725   4.369   3.205   0.642  0.1391 -0.3444  0.4139
 3389TIP3    H131726   4.319   3.181   0.564  0.7650  1.4481 -0.5879
 3389TIP3    H231727   4.308   3.260   0.692 -0.7422 -2.5430  1.9355
 3390TIP3   OH231728   3.554   4.754   7.399  0.2197 -0.7308  0.4321
 3390TIP3    H131729   3.500   4.770   7.476  1.5431  0.3433  1.1863
 3390TIP3    H231730   3.623   4.821   7.403  2.0667 -2.4862 -0.0419
 3391TIP3   OH231731   0.064   6.310   6.199  1.2143  0.3291 -0.7351
 3391TIP3    H131732   0.013   6.388   6.219  2.3934  1.3856 -1.6978
 3391TIP3    H231733   0.122   6.299   6.275  0.4663 -0.1388 -0.2136
 3392TIP3   OH231734   5.295   5.349   2.334  0.2714 -0.4838 -0.4517
 3392TIP3    H131735   5.356   5.419   2.355 -0.2845 -0.2388  0.4083
 3392TIP3    H231736   5.243   5.383   2.262 -0.9425  0.5946  0.8739
 3393TIP3   OH231737   2.957   3.557   0.886  0.0991  0.2099 -0.0726
 3393TIP3    H131738   2.987   3.647   0.874 -0.6185  0.3923 -0.5779
 3393TIP3    H231739   3.023   3.517   0.942  0.6364  0.9370 -0.1696
 3394TIP3   OH231740   1.086   2.974   0.080  0.2231  0.2632  0.3205
 3394TIP3    H131741   1.095   2.891   0.032  0.1880  1.5188 -2.0238
 3394TIP3    H231742   1.084   2.948   0.172 -2.1655 -2.5468 -0.3638
 3395TIP3   OH231743   2.150   2.599   7.056  0.4637  0.4818  0.8166
 3395TIP3    H131744   2.216   2.635   6.997  0.6911 -0.3370  0.5553
 3395TIP3    H231745   2.103   2.675   7.089 -1.3351  0.8738 -2.2913
 3396TIP3   OH231746   4.650   0.220   7.932 -0.5081 -0.4614  0.2403
 3396TIP3    H131747   4.617   0.296   7.885  0.8138 -1.7862 -3.1330
 3396TIP3    H231748   4.584   0.152   7.917  1.0526 -1.5967 -1.9948
 3397TIP3   OH231749   2.369   5.657   0.866 -0.0076 -0.6011 -0.1312
 3397TIP3    H131750   2.329   5.674   0.781 -2.6063  0.2225  1.1605
 3397TIP3    H231751   2.404   5.742   0.894  0.7267 -0.8428 -0.2799
 3398TIP3   OH231752   5.518   0.359   0.776 -1.0578  0.3483 -0.5478
 3398TIP3    H131753   5.577   0.416   0.825  0.7414  1.3733 -3.5924
 3398TIP3    H231754   5.440   0.412   0.761 -0.3304  1.2194 -1.3962
 3399TIP3   OH231755   1.617   1.694   1.321 -0.8985 -0.4439  0.0227
 3399TIP3    H131756   1.572   1.776   1.340  1.4205  1.7055 -2.8956
 3399TIP3    H231757   1.549   1.636   1.287 -2.3824  0.6015  1.0911
 3400TIP3   OH231758   1.565   2.979   1.117 -0.0889  0.0653  0.1484
 3400TIP3    H131759   1.543   3.050   1.177 -1.1456 -0.0434 -0.0964
 3400TIP3    H231760   1.508   2.907   1.144 -0.8921  0.1483 -1.2375
 3401TIP3   OH231761   4.035   1.174   7.031 -0.4098 -0.2647  0.2961
 3401TIP3    H131762   4.082   1.181   6.948  2.6615 -1.7387  1.7607
 3401TIP3    H231763   3.988   1.258   7.039  1.9693  1.3544 -1.3224
 3402TIP3   OH231764   1.364   5.129   7.785 -0.5744  0.0447 -0.0713
 3402TIP3    H131765   1.448   5.171   7.768 -0.6886  0.3211  0.0339
 3402TIP3    H231766   1.305   5.167   7.719 -0.7938  0.4125  0.3330
 3403TIP3   OH231767   3.233   1.244   1.656 -0.5496  0.1578 -0.1329
 3403TIP3    H131768   3.189   1.246   1.741 -1.3396  0.4088 -0.5364
 3403TIP3    H231769   3.195   1.318   1.608 -1.2993 -0.9247 -1.2761
 3404TIP3   OH231770   0.885   6.438   1.243 -0.1991  0.4585  0.0865
 3404TIP3    H131771   0.893   6.389   1.162  0.5417  0.6747  0.0143
 3404TIP3    H231772   0.814   6.500   1.228 -0.3725  0.1827 -0.2274
 3405TIP3   OH231773   1.601   1.755   1.006  0.7913 -0.4067  0.6193
 3405TIP3    H131774   1.512   1.741   1.040  0.9058 -0.3664  0.9302
 3405TIP3    H231775   1.641   1.816   1.067 -0.1100  2.3986 -1.3585
 3406TIP3   OH231776   6.542   3.462   8.002 -0.3531 -0.0613 -1.0742
 3406TIP3    H131777   6.615   3.413   7.966  0.4186  0.1040  0.1989
 3406TIP3    H231778   6.513   3.411   8.077  1.3704  1.9752  1.1615
 3407TIP3   OH231779   3.012   2.653   1.545  0.1660  0.2872 -0.1388
 3407TIP3    H131780   3.023   2.723   1.480  0.2594  0.7736  0.3943
 3407TIP3    H231781   2.962   2.586   1.499  0.8009  0.3299 -0.9351
 3408TIP3   OH231782   3.763   4.883   0.849 -0.1571 -0.4172  0.2538
 3408TIP3    H131783   3.757   4.791   0.821  0.4042  0.5407 -3.5226
 3408TIP3    H231784   3.694   4.928   0.800  0.5005  1.4125  0.9137
 3409TIP3   OH231785   4.974   6.119   6.899 -0.2618  0.4096 -0.3478
 3409TIP3    H131786   5.036   6.157   6.961 -2.5809  1.2569  1.6034
 3409TIP3    H231787   4.932   6.047   6.946 -1.9072  0.9155 -0.9427
 3410TIP3   OH231788   0.646   4.938   7.664  0.5980  0.1435 -0.0233
 3410TIP3    H131789   0.611   4.936   7.753  0.8184 -0.2419  0.0567
 3410TIP3    H231790   0.710   4.867   7.662 -1.0459 -1.4175 -1.1583
 3411TIP3   OH231791   2.762   0.943   1.160 -0.3494 -0.1493 -0.0797
 3411TIP3    H131792   2.819   0.881   1.206 -1.2732 -0.7459  0.2837
 3411TIP3    H231793   2.683   0.947   1.213  0.3821  2.8517  1.0099
 3412TIP3   OH231794   3.021   0.573   2.023 -0.4298  0.4959  0.4402
 3412TIP3    H131795   3.035   0.539   2.111 -3.3515  1.2159  1.2897
 3412TIP3    H231796   2.928   0.557   2.006 -0.2222  1.5002 -2.0279
 3413TIP3   OH231797   4.065   5.387   1.860  0.8802 -0.1805  0.7220
 3413TIP3    H131798   4.116   5.317   1.900 -0.9044 -2.1123 -0.1428
 3413TIP3    H231799   4.005   5.342   1.801 -1.6564  1.9063  1.4806
 3414TIP3   OH231800   5.492   6.154   8.407 -0.2456  0.4285 -0.3053
 3414TIP3    H131801   5.561   6.152   8.474 -0.6439  1.2944  0.1477
 3414TIP3    H231802   5.432   6.223   8.437 -0.2073  1.1344 -1.7709
 3415TIP3   OH231803   6.115   2.766   2.411 -0.0187  0.4457  0.0425
 3415TIP3    H131804   6.210   2.763   2.398 -0.0724 -0.8620 -0.0963
 3415TIP3    H231805   6.104   2.773   2.505  0.2071 -0.8756  0.1821
 3416TIP3   OH231806   6.301   3.859   8.162 -0.2176 -0.8285 -0.0621
 3416TIP3    H131807   6.263   3.894   8.081  1.9940 -1.9208 -1.6684
 3416TIP3    H231808   6.324   3.937   8.213 -1.5715 -0.1199 -0.4787
 3417TIP3   OH231809   6.354   3.553   1.874 -0.3852 -0.3028 -0.0072
 3417TIP3    H131810   6.417   3.588   1.938 -1.3155 -0.8484  1.2478
 3417TIP3    H231811   6.342   3.624   1.811  1.0172  0.0272  0.0686
 3418TIP3   OH231812   2.406   2.661   7.977 -0.1567 -0.4291  0.1446
 3418TIP3    H131813   2.310   2.660   7.977 -0.3104 -0.0822 -3.5616
 3418TIP3    H231814   2.431   2.569   7.966 -0.2591 -0.2760 -1.7101
 3419TIP3   OH231815   3.067   0.152   0.548 -0.3090 -0.0888  0.6464
 3419TIP3    H131816   2.977   0.157   0.514 -0.2924  3.1786  0.8053
 3419TIP3    H231817   3.114   0.100   0.482 -1.9648 -0.4991 -0.2765
 3420TIP3   OH231818   0.885   2.575   0.785  0.4711 -0.1428  0.1147
 3420TIP3    H131819   0.923   2.489   0.764  1.8019  0.8554 -1.9943
 3420TIP3    H231820   0.791   2.562   0.778  0.6843 -1.2182 -1.3692
 3421TIP3   OH231821   1.716   2.271   1.967  0.0759  0.1417 -0.4366
 3421TIP3    H131822   1.654   2.226   1.909 -0.6401  0.3718  0.1256
 3421TIP3    H231823   1.704   2.228   2.052 -0.9462  1.6374  0.2244
 3422TIP3   OH231824   2.596   0.080   7.670  0.3241 -0.0219 -0.3740
 3422TIP3    H131825   2.647   0.107   7.594  0.1466  0.6377 -0.2649
 3422TIP3    H231826   2.574   0.162   7.715 -1.8019 -0.1545 -1.0391
 3423TIP3   OH231827   5.702   2.904   8.254  0.2337 -0.0274  0.1172
 3423TIP3    H131828   5.724   2.874   8.342  2.2797  0.5585 -0.1492
 3423TIP3    H231829   5.733   2.834   8.196 -1.1147 -0.4173 -0.1797
 3424TIP3   OH231830   5.054   4.929   1.371  0.0347  0.5978  0.1800
 3424TIP3    H131831   5.086   4.843   1.344 -1.5462  0.2536 -0.7445
 3424TIP3    H231832   5.130   4.987   1.361  1.1553 -0.6856  0.9284
 3425TIP3   OH231833   6.708   1.689   8.089  0.1759 -0.4118 -0.3486
 3425TIP3    H131834   6.634   1.674   8.031 -0.2919 -2.6672  0.7159
 3425TIP3    H231835   6.783   1.701   8.030 -0.9816  2.0207 -1.4345
 3426TIP3   OH231836   1.466   1.117   1.412  0.4999  0.5474  0.0363
 3426TIP3    H131837   1.446   1.049   1.476  1.6313 -0.6073 -0.7856
 3426TIP3    H231838   1.403   1.103   1.341  1.3506 -0.2995 -0.5751
 3427TIP3   OH231839   0.152   6.018   0.754 -0.2828  0.0084  0.2336
 3427TIP3    H131840   0.068   5.986   0.723 -0.7470  1.9902 -0.7503
 3427TIP3    H231841   0.132   6.066   0.834 -0.3597  1.6167 -0.7005
 3428TIP3   OH231842   2.355   4.157   1.025  0.6586 -0.4225 -0.2624
 3428TIP3    H131843   2.386   4.154   0.934  1.4315 -0.3161 -0.0104
 3428TIP3    H231844   2.407   4.226   1.065  0.7104 -0.8414  0.4035
 3429TIP3   OH231845   1.085   0.724   1.287 -0.1571  0.0541 -0.0243
 3429TIP3    H131846   1.109   0.698   1.199  0.4567 -0.9830  0.4329
 3429TIP3    H231847   0.995   0.692   1.298 -0.2446  0.2110 -0.2742
 3430TIP3   OH231848   3.750   6.158   1.618  0.2343 -0.5891  0.1023
 3430TIP3    H131849   3.833   6.110   1.624  0.1042 -0.7608  0.5112
 3430TIP3    H231850   3.741   6.201   1.703 -0.5618 -1.3289  0.3990
 3431TIP3   OH231851   0.518   1.763   6.839  0.6554  0.4882 -0.0925
 3431TIP3    H131852   0.551   1.757   6.929 -2.7493  2.4865  1.4872
 3431TIP3    H231853   0.541   1.851   6.810 -1.1865  1.1306  0.2424
 3432TIP3   OH231854   2.703   3.985   2.800 -0.4845 -0.3458  0.9138
 3432TIP3    H131855   2.782   4.038   2.796 -0.0443 -1.0339 -0.2380
 3432TIP3    H231856   2.647   4.020   2.730 -1.0647 -0.0804  1.4987
 3433TIP3   OH231857   0.831   3.906   2.632  0.1113  0.1988  0.2142
 3433TIP3    H131858   0.894   3.845   2.670  0.5977  0.7205  0.2735
 3433TIP3    H231859   0.751   3.893   2.682  0.0737 -0.7006 -0.0746
 3434TIP3   OH231860   4.975   0.052   6.833  0.0006  0.0407  0.5505
 3434TIP3    H131861   4.947  -0.039   6.827 -3.4529  1.0983 -1.5833
 3434TIP3    H231862   5.014   0.071   6.748  2.8427  0.0658  1.7477
 3435TIP3   OH231863   5.625   0.936   7.425 -0.1914  0.1104  0.1487
 3435TIP3    H131864   5.570   0.919   7.348  0.6296  0.1087 -0.4476
 3435TIP3    H231865   5.627   0.852   7.471 -0.8387  0.1596  0.2821
 3436TIP3   OH231866   3.338   2.795   1.969  0.3590 -0.0680 -0.7090
 3436TIP3    H131867   3.253   2.753   1.980  0.2065 -0.1697 -2.0809
 3436TIP3    H231868   3.385   2.777   2.050 -0.8810 -0.1112  0.0244
 3437TIP3   OH231869   2.623   0.921   1.840  0.3049  0.8598 -0.0644
 3437TIP3    H131870   2.552   0.863   1.866  2.1399 -1.3423  0.3310
 3437TIP3    H231871   2.588   1.009   1.851 -1.8091 -0.1306  1.6504
 3438TIP3   OH231872   5.909   0.413   7.141 -1.0569  0.2368  0.2762
 3438TIP3    H131873   5.881   0.503   7.122 -1.5866 -0.3242 -1.7960
 3438TIP3    H231874   5.861   0.359   7.079 -0.6755 -1.5014  1.4157
 3439TIP3   OH231875   0.586   2.487   6.702 -0.5837 -0.3324  0.1548
 3439TIP3    H131876   0.559   2.438   6.625 -1.1344 -0.1609  0.2369
 3439TIP3    H231877   0.674   2.518   6.681 -0.0847 -1.6250  0.2291
 3440TIP3   OH231878   5.785   1.281   7.522  0.4227 -0.1081 -0.4255
 3440TIP3    H131879   5.840   1.322   7.589 -1.7739  4.6545 -1.0530
 3440TIP3    H231880   5.715   1.239   7.571 -0.5966  2.4435  0.5235
 3441TIP3   OH231881   4.134   5.945   2.787  0.3955  0.0494  0.4232
 3441TIP3    H131882   4.228   5.935   2.772  0.4668 -0.9305  1.3904
 3441TIP3    H231883   4.116   5.891   2.864 -1.5306 -2.4429 -1.5812
 3442TIP3   OH231884   5.996   6.084   6.894 -0.1394  0.2696  0.5962
 3442TIP3    H131885   5.919   6.078   6.839 -0.4879  0.4612  1.0514
 3442TIP3    H231886   6.061   6.028   6.852 -1.5078 -2.4101  1.8363
 3443TIP3   OH231887   3.847   1.305   2.380  0.1080  0.3617 -0.5702
 3443TIP3    H131888   3.822   1.375   2.440  0.7163  0.2814 -0.2214
 3443TIP3    H231889   3.908   1.251   2.429  0.3651  0.1082 -1.1535
 3444TIP3   OH231890   6.202   3.263   7.500  0.0491  0.0737  0.0136
 3444TIP3    H131891   6.288   3.252   7.540 -0.2206 -0.6621  0.4163
 3444TIP3    H231892   6.181   3.355   7.514  0.2466 -0.0184  0.9996
 3445TIP3   OH231893   5.806   0.914   0.494 -0.1737  0.2300  0.5522
 3445TIP3    H131894   5.717   0.949   0.493 -0.6103 -0.8403 -0.4811
 3445TIP3    H231895   5.827   0.901   0.401  0.9729  0.2416  0.7961
 3446TIP3   OH231896   0.200   1.080   1.536  0.3630  0.0904  0.2420
 3446TIP3    H131897   0.132   1.013   1.533  1.5778 -1.1938 -3.0107
 3446TIP3    H231898   0.282   1.031   1.542  1.2126  1.3822 -0.3521
 3447TIP3   OH231899   1.473   1.272   7.911 -0.1101  0.4227  0.1432
 3447TIP3    H131900   1.517   1.196   7.872 -0.6138 -0.4978  1.2965
 3447TIP3    H231901   1.497   1.267   8.004 -2.5249 -0.0500  0.7907
 3448TIP3   OH231902   6.335   1.607   1.041  0.0351  0.2636 -0.6153
 3448TIP3    H131903   6.343   1.695   1.004 -1.2284  0.2327 -1.0049
 3448TIP3    H231904   6.324   1.622   1.135 -1.4862  0.6088 -0.8326
 3449TIP3   OH231905   3.611   6.768   6.820  0.9161  0.4092  0.1282
 3449TIP3    H131906   3.566   6.696   6.865  1.3382 -2.1545 -3.1693
 3449TIP3    H231907   3.540   6.823   6.787  0.4097 -0.4877 -0.3127
 3450TIP3   OH231908   4.996   2.166   7.194  0.0990 -0.2448  0.1697
 3450TIP3    H131909   4.988   2.261   7.201 -1.2005 -0.1510 -1.9039
 3450TIP3    H231910   4.966   2.146   7.106 -1.8235 -2.7931  1.2801
 3451TIP3   OH231911   3.925   3.150   1.414  0.3927  0.1338  0.4062
 3451TIP3    H131912   4.003   3.172   1.364 -0.2645  0.9422 -0.3076
 3451TIP3    H231913   3.918   3.221   1.478  1.2175 -0.8825  1.6683
 3452TIP3   OH231914   1.390   3.309   8.500 -0.0818 -0.6111  0.0061
 3452TIP3    H131915   1.349   3.247   8.440 -2.0696  1.5846 -1.0877
 3452TIP3    H231916   1.338   3.303   8.580 -0.0150 -0.6709  0.0443
 3453TIP3   OH231917   3.913   5.792   7.983 -0.8480 -0.4297 -0.0192
 3453TIP3    H131918   3.900   5.882   8.014  0.6852 -0.3650  0.5006
 3453TIP3    H231919   3.917   5.740   8.063 -0.9109 -0.8524 -0.2873
 3454TIP3   OH231920   1.231   4.722   0.808  0.1998 -0.7889  0.4206
 3454TIP3    H131921   1.168   4.653   0.830 -1.5852 -0.0430 -1.8810
 3454TIP3    H231922   1.297   4.678   0.754 -1.0357 -0.7763 -1.2055
 3455TIP3   OH231923   2.421   6.284   8.640  0.3293  0.2573 -0.3692
 3455TIP3    H131924   2.420   6.191   8.616 -2.0293  0.2269 -0.3985
 3455TIP3    H231925   2.503   6.295   8.689 -0.8671 -2.6986  2.6730
 3456TIP3   OH231926   5.508   0.948   1.973  0.6389 -0.7066  0.2344
 3456TIP3    H131927   5.459   0.908   1.902  1.3263 -0.0090 -0.6614
 3456TIP3    H231928   5.600   0.943   1.945  1.0457 -1.4390  1.5874
 3457TIP3   OH231929   2.764   5.194   2.291  0.3756  0.2373 -0.3835
 3457TIP3    H131930   2.796   5.154   2.371  0.3504  0.0837 -0.4497
 3457TIP3    H231931   2.678   5.229   2.314  0.3807  0.2192 -0.3370
 3458TIP3   OH231932   4.553   4.890   7.784  0.6020 -0.1204  0.0711
 3458TIP3    H131933   4.469   4.850   7.765  0.2278  0.4854  0.4243
 3458TIP3    H231934   4.548   4.917   7.875  1.3624 -0.5079  0.2410
 3459TIP3   OH231935   4.839   2.854   7.668  0.0332  0.8574  0.2137
 3459TIP3    H131936   4.746   2.874   7.661 -0.1132 -0.1479 -1.1287
 3459TIP3    H231937   4.872   2.863   7.579  1.2602  1.3396  0.6977
 3460TIP3   OH231938   1.170   1.134   2.639  0.1033 -0.1814  0.6115
 3460TIP3    H131939   1.143   1.217   2.600  1.5525  0.3141  0.5927
 3460TIP3    H231940   1.249   1.155   2.688  0.0559 -1.4052  1.2582
 3461TIP3   OH231941   0.226   6.512   0.303  0.3091  0.1433  0.7863
 3461TIP3    H131942   0.298   6.501   0.364  0.5787 -0.0923  0.4243
 3461TIP3    H231943   0.154   6.462   0.341 -0.3143  1.9687  2.1876
 3462TIP3   OH231944   4.074   4.277   0.716  0.5623 -0.2537  0.2176
 3462TIP3    H131945   4.114   4.305   0.799  0.3924 -0.2276  0.2901
 3462TIP3    H231946   4.070   4.181   0.723  0.1464 -0.2228  0.4229
 3463TIP3   OH231947   1.691   1.736   8.217  0.3153  0.5088  0.8751
 3463TIP3    H131948   1.629   1.663   8.210 -0.4795  1.2747 -0.4952
 3463TIP3    H231949   1.759   1.704   8.276 -0.5756 -0.9398  1.1618
 3464TIP3   OH231950   5.283   2.982   1.242  0.2937 -0.8598 -0.1788
 3464TIP3    H131951   5.328   2.940   1.168  0.9406 -0.3994 -0.0556
 3464TIP3    H231952   5.350   2.988   1.310  0.8015  2.0487 -0.8034
 3465TIP3   OH231953   5.318   2.429   7.179 -0.4740 -0.1761 -0.0060
 3465TIP3    H131954   5.270   2.354   7.213  0.8364 -1.5460 -1.0252
 3465TIP3    H231955   5.292   2.433   7.086  0.2779 -0.0498 -0.2151
 3466TIP3   OH231956   0.907   1.984   0.200  0.6986  0.1380  0.2039
 3466TIP3    H131957   0.923   1.988   0.294  0.9154  0.7660  0.1464
 3466TIP3    H231958   0.897   2.075   0.174  0.8379 -0.0215 -0.4184
 3467TIP3   OH231959   3.698   3.946   2.126  0.0485  0.2187 -0.5869
 3467TIP3    H131960   3.618   3.902   2.156 -0.0720 -0.3812 -1.7322
 3467TIP3    H231961   3.706   4.022   2.183 -0.2158 -0.8041  0.8804
 3468TIP3   OH231962   2.754   3.469   0.662 -0.1753 -0.2041 -0.5240
 3468TIP3    H131963   2.685   3.406   0.683 -1.3090  1.0358 -0.4020
 3468TIP3    H231964   2.835   3.428   0.694 -1.0195 -1.1667  0.4439
 3469TIP3   OH231965   0.295   2.426   1.152  0.0805 -0.0829  0.5011
 3469TIP3    H131966   0.251   2.467   1.078 -1.4572 -1.3196  0.6753
 3469TIP3    H231967   0.288   2.332   1.135  1.6875 -0.3433  1.1219
 3470TIP3   OH231968   3.437   6.117   1.887  0.5062  0.8655 -0.0748
 3470TIP3    H131969   3.510   6.098   1.829  1.9423  0.6181  1.7120
 3470TIP3    H231970   3.435   6.212   1.892  0.2930  0.8925 -0.6159
 3471TIP3   OH231971   4.787   6.712   7.607  0.0918  0.0359 -0.7267
 3471TIP3    H131972   4.779   6.808   7.611  1.5617  0.4493 -4.3783
 3471TIP3    H231973   4.704   6.682   7.571  0.2385  0.1248 -1.1426
 3472TIP3   OH231974   6.650   3.253   0.195  0.5713  0.4642 -0.2308
 3472TIP3    H131975   6.651   3.340   0.236 -0.7910  0.3431  0.1357
 3472TIP3    H231976   6.570   3.212   0.230  0.0419 -0.1301 -2.0372
 3473TIP3   OH231977   0.769   5.261   0.772  0.0292 -0.3652  0.2509
 3473TIP3    H131978   0.758   5.238   0.864  0.9460 -1.1254  0.1839
 3473TIP3    H231979   0.863   5.255   0.757  0.0599  1.2861 -0.3522
 3474TIP3   OH231980   2.367   5.942   2.482 -0.4238 -0.3784  0.1041
 3474TIP3    H131981   2.326   5.859   2.459 -1.0221 -0.5539  1.6290
 3474TIP3    H231982   2.302   5.985   2.538  0.4717  0.4660  0.5172
 3475TIP3   OH231983   1.855   6.458   0.450 -0.1784 -0.4865  0.1033
 3475TIP3    H131984   1.787   6.525   0.454 -0.0972 -0.4537  1.2757
 3475TIP3    H231985   1.902   6.476   0.370  0.4639  1.4885  0.8742
 3476TIP3   OH231986   4.579   4.528   0.029 -0.4517  0.4682 -0.0986
 3476TIP3    H131987   4.642   4.479   0.082 -2.0754 -0.5915  0.9765
 3476TIP3    H231988   4.627   4.604  -0.002  0.8473  0.7066  2.2179
 3477TIP3   OH231989   3.553   3.842   0.550 -0.0331 -0.4100 -0.3297
 3477TIP3    H131990   3.495   3.795   0.611  0.3881 -0.6604 -0.1132
 3477TIP3    H231991   3.560   3.783   0.474  0.6719 -0.8104  0.0345
 3478TIP3   OH231992   5.460   1.077   0.798 -0.2018 -0.0734  0.0201
 3478TIP3    H131993   5.374   1.045   0.770 -0.9736  2.0564 -0.1775
 3478TIP3    H231994   5.446   1.168   0.821  1.8876  0.1380  0.6646
 3479TIP3   OH231995   2.238   0.350   2.296  0.0335  0.3356 -0.1450
 3479TIP3    H131996   2.233   0.401   2.215  1.4411  0.8875  0.0822
 3479TIP3    H231997   2.313   0.386   2.342  1.5855 -2.3918 -0.3037
 3480TIP3   OH231998   5.218   6.318   1.687 -0.1521  0.2187  0.2846
 3480TIP3    H131999   5.238   6.400   1.642  2.2315 -0.1529  0.5479
 3480TIP3    H232000   5.235   6.337   1.779  0.0988 -0.4740  0.3836
 3481TIP3   OH232001   2.719   1.227   0.663 -0.1957 -0.0174 -0.7686
 3481TIP3    H132002   2.761   1.153   0.620  0.7905 -0.4963  0.9052
 3481TIP3    H232003   2.646   1.188   0.711  0.0673  0.1521 -0.2263
 3482TIP3   OH232004   2.326   1.295   8.015 -0.6578  0.1340  0.1249
 3482TIP3    H132005   2.268   1.361   7.978  1.4512  1.5028 -0.9142
 3482TIP3    H232006   2.396   1.344   8.057 -0.8283 -1.4485  2.4273
 3483TIP3   OH232007   6.478   0.994   7.632 -0.4497 -0.2181  0.4253
 3483TIP3    H132008   6.453   0.924   7.572 -3.1714 -0.8688  2.1504
 3483TIP3    H232009   6.468   1.074   7.580 -0.7423 -0.8674 -0.5517
 3484TIP3   OH232010   6.130   4.830   1.497 -0.4899  0.1297 -0.3573
 3484TIP3    H132011   6.172   4.905   1.540 -0.8160  0.5186 -0.6974
 3484TIP3    H232012   6.072   4.793   1.563  1.7312 -1.5768  0.7496
 3485TIP3   OH232013   5.516   1.714   8.038 -0.3620 -0.3788  0.0229
 3485TIP3    H132014   5.425   1.694   8.014 -0.3730 -0.3718  0.0584
 3485TIP3    H232015   5.566   1.701   7.957 -0.5876  0.9413 -0.3425
 3486TIP3   OH232016   3.270   6.273   7.865  0.5653 -0.0348  0.3993
 3486TIP3    H132017   3.238   6.183   7.878  1.5765 -0.4299  0.2880
 3486TIP3    H232018   3.257   6.290   7.772  0.0149  0.0750  0.4972
 3487TIP3   OH232019   3.197   1.924   8.206  0.4248  0.1630  0.1391
 3487TIP3    H132020   3.157   1.865   8.142 -0.4467  2.3856 -1.5190
 3487TIP3    H232021   3.157   1.900   8.289  0.0299 -1.4955 -0.4967
 3488TIP3   OH232022   1.836   4.868   0.742 -0.0665 -0.2912  0.0853
 3488TIP3    H132023   1.840   4.776   0.718 -1.6556  0.0288 -1.6258
 3488TIP3    H232024   1.915   4.907   0.706  0.3672 -0.8799  0.3991
 3489TIP3   OH232025   1.939   0.537   1.994  0.2849 -0.0897  0.1432
 3489TIP3    H132026   1.866   0.553   1.935 -0.2563  0.4666  0.9346
 3489TIP3    H232027   1.972   0.451   1.970 -0.2628 -0.0930 -0.6105
 3490TIP3   OH232028   3.472   5.540   0.114 -0.1067  0.1003  0.2829
 3490TIP3    H132029   3.553   5.524   0.162  0.7738  0.0165 -1.1524
 3490TIP3    H232030   3.498   5.533   0.022 -1.6148  0.7347 -0.2135
 3491TIP3   OH232031   4.645   0.373   1.885 -0.2480  0.0444 -0.1353
 3491TIP3    H132032   4.740   0.368   1.896  0.1270  2.2857 -1.6641
 3491TIP3    H232033   4.615   0.417   1.965  0.2971  1.2054 -0.5474
 3492TIP3   OH232034   5.264   2.264   2.687 -0.8278  0.2924  0.4238
 3492TIP3    H132035   5.287   2.282   2.596  0.3311  1.3227  0.8978
 3492TIP3    H232036   5.170   2.243   2.684 -0.8103  0.3293 -0.9941
 3493TIP3   OH232037   1.160   2.923   1.202 -0.6353 -0.7419 -0.3002
 3493TIP3    H132038   1.184   3.016   1.206 -0.8880 -0.7083  1.9223
 3493TIP3    H232039   1.064   2.923   1.207 -0.6662 -1.0606  4.9150
 3494TIP3   OH232040   1.363   2.764   0.653 -0.1084  0.6203 -0.2047
 3494TIP3    H132041   1.318   2.774   0.736 -0.5496 -0.6554 -0.2628
 3494TIP3    H232042   1.446   2.811   0.664  0.1137 -0.0542  1.1710
 3495TIP3   OH232043   1.450   0.285   1.103  0.1459  0.1507  0.4752
 3495TIP3    H132044   1.365   0.274   1.061  0.4889 -0.4501 -0.0661
 3495TIP3    H232045   1.484   0.196   1.114  0.9355  0.4056  0.2040
 3496TIP3   OH232046   1.251   6.347   1.482  0.5976  0.0028  0.0105
 3496TIP3    H132047   1.181   6.291   1.517  0.7216  0.2666  0.6899
 3496TIP3    H232048   1.205   6.422   1.445  0.3803 -0.8197 -1.4840
 3497TIP3   OH232049   1.451   1.514   7.782 -0.6735  0.4070  0.9396
 3497TIP3    H132050   1.457   1.434   7.835  1.3494 -0.1539 -0.0591
 3497TIP3    H232051   1.513   1.574   7.822  0.2522  0.2751 -0.2443
 3498TIP3   OH232052   0.044   1.324   6.540 -0.7345  0.3172  0.1831
 3498TIP3    H132053   0.114   1.373   6.496 -1.1881  0.3079 -0.5699
 3498TIP3    H232054   0.018   1.258   6.476  0.6466 -1.7027  1.5661
 3499TIP3   OH232055   3.627   6.722   0.146  0.6050 -0.5406 -0.0712
 3499TIP3    H132056   3.713   6.764   0.145 -0.6288  2.2025 -1.3331
 3499TIP3    H232057   3.585   6.754   0.225 -0.2376  0.4474 -0.8838
 3500TIP3   OH232058   0.051   3.663   2.662 -0.1205  0.1544 -0.1476
 3500TIP3    H132059   0.112   3.647   2.735 -0.0509 -1.1730 -0.4746
 3500TIP3    H232060   0.104   3.651   2.583 -1.0297 -2.4001 -0.4783
 3501TIP3   OH232061   5.877   6.648   8.321  0.3702 -0.0198 -0.3688
 3501TIP3    H132062   5.946   6.593   8.358  2.0243  1.7091 -0.7305
 3501TIP3    H232063   5.820   6.587   8.274  1.2755 -1.5832  0.4720
 3502TIP3   OH232064   5.403   0.598   7.649  0.2001 -0.3616  0.3516
 3502TIP3    H132065   5.489   0.631   7.676  2.2525 -1.3097 -4.1242
 3502TIP3    H232066   5.359   0.674   7.611 -0.2539 -0.2535  1.0742
 3503TIP3   OH232067   4.952   3.929   1.109 -0.3605 -0.1886 -0.1065
 3503TIP3    H132068   5.039   3.965   1.093  0.6546 -2.1316  0.6213
 3503TIP3    H232069   4.949   3.917   1.204 -1.6644  0.3923 -0.0609
 3504TIP3   OH232070   5.000   3.223   1.306 -0.4324 -0.5014 -0.4944
 3504TIP3    H132071   5.067   3.286   1.333  1.0187 -1.3404 -1.9772
 3504TIP3    H232072   5.020   3.144   1.356 -0.5864 -0.6282 -0.6323
 3505TIP3   OH232073   0.781   0.807   7.050 -0.1634  0.1051  0.5612
 3505TIP3    H132074   0.711   0.801   6.984  0.6744 -1.0311 -0.2732
 3505TIP3    H232075   0.783   0.721   7.091 -0.6292  0.7862  2.0655
 3506TIP3   OH232076   6.520   0.930   2.003  0.1769  0.2497 -0.6171
 3506TIP3    H132077   6.474   1.007   1.969 -1.1664  0.5721  1.7103
 3506TIP3    H232078   6.460   0.858   1.986 -0.5685  0.4322  1.0122
 3507TIP3   OH232079   5.913   1.591   2.192  0.1005  0.6858 -0.3368
 3507TIP3    H132080   5.848   1.651   2.157 -0.7901 -0.1649 -0.1846
 3507TIP3    H232081   5.877   1.504   2.176  2.1164  0.0929 -2.0561
 3508TIP3   OH232082   3.096   3.428   1.760 -0.1666 -0.3978 -0.2230
 3508TIP3    H132083   3.143   3.366   1.704  1.1834  0.7329 -0.4090
 3508TIP3    H232084   3.091   3.385   1.845  3.1141  0.1720  0.4143
 3509TIP3   OH232085   5.467   6.313   1.874 -0.3291  0.1311  0.9057
 3509TIP3    H132086   5.518   6.247   1.920  1.6820  2.1652  1.7678
 3509TIP3    H232087   5.464   6.388   1.934 -0.5868  1.6199 -0.8709
 3510TIP3   OH232088   3.183   3.450   1.096  0.1090 -0.0400 -0.4069
 3510TIP3    H132089   3.144   3.537   1.109 -1.7023 -0.6149 -1.7407
 3510TIP3    H232090   3.250   3.444   1.165 -1.8178  1.1812  1.7175
 3511TIP3   OH232091   3.761   5.150   1.314  0.2589 -0.3314  0.3218
 3511TIP3    H132092   3.736   5.102   1.393  1.5114 -0.4932  0.6330
 3511TIP3    H232093   3.814   5.088   1.264  3.2813  1.1617  1.4836
 3512TIP3   OH232094   0.906   1.367   1.632 -0.5402  0.1452 -0.0806
 3512TIP3    H132095   0.877   1.377   1.723  0.9066 -2.3170  0.7192
 3512TIP3    H232096   0.873   1.281   1.606  1.3488 -0.3655 -0.9345
 3513TIP3   OH232097   6.797   6.042   8.132 -0.1570 -0.5057  0.0602
 3513TIP3    H132098   6.773   6.044   8.224 -1.3528 -0.0839 -0.2375
 3513TIP3    H232099   6.861   6.113   8.122 -0.4583 -0.1760  0.4546
 3514TIP3   OH232100   1.050   6.620   0.508 -0.1333  0.0096  0.9252
 3514TIP3    H132101   0.991   6.690   0.538 -1.0721 -0.1081 -0.5467
 3514TIP3    H232102   1.058   6.562   0.584 -2.6088 -0.4109  0.9773
 3515TIP3   OH232103   5.967   4.764   2.090 -0.6288  0.4441  1.0468
 3515TIP3    H132104   5.962   4.859   2.090 -2.2950  0.3990 -0.5625
 3515TIP3    H232105   5.909   4.736   2.019  0.8603 -1.7245  0.5704
 3516TIP3   OH232106   3.371   1.471   0.884 -0.0930 -0.0769 -0.5700
 3516TIP3    H132107   3.373   1.567   0.883 -1.0119  0.0257  1.7199
 3516TIP3    H232108   3.308   1.449   0.952 -1.1351 -2.3527 -2.1407
 3517TIP3   OH232109   2.422   6.013   8.554 -0.1245 -0.6074 -0.2198
 3517TIP3    H132110   2.479   5.941   8.528 -0.9738 -2.0389  1.6340
 3517TIP3    H232111   2.388   6.049   8.472  2.7062 -0.2474 -1.3545
 3518TIP3   OH232112   4.124   4.997   0.116  0.1412  0.3014  0.4962
 3518TIP3    H132113   4.159   5.086   0.105 -2.2977  1.4220  1.1697
 3518TIP3    H232114   4.180   4.958   0.184  2.4447  0.5637 -1.1339
 3519TIP3   OH232115   3.812   4.091   1.351  0.7807  0.0294 -0.3684
 3519TIP3    H132116   3.779   4.038   1.279 -0.2697  0.8019 -0.4880
 3519TIP3    H232117   3.851   4.168   1.308  3.1475 -1.0313 -0.2503
 3520TIP3   OH232118   4.762   5.930   0.805 -0.0603  0.1740  0.3621
 3520TIP3    H132119   4.716   5.975   0.734 -1.0147  0.2474  1.0071
 3520TIP3    H232120   4.790   5.999   0.865  1.4507  0.1885 -0.3099
 3521TIP3   OH232121   4.273   5.516   0.277  0.0972 -0.0673  0.2278
 3521TIP3    H132122   4.341   5.567   0.321  0.1130  0.0301  0.0915
 3521TIP3    H232123   4.306   5.426   0.279 -0.4165 -0.2496  1.4109
 3522TIP3   OH232124   4.947   4.521   8.322  0.3276 -0.2368 -0.0706
 3522TIP3    H132125   4.877   4.456   8.317 -0.1593  0.2161  0.6073
 3522TIP3    H232126   4.962   4.531   8.416  0.0617  0.9724 -0.1487
 3523TIP3   OH232127   4.590   6.078   8.196 -0.3559  0.3129 -0.2152
 3523TIP3    H132128   4.640   6.096   8.276  1.5660 -1.1428 -1.0006
 3523TIP3    H232129   4.545   5.996   8.213 -2.8781  1.7578  0.5906
 3524TIP3   OH232130   0.989   6.080   2.053  0.3489  0.0397 -0.5863
 3524TIP3    H132131   0.966   6.042   2.138 -0.9328  1.4483 -0.2598
 3524TIP3    H232132   0.966   6.012   1.990  0.8230 -0.8202  0.1419
 3525TIP3   OH232133   0.372   3.207   1.569  0.4159  0.2931  0.6750
 3525TIP3    H132134   0.298   3.245   1.521  1.0968  1.7668  0.7491
 3525TIP3    H232135   0.363   3.243   1.658  2.1533  1.8873  0.2645
 3526TIP3   OH232136   4.007   1.582   2.547  0.0606  0.2799 -0.0646
 3526TIP3    H132137   3.944   1.645   2.581 -0.0866 -0.1105  0.3970
 3526TIP3    H232138   4.077   1.636   2.510  0.2911  0.7242  0.9650
 3527TIP3   OH232139   6.197   2.434   1.985 -0.1435  0.1910  0.7010
 3527TIP3    H132140   6.156   2.367   2.040 -0.8141  0.8801  1.0571
 3527TIP3    H232141   6.291   2.417   1.993 -0.2936 -2.5942 -1.5939
 3528TIP3   OH232142   4.094   3.445   6.744 -0.3189 -0.5188 -0.3837
 3528TIP3    H132143   4.072   3.430   6.652 -0.1255 -0.8690 -0.3761
 3528TIP3    H232144   4.012   3.472   6.784 -0.3731 -0.2219 -0.6884
 3529TIP3   OH232145   4.102   2.233   1.298  0.1989  0.1465  0.0451
 3529TIP3    H132146   4.076   2.296   1.365 -0.7744 -1.0800  0.8793
 3529TIP3    H232147   4.176   2.273   1.254 -0.9734  2.2705 -0.0936
 3530TIP3   OH232148   5.296   6.875   2.501  0.4368 -0.2162 -0.0358
 3530TIP3    H132149   5.202   6.884   2.486  0.4746 -0.8290 -0.6737
 3530TIP3    H232150   5.334   6.954   2.461  0.2729 -0.4255 -0.6214
 3531TIP3   OH232151   0.956   1.031   0.344 -0.3209 -0.0156 -0.1618
 3531TIP3    H132152   0.862   1.039   0.329 -0.6671 -1.6737  0.8882
 3531TIP3    H232153   0.968   0.940   0.371  1.4341  0.4752  0.8124
 3532TIP3   OH232154   1.758   6.303   1.437 -0.1648 -0.0785 -0.1839
 3532TIP3    H132155   1.791   6.320   1.525  1.4129  0.0501 -0.7690
 3532TIP3    H232156   1.681   6.359   1.430 -2.2137 -2.3723  2.1691
 3533TIP3   OH232157   0.767   1.380   1.879  0.6007 -0.2780  0.2400
 3533TIP3    H132158   0.739   1.435   1.953 -0.1125  0.0712 -0.2687
 3533TIP3    H232159   0.692   1.324   1.862  0.0769  0.8249 -1.2970
 3534TIP3   OH232160   5.159   2.704   2.616  0.1032 -0.2878 -0.5359
 3534TIP3    H132161   5.105   2.761   2.671 -0.0149  0.6285 -1.5595
 3534TIP3    H232162   5.159   2.620   2.661 -2.1407 -0.3141 -0.4517
 3535TIP3   OH232163   5.238   4.599   7.479 -0.6099 -0.5545  0.3700
 3535TIP3    H132164   5.269   4.510   7.462  2.1060  0.0092  1.7713
 3535TIP3    H232165   5.297   4.654   7.428 -1.4446  0.4999  0.5231
 3536TIP3   OH232166   6.209   0.857   8.212 -0.3418 -0.6887  0.3099
 3536TIP3    H132167   6.242   0.934   8.167 -1.1554 -0.0947  0.7185
 3536TIP3    H232168   6.219   0.877   8.305 -0.1989 -1.2373  0.4194
 3537TIP3   OH232169   5.064   2.751   0.782  0.1041 -0.0240  0.0049
 3537TIP3    H132170   5.121   2.827   0.777 -1.3225  1.2362  1.6582
 3537TIP3    H232171   5.064   2.727   0.875  0.9348 -2.4372 -0.5250
 3538TIP3   OH232172   3.292   0.208   8.506  0.2236  0.2615 -0.2358
 3538TIP3    H132173   3.384   0.182   8.495  0.1447  0.1104 -0.5492
 3538TIP3    H232174   3.287   0.241   8.596  0.1780 -1.4638  0.4353
 3539TIP3   OH232175   2.732   5.536   0.527  0.2074 -0.2649 -0.0005
 3539TIP3    H132176   2.723   5.510   0.618 -0.5806  0.2545  0.0804
 3539TIP3    H232177   2.675   5.612   0.518  0.7874  0.0964 -0.7650
 3540TIP3   OH232178   6.003   2.221   7.753 -0.3911 -0.3151 -0.3143
 3540TIP3    H132179   6.022   2.231   7.660 -0.8331  1.6223 -0.2529
 3540TIP3    H232180   5.918   2.178   7.756 -0.4131 -0.3106 -0.8230
 3541TIP3   OH232181   1.958   3.217   8.517 -0.1540  0.5649  0.2013
 3541TIP3    H132182   2.019   3.242   8.586  1.2677  0.1871 -0.8733
 3541TIP3    H232183   1.985   3.269   8.441 -1.0869  0.2790 -0.3454
 3542TIP3   OH232184   1.934   6.186   2.843 -0.8862 -0.2786  0.2513
 3542TIP3    H132185   1.940   6.255   2.909  0.6669 -1.4504  1.3958
 3542TIP3    H232186   1.872   6.123   2.879 -0.3008 -0.7499  0.4580
 3543TIP3   OH232187   6.180   0.994   0.274 -0.1293 -0.5227 -0.3135
 3543TIP3    H132188   6.253   0.943   0.310  1.2493  1.2202 -0.5517
 3543TIP3    H232189   6.106   0.932   0.275  0.6546 -1.5881  2.3434
 3544TIP3   OH232190   6.499   2.577   0.536  0.3821  0.3429  0.2853
 3544TIP3    H132191   6.588   2.579   0.570  0.5193  0.9797 -0.0980
 3544TIP3    H232192   6.470   2.668   0.538  0.1522  0.3036 -0.6595
 3545TIP3   OH232193   1.535   6.140   1.195  0.3240  0.1266  0.3238
 3545TIP3    H132194   1.578   6.055   1.194 -0.9807 -0.6282 -2.4298
 3545TIP3    H232195   1.605   6.202   1.173  1.1662 -0.2718  1.7843
 3546TIP3   OH232196   3.557   0.298   2.020  0.0816 -0.3103  0.4463
 3546TIP3    H132197   3.645   0.261   2.009  0.7069  1.2189  0.1675
 3546TIP3    H232198   3.527   0.315   1.931 -0.5257 -0.8397  0.5398
 3547TIP3   OH232199   4.761   5.461   8.003  0.3472  0.3449 -0.1214
 3547TIP3    H132200   4.806   5.514   8.070 -0.7042  1.1872 -0.0524
 3547TIP3    H232201   4.668   5.479   8.017 -0.0141 -1.1164 -0.4641
 3548TIP3   OH232202   2.515   5.298   2.202 -0.4059  0.2700 -0.2555
 3548TIP3    H132203   2.484   5.383   2.235 -0.2474 -0.4737  1.9526
 3548TIP3    H232204   2.441   5.239   2.215  0.4767 -0.5866  1.1140
 3549TIP3   OH232205   1.704   2.284   0.543 -0.6618  0.1222  0.1245
 3549TIP3    H132206   1.742   2.327   0.467  1.4604 -1.4594  0.1654
 3549TIP3    H232207   1.623   2.244   0.511 -0.7458  1.0251 -0.8153
 3550TIP3   OH232208   2.386   5.778   1.169 -0.0654  0.1540 -0.5624
 3550TIP3    H132209   2.331   5.710   1.208 -1.1759  0.8824 -0.7896
 3550TIP3    H232210   2.415   5.740   1.086  0.3309 -0.4906 -0.1387
 3551TIP3   OH232211   1.056   1.972   2.484  0.6788  0.6088  0.4865
 3551TIP3    H132212   1.097   1.952   2.568 -0.1456 -1.8665  0.3851
 3551TIP3    H232213   1.107   1.921   2.420 -0.3981  0.2167 -0.0964
 3552TIP3   OH232214   3.868   2.479   8.284 -0.5799  0.0381  0.0530
 3552TIP3    H132215   3.916   2.525   8.215  1.8365  0.2070  1.7367
 3552TIP3    H232216   3.916   2.397   8.297 -0.3740  0.4404  2.1637
 3553TIP3   OH232217   4.085   3.996   0.810  0.3299 -0.8754 -0.0858
 3553TIP3    H132218   4.050   4.032   0.892  0.1804 -0.6137 -0.2588
 3553TIP3    H232219   4.019   3.932   0.782  1.0845 -2.0378  0.7415
 3554TIP3   OH232220   2.770   1.610   2.088 -0.9071 -0.1896  0.1823
 3554TIP3    H132221   2.752   1.679   2.152  1.3270  2.8736 -2.1991
 3554TIP3    H232222   2.688   1.601   2.039 -0.8700  1.8947 -0.3525
 3555TIP3   OH232223   2.239   0.047   0.782  0.2788 -0.5629 -0.4304
 3555TIP3    H132224   2.297  -0.014   0.736 -0.5043 -0.7504 -1.2207
 3555TIP3    H232225   2.264   0.133   0.750 -0.6941 -0.7398 -1.7760
 3556TIP3   OH232226   4.548   2.207   2.645 -0.3066 -0.1346  0.5641
 3556TIP3    H132227   4.508   2.120   2.647 -0.7496  0.0073 -0.8890
 3556TIP3    H232228   4.627   2.198   2.698 -1.3972 -0.8514  2.1524
 3557TIP3   OH232229   4.041   0.869   8.603  0.2553 -0.2832 -0.1540
 3557TIP3    H132230   4.094   0.940   8.639  0.2769  0.3205 -1.3338
 3557TIP3    H232231   3.960   0.873   8.653  0.3840  0.3555  0.0186
 3558TIP3   OH232232   6.693   5.303   6.180 -0.4279  0.2761 -0.3268
 3558TIP3    H132233   6.782   5.277   6.201 -0.9322 -0.4599  1.0436
 3558TIP3    H232234   6.671   5.371   6.244 -0.6869  0.8106 -0.9692
 3559TIP3   OH232235   3.691   5.753   0.365 -0.0092  0.3903  0.1411
 3559TIP3    H132236   3.740   5.769   0.284  0.3332 -1.0035  0.0413
 3559TIP3    H232237   3.737   5.680   0.406 -0.7072  0.5118  1.1557
 3560TIP3   OH232238   5.689   5.082   7.590  0.8088 -0.2012  0.1322
 3560TIP3    H132239   5.600   5.101   7.560  1.1650  2.5045  0.5758
 3560TIP3    H232240   5.745   5.112   7.518  1.4273 -2.3131 -0.3493
 3561TIP3   OH232241   4.861   0.140   7.662 -0.0292 -0.4773  0.2932
 3561TIP3    H132242   4.913   0.154   7.742 -0.6423 -0.9755  0.7885
 3561TIP3    H232243   4.787   0.201   7.671 -0.9857 -1.6716  0.9207
 3562TIP3   OH232244   2.703   2.464   1.023 -0.3818  0.1071 -0.0949
 3562TIP3    H132245   2.757   2.520   1.078  3.0597 -2.5826 -0.3511
 3562TIP3    H232246   2.704   2.507   0.937  0.7957  0.4755  0.0916
 3563TIP3   OH232247   3.697   2.398   8.474 -0.1944 -0.5545  0.1588
 3563TIP3    H132248   3.730   2.314   8.504 -1.9604 -1.1406  0.5453
 3563TIP3    H232249   3.774   2.441   8.435  1.3326 -1.2512  2.2195
 3564TIP3   OH232250   5.113   0.373   8.396 -0.2007 -0.4788  0.1894
 3564TIP3    H132251   5.034   0.374   8.342  0.7386  0.0045 -1.2131
 3564TIP3    H232252   5.166   0.302   8.360  0.3312 -0.3253  0.6503
 3565TIP3   OH232253   0.021   2.897   7.870  0.2702 -0.2149  0.3179
 3565TIP3    H132254  -0.043   2.826   7.865 -1.2748  1.0280  1.3235
 3565TIP3    H232255   0.095   2.867   7.817 -1.2529 -1.6035 -1.1401
 3566TIP3   OH232256   6.655   5.579   8.529  0.4699  0.1040 -0.8249
 3566TIP3    H132257   6.748   5.561   8.541  0.6437  0.7771 -1.1266
 3566TIP3    H232258   6.625   5.510   8.470  0.8057 -0.0328 -0.8425
 3567TIP3   OH232259   3.255   3.551   1.511  0.5953 -0.2342 -0.2444
 3567TIP3    H132260   3.206   3.472   1.533  0.8211  0.4368  3.2792
 3567TIP3    H232261   3.189   3.612   1.479  0.0440 -1.0867 -0.7658
 3568TIP3   OH232262   2.494   6.632   0.161  0.1118  0.4530 -0.5272
 3568TIP3    H132263   2.461   6.544   0.146  2.0791 -0.6018  0.9244
 3568TIP3    H232264   2.545   6.652   0.082  1.0139 -0.4114 -0.1844
 3569TIP3   OH232265   0.661   1.116   2.391  0.1242 -0.1155 -0.2128
 3569TIP3    H132266   0.726   1.135   2.459 -2.5836 -0.8508  2.8398
 3569TIP3    H232267   0.661   1.021   2.384 -0.1580 -0.0805 -0.6865
 3570TIP3   OH232268   6.702   4.697   8.377  0.3615  0.5162  0.2479
 3570TIP3    H132269   6.711   4.786   8.344 -0.5824 -0.4084 -2.7902
 3570TIP3    H232270   6.739   4.700   8.466  1.7452  3.5461 -0.3305
 3571TIP3   OH232271   0.698   3.785   0.522 -1.1007  0.0054 -0.2614
 3571TIP3    H132272   0.644   3.855   0.559  0.1309  0.1661  1.3541
 3571TIP3    H232273   0.734   3.740   0.598  1.8220  0.5373 -1.1990
 3572TIP3   OH232274   4.078   5.653   1.809  0.0538  0.8517 -0.1326
 3572TIP3    H132275   4.073   5.566   1.849  1.0394  0.3750 -1.0071
 3572TIP3    H232276   4.015   5.649   1.737 -0.7591  1.2717  0.5360
 3573TIP3   OH232277   5.262   6.230   0.954 -0.0552 -0.0608  0.6363
 3573TIP3    H132278   5.229   6.158   0.900  4.7837 -0.5079 -2.2433
 3573TIP3    H232279   5.297   6.187   1.032 -1.2325 -0.1709  1.1348
 3574TIP3   OH232280   4.128   6.151   0.683  0.1086 -0.2178 -0.0908
 3574TIP3    H132281   4.182   6.229   0.697 -0.4735  0.5591 -1.8938
 3574TIP3    H232282   4.068   6.150   0.757 -1.4688  2.4675 -1.1758
 3575TIP3   OH232283   0.306   5.071   7.576 -0.2104 -0.4541 -0.1428
 3575TIP3    H132284   0.379   5.127   7.604 -0.3488 -0.7536  0.8647
 3575TIP3    H232285   0.348   5.000   7.528  0.0006  0.2864 -1.0761
 3576TIP3   OH232286   6.294   6.730   1.835 -0.3828 -0.3389  0.3326
 3576TIP3    H132287   6.309   6.804   1.895  0.4484  1.4520 -1.9038
 3576TIP3    H232288   6.202   6.737   1.811 -0.0569  0.7029 -0.7025
 3577TIP3   OH232289   0.771   0.502   1.060 -0.3015 -0.4683  0.0805
 3577TIP3    H132290   0.777   0.557   1.138 -0.3106 -0.3219 -0.0219
 3577TIP3    H232291   0.754   0.563   0.989  0.1981 -0.5438 -0.1113
 3578TIP3   OH232292   1.086   4.151   0.839 -0.3395  0.1447 -0.0109
 3578TIP3    H132293   1.104   4.235   0.797  0.8811 -0.0662  0.0603
 3578TIP3    H232294   1.089   4.088   0.767  2.4418 -0.3119  0.4098
 3579TIP3   OH232295   4.088   0.974   7.450  0.2121 -0.2486 -0.0270
 3579TIP3    H132296   4.120   0.892   7.413  0.3126  0.0340 -0.5761
 3579TIP3    H232297   4.039   0.948   7.528 -1.7505 -1.0572 -1.4589
 3580TIP3   OH232298   0.494   3.618   0.193 -0.0025 -0.0011 -0.0384
 3580TIP3    H132299   0.488   3.707   0.157  0.3061 -0.2173 -0.6379
 3580TIP3    H232300   0.419   3.611   0.251 -0.5124  0.3646 -0.6378
 3581TIP3   OH232301   4.711   1.103   8.507  0.6556 -0.3352 -0.0548
 3581TIP3    H132302   4.786   1.044   8.510  0.4607 -0.5554  0.8547
 3581TIP3    H232303   4.653   1.065   8.441 -0.3653 -2.3019  1.8601
 3582TIP3   OH232304   0.320   2.412   2.401 -0.3427 -0.5774 -0.6535
 3582TIP3    H132305   0.356   2.498   2.422 -0.8640 -0.3917 -0.5064
 3582TIP3    H232306   0.388   2.350   2.428 -0.5807 -0.2877  0.6622
 3583TIP3   OH232307   6.627   6.195   6.945  0.1819  0.5027 -0.3148
 3583TIP3    H132308   6.678   6.246   7.008  0.0571 -2.6150  2.6194
 3583TIP3    H232309   6.536   6.205   6.975 -0.1934  0.8587 -1.5214
 3584TIP3   OH232310   1.522   0.158   8.579  0.2895 -0.1629  0.2124
 3584TIP3    H132311   1.531   0.066   8.556 -0.3986 -0.1398 -0.1720
 3584TIP3    H232312   1.547   0.163   8.671 -0.5126 -0.8787  0.4773
 3585TIP3   OH232313   3.812   5.237   0.016  0.3501 -0.4081  0.1187
 3585TIP3    H132314   3.827   5.162  -0.042 -0.3259 -2.2079  2.1506
 3585TIP3    H232315   3.899   5.264   0.044  0.5414 -1.6702  0.8126
 3586TIP3   OH232316   6.397   3.684   7.932  0.5573  0.1185 -0.1912
 3586TIP3    H132317   6.361   3.714   8.016  0.8801  1.3880 -0.4880
 3586TIP3    H232318   6.444   3.603   7.954  0.8369  0.5578  0.8988
 3587TIP3   OH232319   1.069   5.833   0.977 -0.0074  0.5289 -0.2557
 3587TIP3    H132320   1.096   5.911   1.026  0.7451  0.0608  0.0928
 3587TIP3    H232321   1.093   5.760   1.033  0.4484 -0.0004 -1.1166
 3588TIP3   OH232322   3.823   2.695   1.510  0.3008 -0.1913 -0.1202
 3588TIP3    H132323   3.774   2.643   1.573  0.1239 -0.2164 -0.2784
 3588TIP3    H232324   3.834   2.638   1.434 -0.3571  0.1862 -0.5025
 3589TIP3   OH232325   2.984   0.018   0.799 -0.3926 -0.0181  0.2950
 3589TIP3    H132326   3.019   0.073   0.728 -0.5426  1.0060  0.9910
 3589TIP3    H232327   2.891   0.009   0.778 -0.4407  0.2995  0.3649
 3590TIP3   OH232328   4.329   3.936   0.711  0.3600  0.1675 -0.3187
 3590TIP3    H132329   4.261   3.977   0.764  1.1422  1.3667 -0.1968
 3590TIP3    H232330   4.328   3.844   0.737 -2.4621 -0.2859 -1.6626
 3591TIP3   OH232331   4.995   2.720   8.508 -0.6958  0.6158  0.5094
 3591TIP3    H132332   4.976   2.811   8.486  0.0894  0.7231  0.2228
 3591TIP3    H232333   5.047   2.724   8.588  0.0358  0.4787  0.0536
 3592TIP3   OH232334   1.858   5.137   1.030  0.1917 -0.6339 -0.1783
 3592TIP3    H132335   1.810   5.188   0.965 -0.4354 -0.8788  0.0798
 3592TIP3    H232336   1.945   5.125   0.992  0.6094  1.2433  0.0851
 3593TIP3   OH232337   3.367   2.463   0.991  0.1654 -0.3637  0.0446
 3593TIP3    H132338   3.275   2.478   0.970  0.5006  1.4164 -0.3101
 3593TIP3    H232339   3.366   2.437   1.083 -0.7722 -1.6298 -0.2947
 3594TIP3   OH232340   0.316   2.108   1.310 -0.2740  0.0461 -0.2553
 3594TIP3    H132341   0.313   2.180   1.373 -2.8482 -0.5088  0.3961
 3594TIP3    H232342   0.250   2.131   1.244 -0.0906 -1.0113 -0.8330
 3595TIP3   OH232343   5.723   5.066   7.237 -0.2182 -0.3622  0.2986
 3595TIP3    H132344   5.672   5.072   7.156  1.2426 -0.0674 -0.6376
 3595TIP3    H232345   5.687   4.990   7.282 -1.7131  0.0463 -0.1324
 3596TIP3   OH232346   0.478   3.584   0.466 -0.0452  0.1108 -0.6711
 3596TIP3    H132347   0.423   3.583   0.544  1.3034 -1.9008  0.3433
 3596TIP3    H232348   0.532   3.662   0.476  0.1897 -0.1822  0.5012
 3597TIP3   OH232349   4.096   4.238   1.668 -0.1748  0.1784  0.0753
 3597TIP3    H132350   4.020   4.195   1.706 -1.2788  0.6955 -1.4525
 3597TIP3    H232351   4.147   4.269   1.743 -0.7743 -1.3315  1.1407
 3598TIP3   OH232352   0.376   2.716   7.874 -0.1944  0.0821  0.6704
 3598TIP3    H132353   0.371   2.713   7.970  1.3841 -0.9399  0.7568
 3598TIP3    H232354   0.469   2.727   7.855 -0.1983 -1.8420 -0.7685
 3599TIP3   OH232355   0.065   6.674   1.686  0.2267  0.4940  0.3074
 3599TIP3    H132356   0.054   6.626   1.768  2.0503 -0.0851  0.2423
 3599TIP3    H232357   0.090   6.762   1.712 -0.9709  0.8410  0.3741
 3600TIP3   OH232358   4.580   5.806   1.757 -0.3219 -0.0230 -0.7054
 3600TIP3    H132359   4.604   5.739   1.692  0.2205  0.0953 -0.6327
 3600TIP3    H232360   4.485   5.800   1.763 -0.2524 -1.1499 -0.3291
 3601TIP3   OH232361   3.125   2.375   6.726  0.0083 -0.1860  0.2524
 3601TIP3    H132362   3.178   2.453   6.706  0.2675 -0.3482  0.2982
 3601TIP3    H232363   3.190   2.307   6.746 -0.2085 -0.4918 -0.0772
 3602TIP3   OH232364   1.470   2.083   0.997 -0.1284 -0.2826 -0.1280
 3602TIP3    H132365   1.397   2.074   1.058 -0.4974 -0.5695 -0.5969
 3602TIP3    H232366   1.482   2.177   0.986 -0.0521 -0.2318  0.3912
 3603TIP3   OH232367   0.855   6.812   6.447  0.3871 -0.1055 -0.1646
 3603TIP3    H132368   0.885   6.754   6.377  1.5206 -1.1169  1.1223
 3603TIP3    H232369   0.818   6.753   6.513 -0.6457  0.8320  0.1240
 3604TIP3   OH232370   1.965   5.821   1.722 -0.0647 -0.1580  0.4402
 3604TIP3    H132371   1.932   5.862   1.801  0.8519  2.1197 -0.2635
 3604TIP3    H232372   2.060   5.829   1.728  0.0208  0.2982 -0.9735
 3605TIP3   OH232373   0.919   2.290   0.729 -0.1119 -0.2443 -0.0248
 3605TIP3    H132374   0.963   2.212   0.761 -0.8209 -0.7230 -0.2001
 3605TIP3    H232375   0.827   2.265   0.720 -0.0980  0.1434 -1.5508
 3606TIP3   OH232376   4.201   5.184   1.974  0.2522  0.9459  0.2058
 3606TIP3    H132377   4.137   5.112   1.970  0.3018  0.9448 -1.0535
 3606TIP3    H232378   4.275   5.153   1.922  1.2889  0.9659  1.6343
 3607TIP3   OH232379   3.075   3.763   0.571  0.1479  0.0176 -0.1549
 3607TIP3    H132380   3.078   3.668   0.576  0.3746  0.0067 -0.4738
 3607TIP3    H232381   3.089   3.792   0.661  1.4606 -0.2264 -0.2693
 3608TIP3   OH232382   5.273   6.758   1.173 -0.3209 -0.7597 -0.1640
 3608TIP3    H132383   5.249   6.674   1.213  1.9728 -1.5798 -0.3650
 3608TIP3    H232384   5.361   6.744   1.138 -0.2952  1.4292 -1.1546
 3609TIP3   OH232385   3.551   2.207   0.275  0.6100  0.1860  0.1870
 3609TIP3    H132386   3.464   2.243   0.293  0.7633  0.5382  0.2401
 3609TIP3    H232387   3.590   2.269   0.213  1.3195  0.7609  1.1746
 3610TIP3   OH232388   6.734   5.582   8.242 -0.3474 -0.7681 -0.6989
 3610TIP3    H132389   6.724   5.622   8.156  0.1091 -0.9649 -0.8482
 3610TIP3    H232390   6.784   5.646   8.293 -0.7714 -0.5753 -0.5237
 3611TIP3   OH232391   5.778   2.559   0.352 -0.3105 -0.0633 -0.3724
 3611TIP3    H132392   5.803   2.469   0.373 -1.2301 -0.7112 -1.8571
 3611TIP3    H232393   5.824   2.612   0.417  0.9457 -1.5297  0.0192
 3612TIP3   OH232394   0.406   1.052   1.177 -0.5165 -0.2108 -0.3173
 3612TIP3    H132395   0.446   1.090   1.255 -0.4066  0.4174 -0.6728
 3612TIP3    H232396   0.470   0.989   1.144 -0.7605 -0.8369  0.3575
 3613TIP3   OH232397   1.390   0.910   1.595 -0.4655  0.3104 -0.2121
 3613TIP3    H132398   1.316   0.869   1.552 -1.4390  1.5315  0.2318
 3613TIP3    H232399   1.410   0.852   1.669 -1.2299  0.1791 -0.1042
 3614TIP3   OH232400   6.794   4.871   0.029 -0.7503 -0.0237 -0.6169
 3614TIP3    H132401   6.754   4.933   0.089 -0.2744 -1.1337  0.9014
 3614TIP3    H232402   6.883   4.904   0.015 -0.7068 -0.0109 -0.3182
 3615TIP3   OH232403   2.351   4.257   7.619  0.3082  0.5621  0.2791
 3615TIP3    H132404   2.299   4.181   7.644  0.9697  0.6218  1.9515
 3615TIP3    H232405   2.318   4.328   7.674 -0.2170  1.5079 -1.1643
 3616TIP3   OH232406   5.079   0.183   0.743 -0.2610  0.5241 -0.3045
 3616TIP3    H132407   4.998   0.133   0.754 -0.4496  0.8139 -0.3637
 3616TIP3    H232408   5.090   0.191   0.649 -1.0988  1.9727 -0.3060
 3617TIP3   OH232409   5.722   6.581   6.668 -0.3746 -0.4372  0.2180
 3617TIP3    H132410   5.691   6.618   6.751 -1.6115 -0.2004 -0.3227
 3617TIP3    H232411   5.672   6.628   6.601  0.7703 -0.4566 -0.6903
 3618TIP3   OH232412   5.130   5.360   8.221 -0.2974 -0.4220 -0.2158
 3618TIP3    H132413   5.116   5.365   8.127  0.5233 -2.5439 -0.4988
 3618TIP3    H232414   5.220   5.330   8.231  0.3741  1.8612  1.3353
 3619TIP3   OH232415   6.135   1.720   7.681  0.0488  0.0304  0.4914
 3619TIP3    H132416   6.150   1.743   7.773 -2.0415  0.9499  0.6595
 3619TIP3    H232417   6.140   1.803   7.634  1.0645 -0.4311 -0.2546
 3620TIP3   OH232418   6.879   5.217   2.304 -0.2774  0.8035 -0.0518
 3620TIP3    H132419   6.867   5.192   2.396  1.0520  2.6506  0.6843
 3620TIP3    H232420   6.801   5.183   2.260 -0.7360 -0.5279  1.6540
 3621TIP3   OH232421   4.410   3.037   2.245  0.0192  0.1770  0.4111
 3621TIP3    H132422   4.366   3.022   2.162 -1.2087  1.3180  0.8188
 3621TIP3    H232423   4.394   2.957   2.295 -0.9053  0.2414  0.2421
 3622TIP3   OH232424   0.725   1.104   6.248 -0.2200 -0.1436  0.1344
 3622TIP3    H132425   0.735   1.084   6.341  2.7634 -0.4267 -0.1517
 3622TIP3    H232426   0.772   1.187   6.237  1.0828 -1.0320 -1.3930
 3623TIP3   OH232427   6.055   5.395   6.873 -0.0284 -0.0405  0.4312
 3623TIP3    H132428   5.977   5.396   6.927 -1.5148 -0.5536 -1.5721
 3623TIP3    H232429   6.074   5.302   6.860  0.9184  0.0787  0.8839
 3624TIP3   OH232430   6.336   0.586   7.805  0.1362 -0.0291 -0.8409
 3624TIP3    H132431   6.375   0.499   7.804 -0.7793 -0.4613 -0.4793
 3624TIP3    H232432   6.257   0.576   7.859  0.1181  1.0667 -0.6446
 3625TIP3   OH232433   6.636   2.000   1.310  0.5036  0.1647  0.5819
 3625TIP3    H132434   6.721   2.039   1.289 -0.4548  1.2263 -1.6658
 3625TIP3    H232435   6.579   2.075   1.326 -1.1034 -0.1626 -2.7270
 3626TIP3   OH232436   0.201   5.002   2.164 -0.2231  0.4023  0.2208
 3626TIP3    H132437   0.248   4.919   2.173  0.6127  0.7959 -0.4111
 3626TIP3    H232438   0.118   4.987   2.208  0.7319 -0.1120  1.9184
 3627TIP3   OH232439   3.303   5.121   2.767 -0.0048 -0.1211 -1.2673
 3627TIP3    H132440   3.262   5.102   2.682 -0.0845  0.0067 -1.2578
 3627TIP3    H232441   3.253   5.068   2.829  0.0383 -0.1967 -1.2970
 3628TIP3   OH232442   3.632   4.297   8.058  0.1073 -0.3553  0.5056
 3628TIP3    H132443   3.661   4.382   8.092 -4.0457  1.5713 -0.1522
 3628TIP3    H232444   3.647   4.236   8.130  2.9824  0.8860  1.0996
 3629TIP3   OH232445   4.025   5.644   8.183  0.7249 -0.0580 -0.0767
 3629TIP3    H132446   3.951   5.661   8.241  1.0251  1.6390 -0.1248
 3629TIP3    H232447   4.045   5.551   8.194 -2.1206 -0.8631 -0.9103
 3630TIP3   OH232448   3.383   3.841   1.314  0.0867  0.3726  0.1999
 3630TIP3    H132449   3.289   3.859   1.308  0.1213  0.5894  0.3081
 3630TIP3    H232450   3.395   3.759   1.267 -0.3003 -0.1238  0.9504
 3631TIP3   OH232451   1.201   1.045   7.951  0.2758 -0.0887 -0.5068
 3631TIP3    H132452   1.179   1.103   7.878  1.0480 -0.0412 -0.7115
 3631TIP3    H232453   1.125   0.988   7.960 -0.3497  0.7198 -0.5328
 3632TIP3   OH232454   0.221   5.566   1.673  0.3995  0.3475 -0.2064
 3632TIP3    H132455   0.284   5.493   1.674  1.3143  1.1224  0.7903
 3632TIP3    H232456   0.235   5.607   1.587 -0.3178 -0.7842 -0.8931
 3633TIP3   OH232457   1.107   0.840   1.886 -0.0447  0.5449 -0.1477
 3633TIP3    H132458   1.073   0.929   1.885  1.4373  1.1609 -2.3084
 3633TIP3    H232459   1.050   0.792   1.826 -1.1706 -0.1688  1.4130
 3634TIP3   OH232460   5.301   5.345   7.724  0.5014  0.6720 -0.3452
 3634TIP3    H132461   5.389   5.314   7.746  0.7549  1.9653  0.6172
 3634TIP3    H232462   5.245   5.269   7.736  1.0534  0.5486  2.1814
 3635TIP3   OH232463   1.155   5.302   0.052 -0.1725  0.2370 -0.3300
 3635TIP3    H132464   1.155   5.206   0.050 -1.0629  0.2368 -1.2714
 3635TIP3    H232465   1.070   5.327   0.016 -0.4071  1.3784  0.9403
 3636TIP3   OH232466   5.479   6.681   6.529  0.0109  0.5887 -0.1480
 3636TIP3    H132467   5.530   6.761   6.543  0.1743  0.4547  0.0171
 3636TIP3    H232468   5.388   6.708   6.543  0.0952  0.6589  0.2806
 3637TIP3   OH232469   2.391   3.445   8.490  0.4546 -0.1896  0.0322
 3637TIP3    H132470   2.427   3.399   8.414  1.6142 -0.1763  0.5513
 3637TIP3    H232471   2.458   3.434   8.558 -0.2013  0.4905  0.8041
 3638TIP3   OH232472   3.949   2.688   7.500 -0.1237  0.1298 -0.1015
 3638TIP3    H132473   3.885   2.652   7.439 -0.2961 -1.0950  0.7701
 3638TIP3    H232474   3.994   2.612   7.536  0.4358  0.8607  0.8005
 3639TIP3   OH232475   2.827   2.515   1.332  0.4496 -0.7212  0.6575
 3639TIP3    H132476   2.748   2.565   1.313  1.0538 -0.6699 -2.2081
 3639TIP3    H232477   2.808   2.471   1.415 -1.3788  1.5855  1.6060
 3640TIP3   OH232478   0.503   3.326   0.845  0.0972 -0.3515  0.3292
 3640TIP3    H132479   0.463   3.409   0.820  0.1364 -0.1998  0.7561
 3640TIP3    H232480   0.597   3.343   0.843  0.1736 -0.8345 -1.1141
 3641TIP3   OH232481   4.720   0.590   1.643 -0.0125  0.6321 -0.1758
 3641TIP3    H132482   4.746   0.596   1.551 -1.8847  2.0020 -0.6924
 3641TIP3    H232483   4.648   0.527   1.643  0.1089  0.4922  0.3970
 3642TIP3   OH232484   2.883   3.445   2.389  0.7501 -0.5874 -0.3858
 3642TIP3    H132485   2.859   3.443   2.482  1.4740 -0.4950 -0.1906
 3642TIP3    H232486   2.806   3.411   2.344  0.1827 -0.1110  0.2041
 3643TIP3   OH232487   4.861   3.629   2.006  0.1766 -0.3702  0.2620
 3643TIP3    H132488   4.852   3.608   1.913 -1.2730 -1.6962  0.6438
 3643TIP3    H232489   4.874   3.723   2.008  0.8187 -0.3819 -1.2977
 3644TIP3   OH232490   1.754   2.518   2.528 -0.0165 -0.2725  0.2279
 3644TIP3    H132491   1.845   2.508   2.500  0.7827  1.1270  2.0878
 3644TIP3    H232492   1.729   2.431   2.560  0.8461 -0.5445  0.1785
 3645TIP3   OH232493   1.250   3.929   1.950  0.4447 -0.8426  0.0800
 3645TIP3    H132494   1.275   3.870   1.878 -1.7418 -0.3972 -1.1484
 3645TIP3    H232495   1.333   3.962   1.984  1.6277 -2.6263 -0.9068
 3646TIP3   OH232496   6.680   4.305   7.827 -0.1521  0.2921  0.2051
 3646TIP3    H132497   6.679   4.256   7.745  1.9252  0.5345 -0.0225
 3646TIP3    H232498   6.591   4.298   7.861 -0.7308 -0.8480 -1.4506
 3647TIP3   OH232499   0.114   4.957   0.664  0.7026  0.0630  0.1122
 3647TIP3    H132500   0.063   4.876   0.653 -1.2330  1.0770  1.0985
 3647TIP3    H232501   0.169   4.940   0.740 -0.1467 -0.1156  0.6950
 3648TIP3   OH232502   4.040   3.397   2.287  0.1625  0.3144  0.4055
 3648TIP3    H132503   4.122   3.361   2.321  1.0494 -0.4082 -2.2777
 3648TIP3    H232504   4.063   3.486   2.260  0.3362 -0.1634 -1.1096
 3649TIP3   OH232505   5.814   0.277   1.134 -0.2090  0.1098 -0.6960
 3649TIP3    H132506   5.780   0.286   1.223 -0.3779  0.0789 -0.7558
 3649TIP3    H232507   5.747   0.225   1.088  0.8654 -1.7236 -0.2862
 3650TIP3   OH232508   1.728   3.335   2.460 -0.0328 -0.0587 -0.0357
 3650TIP3    H132509   1.685   3.342   2.545 -0.2397 -1.5633  0.0017
 3650TIP3    H232510   1.795   3.268   2.472  0.5423  0.3609 -0.8176
 3651TIP3   OH232511   6.796   3.020   8.236 -0.2863 -0.1201  0.3892
 3651TIP3    H132512   6.724   3.049   8.180 -0.7948 -2.1557 -0.1331
 3651TIP3    H232513   6.754   2.978   8.310  0.3198 -1.1971  0.1574
 3652TIP3   OH232514   5.750   5.386   1.015 -0.0198  0.0274  0.1633
 3652TIP3    H132515   5.725   5.374   1.107 -2.2123 -1.0684 -0.4816
 3652TIP3    H232516   5.806   5.311   0.996 -0.5440 -0.4135  0.3217
 3653TIP3   OH232517   3.794   1.396   0.071 -0.0021  0.3793 -0.1495
 3653TIP3    H132518   3.807   1.456   0.145  1.1744  1.1192 -0.9164
 3653TIP3    H232519   3.842   1.437  -0.001  0.5309 -1.3288 -0.8027
 3654TIP3   OH232520   5.496   6.311   2.387 -0.4582 -0.6122 -0.0325
 3654TIP3    H132521   5.580   6.335   2.346 -1.6724  0.7901 -1.8409
 3654TIP3    H232522   5.513   6.316   2.481  1.0131  1.4802 -0.3481
 3655TIP3   OH232523   2.215   1.541   1.852  0.2388 -0.0982  0.2219
 3655TIP3    H132524   2.239   1.517   1.942  0.7660 -0.7095 -0.0730
 3655TIP3    H232525   2.119   1.539   1.851  0.2031  0.7241  0.9822
 3656TIP3   OH232526   5.508   1.421   8.433 -0.1696  0.1520  0.4962
 3656TIP3    H132527   5.529   1.513   8.418  0.6683  0.2471  2.0460
 3656TIP3    H232528   5.572   1.373   8.380 -0.9264  0.4313 -0.7087
 3657TIP3   OH232529   0.525   3.763   7.332  0.0650  0.1082  0.3909
 3657TIP3    H132530   0.519   3.817   7.253 -1.1554  0.2680  0.5776
 3657TIP3    H232531   0.559   3.680   7.301 -2.9237 -0.7881 -0.8421
 3658TIP3   OH232532   5.070   5.945   2.413  0.1705 -0.2786  0.4672
 3658TIP3    H132533   5.057   5.861   2.457  3.4522 -1.9731 -1.3427
 3658TIP3    H232534   5.025   5.935   2.329 -1.7279  0.9341  1.2785
 3659TIP3   OH232535   0.967   5.096   7.838  0.3177 -0.2309  0.7409
 3659TIP3    H132536   0.963   5.062   7.927  1.2434  0.0389  0.8926
 3659TIP3    H232537   0.994   5.022   7.785 -1.6735 -0.7939  0.4328
 3660TIP3   OH232538   0.500   5.078   0.210  0.6153 -0.4667  0.3367
 3660TIP3    H132539   0.535   4.989   0.218  1.4385 -0.1779 -0.0036
 3660TIP3    H232540   0.574   5.135   0.229  0.3763  0.1539 -0.5403
 3661TIP3   OH232541   5.242   2.387   7.995  0.5718 -0.7343  0.1295
 3661TIP3    H132542   5.273   2.349   7.913  0.7185 -1.0586  0.3376
 3661TIP3    H232543   5.211   2.474   7.970 -0.3271 -1.2086 -0.4532
 3662TIP3   OH232544   4.662   5.967   1.521 -0.7309 -0.2312  0.2138
 3662TIP3    H132545   4.642   5.884   1.477 -0.7400 -0.4108  0.5510
 3662TIP3    H232546   4.577   5.997   1.554 -1.0511  0.8381 -1.4666
 3663TIP3   OH232547   4.295   4.828   1.403  0.1262  0.3190 -0.5460
 3663TIP3    H132548   4.366   4.884   1.370 -0.0207 -0.2740 -1.9749
 3663TIP3    H232549   4.215   4.877   1.385 -0.0123 -0.3593 -1.9272
 3664TIP3   OH232550   2.613   3.383   0.247  0.3916 -0.0913 -0.0612
 3664TIP3    H132551   2.678   3.441   0.207 -0.0857 -0.3804 -1.3039
 3664TIP3    H232552   2.645   3.295   0.230  0.3768 -0.2200  0.5504
 3665TIP3   OH232553   1.672   4.008   7.390 -0.0416 -0.2343 -0.0640
 3665TIP3    H132554   1.596   3.951   7.397 -0.4623  0.3909  0.6484
 3665TIP3    H232555   1.742   3.952   7.356  0.0228 -1.6431  2.2148
 3666TIP3   OH232556   4.389   6.151   8.020  0.1691  0.2200 -0.2178
 3666TIP3    H132557   4.354   6.064   7.999 -1.2887  0.0164  2.5554
 3666TIP3    H232558   4.469   6.133   8.070  0.2040  0.4876 -0.1771
 3667TIP3   OH232559   4.697   5.425   7.339  0.5432  0.3059 -0.5101
 3667TIP3    H132560   4.784   5.465   7.340 -0.5291  2.8575 -1.2641
 3667TIP3    H232561   4.660   5.444   7.425 -0.4614  2.1992 -1.3175
 3668TIP3   OH232562   4.303   1.403   8.537 -0.2039 -0.3613 -0.5733
 3668TIP3    H132563   4.394   1.426   8.555 -0.1584 -0.9014 -0.0744
 3668TIP3    H232564   4.308   1.333   8.471 -0.2293 -0.7278 -0.1941
 3669TIP3   OH232565   4.439   1.435   1.447  0.1324  0.3376  0.3799
 3669TIP3    H132566   4.509   1.406   1.505  1.5189 -1.6490 -2.0908
 3669TIP3    H232567   4.383   1.359   1.436 -0.1863  0.7083 -0.7354
 3670TIP3   OH232568   4.270   2.566   0.540 -0.4458 -0.0967  0.6839
 3670TIP3    H132569   4.238   2.477   0.554 -1.5393 -0.0215 -1.0669
 3670TIP3    H232570   4.200   2.622   0.575 -1.2316  0.0586 -1.0655
 3671TIP3   OH232571   4.821   3.757   0.918 -0.3676  0.4038 -0.0017
 3671TIP3    H132572   4.873   3.798   0.987 -0.2184 -0.8950  0.6959
 3671TIP3    H232573   4.730   3.774   0.944 -0.3124  1.0346 -0.1998
 3672TIP3   OH232574   2.844   2.742   8.572 -0.0492  0.4182  0.3650
 3672TIP3    H132575   2.828   2.817   8.514  1.1717 -0.2673 -0.9364
 3672TIP3    H232576   2.919   2.698   8.532 -0.0876 -0.9055  1.7030
 3673TIP3   OH232577   4.263   6.773   1.074 -0.0740 -0.1806 -0.3380
 3673TIP3    H132578   4.335   6.836   1.061 -1.1238  1.1634  0.1237
 3673TIP3    H232579   4.234   6.752   0.985 -0.7468  1.2734 -0.5060
 3674TIP3   OH232580   0.099   6.504   6.906 -0.4760  0.4021 -0.0657
 3674TIP3    H132581   0.103   6.536   6.816 -3.2130  0.8596 -0.0977
 3674TIP3    H232582   0.006   6.503   6.928 -0.1558 -2.5868  1.7465
 3675TIP3   OH232583   3.991   6.237   0.907 -0.2116 -0.3170 -0.6351
 3675TIP3    H132584   3.916   6.233   0.967  0.8291  2.0792  1.0026
 3675TIP3    H232585   3.964   6.300   0.840  0.3874  0.8270  0.1559
 3676TIP3   OH232586   0.070   3.970   2.707  0.1570 -0.2229  0.3040
 3676TIP3    H132587  -0.009   3.976   2.653 -0.5451 -0.3768  1.2879
 3676TIP3    H232588   0.090   3.876   2.709  0.5600 -0.1570 -0.1899
 3677TIP3   OH232589   6.204   3.993   1.752 -0.2969  0.3652 -0.1568
 3677TIP3    H132590   6.215   4.021   1.661  1.5318  3.8470  0.9369
 3677TIP3    H232591   6.293   3.975   1.783 -0.9762 -1.6929  0.7546
 3678TIP3   OH232592   4.165   2.495   1.933  0.5260  0.1772  0.1283
 3678TIP3    H132593   4.147   2.582   1.896  1.4413  0.2665 -0.1290
 3678TIP3    H232594   4.132   2.434   1.868  0.7047  0.3340 -0.1106
 3679TIP3   OH232595   5.336   6.538   1.588  0.3676  0.1497 -1.0873
 3679TIP3    H132596   5.428   6.514   1.594  0.6803  1.4668  0.0305
 3679TIP3    H232597   5.334   6.614   1.531 -0.1777 -0.5029 -1.9569
 3680TIP3   OH232598   3.876   2.416   0.739 -0.3542  0.2447  0.1426
 3680TIP3    H132599   3.826   2.420   0.820 -0.7089 -0.2183 -0.0468
 3680TIP3    H232600   3.817   2.373   0.677  0.3465 -0.5100 -0.0223
 3681TIP3   OH232601   1.824   1.204   8.029  0.7825  0.1792  0.3099
 3681TIP3    H132602   1.823   1.300   8.034  0.4229  0.2520 -0.7864
 3681TIP3    H232603   1.892   1.184   7.964  1.4006 -0.3560  1.1002
 3682TIP3   OH232604   2.591   6.682   0.930  0.3650  0.3252 -0.7503
 3682TIP3    H132605   2.554   6.663   1.016  0.2851 -0.3399 -0.9250
 3682TIP3    H232606   2.640   6.603   0.907 -0.6387  0.0042 -1.8521
 3683TIP3   OH232607   6.278   4.812   0.537  0.3267 -0.1867  0.1804
 3683TIP3    H132608   6.338   4.744   0.506  1.1854  1.2236 -1.4006
 3683TIP3    H232609   6.324   4.854   0.610  0.8164  0.1851 -0.3325
 3684TIP3   OH232610   0.704   1.420   0.574 -0.4233 -0.2528 -0.2920
 3684TIP3    H132611   0.629   1.401   0.630 -0.3002 -1.0575 -0.3867
 3684TIP3    H232612   0.780   1.409   0.632 -0.3512  0.1033 -0.3152
 3685TIP3   OH232613   2.807   4.658   1.495  0.4987  0.0146  0.4208
 3685TIP3    H132614   2.852   4.727   1.446  0.0300  3.5653  4.3587
 3685TIP3    H232615   2.714   4.675   1.482  0.3525 -0.8946  0.2248
 3686TIP3   OH232616   1.134   4.973   0.071 -0.0773 -0.3271 -0.3922
 3686TIP3    H132617   1.042   4.990   0.050  0.1219 -0.0830 -1.1123
 3686TIP3    H232618   1.132   4.905   0.139 -0.7641 -0.9994 -1.0692
 3687TIP3   OH232619   5.867   5.976   0.192  0.5282  0.0309 -0.2200
 3687TIP3    H132620   5.804   6.048   0.191  0.5540  0.0905 -2.0273
 3687TIP3    H232621   5.901   5.975   0.281 -0.9101  0.9759  0.3782
 3688TIP3   OH232622   2.737   0.463   7.684 -0.2213  0.1058 -0.5190
 3688TIP3    H132623   2.766   0.417   7.606  0.5011 -2.4833  1.1231
 3688TIP3    H232624   2.653   0.422   7.706 -0.2063  0.4794  0.2840
 3689TIP3   OH232625   3.463   5.119   1.921 -0.0897  0.1601  0.3251
 3689TIP3    H132626   3.391   5.128   1.983 -0.1731  0.9795  0.1293
 3689TIP3    H232627   3.508   5.204   1.925  1.6350 -0.7281  1.3875
 3690TIP3   OH232628   3.468   0.634   2.000  0.2922  0.2557 -0.2197
 3690TIP3    H132629   3.446   0.726   1.990 -0.9788  0.3216  2.1998
 3690TIP3    H232630   3.517   0.630   2.083  1.9385 -1.0520 -1.1881
 3691TIP3   OH232631   3.541   1.389   7.943  0.7954  0.3078 -0.3902
 3691TIP3    H132632   3.555   1.298   7.969 -2.1537 -0.2124 -0.2334
 3691TIP3    H232633   3.564   1.440   8.020  0.5638 -0.4989  0.2336
 3692TIP3   OH232634   0.848   2.471   7.511  0.2807  0.2747  0.0143
 3692TIP3    H132635   0.887   2.536   7.453  2.8863 -1.6817 -0.6157
 3692TIP3    H232636   0.898   2.479   7.592  1.1244 -1.2887 -0.3020
 3693TIP3   OH232637   5.897   2.265   0.337 -0.3125  0.3539  0.0524
 3693TIP3    H132638   5.895   2.202   0.265 -0.5358  1.9008 -1.3634
 3693TIP3    H232639   5.950   2.338   0.304  0.6697  0.5594  1.9559
 3694TIP3   OH232640   3.562   3.342   7.186  0.4093  0.5468 -0.5219
 3694TIP3    H132641   3.492   3.392   7.230  1.9584  2.8957 -0.5278
 3694TIP3    H232642   3.519   3.300   7.112 -1.1729  1.1681  0.0057
 3695TIP3   OH232643   4.922   5.047   7.649 -0.4353  0.2615 -0.0665
 3695TIP3    H132644   4.845   5.090   7.687 -1.6624 -1.0350 -0.9585
 3695TIP3    H232645   4.954   5.109   7.584  1.6843  2.5125  2.8553
 3696TIP3   OH232646   4.536   3.746   1.716 -0.2083  0.0234  0.2868
 3696TIP3    H132647   4.561   3.750   1.808 -0.5018 -0.4331  0.3930
 3696TIP3    H232648   4.518   3.836   1.692 -0.7779  0.0664  0.8600
 3697TIP3   OH232649   1.102   5.233   6.715 -0.0315 -0.0226  0.1032
 3697TIP3    H132650   1.084   5.144   6.685  0.8098 -0.3071  0.4360
 3697TIP3    H232651   1.126   5.224   6.807  0.2920  0.5154  0.0770
 3698TIP3   OH232652   1.887   1.546   1.486 -0.6625  0.0738  0.0722
 3698TIP3    H132653   1.873   1.606   1.560  2.0121 -0.8840  1.5176
 3698TIP3    H232654   1.913   1.464   1.528 -1.4752 -1.2494 -1.9289
 3699TIP3   OH232655   5.287   1.572   8.307  0.0411  0.0624  0.4122
 3699TIP3    H132656   5.333   1.492   8.333  0.6776  0.5594  0.8576
 3699TIP3    H232657   5.276   1.620   8.389  1.9439  1.5925 -0.1798
 3700TIP3   OH232658   5.977   4.850   1.752 -0.0989 -0.6371  0.3823
 3700TIP3    H132659   5.890   4.818   1.778 -0.9033 -0.9448 -2.3810
 3700TIP3    H232660   5.985   4.935   1.795 -1.3612 -1.0127  1.4280
 3701TIP3   OH232661   2.859   6.150   6.903  0.1762 -0.0804  0.1104
 3701TIP3    H132662   2.809   6.219   6.947 -0.6667 -1.3044  1.1560
 3701TIP3    H232663   2.796   6.079   6.892  1.4790 -1.3816  0.7504
 3702TIP3   OH232664   6.463   1.165   6.252 -1.2251 -0.2319  0.5449
 3702TIP3    H132665   6.461   1.168   6.348  0.5149  0.4767  0.6013
 3702TIP3    H232666   6.535   1.224   6.228  0.0323 -2.2892 -1.0655
 3703TIP3   OH232667   4.884   6.518   8.610 -0.0969 -0.0515  0.4533
 3703TIP3    H132668   4.938   6.597   8.612 -1.6648  1.0523  0.7938
 3703TIP3    H232669   4.801   6.545   8.648 -0.8866 -1.7135 -0.0210
 3704TIP3   OH232670   6.505   4.601   0.755  0.2501  0.6596 -0.3366
 3704TIP3    H132671   6.496   4.531   0.820  4.3704  0.8167  0.6706
 3704TIP3    H232672   6.507   4.681   0.807 -0.8159  1.2428 -1.1529
 3705TIP3   OH232673   6.092   4.504   1.365  0.9401 -0.2578  0.1660
 3705TIP3    H132674   6.019   4.493   1.304  1.6646 -2.3226 -0.4060
 3705TIP3    H232675   6.057   4.476   1.450 -0.2598  3.2080  0.9832
 3706TIP3   OH232676   6.363   4.570   0.428 -0.5129 -0.4844 -0.2111
 3706TIP3    H132677   6.331   4.492   0.474 -1.6493 -0.3191 -0.6768
 3706TIP3    H232678   6.326   4.562   0.340 -1.0418  0.8175 -0.1222
 3707TIP3   OH232679   2.020   4.080   0.697 -0.6530  0.8259 -0.0959
 3707TIP3    H132680   2.081   4.122   0.637  1.0790  0.3445  1.2298
 3707TIP3    H232681   1.943   4.137   0.698  0.1135  1.9183 -1.1805
 3708TIP3   OH232682   0.037   3.078   1.146 -0.2662 -0.2827 -0.5191
 3708TIP3    H132683   0.069   3.043   1.063  1.3639  0.1106 -0.0858
 3708TIP3    H232684   0.078   3.165   1.153 -0.1822 -0.4079  0.8050
 3709TIP3   OH232685   6.032   3.029   0.360  0.0245 -0.5656 -0.2028
 3709TIP3    H132686   6.095   3.012   0.430  0.1854 -0.6912 -0.3769
 3709TIP3    H232687   6.072   2.989   0.283  0.4030  0.5794 -0.6199
 3710TIP3   OH232688   3.873   3.289   0.089  0.4301 -0.1962 -0.5944
 3710TIP3    H132689   3.860   3.310  -0.004 -0.6158  1.3307 -0.1426
 3710TIP3    H232690   3.785   3.268   0.121  0.6709 -0.0335  0.1942
 3711TIP3   OH232691   6.897   5.547   0.337  0.0263  0.5709  0.8700
 3711TIP3    H132692   6.951   5.471   0.357 -1.0666 -0.5214 -0.1432
 3711TIP3    H232693   6.807   5.517   0.350 -0.4842  1.3202 -0.6685
 3712TIP3   OH232694   1.900   0.245   8.521  0.5120  0.6432 -0.3257
 3712TIP3    H132695   1.839   0.286   8.582  0.7784  0.7837 -0.1497
 3712TIP3    H232696   1.847   0.182   8.472  0.9135 -1.9887  2.3365
 3713TIP3   OH232697   1.625   3.026   8.559  0.2954 -0.0159  0.0691
 3713TIP3    H132698   1.552   2.976   8.597  0.0604 -0.6171 -1.1222
 3713TIP3    H232699   1.688   3.034   8.631  0.0247 -1.4352  0.5101
 3714TIP3   OH232700   4.434   5.238   0.632  0.1259 -0.7190  0.5259
 3714TIP3    H132701   4.446   5.224   0.538  2.1018 -0.2048  0.6468
 3714TIP3    H232702   4.463   5.328   0.647  2.7309 -1.6757  1.9920
 3715TIP3   OH232703   4.989   1.893   1.492 -0.1461  0.2558  0.8902
 3715TIP3    H132704   5.067   1.895   1.547 -0.7382  1.1339  1.7065
 3715TIP3    H232705   4.998   1.969   1.434  0.4530 -0.6345 -0.2418
 3716TIP3   OH232706   0.900   5.409   7.893  0.1953 -0.1546  0.5079
 3716TIP3    H132707   0.813   5.394   7.856 -0.8101  1.7255  1.8949
 3716TIP3    H232708   0.938   5.476   7.837  0.8633 -1.1291 -0.2236
 3717TIP3   OH232709   5.993   4.879   1.270 -0.1619  0.5770 -0.9877
 3717TIP3    H132710   6.072   4.849   1.315 -1.4309 -1.0968  0.2620
 3717TIP3    H232711   5.953   4.941   1.330 -1.8319 -1.6228  0.3138
 3718TIP3   OH232712   0.801   3.873   0.899  0.1857  0.4069  0.1046
 3718TIP3    H132713   0.846   3.819   0.964  1.8563 -0.0032 -1.3083
 3718TIP3    H232714   0.800   3.819   0.820 -2.4808  0.5741 -0.0687
 3719TIP3   OH232715   3.055   3.478   8.086 -0.1755 -0.8230 -0.1401
 3719TIP3    H132716   3.138   3.526   8.081 -1.1511  0.9887  0.3979
 3719TIP3    H232717   3.077   3.399   8.136  1.2911 -0.5462 -0.2894
 3720TIP3   OH232718   2.551   1.971   7.737  0.8931 -0.6421  0.3669
 3720TIP3    H132719   2.590   1.973   7.824  3.2544 -0.1554 -0.6145
 3720TIP3    H232720   2.457   1.981   7.752  1.3371  0.7325  2.7780
 3721TIP3   OH232721   6.148   2.301   0.866 -0.0514  0.2333  0.5772
 3721TIP3    H132722   6.173   2.382   0.822  0.9257 -0.6521 -0.5543
 3721TIP3    H232723   6.108   2.247   0.798 -2.3092  0.3824  1.6757
 3722TIP3   OH232724   3.050   6.230   8.127 -0.3018  0.1879 -0.5488
 3722TIP3    H132725   3.121   6.176   8.090  0.5696  0.7422  0.2711
 3722TIP3    H232726   2.970   6.184   8.103  0.3438 -0.5046 -1.4221
 3723TIP3   OH232727   0.382   2.627   8.514 -0.0260  0.3280 -0.3647
 3723TIP3    H132728   0.463   2.589   8.548  0.4829  1.0741 -0.7141
 3723TIP3    H232729   0.408   2.712   8.477 -1.3770  1.8017  1.8280
 3724TIP3   OH232730   5.401   1.562   7.391 -0.1942 -0.3458  0.0627
 3724TIP3    H132731   5.481   1.605   7.423 -0.2859  0.0077 -0.1825
 3724TIP3    H232732   5.387   1.599   7.304  0.4309 -1.7866 -0.6833
 3725TIP3   OH232733   3.656   5.861   7.415 -0.4781  0.5120  0.0992
 3725TIP3    H132734   3.581   5.918   7.433  0.3249  2.0653 -1.2278
 3725TIP3    H232735   3.668   5.811   7.496 -3.5802 -0.5986  0.0283
 3726TIP3   OH232736   2.788   4.066   7.255  0.4795 -0.7083  0.2126
 3726TIP3    H132737   2.734   3.987   7.257 -0.3043 -0.1940  2.9598
 3726TIP3    H232738   2.728   4.135   7.226  0.4513 -0.6542  0.4001
 3727TIP3   OH232739   3.547   2.849   0.630  0.6209 -0.4589 -0.2043
 3727TIP3    H132740   3.549   2.939   0.599  0.0418 -0.2904  0.2211
 3727TIP3    H232741   3.488   2.851   0.706  0.5309 -1.2100 -0.2439
 3728TIP3   OH232742   1.626   3.615   8.271  0.1815  0.3133 -0.3552
 3728TIP3    H132743   1.604   3.586   8.183 -1.1302 -2.0977  0.6850
 3728TIP3    H232744   1.710   3.573   8.290 -0.4135 -0.6827  0.1640
 3729TIP3   OH232745   1.964   5.042   0.112 -0.0071 -0.3437  0.2199
 3729TIP3    H132746   1.900   5.029   0.182 -0.3744 -0.7012 -0.1733
 3729TIP3    H232747   2.023   4.966   0.118  0.1528 -0.2081  0.3472
 3730TIP3   OH232748   0.388   3.035   0.574  0.2660  0.5515 -0.4119
 3730TIP3    H132749   0.359   3.123   0.549  1.1172  0.9843  0.0745
 3730TIP3    H232750   0.412   3.044   0.666  0.3485 -0.1984 -0.3604
 3731TIP3   OH232751   6.467   1.999   8.413 -0.0465 -0.1344 -0.5282
 3731TIP3    H132752   6.499   1.912   8.389 -0.0630 -0.2164 -0.2557
 3731TIP3    H232753   6.372   1.988   8.423 -0.1715  0.1095 -1.3426
 3732TIP3   OH232754   3.070   3.715   1.136 -0.2347 -0.5180  0.0801
 3732TIP3    H132755   3.061   3.808   1.160 -0.3405  0.0786 -2.1060
 3732TIP3    H232756   2.982   3.690   1.108 -0.1109 -1.1884  0.2814
 3733TIP3   OH232757   5.621   1.941   1.641 -0.3934  0.2309  0.2030
 3733TIP3    H132758   5.565   1.863   1.638 -0.5779  0.2935  1.7107
 3733TIP3    H232759   5.660   1.945   1.553 -0.1105 -1.7650  0.1918
 3734TIP3   OH232760   3.529   1.267   8.180  0.2012 -0.3875 -0.4994
 3734TIP3    H132761   3.490   1.338   8.231  1.2951  1.2607 -1.8601
 3734TIP3    H232762   3.598   1.232   8.237  2.0586  2.0590 -1.0869
 3735TIP3   OH232763   0.654   0.103   0.529  0.2005 -0.0131 -0.6797
 3735TIP3    H132764   0.653   0.183   0.477  1.1401 -0.0958 -0.8494
 3735TIP3    H232765   0.562   0.086   0.551  0.0216  1.2568 -0.4072
 3736TIP3   OH232766   2.335   6.010   0.173 -0.2905  0.8930  0.5024
 3736TIP3    H132767   2.364   6.007   0.082 -0.3637  0.8636  0.4799
 3736TIP3    H232768   2.252   6.057   0.170 -0.6784  0.2165  0.4510
 3737TIP3   OH232769   1.627   4.079   2.750 -0.2457 -0.2712 -0.2973
 3737TIP3    H132770   1.708   4.104   2.706  1.8436 -1.3937  2.6426
 3737TIP3    H232771   1.631   3.983   2.754 -1.4221 -0.3048  0.4420
 3738TIP3   OH232772   2.060   4.636   7.598  0.3546  0.5539  0.2663
 3738TIP3    H132773   1.980   4.637   7.544  0.2599  0.8611  0.4119
 3738TIP3    H232774   2.113   4.707   7.563  0.6744  0.1929  0.0106
 3739TIP3   OH232775   6.595   1.675   1.782 -0.0499  0.1926 -0.5846
 3739TIP3    H132776   6.633   1.739   1.722 -0.7777 -0.1174 -1.4090
 3739TIP3    H232777   6.522   1.638   1.733 -1.7355  1.1147  1.1158
 3740TIP3   OH232778   0.140   0.980   1.817 -0.0520  0.0457 -0.1997
 3740TIP3    H132779   0.109   0.908   1.763 -0.0764 -0.8308  0.9503
 3740TIP3    H232780   0.084   1.054   1.794 -2.1422 -1.1263  0.8221
 3741TIP3   OH232781   2.141   1.963   0.085  0.4693 -0.4354  0.1930
 3741TIP3    H132782   2.105   2.051   0.078 -0.3845 -0.8806 -2.2046
 3741TIP3    H232783   2.095   1.924   0.160  0.8903  1.1178  1.3053
 3742TIP3   OH232784   5.687   4.144   2.657  0.2116 -0.1238  0.0213
 3742TIP3    H132785   5.609   4.190   2.687 -1.0645 -2.4894  0.5742
 3742TIP3    H232786   5.657   4.091   2.583  1.7811  0.4202 -1.0560
 3743TIP3   OH232787   5.305   5.986   0.337 -0.2157 -0.5127 -0.0254
 3743TIP3    H132788   5.341   5.989   0.249 -0.0309 -0.2114  0.0616
 3743TIP3    H232789   5.212   6.006   0.325 -0.0173  0.4455 -0.0522
 3744TIP3   OH232790   2.225   6.174   2.841 -0.1417 -0.2944  0.1446
 3744TIP3    H132791   2.265   6.239   2.784  1.8005 -0.5221  1.1570
 3744TIP3    H232792   2.138   6.209   2.861 -0.4726  0.2883 -2.0423
 3745TIP3   OH232793   6.570   3.153   7.046  0.3085 -0.0091 -0.1129
 3745TIP3    H132794   6.621   3.234   7.037 -1.5703  1.1376 -1.0819
 3745TIP3    H232795   6.602   3.097   6.976  1.7765 -0.2231  0.6952
 3746TIP3   OH232796   3.199   5.243   7.588  0.0231  0.0196  0.7138
 3746TIP3    H132797   3.254   5.268   7.513  1.0704  1.0855  1.8023
 3746TIP3    H232798   3.181   5.150   7.573  2.9245 -0.6563  0.7248
 3747TIP3   OH232799   3.447   1.848   1.884 -0.2857 -0.1554 -0.6567
 3747TIP3    H132800   3.463   1.934   1.846 -1.8748  0.0715 -0.8963
 3747TIP3    H232801   3.391   1.866   1.960 -0.7103 -0.9689 -0.7624
 3748TIP3   OH232802   0.998   1.507   0.533  0.2741 -0.4396  0.5343
 3748TIP3    H132803   1.045   1.435   0.490  1.8279  0.6867  0.2437
 3748TIP3    H232804   0.973   1.566   0.461 -1.3044 -0.8205  0.7283
 3749TIP3   OH232805   4.632   4.655   8.313 -0.1307 -0.4598 -0.0977
 3749TIP3    H132806   4.675   4.588   8.366  0.5036 -0.9181 -1.1547
 3749TIP3    H232807   4.697   4.678   8.247 -1.0129 -0.1446 -0.8720
 3750TIP3   OH232808   4.143   6.546   2.578  0.1028  0.0140 -0.0596
 3750TIP3    H132809   4.053   6.565   2.606 -0.1474 -0.7572 -0.3128
 3750TIP3    H232810   4.197   6.603   2.632 -0.3988 -1.0615  1.6694
 3751TIP3   OH232811   5.489   3.562   2.262 -0.4386 -0.1202  0.7062
 3751TIP3    H132812   5.539   3.500   2.210 -1.3248 -1.0101  0.9028
 3751TIP3    H232813   5.460   3.628   2.199 -2.7341 -1.9406 -0.2944
 3752TIP3   OH232814   5.606   3.790   2.527 -0.1119  0.5641  0.4658
 3752TIP3    H132815   5.628   3.744   2.608  0.2176 -0.3706 -0.1491
 3752TIP3    H232816   5.511   3.801   2.532 -0.4249 -1.4743 -0.0158
 3753TIP3   OH232817   1.244   4.679   1.098 -0.3453 -0.5127 -0.5714
 3753TIP3    H132818   1.334   4.648   1.092 -0.5744 -1.3978  0.3722
 3753TIP3    H232819   1.231   4.730   1.018  0.7454 -1.0250 -1.0903
 3754TIP3   OH232820   0.004   6.316   6.528 -0.1430 -0.4484 -0.1999
 3754TIP3    H132821   0.088   6.293   6.488  0.6634  1.5023  0.2312
 3754TIP3    H232822  -0.045   6.360   6.459 -0.6655 -1.2461 -0.3436
 3755TIP3   OH232823   6.345   5.205   1.912 -0.0259  0.3448  0.0859
 3755TIP3    H132824   6.368   5.163   1.995  0.9382  0.2325 -0.2368
 3755TIP3    H232825   6.427   5.238   1.877 -0.7363  2.4992  0.2999
 3756TIP3   OH232826   6.704   1.043   1.367  0.3635  0.4081 -0.2106
 3756TIP3    H132827   6.731   0.962   1.325 -1.1905 -1.5634  2.3550
 3756TIP3    H232828   6.629   1.073   1.315  0.9871  0.2912 -1.2071
 3757TIP3   OH232829   3.322   5.986   7.251 -0.4995 -0.7415 -0.0998
 3757TIP3    H132830   3.240   5.956   7.211  0.6130 -3.1603 -0.7701
 3757TIP3    H232831   3.387   5.980   7.181  0.2635  1.3949  0.3346
 3758TIP3   OH232832   2.455   3.175   1.665 -0.4676 -0.3288 -0.2853
 3758TIP3    H132833   2.415   3.197   1.581 -0.4949  1.4145  0.1524
 3758TIP3    H232834   2.455   3.257   1.714  0.6314 -1.0433  0.9804
 3759TIP3   OH232835   3.181   3.159   2.779  0.5469 -0.3248 -0.0378
 3759TIP3    H132836   3.140   3.084   2.822  1.2944 -0.8041 -0.1347
 3759TIP3    H232837   3.267   3.166   2.821  0.2816  0.8103  0.3302
 3760TIP3   OH232838   2.392   2.059   1.224 -0.1215 -0.2994 -0.4881
 3760TIP3    H132839   2.311   2.009   1.218  0.9704 -1.9992 -1.8461
 3760TIP3    H232840   2.449   2.022   1.157  0.8186  2.7351 -1.5308
 3761TIP3   OH232841   0.533   5.385   6.918 -0.2807 -0.3174 -0.3624
 3761TIP3    H132842   0.527   5.291   6.934  0.4236 -0.1528  1.0212
 3761TIP3    H232843   0.592   5.417   6.985 -1.4165  1.2936 -0.0702
 3762TIP3   OH232844   1.338   5.956   2.180  0.1317  0.5866 -0.3065
 3762TIP3    H132845   1.291   6.035   2.208 -2.1845 -0.1442 -1.8288
 3762TIP3    H232846   1.270   5.890   2.169  1.9652 -1.5536  0.5197
 3763TIP3   OH232847   4.326   6.692   2.064 -0.3867 -0.1516  0.9117
 3763TIP3    H132848   4.296   6.700   2.154 -2.3090  2.1139  0.1777
 3763TIP3    H232849   4.271   6.623   2.027 -1.6231  0.8555  0.7877
 3764TIP3   OH232850   6.340   1.861   0.414  0.1901  0.2467  0.3682
 3764TIP3    H132851   6.258   1.838   0.457  0.8172 -0.0873  1.4310
 3764TIP3    H232852   6.408   1.832   0.475  1.1177  0.0048 -0.7372
 3765TIP3   OH232853   3.117   2.437   0.187  0.2723  0.2076  0.0021
 3765TIP3    H132854   3.103   2.357   0.237 -0.2410 -0.0532 -0.5489
 3765TIP3    H232855   3.212   2.438   0.169  0.5268  0.5003  1.2776
 3766TIP3   OH232856   3.802   5.303   7.734  0.0656  0.0122  0.2706
 3766TIP3    H132857   3.862   5.289   7.807 -0.8506  0.9068  1.2362
 3766TIP3    H232858   3.799   5.399   7.724 -1.0110 -0.0319  0.0901
 3767TIP3   OH232859   1.657   2.555   1.720  0.2008 -0.2234 -0.2484
 3767TIP3    H132860   1.622   2.546   1.632 -1.0140 -0.3374  0.2331
 3767TIP3    H232861   1.728   2.490   1.724  1.5657  1.0806 -1.7346
 3768TIP3   OH232862   5.898   2.922   1.841 -0.0791 -0.3010 -0.3412
 3768TIP3    H132863   5.822   2.893   1.790  0.5720 -0.8618 -0.9996
 3768TIP3    H232864   5.968   2.861   1.818  0.7442  0.5640 -0.2002
 3769TIP3   OH232865   4.113   0.659   1.621  0.5798 -0.1227  0.2024
 3769TIP3    H132866   4.103   0.565   1.608  0.9144 -0.2303  0.6849
 3769TIP3    H232867   4.137   0.692   1.535 -0.4230 -0.3469 -0.1711
 3770TIP3   OH232868   2.070   3.916   8.584 -0.0015 -0.5150 -0.1782
 3770TIP3    H132869   2.093   3.937   8.493 -1.8197 -3.4798 -1.4628
 3770TIP3    H232870   2.137   3.853   8.611 -0.6828 -1.2978 -0.2758
 3771TIP3   OH232871   4.460   4.310   2.171 -0.3615 -0.2565 -0.0592
 3771TIP3    H132872   4.486   4.218   2.168 -2.5075 -0.8890 -0.9972
 3771TIP3    H232873   4.529   4.357   2.124  1.1014 -1.2504  1.0056
 3772TIP3   OH232874   5.978   6.014   1.450 -0.1299  0.1296  0.3555
 3772TIP3    H132875   5.983   5.997   1.544  0.3021  0.3497  0.3767
 3772TIP3    H232876   5.902   6.072   1.440  0.9048  1.6290  0.8088
 3773TIP3   OH232877   6.455   5.326   1.191 -0.9570  0.1502  0.3280
 3773TIP3    H132878   6.535   5.282   1.218 -2.3434 -1.2656  2.3712
 3773TIP3    H232879   6.476   5.363   1.105  1.7167 -0.5389  0.6109
 3774TIP3   OH232880   0.073   3.058   2.146 -0.6811 -0.1229 -0.2141
 3774TIP3    H132881   0.088   2.969   2.177  0.0225  0.3263  0.8109
 3774TIP3    H232882  -0.022   3.070   2.150 -0.6191 -0.0040  2.1147
 3775TIP3   OH232883   5.862   3.813   0.047 -0.3790  0.0400 -0.1251
 3775TIP3    H132884   5.766   3.809   0.042 -0.4358  0.8280  0.2430
 3775TIP3    H232885   5.884   3.902   0.020  0.2238 -0.0117  0.1783
 3776TIP3   OH232886   3.571   4.347   1.948  0.2962  0.4218 -0.1552
 3776TIP3    H132887   3.481   4.379   1.952 -0.0667 -0.6898  1.5064
 3776TIP3    H232888   3.564   4.261   1.906  0.6678  0.6036 -0.5931
 3777TIP3   OH232889   3.086   4.253   6.814  0.5477 -0.0505 -0.3832
 3777TIP3    H132890   3.005   4.294   6.844  0.0257 -0.6476 -0.9578
 3777TIP3    H232891   3.062   4.210   6.732  0.9422 -1.9527  0.4585
 3778TIP3   OH232892   3.471   6.827   1.960  0.5647  0.8536  0.4867
 3778TIP3    H132893   3.486   6.884   2.035 -0.4839 -0.0512  1.4197
 3778TIP3    H232894   3.533   6.755   1.973  0.5046  0.7858  0.3956
 3779TIP3   OH232895   1.042   5.699   7.169 -0.3660 -0.7072 -0.5173
 3779TIP3    H132896   1.135   5.724   7.167 -0.8556  1.2811 -1.6426
 3779TIP3    H232897   1.029   5.650   7.088 -0.4663 -0.1490 -0.8517
 3780TIP3   OH232898   5.698   5.280   1.965  0.0682 -0.1027  0.4436
 3780TIP3    H132899   5.682   5.370   1.938  0.4188 -0.4934 -1.1263
 3780TIP3    H232900   5.611   5.239   1.962  0.2935 -0.5293 -1.6635
 3781TIP3   OH232901   3.889   1.849   8.532 -0.1002 -0.4926  0.0854
 3781TIP3    H132902   3.947   1.909   8.579  0.7554  0.3535 -1.8952
 3781TIP3    H232903   3.948   1.780   8.499 -0.1959  0.2306 -1.7173
 3782TIP3   OH232904   6.454   5.508   7.864 -0.6416 -0.2136  0.3118
 3782TIP3    H132905   6.469   5.533   7.955  0.0790  0.8457 -0.0795
 3782TIP3    H232906   6.447   5.413   7.867 -0.4656 -0.2146  1.4546
 3783TIP3   OH232907   3.589   0.818   0.161 -0.4901  0.1243  0.0830
 3783TIP3    H132908   3.563   0.727   0.145 -2.4773  0.6729 -0.1011
 3783TIP3    H232909   3.537   0.844   0.237 -1.1341  1.5439 -0.8080
 3784TIP3   OH232910   3.740   1.600   2.766 -0.3504 -0.0015 -0.6089
 3784TIP3    H132911   3.656   1.638   2.738 -0.0814  1.8832  0.8935
 3784TIP3    H232912   3.804   1.669   2.749  0.0276  0.8018  3.1164
 3785TIP3   OH232913   0.873   0.591   1.984 -0.1027  0.3456  0.0384
 3785TIP3    H132914   0.888   0.520   1.921 -1.0379 -0.1158  0.3187
 3785TIP3    H232915   0.960   0.609   2.021  0.0498 -1.1936  0.5242
 3786TIP3   OH232916   0.119   1.458   7.783 -0.8772  0.2906  1.0297
 3786TIP3    H132917   0.078   1.543   7.765 -0.0761  0.1402 -1.9742
 3786TIP3    H232918   0.196   1.479   7.835 -1.6759  1.1727  1.9051
 3787TIP3   OH232919   3.644   4.962   8.247 -0.1719  0.6456 -0.2746
 3787TIP3    H132920   3.601   4.978   8.331 -0.8020 -0.0322 -0.4533
 3787TIP3    H232921   3.581   4.992   8.181  0.3735  1.3010 -0.5045
 3788TIP3   OH232922   1.331   4.395   2.674  0.4787  0.2058  0.0495
 3788TIP3    H132923   1.309   4.488   2.670  1.1356  0.4457  1.5583
 3788TIP3    H232924   1.419   4.392   2.711 -0.2168 -1.0661  1.7167
 3789TIP3   OH232925   6.089   1.444   1.087 -0.7837  0.5322  0.4557
 3789TIP3    H132926   6.136   1.475   1.009 -2.1171 -0.0270 -0.5998
 3789TIP3    H232927   6.024   1.383   1.054 -0.8763 -0.3242  2.1091
 3790TIP3   OH232928   3.908   5.159   8.339 -0.3569  0.9273  0.0948
 3790TIP3    H132929   3.952   5.111   8.269 -0.4962 -0.9567  1.2282
 3790TIP3    H232930   3.831   5.106   8.360 -1.7583  2.7827 -0.0229
 3791TIP3   OH232931   2.446   2.343   0.952  0.1953 -0.4882 -0.2716
 3791TIP3    H132932   2.439   2.434   0.922  0.3028 -0.5525 -0.4959
 3791TIP3    H232933   2.496   2.348   1.034  0.3707 -0.3642 -0.3857
 3792TIP3   OH232934   2.349   6.481   7.274  0.1457  0.2241 -0.4020
 3792TIP3    H132935   2.409   6.466   7.201  0.9094 -1.7384  0.5431
 3792TIP3    H232936   2.402   6.526   7.340  0.1831 -0.2269 -0.1192
 3793TIP3   OH232937   0.411   3.555   7.855 -0.4751 -0.8923 -0.0661
 3793TIP3    H132938   0.332   3.512   7.823 -1.4209 -0.3530  1.4577
 3793TIP3    H232939   0.409   3.542   7.950  0.8617 -0.2053  0.0787
 3794TIP3   OH232940   2.192   0.942   1.903 -0.0791 -0.2252  0.4046
 3794TIP3    H132941   2.254   0.885   1.857 -0.9580 -0.3668 -0.6566
 3794TIP3    H232942   2.108   0.925   1.861 -0.5058  1.2926  0.5614
 3795TIP3   OH232943   2.261   3.662   0.394  0.2493  0.0636  0.0128
 3795TIP3    H132944   2.255   3.757   0.383 -0.5404  0.1083  0.7485
 3795TIP3    H232945   2.308   3.650   0.477 -1.6437 -0.1413  1.0967
 3796TIP3   OH232946   3.503   5.882   0.234  0.4862 -0.4495  0.0604
 3796TIP3    H132947   3.459   5.825   0.171 -2.0778 -0.0976  1.3732
 3796TIP3    H232948   3.554   5.822   0.288 -1.1669 -1.4120  0.6326
 3797TIP3   OH232949   5.677   3.132   8.084  0.2918 -0.3638 -0.3468
 3797TIP3    H132950   5.670   3.056   8.142  1.3155 -1.0837 -1.1355
 3797TIP3    H232951   5.725   3.196   8.136 -2.3956  0.6181  1.1239
 3798TIP3   OH232952   3.093   3.866   6.972 -0.2693 -0.5533 -0.6878
 3798TIP3    H132953   2.998   3.872   6.957  0.0549  0.1820 -2.6689
 3798TIP3    H232954   3.120   3.788   6.924 -0.0422 -1.5990  1.0594
 3799TIP3   OH232955   0.410   5.409   7.243  0.6690  0.2868  0.6896
 3799TIP3    H132956   0.335   5.351   7.257 -0.4973  0.1987 -4.1461
 3799TIP3    H232957   0.483   5.364   7.285 -0.6300 -3.6455 -0.7296
 3800TIP3   OH232958   6.276   3.329   1.314  0.2661 -0.6275  0.4683
 3800TIP3    H132959   6.334   3.268   1.269 -0.2762 -1.3045  0.6857
 3800TIP3    H232960   6.277   3.300   1.406 -0.5376 -0.7373  0.4434
 3801TIP3   OH232961   1.208   1.723   2.138  0.5525 -0.5639 -0.1486
 3801TIP3    H132962   1.234   1.781   2.210  0.9763 -1.8126  0.7404
 3801TIP3    H232963   1.160   1.652   2.181 -1.1059 -0.2454 -1.3498
 3802TIP3   OH232964   5.089   3.498   2.147 -0.4811  0.2077 -0.0471
 3802TIP3    H132965   4.999   3.495   2.115 -0.4543 -1.7615 -0.0273
 3802TIP3    H232966   5.141   3.523   2.071 -1.0414  1.8022  0.0411
 3803TIP3   OH232967   5.326   2.525   1.607  0.1771 -0.6511 -0.1639
 3803TIP3    H132968   5.357   2.597   1.552 -1.3742 -1.1101 -1.7315
 3803TIP3    H232969   5.378   2.449   1.580  0.8904 -0.4366  0.5542
 3804TIP3   OH232970   3.024   0.732   7.581  0.2798 -0.1574 -0.3708
 3804TIP3    H132971   3.035   0.797   7.650  1.7369 -1.2287  0.4490
 3804TIP3    H232972   3.107   0.732   7.534  1.1582 -2.8657  0.9869
 3805TIP3   OH232973   1.874   6.414   7.463 -0.5109  0.1831  0.0988
 3805TIP3    H132974   1.820   6.436   7.387 -0.3649 -1.7907 -0.6149
 3805TIP3    H232975   1.943   6.358   7.429  0.6450  0.7332  1.4099
 3806TIP3   OH232976   4.006   2.654   8.105  0.0580  0.2939  0.1459
 3806TIP3    H132977   4.000   2.738   8.151  1.5522  0.0542  0.8552
 3806TIP3    H232978   3.977   2.673   8.016 -1.1360  1.1919  0.6973
 3807TIP3   OH232979   4.793   6.212   1.469 -0.5907  0.0011  0.1155
 3807TIP3    H132980   4.805   6.234   1.377  0.2604 -0.0781  0.1935
 3807TIP3    H232981   4.774   6.118   1.469 -0.4523 -0.0276  0.0270
 3808TIP3   OH232982   6.763   0.530   7.615 -0.3479 -0.1360 -0.5517
 3808TIP3    H132983   6.816   0.495   7.686  0.9809  0.2328 -1.3116
 3808TIP3    H232984   6.817   0.600   7.577 -2.1540  1.5234 -0.2215
 3809TIP3   OH232985   1.381   2.069   2.966  0.0262 -0.4862  0.1948
 3809TIP3    H132986   1.452   2.071   2.902 -0.2445 -1.1448 -0.1303
 3809TIP3    H232987   1.425   2.074   3.051  0.4406 -0.5907 -0.0137
 3810TIP3   OH232988   1.903   5.565   6.768 -0.1171  0.3628  0.3698
 3810TIP3    H132989   1.976   5.550   6.829  1.3489  2.6982 -0.6636
 3810TIP3    H232990   1.829   5.589   6.824  0.7062  0.7033  1.3360
 3811TIP3   OH232991   5.452   2.728   0.034 -0.0719  0.3892 -0.5114
 3811TIP3    H132992   5.460   2.821   0.012  0.9052  0.7571  1.2209
 3811TIP3    H232993   5.391   2.694  -0.031  0.1527  2.0609 -1.6829
 3812TIP3   OH232994   2.382   3.399   7.231 -0.2646 -0.3378  0.4632
 3812TIP3    H132995   2.305   3.444   7.196  0.2700 -0.5332 -1.0244
 3812TIP3    H232996   2.428   3.466   7.282  1.1076  1.2773 -2.5909
 3813TIP3   OH232997   6.700   0.863   0.091 -0.0847 -0.4562  0.1578
 3813TIP3    H132998   6.704   0.816   0.174  2.5843  0.3477  0.5599
 3813TIP3    H232999   6.703   0.956   0.115 -1.7035 -0.1020 -0.7894
 3814TIP3   OH233000   4.911   0.346   1.399 -0.1527  0.3754 -0.0165
 3814TIP3    H133001   4.930   0.332   1.492  2.4518  0.2395 -0.5096
 3814TIP3    H233002   4.879   0.436   1.394  0.1630  0.5552  0.9584
 3815TIP3   OH233003   1.464   1.689   1.812  0.4859  0.4340 -0.7967
 3815TIP3    H133004   1.423   1.614   1.769  1.4117 -0.9655  0.6755
 3815TIP3    H233005   1.524   1.724   1.746  0.8677 -0.8264 -1.1464
 3816TIP3   OH233006   2.154   4.276   8.424  0.0963 -0.0204  0.0796
 3816TIP3    H133007   2.072   4.271   8.473  0.4619  1.1411  0.8446
 3816TIP3    H233008   2.128   4.281   8.332 -0.6154 -1.7892  0.1416
 3817TIP3   OH233009   0.387   1.501   7.925 -0.4323 -0.0795 -0.2319
 3817TIP3    H133010   0.436   1.556   7.986 -2.2025 -0.2627  1.4735
 3817TIP3    H233011   0.386   1.415   7.966 -1.9386 -0.1265 -0.3218
 3818TIP3   OH233012   5.933   5.529   1.251  0.0834 -0.1554  0.5578
 3818TIP3    H133013   5.910   5.437   1.263 -1.0663  0.0315 -0.0475
 3818TIP3    H233014   6.025   5.528   1.224  0.2118 -1.0883  1.0101
 3819TIP3   OH233015   6.649   6.450   7.780  0.5282 -0.0353  0.0109
 3819TIP3    H133016   6.653   6.364   7.822 -1.1740 -1.4264 -2.4019
 3819TIP3    H233017   6.560   6.480   7.794 -0.5925 -1.2261 -3.5464
 3820TIP3   OH233018   2.838   5.366   1.504 -0.5350 -1.0332 -0.2070
 3820TIP3    H133019   2.832   5.396   1.594  1.5744 -1.4454  0.1239
 3820TIP3    H233020   2.762   5.308   1.493 -0.3673 -1.6487  1.5690
 3821TIP3   OH233021   0.615   1.676   1.233  0.1376  0.1316 -0.2291
 3821TIP3    H133022   0.574   1.683   1.147  1.1989  2.6376 -0.6345
 3821TIP3    H233023   0.592   1.759   1.276  3.0076  0.7872  0.2593
 3822TIP3   OH233024   3.435   0.210   2.487  0.3442  0.1630 -0.3159
 3822TIP3    H133025   3.447   0.259   2.405 -1.5083 -1.7017 -1.8173
 3822TIP3    H233026   3.517   0.163   2.499  1.1801  1.5753 -0.2482
 3823TIP3   OH233027   2.514   2.634   7.555  0.0086  0.1047 -0.2358
 3823TIP3    H133028   2.483   2.546   7.576  0.0775  0.3224  0.8334
 3823TIP3    H233029   2.434   2.681   7.529  0.1332 -0.5697 -2.0051
 3824TIP3   OH233030   4.123   0.772   2.843 -0.0801  0.2042  0.3048
 3824TIP3    H133031   4.136   0.678   2.836 -1.7764 -0.0084 -0.4437
 3824TIP3    H233032   4.059   0.782   2.914 -2.3379  0.5033 -1.6665
 3825TIP3   OH233033   1.380   6.456   1.212  0.7097  0.1610  0.0099
 3825TIP3    H133034   1.393   6.465   1.307  1.7571 -0.3032 -0.0768
 3825TIP3    H233035   1.333   6.536   1.187  0.5281  0.3498  0.8950
 3826TIP3   OH233036   3.532   1.754   0.130 -0.1423  0.4539 -0.4722
 3826TIP3    H133037   3.485   1.830   0.097 -0.3573  0.1003 -0.9941
 3826TIP3    H233038   3.603   1.739   0.067 -1.1737 -0.8489 -1.3939
 3827TIP3   OH233039   2.776   4.507   7.375 -0.2015  0.1447  0.0372
 3827TIP3    H133040   2.829   4.562   7.318  0.4429  0.7431  1.1823
 3827TIP3    H233041   2.838   4.447   7.415 -0.2905  1.0557  1.6297
 3828TIP3   OH233042   4.636   3.521   7.791 -0.1382  0.2124  0.1158
 3828TIP3    H133043   4.724   3.537   7.759  0.1456 -1.4522 -0.0094
 3828TIP3    H233044   4.581   3.523   7.713  0.0014 -0.1351  0.0074
 3829TIP3   OH233045   1.199   6.181   2.304  0.3150  0.0160  0.2940
 3829TIP3    H133046   1.113   6.140   2.318  0.5288 -0.7733 -0.5624
 3829TIP3    H233047   1.198   6.259   2.360 -0.6437 -0.4185  0.9159
 3830TIP3   OH233048   0.984   3.637   7.100  0.2303 -1.1348 -0.5718
 3830TIP3    H133049   0.896   3.602   7.116 -0.2675 -0.9494 -2.6663
 3830TIP3    H233050   1.010   3.674   7.184 -1.1553 -2.3396  0.4454
 3831TIP3   OH233051   0.259   6.370   1.569 -0.0982 -0.1226 -0.0238
 3831TIP3    H133052   0.172   6.375   1.529 -0.7827  0.1094  1.4243
 3831TIP3    H233053   0.294   6.458   1.561 -0.8850  0.3294  1.2498
 3832TIP3   OH233054   6.486   4.854   0.006  0.0826 -0.2217  0.3303
 3832TIP3    H133055   6.573   4.815  -0.005  0.3174  0.6045 -0.9704
 3832TIP3    H233056   6.465   4.839   0.099  0.8622 -1.9189  0.2737
 3833TIP3   OH233057   6.553   0.683   1.775  0.1976  0.1605  0.1021
 3833TIP3    H133058   6.574   0.764   1.730  0.4832 -0.3236 -0.6539
 3833TIP3    H233059   6.636   0.652   1.810  0.3105 -0.4078 -0.6370
 3834TIP3   OH233060   3.748   5.380   0.987  0.1677  0.3786 -0.4165
 3834TIP3    H133061   3.805   5.303   0.994  0.8885  0.9680  0.4992
 3834TIP3    H233062   3.671   5.349   0.939  1.0117 -0.5823 -1.2033
 3835TIP3   OH233063   4.907   5.848   8.360 -0.0906 -0.0693 -0.0912
 3835TIP3    H133064   4.841   5.794   8.405 -0.9726 -0.4497 -1.7553
 3835TIP3    H233065   4.988   5.829   8.407 -1.2564  1.1624  2.6788
 3836TIP3   OH233066   6.722   4.770   7.589 -0.1986  0.0759  0.2769
 3836TIP3    H133067   6.736   4.791   7.682 -0.3097  1.1583  0.0629
 3836TIP3    H233068   6.782   4.697   7.572  1.4924  1.3092  0.6584
 3837TIP3   OH233069   4.449   0.349   0.615 -0.0772 -0.3840  0.4102
 3837TIP3    H133070   4.406   0.380   0.536  1.1779  0.4262  0.0075
 3837TIP3    H233071   4.426   0.412   0.683 -2.8029 -2.1407  1.2873
 3838TIP3   OH233072   0.474   1.153   0.480 -0.8332 -0.2624 -0.2439
 3838TIP3    H133073   0.469   1.079   0.541  1.0121  0.5822  0.9995
 3838TIP3    H233074   0.432   1.225   0.527  2.9001  1.1290  1.3449
 3839TIP3   OH233075   0.152   2.360   6.473 -0.5475 -0.5092 -0.6836
 3839TIP3    H133076   0.207   2.428   6.434  1.4691 -2.7760 -2.0361
 3839TIP3    H233077   0.128   2.395   6.559  3.3480  0.5489  0.1635
 3840TIP3   OH233078   2.890   0.539   1.199  0.6157  0.2292 -0.5377
 3840TIP3    H133079   2.985   0.524   1.205  1.1838  2.3415 -2.8554
 3840TIP3    H233080   2.877   0.626   1.236 -0.4164  0.0296 -0.3970
 3841TIP3   OH233081   0.779   3.637   7.884  0.4402  0.3939  0.2440
 3841TIP3    H133082   0.750   3.571   7.822  0.1471  0.5626  0.1970
 3841TIP3    H233083   0.750   3.604   7.969  0.0345  0.5986  0.1890
 3842TIP3   OH233084   1.266   1.947   8.612  0.2264  0.4731  0.5466
 3842TIP3    H133085   1.350   1.917   8.577 -0.6953 -1.4448 -0.1423
 3842TIP3    H233086   1.222   1.988   8.537 -0.6818 -1.3136  0.0475
 3843TIP3   OH233087   6.884   6.739   1.436  0.7697 -0.5655 -0.2817
 3843TIP3    H133088   6.791   6.755   1.447  0.9064  1.0093 -1.0493
 3843TIP3    H233089   6.918   6.730   1.525  0.1605  0.7022  0.0975
 3844TIP3   OH233090   0.829   3.568   7.541 -0.4451 -0.4324 -0.0260
 3844TIP3    H133091   0.738   3.591   7.561 -1.2766 -1.1780 -2.6083
 3844TIP3    H233092   0.823   3.512   7.464  2.1886 -1.0742  0.1599
 3845TIP3   OH233093   1.778   6.801   7.979 -0.1173 -0.1035 -0.3227
 3845TIP3    H133094   1.705   6.800   8.040 -0.4079 -0.5624 -0.6696
 3845TIP3    H233095   1.754   6.737   7.912  0.5496 -0.1746 -0.5006
 3846TIP3   OH233096   5.084   5.968   7.506  0.3486 -0.0554  0.4573
 3846TIP3    H133097   5.033   5.899   7.463  3.0797 -1.4322 -0.8332
 3846TIP3    H233098   5.079   6.042   7.445  0.4330 -0.4029  0.0222
 3847TIP3   OH233099   1.299   3.399   1.491 -0.1633  0.0470 -0.0246
 3847TIP3    H133100   1.229   3.456   1.459 -1.8138 -0.8049  1.8490
 3847TIP3    H233101   1.258   3.313   1.500  0.8549 -0.3116  1.8523
 3848TIP3   OH233102   4.744   3.975   0.512 -0.6750  0.3522 -0.2232
 3848TIP3    H133103   4.684   3.934   0.575 -2.1651  4.8116  1.6458
 3848TIP3    H233104   4.823   3.995   0.563 -0.5658  1.0493 -0.6524
 3849TIP3   OH233105   5.293   1.296   0.853 -0.2115 -0.0383  0.2456
 3849TIP3    H133106   5.263   1.343   0.775 -0.0555  0.0910  0.2629
 3849TIP3    H233107   5.221   1.305   0.915  0.2837  1.2028  0.6792
 3850TIP3   OH233108   3.377   0.983   8.345 -0.2947  0.6246 -0.4201
 3850TIP3    H133109   3.430   1.047   8.392  0.6487 -0.6769  0.3400
 3850TIP3    H233110   3.309   0.958   8.408 -0.5889  0.7634 -0.6765
 3851TIP3   OH233111   0.276   1.935   8.540 -0.1110 -0.1308 -0.6234
 3851TIP3    H133112   0.239   1.866   8.485 -0.3689 -0.1947 -0.3690
 3851TIP3    H233113   0.355   1.896   8.578 -0.0185 -0.1387 -0.8217
 3852TIP3   OH233114   3.253   5.668   1.761 -0.1563 -0.1875  0.4817
 3852TIP3    H133115   3.319   5.655   1.829 -0.6706  0.4031  1.0991
 3852TIP3    H233116   3.267   5.757   1.730  1.1466 -0.9475 -1.3734
 3853TIP3   OH233117   2.045   2.839   2.652  0.2940  0.4092 -0.0960
 3853TIP3    H133118   2.060   2.866   2.743  1.3866 -0.4255 -0.0066
 3853TIP3    H233119   1.956   2.803   2.652 -0.0931  1.3481  0.4073
 3854TIP3   OH233120   5.367   4.430   0.226 -0.7731 -0.0196 -0.6364
 3854TIP3    H133121   5.330   4.517   0.212  0.5511  0.4187 -1.5183
 3854TIP3    H233122   5.394   4.401   0.139  2.8571  0.5570  0.1725
 3855TIP3   OH233123   4.791   1.702   8.179  0.2208  0.1413 -0.4752
 3855TIP3    H133124   4.822   1.728   8.265 -0.2205 -0.9630  0.0463
 3855TIP3    H233125   4.867   1.662   8.137 -0.1438 -1.5631  0.3787
 3856TIP3   OH233126   2.992   4.369   7.234  0.2743  0.5290 -0.0206
 3856TIP3    H133127   2.921   4.342   7.175 -0.7010  0.6419  1.0567
 3856TIP3    H233128   3.019   4.454   7.202  1.5762 -0.5086 -1.8652
 3857TIP3   OH233129   0.822   2.496   6.582  0.1057 -0.1543  0.5120
 3857TIP3    H133130   0.873   2.559   6.633 -1.0947  1.8986 -0.6649
 3857TIP3    H233131   0.883   2.463   6.516  0.8570 -0.5460  1.3846
 3858TIP3   OH233132   3.954   1.207   0.907 -0.4744  0.3118  0.2001
 3858TIP3    H133133   4.034   1.260   0.908 -0.8806  1.0055 -1.4332
 3858TIP3    H233134   3.895   1.251   0.967 -1.1122  2.3011 -1.7376
 3859TIP3   OH233135   4.450   2.679   1.269  0.3747 -0.1726 -0.4681
 3859TIP3    H133136   4.477   2.770   1.270  1.2823 -0.4319 -0.3563
 3859TIP3    H233137   4.520   2.633   1.315  0.1207 -0.9783 -0.8676
 3860TIP3   OH233138   4.029   4.183   0.393  0.6514  0.6952  0.0449
 3860TIP3    H133139   4.038   4.106   0.336 -0.9314 -0.2766  1.0185
 3860TIP3    H233140   3.993   4.148   0.475 -0.2919  2.4901  0.4598
 3861TIP3   OH233141   6.670   4.298   8.550  0.1152  0.3115  0.2620
 3861TIP3    H133142   6.610   4.373   8.552  0.5421  0.6761 -0.3012
 3861TIP3    H233143   6.666   4.267   8.460  0.0304 -0.2736  0.4653
 3862TIP3   OH233144   6.327   4.383   0.653  0.2209  0.2570 -0.5413
 3862TIP3    H133145   6.395   4.315   0.657  0.9273  0.9967  0.7381
 3862TIP3    H233146   6.375   4.465   0.663 -0.6753  0.9285 -1.5778
 3863TIP3   OH233147   2.613   4.302   7.300  0.8176  0.6218 -0.5814
 3863TIP3    H133148   2.648   4.375   7.350 -0.1321 -0.0349  1.1110
 3863TIP3    H233149   2.660   4.305   7.217  1.5090  2.5327 -0.1642
 3864TIP3   OH233150   3.934   0.261   1.192 -0.2489  0.5550 -0.2691
 3864TIP3    H133151   4.014   0.266   1.243 -1.4773 -0.2588  1.8582
 3864TIP3    H233152   3.953   0.311   1.112  1.9360  1.4056  0.7145
 3865TIP3   OH233153   0.640   4.872   7.018  0.7736  0.2362 -0.0906
 3865TIP3    H133154   0.559   4.875   6.969  0.1051 -0.7687  0.9054
 3865TIP3    H233155   0.707   4.851   6.953  0.1520  0.4683 -0.8188
 3866TIP3   OH233156   1.079   6.004   8.228 -0.1223 -0.6519 -0.4186
 3866TIP3    H133157   1.143   6.056   8.277 -0.7287  0.4717 -0.7692
 3866TIP3    H233158   1.125   5.979   8.148 -0.3890  0.9831 -1.1216
 3867TIP3   OH233159   5.943   1.377   1.725 -0.1182  0.6857  0.2247
 3867TIP3    H133160   5.907   1.396   1.638 -1.3187 -0.0206  0.5418
 3867TIP3    H233161   5.885   1.424   1.785  0.3667  0.7156  0.6665
 3868TIP3   OH233162   6.695   0.742   0.354  0.5716 -0.1025  0.0774
 3868TIP3    H133163   6.643   0.693   0.418 -0.8292  1.9587  0.6247
 3868TIP3    H233164   6.781   0.751   0.395 -0.2168  0.9355  1.6138
 3869TIP3   OH233165   4.105   6.244   0.328 -0.3301 -0.4109 -0.1250
 3869TIP3    H133166   4.200   6.252   0.329 -0.2025 -1.7046 -0.4449
 3869TIP3    H233167   4.077   6.302   0.257  0.2754 -0.6241 -0.5401
 3870TIP3   OH233168   3.153   0.282   2.487 -0.1660  0.0380 -0.3964
 3870TIP3    H133169   3.238   0.242   2.469 -1.4619 -2.4126 -1.4425
 3870TIP3    H233170   3.139   0.268   2.581  0.4832  0.2852 -0.2568
 3871TIP3   OH233171   6.753   2.647   0.004  0.0652 -0.1413 -0.1630
 3871TIP3    H133172   6.782   2.593  -0.070 -0.4590  2.5045 -2.4816
 3871TIP3    H233173   6.834   2.682   0.041  0.2726 -0.3333 -0.4297
 3872TIP3   OH233174   6.826   5.854   1.002  0.3590  0.8852  0.2243
 3872TIP3    H133175   6.889   5.923   0.984 -0.0823  1.3421  0.4044
 3872TIP3    H233176   6.753   5.872   0.943 -0.0720  1.0110  0.7792
 3873TIP3   OH233177   2.503   1.577   1.687 -0.4742 -0.1211  0.2655
 3873TIP3    H133178   2.589   1.566   1.647 -0.6751 -0.0882 -0.1854
 3873TIP3    H233179   2.449   1.510   1.645 -0.2141 -1.4085  1.9028
 3874TIP3   OH233180   4.336   4.448   0.633  0.8152  0.3867 -1.2112
 3874TIP3    H133181   4.273   4.493   0.576  0.1184 -0.8408 -1.4385
 3874TIP3    H233182   4.284   4.382   0.678  1.3551  1.2881  0.8504
 3875TIP3   OH233183   0.586   3.256   0.056  0.4589  0.1787  0.0083
 3875TIP3    H133184   0.652   3.190   0.073  0.1205 -0.1809 -0.0568
 3875TIP3    H233185   0.549   3.233  -0.029 -0.3751 -0.1640  0.4478
 3876TIP3   OH233186   3.788   3.691   8.338 -0.0415  0.2102  0.4357
 3876TIP3    H133187   3.750   3.671   8.253  0.6310 -1.3868  0.4655
 3876TIP3    H233188   3.713   3.706   8.395 -0.5890 -0.7982  0.0215
 3877TIP3   OH233189   1.783   5.997   6.900  0.6221  0.2629 -0.2526
 3877TIP3    H133190   1.773   6.083   6.861 -0.6032 -0.1147 -0.8384
 3877TIP3    H233191   1.838   5.948   6.838  0.6941  0.4015 -0.2973
 3878TIP3   OH233192   4.806   4.339   1.299  0.2071  0.0457  0.9511
 3878TIP3    H133193   4.880   4.317   1.242  0.2581  0.2138  0.9515
 3878TIP3    H233194   4.729   4.304   1.254 -0.0292  2.0756 -0.3225
 3879TIP3   OH233195   0.750   2.120   8.508 -0.3067  0.7180  0.2704
 3879TIP3    H133196   0.706   2.166   8.437  0.3022 -0.3052 -0.7914
 3879TIP3    H233197   0.789   2.043   8.467 -2.7443 -1.7931  2.2398
 3880TIP3   OH233198   3.943   1.552   0.737  0.4747 -0.8698 -0.5690
 3880TIP3    H133199   3.850   1.536   0.749  0.1367  1.6711  0.8433
 3880TIP3    H233200   3.985   1.509   0.812  0.3873 -1.4605 -0.8560
 3881TIP3   OH233201   6.715   3.843   7.391 -0.1437 -0.2888  0.0136
 3881TIP3    H133202   6.767   3.891   7.455 -0.0282 -0.7756  0.2974
 3881TIP3    H233203   6.728   3.751   7.414 -1.6404 -0.4031  0.4931
 3882TIP3   OH233204   4.244   3.751   8.229 -0.4249 -0.0315 -0.1522
 3882TIP3    H133205   4.215   3.679   8.285  0.1771 -0.8280 -0.8451
 3882TIP3    H233206   4.232   3.719   8.140 -2.9621  1.8163 -0.6031
 3883TIP3   OH233207   4.328   3.155   7.225 -0.3407 -0.6123 -0.0656
 3883TIP3    H133208   4.287   3.076   7.188  1.6132 -1.5656 -0.3456
 3883TIP3    H233209   4.367   3.199   7.150 -1.6842  0.8645  0.0404
 3884TIP3   OH233210   6.689   3.795   2.594 -0.0320 -0.3365  0.0701
 3884TIP3    H133211   6.766   3.759   2.638  0.1300 -1.0113 -0.7230
 3884TIP3    H233212   6.615   3.761   2.643  0.1629  0.1927  0.7491
 3885TIP3   OH233213   4.707   5.591   6.998  0.2857  0.3216 -0.0831
 3885TIP3    H133214   4.730   5.649   6.925 -1.8541  1.6009  0.1594
 3885TIP3    H233215   4.759   5.512   6.984 -0.3994  0.3179 -3.2816
 3886TIP3   OH233216   3.732   2.003   0.260 -0.1690 -0.2560 -0.1981
 3886TIP3    H133217   3.672   1.934   0.231  0.4846 -0.2941 -1.5349
 3886TIP3    H233218   3.679   2.083   0.259 -0.9464 -0.6982  1.4140
 3887TIP3   OH233219   0.443   5.386   1.613 -0.0066  0.3434 -0.5206
 3887TIP3    H133220   0.476   5.389   1.523  1.7977 -2.4074 -0.0500
 3887TIP3    H233221   0.519   5.407   1.668 -0.4135 -0.5964  0.4311
 3888TIP3   OH233222   6.533   1.725   8.472 -0.0371 -0.0669 -0.1930
 3888TIP3    H133223   6.623   1.755   8.463 -0.1993  0.4619 -0.1209
 3888TIP3    H233224   6.538   1.630   8.464  0.5542 -0.0599  0.0319
 3889TIP3   OH233225   0.438   0.959   1.602  0.6586 -0.0320 -0.0523
 3889TIP3    H133226   0.416   0.927   1.689  2.1701 -0.1312  0.3217
 3889TIP3    H233227   0.471   1.048   1.616 -1.2906  0.8816 -0.8223
 3890TIP3   OH233228   5.717   5.032   1.155  0.1057 -0.1739 -0.1894
 3890TIP3    H133229   5.795   5.065   1.110  1.6093 -1.5846  1.2489
 3890TIP3    H233230   5.662   4.997   1.085  0.2768  1.6863 -1.3318
 3891TIP3   OH233231   5.962   5.495   8.314 -0.0639 -0.0050 -0.5877
 3891TIP3    H133232   5.987   5.408   8.346 -0.3635 -0.5407 -1.7334
 3891TIP3    H233233   5.875   5.511   8.352  0.6176  0.4675  0.8273
 3892TIP3   OH233234   4.489   3.142   8.016  0.1016 -0.2810  0.0309
 3892TIP3    H133235   4.408   3.113   8.057 -0.4765  0.3063 -0.6632
 3892TIP3    H233236   4.479   3.118   7.924  0.5556  0.1463 -0.1326
 3893TIP3   OH233237   0.364   4.903   6.931 -1.0352 -0.0116 -0.5449
 3893TIP3    H133238   0.302   4.971   6.958 -0.0379  0.6538  0.1803
 3893TIP3    H233239   0.345   4.829   6.989 -0.4687  0.5745  0.4284
 3894TIP3   OH233240   1.822   0.542   2.240 -0.1590  1.0711  0.3253
 3894TIP3    H133241   1.839   0.514   2.149 -0.5298  0.1529  0.5210
 3894TIP3    H233242   1.907   0.574   2.271 -0.4167  3.1382 -0.9079
 3895TIP3   OH233243   1.728   5.304   0.887  0.2641  0.0037 -0.2360
 3895TIP3    H133244   1.768   5.287   0.802 -0.5268 -0.6369 -0.4958
 3895TIP3    H233245   1.680   5.386   0.876 -0.4764 -0.4779 -0.6484
 3896TIP3   OH233246   1.201   3.440   8.099 -0.1560  0.2390  0.3151
 3896TIP3    H133247   1.124   3.488   8.131 -0.9366 -1.0942  0.5365
 3896TIP3    H233248   1.168   3.350   8.084  1.6425 -0.6698  1.5581
 3897TIP3   OH233249   3.502   2.979   7.700  0.6229  0.2404 -0.3887
 3897TIP3    H133250   3.528   2.915   7.634  0.6032 -0.2781  0.1021
 3897TIP3    H233251   3.581   2.996   7.750  0.5472  0.3512 -0.3051
 3898TIP3   OH233252   0.926   6.151   7.960  0.2109  0.2354  0.2860
 3898TIP3    H133253   0.832   6.165   7.947  0.3079  1.3445  0.6533
 3898TIP3    H233254   0.949   6.209   8.032  1.2478  0.2681 -0.0535
 3899TIP3   OH233255   2.862   2.145   2.115 -0.6487  0.1369 -0.8823
 3899TIP3    H133256   2.849   2.088   2.039 -1.0851  0.6236 -1.1764
 3899TIP3    H233257   2.949   2.122   2.147 -0.5367 -0.2055 -1.4146
 3900TIP3   OH233258   6.822   5.154   0.686 -0.2355  0.2220 -0.0254
 3900TIP3    H133259   6.884   5.083   0.704  0.7369  0.7355 -1.1353
 3900TIP3    H233260   6.757   5.149   0.755 -0.4379 -2.0169 -0.3172
 3901TIP3   OH233261   5.766   3.794   1.260  0.3018  0.2943 -0.4019
 3901TIP3    H133262   5.738   3.882   1.286  1.8990  0.0475  2.4919
 3901TIP3    H233263   5.759   3.741   1.339 -0.3369 -2.2011 -1.9772
 3902TIP3   OH233264   0.915   4.944   1.456  0.4520  0.1168 -0.0425
 3902TIP3    H133265   0.863   5.025   1.457 -0.1962 -0.2947  0.4524
 3902TIP3    H233266   0.867   4.886   1.397  1.7244  0.5917 -1.6125
 3903TIP3   OH233267   2.161   6.090   1.706  0.1668  0.0382  0.1203
 3903TIP3    H133268   2.078   6.046   1.686 -0.5436  0.8511  1.1493
 3903TIP3    H233269   2.222   6.057   1.640 -1.1535 -0.0391 -1.1236
 3904TIP3   OH233270   4.808   6.352   2.217 -0.2012  0.2118 -0.4770
 3904TIP3    H133271   4.829   6.364   2.310 -1.3955  0.9320 -0.2762
 3904TIP3    H233272   4.886   6.383   2.171  0.3604 -0.0390  0.2738
 3905TIP3   OH233273   2.834   0.411   8.515  0.0383 -0.0895  0.4013
 3905TIP3    H133274   2.869   0.355   8.445  0.9902  0.8216  0.1203
 3905TIP3    H233275   2.883   0.385   8.593 -0.1775 -0.2763  0.4769
 3906TIP3   OH233276   3.940   3.744   0.828  0.0413  0.4997  0.4167
 3906TIP3    H133277   3.874   3.808   0.857  0.3348  0.5205  1.0704
 3906TIP3    H233278   3.934   3.674   0.893 -2.2734 -1.5847 -1.8083
 3907TIP3   OH233279   0.973   2.800   0.617  0.2862 -0.4954 -0.9236
 3907TIP3    H133280   0.935   2.879   0.656  1.3057  0.0436 -0.9838
 3907TIP3    H233281   0.937   2.729   0.669  2.5631  0.2541  1.9805
 3908TIP3   OH233282   2.382   5.465   7.822  0.0440  0.2259  0.1342
 3908TIP3    H133283   2.343   5.551   7.840  0.4420  0.5211 -0.4049
 3908TIP3    H233284   2.330   5.404   7.875 -0.2334  0.7975  0.5326
 3909TIP3   OH233285   3.997   6.645   8.399 -0.0123 -0.4194 -0.2607
 3909TIP3    H133286   4.060   6.592   8.350 -0.0430 -1.3453  0.6822
 3909TIP3    H233287   3.919   6.590   8.406  0.6286 -1.1193  2.4586
 3910TIP3   OH233288   0.570   0.485   7.712 -0.0941  0.1565  0.0400
 3910TIP3    H133289   0.482   0.499   7.746  0.6523  0.8742  1.8120
 3910TIP3    H233290   0.557   0.437   7.631 -2.0676 -0.5730  0.7269
 3911TIP3   OH233291   5.312   1.154   8.472 -0.2942 -0.3770  0.5039
 3911TIP3    H133292   5.230   1.108   8.491 -0.4146 -1.8228 -2.8781
 3911TIP3    H233293   5.379   1.100   8.516 -0.8901 -0.8761  0.8256
 3912TIP3   OH233294   0.621   2.986   1.319 -0.1316  0.5741 -0.5305
 3912TIP3    H133295   0.659   3.028   1.242 -1.7196 -0.1070 -1.7292
 3912TIP3    H233296   0.606   2.895   1.292 -2.3204  0.7490 -0.0344
 3913TIP3   OH233297   5.730   3.020   7.204  0.1605  0.2309 -0.1219
 3913TIP3    H133298   5.760   3.099   7.159  0.1505  0.5682  0.4537
 3913TIP3    H233299   5.659   2.986   7.149 -2.2965  2.5709  1.3386
 3914TIP3   OH233300   3.659   2.707   6.835  0.0720 -0.5589  0.0542
 3914TIP3    H133301   3.651   2.702   6.931  1.7633  0.4370  0.2896
 3914TIP3    H233302   3.753   2.700   6.819 -0.1193  0.1622 -1.4797
 3915TIP3   OH233303   3.580   5.017   7.692 -0.4023  0.0558 -0.5676
 3915TIP3    H133304   3.527   5.097   7.684 -0.2140  0.3839  1.1164
 3915TIP3    H233305   3.631   5.014   7.611 -1.0817  1.1477 -1.0609
 3916TIP3   OH233306   4.003   0.138   2.997 -0.2225  0.9652  0.6576
 3916TIP3    H133307   3.957   0.188   2.929  0.8200  1.9898  0.6685
 3916TIP3    H233308   3.939   0.129   3.068 -0.7079  1.5548  0.3041
 3917TIP3   OH233309   0.063   0.039   0.832 -0.0672  0.6358  0.6633
 3917TIP3    H133310   0.022  -0.047   0.840 -0.5164  0.7132 -0.5915
 3917TIP3    H233311   0.093   0.060   0.920 -0.8603 -0.3534  1.1818
 3918TIP3   OH233312   5.303   6.839   2.175  0.5243 -0.0943 -0.0470
 3918TIP3    H133313   5.255   6.867   2.253  0.3254 -0.7743  0.0793
 3918TIP3    H233314   5.373   6.783   2.208  1.3386  0.7753 -0.2434
 3919TIP3   OH233315   5.626   4.398   7.574 -0.1725  0.0343  0.2019
 3919TIP3    H133316   5.659   4.481   7.540  2.2334  0.1089  2.4568
 3919TIP3    H233317   5.682   4.331   7.534 -0.5482 -0.3014  0.2276
 3920TIP3   OH233318   4.677   3.150   8.366  0.4161  0.1025 -0.1489
 3920TIP3    H133319   4.620   3.104   8.427  1.2819 -0.1195  0.5034
 3920TIP3    H233320   4.645   3.124   8.279 -1.2457  0.9372  0.1695
 3921TIP3   OH233321   5.707   2.333   1.323 -0.1913  0.5303  0.1478
 3921TIP3    H133322   5.696   2.298   1.234 -1.0269 -0.1067  0.4900
 3921TIP3    H233323   5.665   2.268   1.380  3.0463 -0.7132  1.3431
 3922TIP3   OH233324   5.635   5.820   6.844  0.0577 -0.0657 -0.3852
 3922TIP3    H133325   5.585   5.897   6.817 -1.4561 -0.8225  0.2050
 3922TIP3    H233326   5.609   5.805   6.935  1.9233 -0.0484  0.2007
 3923TIP3   OH233327   3.854   5.227   1.711  0.6640  0.4077  0.2213
 3923TIP3    H133328   3.881   5.137   1.724 -0.3460  0.2430  1.3750
 3923TIP3    H233329   3.771   5.220   1.662  0.9599  0.7490 -0.3412
 3924TIP3   OH233330   2.178   0.041   2.760 -0.4527  0.1925  0.1509
 3924TIP3    H133331   2.133  -0.042   2.775 -0.6483 -0.1694 -2.0701
 3924TIP3    H233332   2.271   0.017   2.759 -0.5605 -0.3338 -1.9219
 3925TIP3   OH233333   4.428   0.445   7.781  0.2173 -0.3850  0.3986
 3925TIP3    H133334   4.380   0.427   7.701  0.9253 -0.4358 -0.0214
 3925TIP3    H233335   4.504   0.497   7.753  0.1665  0.0960  1.1071
 3926TIP3   OH233336   1.962   3.071   0.468 -0.2552 -0.8798 -0.1622
 3926TIP3    H133337   2.033   3.068   0.532 -1.3159 -2.7383  1.0269
 3926TIP3    H233338   1.912   2.991   0.485 -2.2463  0.0392 -1.4007
 3927TIP3   OH233339   1.221   1.904   0.905  1.0304  0.1608  0.0026
 3927TIP3    H133340   1.282   1.978   0.908 -0.9065  1.8025  1.8008
 3927TIP3    H233341   1.203   1.891   0.812  2.7587  0.7415 -0.4519
 3928TIP3   OH233342   0.347   3.545   0.697  0.5443 -0.2194 -0.0467
 3928TIP3    H133343   0.347   3.604   0.772 -2.0841  0.1382 -0.2470
 3928TIP3    H233344   0.259   3.552   0.661  1.6131 -0.6102 -3.0182
 3929TIP3   OH233345   5.632   6.185   2.073 -0.4280 -0.1297  0.0624
 3929TIP3    H133346   5.706   6.183   2.013 -0.7062 -2.4222 -0.2747
 3929TIP3    H233347   5.664   6.237   2.148  0.5833  1.0952 -1.1619
 3930TIP3   OH233348   0.442   6.178   6.955 -0.2917  0.4916 -0.1153
 3930TIP3    H133349   0.494   6.114   6.907  2.4537  2.3809  0.0927
 3930TIP3    H233350   0.469   6.168   7.046 -2.4789 -0.3587  0.4992
 3931TIP3   OH233351   2.212   3.623   0.825 -0.1918 -0.5972 -0.8055
 3931TIP3    H133352   2.199   3.716   0.842  0.4497 -0.3155 -1.8026
 3931TIP3    H233353   2.275   3.595   0.892 -0.2694 -0.2831 -0.5998
 3932TIP3   OH233354   5.243   2.911   7.568 -0.1644  0.0162 -0.2454
 3932TIP3    H133355   5.175   2.923   7.634 -0.1441  1.0734 -0.4028
 3932TIP3    H233356   5.307   2.980   7.587  1.9035 -2.1028  1.1332
 3933TIP3   OH233357   3.499   4.736   8.116 -0.3958 -0.1370  0.3207
 3933TIP3    H133358   3.459   4.733   8.029  0.3688 -0.5919 -0.0222
 3933TIP3    H233359   3.570   4.799   8.107 -0.3486 -0.1433  0.6384
 3934TIP3   OH233360   0.299   4.102   2.091  0.0416  0.2444 -0.9188
 3934TIP3    H133361   0.297   4.156   2.012 -0.7691 -0.5617 -1.4702
 3934TIP3    H233362   0.235   4.033   2.075  2.0027 -1.7240 -0.8511
 3935TIP3   OH233363   1.993   2.089   7.902 -0.0414 -0.7535  0.0017
 3935TIP3    H133364   2.016   2.150   7.833 -1.6160 -1.1602 -0.9495
 3935TIP3    H233365   1.988   2.004   7.857  0.8690 -1.3702  1.0357
 3936TIP3   OH233366   3.869   4.392   0.593  0.1176 -0.2267 -0.1728
 3936TIP3    H133367   3.914   4.367   0.512 -1.2996  0.4126 -1.1941
 3936TIP3    H233368   3.932   4.371   0.662  0.6526 -2.5832 -1.2589
 3937TIP3   OH233369   3.797   0.156   0.241 -0.0675 -0.8779  0.3065
 3937TIP3    H133370   3.790   0.173   0.335 -1.4086 -0.8247  0.2279
 3937TIP3    H233371   3.803   0.061   0.234  2.6647 -0.8016  0.5272
 3938TIP3   OH233372   5.755   6.003   1.165 -0.1966  0.9484 -0.2927
 3938TIP3    H133373   5.838   5.957   1.176 -1.7411 -2.3398 -1.1572
 3938TIP3    H233374   5.779   6.086   1.125  2.5199 -0.9326 -2.9787
 3939TIP3   OH233375   5.473   5.195   7.448 -0.7587 -0.7129  0.2877
 3939TIP3    H133376   5.510   5.197   7.359 -2.3234 -0.8062 -0.3945
 3939TIP3    H233377   5.383   5.227   7.437 -0.3573  1.3149  2.1727
 3940TIP3   OH233378   5.576   5.843   7.452 -0.1278 -0.3990  0.1832
 3940TIP3    H133379   5.549   5.896   7.527  0.0956 -0.0970  0.0506
 3940TIP3    H233380   5.671   5.849   7.451 -0.1341 -0.3268 -0.1780
 3941TIP3   OH233381   3.805   5.559   1.201  0.3854 -0.2848  0.4422
 3941TIP3    H133382   3.888   5.512   1.190  0.3934 -0.0708 -0.4569
 3941TIP3    H233383   3.743   5.514   1.145  0.1490  0.1784  0.3220
 3942TIP3   OH233384   1.560   4.031   1.228  0.1978 -0.4659  0.3746
 3942TIP3    H133385   1.632   4.035   1.291  0.3271  1.6100  0.1659
 3942TIP3    H233386   1.546   4.122   1.202 -0.4635 -1.1488 -1.9083
 3943TIP3   OH233387   5.059   2.681   1.040  0.5186 -0.3935  0.4819
 3943TIP3    H133388   5.055   2.768   1.079 -1.0148 -0.5338  0.7196
 3943TIP3    H233389   5.133   2.638   1.083  0.0874  0.1378  1.7914
 3944TIP3   OH233390   5.126   3.706   0.262 -0.6387 -0.3790  0.2647
 3944TIP3    H133391   5.087   3.664   0.185  0.8116 -0.5251 -0.4213
 3944TIP3    H233392   5.082   3.665   0.336 -0.6735 -1.6908 -0.4448
 3945TIP3   OH233393   1.519   4.782   7.403  0.4730  0.4172  0.4858
 3945TIP3    H133394   1.523   4.687   7.412  0.2010  0.3232 -0.3501
 3945TIP3    H233395   1.447   4.798   7.342  0.3829  1.1702  0.7755
 3946TIP3   OH233396   6.435   0.213   7.226 -0.2465 -0.2113 -0.6354
 3946TIP3    H133397   6.404   0.264   7.150 -1.8116 -1.3857 -0.8261
 3946TIP3    H233398   6.487   0.276   7.276  0.0031  0.8727 -2.1573
 3947TIP3   OH233399   6.771   1.051   2.592 -0.3873 -0.6853 -0.0549
 3947TIP3    H133400   6.751   1.138   2.627  0.4054 -1.0708  1.4621
 3947TIP3    H233401   6.750   0.991   2.664  1.7595 -1.4849 -0.0055
 3948TIP3   OH233402   1.194   6.148   0.516 -0.4484  0.4578  0.3136
 3948TIP3    H133403   1.148   6.154   0.600  0.0554  0.0948  0.6200
 3948TIP3    H233404   1.282   6.119   0.539 -0.4005  0.0403 -0.3712
 3949TIP3   OH233405   3.081   0.071   8.587  0.0343  0.0999  0.2713
 3949TIP3    H133406   3.118  -0.018   8.581 -1.3043 -0.6908  2.4183
 3949TIP3    H233407   3.140   0.125   8.535 -0.0388 -2.2973 -2.5478
 3950TIP3   OH233408   1.424   5.558   6.697  0.0249  0.1920 -0.3420
 3950TIP3    H133409   1.489   5.489   6.711  0.5922  0.2339 -2.3882
 3950TIP3    H233410   1.475   5.634   6.670 -0.7068  1.0427  0.5774
 3951TIP3   OH233411   0.907   3.873   6.655  0.2762  0.2057 -0.1664
 3951TIP3    H133412   0.844   3.811   6.692 -0.5452  0.2736 -1.4044
 3951TIP3    H233413   0.986   3.821   6.640  0.5530  0.1138  1.3767
 3952TIP3   OH233414   4.813   3.471   7.431 -0.5420 -0.2583 -0.1637
 3952TIP3    H133415   4.818   3.491   7.524 -2.1479  0.3683 -0.1941
 3952TIP3    H233416   4.723   3.492   7.406 -0.1434 -0.4213 -1.8570
 3953TIP3   OH233417   6.797   1.748   0.782  0.5824  0.3933 -0.5544
 3953TIP3    H133418   6.878   1.799   0.782  0.7567  0.2409  1.9710
 3953TIP3    H233419   6.728   1.812   0.768  1.0670  0.5771 -2.3544
 3954TIP3   OH233420   1.855   6.129   8.635 -0.0807 -0.8625  0.1261
 3954TIP3    H133421   1.950   6.121   8.649 -0.0686  0.1106  0.6204
 3954TIP3    H233422   1.816   6.084   8.710 -0.0062 -0.4277  0.4294
 3955TIP3   OH233423   5.287   4.996   1.239 -0.2272  0.3585  0.5856
 3955TIP3    H133424   5.357   4.937   1.267 -0.1885  1.3417  2.7109
 3955TIP3    H233425   5.325   5.083   1.245 -0.1585  0.7254 -2.8864
 3956TIP3   OH233426   6.356   4.580   1.606  0.1675  0.2032 -0.4502
 3956TIP3    H133427   6.261   4.589   1.616  0.2821  0.2047  0.9040
 3956TIP3    H233428   6.376   4.620   1.522 -1.1202 -0.4527 -1.0918
 3957TIP3   OH233429   5.432   5.535   2.509 -0.4576  0.2679  0.0581
 3957TIP3    H133430   5.411   5.628   2.514  0.1093  0.4272 -0.3539
 3957TIP3    H233431   5.430   5.504   2.600 -0.0190  0.8303  0.2662
 3958TIP3   OH233432   2.271   5.802   7.591  0.3613 -0.4036  0.8358
 3958TIP3    H133433   2.208   5.799   7.664  1.6149  1.6861  2.1205
 3958TIP3    H233434   2.341   5.859   7.623  1.8347 -0.8669 -1.3820
 3959TIP3   OH233435   0.472   1.782   0.013  0.1573  0.3166 -0.3993
 3959TIP3    H133436   0.538   1.802   0.078 -0.5531  2.6969 -0.2990
 3959TIP3    H233437   0.421   1.710   0.050  0.0505  1.3176  1.4940
 3960TIP3   OH233438   2.750   5.232   0.703 -0.0407 -0.2842 -0.3040
 3960TIP3    H133439   2.681   5.231   0.637 -1.4390 -2.5330  1.0554
 3960TIP3    H233440   2.801   5.153   0.686 -0.3642 -0.8519  1.1562
 3961TIP3   OH233441   2.603   6.220   1.622  0.5592 -0.1250 -0.1084
 3961TIP3    H133442   2.524   6.168   1.639  0.6848 -0.1574  0.4069
 3961TIP3    H233443   2.655   6.211   1.702  0.1193  1.6262  0.4190
 3962TIP3   OH233444   2.147   5.615   8.472 -0.0988  0.1687  0.0844
 3962TIP3    H133445   2.117   5.530   8.503  1.7606 -0.1803  1.1148
 3962TIP3    H233446   2.111   5.678   8.535 -0.8061  0.0681 -0.2128
 3963TIP3   OH233447   0.046   6.810   2.152 -0.3593  0.1075  0.6560
 3963TIP3    H133448   0.042   6.862   2.072  0.5555 -0.0646  0.4914
 3963TIP3    H233449  -0.039   6.766   2.156  0.4321 -1.8279 -1.5520
 3964TIP3   OH233450   3.607   1.078   1.366 -0.3281  0.1343  0.5710
 3964TIP3    H133451   3.548   1.013   1.404 -0.4099 -1.0459 -1.4178
 3964TIP3    H233452   3.551   1.133   1.311 -0.6033  3.2120  3.5836
 3965TIP3   OH233453   4.975   3.882   0.669 -0.1025  0.4338 -0.3861
 3965TIP3    H133454   4.900   3.860   0.723  0.1174  0.5562 -0.0270
 3965TIP3    H233455   5.045   3.900   0.732  0.5911 -0.9340 -0.7118
 3966TIP3   OH233456   4.603   2.644   2.270  0.0206  0.1455 -0.1962
 3966TIP3    H133457   4.542   2.710   2.302  1.8629  1.4104  0.8643
 3966TIP3    H233458   4.642   2.607   2.349 -1.2444 -2.6065 -0.7141
 3967TIP3   OH233459   5.775   5.868   8.569  0.5808  0.4820 -0.5004
 3967TIP3    H133460   5.820   5.857   8.653 -2.2146  1.3091  1.2731
 3967TIP3    H233461   5.777   5.962   8.553 -1.1387  0.6739  0.1150
 3968TIP3   OH233462   5.925   2.658   8.363 -0.1826 -0.4825 -0.2045
 3968TIP3    H133463   5.982   2.717   8.314  1.4728  0.7766  2.9074
 3968TIP3    H233464   5.874   2.715   8.420 -0.7262 -1.8796  0.7678
 3969TIP3   OH233465   0.601   2.508   7.969  0.0055  0.5201  0.4188
 3969TIP3    H133466   0.532   2.486   8.032  0.3593 -2.1877  0.0076
 3969TIP3    H233467   0.576   2.460   7.889  1.0601  1.5480 -0.5689
 3970TIP3   OH233468   1.938   6.185   2.262 -0.1948  0.0186  0.2116
 3970TIP3    H133469   2.003   6.185   2.192  0.8218  1.8585  1.0838
 3970TIP3    H233470   1.902   6.274   2.261 -2.5573 -0.8770 -0.0791
 3971TIP3   OH233471   1.014   2.224   8.181  0.0291 -0.3568  0.1199
 3971TIP3    H133472   0.935   2.248   8.132  0.3609  0.1660 -0.1706
 3971TIP3    H233473   1.022   2.291   8.249  0.8485  0.2741 -0.5674
 3972TIP3   OH233474   5.174   6.872   8.093 -0.0405  0.2247 -0.2610
 3972TIP3    H133475   5.127   6.788   8.098 -0.3027  0.3554 -0.5175
 3972TIP3    H233476   5.121   6.932   8.144 -0.5801  0.5695 -1.2167
 3973TIP3   OH233477   3.331   1.122   0.413 -0.1923  0.0468  0.6455
 3973TIP3    H133478   3.381   1.183   0.467 -0.8272  0.0753  1.1985
 3973TIP3    H233479   3.292   1.177   0.345  2.1116 -0.2170 -1.0222
 3974TIP3   OH233480   3.683   2.212   8.113  0.3802  0.0804  0.2958
 3974TIP3    H133481   3.588   2.219   8.115  0.4902  1.8170  0.9873
 3974TIP3    H233482   3.703   2.147   8.181 -0.2880  0.1134  0.5332
 3975TIP3   OH233483   3.125   3.957   1.288  0.7943 -0.1731  0.0008
 3975TIP3    H133484   3.070   4.020   1.334  1.9479  0.0061  1.2140
 3975TIP3    H233485   3.183   4.010   1.234 -1.6196 -0.4255 -3.0856
 3976TIP3   OH233486   5.801   0.723   0.226  0.1670  0.3461 -0.1653
 3976TIP3    H133487   5.774   0.768   0.147 -0.3599 -0.2759 -0.3530
 3976TIP3    H233488   5.719   0.703   0.272  0.4973  1.3549  0.9210
 3977TIP3   OH233489   3.080   4.704   0.514  0.0677 -0.4727  0.1221
 3977TIP3    H133490   3.001   4.710   0.566 -0.9738 -1.3125 -1.2820
 3977TIP3    H233491   3.132   4.780   0.540 -1.7745  0.8552  0.1469
 3978TIP3   OH233492   0.522   4.684   1.026 -0.0156 -0.1502 -0.1435
 3978TIP3    H133493   0.556   4.620   1.088  2.9615  2.3218  1.0319
 3978TIP3    H233494   0.480   4.750   1.082 -1.1353  0.0171 -1.1475
 3979TIP3   OH233495   0.033   0.514   1.270  0.0093 -0.2021 -0.0727
 3979TIP3    H133496  -0.031   0.548   1.207  2.1024  1.1721 -1.6130
 3979TIP3    H233497   0.116   0.515   1.222  1.3904 -0.9133  2.1628
 3980TIP3   OH233498   1.837   3.989   6.976  0.3667  0.4840  0.0149
 3980TIP3    H133499   1.765   4.053   6.982 -0.2987 -0.3477  1.3864
 3980TIP3    H233500   1.802   3.919   6.921  0.2373  0.2337  0.4109
 3981TIP3   OH233501   1.024   6.860   6.738  0.0193  0.2763  0.0791
 3981TIP3    H133502   1.027   6.794   6.669  0.2143  2.3775 -2.0605
 3981TIP3    H233503   1.105   6.847   6.788 -0.0074 -1.1251 -0.2102
 3982TIP3   OH233504   1.558   6.083   7.057  0.0810  0.5875  0.5417
 3982TIP3    H133505   1.647   6.095   7.023 -0.3398 -1.2701 -1.4143
 3982TIP3    H233506   1.569   6.075   7.152  2.0124  0.2301  0.3220
 3983TIP3   OH233507   0.948   1.256   1.250  0.1365 -0.1510 -0.4149
 3983TIP3    H133508   0.879   1.308   1.207  0.7920  0.1283 -1.1479
 3983TIP3    H233509   0.940   1.169   1.210  0.1311 -0.1511 -0.4137
 3984TIP3   OH233510   4.775   0.112   1.683  0.3528 -0.0072  0.1293
 3984TIP3    H133511   4.845   0.053   1.656  0.8648  1.3462 -1.5878
 3984TIP3    H233512   4.697   0.079   1.637  0.6477  0.6530 -0.8644
 3985TIP3   OH233513   5.808   6.246   1.418 -0.2768  0.3863 -0.3731
 3985TIP3    H133514   5.866   6.321   1.413 -0.1132  0.2104 -1.3721
 3985TIP3    H233515   5.793   6.221   1.327 -0.1983 -0.8903 -0.0597
 3986TIP3   OH233516   2.562   1.467   8.125  0.6060  0.1942 -0.0844
 3986TIP3    H133517   2.558   1.542   8.065 -0.9006 -0.1407 -0.4393
 3986TIP3    H233518   2.571   1.507   8.212 -2.2748  0.9368 -0.0396
 3987TIP3   OH233519   4.941   5.905   1.539  0.7124 -0.1643  0.3227
 3987TIP3    H133520   4.850   5.931   1.550  0.5183  0.9727 -2.8584
 3987TIP3    H233521   4.990   5.959   1.600 -0.5871  0.3685  0.9252
 3988TIP3   OH233522   3.355   1.021   8.085  0.5443 -0.6355 -0.3687
 3988TIP3    H133523   3.425   1.080   8.112 -0.8672  0.3105  1.4547
 3988TIP3    H233524   3.334   0.971   8.164 -2.8989  1.3452  0.1933
 3989TIP3   OH233525   6.207   4.658   0.075  0.1839 -0.1949 -0.2862
 3989TIP3    H133526   6.268   4.587   0.095  0.6634  0.2545 -0.1075
 3989TIP3    H233527   6.159   4.628  -0.002 -0.4063 -1.1824  0.4497
 3990TIP3   OH233528   4.784   3.232   7.632  0.6923  0.4156  0.3128
 3990TIP3    H133529   4.773   3.154   7.687  0.1932  0.6587  0.5563
 3990TIP3    H233530   4.849   3.285   7.679  2.2610 -0.5665 -0.6411
 3991TIP3   OH233531   3.322   6.290   0.728  0.0766 -0.4916 -0.1593
 3991TIP3    H133532   3.307   6.375   0.771 -1.6058 -0.9185  0.1303
 3991TIP3    H233533   3.346   6.231   0.799 -0.8557 -0.7529 -0.0530
 3992TIP3   OH233534   0.574   6.162   0.462 -0.0024  0.4047 -0.3974
 3992TIP3    H133535   0.609   6.177   0.374  1.5656 -1.2295 -0.1190
 3992TIP3    H233536   0.647   6.182   0.521 -0.1055 -1.1896  0.3337
 3993TIP3   OH233537   6.681   1.959   7.342 -0.1554 -0.0085 -0.2977
 3993TIP3    H133538   6.756   1.998   7.298  0.1767  0.5809  0.7406
 3993TIP3    H233539   6.606   2.008   7.308  0.1312  0.6824  0.0450
 3994TIP3   OH233540   3.456   1.983   1.017 -0.0545 -0.6872 -0.1225
 3994TIP3    H133541   3.410   2.062   1.046  0.9285 -0.7758  1.8554
 3994TIP3    H233542   3.544   2.013   0.995 -0.3245 -0.8986 -1.5562
 3995TIP3   OH233543   0.328   6.655   1.588  0.1964  0.4330  0.2512
 3995TIP3    H133544   0.233   6.654   1.601  0.3327  0.1478  1.3678
 3995TIP3    H233545   0.363   6.680   1.673  1.0662  2.6133 -0.6771
 3996TIP3   OH233546   0.104   6.472   1.274 -0.7061  0.0920 -0.0812
 3996TIP3    H133547   0.043   6.470   1.347  1.0795 -0.1978  1.4753
 3996TIP3    H233548   0.132   6.381   1.263  1.7453  0.6024  1.3235
 3997TIP3   OH233549   4.178   4.920   8.534  0.2103  0.1049 -0.0636
 3997TIP3    H133550   4.162   4.967   8.616 -0.8130  0.3308 -0.3726
 3997TIP3    H233551   4.243   4.854   8.556 -0.3791 -0.1315  1.0502
 3998TIP3   OH233552   3.646   0.950   1.637  0.7485  0.1391  0.3775
 3998TIP3    H133553   3.641   0.988   1.549  1.2602  0.0461  0.3004
 3998TIP3    H233554   3.704   0.875   1.627  0.1020 -0.3988  0.6221
 3999TIP3   OH233555   0.222   4.864   0.416  0.1955 -0.2402  0.8098
 3999TIP3    H133556   0.147   4.806   0.423  0.6572 -0.8502  0.7904
 3999TIP3    H233557   0.220   4.916   0.496 -0.0487 -0.4897  0.9688
 4000TIP3   OH233558   0.547   0.139   1.770  0.2301 -0.9166  1.0286
 4000TIP3    H133559   0.477   0.086   1.732 -0.3322 -0.6244  1.6415
 4000TIP3    H233560   0.628   0.095   1.742 -0.0728 -0.0147 -1.6140
 4001TIP3   OH233561   2.559   0.533   0.592  0.6857  0.6116  0.2685
 4001TIP3    H133562   2.581   0.474   0.664 -1.1660 -1.5205 -0.7967
 4001TIP3    H233563   2.493   0.592   0.629  0.6900  0.3738  0.6614
 4002TIP3   OH233564   5.040   0.820   7.873 -0.1492 -0.0934 -0.2436
 4002TIP3    H133565   4.951   0.847   7.852 -0.1025 -0.5192 -1.0489
 4002TIP3    H233566   5.048   0.732   7.836  0.2480 -0.5143  0.8164
 4003TIP3   OH233567   1.352   4.496   7.760  0.1792  0.4082  0.1200
 4003TIP3    H133568   1.266   4.520   7.727 -0.3782 -0.6665  0.7510
 4003TIP3    H233569   1.413   4.543   7.704 -0.8253  3.0764  1.1259
 4004TIP3   OH233570   3.872   1.634   0.238  0.4952 -0.1875 -0.5200
 4004TIP3    H133571   3.958   1.665   0.210  0.3534 -1.0000 -1.9759
 4004TIP3    H233572   3.853   1.683   0.318  2.4421 -0.2255  0.0214
 4005TIP3   OH233573   4.534   3.004   0.191  0.7637 -0.2272  0.1031
 4005TIP3    H133574   4.511   3.094   0.213  2.4422 -0.2258  2.0950
 4005TIP3    H233575   4.454   2.968   0.151 -0.0422  2.0090 -0.4318
 4006TIP3   OH233576   0.568   3.634   6.603 -0.2435  0.3267  0.2177
 4006TIP3    H133577   0.590   3.721   6.635  3.2242 -0.2203 -0.3190
 4006TIP3    H233578   0.576   3.640   6.508  1.4076 -0.8130  0.2362
 4007TIP3   OH233579   5.874   2.456   1.550 -0.3650  0.1045  0.1580
 4007TIP3    H133580   5.833   2.494   1.627 -0.0819  0.4096  0.1601
 4007TIP3    H233581   5.945   2.402   1.586  0.8997  1.6239  0.0512
 4008TIP3   OH233582   4.995   6.165   6.549  0.0606 -0.2018 -0.6066
 4008TIP3    H133583   4.922   6.133   6.602  0.3089 -0.0320 -0.1511
 4008TIP3    H233584   5.042   6.225   6.607  1.8134 -1.9193 -0.1426
 4009TIP3   OH233585   1.479   4.259   7.760  0.3912 -0.3911  0.5411
 4009TIP3    H133586   1.478   4.237   7.667  0.6384 -0.5034  0.5637
 4009TIP3    H233587   1.432   4.342   7.765  1.2456  0.1332  0.1741
 4010TIP3   OH233588   6.141   4.557   8.260 -0.2905 -0.3864 -0.8137
 4010TIP3    H133589   6.169   4.607   8.337  0.3539  1.6494 -2.2682
 4010TIP3    H233590   6.053   4.590   8.242  0.7884  1.6871 -2.8050
 4011TIP3   OH233591   3.475   1.152   1.766 -0.1312 -0.4162 -0.1746
 4011TIP3    H133592   3.524   1.088   1.715  1.6731  2.2816 -2.1101
 4011TIP3    H233593   3.413   1.189   1.704  0.5355  1.3491  0.1596
 4012TIP3   OH233594   3.045   0.935   1.973 -0.2249 -0.2346 -0.1413
 4012TIP3    H133595   3.132   0.938   2.012  0.0139  1.7694 -0.7265
 4012TIP3    H233596   3.038   1.015   1.922 -2.7231  0.0995  0.5662
 4013TIP3   OH233597   2.684   3.226   2.289  0.0072 -0.3757  0.0733
 4013TIP3    H133598   2.612   3.202   2.347 -0.1624  1.7145  0.8081
 4013TIP3    H233599   2.747   3.154   2.299 -1.3285 -1.5361  0.4991
 4014TIP3   OH233600   6.372   1.134   0.474 -0.3805  0.5739 -0.2553
 4014TIP3    H133601   6.420   1.097   0.548 -0.3277  2.2895  0.5985
 4014TIP3    H233602   6.353   1.058   0.418  0.3850 -0.6188  1.0380
 4015TIP3   OH233603   3.767   3.019   7.287 -0.1488  0.2404 -0.4649
 4015TIP3    H133604   3.860   3.000   7.276 -0.1224  0.0914 -0.0153
 4015TIP3    H233605   3.722   2.946   7.246 -0.0516 -0.4527  0.6156
 4016TIP3   OH233606   0.549   5.392   8.451  0.4612  0.1181  0.2859
 4016TIP3    H133607   0.497   5.316   8.478 -0.7750  0.8146 -0.0695
 4016TIP3    H233608   0.634   5.355   8.428 -0.1461 -1.1838  0.0270
 4017TIP3   OH233609   1.268   2.637   0.173 -0.0981  0.2297  0.3969
 4017TIP3    H133610   1.198   2.630   0.237 -0.9800  0.6710 -0.4936
 4017TIP3    H233611   1.322   2.710   0.204 -0.0531 -0.0792  1.0544
 4018TIP3   OH233612   5.446   4.048   2.462 -0.7983 -0.6599  0.1188
 4018TIP3    H133613   5.498   3.976   2.426  0.7757  0.5522 -0.1401
 4018TIP3    H233614   5.383   4.070   2.394 -1.5076 -1.9526  0.3167
 4019TIP3   OH233615   4.389   6.718   0.014  0.3178 -0.1285  0.2696
 4019TIP3    H133616   4.297   6.698   0.028  0.4476 -2.6652 -1.8049
 4019TIP3    H233617   4.389   6.786  -0.053 -0.0207  0.3129  0.7073
 4020TIP3   OH233618   0.629   0.296   0.301  0.0259  0.0161 -0.5514
 4020TIP3    H133619   0.547   0.327   0.263  0.5768  2.5409  0.0955
 4020TIP3    H233620   0.689   0.286   0.227  0.7065  3.6164 -0.6604
 4021TIP3   OH233621   6.448   3.561   1.591  0.2172 -0.0170 -0.1761
 4021TIP3    H133622   6.527   3.513   1.616  0.9723  2.6929  3.6531
 4021TIP3    H233623   6.377   3.516   1.636  0.3347  0.1340  0.1699
 4022TIP3   OH233624   1.206   3.962   0.697  0.1083  0.0273  0.6001
 4022TIP3    H133625   1.258   3.968   0.777  1.6801 -1.1582 -0.2791
 4022TIP3    H233626   1.211   3.870   0.672  0.5055  0.5422 -1.3920
 4023TIP3   OH233627   6.476   2.139   7.253 -0.1726  0.5887 -0.0297
 4023TIP3    H133628   6.461   2.195   7.329 -0.7162  0.1546  0.1825
 4023TIP3    H233629   6.411   2.169   7.188  0.5323  1.2099 -0.4709
 4024TIP3   OH233630   0.517   1.926   1.283 -0.1585  0.3625  0.3410
 4024TIP3    H133631   0.530   1.946   1.190 -0.2428  0.0165  0.2515
 4024TIP3    H233632   0.461   1.996   1.315 -1.3402 -0.2945 -0.2207
 4025TIP3   OH233633   2.748   3.055   8.132  0.1025  0.0808 -0.5260
 4025TIP3    H133634   2.733   3.033   8.040 -2.6489 -0.5629 -0.0210
 4025TIP3    H233635   2.781   3.144   8.130  1.0723 -0.2693 -2.1574
 4026TIP3   OH233636   2.545   4.302   0.200 -0.4450 -0.3814 -0.1042
 4026TIP3    H133637   2.549   4.299   0.104  0.3063 -0.0056 -0.0947
 4026TIP3    H233638   2.637   4.298   0.227 -0.6067  0.4456  0.5715
 4027TIP3   OH233639   4.672   1.163   0.650 -0.1218  0.5800 -0.8123
 4027TIP3    H133640   4.593   1.122   0.615  0.5113 -0.3684 -1.1716
 4027TIP3    H233641   4.713   1.206   0.575 -1.0209  2.3303 -0.3509
 4028TIP3   OH233642   0.998   0.735   0.744  0.0934 -0.3944 -0.4136
 4028TIP3    H133643   1.005   0.824   0.780  0.9638 -0.3620 -0.6281
 4028TIP3    H233644   1.082   0.721   0.699  0.3592 -1.6733  0.4206
 4029TIP3   OH233645   5.892   1.710   1.687 -0.2682 -0.0242  0.0211
 4029TIP3    H133646   5.846   1.692   1.768 -1.1018  0.6197 -0.2998
 4029TIP3    H233647   5.964   1.768   1.712  1.2498 -2.0648  0.7417
 4030TIP3   OH233648   0.753   0.175   8.644 -0.2965 -0.0615  0.1846
 4030TIP3    H133649   0.712   0.257   8.615  0.3163 -0.6065 -2.4560
 4030TIP3    H233650   0.830   0.203   8.693  0.1277  0.9877 -1.0180
 4031TIP3   OH233651   5.390   4.414   0.720  0.3461  0.0218  0.3327
 4031TIP3    H133652   5.419   4.323   0.722 -1.3233 -0.5469  0.0822
 4031TIP3    H233653   5.368   4.435   0.811 -1.3705 -0.5744  0.0899
 4032TIP3   OH233654   5.278   1.609   7.877  0.4907 -0.1264  0.2848
 4032TIP3    H133655   5.298   1.545   7.809  1.9593 -1.5488  1.9379
 4032TIP3    H233656   5.229   1.678   7.832  2.0983 -0.5713 -2.3429
 4033TIP3   OH233657   4.033   5.944   7.359 -0.2684  0.0664 -0.0649
 4033TIP3    H133658   4.113   5.987   7.330 -0.8095  0.5941 -0.7914
 4033TIP3    H233659   4.047   5.851   7.339  0.5414  0.0130  0.6982
 4034TIP3   OH233660   3.971   5.926   7.637 -0.2456 -0.4013 -0.0466
 4034TIP3    H133661   3.965   5.834   7.665 -1.8913 -0.3783 -0.2035
 4034TIP3    H233662   3.999   5.922   7.546  1.1003 -0.6684  0.3644
 4035TIP3   OH233663   5.727   6.339   7.934  0.0395  0.6647  0.7193
 4035TIP3    H133664   5.758   6.410   7.992 -0.5693  1.0127  0.6265
 4035TIP3    H233665   5.642   6.314   7.970 -0.0976  0.5120  0.2898
 4036TIP3   OH233666   6.497   6.788   8.066  0.2936  0.0988  0.3602
 4036TIP3    H133667   6.483   6.858   8.129 -1.5322  0.0463  0.0652
 4036TIP3    H233668   6.540   6.719   8.116 -1.4774 -0.1009  1.7034
 4037TIP3   OH233669   2.289   5.801   1.842  0.0731  0.4909 -0.8349
 4037TIP3    H133670   2.217   5.846   1.886 -0.6672 -2.0055  0.7629
 4037TIP3    H233671   2.247   5.742   1.780  0.7202 -0.6471 -0.2372
 4038TIP3   OH233672   0.626   6.339   7.282 -0.3007  0.1800  0.5149
 4038TIP3    H133673   0.546   6.321   7.332 -1.0477  0.2565 -0.6100
 4038TIP3    H233674   0.633   6.267   7.220 -0.4210  1.0115 -0.4998
 4039TIP3   OH233675   1.319   6.456   6.431  0.3083 -0.1192  0.4224
 4039TIP3    H133676   1.228   6.483   6.444  0.8652  0.8488  3.0874
 4039TIP3    H233677   1.325   6.371   6.474  0.0523 -1.6599 -2.3830
 4040TIP3   OH233678   1.306   0.155   6.658 -0.0708  0.1331 -0.2821
 4040TIP3    H133679   1.274   0.094   6.724  0.1308 -0.5501 -0.8078
 4040TIP3    H233680   1.400   0.140   6.655 -0.0848  0.1285 -0.7532
 4041TIP3   OH233681   1.086   6.548   1.404  0.0042  0.1824 -0.5300
 4041TIP3    H133682   1.041   6.474   1.363  0.0350 -0.4443  0.5425
 4041TIP3    H233683   1.018   6.590   1.458 -0.0738  1.0898 -1.2931
 4042TIP3   OH233684   6.446   1.893   8.073  0.0783 -0.8671 -0.2085
 4042TIP3    H133685   6.513   1.945   8.117  0.5850 -1.1689 -0.6072
 4042TIP3    H233686   6.397   1.955   8.019 -1.0520 -0.3507  1.3342
 4043TIP3   OH233687   0.495   0.374   2.189 -0.0976  0.4587  0.4397
 4043TIP3    H133688   0.492   0.468   2.169  0.1463  0.5841  0.9787
 4043TIP3    H233689   0.540   0.369   2.274  2.8828 -0.4004 -1.0777
 4044TIP3   OH233690   1.954   4.082   0.129  0.4603 -0.3750 -0.2534
 4044TIP3    H133691   2.023   4.101   0.192  0.0147 -2.6320  1.0377
 4044TIP3    H233692   1.988   4.007   0.079 -0.0074  0.1521 -1.3881
 4045TIP3   OH233693   5.992   4.099   1.354 -0.0710 -0.4703 -0.0591
 4045TIP3    H133694   5.921   4.105   1.290 -0.6144 -0.9593  0.4864
 4045TIP3    H233695   6.071   4.117   1.304 -0.6074  0.3737 -0.6146
 4046TIP3   OH233696   4.398   5.453   1.993 -0.1870 -0.2293  0.0013
 4046TIP3    H133697   4.447   5.531   2.019  1.4876 -1.7347  1.5836
 4046TIP3    H233698   4.428   5.434   1.904 -0.7142  0.9731 -0.4527
 4047TIP3   OH233699   1.426   5.423   7.803  0.4025  0.3663  0.2612
 4047TIP3    H133700   1.417   5.516   7.782  1.0943  0.6300  1.0882
 4047TIP3    H233701   1.518   5.403   7.787  0.2954 -0.1262  0.2556
 4048TIP3   OH233702   6.003   1.970   0.420  0.1455 -0.4803  0.6118
 4048TIP3    H133703   5.999   2.058   0.382  1.5556  0.3222  2.1836
 4048TIP3    H233704   5.912   1.944   0.431 -0.3262  1.3343  1.3094
 4049TIP3   OH233705   6.142   0.581   7.622 -0.4303 -0.3076 -0.4624
 4049TIP3    H133706   6.173   0.614   7.538  1.7008 -1.4329 -0.1848
 4049TIP3    H233707   6.216   0.593   7.682 -1.6014 -0.3086  1.0697
 4050TIP3   OH233708   3.694   2.365   6.911  0.6490 -0.5721 -0.0807
 4050TIP3    H133709   3.752   2.440   6.924 -1.4381  0.8469  2.0828
 4050TIP3    H233710   3.711   2.308   6.986  0.2101 -0.8200 -0.1633
 4051TIP3   OH233711   4.675   2.619   8.608  0.2269 -0.0854 -0.8490
 4051TIP3    H133712   4.681   2.693   8.547 -0.3665  1.0328  0.3891
 4051TIP3    H233713   4.752   2.566   8.589  1.3244  1.4891 -0.9834
 4052TIP3   OH233714   0.477   5.783   6.042  0.5164 -0.0486  0.2446
 4052TIP3    H133715   0.394   5.827   6.025  0.5737 -0.1265 -0.2350
 4052TIP3    H233716   0.523   5.843   6.101  0.3145  0.2170  0.1373
 4053TIP3   OH233717   4.088   3.161   7.434 -0.0010  0.7084 -0.1274
 4053TIP3    H133718   4.102   3.072   7.401  0.2185  1.2450 -1.5601
 4053TIP3    H233719   4.176   3.190   7.461 -0.1514  0.3330  0.7995
 4054TIP3   OH233720   6.672   2.249   1.582 -0.1724  0.5702 -0.4761
 4054TIP3    H133721   6.640   2.310   1.648 -0.4598 -0.7250  0.6364
 4054TIP3    H233722   6.598   2.235   1.523 -0.4286  0.5265 -0.1431
 4055TIP3   OH233723   3.433   4.374   0.756  0.3931  0.3574  0.1853
 4055TIP3    H133724   3.383   4.447   0.792  0.5355  1.6777 -2.0933
 4055TIP3    H233725   3.523   4.390   0.785  0.5090  1.4147 -0.6954
 4056TIP3   OH233726   1.365   3.079   2.620 -0.8789 -0.4214 -0.0062
 4056TIP3    H133727   1.446   3.075   2.569 -0.9158  2.5178 -0.4766
 4056TIP3    H233728   1.394   3.105   2.708 -1.1596 -1.6098  0.4579
 4057TIP3   OH233729   2.883   1.920   1.306  0.0294  0.4238 -0.3414
 4057TIP3    H133730   2.972   1.955   1.315  0.0819  1.0478 -2.5540
 4057TIP3    H233731   2.895   1.825   1.304 -0.0065  0.0448  4.6678
 4058TIP3   OH233732   1.733   1.212   7.041  0.4583  0.5861  0.4564
 4058TIP3    H133733   1.715   1.300   7.007  0.1508  0.2657 -0.2435
 4058TIP3    H233734   1.685   1.209   7.124  0.8565  1.2377  0.7159
 4059TIP3   OH233735   3.794   6.221   1.099  0.2622  0.2418  0.6636
 4059TIP3    H133736   3.740   6.143   1.086 -0.0908  0.3405  1.4651
 4059TIP3    H233737   3.839   6.206   1.182 -1.5362  1.8084  2.0363
 4060TIP3   OH233738   2.733   5.753   1.742  0.0332 -0.2940  0.3849
 4060TIP3    H133739   2.788   5.830   1.759  0.8390 -0.5404 -0.9455
 4060TIP3    H233740   2.781   5.680   1.783  0.0099 -0.3146  0.3753
 4061TIP3   OH233741   0.853   0.828   2.490  0.7746 -0.0944 -0.0883
 4061TIP3    H133742   0.810   0.744   2.506 -0.4138  0.2801 -1.1423
 4061TIP3    H233743   0.831   0.849   2.399  2.0709  0.7780 -0.2258
 4062TIP3   OH233744   1.379   0.006   2.172 -0.2582 -0.0015  0.1592
 4062TIP3    H133745   1.317   0.021   2.100  2.4631  2.1532 -1.9748
 4062TIP3    H233746   1.353   0.069   2.239 -0.5606  0.7088 -0.6062
 4063TIP3   OH233747   4.381   4.015   2.899  0.2756 -0.1893  0.1153
 4063TIP3    H133748   4.372   4.090   2.840 -1.1358 -1.9667 -2.0713
 4063TIP3    H233749   4.453   3.963   2.861  0.4772 -0.5326  0.9453
 4064TIP3   OH233750   1.851   5.792   7.371 -0.1057 -0.0246 -0.2304
 4064TIP3    H133751   1.936   5.823   7.401  0.8186 -0.4650 -2.2060
 4064TIP3    H233752   1.865   5.770   7.279 -2.6056  0.7718 -0.8686
 4065TIP3   OH233753   3.296   2.414   2.157  0.5589  0.0197  0.1593
 4065TIP3    H133754   3.318   2.424   2.065 -0.3310  0.5443 -0.0070
 4065TIP3    H233755   3.364   2.462   2.204  0.9940 -0.2195 -0.2193
 4066TIP3   OH233756   6.488   1.318   7.218  0.1510  0.3355 -0.1326
 4066TIP3    H133757   6.457   1.237   7.175 -0.3876 -0.0383  0.9265
 4066TIP3    H233758   6.566   1.342   7.169  1.7991 -2.2230  1.0073
 4067TIP3   OH233759   5.383   4.216   7.861  0.1102 -0.5809  0.3490
 4067TIP3    H133760   5.411   4.140   7.810  0.7992  0.6076 -1.0906
 4067TIP3    H233761   5.301   4.244   7.820 -0.3380 -0.7352  1.1056
 4068TIP3   OH233762   1.139   1.167   1.437  0.1946 -0.8683 -0.2917
 4068TIP3    H133763   1.078   1.205   1.374 -0.0691 -1.2073 -0.2434
 4068TIP3    H233764   1.165   1.084   1.399 -0.1703 -1.1976  0.1634
 4069TIP3   OH233765   3.036   5.466   2.468  0.2649  0.1057 -0.0607
 4069TIP3    H133766   3.114   5.484   2.415  0.4868  0.5496  0.4142
 4069TIP3    H233767   2.965   5.509   2.421  0.8006  2.4715  1.1304
 4070TIP3   OH233768   5.984   6.190   6.562  0.7398 -0.7193  0.2531
 4070TIP3    H133769   6.031   6.111   6.536 -2.2648 -1.9097 -2.2347
 4070TIP3    H233770   5.999   6.252   6.491  1.5574  0.3184  1.2899
 4071TIP3   OH233771   0.298   4.914   8.020 -0.7247  0.3920  0.0442
 4071TIP3    H133772   0.301   4.819   8.009 -1.1922  0.3597  0.1733
 4071TIP3    H233773   0.244   4.945   7.947 -2.5469  0.3241  1.2911
 4072TIP3   OH233774   2.292   0.454   8.049  0.1811  0.4768  0.4388
 4072TIP3    H133775   2.265   0.545   8.050  0.1275  0.4560  0.8747
 4072TIP3    H233776   2.366   0.449   8.109  0.2721  0.2598  0.3129
 4073TIP3   OH233777   3.571   5.010   2.307 -0.8211  0.2097  0.2180
 4073TIP3    H133778   3.636   4.947   2.276  0.0691  1.2334 -0.0323
 4073TIP3    H233779   3.525   4.964   2.378 -1.1402 -1.2211 -0.8582
 4074TIP3   OH233780   3.772   1.496   1.954  0.2611 -0.3096 -0.3298
 4074TIP3    H133781   3.747   1.417   1.907 -0.0512 -1.1778  1.2327
 4074TIP3    H233782   3.865   1.482   1.976  0.1759 -0.2936  0.0436
 4075TIP3   OH233783   2.074   5.014   0.601  0.4255 -0.1071 -0.3149
 4075TIP3    H133784   2.010   5.057   0.543 -0.2078  2.0106  1.7587
 4075TIP3    H233785   2.081   5.074   0.676  2.6441 -1.7598  0.8970
 4076TIP3   OH233786   1.561   4.587   0.154  0.3090 -0.1891  0.2505
 4076TIP3    H133787   1.612   4.660   0.190 -1.4593  0.9117  0.6746
 4076TIP3    H233788   1.611   4.509   0.177  2.5845  0.8783 -0.7588
 4077TIP3   OH233789   1.009   6.215   1.542  0.5456  0.1852 -0.0698
 4077TIP3    H133790   0.967   6.173   1.467  0.9070  1.4070 -1.0005
 4077TIP3    H233791   0.942   6.276   1.575  0.7810  0.4835 -0.1351
 4078TIP3   OH233792   3.637   6.138   7.180 -1.1290 -0.4226  0.0469
 4078TIP3    H133793   3.706   6.093   7.130  0.8846  1.5104  0.9072
 4078TIP3    H233794   3.587   6.186   7.114 -0.5183 -0.4330 -0.4319
 4079TIP3   OH233795   1.950   2.809   1.045  0.0996  0.9259  0.3521
 4079TIP3    H133796   1.864   2.786   1.010  0.1412  2.9762 -1.3023
 4079TIP3    H233797   2.001   2.728   1.037 -1.5068 -0.2061  0.9575
 4080TIP3   OH233798   2.491   5.071   7.764 -0.3048  0.0228  0.5224
 4080TIP3    H133799   2.401   5.055   7.792 -0.3386 -0.0857  0.3475
 4080TIP3    H233800   2.531   5.116   7.839 -1.2373  2.5234 -0.4016
 4081TIP3   OH233801   3.758   2.444   0.129  0.2654  0.3067 -0.3023
 4081TIP3    H133802   3.790   2.480   0.211 -1.2027 -1.3835  1.0839
 4081TIP3    H233803   3.835   2.401   0.090  0.5084 -0.8257  1.3263
 4082TIP3   OH233804   6.200   1.038   2.550  0.3141 -0.7348  0.0032
 4082TIP3    H133805   6.192   0.943   2.541 -0.1701 -0.7987  1.0524
 4082TIP3    H233806   6.115   1.066   2.584  0.3131  0.1305 -0.6876
 4083TIP3   OH233807   4.017   1.523   8.071  0.6667 -0.4693  0.4429
 4083TIP3    H133808   4.100   1.485   8.101  0.3095 -0.9963  0.7742
 4083TIP3    H233809   4.039   1.615   8.052  1.0714 -0.3030  1.6199
 4084TIP3   OH233810   3.973   2.738   2.521 -0.0886 -0.1194  0.1962
 4084TIP3    H133811   3.951   2.644   2.523 -0.2925 -0.1163  3.1060
 4084TIP3    H233812   4.068   2.739   2.513 -0.0632 -0.5986  0.3496
 4085TIP3   OH233813   6.143   0.673   7.351  0.1278 -0.1427 -0.4616
 4085TIP3    H133814   6.120   0.729   7.277  1.2878 -1.2532 -1.7279
 4085TIP3    H233815   6.083   0.598   7.344 -0.1004 -0.0080  0.0356
 4086TIP3   OH233816   3.710   3.118   8.462  0.2714  0.1814  0.5731
 4086TIP3    H133817   3.769   3.191   8.446  0.3711 -0.1026 -0.3776
 4086TIP3    H233818   3.631   3.139   8.412 -0.7020  0.8425  2.2881
 4087TIP3   OH233819   2.451   0.503   8.260 -0.8743  0.3527 -0.3758
 4087TIP3    H133820   2.375   0.463   8.302 -0.9846 -1.4585 -2.1464
 4087TIP3    H233821   2.522   0.492   8.323 -1.6212  0.2189  0.4605
 4088TIP3   OH233822   1.078   3.055   7.451 -0.5151 -0.4532  0.4056
 4088TIP3    H133823   1.032   3.015   7.525  0.2970  1.9677  2.3774
 4088TIP3    H233824   1.171   3.039   7.468 -0.2369  1.2078  0.6913
 4089TIP3   OH233825   3.047   0.742   3.291 -0.0543 -0.3723  0.4923
 4089TIP3    H133826   3.073   0.697   3.211 -0.2788  0.4055 -0.0335
 4089TIP3    H233827   3.079   0.832   3.279 -1.4464  0.1526  0.5942
 4090TIP3   OH233828   2.478   5.899   0.771 -0.4308  0.3593 -0.1077
 4090TIP3    H133829   2.462   5.964   0.702  1.9247  1.1394 -0.0119
 4090TIP3    H233830   2.529   5.831   0.729 -0.5658 -0.0876  0.4374
 4091TIP3   OH233831   4.689   3.733   7.292  0.1677 -0.0628  0.0296
 4091TIP3    H133832   4.676   3.749   7.385  1.0081 -0.8482  0.2916
 4091TIP3    H233833   4.622   3.669   7.269  0.5272 -0.5376  0.2981
 4092TIP3   OH233834   3.531   3.385   0.078  0.4780  0.0984 -0.2582
 4092TIP3    H133835   3.540   3.415  -0.012 -6.4244  2.0612 -0.8648
 4092TIP3    H233836   3.504   3.294   0.071  0.2830  0.1491 -0.1937
 4093TIP3   OH233837   6.124   5.573   7.478  0.1721 -0.0790 -0.4293
 4093TIP3    H133838   6.059   5.540   7.540 -0.4611  1.6578 -0.1001
 4093TIP3    H233839   6.124   5.668   7.492 -0.0199  0.4005 -3.1034
 4094TIP3   OH233840   1.111   0.127   1.509 -0.3590 -0.0396 -0.0126
 4094TIP3    H133841   1.157   0.092   1.433 -1.3165 -0.6496 -0.3422
 4094TIP3    H233842   1.130   0.221   1.509  3.1578 -0.5783  1.4981
 4095TIP3   OH233843   5.955   5.835   0.421 -0.1329 -0.5745  0.2169
 4095TIP3    H133844   5.998   5.752   0.443 -0.6390 -0.6431  1.0005
 4095TIP3    H233845   5.865   5.811   0.403 -0.1181 -0.2808 -0.2722
 4096TIP3   OH233846   4.017   6.259   2.090  0.3046  0.0777 -0.3288
 4096TIP3    H133847   3.998   6.317   2.016  0.0931 -1.0328 -1.1582
 4096TIP3    H233848   4.035   6.319   2.163 -0.7847  1.1933 -0.9369
 4097TIP3   OH233849   3.232   4.479   0.539 -0.3057  0.0363 -0.6829
 4097TIP3    H133850   3.183   4.561   0.536 -0.2919  0.0336 -1.1210
 4097TIP3    H233851   3.234   4.455   0.631 -1.4101 -0.1297 -0.6891
 4098TIP3   OH233852   6.468   1.707   0.142  0.3349  0.3412 -0.9324
 4098TIP3    H133853   6.472   1.613   0.126  1.0756  0.3625 -0.9365
 4098TIP3    H233854   6.432   1.716   0.230 -0.4403  0.0861 -1.2200
 4099TIP3   OH233855   5.626   4.185   0.103 -0.4979  0.5103  0.3695
 4099TIP3    H133856   5.544   4.142   0.080  0.3611 -0.9073 -0.1329
 4099TIP3    H233857   5.631   4.260   0.043 -0.5498 -0.4578 -0.8760
 4100TIP3   OH233858   1.194   5.521   8.191  0.1988  0.2957  0.1811
 4100TIP3    H133859   1.197   5.464   8.115 -2.2547  0.2333  0.0729
 4100TIP3    H233860   1.196   5.462   8.266 -1.3120  0.0666  0.0777
 4101TIP3   OH233861   1.628   6.445   7.318 -0.0066 -0.1087  0.0745
 4101TIP3    H133862   1.568   6.390   7.369 -0.3611 -0.1413 -0.3681
 4101TIP3    H233863   1.627   6.530   7.363 -0.2728 -0.1532  0.1561
 4102TIP3   OH233864   4.461   3.626   8.014 -0.0777  0.1768 -0.1052
 4102TIP3    H133865   4.367   3.635   8.001 -0.4700 -2.9075 -0.1996
 4102TIP3    H233866   4.497   3.610   7.926 -0.0696 -2.2795  0.2746
 4103TIP3   OH233867   0.983   1.606   1.040 -0.3861  0.0592  0.5177
 4103TIP3    H133868   0.913   1.545   1.065 -0.9230 -0.0395 -1.1030
 4103TIP3    H233869   1.034   1.559   0.975 -0.1355  0.9262  0.0738
 4104TIP3   OH233870   1.123   3.073   0.901 -0.0016 -0.1954  0.0997
 4104TIP3    H133871   1.183   3.112   0.965  1.4058 -2.2603  0.1449
 4104TIP3    H233872   1.040   3.119   0.913  0.9667  1.2209  1.6041
 4105TIP3   OH233873   3.313   0.724   0.751  0.3719  0.5118  0.2753
 4105TIP3    H133874   3.234   0.770   0.723  0.9001  1.0402 -0.3869
 4105TIP3    H233875   3.288   0.680   0.833 -0.6705  0.4592 -0.0577
 4106TIP3   OH233876   0.251   5.200   7.299  0.3834 -0.3054  0.3732
 4106TIP3    H133877   0.263   5.169   7.389  1.9975 -2.1688 -0.4300
 4106TIP3    H233878   0.188   5.139   7.261 -1.0500  1.0518  0.4502
 4107TIP3   OH233879   0.806   5.600   7.268 -0.2938 -0.1572  0.0560
 4107TIP3    H133880   0.830   5.526   7.323  1.0980 -1.0559 -1.6252
 4107TIP3    H233881   0.890   5.642   7.247 -0.8844  0.7913 -0.4787
 4108TIP3   OH233882   3.687   0.933   0.627  0.0403 -0.0503 -0.4726
 4108TIP3    H133883   3.719   0.862   0.682 -0.7630 -0.5236 -0.5899
 4108TIP3    H233884   3.663   1.003   0.688 -0.2236 -0.3186 -0.2665
 4109TIP3   OH233885   0.200   2.434   8.337  0.4247  0.4814  0.3750
 4109TIP3    H133886   0.256   2.510   8.351 -0.1571  0.7114  1.5642
 4109TIP3    H233887   0.196   2.391   8.423  0.6167 -0.8139 -0.2379
 4110TIP3   OH233888   4.154   1.442   0.893 -0.2460  0.3238 -0.4557
 4110TIP3    H133889   4.184   1.451   0.983 -2.1891 -0.4558  0.3195
 4110TIP3    H233890   4.235   1.433   0.842  0.9108  1.2020  1.1265
 4111TIP3   OH233891   0.139   0.841   0.904 -0.2175  0.2015 -0.3885
 4111TIP3    H133892   0.048   0.824   0.877  0.2242  0.5114 -2.2230
 4111TIP3    H233893   0.160   0.768   0.962 -1.1214 -0.8122 -1.2650
 4112TIP3   OH233894   6.894   2.058   7.176 -0.9720 -0.1273  0.7624
 4112TIP3    H133895   6.940   2.139   7.153 -0.5213  0.3987  3.2285
 4112TIP3    H233896   6.962   1.992   7.182 -1.1934 -0.4552 -0.0926
 4113TIP3   OH233897   0.842   0.936   1.140 -0.0565  0.9047  0.1218
 4113TIP3    H133898   0.755   0.898   1.130  0.6793 -0.6130 -0.9956
 4113TIP3    H233899   0.851   0.952   1.234 -1.0476 -0.1184  0.4074
 4114TIP3   OH233900   4.083   0.466   2.989 -0.0496 -0.0238  0.4407
 4114TIP3    H133901   4.021   0.532   3.019  0.2086 -0.4934  2.1383
 4114TIP3    H233902   4.047   0.383   3.020 -1.1002 -0.9410 -2.8588
 4115TIP3   OH233903   6.191   1.013   2.220 -0.5307  0.3555 -0.1364
 4115TIP3    H133904   6.236   0.934   2.191 -1.3140  0.0696 -0.5914
 4115TIP3    H233905   6.261   1.072   2.248  0.3164  0.7745 -2.9168
 4116TIP3   OH233906   6.665   0.336   1.605  0.1588 -0.3380 -0.5955
 4116TIP3    H133907   6.717   0.303   1.679 -0.7241  2.4232  1.4190
 4116TIP3    H233908   6.728   0.381   1.549  0.3302  0.9857  0.6119
 4117TIP3   OH233909   1.513   1.356   1.577  0.3297 -0.0299  0.4508
 4117TIP3    H133910   1.570   1.290   1.537  2.4807  1.4204  0.9414
 4117TIP3    H233911   1.464   1.394   1.503  0.2062 -1.0968 -0.0298
 4118TIP3   OH233912   0.489   2.064   0.518  0.1747  0.0685 -0.2760
 4118TIP3    H133913   0.406   2.072   0.470  2.0655 -2.8169 -4.7798
 4118TIP3    H233914   0.486   1.977   0.556  1.2165 -0.1941 -0.7685
 4119TIP3   OH233915   6.814   2.183   1.142 -0.1250  0.0081  0.3299
 4119TIP3    H133916   6.815   2.163   1.048  1.0109  0.7162  0.1754
 4119TIP3    H233917   6.752   2.255   1.151 -0.4394 -0.2379  0.1738
 4120TIP3   OH233918   4.326   1.940   1.649  0.4514 -0.3069 -0.6634
 4120TIP3    H133919   4.278   2.004   1.701  0.0932 -0.3393 -0.9510
 4120TIP3    H233920   4.261   1.874   1.625  0.4491  0.0338 -1.6808
 4121TIP3   OH233921   5.861   2.485   2.066  0.1617 -0.8909 -0.2180
 4121TIP3    H133922   5.874   2.394   2.037  0.3226 -1.2638  0.9700
 4121TIP3    H233923   5.916   2.493   2.144  0.8022  0.4921 -0.7873
 4122TIP3   OH233924   6.288   2.114   7.647  0.2001 -0.3861  0.2210
 4122TIP3    H133925   6.216   2.071   7.602 -0.2478  0.5574  0.0015
 4122TIP3    H233926   6.316   2.184   7.588 -1.1192  1.5955  1.7951
 4123TIP3   OH233927   6.887   6.463   2.184  0.8207  0.2327  0.3755
 4123TIP3    H133928   6.878   6.369   2.166  0.9800  0.0241  1.3274
 4123TIP3    H233929   6.960   6.469   2.246  1.5259  1.0987 -0.5096
 4124TIP3   OH233930   4.350   3.456   0.503 -0.0735 -0.3345  0.2999
 4124TIP3    H133931   4.314   3.430   0.588 -0.9518  0.5634  0.2166
 4124TIP3    H233932   4.274   3.460   0.445  0.6864 -2.4398 -0.9636
 4125TIP3   OH233933   3.230   5.139   1.764  0.0705 -0.5626  0.7104
 4125TIP3    H133934   3.303   5.112   1.819  1.0582 -1.4514 -0.9584
 4125TIP3    H233935   3.224   5.234   1.778  1.3956 -0.5023  1.0617
 4126TIP3   OH233936   1.506   1.404   7.012  0.2959 -0.4100  0.2305
 4126TIP3    H133937   1.414   1.385   6.993  0.9694 -2.6521 -1.1659
 4126TIP3    H233938   1.534   1.461   6.940  0.6675 -2.0030 -0.9338
 4127TIP3   OH233939   5.395   6.031   7.821  0.2233 -0.3324 -0.0583
 4127TIP3    H133940   5.393   5.972   7.746  0.2120 -0.8461  0.3378
 4127TIP3    H233941   5.359   5.979   7.893  0.6570  0.0021  0.4087
 4128TIP3   OH233942   3.599   3.314   7.654 -0.6062 -0.1920 -0.1339
 4128TIP3    H133943   3.662   3.274   7.715 -2.1003 -2.5030 -0.0142
 4128TIP3    H233944   3.647   3.321   7.572 -0.2035 -2.1767 -0.1264
 4129TIP3   OH233945   5.866   4.135   1.601 -0.4783 -0.0766 -0.6423
 4129TIP3    H133946   5.890   4.217   1.644 -0.0604 -0.5176 -0.0171
 4129TIP3    H233947   5.917   4.133   1.520  0.6569 -0.4055  0.0555
 4130TIP3   OH233948   0.802   3.657   6.847  0.2340 -0.7879  0.0629
 4130TIP3    H133949   0.770   3.568   6.836 -0.8274 -0.3830 -0.2408
 4130TIP3    H233950   0.844   3.657   6.934 -1.7303 -1.0431  1.0714
 4131TIP3   OH233951   4.368   3.464   1.751 -0.2731  0.6215 -0.2296
 4131TIP3    H133952   4.377   3.369   1.752 -1.5137  0.4003  3.2963
 4131TIP3    H233953   4.456   3.496   1.730  0.3363 -1.2842 -0.7668
 4132TIP3   OH233954   4.039   0.585   7.597  0.2433  0.3911  0.1715
 4132TIP3    H133955   4.109   0.642   7.566  1.5876  0.3680  2.8650
 4132TIP3    H233956   4.014   0.534   7.520  1.1070  2.4347 -1.5777
 4133TIP3   OH233957   1.119   3.374   2.006  0.6175  0.1848 -0.6065
 4133TIP3    H133958   1.201   3.341   1.970  1.0018 -0.1845  0.5628
 4133TIP3    H233959   1.101   3.317   2.080 -0.3282  0.7090 -0.4186
 4134TIP3   OH233960   3.233   1.694   7.638  0.8505  0.5725 -0.2121
 4134TIP3    H133961   3.298   1.652   7.695  1.7697  0.2564 -1.4415
 4134TIP3    H233962   3.200   1.622   7.583 -0.0143  0.8729 -0.0969
 4135TIP3   OH233963   1.106   3.699   0.176  0.6043 -0.1105  0.9384
 4135TIP3    H133964   1.047   3.755   0.126  1.4013  1.1663  1.3608
 4135TIP3    H233965   1.121   3.748   0.258  1.8295 -0.6277  1.0489
 4136TIP3   OH233966   4.536   2.925   1.188  0.2700 -0.0785  0.2096
 4136TIP3    H133967   4.625   2.937   1.156 -0.9026  1.7624 -2.8438
 4136TIP3    H233968   4.513   3.008   1.230 -0.5656  0.1554 -0.6744
 4137TIP3   OH233969   5.790   0.325   1.455  0.4022 -0.1568  0.0069
 4137TIP3    H133970   5.721   0.277   1.501 -0.3818 -0.0905 -1.0600
 4137TIP3    H233971   5.860   0.260   1.443 -0.2151 -0.7554 -0.4825
 4138TIP3   OH233972   1.153   1.863   0.657  0.3472 -0.3443 -0.5735
 4138TIP3    H133973   1.150   1.768   0.653  0.8027 -0.3871 -0.0208
 4138TIP3    H233974   1.064   1.891   0.633  0.1536 -0.9134 -0.5298
 4139TIP3   OH233975   6.440   6.404   1.213  0.4204  0.2153  0.4090
 4139TIP3    H133976   6.446   6.434   1.304  2.2070  1.9793 -0.2223
 4139TIP3    H233977   6.531   6.387   1.188  0.0650  0.7010 -1.3338
 4140TIP3   OH233978   2.738   3.001   0.478 -0.3560  0.1443 -0.0307
 4140TIP3    H133979   2.684   3.064   0.526  0.1154 -0.3326  1.1696
 4140TIP3    H233980   2.802   3.054   0.430  0.7688  0.5832  1.8576
 4141TIP3   OH233981   6.201   0.011   0.660  0.1641  0.1640  0.5542
 4141TIP3    H133982   6.260  -0.017   0.731  0.7027  0.1316  0.1056
 4141TIP3    H233983   6.113  -0.009   0.692  0.4343 -0.3318  1.0037
 4142TIP3   OH233984   2.536   6.846   8.127  1.0040 -0.3818 -0.0907
 4142TIP3    H133985   2.549   6.863   8.221 -0.5185  1.8127 -0.2068
 4142TIP3    H233986   2.500   6.758   8.123 -0.1152 -0.0476  1.5296
 4143TIP3   OH233987   5.196   3.036   0.738  0.0242 -0.2451  0.1899
 4143TIP3    H133988   5.181   3.030   0.644  0.1003 -1.8574  0.2646
 4143TIP3    H233989   5.280   2.991   0.752  0.8913  1.4736  0.8286
 4144TIP3   OH233990   4.201   3.194   1.281 -0.7131 -0.3122  0.4144
 4144TIP3    H133991   4.205   3.225   1.191 -1.3623  0.6327  0.7004
 4144TIP3    H233992   4.204   3.274   1.334 -2.5907 -0.6868  1.1637
 4145TIP3   OH233993   2.776   2.894   0.954 -0.2754 -0.1978 -0.7014
 4145TIP3    H133994   2.721   2.971   0.970 -1.0342 -1.1500  1.7485
 4145TIP3    H233995   2.808   2.870   1.040  0.1116 -2.5047 -1.4281
 4146TIP3   OH233996   1.065   4.846   7.772 -0.2117  0.2375  0.3287
 4146TIP3    H133997   1.160   4.843   7.787  0.0488  2.6063 -0.3196
 4146TIP3    H233998   1.028   4.786   7.836  1.7005 -0.3410  0.9518
 4147TIP3   OH233999   6.190   5.308   0.433 -0.4031 -0.0797 -0.0214
 4147TIP3    H134000   6.272   5.348   0.463 -0.2805 -1.0373  0.9801
 4147TIP3    H234001   6.209   5.215   0.430 -0.5439 -0.0970 -2.7635
 4148TIP3   OH234002   4.302   3.321   1.029 -0.3613  0.0157 -0.4280
 4148TIP3    H134003   4.270   3.398   1.078 -0.7709  0.2259 -1.0215
 4148TIP3    H234004   4.396   3.320   1.045 -0.5702 -0.3023  0.9143
 4149TIP3   OH234005   5.625   4.510   2.183 -0.4095 -0.8670 -0.8065
 4149TIP3    H134006   5.676   4.586   2.210 -0.5676 -1.3736  1.0830
 4149TIP3    H234007   5.536   4.528   2.215 -0.8594 -1.0820 -1.8953
 4150TIP3   OH234008   1.204   1.770   1.535 -0.3191 -0.7150 -0.8142
 4150TIP3    H134009   1.214   1.675   1.543 -1.3127 -0.8764 -1.3611
 4150TIP3    H234010   1.163   1.797   1.618 -1.0528 -0.9269 -1.1006
 4151TIP3   OH234011   1.585   6.242   8.111 -0.2142  0.3894  0.2940
 4151TIP3    H134012   1.616   6.152   8.119 -1.8314 -0.1538  0.9334
 4151TIP3    H234013   1.652   6.287   8.060 -0.0238 -1.5255 -1.2501
 4152TIP3   OH234014   4.750   0.286   0.203 -1.0119 -0.0136 -0.2996
 4152TIP3    H134015   4.791   0.307   0.119 -2.3724 -0.6990 -1.1601
 4152TIP3    H234016   4.801   0.213   0.237 -0.2697  0.4615 -0.3673
 4153TIP3   OH234017   3.432   4.314   2.751 -0.2315  0.1332  0.1375
 4153TIP3    H134018   3.419   4.221   2.768 -0.4539  0.3786  1.3999
 4153TIP3    H234019   3.361   4.357   2.798 -1.1326  0.8657 -1.7759
 4154TIP3   OH234020   6.539   5.256   7.604  0.1242  0.0104  0.5395
 4154TIP3    H134021   6.469   5.322   7.599 -0.2857 -0.4450  0.1758
 4154TIP3    H234022   6.499   5.182   7.649 -0.2160 -0.9558 -1.2678
 4155TIP3   OH234023   6.884   3.174   6.914 -0.0710 -0.4165 -0.7205
 4155TIP3    H134024   6.949   3.222   6.863  1.8575 -0.0488  1.8668
 4155TIP3    H234025   6.818   3.239   6.936 -0.4871 -0.3856 -1.9909
 4156TIP3   OH234026   1.483   4.583   0.756 -0.2292  0.1166  0.0520
 4156TIP3    H134027   1.546   4.638   0.709  1.3959 -0.0161  1.9641
 4156TIP3    H234028   1.464   4.512   0.695  0.7356  0.6614 -0.9370
 4157TIP3   OH234029   3.383   1.761   0.833  0.2938  0.5680 -0.5929
 4157TIP3    H134030   3.289   1.774   0.844  0.1111 -0.2965 -1.0568
 4157TIP3    H234031   3.423   1.812   0.904 -0.6328 -1.3502  1.4281
 4158TIP3   OH234032   0.173   1.665   1.711  0.2196 -0.3298 -0.2415
 4158TIP3    H134033   0.261   1.694   1.687 -0.3543  1.9890  0.2027
 4158TIP3    H234034   0.176   1.654   1.806 -0.4252  1.7916  0.0864
 4159TIP3   OH234035   5.769   1.819   7.912 -0.0427 -0.0341 -0.5542
 4159TIP3    H134036   5.736   1.804   7.823 -0.4575  0.7755 -0.5506
 4159TIP3    H234037   5.834   1.750   7.926 -0.5200 -0.6336 -1.2023
 4160TIP3   OH234038   0.347   2.934   1.564 -0.3666 -0.3890  0.1994
 4160TIP3    H134039   0.369   2.913   1.474  1.5625 -0.4865  0.6461
 4160TIP3    H234040   0.377   3.024   1.576  0.2493 -0.6846  0.9834
 4161TIP3   OH234041   4.037   0.902   8.075  0.4107 -0.3710 -0.6005
 4161TIP3    H134042   4.089   0.826   8.103 -0.7117 -1.0354 -0.2810
 4161TIP3    H234043   4.037   0.896   7.979 -2.5149 -2.8235 -0.6022
 4162TIP3   OH234044   3.820   4.212   1.809 -0.2592 -0.0714 -0.1238
 4162TIP3    H134045   3.767   4.133   1.818 -0.3356  0.0652  0.6889
 4162TIP3    H234046   3.805   4.261   1.889 -0.1831  0.7603 -0.6015
 4163TIP3   OH234047   5.893   5.067   2.074 -0.0272  0.0867 -0.1197
 4163TIP3    H134048   5.848   5.040   2.154  1.1370  0.0405  0.5275
 4163TIP3    H234049   5.862   5.156   2.058 -1.2052 -0.3311 -0.3299
 4164TIP3   OH234050   5.992   0.389   7.409  0.3147  0.1327 -0.1522
 4164TIP3    H134051   6.075   0.343   7.398  1.0937  1.2635  0.6676
 4164TIP3    H234052   5.965   0.412   7.320  0.3814 -1.0804 -0.4929
 4165TIP3   OH234053   4.873   5.471   7.721  0.5248  0.2086 -0.2164
 4165TIP3    H134054   4.840   5.482   7.811 -1.7023  1.1251 -1.0781
 4165TIP3    H234055   4.879   5.560   7.687  1.9197 -0.1007 -0.8202
 4166TIP3   OH234056   3.114   4.625   2.015  0.1126 -0.2631  0.3789
 4166TIP3    H134057   3.039   4.609   1.958 -0.1069 -1.2777  0.9270
 4166TIP3    H234058   3.087   4.591   2.101  0.8681  0.1760  0.8041
 4167TIP3   OH234059   4.441   4.650   8.490 -0.0278  0.4274 -0.4360
 4167TIP3    H134060   4.518   4.665   8.436  0.5929  0.9505  0.5805
 4167TIP3    H234061   4.475   4.615   8.572 -1.0497 -1.5315 -0.7937
 4168TIP3   OH234062   6.274   1.879   0.987 -0.0757  0.0050  0.6469
 4168TIP3    H134063   6.277   1.971   1.013  0.6544  0.5038 -1.0371
 4168TIP3    H234064   6.187   1.868   0.948  0.1430  0.2152  0.0921
 4169TIP3   OH234065   2.811   0.712   7.791  0.5956 -0.0052  0.0884
 4169TIP3    H134066   2.775   0.800   7.803  0.5375  0.1904 -1.3267
 4169TIP3    H234067   2.750   0.655   7.839  0.8961  0.7424  1.4203
 4170TIP3   OH234068   0.351   0.463   7.931 -0.0949 -0.1234 -0.2497
 4170TIP3    H134069   0.436   0.448   7.973 -0.6579 -1.4225  0.4728
 4170TIP3    H234070   0.343   0.558   7.928  1.0066  0.0132  0.4541
 4171TIP3   OH234071   2.066   1.160   0.394 -0.0086  0.5551  0.2612
 4171TIP3    H134072   1.972   1.165   0.405  0.0177 -0.1463  0.8010
 4171TIP3    H234073   2.078   1.110   0.313 -0.0889 -0.4417  0.8503
 4172TIP3   OH234074   6.190   3.975   0.620  0.3080  0.0230 -0.0579
 4172TIP3    H134075   6.118   4.017   0.667  0.3152 -0.9653  0.8888
 4172TIP3    H234076   6.146   3.918   0.556  0.2844  0.4589 -0.4397
 4173TIP3   OH234077   3.013   3.926   2.887  0.1707  0.1420 -0.0814
 4173TIP3    H134078   2.983   3.860   2.948  0.2031 -0.0135 -0.2315
 4173TIP3    H234079   3.101   3.950   2.918 -0.5337  1.4054  1.0034
 4174TIP3   OH234080   0.933   0.130   7.135  0.4893 -0.2527 -0.0531
 4174TIP3    H134081   0.881   0.208   7.155  1.8195  0.4313  0.8909
 4174TIP3    H234082   0.976   0.151   7.053 -0.5370 -0.7382 -0.7312
 4175TIP3   OH234083   3.566   3.587   1.871 -0.4349 -0.1238  0.1011
 4175TIP3    H134084   3.550   3.682   1.872  2.7487  0.5257  1.1753
 4175TIP3    H234085   3.527   3.556   1.953 -0.6531  0.4144  0.2107
 4176TIP3   OH234086   6.865   1.252   7.313  0.1275 -0.2495 -0.6736
 4176TIP3    H134087   6.948   1.273   7.355 -0.5288 -1.6771  1.5220
 4176TIP3    H234088   6.799   1.271   7.379 -1.5543  2.3996 -2.8986
 4177TIP3   OH234089   6.729   4.997   7.779  0.1049 -0.0470 -0.2589
 4177TIP3    H134090   6.642   5.034   7.766  0.0119 -0.3049 -0.3721
 4177TIP3    H234091   6.729   4.969   7.871 -0.2510 -0.8783 -0.5061
 4178TIP3   OH234092   6.310   1.534   7.222 -0.3106  0.1475  0.5032
 4178TIP3    H134093   6.381   1.592   7.194 -0.1401 -1.2918 -2.3913
 4178TIP3    H234094   6.354   1.454   7.250 -0.6788  0.5009  2.2288
 4179TIP3   OH234095   2.751   4.343   8.434  0.0324  0.1860 -0.4240
 4179TIP3    H134096   2.731   4.408   8.502  0.2977 -0.9042  0.7363
 4179TIP3    H234097   2.843   4.321   8.449 -0.1961 -0.8314 -0.4674
 4180TIP3   OH234098   2.493   1.595   7.884  0.2441 -0.0719  0.3849
 4180TIP3    H134099   2.445   1.569   7.805 -1.1509 -1.1968  1.5354
 4180TIP3    H234100   2.577   1.626   7.852  0.4656 -2.2755 -1.4173
 4181TIP3   OH234101   4.280   4.935   7.693  0.8144 -0.1184  0.1206
 4181TIP3    H134102   4.224   4.979   7.628  2.1040 -0.3546 -1.2210
 4181TIP3    H234103   4.322   4.864   7.644  1.4608 -0.6182  1.3563
 4182TIP3   OH234104   0.653   5.708   0.898  0.1440  0.2908  0.2245
 4182TIP3    H134105   0.603   5.663   0.830  1.8441 -1.0750 -0.1971
 4182TIP3    H234106   0.726   5.749   0.851  1.8519 -1.4231  1.2439
 4183TIP3   OH234107   6.847   2.481   8.466  0.5412 -0.3131 -0.2400
 4183TIP3    H134108   6.885   2.506   8.382 -0.9022  0.0982 -0.8030
 4183TIP3    H234109   6.863   2.386   8.471  0.7203 -0.3308 -0.9417
 4184TIP3   OH234110   6.639   4.216   8.234 -0.0956 -0.1776 -0.2770
 4184TIP3    H134111   6.668   4.125   8.224 -1.5471 -0.6669 -0.2586
 4184TIP3    H234112   6.707   4.268   8.191  1.4805 -1.1487  0.9204
 4185TIP3   OH234113   6.473   5.277   2.654  0.2158 -0.5409 -0.3904
 4185TIP3    H134114   6.467   5.186   2.625 -0.1158 -0.8121  0.5169
 4185TIP3    H234115   6.386   5.314   2.635  1.0092  0.2845 -2.9354
 4186TIP3   OH234116   0.346   5.764   0.775  0.0703 -0.6098  0.8126
 4186TIP3    H134117   0.285   5.825   0.815 -0.0633 -1.0660  1.3151
 4186TIP3    H234118   0.398   5.817   0.715  0.1028  0.0370  1.4039
 4187TIP3   OH234119   0.033   6.557   6.645  0.2063 -0.5258 -0.7228
 4187TIP3    H134120  -0.005   6.612   6.576  0.3497  0.2938 -0.1525
 4187TIP3    H234121   0.021   6.468   6.612 -2.0109 -0.3047 -0.6723
 4188TIP3   OH234122   3.772   5.918   1.880  0.0427 -0.1856 -0.3542
 4188TIP3    H134123   3.710   5.861   1.836  0.3504  0.1971 -1.3187
 4188TIP3    H234124   3.811   5.864   1.949 -1.3169 -0.4313  0.2443
 4189TIP3   OH234125   3.374   6.028   2.219 -0.0449  0.2786  0.3017
 4189TIP3    H134126   3.347   6.101   2.163 -0.1001 -0.3462 -0.5006
 4189TIP3    H234127   3.383   5.954   2.159 -0.5240 -0.5144  1.1966
 4190TIP3   OH234128   0.268   3.261   2.043 -0.2304  0.0002  0.9059
 4190TIP3    H134129   0.240   3.331   2.101 -0.5722  1.6973 -1.1997
 4190TIP3    H234130   0.224   3.183   2.078 -2.2656  1.3638  1.6132
 4191TIP3   OH234131   2.287   1.747   1.695 -0.2262  0.1456 -0.4195
 4191TIP3    H134132   2.346   1.695   1.640 -0.1685 -0.3177  0.0809
 4191TIP3    H234133   2.245   1.684   1.753 -1.9019  0.3441 -1.3517
 4192TIP3   OH234134   0.943   6.096   2.336 -0.2703  0.2511 -0.2824
 4192TIP3    H134135   0.914   6.077   2.425  4.3645  1.5522  1.8078
 4192TIP3    H234136   0.900   6.178   2.313 -1.0956  0.1905  0.9670
 4193TIP3   OH234137   2.698   0.154   8.452 -0.0210 -0.2449 -0.0761
 4193TIP3    H134138   2.629   0.091   8.473  0.8349 -0.6521  1.6491
 4193TIP3    H234139   2.662   0.238   8.482  0.1634 -0.4357  0.7007
 4194TIP3   OH234140   4.851   2.989   8.611 -0.0866  0.4679  0.5656
 4194TIP3    H134141   4.787   2.938   8.660 -0.7729  0.4417 -0.3355
 4194TIP3    H234142   4.888   3.049   8.676 -1.4337  0.8752  0.9957
 4195TIP3   OH234143   1.928   2.555   0.815  0.0965  0.2846  0.0879
 4195TIP3    H134144   1.916   2.466   0.848  1.2351  1.4223  4.1864
 4195TIP3    H234145   1.851   2.603   0.846 -0.9441  0.7047 -2.8169
 4196TIP3   OH234146   0.869   4.167   8.310 -0.0672 -0.0828  0.5129
 4196TIP3    H134147   0.833   4.203   8.391  0.1317 -0.1667  0.6415
 4196TIP3    H234148   0.964   4.165   8.326 -0.0324 -0.1432  0.2960
 4197TIP3   OH234149   4.083   2.467   1.494 -0.2056  0.0853  0.0556
 4197TIP3    H134150   4.143   2.540   1.511 -1.4153  0.8788  1.0766
 4197TIP3    H234151   4.016   2.505   1.437  0.0807 -0.7177 -0.8386
 4198TIP3   OH234152   4.230   5.114   7.952  0.4489  0.2398  0.0454
 4198TIP3    H134153   4.260   5.084   7.866  0.0439  3.7662 -1.4666
 4198TIP3    H234154   4.137   5.091   7.955  1.1715 -3.2198  1.2736
 4199TIP3   OH234155   1.067   3.378   7.011 -0.2543  0.0489  0.1907
 4199TIP3    H134156   0.989   3.329   7.035 -0.5585  0.3618 -0.1354
 4199TIP3    H234157   1.055   3.464   7.051  0.1332 -0.0455  0.5108
 4200TIP3   OH234158   3.942   0.579   8.309  0.2949 -0.4220  0.1130
 4200TIP3    H134159   3.927   0.534   8.392 -0.7808 -1.1559 -0.4626
 4200TIP3    H234160   3.869   0.641   8.301 -0.1170 -0.9840 -0.6854
 4201TIP3   OH234161   4.179   1.439   1.333  0.0759  0.7199  0.3249
 4201TIP3    H134162   4.113   1.489   1.285 -2.1919 -2.9259 -0.7725
 4201TIP3    H234163   4.247   1.421   1.268 -0.2221  0.4804  0.0788
 4202TIP3   OH234164   1.659   4.696   6.992 -0.2093  0.0800 -0.3400
 4202TIP3    H134165   1.632   4.783   7.023 -1.4403 -0.6843  0.9016
 4202TIP3    H234166   1.754   4.700   6.988 -0.2941  2.2110 -2.6586
 4203TIP3   OH234167   1.028   1.870   6.939  0.1110  0.1014  0.1129
 4203TIP3    H134168   1.014   1.805   6.870 -0.5820  1.9579 -1.6098
 4203TIP3    H234169   0.940   1.904   6.958  0.2381 -0.5929  2.2089
 4204TIP3   OH234170   3.919   3.459   7.571 -0.2220  0.5010 -0.4735
 4204TIP3    H134171   3.861   3.394   7.530 -0.8186 -0.3710  1.6254
 4204TIP3    H234172   3.972   3.493   7.498 -0.1260 -2.0689 -1.7245
 4205TIP3   OH234173   3.885   2.897   1.072  0.0175  0.9565 -0.0663
 4205TIP3    H134174   3.828   2.882   1.147  0.3086 -0.8959 -0.1609
 4205TIP3    H234175   3.965   2.934   1.110 -0.6365  2.0633  0.2574
 4206TIP3   OH234176   6.099   0.573   8.622  0.0272  0.0422  0.4175
 4206TIP3    H134177   6.083   0.487   8.582 -0.4225  0.7673 -1.0008
 4206TIP3    H234178   6.178   0.605   8.577  0.6927  0.0317  1.5409
 4207TIP3   OH234179   0.629   4.216   1.200  0.4913 -0.1290 -0.7109
 4207TIP3    H134180   0.680   4.213   1.282  0.3978  0.8885 -0.6020
 4207TIP3    H234181   0.576   4.136   1.202  0.4655 -0.1016  0.2432
 4208TIP3   OH234182   1.583   4.059   0.951  0.3654  0.6350 -0.0146
 4208TIP3    H134183   1.615   3.971   0.928 -0.6142  0.5628 -1.1955
 4208TIP3    H234184   1.560   4.053   1.043  0.0111 -0.4467 -0.1597
 4209TIP3   OH234185   1.897   3.538   8.626 -0.0427 -0.5103  0.3724
 4209TIP3    H134186   1.963   3.539   8.694  0.1342 -0.5760  0.2026
 4209TIP3    H234187   1.944   3.511   8.547 -0.5195 -1.8169  0.5041
 4210TIP3   OH234188   0.689   6.499   8.520  0.0976 -0.1888 -0.5831
 4210TIP3    H134189   0.602   6.472   8.491  0.2557 -1.1030 -0.2179
 4210TIP3    H234190   0.677   6.523   8.612  0.0779  0.4507 -0.7453
 4211TIP3   OH234191   1.713   3.176   0.498 -0.0040  0.0749 -0.4448
 4211TIP3    H134192   1.803   3.142   0.503 -0.1258 -0.3686 -1.1344
 4211TIP3    H234193   1.706   3.237   0.572  0.5339 -0.6668  0.2313
 4212TIP3   OH234194   5.811   0.654   6.964 -0.1528  0.0999 -0.3727
 4212TIP3    H134195   5.750   0.617   6.901 -0.7839  1.3927 -0.5404
 4212TIP3    H234196   5.864   0.715   6.913  2.6565 -2.3562 -0.6763
 4213TIP3   OH234197   3.606   2.938   1.578 -0.4266 -0.4915  0.0604
 4213TIP3    H134198   3.596   2.857   1.627 -1.5646 -0.5178 -0.1962
 4213TIP3    H234199   3.560   3.004   1.629  1.5737  0.3179  0.9432
 4214TIP3   OH234200   4.882   3.920   2.181  0.8310 -0.3753  0.1545
 4214TIP3    H134201   4.963   3.971   2.178  1.5837 -1.4621  1.3397
 4214TIP3    H234202   4.897   3.854   2.248 -1.1269 -0.4832  0.5386
 4215TIP3   OH234203   1.804   3.985   7.665 -0.1637 -0.0123 -1.0095
 4215TIP3    H134204   1.791   3.974   7.570 -0.1678  0.9934 -1.1461
 4215TIP3    H234205   1.882   3.934   7.685 -0.0411 -0.0671 -1.6030
 4216TIP3   OH234206   5.453   5.983   0.102 -0.4167  0.0726 -0.2104
 4216TIP3    H134207   5.473   5.938   0.020  1.0495  0.2502  0.0132
 4216TIP3    H234208   5.447   6.076   0.077 -0.6460  0.0505 -0.2321
 4217TIP3   OH234209   0.680   6.709   7.353  0.5791 -0.3457  0.1649
 4217TIP3    H134210   0.633   6.760   7.286  3.0968  1.4254 -0.3976
 4217TIP3    H234211   0.652   6.747   7.436  0.4143  0.1502 -0.1116
 4218TIP3   OH234212   0.377   6.257   8.009  0.0202 -0.3423  0.4284
 4218TIP3    H134213   0.349   6.227   7.922  0.7541 -1.4160  0.5362
 4218TIP3    H234214   0.351   6.349   8.012 -0.3813 -0.3937 -0.7767
 4219TIP3   OH234215   3.337   6.369   7.613 -0.2661  0.0947 -0.3921
 4219TIP3    H134216   3.380   6.290   7.644  0.6061  0.9698  0.6903
 4219TIP3    H234217   3.338   6.361   7.518 -0.1623 -1.1666 -0.3001
 4220TIP3   OH234218   5.258   1.847   2.528 -0.5943 -0.0386 -0.7563
 4220TIP3    H134219   5.266   1.753   2.513 -0.5067 -0.0617 -0.5718
 4220TIP3    H234220   5.281   1.887   2.444  1.5609 -0.0954 -0.2619
 4221TIP3   OH234221   0.478   6.528   0.731  0.4914  0.3523  0.1500
 4221TIP3    H134222   0.446   6.508   0.644  1.4081 -2.1823  0.3125
 4221TIP3    H234223   0.405   6.573   0.774 -0.5318  0.2391 -1.4073
 4222TIP3   OH234224   0.420   5.822   8.114 -0.2931  0.1936  0.1081
 4222TIP3    H134225   0.346   5.868   8.074  0.2116 -0.5492 -1.7621
 4222TIP3    H234226   0.476   5.892   8.147 -1.5060  0.7827  1.0033
 4223TIP3   OH234227   1.886   2.223   2.419  0.1151  0.3665 -0.0174
 4223TIP3    H134228   1.846   2.225   2.506 -1.0430 -0.3915 -0.5052
 4223TIP3    H234229   1.928   2.309   2.410 -1.6598  1.3373  0.4252
 4224TIP3   OH234230   4.795   0.616   1.379  0.2363 -0.0533  0.6574
 4224TIP3    H134231   4.879   0.657   1.403  1.5226 -1.7043 -0.8047
 4224TIP3    H234232   4.766   0.665   1.302  0.8676 -0.7235 -0.0153
 4225TIP3   OH234233   1.302   1.496   1.706  0.3235 -0.0441 -0.6625
 4225TIP3    H134234   1.225   1.495   1.649 -0.2318 -1.4961  0.0599
 4225TIP3    H234235   1.355   1.422   1.677  1.0338  0.4168 -0.5797
 4226TIP3   OH234236   3.267   2.171   1.097 -0.2838  0.6333 -0.1457
 4226TIP3    H134237   3.297   2.249   1.144 -2.1951  1.1386  0.3451
 4226TIP3    H234238   3.198   2.135   1.153  1.3484 -2.1819  0.2604
 4227TIP3   OH234239   5.483   0.417   8.547 -0.1622 -0.1026 -0.3708
 4227TIP3    H134240   5.448   0.503   8.571 -2.3021 -0.2907 -2.4024
 4227TIP3    H234241   5.517   0.381   8.629 -1.0126  1.8571  0.9279
 4228TIP3   OH234242   3.338   5.343   7.315 -0.3857 -0.0320 -0.6857
 4228TIP3    H134243   3.378   5.291   7.245  0.0355  1.6224 -1.7451
 4228TIP3    H234244   3.244   5.338   7.298 -0.3683 -0.6075 -0.6443
 4229TIP3   OH234245   2.499   1.051   8.306 -0.4215  0.6980  0.2654
 4229TIP3    H134246   2.471   1.075   8.394  0.0491  1.1110  0.3095
 4229TIP3    H234247   2.474   0.959   8.296 -1.8773  1.0839  0.2531
 4230TIP3   OH234248   0.470   1.076   7.410  0.3543  0.0399 -0.2193
 4230TIP3    H134249   0.547   1.026   7.384 -0.7144 -0.8837 -1.7958
 4230TIP3    H234250   0.456   1.054   7.502  1.5115 -0.3941 -0.1404
 4231TIP3   OH234251   2.468   4.642   0.463  0.1863 -0.0218  0.0961
 4231TIP3    H134252   2.475   4.680   0.551 -2.7232  1.7947 -0.3403
 4231TIP3    H234253   2.470   4.717   0.404 -0.4869 -0.9818 -1.1953
 4232TIP3   OH234254   3.305   4.717   1.800  0.0500  0.1132 -0.2890
 4232TIP3    H134255   3.224   4.732   1.849 -0.4378 -2.3857 -0.1761
 4232TIP3    H234256   3.280   4.653   1.733  1.9308 -0.8176 -0.1625
 4233TIP3   OH234257   1.234   4.763   1.431 -0.7982 -1.0354 -0.4012
 4233TIP3    H134258   1.165   4.697   1.434 -2.7698  0.6229 -3.8374
 4233TIP3    H234259   1.190   4.845   1.455  0.3531 -0.1671 -1.1429
 4234TIP3   OH234260   2.585   2.856   0.325  0.6642  0.0763 -0.7602
 4234TIP3    H134261   2.654   2.898   0.375 -0.3672 -0.3717  1.1400
 4234TIP3    H234262   2.628   2.784   0.279  1.5511  0.1912 -0.1142
 4235TIP3   OH234263   1.680   1.395   0.700 -0.0153 -0.3177 -0.6278
 4235TIP3    H134264   1.771   1.424   0.711 -0.5100  0.9027  0.5085
 4235TIP3    H234265   1.630   1.476   0.695 -1.2637 -0.9341  0.9014
 4236TIP3   OH234266   4.211   6.500   1.930 -0.5046  0.0992  0.2262
 4236TIP3    H134267   4.282   6.480   1.869 -2.2541 -2.7134 -1.1297
 4236TIP3    H234268   4.142   6.536   1.874 -1.4281 -0.6557  0.8444
 4237TIP3   OH234269   0.445   5.146   0.692  0.1056 -0.0048 -0.2122
 4237TIP3    H134270   0.357   5.164   0.727 -0.0630  0.7739 -1.0328
 4237TIP3    H234271   0.503   5.161   0.767 -0.4470 -0.4982  0.3338
 4238TIP3   OH234272   4.488   5.707   2.613  0.4449  0.3807  0.2802
 4238TIP3    H134273   4.455   5.796   2.626 -1.9706 -0.2501 -0.9461
 4238TIP3    H234274   4.531   5.710   2.527 -1.6980 -0.0789 -0.8862
 4239TIP3   OH234275   6.048   3.888   6.724  0.3524 -0.0455 -0.4104
 4239TIP3    H134276   6.020   3.978   6.706 -0.5497  0.4685  2.8423
 4239TIP3    H234277   6.133   3.897   6.767  1.2684 -0.9649 -1.9301
 4240TIP3   OH234278   4.681   3.658   2.224  0.0999 -0.0448  0.0170
 4240TIP3    H134279   4.758   3.638   2.171  1.5233  1.0756  1.5438
 4240TIP3    H234280   4.699   3.618   2.309 -1.1457 -0.0167  0.3139
 4241TIP3   OH234281   2.134   4.139   7.743  0.4002  0.5652 -0.3286
 4241TIP3    H134282   2.099   4.053   7.719  0.9767  0.6640 -1.6013
 4241TIP3    H234283   2.070   4.201   7.708 -1.1678  0.6844  2.4592
 4242TIP3   OH234284   0.165   4.052   7.681  0.4945  0.1185  0.3783
 4242TIP3    H134285   0.243   4.046   7.737  0.4338  0.1536  0.4677
 4242TIP3    H234286   0.097   4.006   7.731  0.7030 -0.7683 -0.1388
 4243TIP3   OH234287   5.471   0.320   8.010 -0.4412 -0.4389 -0.5700
 4243TIP3    H134288   5.493   0.229   8.030  0.9927  0.0760  0.3983
 4243TIP3    H234289   5.462   0.362   8.096 -1.9151  0.1745 -0.9851
 4244TIP3   OH234290   3.891   0.252   7.527 -0.4345  0.3942 -0.3873
 4244TIP3    H134291   3.950   0.263   7.601  0.1027 -2.1648 -0.3314
 4244TIP3    H234292   3.915   0.321   7.466  0.1603  1.5955  1.1388
 4245TIP3   OH234293   4.185   2.844   7.623 -0.6367  0.0006  0.1938
 4245TIP3    H134294   4.101   2.823   7.583 -0.3575 -0.0973 -0.3495
 4245TIP3    H234295   4.250   2.806   7.565 -0.1652  1.2334 -0.1156
 4246TIP3   OH234296   1.624   6.656   2.074 -0.0653 -0.0880  0.0467
 4246TIP3    H134297   1.568   6.654   2.152  0.9784  0.7006  0.8515
 4246TIP3    H234298   1.608   6.742   2.035  0.4295  0.0729  0.1852
 4247TIP3   OH234299   2.950   1.106   7.447 -0.3796  0.1954 -0.2110
 4247TIP3    H134300   2.920   1.138   7.531 -0.6695 -0.9977  0.1542
 4247TIP3    H234301   3.044   1.127   7.445  0.2122 -1.9349  1.5040
 4248TIP3   OH234302   4.409   0.969   0.246  0.3443 -0.2487 -1.0942
 4248TIP3    H134303   4.408   1.065   0.236 -0.4240 -0.2562 -1.0972
 4248TIP3    H234304   4.503   0.947   0.250  0.5683  0.7890  1.6004
 4249TIP3   OH234305   6.883   0.088   1.592  0.2412 -0.5773 -0.5760
 4249TIP3    H134306   6.878   0.158   1.527  1.3464 -0.5104 -0.6149
 4249TIP3    H234307   6.802   0.039   1.581 -1.8963  2.2217  1.2451
 4250TIP3   OH234308   4.998   4.469   2.486  0.2734  0.2038 -0.4004
 4250TIP3    H134309   5.039   4.555   2.480  0.5204  0.0440 -1.1995
 4250TIP3    H234310   4.932   4.478   2.554 -0.9425  1.5578 -1.6810
 4251TIP3   OH234311   5.567   3.411   8.126  0.7866  0.3483 -0.0493
 4251TIP3    H134312   5.506   3.350   8.167  1.7728 -1.9104 -1.7383
 4251TIP3    H234313   5.512   3.469   8.074 -0.0032 -2.1671 -2.2284
 4252TIP3   OH234314   4.115   6.894   8.247  0.0248 -0.0030 -0.4720
 4252TIP3    H134315   4.084   6.816   8.293  0.0167 -0.6057 -1.4700
 4252TIP3    H234316   4.162   6.944   8.314 -0.5864 -0.5042  0.3551
 4253TIP3   OH234317   2.672   5.525   8.610 -0.0112  0.0590 -0.1130
 4253TIP3    H134318   2.714   5.455   8.562 -1.0119 -1.0418  0.5640
 4253TIP3    H234319   2.583   5.528   8.576  0.0856  1.1982 -0.3225
 4254TIP3   OH234320   3.590   2.733   6.562 -0.7759 -0.0462 -0.7609
 4254TIP3    H134321   3.558   2.646   6.537  2.3803 -1.3828 -0.7290
 4254TIP3    H234322   3.592   2.731   6.658 -1.8297  0.5545 -0.7171
 4255TIP3   OH234323   2.929   0.876   2.211 -0.2522  0.0477 -0.4267
 4255TIP3    H134324   3.006   0.904   2.261 -0.6539 -1.0951  0.8706
 4255TIP3    H234325   2.955   0.889   2.120  1.3394  0.0833 -0.0076
 4256TIP3   OH234326   6.897   5.036   7.235 -0.1205  0.2076 -0.8129
 4256TIP3    H134327   6.942   4.962   7.276 -0.7038 -0.2164 -0.9149
 4256TIP3    H234328   6.804   5.019   7.251 -0.2843  0.6968 -1.2120
 4257TIP3   OH234329   0.589   6.816   0.076 -0.1602 -0.0707 -0.2325
 4257TIP3    H134330   0.682   6.796   0.087 -0.0263  1.7202  2.7743
 4257TIP3    H234331   0.555   6.824   0.165 -2.5658  2.1078 -1.2222
 4258TIP3   OH234332   5.928   1.806   0.057 -0.3739  0.0536  0.1631
 4258TIP3    H134333   5.989   1.836  -0.011  0.1536  0.1337  0.6636
 4258TIP3    H234334   5.848   1.784   0.009 -0.1423  0.4865 -0.4351
 4259TIP3   OH234335   6.282   5.978   6.960  0.0311 -0.1750  0.5451
 4259TIP3    H134336   6.289   6.072   6.971  0.6648 -0.1510  0.0195
 4259TIP3    H234337   6.234   5.966   6.878  1.6532 -0.2688 -0.4417
 4260TIP3   OH234338   2.025   5.918   1.965  0.2858 -0.4296  0.1430
 4260TIP3    H134339   1.973   5.878   2.035  0.7689  0.8974  1.2861
 4260TIP3    H234340   1.983   6.002   1.948  1.3218  0.1222  0.2277
 4261TIP3   OH234341   2.945   5.825   7.613 -0.4019 -0.2146  0.3055
 4261TIP3    H134342   3.013   5.872   7.662 -1.1025 -0.4935  1.6097
 4261TIP3    H234343   2.895   5.894   7.569  0.6448 -0.0030 -0.6005
 4262TIP3   OH234344   4.093   6.869   7.299  0.4020  0.2039  0.1985
 4262TIP3    H134345   4.121   6.956   7.329  0.3427  0.4555 -0.4729
 4262TIP3    H234346   4.040   6.886   7.222  0.0361 -0.4070  0.3102
 4263TIP3   OH234347   6.480   2.790   7.357 -0.4779  0.2277  0.3127
 4263TIP3    H134348   6.418   2.735   7.309  2.7227 -1.7882 -1.8593
 4263TIP3    H234349   6.444   2.793   7.446 -3.6643 -0.7046 -0.7853
 4264TIP3   OH234350   5.567   3.795   0.041  0.2711 -0.5931 -0.5624
 4264TIP3    H134351   5.526   3.787   0.127  0.4128 -2.7108 -0.6481
 4264TIP3    H234352   5.520   3.867  -0.001  0.4415  0.7559  1.3764
 4265TIP3   OH234353   4.372   1.968   0.093 -0.0321 -0.0389  0.0420
 4265TIP3    H134354   4.387   1.876   0.075  0.7183  0.3713 -1.6457
 4265TIP3    H234355   4.421   1.985   0.174  0.7622 -0.8684 -0.2511
 4266TIP3   OH234356   1.016   4.473   0.929  0.5079 -0.7170 -0.2600
 4266TIP3    H134357   1.070   4.420   0.988 -0.3326 -1.8541 -0.4813
 4266TIP3    H234358   1.031   4.435   0.842 -2.0782 -2.3551 -0.0918
 4267TIP3   OH234359   6.597   3.327   1.943  0.0719  0.4460  0.1397
 4267TIP3    H134360   6.520   3.278   1.916  0.4907 -0.2751  0.2348
 4267TIP3    H234361   6.562   3.403   1.991 -0.6157  0.8625 -0.9925
 4268TIP3   OH234362   3.879   3.950   1.583  0.0265  0.2341  0.1984
 4268TIP3    H134363   3.802   3.898   1.562  1.7564 -2.0223 -1.0727
 4268TIP3    H234364   3.882   4.018   1.516 -0.7579  0.2379  0.1637
 4269TIP3   OH234365   6.703   0.244   0.237 -0.1022  0.6243 -0.4265
 4269TIP3    H134366   6.679   0.328   0.198  0.9662  1.5611  0.8729
 4269TIP3    H234367   6.796   0.251   0.257  0.0467 -0.9266 -0.4060
 4270TIP3   OH234368   3.730   4.139   2.357 -0.0013  0.1367  0.0042
 4270TIP3    H134369   3.726   4.137   2.453 -2.0989 -2.3140 -0.0311
 4270TIP3    H234370   3.812   4.186   2.338 -0.3543  2.2068  2.9099
 4271TIP3   OH234371   5.488   6.373   0.926 -0.4051 -0.0707 -0.3591
 4271TIP3    H134372   5.547   6.344   0.995 -2.1286  2.7665  2.5630
 4271TIP3    H234373   5.411   6.317   0.935 -1.1110  1.0568  0.9162
 4272TIP3   OH234374   3.086   2.715   6.558 -0.0861  0.1198  0.2091
 4272TIP3    H134375   3.044   2.630   6.544  1.0631 -0.9758  2.6733
 4272TIP3    H234376   3.020   2.779   6.533 -2.5667 -1.5093  2.0820
 4273TIP3   OH234377   1.071   5.676   1.220 -0.4712 -0.1024 -0.3268
 4273TIP3    H134378   1.136   5.635   1.277 -1.7899 -0.6966  0.8195
 4273TIP3    H234379   1.024   5.602   1.181  0.4639  0.2865 -2.3284
 4274TIP3   OH234380   3.386   0.634   7.310  0.6344 -0.5499 -0.5064
 4274TIP3    H134381   3.386   0.698   7.239  0.8048 -0.5630 -0.5182
 4274TIP3    H234382   3.296   0.601   7.312  0.2820  0.3990  0.1430
 4275TIP3   OH234383   1.845   0.988   7.260  0.4341  0.0007 -0.3999
 4275TIP3    H134384   1.907   0.939   7.315  1.4655  0.8140 -0.7951
 4275TIP3    H234385   1.830   0.932   7.185 -1.5326 -1.4382  0.9724
 4276TIP3   OH234386   2.631   6.773   1.427 -0.0187  0.0624  0.1979
 4276TIP3    H134387   2.685   6.832   1.479  0.2617  2.0048 -2.1121
 4276TIP3    H234388   2.653   6.685   1.460  2.3096  0.9728  1.3258
 4277TIP3   OH234389   1.479   2.979   1.880  0.2658 -0.4802  0.2413
 4277TIP3    H134390   1.571   2.985   1.907  0.6259 -0.3522 -0.9814
 4277TIP3    H234391   1.457   2.887   1.893  0.8094 -0.6772 -0.1888
 4278TIP3   OH234392   5.116   0.924   2.554 -0.0770  0.3664  0.1992
 4278TIP3    H134393   5.208   0.944   2.534 -0.3437  1.3859 -0.0572
 4278TIP3    H234394   5.120   0.878   2.638  0.7756 -0.8183 -0.4607
 4279TIP3   OH234395   0.571   3.533   1.219 -0.0009  0.1297  0.0445
 4279TIP3    H134396   0.551   3.448   1.258  0.8606 -0.0798  0.0382
 4279TIP3    H234397   0.542   3.597   1.284 -0.2847 -0.1731  0.2197
 4280TIP3   OH234398   3.115   5.349   2.713 -0.2359 -0.3326 -1.1862
 4280TIP3    H134399   3.200   5.391   2.726 -0.6159  0.0480  0.2919
 4280TIP3    H234400   3.086   5.382   2.628  0.6974  0.2415 -1.3065
 4281TIP3   OH234401   6.480   1.748   7.472 -0.6958  0.1586  0.0557
 4281TIP3    H134402   6.544   1.677   7.469 -0.2784  0.5547 -0.4832
 4281TIP3    H234403   6.474   1.770   7.565 -0.5771 -0.3599  0.1885
 4282TIP3   OH234404   5.610   2.232   7.513 -0.2789  0.3554  0.0506
 4282TIP3    H134405   5.609   2.221   7.417 -0.3289 -0.9499  0.1830
 4282TIP3    H234406   5.517   2.230   7.537 -0.2781  0.9319  0.1064
 4283TIP3   OH234407   1.381   6.370   0.267  0.5234 -0.1395  0.0521
 4283TIP3    H134408   1.319   6.431   0.226  1.7748  0.1287 -1.5456
 4283TIP3    H234409   1.333   6.288   0.274 -0.3023  0.2989 -0.3004
 4284TIP3   OH234410   3.730   3.402   1.699 -0.8936 -0.2391 -0.7391
 4284TIP3    H134411   3.709   3.477   1.755 -0.9129  0.3409 -1.5141
 4284TIP3    H234412   3.657   3.342   1.712 -0.3803 -0.5981  0.6756
 4285TIP3   OH234413   5.628   2.566   1.475  0.0192 -0.9709  0.0774
 4285TIP3    H134414   5.657   2.638   1.419 -1.8124 -1.4567 -1.5544
 4285TIP3    H234415   5.685   2.492   1.451 -0.8875 -1.2366 -1.3420
 4286TIP3   OH234416   2.057   4.909   1.691  0.5056 -0.4302  0.5018
 4286TIP3    H134417   1.986   4.972   1.694 -0.6573 -1.6721 -0.1195
 4286TIP3    H234418   2.134   4.961   1.669 -0.3315  0.8292  0.4560
 4287TIP3   OH234419   1.014   2.682   8.275  1.0142 -0.0971  0.5941
 4287TIP3    H134420   1.011   2.638   8.190  0.1792  0.8516  0.1067
 4287TIP3    H234421   1.050   2.768   8.257 -1.8192  1.2190  0.6268
 4288TIP3   OH234422   3.392   6.774   8.214  0.1052  0.2633  0.1239
 4288TIP3    H134423   3.484   6.776   8.241 -0.0400  1.5380  0.6053
 4288TIP3    H234424   3.372   6.865   8.193 -0.4822 -0.3035 -1.9768
 4289TIP3   OH234425   0.535   4.732   8.330 -0.5366  0.2734 -0.1534
 4289TIP3    H134426   0.447   4.732   8.294 -0.2774  1.1337 -0.8411
 4289TIP3    H234427   0.571   4.817   8.304 -0.1662  0.7466  1.7549
 4290TIP3   OH234428   2.811   0.267   2.172  0.3316 -0.0064  0.0943
 4290TIP3    H134429   2.897   0.309   2.173  0.2813  0.4306 -3.4289
 4290TIP3    H234430   2.751   0.335   2.203  1.0853 -0.1454  2.0540
 4291TIP3   OH234431   5.031   1.687   0.307  0.2217  0.5887 -0.2089
 4291TIP3    H134432   4.968   1.755   0.282 -1.4231 -1.0312 -0.7291
 4291TIP3    H234433   5.078   1.668   0.226  0.5974  1.0175 -0.0925
 4292TIP3   OH234434   5.522   6.687   2.245  0.2431 -0.1352  0.2497
 4292TIP3    H134435   5.572   6.759   2.283  1.0739 -2.0065  2.9914
 4292TIP3    H234436   5.580   6.611   2.252 -1.3433 -1.4879 -0.6168
 4293TIP3   OH234437   1.092   5.152   2.228  0.1253  0.0835 -0.0538
 4293TIP3    H134438   1.026   5.221   2.235 -0.6410 -0.7470  1.3729
 4293TIP3    H234439   1.175   5.197   2.239 -0.2440  1.0010 -0.8454
 4294TIP3   OH234440   4.510   6.180   7.387 -0.3927 -0.5627  0.0913
 4294TIP3    H134441   4.443   6.245   7.410 -0.1814 -0.3947  0.2489
 4294TIP3    H234442   4.593   6.224   7.409 -0.1811 -0.4168 -0.9645
 4295TIP3   OH234443   2.306   1.784   7.603 -0.3798 -0.8684 -0.4197
 4295TIP3    H134444   2.325   1.696   7.638 -0.6388 -1.4424 -1.6605
 4295TIP3    H234445   2.387   1.809   7.558  0.2876  0.2678  1.2897
 4296TIP3   OH234446   1.152   0.708   0.984  0.2185  0.7253 -0.1258
 4296TIP3    H134447   1.192   0.679   0.902 -3.6458 -1.7363 -1.3833
 4296TIP3    H234448   1.114   0.793   0.963 -0.6437  0.1664 -0.9084
 4297TIP3   OH234449   4.446   5.139   0.973  0.0313 -0.6892  0.4628
 4297TIP3    H134450   4.358   5.109   0.997  0.1961 -1.2902  0.3290
 4297TIP3    H234451   4.492   5.060   0.945  0.4176 -0.2843 -0.0836
 4298TIP3   OH234452   3.648   4.330   1.611 -0.1369 -0.6780  0.2570
 4298TIP3    H134453   3.692   4.404   1.569 -2.4902  1.8623  1.8507
 4298TIP3    H234454   3.717   4.286   1.661  1.6401 -0.5727 -1.9426
 4299TIP3   OH234455   3.762   4.778   0.462 -0.0423 -0.1894 -0.4836
 4299TIP3    H134456   3.823   4.737   0.401 -0.2964  1.1000 -1.6647
 4299TIP3    H234457   3.717   4.844   0.410 -2.4547 -1.0652  0.3482
 4300TIP3   OH234458   4.914   3.503   0.892 -0.3513  0.0677 -0.0439
 4300TIP3    H134459   4.897   3.462   0.977  1.9567  2.6766  1.8562
 4300TIP3    H234460   4.887   3.594   0.903  1.9437  0.9905 -1.3033
 4301TIP3   OH234461   4.114   5.937   8.174  0.1533  0.6219 -0.2002
 4301TIP3    H134462   4.163   5.916   8.094  1.7152  2.2728  0.2547
 4301TIP3    H234463   4.073   5.854   8.199  0.6294 -0.2227 -2.0208
 4302TIP3   OH234464   4.282   5.505   7.048  0.3456 -0.2742  0.1900
 4302TIP3    H134465   4.290   5.417   7.084 -0.5083  0.0859  1.3504
 4302TIP3    H234466   4.207   5.500   6.989  1.9579 -0.9513 -1.9384
 4303TIP3   OH234467   3.416   3.070   1.945 -0.6357 -0.2292 -0.3163
 4303TIP3    H134468   3.427   3.062   2.040  4.0242 -2.4766 -0.7624
 4303TIP3    H234469   3.371   2.989   1.919 -2.3136  0.5848 -0.1045
 4304TIP3   OH234470   5.157   3.896   1.871  0.3552 -0.2084 -0.5537
 4304TIP3    H134471   5.221   3.942   1.817 -0.0176 -0.2761 -1.0562
 4304TIP3    H234472   5.072   3.921   1.834  0.0647  0.1444  0.3045
 4305TIP3   OH234473   4.565   3.776   2.003  0.3500  0.3485 -0.7328
 4305TIP3    H134474   4.547   3.868   2.021 -0.1842  0.1867 -0.3980
 4305TIP3    H234475   4.600   3.742   2.086 -2.7153 -0.5501  0.3318
 4306TIP3   OH234476   3.511   2.348   7.572  0.2814 -0.0815 -0.0080
 4306TIP3    H134477   3.447   2.383   7.634  0.5558  1.1336 -0.3883
 4306TIP3    H234478   3.585   2.320   7.627 -1.2163 -3.2318  0.6469
 4307TIP3   OH234479   5.051   3.988   0.434  0.5423  0.5230 -0.0882
 4307TIP3    H134480   5.087   3.925   0.372  0.2378  1.1821 -0.9621
 4307TIP3    H234481   4.995   3.936   0.492  1.9654 -0.3296  0.5788
 4308TIP3   OH234482   1.333   2.023   1.700 -0.3814  0.7153  0.6640
 4308TIP3    H134483   1.288   1.944   1.730 -1.7634  0.4618 -1.7655
 4308TIP3    H234484   1.265   2.090   1.698  0.4586  1.6303  1.3324
 4309TIP3   OH234485   5.215   5.261   0.498 -0.0724 -0.1095 -0.0822
 4309TIP3    H134486   5.226   5.264   0.593  1.7204  1.2443 -0.2785
 4309TIP3    H234487   5.133   5.214   0.485 -1.3318  1.2566  2.2069
 4310TIP3   OH234488   0.557   2.554   1.634 -0.1735 -0.2988 -0.1296
 4310TIP3    H134489   0.592   2.557   1.723  1.3689 -0.5923 -0.6790
 4310TIP3    H234490   0.462   2.559   1.644 -0.1356 -2.1995  1.6296
 4311TIP3   OH234491   5.327   5.574   8.207 -0.4003 -0.5917 -0.0681
 4311TIP3    H134492   5.324   5.667   8.231 -1.3862 -1.1328  2.2299
 4311TIP3    H234493   5.276   5.568   8.126 -1.1745  0.7392  0.2933
 4312TIP3   OH234494   1.372   5.597   1.174  0.3436  0.0337  0.2404
 4312TIP3    H134495   1.316   5.551   1.111 -0.7173 -0.2906  1.3876
 4312TIP3    H234496   1.389   5.682   1.133 -0.1659 -0.2333 -0.5600
 4313TIP3   OH234497   3.531   4.708   1.978  0.5274  0.2037  0.1122
 4313TIP3    H134498   3.587   4.637   1.946  0.0963 -0.6058  1.0850
 4313TIP3    H234499   3.458   4.709   1.917  1.4030  1.0331 -0.9595
 4314TIP3   OH234500   6.056   4.529   7.250 -0.0991  0.1812  0.0230
 4314TIP3    H134501   6.077   4.622   7.257  0.4802  0.2253 -1.8517
 4314TIP3    H234502   5.973   4.526   7.202 -0.9777 -0.2493  1.4872
 4315TIP3   OH234503   3.573   3.950   7.559  0.2320  0.0487 -0.5285
 4315TIP3    H134504   3.562   4.039   7.525 -0.7017 -0.5963 -2.0486
 4315TIP3    H234505   3.652   3.917   7.517  0.3972  0.0494 -0.2209
 4316TIP3   OH234506   4.661   1.157   7.513 -0.1015 -0.0717 -0.0553
 4316TIP3    H134507   4.629   1.211   7.441 -1.1099 -1.9577 -1.0812
 4316TIP3    H234508   4.750   1.134   7.488 -0.8065 -1.6218 -1.3125
 4317TIP3   OH234509   2.397   4.373   0.434  0.0189  0.6067  0.1125
 4317TIP3    H134510   2.421   4.463   0.454  0.1161  0.6793 -0.3222
 4317TIP3    H234511   2.443   4.353   0.353  0.3987 -0.0033  0.4679
 4318TIP3   OH234512   6.130   0.008   8.336  0.0573 -0.2293 -0.4164
 4318TIP3    H134513   6.081  -0.071   8.312  1.9319 -1.6077  0.0800
 4318TIP3    H234514   6.131   0.060   8.256 -0.5215 -1.1034 -1.0156
 4319TIP3   OH234515   2.376   6.760   1.776  0.3084  0.3442 -0.2469
 4319TIP3    H134516   2.281   6.753   1.786  0.5918 -2.9813  1.9723
 4319TIP3    H234517   2.399   6.687   1.719  1.5301  1.5768 -1.3888
 4320TIP3   OH234518   0.908   1.872   8.468 -0.5260 -0.3361 -0.2951
 4320TIP3    H134519   0.932   1.815   8.395  1.8531 -0.7505  0.7107
 4320TIP3    H234520   0.883   1.812   8.538  0.1112 -0.0971  0.1499
 4321TIP3   OH234521   5.045   1.585   1.729  0.1529 -0.0687 -0.3162
 4321TIP3    H134522   5.095   1.664   1.750 -2.1629  0.6663  3.1764
 4321TIP3    H234523   5.111   1.517   1.719  2.0637  1.7669 -0.9187
 4322TIP3   OH234524   5.308   0.187   8.317 -0.2519  0.5276 -0.4320
 4322TIP3    H134525   5.373   0.256   8.307  0.4649 -0.1827 -0.7582
 4322TIP3    H234526   5.321   0.131   8.240 -0.9925  0.1666 -0.2982
 4323TIP3   OH234527   4.763   2.571   2.515 -0.1627  0.4423 -0.7321
 4323TIP3    H134528   4.799   2.660   2.510  0.0326  0.4019 -0.1107
 4323TIP3    H234529   4.794   2.537   2.599 -1.9913  0.5677  0.0468
 4324TIP3   OH234530   4.014   2.613   1.262 -0.2376  0.4104  0.0045
 4324TIP3    H134531   4.082   2.574   1.208  0.4662 -0.4482  1.4553
 4324TIP3    H234532   3.932   2.588   1.219  0.3185  0.9736 -1.4441
 4325TIP3   OH234533   4.377   5.859   0.730 -0.1157 -0.4199 -0.0230
 4325TIP3    H134534   4.417   5.779   0.697  0.4584  0.5069 -1.6803
 4325TIP3    H234535   4.319   5.830   0.801  0.4343 -2.2246 -0.2726
 4326TIP3   OH234536   3.598   4.462   8.492  0.1156 -0.1406  0.1431
 4326TIP3    H134537   3.619   4.493   8.404 -0.3218 -0.5142 -0.0974
 4326TIP3    H234538   3.568   4.372   8.480 -0.2550 -0.0902  0.6364
 4327TIP3   OH234539   1.409   2.682   2.330  0.5532  0.2324  0.3800
 4327TIP3    H134540   1.448   2.685   2.243  0.2738 -0.4085  0.2264
 4327TIP3    H234541   1.366   2.767   2.340  0.5576  0.2969 -0.1191
 4328TIP3   OH234542   4.925   3.769   0.060  0.2908 -0.1349  0.0092
 4328TIP3    H134543   4.854   3.784   0.123  1.1050  0.6024  0.7800
 4328TIP3    H234544   4.931   3.851   0.011 -1.0448 -1.0575 -1.8177
 4329TIP3   OH234545   5.147   4.062   8.063 -0.2970  0.2181 -0.0155
 4329TIP3    H134546   5.088   4.136   8.073 -1.0549 -0.4477  0.6523
 4329TIP3    H234547   5.232   4.096   8.090 -0.5909  0.8993  0.0836
 4330TIP3   OH234548   5.930   0.947   6.898  0.1057  0.0557  1.0418
 4330TIP3    H134549   5.984   0.916   6.970  2.0425 -0.4046 -0.4911
 4330TIP3    H234550   5.948   1.041   6.893  1.2268 -0.1741  0.2419
 4331TIP3   OH234551   6.138   6.043   8.626 -0.2241  0.1086  0.2166
 4331TIP3    H134552   6.167   6.076   8.711  0.2961 -0.2453  0.1775
 4331TIP3    H234553   6.118   5.950   8.642 -0.7959  0.2064  0.1116
 4332TIP3   OH234554   4.905   0.841   2.391 -0.2257 -0.2616  0.1936
 4332TIP3    H134555   4.957   0.867   2.467 -0.8991  2.1295 -0.1087
 4332TIP3    H234556   4.956   0.770   2.351  1.6581  0.4690  1.1614
 4333TIP3   OH234557   4.807   5.610   1.115 -0.5018 -1.2249  0.2199
 4333TIP3    H134558   4.779   5.638   1.028 -0.5810 -1.7751  0.0682
 4333TIP3    H234559   4.739   5.643   1.174  0.8228  1.4522  0.4259
 4334TIP3   OH234560   3.220   2.923   7.756 -0.2752 -0.4698 -0.2961
 4334TIP3    H134561   3.314   2.934   7.739 -0.3840  0.7120 -0.2473
 4334TIP3    H234562   3.213   2.841   7.804  0.7497 -0.4808 -0.1467
 4335TIP3   OH234563   4.970   6.649   1.384 -0.0537  0.5620 -0.2158
 4335TIP3    H134564   5.048   6.608   1.348  0.1390  2.2705 -1.9476
 4335TIP3    H234565   4.950   6.720   1.323 -0.8943  2.4336  2.0626
 4336TIP3   OH234566   2.679   2.222   3.007  0.3779 -0.2265 -0.2455
 4336TIP3    H134567   2.590   2.251   2.991  0.8536  1.5077  0.0765
 4336TIP3    H234568   2.710   2.191   2.922  0.1413  1.1043 -0.8405
 4337TIP3   OH234569   4.091   0.084   2.686 -0.1100  0.1415 -0.7670
 4337TIP3    H134570   4.019   0.142   2.710  0.3470 -0.4968  2.7133
 4337TIP3    H234571   4.061  -0.003   2.713  0.7557 -0.6381 -2.2205
 4338TIP3   OH234572   4.881   1.552   8.509  0.8795 -0.0574  0.4694
 4338TIP3    H134573   4.890   1.460   8.484 -0.2463 -0.2777  0.7998
 4338TIP3    H234574   4.934   1.600   8.445 -0.1556 -0.7761 -0.9982
 4339TIP3   OH234575   3.535   2.165   2.195 -0.1107  0.5505  0.2990
 4339TIP3    H134576   3.484   2.086   2.174  0.1693  0.8617 -1.7054
 4339TIP3    H234577   3.545   2.162   2.290  1.0747 -2.6086  0.1989
 4340TIP3   OH234578   3.143   0.962   2.376 -0.8459 -0.0315 -0.2623
 4340TIP3    H134579   3.179   0.979   2.289 -5.0713  0.2406 -2.1994
 4340TIP3    H234580   3.109   1.047   2.404 -2.1911 -0.7191  0.2504
 4341TIP3   OH234581   2.474   0.941   7.624  0.3837  0.1363  0.3936
 4341TIP3    H134582   2.384   0.909   7.622 -0.5391  2.0357  3.9771
 4341TIP3    H234583   2.470   1.026   7.579  0.6981 -0.2578 -0.4145
 4342TIP3   OH234584   0.441   3.794   8.576 -0.0339  0.3403 -0.3023
 4342TIP3    H134585   0.509   3.843   8.622 -0.7611  0.7090  0.4131
 4342TIP3    H234586   0.364   3.851   8.581 -0.9201 -0.8839  0.5842
 4343TIP3   OH234587   2.222   4.890   8.605  0.0054  0.1447 -0.0615
 4343TIP3    H134588   2.227   4.821   8.540 -1.0433  0.9148 -0.9965
 4343TIP3    H234589   2.278   4.960   8.571  0.3129  0.1319  0.4056
 4344TIP3   OH234590   6.730   5.472   7.786  0.1414  0.6769 -0.4579
 4344TIP3    H134591   6.668   5.545   7.791 -0.0087  0.5362 -0.2878
 4344TIP3    H234592   6.708   5.416   7.860  0.5587  0.6967 -0.3184
 4345TIP3   OH234593   0.762   6.171   0.697 -0.1115  0.4054 -0.3686
 4345TIP3    H134594   0.821   6.096   0.704 -0.4621 -0.0512 -1.8579
 4345TIP3    H234595   0.692   6.153   0.760 -0.0349 -0.3750 -0.5012
 4346TIP3   OH234596   0.223   2.022   1.629 -0.2171 -0.0010  0.4349
 4346TIP3    H134597   0.221   2.111   1.592 -1.5822 -0.1852  0.0165
 4346TIP3    H234598   0.177   1.968   1.564  3.3973 -1.7356 -0.9901
 4347TIP3   OH234599   5.010   2.543   0.397 -0.3828  0.4365  0.0935
 4347TIP3    H134600   4.981   2.615   0.452 -2.1261 -0.3553  0.2585
 4347TIP3    H234601   4.967   2.466   0.433 -0.6842 -0.2820 -1.7043
 4348TIP3   OH234602   4.020   2.128   2.227 -0.1952  0.1094 -0.0793
 4348TIP3    H134603   3.995   2.210   2.270 -0.4542 -0.3829  0.7509
 4348TIP3    H234604   4.015   2.146   2.133  2.0413  1.7158  0.0447
 4349TIP3   OH234605   4.385   0.535   0.815 -0.3161 -0.4949  0.1977
 4349TIP3    H134606   4.433   0.609   0.779  0.8067 -1.2406  0.1184
 4349TIP3    H234607   4.317   0.575   0.870 -0.9831  0.6177 -1.3569
 4350TIP3   OH234608   4.713   2.271   1.182 -0.3003 -0.1157 -0.0011
 4350TIP3    H134609   4.789   2.322   1.208 -1.1112  0.8532  0.5058
 4350TIP3    H234610   4.649   2.286   1.251 -2.1666  1.7421 -2.0154
 4351TIP3   OH234611   3.542   2.604   7.750  0.3007  0.1593 -0.0225
 4351TIP3    H134612   3.525   2.667   7.680  0.0106 -0.4983 -0.5552
 4351TIP3    H234613   3.614   2.550   7.716 -0.1572 -0.4609 -0.0120
 4352TIP3   OH234614   0.267   0.852   2.187 -0.1626 -0.6831 -0.2571
 4352TIP3    H134615   0.318   0.929   2.162  0.1108 -0.7421  0.1266
 4352TIP3    H234616   0.216   0.880   2.263  1.3211 -1.4083  1.0692
 4353TIP3   OH234617   6.435   3.816   7.259 -0.2404 -0.2892  0.2626
 4353TIP3    H134618   6.452   3.725   7.284  2.5322  0.0963  0.0573
 4353TIP3    H234619   6.387   3.809   7.176 -1.7356 -1.5212  1.1821
 4354TIP3   OH234620   2.191   6.155   1.268 -0.4133  0.0410 -0.1412
 4354TIP3    H134621   2.164   6.117   1.351  4.7097 -2.3743  0.8281
 4354TIP3    H234622   2.187   6.250   1.283 -2.1034 -0.2622  1.8241
 4355TIP3   OH234623   3.335   2.290   7.174  0.0166 -0.3574  0.3011
 4355TIP3    H134624   3.383   2.236   7.112  0.5466 -1.0167  1.2468
 4355TIP3    H234625   3.245   2.291   7.142  0.2374 -0.8615 -0.3509
 4356TIP3   OH234626   2.638   4.399   1.409  0.0387 -0.0215  0.0255
 4356TIP3    H134627   2.602   4.477   1.450 -1.4860 -0.7146  0.0889
 4356TIP3    H234628   2.726   4.424   1.382  0.3074  1.0967  1.8131
 4357TIP3   OH234629   5.883   1.576   7.635  0.9055 -0.2176  0.2500
 4357TIP3    H134630   5.949   1.510   7.656  1.2255  0.0138 -0.0279
 4357TIP3    H234631   5.931   1.658   7.628  0.4290  0.1510  1.1375
 4358TIP3   OH234632   2.174   2.259   2.176 -0.0079  1.0083 -0.0311
 4358TIP3    H134633   2.193   2.352   2.164 -0.4484  0.9957 -0.8856
 4358TIP3    H234634   2.087   2.258   2.217 -0.5421  0.9550 -1.1450
 4359TIP3   OH234635   3.620   2.403   2.021 -0.5088 -0.7176 -0.2145
 4359TIP3    H134636   3.580   2.358   2.096 -0.4655 -1.4062 -0.6022
 4359TIP3    H234637   3.553   2.401   1.953 -0.7920  0.4746 -0.0068
 4360TIP3   OH234638   1.210   1.269   8.130 -0.6004 -0.0458 -0.1054
 4360TIP3    H134639   1.272   1.282   8.202  0.1341  1.2743 -0.9352
 4360TIP3    H234640   1.247   1.197   8.079 -0.2997  0.0466 -0.0191
 4361TIP3   OH234641   5.158   4.306   8.390  0.1847  0.0025 -0.3801
 4361TIP3    H134642   5.108   4.369   8.339  1.7862  0.4311 -1.4759
 4361TIP3    H234643   5.240   4.351   8.412 -0.2294 -0.3202  2.2361
 4362TIP3   OH234644   6.896   4.020   1.725  0.4151  0.7666 -0.1283
 4362TIP3    H134645   6.972   4.011   1.667 -0.6800  0.3306 -1.5845
 4362TIP3    H234646   6.881   4.114   1.731  0.8026  0.8362 -0.2027
 4363TIP3   OH234647   1.414   4.936   8.145 -0.0184  0.1457  0.0309
 4363TIP3    H134648   1.342   4.997   8.130  0.4444  0.5504 -0.5829
 4363TIP3    H234649   1.384   4.880   8.217 -0.2081  1.4984  1.0513
 4364TIP3   OH234650   2.022   0.254   0.669 -0.5919  0.1649 -0.1948
 4364TIP3    H134651   2.081   0.222   0.600 -0.2036 -2.8199  1.3656
 4364TIP3    H234652   2.050   0.344   0.683  1.3381 -0.0910 -1.8524
 4365TIP3   OH234653   4.033   6.420   0.138 -0.0365 -0.7361  0.0218
 4365TIP3    H134654   4.059   6.510   0.119 -0.0556 -0.1658  2.3690
 4365TIP3    H234655   3.939   6.424   0.150 -0.2610 -1.3954 -1.3081
 4366TIP3   OH234656   3.671   4.947   1.987 -0.1368  0.3942 -0.2464
 4366TIP3    H134657   3.633   4.859   1.985  0.5318  0.1073 -0.7858
 4366TIP3    H234658   3.617   4.998   1.927  0.2840 -0.0033 -0.9835
 4367TIP3   OH234659   5.676   6.829   7.876  0.6298  0.8881  0.6631
 4367TIP3    H134660   5.589   6.870   7.883  1.4601  2.8303  0.3904
 4367TIP3    H234661   5.731   6.898   7.838  1.7924 -1.0396 -1.4141
 4368TIP3   OH234662   3.245   1.740   0.231 -0.5486 -0.2333 -0.2198
 4368TIP3    H134663   3.332   1.766   0.201 -0.8559 -0.7511 -1.6107
 4368TIP3    H234664   3.258   1.653   0.270 -0.0432  0.6848  1.8063
 4369TIP3   OH234665   4.901   5.300   1.601  0.0969  0.0405 -0.2626
 4369TIP3    H134666   4.869   5.356   1.672 -2.6697 -0.4553 -1.0218
 4369TIP3    H234667   4.968   5.245   1.642 -1.2179 -0.0476  1.9127
 4370TIP3   OH234668   1.682   6.792   7.133  0.2305 -0.8560 -0.0257
 4370TIP3    H134669   1.610   6.835   7.086  1.0887  1.1008  0.3943
 4370TIP3    H234670   1.700   6.713   7.081 -0.5089 -0.0485 -1.5749
 4371TIP3   OH234671   4.138   2.277   0.293 -0.5128  0.1520 -0.2924
 4371TIP3    H134672   4.108   2.366   0.308 -0.3974 -0.1370  1.9587
 4371TIP3    H234673   4.202   2.285   0.222 -1.4803  1.6287 -1.0493
 4372TIP3   OH234674   0.546   1.774   7.990 -0.0455  0.1877 -0.4735
 4372TIP3    H134675   0.558   1.704   8.054  0.0027 -0.4739 -1.1976
 4372TIP3    H234676   0.462   1.813   8.013  1.2267  1.8513  1.7644
 4373TIP3   OH234677   3.428   3.007   0.895  0.0993 -0.3699  0.1327
 4373TIP3    H134678   3.354   3.010   0.955  0.2341 -0.7425  0.3230
 4373TIP3    H234679   3.465   2.919   0.907 -0.1496 -0.6213 -0.8224
 4374TIP3   OH234680   2.673   3.954   1.105 -0.3822  0.8534  0.1148
 4374TIP3    H134681   2.661   4.043   1.136 -0.6012  0.9960 -0.3836
 4374TIP3    H234682   2.585   3.918   1.099 -0.2402  0.0694  1.8409
 4375TIP3   OH234683   0.412   5.184   2.908 -0.2781  0.4840 -0.7134
 4375TIP3    H134684   0.488   5.179   2.850 -0.6302  0.7942 -1.2091
 4375TIP3    H234685   0.344   5.226   2.855 -0.4544  1.2229  0.0872
 4376TIP3   OH234686   0.816   0.461   1.523  0.4021 -0.7594 -0.1711
 4376TIP3    H134687   0.893   0.409   1.546  1.2511  1.4116  2.4181
 4376TIP3    H234688   0.751   0.439   1.590  0.7479  1.3173  0.9134
 4377TIP3   OH234689   3.810   5.164   0.607  0.2088  0.9320 -0.1507
 4377TIP3    H134690   3.888   5.109   0.602  0.8697  1.9588 -1.9148
 4377TIP3    H234691   3.738   5.103   0.592  0.7163  0.1385  0.5059
 4378TIP3   OH234692   2.229   1.010   2.177 -0.0419  0.0576  0.2679
 4378TIP3    H134693   2.231   0.920   2.209  0.4026  0.1211  0.4284
 4378TIP3    H234694   2.204   1.001   2.085 -0.3230 -0.2031  0.3659
 4379TIP3   OH234695   6.329   0.261   2.134  0.2257 -0.8433  0.2377
 4379TIP3    H134696   6.273   0.297   2.065 -0.4106 -0.6426  0.8543
 4379TIP3    H234697   6.417   0.289   2.110 -0.1563  0.4142  0.2470
 4380TIP3   OH234698   3.336   3.825   7.457 -0.0934  0.8825 -0.0656
 4380TIP3    H134699   3.425   3.853   7.437 -0.2066 -0.0243 -2.1026
 4380TIP3    H234700   3.299   3.799   7.373 -1.5794 -0.7829  1.0097
 4381TIP3   OH234701   4.398   5.336   8.052 -0.4193 -0.0222  0.1231
 4381TIP3    H134702   4.320   5.281   8.052 -1.5324  1.4852  0.6040
 4381TIP3    H234703   4.438   5.320   8.138  0.8612 -2.1367 -0.7817
 4382TIP3   OH234704   5.047   4.528   6.907  0.2149  0.2429 -0.2751
 4382TIP3    H134705   4.978   4.462   6.899 -0.9265  1.4351 -0.5112
 4382TIP3    H234706   5.002   4.606   6.939  1.0912  1.6108 -2.1996
 4383TIP3   OH234707   6.334   5.973   7.768  0.6812  0.3213  0.2844
 4383TIP3    H134708   6.311   5.953   7.859 -2.4867 -0.7286 -0.6303
 4383TIP3    H234709   6.283   6.050   7.746  1.2358  0.4310 -0.6850
 4384TIP3   OH234710   5.129   3.088   7.819  0.0352 -0.1507 -0.2304
 4384TIP3    H134711   5.203   3.139   7.786  1.3937 -1.4871  0.6425
 4384TIP3    H234712   5.133   3.099   7.914  0.5023 -2.0016  0.0051
 4385TIP3   OH234713   1.337   2.980   7.927 -0.9069 -0.2931  0.5668
 4385TIP3    H134714   1.289   2.941   7.854 -0.9824 -0.6695  0.8128
 4385TIP3    H234715   1.427   2.947   7.916 -0.3181  1.5937 -0.7522
 4386TIP3   OH234716   6.065   5.241   0.036 -0.0657  0.2549 -0.0430
 4386TIP3    H134717   6.002   5.169   0.047 -0.6595  0.8372  0.4523
 4386TIP3    H234718   6.056   5.293   0.116  2.3138 -0.5956  0.8774
 4387TIP3   OH234719   1.209   4.785   6.591  0.2973 -0.0640 -0.1421
 4387TIP3    H134720   1.155   4.846   6.642  0.0354  0.0916 -0.6003
 4387TIP3    H234721   1.241   4.837   6.518 -0.4966 -0.6406 -0.9223
 4388TIP3   OH234722   5.335   6.778   1.450 -0.1451 -0.4502  0.4565
 4388TIP3    H134723   5.337   6.768   1.355  0.0222  0.9598  0.2899
 4388TIP3    H234724   5.274   6.851   1.465  0.3074 -0.2502  1.3862
 4389TIP3   OH234725   1.214   6.253   2.658  0.0254  0.0144 -0.4389
 4389TIP3    H134726   1.301   6.286   2.637  0.1017 -0.9827 -1.8259
 4389TIP3    H234727   1.169   6.326   2.700  1.6878  0.3819  0.7676
 4390TIP3   OH234728   0.182   3.549   0.190  0.2741  0.3321 -0.0540
 4390TIP3    H134729   0.115   3.617   0.201  1.2708  1.1751  1.2118
 4390TIP3    H234730   0.166   3.487   0.261  0.1843 -0.0387 -0.3949
 4391TIP3   OH234731   0.648   0.385   6.629 -0.1501  0.2064 -0.4812
 4391TIP3    H134732   0.556   0.368   6.605 -0.2142 -3.2498  1.5663
 4391TIP3    H234733   0.698   0.323   6.576  0.9378  1.3272 -0.7960
 4392TIP3   OH234734   2.269   6.498   8.605 -0.3011 -0.4839 -0.0437
 4392TIP3    H134735   2.332   6.427   8.606  0.1313 -0.1265 -0.9239
 4392TIP3    H234736   2.322   6.578   8.602 -0.7772 -0.1665 -0.4054
 4393TIP3   OH234737   4.976   0.551   0.789  0.3075 -0.3603 -0.3542
 4393TIP3    H134738   4.902   0.494   0.766  1.0676 -1.5518  0.0562
 4393TIP3    H234739   5.001   0.592   0.707 -0.4918 -0.3339 -0.5919
 4394TIP3   OH234740   0.324   3.223   8.275  0.2388  0.4920  0.1775
 4394TIP3    H134741   0.243   3.269   8.253  0.4377  0.7703  0.0221
 4394TIP3    H234742   0.310   3.133   8.245  0.0849  0.6018 -0.0801
 4395TIP3   OH234743   4.224   6.263   0.011  0.0988 -0.2016 -0.8609
 4395TIP3    H134744   4.168   6.321   0.063  2.0573  3.1709 -2.1679
 4395TIP3    H234745   4.197   6.280  -0.079  1.3305 -0.6519 -1.3262
 4396TIP3   OH234746   5.577   6.812   7.131  0.1622 -0.0729 -0.5831
 4396TIP3    H134747   5.548   6.822   7.222  2.3922  1.1340  0.0625
 4396TIP3    H234748   5.549   6.892   7.087 -0.9834 -0.6889 -1.0164
 4397TIP3   OH234749   5.575   6.577   0.780 -0.1670 -0.5210 -0.3876
 4397TIP3    H134750   5.667   6.551   0.772 -0.3661 -0.8676 -1.9576
 4397TIP3    H234751   5.538   6.513   0.841  1.0774  0.9947  2.1348
 4398TIP3   OH234752   1.284   0.616   0.748 -0.1790  0.1173 -0.4139
 4398TIP3    H134753   1.236   0.541   0.712 -0.0210  0.4712 -1.3894
 4398TIP3    H234754   1.310   0.667   0.671  3.8426 -1.2581 -0.1533
 4399TIP3   OH234755   2.272   5.161   7.581  0.0121  0.0798  0.3164
 4399TIP3    H134756   2.193   5.210   7.605  0.5535  1.0760  0.1443
 4399TIP3    H234757   2.342   5.227   7.583  1.1290 -1.0936  1.9407
 4400TIP3   OH234758   6.671   2.359   7.463  0.0663 -0.7286 -0.6010
 4400TIP3    H134759   6.739   2.353   7.530  1.0866 -0.5866 -1.5882
 4400TIP3    H234760   6.705   2.423   7.400 -1.3504 -0.0457 -0.7201
 4401TIP3   OH234761   0.740   1.476   6.898  0.5427 -0.6164  0.6684
 4401TIP3    H134762   0.704   1.403   6.948  1.5264 -1.9530 -0.4744
 4401TIP3    H234763   0.759   1.543   6.963 -0.1434 -1.4668  1.7909
 4402TIP3   OH234764   1.924   4.606   8.199  0.7574 -0.5486 -0.3479
 4402TIP3    H134765   1.989   4.563   8.144  1.4158  0.9722 -0.8000
 4402TIP3    H234766   1.963   4.606   8.286  0.6693 -1.0170 -0.3051
 4403TIP3   OH234767   1.043   4.149   1.924  0.3870  0.3018 -0.8438
 4403TIP3    H134768   0.955   4.125   1.951 -0.1308  1.3966 -1.5215
 4403TIP3    H234769   1.097   4.073   1.949 -0.0681  0.9934  2.8761
 4404TIP3   OH234770   6.439   0.509   5.885  0.2737 -0.3574 -0.3095
 4404TIP3    H134771   6.454   0.414   5.882  1.3072 -0.2329  0.2597
 4404TIP3    H234772   6.527   0.547   5.888 -0.1341  0.6090 -0.1757
 4405TIP3   OH234773   3.902   0.348   7.866 -0.1545  0.3219 -0.0536
 4405TIP3    H134774   3.832   0.381   7.810 -0.1270 -2.3520 -1.8465
 4405TIP3    H234775   3.964   0.307   7.805  1.7962  0.5289  1.6832
 4406TIP3   OH234776   3.257   2.907   1.685  0.5969  0.2865  0.0605
 4406TIP3    H134777   3.237   2.867   1.770  1.0600 -1.0018 -0.4186
 4406TIP3    H234778   3.289   2.834   1.631  3.1853  1.5726 -0.3073
 4407TIP3   OH234779   6.086   0.154   1.879 -0.0353 -0.3846  0.6152
 4407TIP3    H134780   6.152   0.113   1.934 -0.0894 -2.1575 -0.5803
 4407TIP3    H234781   6.123   0.239   1.855  0.9577 -0.5531  1.5029
 4408TIP3   OH234782   6.488   4.208   1.223 -0.2472  0.1278  0.3973
 4408TIP3    H134783   6.535   4.196   1.306  0.2531  1.2273  0.2916
 4408TIP3    H234784   6.556   4.236   1.162 -0.2701 -2.2883 -0.8561
 4409TIP3   OH234785   6.154   3.842   7.925  0.3648 -0.1889  0.7719
 4409TIP3    H134786   6.097   3.772   7.893  0.1344  0.2890  0.1250
 4409TIP3    H234787   6.176   3.893   7.848  1.2630 -0.0638  1.0982
 4410TIP3   OH234788   2.817   3.887   6.967 -0.0833  0.1257  0.3435
 4410TIP3    H134789   2.736   3.837   6.974  1.2940 -1.9678  4.5786
 4410TIP3    H234790   2.788   3.976   6.947 -3.1301 -1.0181 -1.0198
 4411TIP3   OH234791   3.360   0.988   1.467  0.0288  0.0504 -0.0405
 4411TIP3    H134792   3.271   0.955   1.455 -0.2423  0.8244 -0.2248
 4411TIP3    H234793   3.349   1.077   1.499  0.6509  1.1950 -2.6681
 4412TIP3   OH234794   2.857   3.445   2.661 -0.0443 -0.4304 -0.3704
 4412TIP3    H134795   2.771   3.463   2.698 -0.0689 -0.4562 -0.4155
 4412TIP3    H234796   2.913   3.429   2.737 -0.1073 -0.5377 -0.3479
 4413TIP3   OH234797   2.723   2.485   1.630  0.2858  0.5367  0.7150
 4413TIP3    H134798   2.734   2.531   1.713  0.2762 -0.7721  1.4669
 4413TIP3    H234799   2.628   2.483   1.616  0.3052  1.0737  0.4744
 4414TIP3   OH234800   6.098   6.473   8.519  0.6468  0.8524  0.2739
 4414TIP3    H134801   6.180   6.510   8.487  0.8001 -0.6851 -1.2370
 4414TIP3    H234802   6.090   6.507   8.608  1.2545  3.6461 -0.6262
 4415TIP3   OH234803   5.657   5.985   6.358 -0.1572  0.5151 -0.2288
 4415TIP3    H134804   5.610   6.059   6.396  0.4438  1.2333 -0.8403
 4415TIP3    H234805   5.749   6.012   6.362 -0.0174  0.2370 -1.3816
 4416TIP3   OH234806   2.783   0.028   1.628 -0.1831  0.1610 -0.5003
 4416TIP3    H134807   2.792  -0.020   1.710 -1.1630  2.0467  0.7727
 4416TIP3    H234808   2.873   0.048   1.602  0.1333 -0.4140  0.1392
 4417TIP3   OH234809   2.832   0.777   8.503 -0.4110 -0.2626  0.2134
 4417TIP3    H134810   2.878   0.799   8.584 -1.8079  0.0680  0.9543
 4417TIP3    H234811   2.872   0.834   8.437 -0.1053  0.3819  0.9326
 4418TIP3   OH234812   5.500   2.542   2.382 -0.1854 -0.1358  0.1000
 4418TIP3    H134813   5.574   2.510   2.433  0.7227 -0.9928 -1.6423
 4418TIP3    H234814   5.472   2.621   2.428  1.2803 -0.2410  1.2778
 4419TIP3   OH234815   1.896   4.939   7.711 -0.2887  0.1876  0.1165
 4419TIP3    H134816   1.833   4.910   7.778  1.4198 -0.4065  1.5427
 4419TIP3    H234817   1.970   4.879   7.721  0.6658  1.1010 -1.2602
 4420TIP3   OH234818   6.774   4.514   1.235 -0.1715  0.1828  0.1466
 4420TIP3    H134819   6.698   4.511   1.176 -0.1814  0.5538  0.1347
 4420TIP3    H234820   6.735   4.528   1.322 -0.0784  1.3277  0.0212
 4421TIP3   OH234821   1.836   0.103   1.325  0.5607 -0.5031 -0.2197
 4421TIP3    H134822   1.873   0.064   1.405  1.9697 -0.7441 -0.9578
 4421TIP3    H234823   1.899   0.081   1.257 -1.4115 -1.6887 -1.7500
 4422TIP3   OH234824   5.126   6.619   8.347  0.0080 -0.6534  0.3830
 4422TIP3    H134825   5.180   6.540   8.335 -0.3469 -0.8014 -0.2550
 4422TIP3    H234826   5.042   6.597   8.308  0.6263  0.8617 -2.0796
 4423TIP3   OH234827   5.986   2.306   7.481 -0.2945  0.4064  0.0470
 4423TIP3    H134828   6.058   2.363   7.453 -0.7073  0.7035 -0.4277
 4423TIP3    H234829   5.961   2.258   7.402 -0.1602 -0.2049  0.3719
 4424TIP3   OH234830   3.078   4.753   0.862 -0.0447 -0.4176 -0.1372
 4424TIP3    H134831   2.993   4.741   0.905 -1.0810 -0.2806 -2.0391
 4424TIP3    H234832   3.086   4.847   0.850  0.0027 -0.4850 -0.6532
 4425TIP3   OH234833   1.985   5.117   2.560 -0.2465  0.0840 -0.2352
 4425TIP3    H134834   2.019   5.206   2.571  1.9386 -0.5324 -1.4761
 4425TIP3    H234835   1.942   5.118   2.475 -1.8994  0.4015  0.5720
 4426TIP3   OH234836   2.894   5.532   8.050 -0.3106 -0.5338 -0.2329
 4426TIP3    H134837   2.829   5.597   8.021  0.9927  0.4176 -1.1363
 4426TIP3    H234838   2.970   5.584   8.074  0.7441 -1.7217 -0.8818
 4427TIP3   OH234839   0.538   3.265   1.346 -0.5659 -0.1840 -0.3287
 4427TIP3    H134840   0.608   3.200   1.346 -2.2094 -2.1182 -1.7473
 4427TIP3    H234841   0.482   3.239   1.419 -0.3208  0.7201  0.1797
 4428TIP3   OH234842   0.926   5.407   1.469  0.4154  0.0516 -0.1754
 4428TIP3    H134843   0.906   5.486   1.520 -1.6606 -0.7691  0.3902
 4428TIP3    H234844   1.010   5.426   1.428  1.4594  1.3606  2.3365
 4429TIP3   OH234845   1.039   5.613   7.743  0.5113  0.4060  0.8304
 4429TIP3    H134846   1.095   5.662   7.803  2.0902 -1.4998  1.0350
 4429TIP3    H234847   1.061   5.647   7.656  1.6458  0.0517  0.9602
 4430TIP3   OH234848   2.197   3.934   2.050  0.4047  0.0985 -0.1704
 4430TIP3    H134849   2.106   3.957   2.070  1.0576  2.4277  0.5616
 4430TIP3    H234850   2.242   4.019   2.047  2.5595 -0.9923 -0.4559
 4431TIP3   OH234851   4.236   0.422   7.973 -0.3446 -0.5845  0.2930
 4431TIP3    H134852   4.298   0.440   7.903  0.1909 -0.3799  0.8095
 4431TIP3    H234853   4.233   0.327   7.978  1.4263 -0.6231  1.5359
 4432TIP3   OH234854   1.286   2.046   2.123 -0.6647 -0.3674 -0.5679
 4432TIP3    H134855   1.286   1.978   2.056  0.3373 -2.8601  1.7578
 4432TIP3    H234856   1.194   2.052   2.151 -0.7515 -0.8457 -0.7389
 4433TIP3   OH234857   2.904   1.805   2.456 -0.0605 -0.0952 -0.0858
 4433TIP3    H134858   2.925   1.713   2.473 -1.6324 -0.6274 -0.8366
 4433TIP3    H234859   2.971   1.834   2.394  0.9690 -0.4497  0.8237
 4434TIP3   OH234860   4.776   1.211   1.466  0.5778 -0.1108  0.5628
 4434TIP3    H134861   4.735   1.281   1.415 -0.5924 -1.1759 -0.0108
 4434TIP3    H234862   4.730   1.213   1.551  0.4108 -0.2975  0.4781
 4435TIP3   OH234863   1.165   0.207   0.347 -0.2521 -0.2343 -0.4078
 4435TIP3    H134864   1.089   0.204   0.405  0.3621 -0.6538  0.4086
 4435TIP3    H234865   1.196   0.116   0.345  0.7122  0.0810 -0.0580
 4436TIP3   OH234866   1.789   3.723   0.268 -0.1964 -0.2725 -0.0218
 4436TIP3    H134867   1.813   3.752   0.180 -0.7909 -0.3873 -0.2267
 4436TIP3    H234868   1.743   3.798   0.306 -0.3354 -0.3817  0.0253
 4437TIP3   OH234869   1.693   3.644   2.159  0.2829 -0.5518  0.1344
 4437TIP3    H134870   1.693   3.704   2.085  0.3031 -0.4392  0.2248
 4437TIP3    H234871   1.713   3.699   2.235  1.2627 -0.8344  0.0885
 4438TIP3   OH234872   1.011   1.208   0.631 -0.3886  0.2154 -0.0987
 4438TIP3    H134873   0.952   1.138   0.603 -1.1597  0.3097  1.2097
 4438TIP3    H234874   0.953   1.277   0.663  0.4031  0.8849 -0.0756
 4439TIP3   OH234875   3.498   2.671   2.145 -0.1086 -0.4071 -0.4301
 4439TIP3    H134876   3.586   2.654   2.112  0.6068  1.4062  0.4127
 4439TIP3    H234877   3.491   2.616   2.223  1.1945  1.0805  0.8136
 4440TIP3   OH234878   2.173   3.661   1.456  0.0804  0.0802  0.0915
 4440TIP3    H134879   2.249   3.706   1.493  0.0766  0.7679 -0.6985
 4440TIP3    H234880   2.099   3.718   1.477 -0.8022 -2.0484  3.6253
 4441TIP3   OH234881   6.603   1.007   0.980  0.0683 -0.3695 -0.2048
 4441TIP3    H134882   6.538   0.988   1.048 -1.1552  0.4936 -1.0843
 4441TIP3    H234883   6.629   1.098   0.996  0.2786 -0.3785 -0.4845
 4442TIP3   OH234884   6.428   6.080   0.707 -0.1918  0.1847  0.1904
 4442TIP3    H134885   6.425   6.141   0.633  0.2883 -0.6201 -0.5044
 4442TIP3    H234886   6.339   6.045   0.714 -0.4294  0.8282  0.4894
 4443TIP3   OH234887   6.696   2.632   0.836  0.0847 -0.2841  0.0428
 4443TIP3    H134888   6.710   2.538   0.843  2.1000 -0.0703 -0.6018
 4443TIP3    H234889   6.757   2.661   0.768  1.2558  1.8079  1.8466
 4444TIP3   OH234890   0.008   6.460   0.878 -0.0579 -0.1032  0.3668
 4444TIP3    H134891   0.099   6.438   0.897  0.8351 -0.9185 -3.8340
 4444TIP3    H234892  -0.034   6.376   0.862 -0.1243  0.3588 -2.5530
 4445TIP3   OH234893   0.100   1.603   6.857  0.0360 -0.0199 -0.0256
 4445TIP3    H134894   0.083   1.520   6.813  0.5843  0.3710 -1.0105
 4445TIP3    H234895   0.056   1.669   6.803  2.0861  0.6603 -0.9781
 4446TIP3   OH234896   2.558   5.425   1.151 -0.0186  0.1580  0.0009
 4446TIP3    H134897   2.648   5.457   1.161 -0.5537  2.3742 -1.4091
 4446TIP3    H234898   2.519   5.438   1.238  0.5577  0.8962  0.1678
 4447TIP3   OH234899   1.244   2.191   8.055  0.0669 -0.4569  0.0116
 4447TIP3    H134900   1.286   2.122   8.106 -0.5757 -0.3810  0.6622
 4447TIP3    H234901   1.161   2.207   8.100 -0.4104 -0.2192 -0.9248
 4448TIP3   OH234902   0.239   1.620   7.485 -0.0787 -0.6330 -0.3786
 4448TIP3    H134903   0.307   1.636   7.551 -1.0259 -0.3417  0.5478
 4448TIP3    H234904   0.177   1.691   7.496 -0.4494 -0.7906 -1.3461
 4449TIP3   OH234905   2.107   0.842   1.526 -0.0237 -0.2422  0.1288
 4449TIP3    H134906   2.085   0.752   1.552 -0.0695 -0.4515 -0.6251
 4449TIP3    H234907   2.034   0.870   1.471 -0.0958  0.3257  0.5076
 4450TIP3   OH234908   2.381   3.221   7.467 -0.5953 -0.2414 -0.3775
 4450TIP3    H134909   2.399   3.251   7.378  0.3892 -0.7898 -0.3805
 4450TIP3    H234910   2.416   3.291   7.523 -2.3987  0.7477 -0.3902
 4451TIP3   OH234911   3.506   1.929   8.316 -0.0916 -0.0417  0.6391
 4451TIP3    H134912   3.600   1.928   8.295 -0.2601  1.0772 -0.2547
 4451TIP3    H234913   3.463   1.937   8.231 -1.0957 -2.1263  0.8729
 4452TIP3   OH234914   3.046   0.697   3.024 -0.2884  0.1959  0.3146
 4452TIP3    H134915   3.111   0.749   2.977 -2.2495  0.5222 -2.2732
 4452TIP3    H234916   3.064   0.607   2.999 -1.0615  0.3320 -0.8490
 4453TIP3   OH234917   5.858   2.138   7.125  0.1132  0.2233 -0.3158
 4453TIP3    H134918   5.919   2.073   7.090 -0.3342 -0.8727  0.8801
 4453TIP3    H234919   5.808   2.091   7.192 -1.1714  1.4349 -0.3722
 4454TIP3   OH234920   2.248   4.399   1.847  0.5258 -0.3765 -0.0480
 4454TIP3    H134921   2.234   4.355   1.763  0.8077 -1.9123  0.6787
 4454TIP3    H234922   2.168   4.452   1.859  0.9643  0.7908 -1.7739
 4455TIP3   OH234923   1.823   2.356   8.370  0.8598  0.1137  0.1383
 4455TIP3    H134924   1.902   2.402   8.397  0.1841  0.9419  0.7658
 4455TIP3    H234925   1.759   2.375   8.439 -0.0562 -0.0625 -0.6376
 4456TIP3   OH234926   1.559   1.568   2.271 -0.4829  0.6931 -0.1350
 4456TIP3    H134927   1.520   1.605   2.349  2.9291  3.5763  0.4513
 4456TIP3    H234928   1.541   1.632   2.202 -1.0235 -0.4358 -1.0865
 4457TIP3   OH234929   5.641   5.560   8.038  0.5532  0.2557  0.0096
 4457TIP3    H134930   5.608   5.498   7.973 -1.2297 -1.3651  2.2595
 4457TIP3    H234931   5.736   5.562   8.024  0.6002 -2.5178 -0.5926
 4458TIP3   OH234932   4.103   5.122   2.907 -0.3316 -0.5508 -0.1578
 4458TIP3    H134933   4.107   5.166   2.822 -2.3627 -0.1256 -0.0887
 4458TIP3    H234934   4.157   5.176   2.964 -0.1051 -0.0175 -0.8540
 4459TIP3   OH234935   3.101   5.025   7.780  0.1742  0.2584 -0.3476
 4459TIP3    H134936   3.079   5.112   7.811  0.2205  0.2939 -0.4146
 4459TIP3    H234937   3.052   5.015   7.698 -0.0792  0.1010 -0.1803
 4460TIP3   OH234938   6.717   3.378   7.046  0.7187  0.5765  0.1822
 4460TIP3    H134939   6.720   3.473   7.036  0.1876  0.7074  1.2293
 4460TIP3    H234940   6.676   3.363   7.131  1.1412 -0.5851  0.2044
 4461TIP3   OH234941   2.932   0.093   0.274  0.4925 -0.1162  0.5466
 4461TIP3    H134942   2.900   0.067   0.188  1.0887  0.2597  0.2035
 4461TIP3    H234943   2.853   0.114   0.324  0.1399 -0.4126  0.1176
 4462TIP3   OH234944   0.696   4.105   0.257  0.2533  0.4362  0.3275
 4462TIP3    H134945   0.756   4.062   0.319  0.4199  1.6055  1.0011
 4462TIP3    H234946   0.697   4.197   0.283  0.9814  1.1406 -1.9549
 4463TIP3   OH234947   1.131   2.700   7.522 -0.4982  0.1281  0.3337
 4463TIP3    H134948   1.070   2.735   7.456 -0.8882  0.2268  0.7436
 4463TIP3    H234949   1.207   2.670   7.471  0.3338  2.5409  0.0135
 4464TIP3   OH234950   2.508   4.102   2.647 -0.4475  0.2224 -0.0903
 4464TIP3    H134951   2.511   4.171   2.714  0.2317 -0.7783  0.9597
 4464TIP3    H234952   2.431   4.123   2.595 -0.3267  1.7036  0.2656
 4465TIP3   OH234953   0.231   1.914   7.220  0.2027 -0.4757  0.4444
 4465TIP3    H134954   0.289   1.990   7.220  1.0794 -1.1345 -0.2830
 4465TIP3    H234955   0.277   1.847   7.170 -1.2986 -0.9331 -0.4021
 4466TIP3   OH234956   3.987   3.664   7.320  0.5438 -0.4607 -0.2048
 4466TIP3    H134957   3.899   3.629   7.311  0.4291 -0.3574  0.4423
 4466TIP3    H234958   4.045   3.588   7.317  0.5623 -0.4057 -2.1316
 4467TIP3   OH234959   1.593   2.254   8.187  0.4367 -0.4138  0.0350
 4467TIP3    H134960   1.576   2.260   8.281  0.6867  0.5450  0.0322
 4467TIP3    H234961   1.542   2.325   8.148 -0.7178 -1.5985 -0.7302
 4468TIP3   OH234962   4.072   1.396   1.713 -0.0516  0.0104  1.1745
 4468TIP3    H134963   4.159   1.360   1.733 -0.1551  0.6976  3.1173
 4468TIP3    H234964   4.011   1.337   1.758 -0.3612  1.2145  2.4099
 4469TIP3   OH234965   5.817   4.698   0.749 -0.7156 -0.0685  0.6676
 4469TIP3    H134966   5.725   4.725   0.748 -0.6727  0.1025  1.2071
 4469TIP3    H234967   5.851   4.727   0.665 -1.4936 -1.3241 -0.1217
 4470TIP3   OH234968   6.600   1.143   8.063  0.5798  0.4229  0.0043
 4470TIP3    H134969   6.628   1.095   7.985 -0.2790  0.3476 -0.2706
 4470TIP3    H234970   6.594   1.234   8.035 -0.7860  0.2534 -0.3452
 4471TIP3   OH234971   1.214   5.783   1.507 -0.2782  0.2575 -0.1665
 4471TIP3    H134972   1.308   5.788   1.487 -0.1245 -0.0670  0.4526
 4471TIP3    H234973   1.203   5.699   1.551 -0.7407  0.5917  0.3650
 4472TIP3   OH234974   4.427   6.505   1.749  0.2324 -0.5839  0.6171
 4472TIP3    H134975   4.453   6.435   1.689 -0.7275  0.2788 -0.8751
 4472TIP3    H234976   4.405   6.578   1.692 -1.8950 -0.0950  1.9479
 4473TIP3   OH234977   0.961   4.386   7.251  0.5352  0.0649  0.1946
 4473TIP3    H134978   0.931   4.322   7.317 -0.5248  0.0364 -0.2853
 4473TIP3    H234979   1.042   4.420   7.287 -1.2662  2.0084  2.8725
 4474TIP3   OH234980   0.486   2.944   7.237  0.0834 -0.7366 -0.5349
 4474TIP3    H134981   0.548   2.881   7.199  1.7344  1.0422 -0.9587
 4474TIP3    H234982   0.477   3.012   7.170 -0.9434 -0.0723  0.2543
 4475TIP3   OH234983   6.643   5.573   6.292 -0.1325 -0.0353  0.2988
 4475TIP3    H134984   6.670   5.524   6.369  0.6671 -1.2514 -0.7045
 4475TIP3    H234985   6.578   5.635   6.324  2.8479  2.1765  2.6115
 4476TIP3   OH234986   5.349   5.826   8.293 -0.1298  0.0637  0.5312
 4476TIP3    H134987   5.439   5.851   8.272 -0.0132 -1.0986 -0.4585
 4476TIP3    H234988   5.345   5.830   8.389  1.5925 -1.7662  0.7611
 4477TIP3   OH234989   1.557   0.791   1.391  0.2397 -0.2500  0.6024
 4477TIP3    H134990   1.496   0.831   1.452  0.5016 -0.6528  1.1399
 4477TIP3    H234991   1.548   0.842   1.311 -1.0698 -0.5348  0.5495
 4478TIP3   OH234992   5.188   3.108   2.589 -0.3999  0.1524 -0.1423
 4478TIP3    H134993   5.252   3.143   2.651  0.5584 -1.6169 -0.0845
 4478TIP3    H234994   5.128   3.181   2.573  0.5783  1.2998  1.1987
 4479TIP3   OH234995   2.950   5.130   6.848  0.3069  0.2261 -0.2531
 4479TIP3    H134996   2.890   5.122   6.774  0.5884 -0.2748 -0.4350
 4479TIP3    H234997   3.035   5.152   6.808  0.7473 -1.2627 -0.2097
 4480TIP3   OH234998   0.090   0.726   7.270 -0.0046 -0.2000  0.2331
 4480TIP3    H134999   0.026   0.797   7.260 -0.4042 -0.7720 -1.7594
 4480TIP3    H235000   0.123   0.737   7.359 -0.0179  2.5037  0.0056
 4481TIP3   OH235001   3.513   0.487   8.066  0.6672 -0.3715 -0.0780
 4481TIP3    H135002   3.574   0.560   8.068  0.2510  0.0277 -1.1211
 4481TIP3    H235003   3.428   0.526   8.085 -0.1324  0.1139 -3.8601
 4482TIP3   OH235004   5.431   5.461   2.795 -0.1858  0.3832  0.3023
 4482TIP3    H135005   5.352   5.490   2.841 -0.2502  2.5091 -1.0304
 4482TIP3    H235006   5.464   5.388   2.848 -2.3360  0.2364  1.5676
 4483TIP3   OH235007   5.728   6.162   6.745  0.2340 -0.7604  0.4066
 4483TIP3    H135008   5.798   6.180   6.683 -1.3260 -1.4457 -1.6519
 4483TIP3    H235009   5.650   6.150   6.691 -1.3079 -0.9575  2.5407
 4484TIP3   OH235010   2.232   2.519   2.126  0.3667  0.7167 -0.1863
 4484TIP3    H135011   2.237   2.607   2.163  0.3554  0.2699  0.9003
 4484TIP3    H235012   2.322   2.486   2.131  0.3731  0.6698 -0.6021
 4485TIP3   OH235013   6.621   4.247   0.908  0.1570  0.4822  0.0452
 4485TIP3    H135014   6.559   4.208   0.846  0.5152  2.1983 -1.4587
 4485TIP3    H235015   6.654   4.172   0.958 -0.2010 -0.9783 -1.7713
 4486TIP3   OH235016   5.465   5.790   8.552  0.2815  0.3911 -0.9215
 4486TIP3    H135017   5.560   5.793   8.555  0.3689 -1.4872 -0.0375
 4486TIP3    H235018   5.443   5.704   8.589 -1.7285  0.5696 -1.5823
 4487TIP3   OH235019   4.644   1.730   6.989 -0.1581  0.3522 -0.0838
 4487TIP3    H135020   4.606   1.686   6.912  1.4506 -0.2848 -0.5467
 4487TIP3    H235021   4.711   1.670   7.020  0.8148  1.6439  0.4141
 4488TIP3   OH235022   6.691   5.514   0.906  0.2776 -0.2372  0.2013
 4488TIP3    H135023   6.671   5.420   0.905 -0.8887  0.0007  0.1584
 4488TIP3    H235024   6.776   5.520   0.863  1.1797 -1.4476  1.7013
 4489TIP3   OH235025   1.136   6.774   0.846  0.4037  0.3772  0.0511
 4489TIP3    H135026   1.146   6.826   0.766  0.5505  0.3975  0.0816
 4489TIP3    H235027   1.123   6.685   0.815  1.9366  0.1333  0.0109
 4490TIP3   OH235028   5.093   0.626   1.370 -0.0844 -0.1802  1.1208
 4490TIP3    H135029   5.180   0.658   1.394 -0.4261  0.2178  1.8759
 4490TIP3    H235030   5.101   0.600   1.278  0.9160 -0.4497  1.2692
 4491TIP3   OH235031   6.545   6.767   0.597  0.0965 -0.3068  0.0022
 4491TIP3    H135032   6.535   6.675   0.570 -2.6720  0.6011 -2.5906
 4491TIP3    H235033   6.560   6.762   0.691 -0.0517 -3.4039 -0.0116
 4492TIP3   OH235034   2.312   0.259   1.966 -0.5224  0.1128  0.2249
 4492TIP3    H135035   2.349   0.171   1.970 -2.2493 -0.6058  1.8867
 4492TIP3    H235036   2.378   0.315   2.008  0.8553 -0.2222 -1.3822
 4493TIP3   OH235037   6.324   4.442   2.470 -0.2831 -0.2155  0.0515
 4493TIP3    H135038   6.277   4.514   2.514  0.6480 -0.6946  1.9440
 4493TIP3    H235039   6.301   4.365   2.522 -0.4009 -1.1144 -1.3093
 4494TIP3   OH235040   3.496   1.302   1.984  0.5612 -0.3644 -0.5135
 4494TIP3    H135041   3.497   1.235   1.916  2.3632 -0.7090 -0.2077
 4494TIP3    H235042   3.561   1.272   2.048  0.3133  0.9232  0.3823
 4495TIP3   OH235043   0.836   4.392   7.806  0.1594  0.0638  0.2300
 4495TIP3    H135044   0.832   4.472   7.754 -1.3958 -0.8628 -1.1803
 4495TIP3    H235045   0.756   4.393   7.858  1.5445  0.8228  2.4834
 4496TIP3   OH235046   3.909   3.098   2.191 -0.3216  0.2152 -0.4715
 4496TIP3    H135047   3.890   3.191   2.207 -1.0428 -0.0111 -0.0017
 4496TIP3    H235048   3.863   3.078   2.110 -0.6352  0.1174 -0.2676
 4497TIP3   OH235049   2.323   5.342   8.540  0.3723  0.5051 -0.2581
 4497TIP3    H135050   2.400   5.286   8.527 -0.0817 -0.6184  1.5238
 4497TIP3    H235051   2.257   5.284   8.579 -0.9874  1.7123 -0.6628
 4498TIP3   OH235052   3.075   5.711   7.378 -0.1210 -0.2899 -0.6137
 4498TIP3    H135053   3.077   5.616   7.368 -1.7233 -0.4342  0.1230
 4498TIP3    H235054   3.074   5.726   7.472  0.2290  0.4676 -0.7172
 4499TIP3   OH235055   5.166   6.639   2.701 -0.1426  0.2532  0.1954
 4499TIP3    H135056   5.179   6.718   2.752 -0.0736  0.5055 -0.2074
 4499TIP3    H235057   5.138   6.573   2.765  1.1584  0.2219  0.7700
 4500TIP3   OH235058   6.740   3.548   7.489  0.4384 -0.0312 -0.0556
 4500TIP3    H135059   6.661   3.564   7.540  1.4906  0.0679  1.5864
 4500TIP3    H235060   6.777   3.467   7.525  1.3372  0.1662 -0.4865
 4501TIP3   OH235061   0.815   2.123   1.577 -0.3069 -0.1571 -0.1532
 4501TIP3    H135062   0.820   2.150   1.669  0.0117 -1.9288  0.3914
 4501TIP3    H235063   0.729   2.152   1.548 -0.0402  1.2587  0.4108
 4502TIP3   OH235064   5.459   2.721   7.921 -0.2813  0.2843 -0.1739
 4502TIP3    H135065   5.365   2.706   7.931 -0.3849  1.4268  0.7806
 4502TIP3    H235066   5.468   2.749   7.830 -1.0702  1.4341  0.0723
 4503TIP3   OH235067   3.094   0.941   8.443 -0.3079  0.2956 -0.1242
 4503TIP3    H135068   3.024   0.959   8.380 -0.2735 -2.9737 -1.3217
 4503TIP3    H235069   3.104   0.845   8.440  2.9807  0.4640  1.3635
 4504TIP3   OH235070   4.734   4.744   0.696  0.2638 -0.1879  0.9425
 4504TIP3    H135071   4.674   4.675   0.725 -0.8489  0.5107  0.3644
 4504TIP3    H235072   4.810   4.696   0.662 -0.6634 -1.1592  0.1569
 4505TIP3   OH235073   2.865   0.252   8.246  0.1060 -0.3261 -0.8527
 4505TIP3    H135074   2.793   0.201   8.283 -2.1177  2.3720 -1.1949
 4505TIP3    H235075   2.942   0.195   8.257 -1.8045 -2.8473  0.6227
 4506TIP3   OH235076   5.781   1.056   1.891  0.1236  0.2459  0.2291
 4506TIP3    H135077   5.850   1.106   1.935  0.9081 -1.0772  0.5700
 4506TIP3    H235078   5.760   1.108   1.813  1.6571  0.6045  0.0016
 4507TIP3   OH235079   6.015   6.736   1.271 -0.0247  0.3557 -0.4317
 4507TIP3    H135080   6.010   6.825   1.236  1.4450  0.8542  0.5238
 4507TIP3    H235081   5.958   6.684   1.215  1.9860  1.1507 -3.4359
 4508TIP3   OH235082   0.311   5.009   8.469  0.3672  0.2455 -0.4881
 4508TIP3    H135083   0.384   5.033   8.412 -0.4633 -0.5731 -1.9743
 4508TIP3    H235084   0.280   4.926   8.432 -0.0406 -0.4569  1.3553
 4509TIP3   OH235085   1.286   6.822   2.505  0.2580 -0.5097  0.1397
 4509TIP3    H135086   1.333   6.871   2.573  2.5170 -0.9107 -1.0193
 4509TIP3    H235087   1.305   6.730   2.523 -0.4936 -0.7235 -0.1088
 4510TIP3   OH235088   0.998   6.890   7.556 -0.5816  0.2505  0.0336
 4510TIP3    H135089   1.015   6.976   7.593 -2.2441  1.1287 -1.1015
 4510TIP3    H235090   1.027   6.896   7.465 -1.1372 -0.2216 -0.1863
 4511TIP3   OH235091   5.695   6.881   2.623  0.3262  0.3144 -0.4002
 4511TIP3    H135092   5.625   6.842   2.571  0.1290  0.7371 -0.4553
 4511TIP3    H235093   5.694   6.974   2.600 -0.8481  0.8342  1.5518
 4512TIP3   OH235094   6.766   4.984   1.071 -0.1014 -0.0809  0.4063
 4512TIP3    H135095   6.769   4.949   0.983 -0.8097 -0.7050  0.6232
 4512TIP3    H235096   6.783   4.909   1.128 -2.5673 -0.3378  0.9190
 4513TIP3   OH235097   2.689   3.370   7.374 -0.3558 -0.4559  0.6640
 4513TIP3    H135098   2.738   3.304   7.326 -0.6291 -0.4168  0.3324
 4513TIP3    H235099   2.687   3.446   7.316 -0.8462 -0.4730  0.6561
 4514TIP3   OH235100   2.020   2.992   0.223 -0.2333 -0.4859  0.3489
 4514TIP3    H135101   2.002   3.005   0.316  1.3291 -1.0231  0.7547
 4514TIP3    H235102   2.110   3.021   0.212 -0.9971  1.4744 -1.4277
 4515TIP3   OH235103   2.164   5.366   1.932  0.3992  0.0009 -0.4541
 4515TIP3    H135104   2.089   5.411   1.970 -0.4149 -1.3290 -0.4126
 4515TIP3    H235105   2.178   5.409   1.848  0.8692  1.5656  0.4018
 4516TIP3   OH235106   5.989   2.325   1.272 -0.1817 -0.9428 -0.4075
 4516TIP3    H135107   5.941   2.264   1.216 -3.7473  0.1022  1.2518
 4516TIP3    H235108   5.931   2.342   1.346  1.4436  2.8864  0.2670
 4517TIP3   OH235109   6.523   0.296   6.171  0.4223  0.1797 -0.5578
 4517TIP3    H135110   6.615   0.285   6.195  0.4307  0.9846 -0.1973
 4517TIP3    H235111   6.524   0.305   6.075  0.7654  0.5825 -0.5204
 4518TIP3   OH235112   5.949   1.971   6.712 -0.0823 -0.3067 -0.0982
 4518TIP3    H135113   5.999   2.011   6.784 -0.0841 -1.4885  0.5944
 4518TIP3    H235114   6.012   1.963   6.641 -0.3184  1.7538 -0.6031
 4519TIP3   OH235115   6.871   6.642   8.016 -0.0892  0.0822  0.0934
 4519TIP3    H135116   6.913   6.706   8.074  0.1688 -0.8096  0.9273
 4519TIP3    H235117   6.860   6.688   7.933  0.4750  1.0652  0.5465
 4520TIP3   OH235118   2.834   1.533   1.725 -0.6113  0.7484  0.9714
 4520TIP3    H135119   2.830   1.598   1.795 -2.6013  1.9700 -0.1835
 4520TIP3    H235120   2.761   1.474   1.743 -0.2979  0.2616  0.6600
 4521TIP3   OH235121   1.643   5.945   3.209  0.2830 -0.6680  0.0504
 4521TIP3    H135122   1.571   5.954   3.271  0.4215  0.1634  0.1034
 4521TIP3    H235123   1.627   5.861   3.165 -0.5164 -0.6580  0.3098
 4522TIP3   OH235124   2.572   0.832   2.620 -0.2771 -0.2034  0.0669
 4522TIP3    H135125   2.529   0.907   2.579 -0.8991 -0.3831  0.3740
 4522TIP3    H235126   2.536   0.756   2.575 -2.1749 -0.5025  1.9418
 4523TIP3   OH235127   5.389   2.039   8.004 -0.1170 -0.3567  0.0515
 4523TIP3    H135128   5.450   2.100   7.962 -0.6302 -0.7775 -1.3879
 4523TIP3    H235129   5.305   2.056   7.961 -0.6121 -0.9971  0.7429
 4524TIP3   OH235130   1.767   3.348   1.279  0.8314 -0.1459 -0.5357
 4524TIP3    H135131   1.833   3.415   1.294  0.9461 -0.5849  1.1172
 4524TIP3    H235132   1.794   3.274   1.334 -1.5588  0.0458  1.0278
 4525TIP3   OH235133   5.561   4.948   0.952 -0.2875 -0.1002  0.0693
 4525TIP3    H135134   5.601   4.999   0.882  2.2894 -1.3605  0.4615
 4525TIP3    H235135   5.541   4.863   0.912  1.5241 -0.9520  0.8061
 4526TIP3   OH235136   1.701   3.257   1.796  0.3464  0.6320 -0.0314
 4526TIP3    H135137   1.661   3.300   1.871 -1.3607  2.0966 -1.6876
 4526TIP3    H235138   1.647   3.283   1.722  1.2159 -1.7617 -1.6214
 4527TIP3   OH235139   0.486   2.124   1.042  0.2719 -0.2611  0.4178
 4527TIP3    H135140   0.527   2.210   1.040 -1.6833  0.7949  2.2823
 4527TIP3    H235141   0.419   2.130   1.111  0.3817 -3.4154  0.9547
 4528TIP3   OH235142   5.184   4.131   7.629 -0.1207 -0.2522 -0.2969
 4528TIP3    H135143   5.161   4.215   7.588 -1.1348 -0.9935 -1.2992
 4528TIP3    H235144   5.266   4.106   7.586 -0.5378 -0.4329 -0.9922
 4529TIP3   OH235145   2.310   5.019   2.018 -0.2651  0.0638  0.3004
 4529TIP3    H135146   2.347   5.045   2.102  1.2161 -0.5466 -0.1362
 4529TIP3    H235147   2.329   4.925   2.011 -1.8248 -0.2699 -0.0037
 4530TIP3   OH235148   6.486   3.520   7.585  0.3199 -0.4017 -0.6133
 4530TIP3    H135149   6.444   3.440   7.616 -0.7399  1.0721  2.1427
 4530TIP3    H235150   6.434   3.591   7.624  2.2823  1.6017 -1.4254
 4531TIP3   OH235151   0.225   5.390   1.229  0.1781  0.1250  0.9302
 4531TIP3    H135152   0.130   5.386   1.237  0.3303 -1.7731  2.9069
 4531TIP3    H235153   0.251   5.299   1.212  1.6963  0.3930  1.6783
 4532TIP3   OH235154   5.842   5.394   0.752  0.1492 -0.9256  0.4840
 4532TIP3    H135155   5.811   5.401   0.842  0.0807  1.7343  0.3347
 4532TIP3    H235156   5.879   5.481   0.732  0.5514 -1.5574 -1.9133
 4533TIP3   OH235157   4.050   4.535   1.022  0.3488 -0.1777  0.6109
 4533TIP3    H135158   4.082   4.617   0.986  0.2983 -0.1635  0.5991
 4533TIP3    H235159   4.126   4.476   1.019  0.2168 -0.3222  0.0321
 4534TIP3   OH235160   0.997   6.019   0.737 -0.4381 -0.0053  0.2476
 4534TIP3    H135161   1.074   6.057   0.779  0.6752 -1.2820 -0.5786
 4534TIP3    H235162   0.949   5.978   0.809  0.2609 -0.2178  0.6041
 4535TIP3   OH235163   5.924   4.514   7.512 -0.4266 -0.5702  0.4574
 4535TIP3    H135164   5.997   4.527   7.452 -0.0549 -1.1601  0.7787
 4535TIP3    H235165   5.850   4.557   7.468 -0.1245 -0.8407 -0.3414
 4536TIP3   OH235166   0.597   4.535   6.989  0.2054 -0.8830  0.3364
 4536TIP3    H135167   0.543   4.591   6.935  0.0608 -0.2925  1.0774
 4536TIP3    H235168   0.577   4.446   6.959 -1.8452 -0.7543  1.1763
 4537TIP3   OH235169   6.361   5.280   2.343 -0.6054  0.2434  0.0751
 4537TIP3    H135170   6.309   5.261   2.422  0.4950 -1.9220  0.3569
 4537TIP3    H235171   6.382   5.194   2.307  1.9079  1.0611 -0.5906
 4538TIP3   OH235172   0.432   2.334   1.955 -0.1337 -0.4386 -0.0656
 4538TIP3    H135173   0.421   2.315   2.049  1.0612 -2.0468 -0.2102
 4538TIP3    H235174   0.512   2.386   1.950 -0.9132  0.7956 -0.1032
 4539TIP3   OH235175   4.272   1.727   1.296  0.4563 -0.3167 -0.0842
 4539TIP3    H135176   4.361   1.696   1.308  0.7786 -0.3434 -2.1429
 4539TIP3    H235177   4.266   1.747   1.202 -2.1683 -1.9289 -0.3790
 4540TIP3   OH235178   0.157   4.882   7.423 -0.2030 -0.2169  0.2714
 4540TIP3    H135179   0.127   4.798   7.458 -0.1113 -0.0120  0.8533
 4540TIP3    H235180   0.250   4.867   7.402 -1.0796 -1.4712 -3.4433
 4541TIP3   OH235181   4.263   0.068   1.932  0.6938  0.1453  0.0492
 4541TIP3    H135182   4.266   0.047   2.026  0.6400 -2.1085 -0.3939
 4541TIP3    H235183   4.353   0.093   1.910  0.3703  2.3333  0.9948
 4542TIP3   OH235184   4.898   2.529   1.969 -0.2413 -0.5669  0.3528
 4542TIP3    H135185   4.967   2.534   2.035 -2.0420  0.1267  2.3017
 4542TIP3    H235186   4.932   2.467   1.904  2.7756  0.8351  0.4361
 4543TIP3   OH235187   4.388   5.945   0.300 -0.5174  0.4937 -0.8901
 4543TIP3    H135188   4.304   5.923   0.341 -0.5877  1.9558 -0.1913
 4543TIP3    H235189   4.364   5.973   0.212 -0.3180 -3.2025 -2.3112
 4544TIP3   OH235190   0.395   1.293   7.677 -0.0441 -0.4086 -0.3702
 4544TIP3    H135191   0.448   1.213   7.671  1.4706  0.5372 -0.1825
 4544TIP3    H235192   0.417   1.329   7.763 -1.2920 -0.1676 -0.1424
 4545TIP3   OH235193   6.493   6.108   1.270  0.8521 -0.3115  0.4195
 4545TIP3    H135194   6.565   6.060   1.229  0.8633 -0.4893  0.6421
 4545TIP3    H235195   6.511   6.102   1.364  1.5795  1.2548  0.4225
 4546TIP3   OH235196   2.831   6.752   1.122 -0.6660 -0.3081  0.0577
 4546TIP3    H135197   2.899   6.783   1.183  0.6559 -0.3594 -1.3279
 4546TIP3    H235198   2.807   6.666   1.155  1.0129 -0.9246 -0.2008
 4547TIP3   OH235199   3.430   0.938   0.873 -0.1099 -1.0025  0.4685
 4547TIP3    H135200   3.390   0.860   0.834  1.7996 -1.2807 -1.1133
 4547TIP3    H235201   3.513   0.907   0.909  1.3651  0.4562 -1.4384
 4548TIP3   OH235202   3.652   3.847   1.230 -0.6948  0.0180  0.3620
 4548TIP3    H135203   3.560   3.854   1.257 -0.9746  0.6038 -0.6922
 4548TIP3    H235204   3.651   3.786   1.157 -0.0909 -0.7329  0.9663
 4549TIP3   OH235205   6.680   5.194   1.224  0.0913  0.7533  0.0787
 4549TIP3    H135206   6.673   5.161   1.313 -1.9554 -2.1935 -0.9856
 4549TIP3    H235207   6.711   5.119   1.173 -1.3631  1.4780 -2.0481
 4550TIP3   OH235208   3.795   4.880   7.476  0.5767 -0.2027  0.3258
 4550TIP3    H135209   3.860   4.812   7.496  1.6443  1.1399  1.6147
 4550TIP3    H235210   3.836   4.961   7.505 -1.0562  0.8920 -0.3283
 4551TIP3   OH235211   2.692   5.676   7.938 -0.1213 -0.7189  0.6310
 4551TIP3    H135212   2.694   5.631   7.853  0.5405 -1.1929  0.8894
 4551TIP3    H235213   2.599   5.683   7.959 -0.2729 -1.0283  0.0913
 4552TIP3   OH235214   6.628   6.379   2.105 -0.1494 -0.2306 -0.1699
 4552TIP3    H135215   6.706   6.429   2.129  0.3107 -0.1179 -1.8296
 4552TIP3    H235216   6.642   6.355   2.014 -0.4225 -3.2445  0.4755
 4553TIP3   OH235217   5.952   0.119   1.412  0.0682 -0.0848 -0.3503
 4553TIP3    H135218   5.898   0.042   1.431  0.4423 -0.2764 -0.0445
 4553TIP3    H235219   6.008   0.128   1.490  0.3227  0.2383 -0.5718
 4554TIP3   OH235220   2.608   0.681   0.328  0.1592  0.0586 -0.2377
 4554TIP3    H135221   2.689   0.689   0.277  1.6850  0.2716  2.0870
 4554TIP3    H235222   2.636   0.645   0.412 -1.7825  2.1428  1.4426
 4555TIP3   OH235223   6.310   3.214   7.259  0.5926 -0.1198 -0.3023
 4555TIP3    H135224   6.293   3.248   7.346 -0.0604 -1.5731  0.1606
 4555TIP3    H235225   6.226   3.177   7.230  1.1347 -0.8605 -0.9867
 4556TIP3   OH235226   5.804   2.931   0.206 -0.2103 -0.5054  0.0417
 4556TIP3    H135227   5.780   2.843   0.235 -0.5235 -0.6489 -0.6378
 4556TIP3    H235228   5.887   2.949   0.251  0.1127 -1.3500 -0.1878
 4557TIP3   OH235229   0.851   1.329   6.671 -0.5851  0.4566 -0.6762
 4557TIP3    H135230   0.930   1.283   6.699 -0.2090  0.3255 -1.9058
 4557TIP3    H235231   0.807   1.352   6.753  0.3399 -0.1270  0.0106
 4558TIP3   OH235232   1.241   6.743   1.092  0.1613  0.1648  0.4950
 4558TIP3    H135233   1.153   6.781   1.093 -0.4577 -1.1934  1.4348
 4558TIP3    H235234   1.269   6.749   1.001 -0.1470  2.2432  0.5081
 4559TIP3   OH235235   5.845   0.940   7.187  0.1652  0.1589  0.2490
 4559TIP3    H135236   5.911   0.897   7.133  1.6980  0.5952  1.7049
 4559TIP3    H235237   5.894   0.978   7.260 -1.7469  0.1116  1.6362
 4560TIP3   OH235238   2.206   6.424   7.637  0.0773 -0.2912  0.4106
 4560TIP3    H135239   2.170   6.336   7.649 -1.7219  0.4554  0.7871
 4560TIP3    H235240   2.167   6.455   7.556  0.2111  0.3878  0.6000
 4561TIP3   OH235241   4.770   6.756   1.045 -0.5450 -0.3601 -0.0406
 4561TIP3    H135242   4.767   6.755   0.949  1.5229 -2.0058 -0.1533
 4561TIP3    H235243   4.704   6.692   1.071 -2.1074  1.0911 -0.2531
 4562TIP3   OH235244   6.493   1.452   0.038 -0.2394 -0.5553  0.0924
 4562TIP3    H135245   6.459   1.427  -0.048 -0.1963  1.2845 -0.5141
 4562TIP3    H235246   6.492   1.371   0.089 -0.9546 -1.5409 -1.4056
 4563TIP3   OH235247   6.300   1.172   1.497 -0.0002 -0.2581 -0.4133
 4563TIP3    H135248   6.354   1.132   1.565 -0.3038  0.7204  0.4336
 4563TIP3    H235249   6.349   1.249   1.469 -0.2664 -0.1900 -0.7015
 4564TIP3   OH235250   6.462   2.336   0.762 -0.0786 -0.0269 -0.3591
 4564TIP3    H135251   6.371   2.366   0.764  0.7441  2.7475 -1.1245
 4564TIP3    H235252   6.460   2.256   0.709 -2.3815 -1.5396  1.7584
 4565TIP3   OH235253   4.145   6.510   0.509 -0.0904  0.2278  0.7118
 4565TIP3    H135254   4.231   6.550   0.495 -0.4115  0.5759 -0.3578
 4565TIP3    H235255   4.158   6.418   0.486  0.0719  0.2119  0.8641
 4566TIP3   OH235256   5.368   4.949   0.394 -0.1920 -0.4449 -0.0162
 4566TIP3    H135257   5.392   4.874   0.447 -1.3371  0.2202  1.5167
 4566TIP3    H235258   5.370   5.023   0.454  1.3882  0.8944 -1.5803
 4567TIP3   OH235259   1.190   5.985   2.655 -0.3279 -0.0403  0.0575
 4567TIP3    H135260   1.201   6.080   2.667 -0.4109  0.1334 -1.1135
 4567TIP3    H235261   1.268   5.947   2.693 -0.5250  0.4628  0.9987
 4568TIP3   OH235262   3.560   4.979   1.218 -0.0888  0.1225  0.4231
 4568TIP3    H135263   3.605   5.063   1.229 -0.0740 -0.0813  2.1793
 4568TIP3    H235264   3.467   5.001   1.223 -0.0760 -0.0659  2.0688
 4569TIP3   OH235265   6.788   3.805   0.019 -0.4930  0.1496  1.0565
 4569TIP3    H135266   6.694   3.818   0.034 -0.8198 -0.1342 -0.5698
 4569TIP3    H235267   6.796   3.798  -0.076  1.2129  0.3447  1.1627
 4570TIP3   OH235268   2.150   5.237   2.271 -0.0160  0.3976  0.0805
 4570TIP3    H135269   2.187   5.321   2.298 -0.6189  0.6291  0.2026
 4570TIP3    H235270   2.224   5.177   2.270  0.4777  1.0132 -0.3327
 4571TIP3   OH235271   0.959   5.425   2.248 -0.0150 -0.2576 -0.1944
 4571TIP3    H135272   0.962   5.520   2.259 -2.8447 -0.2153  1.1351
 4571TIP3    H235273   0.975   5.390   2.336 -0.3708 -0.9492 -0.3972
 4572TIP3   OH235274   2.158   6.282   2.006  0.1838  0.3532 -0.5963
 4572TIP3    H135275   2.073   6.323   1.992  0.5405  1.6348  0.7589
 4572TIP3    H235276   2.220   6.339   1.961  0.8197  2.0693  2.2501
 4573TIP3   OH235277   1.580   0.623   8.401  0.0397 -0.3967 -0.2769
 4573TIP3    H135278   1.649   0.687   8.383 -1.5517  2.9472  3.6927
 4573TIP3    H235279   1.503   0.658   8.357  0.0799 -2.3275 -1.9951
 4574TIP3   OH235280   1.980   4.502   1.892 -0.3105  0.1573  0.5609
 4574TIP3    H135281   1.915   4.498   1.822  0.3210  0.2815 -0.0520
 4574TIP3    H235282   1.995   4.595   1.907  0.7968  0.1513 -0.3515
 4575TIP3   OH235283   1.065   2.895   0.344  0.0738 -0.2425  0.4854
 4575TIP3    H135284   1.132   2.960   0.366 -0.6777 -0.3245  3.3587
 4575TIP3    H235285   1.034   2.862   0.428 -4.1300  0.3372 -0.6033
 4576TIP3   OH235286   2.041   0.960   7.479  0.8673 -0.5564 -0.1096
 4576TIP3    H135287   1.967   0.949   7.538  1.5207 -2.5509  0.4230
 4576TIP3    H235288   2.099   1.021   7.523  0.9182 -1.3228  0.9220
 4577TIP3   OH235289   6.121   3.305   0.281 -0.5316 -0.1592 -0.1437
 4577TIP3    H135290   6.047   3.347   0.237 -0.3910 -0.2002 -0.4267
 4577TIP3    H235291   6.091   3.215   0.298 -1.1850  0.3123  1.3353
 4578TIP3   OH235292   1.943   6.863   1.550  0.3585  0.4866  0.4991
 4578TIP3    H135293   1.868   6.909   1.587  0.2601  0.4399  0.3558
 4578TIP3    H235294   2.017   6.894   1.602  0.5152  1.9005 -0.5056
 4579TIP3   OH235295   6.788   4.597   8.626 -0.1877  0.7292 -0.8251
 4579TIP3    H135296   6.796   4.686   8.660 -2.4235  0.6759 -0.0298
 4579TIP3    H235297   6.801   4.541   8.702  0.2668  0.4016 -1.1403
 4580TIP3   OH235298   6.543   6.237   7.579  0.2032  0.1604  0.4165
 4580TIP3    H135299   6.484   6.308   7.605  0.7500  1.1348 -0.8538
 4580TIP3    H235300   6.565   6.193   7.660 -0.9229  0.8366  1.1279
 4581TIP3   OH235301   3.012   5.372   0.509  0.1478 -0.1494 -0.2541
 4581TIP3    H135302   2.966   5.455   0.495 -2.4521 -1.3812  0.4734
 4581TIP3    H235303   2.985   5.345   0.597  1.7709 -1.3094 -0.0771
 4582TIP3   OH235304   5.457   3.538   2.705  0.0152  0.0565  0.2772
 4582TIP3    H135305   5.389   3.501   2.761  3.2289 -1.8951  3.3641
 4582TIP3    H235306   5.520   3.576   2.767  1.2122  2.9559 -2.4268
 4583TIP3   OH235307   6.618   6.112   0.118  0.3277  0.2575  0.6200
 4583TIP3    H135308   6.693   6.106   0.178 -0.3346 -0.0516  1.4415
 4583TIP3    H235309   6.630   6.039   0.057  0.6428  0.1525  0.8028
 4584TIP3   OH235310   6.106   1.141   1.761  0.1532 -0.4225 -0.5603
 4584TIP3    H135311   6.188   1.175   1.794  0.6200 -0.5617 -1.5440
 4584TIP3    H235312   6.052   1.219   1.746 -0.2315 -0.3763  0.8812
 4585TIP3   OH235313   1.449   2.697   1.833  0.6261 -0.3440 -0.1805
 4585TIP3    H135314   1.508   2.628   1.802  0.5130 -1.0190  1.0434
 4585TIP3    H235315   1.363   2.672   1.801  0.6366 -0.6103 -0.0050
 4586TIP3   OH235316   2.971   0.155   7.684 -0.2597 -0.0363  0.0782
 4586TIP3    H135317   2.892   0.165   7.630  1.0025 -1.5131 -2.2183
 4586TIP3    H235318   3.002   0.067   7.665  2.2443  0.6909  0.4403
 4587TIP3   OH235319   0.957   1.120   8.150 -0.5260  0.4604 -0.4238
 4587TIP3    H135320   0.974   1.031   8.180 -1.7400  0.5830  0.7117
 4587TIP3    H235321   1.044   1.159   8.139 -0.0005 -0.3792  0.5805
 4588TIP3   OH235322   3.861   1.866   0.823  1.0030  0.2081  0.3633
 4588TIP3    H135323   3.773   1.846   0.791  0.3878 -0.2597  2.2395
 4588TIP3    H235324   3.882   1.795   0.883  1.7473  1.4280  1.6115
 4589TIP3   OH235325   3.926   4.589   8.084 -0.1548  1.5235  0.0641
 4589TIP3    H135326   3.921   4.563   7.992 -0.2564 -1.0244  0.7264
 4589TIP3    H235327   4.008   4.637   8.091  0.9570 -0.1290 -0.9628
 4590TIP3   OH235328   3.495   1.433   8.431  0.1607  0.6915  0.2127
 4590TIP3    H135329   3.481   1.374   8.505  0.2306  2.0240  1.3223
 4590TIP3    H235330   3.406   1.453   8.400  0.1434 -1.8881 -1.8150
 4591TIP3   OH235331   3.319   4.126   0.726  0.2598 -0.3309  0.0850
 4591TIP3    H135332   3.261   4.121   0.650  0.0233 -0.4033  0.2695
 4591TIP3    H235333   3.349   4.217   0.728  1.5607 -0.6984 -1.0529
 4592TIP3   OH235334   1.388   4.942   1.654  0.0373  0.8434 -0.0270
 4592TIP3    H135335   1.297   4.971   1.655 -0.4461 -0.5592  1.6722
 4592TIP3    H235336   1.438   5.020   1.632 -1.4492  2.0956  0.8437
 4593TIP3   OH235337   4.815   4.711   8.088 -0.1234 -0.5114 -0.0397
 4593TIP3    H135338   4.881   4.650   8.056 -0.9863 -1.5643  0.1471
 4593TIP3    H235339   4.853   4.798   8.072  1.9595 -1.0780  1.4120
 4594TIP3   OH235340   6.218   2.366   2.342 -0.8181  0.7669 -0.0287
 4594TIP3    H135341   6.310   2.393   2.329 -1.0658  1.1034 -1.2245
 4594TIP3    H235342   6.204   2.298   2.276 -1.7776  1.6135 -0.7326
 4595TIP3   OH235343   1.576   1.951   8.446  0.9121  0.3345 -0.0238
 4595TIP3    H135344   1.597   1.883   8.510  2.0673 -0.5011 -1.2457
 4595TIP3    H235345   1.616   1.921   8.364 -3.8132 -0.7761 -2.3391
 4596TIP3   OH235346   0.177   4.398   6.986 -0.3300 -0.0736 -0.5322
 4596TIP3    H135347   0.158   4.341   7.060  0.4997 -0.4250 -0.5812
 4596TIP3    H235348   0.097   4.397   6.933 -0.8411 -0.0062  0.2318
 4597TIP3   OH235349   4.236   0.180   1.594  0.0879 -0.6255  0.0768
 4597TIP3    H135350   4.320   0.135   1.600  0.9189  1.0395  3.2536
 4597TIP3    H235351   4.171   0.110   1.607  1.0730 -1.6354 -0.3220
 4598TIP3   OH235352   1.899   3.663   7.724 -0.2425 -0.2927  0.5316
 4598TIP3    H135353   1.835   3.600   7.756  1.9432 -2.4957  0.9058
 4598TIP3    H235354   1.917   3.637   7.634 -0.8464  1.1877 -0.0548
 4599TIP3   OH235355   3.366   6.670   7.482 -0.3323  0.5323  0.1714
 4599TIP3    H135356   3.376   6.743   7.421  1.5198 -0.8908 -1.3393
 4599TIP3    H235357   3.354   6.593   7.426 -0.4592 -0.5925  1.6762
 4600TIP3   OH235358   3.824   5.173   7.474  0.5062  0.1687 -0.0228
 4600TIP3    H135359   3.810   5.235   7.546 -2.1334 -0.8258  0.4223
 4600TIP3    H235360   3.786   5.217   7.398 -1.2090 -0.7594  0.2579
 4601TIP3   OH235361   3.393   0.241   0.391 -0.2086 -0.3890 -0.4972
 4601TIP3    H135362   3.328   0.176   0.368 -0.9711 -0.0742  0.6762
 4601TIP3    H235363   3.355   0.289   0.465  2.3072 -1.7603  1.8809
 4602TIP3   OH235364   3.588   1.137   7.755 -0.2217  0.1834 -0.7818
 4602TIP3    H135365   3.627   1.084   7.684 -1.2584 -1.4231 -0.2032
 4602TIP3    H235366   3.640   1.218   7.755  1.0062 -0.5439 -2.1444
 4603TIP3   OH235367   2.646   4.555   8.268  0.5722  0.0774  0.5524
 4603TIP3    H135368   2.565   4.525   8.226 -0.5739  0.1631  2.5282
 4603TIP3    H235369   2.675   4.480   8.320 -0.0518  1.0181  2.3424
 4604TIP3   OH235370   2.564   4.753   0.690 -0.0403  0.4686  0.1823
 4604TIP3    H135371   2.560   4.686   0.758  0.2386  0.0453 -0.2058
 4604TIP3    H235372   2.527   4.831   0.730  1.2333  0.5717  1.2246
 4605TIP3   OH235373   5.134   0.901   1.528  0.1610 -0.1009  0.1198
 4605TIP3    H135374   5.146   0.955   1.450 -0.1242  2.0139  1.4775
 4605TIP3    H235375   5.041   0.878   1.528 -0.2204  1.3449  0.6916
 4606TIP3   OH235376   0.277   0.984   7.921 -0.5038 -0.4843 -0.4384
 4606TIP3    H135377   0.298   1.061   7.974 -1.3379 -1.1445  0.9084
 4606TIP3    H235378   0.191   1.004   7.883 -0.3260 -0.3927 -0.7914
 4607TIP3   OH235379   2.031   2.611   2.911 -0.1771  0.2763 -0.0690
 4607TIP3    H135380   1.956   2.591   2.967  0.4937  0.5852  0.9646
 4607TIP3    H235381   2.003   2.687   2.859 -1.4197 -1.0194 -1.4160
 4608TIP3   OH235382   5.374   5.991   6.729  0.0255 -0.5658  0.0377
 4608TIP3    H135383   5.402   6.079   6.756 -1.5110 -0.2800  0.7978
 4608TIP3    H235384   5.297   6.006   6.675  0.1504 -1.4237 -0.3898
 4609TIP3   OH235385   6.741   5.391   2.701  0.3388 -0.1926  0.1881
 4609TIP3    H135386   6.738   5.484   2.676  1.2893 -0.8862 -2.9383
 4609TIP3    H235387   6.652   5.360   2.686  0.1417  0.1046  0.7398
 4610TIP3   OH235388   2.177   4.676   0.860 -0.1468  0.4441  0.0008
 4610TIP3    H135389   2.191   4.583   0.841 -2.2463  0.1564 -0.3267
 4610TIP3    H235390   2.180   4.718   0.775  0.0725  0.5781  0.0740
 4611TIP3   OH235391   0.251   2.288   1.506 -0.2603  0.2548 -0.7873
 4611TIP3    H135392   0.158   2.276   1.485  0.0202 -0.9616 -1.4388
 4611TIP3    H235393   0.257   2.377   1.538 -1.3327  1.0516 -2.6317
 4612TIP3   OH235394   4.351   1.158   0.701 -0.3852  0.5221 -0.2065
 4612TIP3    H135395   4.381   1.078   0.743 -1.2409 -0.1051 -0.7550
 4612TIP3    H235396   4.287   1.129   0.636  0.0276  1.5638 -1.1111
 4613TIP3   OH235397   0.361   0.885   0.748  0.3875 -0.6577 -0.1020
 4613TIP3    H135398   0.299   0.873   0.820 -0.7462  0.5339 -0.8274
 4613TIP3    H235399   0.382   0.796   0.719 -1.6541 -1.1166 -0.3473
 4614TIP3   OH235400   4.406   2.806   7.251  0.1481 -0.5218 -0.1446
 4614TIP3    H135401   4.493   2.811   7.210 -0.7135 -1.8353 -2.2873
 4614TIP3    H235402   4.347   2.848   7.189 -0.6594  1.3839  1.8054
 4615TIP3   OH235403   6.578   5.566   7.538  0.1100 -0.3014 -0.5585
 4615TIP3    H135404   6.624   5.605   7.464  0.3262  0.4036 -0.0649
 4615TIP3    H235405   6.522   5.637   7.571 -0.0899 -0.6539 -0.1322
 4616TIP3   OH235406   0.779   0.911   0.022 -0.4034  0.1871 -0.2484
 4616TIP3    H135407   0.717   0.905  -0.050 -1.7338  1.8252  0.6803
 4616TIP3    H235408   0.742   0.855   0.090 -0.6083  0.7573  0.1175
 4617TIP3   OH235409   0.769   0.778   0.490  0.1097 -0.3435 -0.3188
 4617TIP3    H135410   0.747   0.709   0.553 -0.8180 -0.1951 -0.4639
 4617TIP3    H235411   0.789   0.855   0.544  0.9119 -0.6526 -0.1650
 4618TIP3   OH235412   5.238   2.426   1.887 -0.1732  0.0912  0.0451
 4618TIP3    H135413   5.207   2.516   1.880  1.3532  0.6787  0.6450
 4618TIP3    H235414   5.275   2.406   1.801  0.8284  0.5628  0.3553
 4619TIP3   OH235415   2.823   4.279   1.002  0.1114 -0.1920 -0.7231
 4619TIP3    H135416   2.908   4.291   1.044 -0.5245 -1.5393  1.0786
 4619TIP3    H235417   2.836   4.310   0.913  1.7184  2.1690  0.2364
 4620TIP3   OH235418   1.361   3.069   8.369  0.9811 -0.8694 -0.0473
 4620TIP3    H135419   1.415   3.118   8.306  1.1139  0.9450  1.3880
 4620TIP3    H235420   1.385   2.978   8.355  1.4358 -0.4849 -2.2027
 4621TIP3   OH235421   2.774   2.799   2.827 -0.0695 -0.0129 -0.1614
 4621TIP3    H135422   2.706   2.858   2.796  1.1742  2.1714  1.0176
 4621TIP3    H235423   2.837   2.795   2.755 -0.3393 -0.2237 -0.3878
 4622TIP3   OH235424   0.982   3.594   8.219 -0.0610 -0.0064 -0.4633
 4622TIP3    H135425   0.981   3.684   8.187  0.0443 -0.6118 -2.2410
 4622TIP3    H235426   0.891   3.565   8.213  0.1103 -0.4250 -1.1106
 4623TIP3   OH235427   2.531   3.081   1.019  0.6619 -0.1635  0.1242
 4623TIP3    H135428   2.540   3.029   1.099  1.9810 -1.1860 -0.6418
 4623TIP3    H235429   2.450   3.130   1.031  0.1905 -1.2246  1.5489
 4624TIP3   OH235430   1.727   3.786   7.165 -0.0364 -0.4255  0.3109
 4624TIP3    H135431   1.740   3.692   7.176 -1.9535 -0.7079  0.4547
 4624TIP3    H235432   1.752   3.803   7.074 -3.1781 -1.8203 -0.9499
 4625TIP3   OH235433   0.630   6.635   1.638  0.1659  0.3971  0.0318
 4625TIP3    H135434   0.697   6.701   1.655  0.8584 -0.3641  0.3217
 4625TIP3    H235435   0.596   6.612   1.725 -0.4557  0.7641 -0.1126
 4626TIP3   OH235436   0.050   1.489   1.541 -0.1600  0.0112 -0.3527
 4626TIP3    H135437   0.086   1.543   1.611  1.1236 -0.7226 -0.4117
 4626TIP3    H235438   0.099   1.515   1.463 -0.2876 -0.4759 -0.5978
 4627TIP3   OH235439   1.077   2.266   0.028 -0.3645  0.2394  0.2385
 4627TIP3    H135440   1.140   2.312  -0.028  1.1295 -2.7510 -0.7439
 4627TIP3    H235441   1.002   2.249  -0.030  0.6111 -1.6538 -0.5358
 4628TIP3   OH235442   1.729   3.106   0.830 -0.4231 -0.1094 -0.1154
 4628TIP3    H135443   1.708   3.013   0.820 -1.1686 -0.0269  0.5621
 4628TIP3    H235444   1.766   3.113   0.918 -1.3055  0.3835  0.2270
 4629TIP3   OH235445   4.814   2.869   1.177 -0.4521  0.1612 -0.6209
 4629TIP3    H135446   4.857   2.831   1.253 -2.2788  0.9822  0.9130
 4629TIP3    H235447   4.882   2.921   1.134  0.6664 -0.4656  0.3553
 4630TIP3   OH235448   2.744   1.515   6.944  0.4685  0.0265  0.3259
 4630TIP3    H135449   2.751   1.558   6.858  1.8849 -1.5890 -0.4500
 4630TIP3    H235450   2.793   1.572   7.003 -0.0189  0.8582 -0.0553
 4631TIP3   OH235451   6.133   3.820   0.092  0.1725 -0.5893 -0.3164
 4631TIP3    H135452   6.161   3.798   0.181  1.3110  0.8975 -0.2716
 4631TIP3    H235453   6.043   3.788   0.087 -0.4862  0.6930  1.9254
 4632TIP3   OH235454   0.733   6.765   8.447  0.8356 -0.3802  1.0614
 4632TIP3    H135455   0.720   6.674   8.473  1.6015 -0.3753  1.4876
 4632TIP3    H235456   0.828   6.773   8.434  0.8355  0.4875  1.5162
 4633TIP3   OH235457   6.134   6.655   7.575  0.3701  0.4348 -0.0237
 4633TIP3    H135458   6.170   6.731   7.620  0.1557 -0.4397  1.6874
 4633TIP3    H235459   6.193   6.583   7.597 -0.3570 -0.2467 -0.2351
 4634TIP3   OH235460   5.446   3.933   0.886 -0.1523 -0.4053  0.5993
 4634TIP3    H135461   5.492   3.856   0.920 -0.7992 -1.2321 -0.3532
 4634TIP3    H235462   5.427   3.985   0.964 -0.2641 -1.5106  1.3357
 4635TIP3   OH235463   5.227   3.422   0.536  0.0823  0.3806  0.0479
 4635TIP3    H135464   5.292   3.421   0.466  0.9078  1.5017  0.7603
 4635TIP3    H235465   5.182   3.506   0.525 -0.5005  0.1012  0.2386
 4636TIP3   OH235466   4.971   4.479   0.959  0.0550 -0.2848 -0.0295
 4636TIP3    H135467   5.030   4.553   0.944  1.9893 -2.0014 -1.4374
 4636TIP3    H235468   5.018   4.423   1.020 -1.2565 -0.5330  0.7864
 4637TIP3   OH235469   0.183   1.289   8.256 -0.0964  0.8092  0.3729
 4637TIP3    H135470   0.127   1.306   8.180 -1.5323  2.5400  1.7091
 4637TIP3    H235471   0.179   1.195   8.269  0.4184  0.4285 -1.8264
 4638TIP3   OH235472   2.432   4.392   8.442  0.0343  0.5077  0.1547
 4638TIP3    H135473   2.356   4.340   8.466 -0.1586  1.0499  0.7425
 4638TIP3    H235474   2.419   4.413   8.349  0.4906 -1.1019 -0.3123
 4639TIP3   OH235475   5.768   5.001   0.335 -0.1723 -0.0993 -0.4984
 4639TIP3    H135476   5.842   5.007   0.396 -0.3782 -2.7107  0.1219
 4639TIP3    H235477   5.713   5.076   0.357  1.5804  1.1240 -0.0326
 4640TIP3   OH235478   2.207   6.043   7.235 -0.4370 -0.0267 -0.3713
 4640TIP3    H135479   2.180   6.110   7.172 -0.5914  1.8043  1.5459
 4640TIP3    H235480   2.294   6.073   7.265  0.9747 -2.4214 -1.7701
 4641TIP3   OH235481   0.888   5.763   0.762 -0.1670 -0.3115 -0.2522
 4641TIP3    H135482   0.949   5.805   0.823 -0.8540  0.8785 -0.3615
 4641TIP3    H235483   0.928   5.777   0.676 -0.6957  0.6943 -0.3490
 4642TIP3   OH235484   3.260   0.805   0.204 -0.0438 -0.1037 -0.3728
 4642TIP3    H135485   3.288   0.883   0.156  1.4714  0.6392  1.5611
 4642TIP3    H235486   3.236   0.838   0.291  0.9430 -1.7964  0.6022
 4643TIP3   OH235487   2.412   6.096   1.815 -0.1534  0.8815  0.2558
 4643TIP3    H135488   2.428   6.008   1.781  2.3343  1.5989 -0.6243
 4643TIP3    H235489   2.321   6.114   1.793 -0.1369 -0.7167 -1.3331
 4644TIP3   OH235490   4.660   0.212   8.240  0.4945  0.0683 -0.2915
 4644TIP3    H135491   4.636   0.122   8.259  0.9932 -0.6201 -2.6415
 4644TIP3    H235492   4.651   0.220   8.145 -1.6744  3.1247 -0.0020
 4645TIP3   OH235493   1.108   1.495   0.804  0.1915  0.2015 -0.2770
 4645TIP3    H135494   1.198   1.469   0.782  0.3865  0.0794  0.6073
 4645TIP3    H235495   1.061   1.491   0.721  0.4298 -2.1073 -0.3624
 4646TIP3   OH235496   0.294   3.372   1.767  0.1508  0.2758  0.3718
 4646TIP3    H135497   0.282   3.467   1.771  0.1150  0.2453  1.4035
 4646TIP3    H235498   0.235   3.338   1.834  1.7859 -0.2897  1.6041
 4647TIP3   OH235499   4.183   1.179   1.479  0.6142  0.1756 -0.1431
 4647TIP3    H135500   4.210   1.199   1.569  0.3229 -0.5926  0.1237
 4647TIP3    H235501   4.198   1.260   1.431 -1.5660  1.4146  1.1072
 4648TIP3   OH235502   4.394   0.745   7.205 -0.3743 -0.1733 -0.3133
 4648TIP3    H135503   4.359   0.741   7.117 -0.6078  1.6974 -0.3422
 4648TIP3    H235504   4.472   0.800   7.198 -0.0182 -0.5428  0.5361
 4649TIP3   OH235505   0.333   5.402   0.211 -0.1690  0.0400  0.1483
 4649TIP3    H135506   0.372   5.357   0.286 -0.1998  1.7810  1.2469
 4649TIP3    H235507   0.249   5.357   0.198 -0.2748 -0.1289  1.3055
 4650TIP3   OH235508   1.822   1.937   2.110  0.3305  1.3186 -0.4187
 4650TIP3    H135509   1.830   1.902   2.021  1.2288  0.4087  0.0025
 4650TIP3    H235510   1.854   1.867   2.166  1.6185  2.5955  0.5065
 4651TIP3   OH235511   0.607   6.158   0.013  0.1082  0.7955  0.3167
 4651TIP3    H135512   0.550   6.220   0.059 -0.2281  1.4202 -0.9228
 4651TIP3    H235513   0.549   6.085  -0.010  0.0810  0.8759  0.1295
 4652TIP3   OH235514   3.610   5.431   7.011 -0.5409  0.1625 -0.1131
 4652TIP3    H135515   3.691   5.440   6.960  0.3862 -0.8893  1.0979
 4652TIP3    H235516   3.573   5.348   6.981 -1.3014  0.7411 -0.8080
 4653TIP3   OH235517   3.888   0.276   2.793 -0.1413 -0.4498 -0.8121
 4653TIP3    H135518   3.811   0.273   2.850  0.6369  0.3324  0.3236
 4653TIP3    H235519   3.852   0.294   2.706 -1.2246  0.2594 -0.2449
 4654TIP3   OH235520   4.050   5.225   1.485  0.4912  0.5842  0.4092
 4654TIP3    H135521   3.990   5.293   1.516 -0.1430  1.4351 -2.4468
 4654TIP3    H235522   4.136   5.268   1.482  0.5008  0.5839  0.6387
 4655TIP3   OH235523   4.303   1.050   1.945  0.1500  0.4894  0.6323
 4655TIP3    H135524   4.302   0.970   1.893  1.5579  0.1578  1.0680
 4655TIP3    H235525   4.251   1.028   2.023  0.9049 -0.1810  0.9680
 4656TIP3   OH235526   0.022   5.624   1.115  0.0725  0.2437  0.3546
 4656TIP3    H135527  -0.033   5.672   1.054 -1.2509 -1.5040  0.0711
 4656TIP3    H235528   0.108   5.621   1.073 -0.6379 -0.3271 -1.1434
 4657TIP3   OH235529   1.720   0.418   8.616  0.7073  0.4118  0.7108
 4657TIP3    H135530   1.697   0.386   8.703 -1.2642  1.1510  0.5170
 4657TIP3    H235531   1.747   0.508   8.631  1.3111  0.2392  0.6655
 4658TIP3   OH235532   1.280   4.367   8.546  0.7973 -0.3954  0.1141
 4658TIP3    H135533   1.268   4.456   8.579  0.2902 -0.1816 -0.6435
 4658TIP3    H235534   1.340   4.327   8.609 -0.5257 -0.1563  1.6230
 4659TIP3   OH235535   3.265   4.140   1.582  0.1659  0.0555  0.2635
 4659TIP3    H135536   3.320   4.135   1.504 -1.0077  1.1862 -0.6710
 4659TIP3    H235537   3.271   4.053   1.621  2.7710  0.2055  0.3275
 4660TIP3   OH235538   0.907   4.322   1.700 -0.3510 -0.3080  0.3594
 4660TIP3    H135539   0.957   4.352   1.775  1.2159  0.1941 -0.8461
 4660TIP3    H235540   0.972   4.300   1.633 -1.5788 -2.7280 -0.1950
 4661TIP3   OH235541   0.070   1.134   0.950 -0.0123 -0.2293 -0.0508
 4661TIP3    H135542   0.058   1.169   0.862  1.0735  0.7828  0.1708
 4661TIP3    H235543   0.077   1.040   0.939  0.4846 -0.0810 -1.1035
 4662TIP3   OH235544   3.689   0.467   7.724  0.4930  0.3434  0.2884
 4662TIP3    H135545   3.611   0.422   7.755  0.3180  0.4760  0.0465
 4662TIP3    H235546   3.666   0.497   7.636 -0.1346  2.6918  1.1684
 4663TIP3   OH235547   3.153   3.686   2.032  0.6061  0.2907 -0.5962
 4663TIP3    H135548   3.139   3.771   1.989  3.1162  1.0055 -0.1294
 4663TIP3    H235549   3.122   3.622   1.968 -2.2146  1.5060 -0.6004
 4664TIP3   OH235550   3.660   2.317   0.597 -0.0724  0.6685  0.3268
 4664TIP3    H135551   3.621   2.402   0.579 -1.2446  0.4100  1.4957
 4664TIP3    H235552   3.586   2.261   0.623  0.5563 -0.9182 -1.1050
 4665TIP3   OH235553   4.768   4.696   0.282  0.1655 -0.1024 -0.3763
 4665TIP3    H135554   4.850   4.647   0.274  0.0259 -0.3377 -0.3647
 4665TIP3    H235555   4.719   4.650   0.351  1.5763  2.1920  2.3768
 4666TIP3   OH235556   4.202   3.666   7.971 -0.0986 -0.9558 -0.4538
 4666TIP3    H135557   4.190   3.603   7.900  0.2776 -0.4515 -0.9807
 4666TIP3    H235558   4.127   3.725   7.965 -0.0613 -0.9062 -0.4463
 4667TIP3   OH235559   5.264   6.487   7.281 -0.6244 -0.0015  0.8597
 4667TIP3    H135560   5.175   6.463   7.305 -0.2466 -0.8440  1.4908
 4667TIP3    H235561   5.274   6.458   7.191 -1.3769  1.2486  0.3458
 4668TIP3   OH235562   1.829   0.469   8.332  0.1949  0.0557  0.3251
 4668TIP3    H135563   1.862   0.553   8.365  0.1896 -0.2945  1.2510
 4668TIP3    H235564   1.881   0.452   8.254  0.5982  0.6388  0.4586
 4669TIP3   OH235565   2.226   0.742   7.942  0.8408  0.3075 -0.1060
 4669TIP3    H135566   2.143   0.716   7.902  0.4964  0.2721  0.6157
 4669TIP3    H235567   2.214   0.727   8.036  1.1131  1.7561  0.1904
 4670TIP3   OH235568   6.673   5.881   8.613  0.1373 -0.1046  0.0464
 4670TIP3    H135569   6.673   5.788   8.592 -1.2313  0.1059 -1.0579
 4670TIP3    H235570   6.761   5.911   8.591  0.3281 -0.9719 -0.4109
 4671TIP3   OH235571   0.793   1.116   6.949 -0.1977 -0.0436  0.0343
 4671TIP3    H135572   0.863   1.180   6.964 -0.5263  0.1142  0.9028
 4671TIP3    H235573   0.839   1.039   6.915  0.2642  0.4466 -0.4804
 4672TIP3   OH235574   3.157   1.168   0.671  0.1986  0.1220 -0.1856
 4672TIP3    H135575   3.110   1.245   0.704  0.5769 -0.3262  1.4728
 4672TIP3    H235576   3.233   1.205   0.626 -0.8576  0.7817 -1.5203
 4673TIP3   OH235577   6.145   2.412   0.549  0.5006  0.2699 -0.3078
 4673TIP3    H135578   6.168   2.423   0.457  1.8680  0.6451  0.0493
 4673TIP3    H235579   6.189   2.484   0.594 -0.8284  0.5828  0.5527
 4674TIP3   OH235580   0.080   4.282   1.363 -0.1067  0.4815 -1.0918
 4674TIP3    H135581   0.081   4.307   1.455 -1.9126 -2.9039  0.0115
 4674TIP3    H235582  -0.002   4.319   1.330 -1.1747 -1.0805 -0.3296
 4675TIP3   OH235583   0.709   6.646   7.798 -0.3392  0.5154 -0.1196
 4675TIP3    H135584   0.630   6.693   7.823 -0.8107 -0.3961  0.1398
 4675TIP3    H235585   0.741   6.606   7.880  0.2263  0.6395 -0.2743
 4676TIP3   OH235586   3.599   3.778   7.322 -0.5600  0.9706  0.2933
 4676TIP3    H135587   3.555   3.858   7.294  0.3479  1.4269  0.1455
 4676TIP3    H235588   3.674   3.769   7.263 -1.5127 -0.8687 -0.7542
 4677TIP3   OH235589   3.937   4.145   2.699 -0.2950  0.4555  0.0791
 4677TIP3    H135590   3.969   4.144   2.609 -0.8438 -0.1244 -0.1104
 4677TIP3    H235591   3.849   4.182   2.693  0.2163  1.8203  0.5707
 4678TIP3   OH235592   4.614   1.049   1.087  0.2522  0.4191 -0.0933
 4678TIP3    H135593   4.603   0.957   1.066  0.5802  0.3159  0.1809
 4678TIP3    H235594   4.531   1.090   1.062 -0.1632 -0.0712  0.4608
 4679TIP3   OH235595   4.948   1.985   1.753 -0.2934  0.0741  0.5355
 4679TIP3    H135596   4.934   2.002   1.660 -0.1997 -1.5511  0.1924
 4679TIP3    H235597   4.891   1.911   1.773  2.6536 -2.3932  0.7070
 4680TIP3   OH235598   5.409   2.581   0.859 -0.0132 -0.3215  0.2659
 4680TIP3    H135599   5.495   2.582   0.900 -0.9274  1.5513  2.3994
 4680TIP3    H235600   5.353   2.535   0.922 -1.0910  0.9344  0.2885
 4681TIP3   OH235601   3.458   3.673   1.647  0.0292 -0.3026  0.1637
 4681TIP3    H135602   3.491   3.618   1.718 -0.1222 -0.6991 -0.0704
 4681TIP3    H235603   3.399   3.616   1.598  0.7294 -0.2646 -0.7338
 4682TIP3   OH235604   2.738   5.859   0.073 -0.2814  0.2141  0.0453
 4682TIP3    H135605   2.772   5.921   0.009 -0.2518 -0.4878 -0.6342
 4682TIP3    H235606   2.699   5.914   0.141  0.8179  1.0040  0.0725
 4683TIP3   OH235607   3.795   5.708   8.311 -0.0177  0.1722  0.3876
 4683TIP3    H135608   3.785   5.791   8.357  1.1467  0.3493  0.3573
 4683TIP3    H235609   3.706   5.676   8.298 -0.5058  1.6226  0.0051
 4684TIP3   OH235610   0.666   4.999   2.797 -0.1194 -0.8545 -0.0779
 4684TIP3    H135611   0.627   5.075   2.754  0.4588  0.3648  1.4834
 4684TIP3    H235612   0.623   4.995   2.882  1.1150 -1.2239  0.5478
 4685TIP3   OH235613   1.174   6.250   1.909  0.1028  0.5777 -0.0505
 4685TIP3    H135614   1.202   6.180   1.851 -0.1997  0.1235  0.3455
 4685TIP3    H235615   1.113   6.209   1.970  0.3912  1.0487  0.5760
 4686TIP3   OH235616   4.657   2.471   2.070  0.1517 -0.8169  0.3811
 4686TIP3    H135617   4.626   2.527   2.141  1.2412 -1.1218  1.1099
 4686TIP3    H235618   4.745   2.503   2.051  0.1905 -1.2842 -0.2583
 4687TIP3   OH235619   4.761   0.401   7.697  0.5348  0.4181 -0.6316
 4687TIP3    H135620   4.742   0.448   7.779 -0.5293  0.7274 -1.0431
 4687TIP3    H235621   4.817   0.461   7.648  2.0273 -0.1865  0.2758
 4688TIP3   OH235622   3.248   3.679   6.839  0.7017  0.2781  0.1719
 4688TIP3    H135623   3.279   3.612   6.900 -0.0365 -0.4734 -0.2552
 4688TIP3    H235624   3.282   3.650   6.753  1.1995  0.9838  0.1227
 4689TIP3   OH235625   0.320   0.479   0.815 -0.3086 -0.1945  0.2300
 4689TIP3    H135626   0.371   0.408   0.852 -0.4766  0.1350  1.1114
 4689TIP3    H235627   0.260   0.437   0.754 -0.2326 -0.7707  0.5543
 4690TIP3   OH235628   3.021   6.402   0.665 -0.3295  0.1794  0.4684
 4690TIP3    H135629   2.994   6.432   0.578  2.5019  0.9086 -0.2539
 4690TIP3    H235630   3.002   6.475   0.723  0.7396  0.9592 -0.1466
 4691TIP3   OH235631   6.853   3.180   8.439 -0.1020 -0.5090 -1.0725
 4691TIP3    H135632   6.876   3.122   8.511  0.1249 -0.0654 -0.7800
 4691TIP3    H235633   6.845   3.123   8.363  0.1112 -0.9183 -0.7888
 4692TIP3   OH235634   2.986   0.310   0.068  0.1361  0.4923  0.4516
 4692TIP3    H135635   3.027   0.225   0.055 -0.0347  0.4430  0.2353
 4692TIP3    H235636   3.048   0.359   0.123 -0.1658 -0.0757  1.3209
 4693TIP3   OH235637   2.581   2.500   0.665  0.3511 -0.1989 -0.0702
 4693TIP3    H135638   2.610   2.509   0.575 -0.7991 -1.5604 -0.6032
 4693TIP3    H235639   2.570   2.590   0.696  2.1742  0.3044 -0.7765
 4694TIP3   OH235640   0.039   3.857   0.446  0.0961 -0.0836 -0.3276
 4694TIP3    H135641   0.029   3.844   0.352 -0.4740 -0.3948 -0.2319
 4694TIP3    H235642   0.055   3.770   0.481  2.6997  0.2950 -0.3774
 4695TIP3   OH235643   4.602   4.160   8.530 -0.1264 -0.0934 -0.3205
 4695TIP3    H135644   4.644   4.121   8.607  0.8114  0.9615 -0.2800
 4695TIP3    H235645   4.619   4.097   8.459 -0.7949 -0.9525  0.2505
 4696TIP3   OH235646   6.632   2.346   8.000 -0.0504  0.1154  0.0966
 4696TIP3    H135647   6.628   2.290   7.922 -0.9350  1.3429 -0.7701
 4696TIP3    H235648   6.589   2.295   8.068  0.1086 -0.6960 -0.3956
 4697TIP3   OH235649   0.725   5.986   5.686 -0.0338 -0.0196 -0.4279
 4697TIP3    H135650   0.760   5.938   5.761  0.0773 -0.5396 -0.8065
 4697TIP3    H235651   0.641   6.020   5.716  0.3270  0.3520  0.1517
 4698TIP3   OH235652   4.627   1.385   2.043  0.4863 -0.3122 -0.2812
 4698TIP3    H135653   4.562   1.413   2.108  1.0426  0.3029  0.0232
 4698TIP3    H235654   4.621   1.451   1.974  0.3567 -0.6022 -0.5488
 4699TIP3   OH235655   0.784   2.289   8.055 -0.0712  0.0690 -0.5561
 4699TIP3    H135656   0.821   2.240   7.981 -0.3664 -1.0133  0.0030
 4699TIP3    H235657   0.690   2.293   8.036 -0.0904  0.1504 -0.4427
 4700TIP3   OH235658   0.300   5.074   1.553  0.3398 -0.3102 -0.0794
 4700TIP3    H135659   0.303   5.163   1.587 -1.7641  0.7084 -2.1749
 4700TIP3    H235660   0.344   5.079   1.468 -0.6297 -0.9840 -0.6565
 4701TIP3   OH235661   6.746   6.170   8.405 -0.1368  0.1343 -0.5889
 4701TIP3    H135662   6.803   6.244   8.428  0.5963 -0.5816 -0.0149
 4701TIP3    H235663   6.772   6.101   8.466 -2.5536  0.1914  0.5903
 4702TIP3   OH235664   0.529   1.729   1.962  0.1427 -0.1528 -0.1506
 4702TIP3    H135665   0.506   1.790   2.032  0.3742 -0.4760  0.2081
 4702TIP3    H235666   0.576   1.658   2.006  0.0209 -0.5093 -0.5901
 4703TIP3   OH235667   3.429   0.514   3.038  0.1018 -0.2853  0.1685
 4703TIP3    H135668   3.390   0.436   3.077  0.8508 -0.6240  0.2519
 4703TIP3    H235669   3.457   0.567   3.113  0.6922 -0.5024  0.1048
 4704TIP3   OH235670   4.245   2.433   8.383 -0.4518 -0.1551 -0.1257
 4704TIP3    H135671   4.203   2.349   8.368  0.6342 -0.8803  0.6969
 4704TIP3    H235672   4.278   2.428   8.473  0.3978  0.8010 -0.3625
 4705TIP3   OH235673   2.848   5.598   7.188 -0.1427  0.0331  0.3168
 4705TIP3    H135674   2.917   5.541   7.221 -0.9015 -1.4416 -0.5529
 4705TIP3    H235675   2.785   5.539   7.147  0.2385  1.6213 -2.9104
 4706TIP3   OH235676   6.088   0.374   7.966 -0.0192  0.2662 -0.1099
 4706TIP3    H135677   6.047   0.448   8.010 -1.7523 -0.8466  0.2144
 4706TIP3    H235678   6.057   0.380   7.875  0.9502  0.7052 -0.4244
 4707TIP3   OH235679   2.890   1.811   0.877 -0.4977 -0.1580  0.4391
 4707TIP3    H135680   2.812   1.773   0.918 -1.6244  1.5379 -0.0019
 4707TIP3    H235681   2.963   1.779   0.929 -1.8406  2.1607  4.1709
 4708TIP3   OH235682   3.873   3.508   1.228 -0.0557 -0.2833 -0.0208
 4708TIP3    H135683   3.879   3.488   1.321  0.1187  1.1284  0.2913
 4708TIP3    H235684   3.785   3.479   1.202  0.5794 -2.4906  0.0895
 4709TIP3   OH235685   4.954   5.163   0.471 -0.1960  0.7843  0.1353
 4709TIP3    H135686   4.960   5.073   0.439  2.4511  0.3163  1.6652
 4709TIP3    H235687   4.870   5.168   0.516 -1.4534 -0.1609 -1.9716
 4710TIP3   OH235688   4.661   5.894   7.977  0.1634 -0.2485 -0.2971
 4710TIP3    H135689   4.697   5.952   7.910 -1.8147  0.2534 -0.9841
 4710TIP3    H235690   4.667   5.945   8.058 -0.3825  0.4161 -0.6691
 4711TIP3   OH235691   4.266   3.579   1.131 -0.3668  0.5759  0.4853
 4711TIP3    H135692   4.355   3.548   1.115 -0.4895 -0.5747  1.8366
 4711TIP3    H235693   4.266   3.670   1.101  1.5682  0.9173  1.3916
 4712TIP3   OH235694   5.149   3.886   2.569  0.2566 -0.3169 -0.0106
 4712TIP3    H135695   5.210   3.925   2.631 -1.3136 -0.1903  1.4989
 4712TIP3    H235696   5.082   3.845   2.623 -1.2500 -0.0740 -1.6182
 4713TIP3   OH235697   0.323   3.028   7.503 -0.4455  0.4454  0.0742
 4713TIP3    H135698   0.357   3.093   7.564  1.1292  1.1232 -1.4589
 4713TIP3    H235699   0.400   2.995   7.457 -1.3598 -1.5212 -0.1656
 4714TIP3   OH235700   2.611   1.775   7.552  0.3658  0.5090  0.4762
 4714TIP3    H135701   2.637   1.841   7.616 -0.0026 -0.2584  1.4379
 4714TIP3    H235702   2.671   1.702   7.567 -0.0997  0.0956  0.3350
 4715TIP3   OH235703   0.364   6.335   7.731 -0.0828  0.0038 -0.5514
 4715TIP3    H135704   0.384   6.426   7.711  0.4821  0.3604  1.3765
 4715TIP3    H235705   0.268   6.331   7.729 -0.1360  0.7981 -0.1124
 4716TIP3   OH235706   3.604   1.813   1.484  0.2971  1.0623 -0.1116
 4716TIP3    H135707   3.585   1.818   1.390 -0.7484 -1.7420 -0.1538
 4716TIP3    H235708   3.518   1.800   1.525  0.9164  0.2530  0.9876
 4717TIP3   OH235709   4.361   2.353   1.432  0.1889  0.4236 -0.0438
 4717TIP3    H135710   4.372   2.381   1.341  0.4940  0.0660 -0.1166
 4717TIP3    H235711   4.266   2.354   1.446  0.0285 -0.9715 -0.8264
 4718TIP3   OH235712   5.664   1.289   8.263  0.4085  0.9167  0.1117
 4718TIP3    H135713   5.658   1.355   8.193  0.2448  1.1879  0.3800
 4718TIP3    H235714   5.596   1.225   8.241  0.0197  1.2622  0.2913
 4719TIP3   OH235715   1.736   6.008   8.195  0.0246 -0.2601  0.0449
 4719TIP3    H135716   1.720   5.916   8.215  1.9149 -0.6069  0.0838
 4719TIP3    H235717   1.831   6.016   8.191 -0.1084  1.6475 -0.1997
 4720TIP3   OH235718   1.070   4.426   8.070 -0.4403 -0.1512 -0.2069
 4720TIP3    H135719   1.163   4.445   8.075  0.1629 -2.2318 -1.9157
 4720TIP3    H235720   1.046   4.400   8.159  0.0523  2.3465  0.7443
 4721TIP3   OH235721   2.345   1.192   0.535 -0.2318 -0.4253 -1.0223
 4721TIP3    H135722   2.343   1.147   0.450 -1.3452  1.3286 -2.0044
 4721TIP3    H235723   2.252   1.210   0.553  0.1779  1.8715 -0.9589
 4722TIP3   OH235724   6.609   0.844   7.210 -0.8427 -0.2552  0.6956
 4722TIP3    H135725   6.632   0.752   7.200  0.0308 -0.2004  1.9672
 4722TIP3    H235726   6.687   0.892   7.181 -1.4608  0.1087 -0.4071
 4723TIP3   OH235727   5.486   6.876   7.378 -0.0097  0.4318 -0.1088
 4723TIP3    H135728   5.526   6.865   7.464  1.7220  0.8316 -0.8258
 4723TIP3    H235729   5.392   6.869   7.394  0.3225 -0.6810  1.6336
 4724TIP3   OH235730   6.118   5.861   7.555  0.2055 -0.1552 -0.7736
 4724TIP3    H135731   6.025   5.849   7.532 -0.7056  2.8864  0.8217
 4724TIP3    H235732   6.136   5.952   7.534  2.2783 -0.1524  0.7911
 4725TIP3   OH235733   2.217   2.307   1.577  0.0250  0.8310 -0.1490
 4725TIP3    H135734   2.183   2.397   1.571  1.8150  1.6084  0.7395
 4725TIP3    H235735   2.229   2.293   1.671 -1.4119 -0.8536 -0.1517
 4726TIP3   OH235736   3.902   2.104   7.952  0.2528  0.2887  1.3412
 4726TIP3    H135737   3.826   2.161   7.960 -0.3351 -0.3278  0.3361
 4726TIP3    H235738   3.975   2.156   7.984 -0.5110  1.0654  1.8566
 4727TIP3   OH235739   2.860   2.608   0.204  0.1918  0.0189  0.1801
 4727TIP3    H135740   2.932   2.546   0.190  1.0151  0.8656  0.5324
 4727TIP3    H235741   2.840   2.641   0.117 -0.5342 -1.0157 -0.0710
 4728TIP3   OH235742   0.560   0.857   8.515 -0.3989 -0.2842  0.3483
 4728TIP3    H135743   0.491   0.882   8.453 -0.3601 -0.4562  0.2337
 4728TIP3    H235744   0.557   0.761   8.516  2.2064 -0.5440 -2.3899
 4729TIP3   OH235745   6.009   4.975   7.375  0.2156 -0.0184 -0.2145
 4729TIP3    H135746   6.091   4.987   7.423 -0.1985 -0.6575  0.6915
 4729TIP3    H235747   5.948   5.038   7.415  0.9462  2.4956 -2.7335
 4730TIP3   OH235748   1.537   6.072   8.357  0.4718 -0.9945  0.4825
 4730TIP3    H135749   1.505   5.984   8.375  2.1911 -1.5950  0.8032
 4730TIP3    H235750   1.600   6.061   8.286  1.3842 -0.1844  1.1264
 4731TIP3   OH235751   5.620   1.466   0.578 -0.1132 -0.1995 -0.2892
 4731TIP3    H135752   5.646   1.548   0.621  0.6853  0.3673 -1.7499
 4731TIP3    H235753   5.547   1.491   0.521 -2.5917 -1.3488  2.1390
 4732TIP3   OH235754   0.451   6.218   7.442 -0.0779  0.2358 -0.1760
 4732TIP3    H135755   0.446   6.236   7.536  1.9922 -1.1514  0.2796
 4732TIP3    H235756   0.394   6.142   7.429  0.7526 -0.4803  0.2673
 4733TIP3   OH235757   0.150   3.043   7.084  0.5481  0.3478 -0.2086
 4733TIP3    H135758   0.081   3.063   7.148 -1.2031 -3.1981 -0.7532
 4733TIP3    H235759   0.112   3.068   6.999 -0.2935 -1.8563 -0.5391
 4734TIP3   OH235760   0.900   0.432   7.009 -0.0195  0.0078  0.3935
 4734TIP3    H135761   0.942   0.371   6.948 -1.0913  0.1420 -0.5207
 4734TIP3    H235762   0.813   0.448   6.971 -1.6119 -1.5767  3.0661
 4735TIP3   OH235763   5.161   4.711   1.676  0.3247 -0.2856 -0.4144
 4735TIP3    H135764   5.173   4.683   1.767 -1.0007 -1.1986 -0.4876
 4735TIP3    H235765   5.189   4.802   1.675 -1.5832  0.4143  1.4167
 4736TIP3   OH235766   0.558   5.509   0.057  0.1830  0.2422 -0.1105
 4736TIP3    H135767   0.494   5.446   0.090  0.3332 -0.4827 -1.1441
 4736TIP3    H235768   0.558   5.495  -0.038  0.4457  1.5959 -0.3275
 4737TIP3   OH235769   5.211   3.520   0.801  0.6527  0.1989 -0.3335
 4737TIP3    H135770   5.212   3.471   0.719  1.4896 -0.8204  0.2582
 4737TIP3    H235771   5.123   3.506   0.837  0.3067  0.5984 -1.0160
 4738TIP3   OH235772   2.385   4.761   2.648  0.2735 -0.2845  0.2407
 4738TIP3    H135773   2.407   4.839   2.597 -0.9321 -0.0043  0.1074
 4738TIP3    H235774   2.322   4.792   2.713 -0.4592 -1.1936 -0.0131
 4739TIP3   OH235775   2.634   2.195   7.637  0.2621 -0.0563 -0.0042
 4739TIP3    H135776   2.601   2.107   7.654  1.2721 -1.0215 -2.6399
 4739TIP3    H235777   2.690   2.214   7.712 -0.8327 -1.1536  1.1487
 4740TIP3   OH235778   0.139   0.913   1.239  0.0437  0.1094  0.0001
 4740TIP3    H135779   0.183   0.834   1.269 -2.1879 -0.9172  0.7629
 4740TIP3    H235780   0.209   0.966   1.200  1.7786 -1.7332  0.4472
 4741TIP3   OH235781   2.022   0.260   1.907  0.4414  0.2899  0.0543
 4741TIP3    H135782   2.107   0.255   1.951 -0.2361 -0.0649  1.3838
 4741TIP3    H235783   1.968   0.195   1.952  0.2256 -1.5242 -2.6115
 4742TIP3   OH235784   3.491   2.038   0.514  0.4583  0.1931 -0.4375
 4742TIP3    H135785   3.511   2.089   0.435  3.5320 -0.4749 -0.2097
 4742TIP3    H235786   3.453   2.101   0.575  2.5256  1.8682 -0.7934
 4743TIP3   OH235787   5.582   3.883   7.050  0.7937 -0.1354  0.2439
 4743TIP3    H135788   5.582   3.836   6.967 -0.0461  2.2838 -1.2287
 4743TIP3    H235789   5.493   3.872   7.084  0.5606  0.4145 -0.1611
 4744TIP3   OH235790   0.573   4.040   0.933 -0.4259  0.7183 -0.7682
 4744TIP3    H135791   0.631   4.109   0.965 -0.2435 -0.4702  1.6562
 4744TIP3    H235792   0.633   3.973   0.899 -0.5930  1.4720 -2.6940
 4745TIP3   OH235793   3.690   1.689   8.561  0.0121 -0.0208  0.0697
 4745TIP3    H135794   3.743   1.768   8.572 -0.0614 -0.3397  4.4538
 4745TIP3    H235795   3.739   1.635   8.500  2.2428  1.6952  0.2250
 4746TIP3   OH235796   0.293   0.787   7.486  0.2584  0.0508  0.2311
 4746TIP3    H135797   0.342   0.842   7.548  1.6876  1.1365 -1.7105
 4746TIP3    H235798   0.354   0.775   7.413 -0.8835 -2.2492 -0.4150
 4747TIP3   OH235799   3.825   2.429   6.630 -0.0873 -0.3845  0.7072
 4747TIP3    H135800   3.774   2.510   6.636  1.8023  0.9717 -0.3425
 4747TIP3    H235801   3.766   2.361   6.663 -2.7793  0.9545 -0.9142
 4748TIP3   OH235802   0.582   0.243   7.132  0.2892  0.2839  0.0040
 4748TIP3    H135803   0.584   0.214   7.041 -1.3539 -0.8057  0.2608
 4748TIP3    H235804   0.530   0.323   7.131  0.8129  0.6246 -0.0934
 4749TIP3   OH235805   2.420   5.746   7.946  0.4863 -0.9432  0.2828
 4749TIP3    H135806   2.435   5.803   7.870 -1.3407 -0.8733 -0.0839
 4749TIP3    H235807   2.415   5.806   8.020  0.8491 -0.8599  0.2407
 4750TIP3   OH235808   0.002   4.692   8.182  0.3231 -0.0294 -0.2945
 4750TIP3    H135809  -0.051   4.672   8.259 -0.4202 -0.0374 -0.8037
 4750TIP3    H235810  -0.010   4.616   8.125  1.9751 -0.6724  0.1506
 4751TIP3   OH235811   2.046   4.551   2.410  0.3486  0.3215  0.6420
 4751TIP3    H135812   1.968   4.555   2.356  0.1031  0.1128  0.9793
 4751TIP3    H235813   2.027   4.485   2.476  1.9869 -2.0370 -1.0957
 4752TIP3   OH235814   1.016   1.900   1.354  0.5218  0.5652  0.0216
 4752TIP3    H135815   1.089   1.905   1.416  0.4572 -1.3815  0.3194
 4752TIP3    H235816   0.938   1.893   1.409  0.3542  0.0582 -0.2707
 4753TIP3   OH235817   3.482   3.736   7.764  0.2227 -0.2149 -0.0167
 4753TIP3    H135818   3.496   3.667   7.829  1.1894  0.5050  0.5887
 4753TIP3    H235819   3.529   3.706   7.687  3.0701  0.9205  1.1183
 4754TIP3   OH235820   1.231   0.440   2.878  0.8848 -0.5916 -0.5115
 4754TIP3    H135821   1.254   0.531   2.860  2.2629 -0.5166  1.3182
 4754TIP3    H235822   1.304   0.389   2.842  1.3383 -0.7554  0.5863
 4755TIP3   OH235823   4.570   5.288   1.559  0.2618  0.4783  0.2313
 4755TIP3    H135824   4.632   5.355   1.529  0.4907  0.5060  0.7708
 4755TIP3    H235825   4.625   5.215   1.587  0.0180  0.1433 -0.1488
 4756TIP3   OH235826   4.555   0.007   1.569 -0.0763  0.5591  0.4434
 4756TIP3    H135827   4.527   0.050   1.488  0.9419 -0.6464 -0.5783
 4756TIP3    H235828   4.482  -0.052   1.591 -1.1053  2.0922  1.3920
 4757TIP3   OH235829   6.719   6.433   1.205  0.3166 -0.2013 -0.2900
 4757TIP3    H135830   6.809   6.452   1.178  0.1425  0.1513 -0.6354
 4757TIP3    H235831   6.707   6.484   1.286  0.0757  0.6419 -0.8421
 4758TIP3   OH235832   4.701   2.135   8.006  0.3378  0.4273 -0.5162
 4758TIP3    H135833   4.709   2.101   8.095  2.8036  1.4567 -0.2640
 4758TIP3    H235834   4.622   2.189   8.008 -1.5828 -2.2087  0.0518
 4759TIP3   OH235835   6.331   6.831   0.211  0.2504  0.4058  0.4768
 4759TIP3    H135836   6.406   6.860   0.263  1.0071 -3.3217  1.7929
 4759TIP3    H235837   6.260   6.820   0.274 -0.5878  1.2349 -0.2928
 4760TIP3   OH235838   3.942   4.650   0.292  0.6734 -0.1354 -0.0358
 4760TIP3    H135839   3.934   4.555   0.282  1.9351 -0.2905  0.2933
 4760TIP3    H235840   3.930   4.684   0.204 -2.1490 -0.3750  0.1628
 4761TIP3   OH235841   4.061   6.199   1.794  0.1746  0.1545 -0.0482
 4761TIP3    H135842   4.072   6.114   1.751 -0.5613  0.3156 -0.5760
 4761TIP3    H235843   4.014   6.178   1.875 -0.9136  0.1562 -0.6563
 4762TIP3   OH235844   6.470   3.805   0.338 -0.2124  0.3473  0.5578
 4762TIP3    H135845   6.411   3.736   0.306  0.4525 -0.6055  1.3268
 4762TIP3    H235846   6.512   3.839   0.260  0.4238 -1.0438  0.2632
 4763TIP3   OH235847   3.691   6.568   7.939 -0.6620  0.3382 -0.5852
 4763TIP3    H135848   3.624   6.515   7.983  0.1347  0.9742  1.5286
 4763TIP3    H235849   3.643   6.642   7.904 -1.1197  0.8021  0.9371
 4764TIP3   OH235850   5.834   1.586   6.995  0.2719 -0.2726 -0.0296
 4764TIP3    H135851   5.915   1.564   7.041  0.0232 -0.0966  0.4971
 4764TIP3    H235852   5.824   1.515   6.931  0.0177 -1.1865  0.9717
 4765TIP3   OH235853   4.012   4.682   7.473  0.0325  0.1784  0.0797
 4765TIP3    H135854   3.980   4.608   7.422 -0.0450 -0.6417  1.2907
 4765TIP3    H235855   4.106   4.670   7.477  0.3411  1.5113 -1.7887
 4766TIP3   OH235856   4.695   4.667   7.706 -0.0909 -0.4429 -0.3105
 4766TIP3    H135857   4.655   4.753   7.720 -0.3516 -0.6692  0.3521
 4766TIP3    H235858   4.623   4.605   7.715  0.2658 -0.7980  0.1564
 4767TIP3   OH235859   3.670   3.184   0.234 -0.1263  0.2803  0.2676
 4767TIP3    H135860   3.641   3.253   0.293 -0.4050 -0.1795  0.6769
 4767TIP3    H235861   3.679   3.107   0.290  2.0219  0.4226  0.1877
 4768TIP3   OH235862   1.005   6.765   8.357 -0.5329  0.1437  0.0974
 4768TIP3    H135863   1.064   6.796   8.426 -0.7290 -1.1745  0.8980
 4768TIP3    H235864   1.023   6.822   8.282  0.6860  0.7175  0.7952
 4769TIP3   OH235865   6.059   5.241   0.748  0.4529  0.0433  0.1780
 4769TIP3    H135866   6.143   5.286   0.742  0.4721  0.2440  1.5757
 4769TIP3    H235867   5.995   5.311   0.761  0.3982 -0.2532  1.6720
 4770TIP3   OH235868   4.399   6.078   8.435  0.6053 -0.1034 -0.3251
 4770TIP3    H135869   4.492   6.081   8.459  0.0636 -0.5677  2.0592
 4770TIP3    H235870   4.364   6.005   8.485 -1.1286  0.2365 -0.9912
 4771TIP3   OH235871   6.768   0.338   8.252 -0.1211 -0.1163 -0.3563
 4771TIP3    H135872   6.795   0.320   8.162  2.3184 -1.3482  0.5206
 4771TIP3    H235873   6.848   0.365   8.296 -0.8945 -1.1017  1.8082
 4772TIP3   OH235874   1.645   2.445   0.780 -0.6277 -0.1231  0.0711
 4772TIP3    H135875   1.699   2.397   0.842  0.8812  1.1747 -0.1760
 4772TIP3    H235876   1.664   2.404   0.695 -0.0343  0.2989 -0.0083
 4773TIP3   OH235877   2.115   4.150   1.232 -0.1153  0.1257  0.0399
 4773TIP3    H135878   2.043   4.156   1.170 -1.8203  0.7829  1.9449
 4773TIP3    H235879   2.168   4.228   1.215  0.7130 -0.8321 -1.9819
 4774TIP3   OH235880   1.487   4.770   2.632  0.1765 -0.2727 -0.3558
 4774TIP3    H135881   1.421   4.730   2.688  0.7796  0.4694  0.9219
 4774TIP3    H235882   1.545   4.698   2.609  0.3682 -0.4449  0.6392
 4775TIP3   OH235883   4.763   2.998   0.537 -0.7617  0.3953 -0.1180
 4775TIP3    H135884   4.739   3.060   0.468  2.5159  2.7967  0.6729
 4775TIP3    H235885   4.709   3.024   0.611 -1.3378  0.5028 -0.5631
 4776TIP3   OH235886   2.963   6.247   2.350  0.3025  0.0336  0.1261
 4776TIP3    H135887   2.947   6.152   2.345 -0.0002  0.1375 -1.2160
 4776TIP3    H235888   2.943   6.270   2.441 -1.1490 -0.9228  0.0792
 4777TIP3   OH235889   5.910   4.515   1.136  0.0579  0.3617 -0.1518
 4777TIP3    H135890   5.833   4.563   1.106  1.8665  3.2060 -0.6606
 4777TIP3    H235891   5.971   4.519   1.062  1.3359 -0.3133  0.8243
 4778TIP3   OH235892   0.923   3.139   0.403  0.1672 -0.1576  0.9021
 4778TIP3    H135893   0.966   3.065   0.360 -1.8201 -0.1167 -1.4160
 4778TIP3    H235894   0.993   3.202   0.418  1.2566 -0.7979 -1.0392
 4779TIP3   OH235895   4.154   1.130   8.389 -0.4088  0.2708 -0.0276
 4779TIP3    H135896   4.224   1.096   8.333 -1.8934  0.6166 -2.1962
 4779TIP3    H235897   4.075   1.090   8.355 -1.5682  1.7141  0.8632
 4780TIP3   OH235898   6.137   1.648   2.714  0.1814 -0.2228 -0.3538
 4780TIP3    H135899   6.050   1.612   2.731  0.0358  0.4297  0.2908
 4780TIP3    H235900   6.196   1.573   2.725 -0.1452 -0.3325  0.7182
 4781TIP3   OH235901   3.612   1.527   1.280  0.2675 -0.0563 -0.5305
 4781TIP3    H135902   3.705   1.542   1.295  0.1556  0.6342 -0.5030
 4781TIP3    H235903   3.581   1.608   1.240 -0.7088  0.4741  1.2049
 4782TIP3   OH235904   0.506   3.133   8.454 -0.2911 -0.1016 -0.4222
 4782TIP3    H135905   0.423   3.175   8.432 -0.8717  0.6814  2.8178
 4782TIP3    H235906   0.572   3.189   8.414 -1.2276  1.2132 -0.1866
 4783TIP3   OH235907   5.139   5.909   1.849 -0.3502  0.2723  0.2062
 4783TIP3    H135908   5.221   5.935   1.806 -0.9614  0.4528 -0.8752
 4783TIP3    H235909   5.085   5.988   1.846 -0.8022 -0.0310  0.3383
 4784TIP3   OH235910   2.434   1.034   8.018  0.0199  0.2227  0.1865
 4784TIP3    H135911   2.373   1.108   8.013  1.6250  1.5529 -0.3862
 4784TIP3    H235912   2.469   1.038   8.107 -1.6918 -1.4129  1.0154
 4785TIP3   OH235913   2.965   5.917   0.486 -0.3281 -0.1783  0.3686
 4785TIP3    H135914   2.912   5.993   0.508  0.9256  0.5942  0.8189
 4785TIP3    H235915   3.045   5.953   0.448 -0.2275 -1.3230 -0.5926
 4786TIP3   OH235916   0.524   0.289   0.891 -0.0092 -0.2648 -0.1946
 4786TIP3    H135917   0.532   0.201   0.855  0.6822 -0.1690 -0.2795
 4786TIP3    H235918   0.569   0.346   0.828 -1.1967  0.2757 -0.5919
 4787TIP3   OH235919   0.528   5.704   1.424 -0.6373  0.0978  0.4829
 4787TIP3    H135920   0.494   5.614   1.427 -0.8554  0.1414 -0.3674
 4787TIP3    H235921   0.587   5.705   1.349 -0.0437  0.4725  0.9441
 4788TIP3   OH235922   4.774   3.478   8.006 -0.1846  0.6645  0.1848
 4788TIP3    H135923   4.812   3.566   8.005  1.9447 -0.2089 -0.9646
 4788TIP3    H235924   4.709   3.480   7.935  0.5343  1.0345 -0.4730
 4789TIP3   OH235925   2.995   5.606   1.894  0.0273 -0.5481  0.3039
 4789TIP3    H135926   3.027   5.664   1.825 -1.4869 -0.4228 -0.3378
 4789TIP3    H235927   3.057   5.617   1.966  0.1680  1.3197 -0.0649
 4790TIP3   OH235928   5.496   4.744   2.006  0.0213 -0.3133 -0.2101
 4790TIP3    H135929   5.468   4.655   2.025 -0.0716 -0.2486 -0.0503
 4790TIP3    H235930   5.527   4.779   2.090  1.3726 -0.6670 -0.5321
 4791TIP3   OH235931   2.405   1.481   0.720 -0.2103  0.1331 -0.0854
 4791TIP3    H135932   2.466   1.425   0.672  0.8485  0.2850  1.0384
 4791TIP3    H235933   2.365   1.423   0.785  0.6189  0.5814  0.8433
 4792TIP3   OH235934   5.094   4.935   1.054  0.0070 -0.1808 -0.0112
 4792TIP3    H135935   4.999   4.948   1.064 -0.4317 -1.7645 -1.6854
 4792TIP3    H235936   5.132   4.979   1.130 -2.1161 -0.1317  1.0983
 4793TIP3   OH235937   5.925   1.001   1.134  0.2842  0.0355  0.0044
 4793TIP3    H135938   5.999   1.006   1.074 -0.1409  0.0953 -0.5169
 4793TIP3    H235939   5.949   0.931   1.195  0.0209 -1.1267 -1.1820
 4794TIP3   OH235940   3.829   6.473   2.045 -0.1551 -0.4495 -0.1357
 4794TIP3    H135941   3.873   6.538   1.990 -1.9102  0.8031 -0.1692
 4794TIP3    H235942   3.838   6.507   2.134  0.9847 -1.4434  0.1423
 4795TIP3   OH235943   2.460   1.186   1.881 -0.4644 -0.2143  0.3596
 4795TIP3    H135944   2.373   1.220   1.857  0.1964  0.8232 -0.7015
 4795TIP3    H235945   2.447   1.147   1.967 -2.0390 -0.2991  0.1239
 4796TIP3   OH235946   4.685   2.794   1.513  0.0443  0.0436  0.0621
 4796TIP3    H135947   4.713   2.704   1.496 -1.1609 -0.3453  0.0353
 4796TIP3    H235948   4.727   2.817   1.596  0.7016 -0.3839 -0.1477
 4797TIP3   OH235949   4.314   3.366   2.691 -0.5071  0.3782 -0.4909
 4797TIP3    H135950   4.389   3.342   2.637 -0.1205 -0.8762  0.5359
 4797TIP3    H235951   4.330   3.322   2.775 -2.3295  0.1794 -0.2069
 4798TIP3   OH235952   6.530   2.613   8.350  0.1400  0.4797 -0.3592
 4798TIP3    H135953   6.442   2.647   8.336  0.4201  2.0586  1.2431
 4798TIP3    H235954   6.574   2.624   8.266 -0.8262  0.8310 -0.8361
 4799TIP3   OH235955   6.569   3.137   8.058 -0.0605 -0.8266  0.0495
 4799TIP3    H135956   6.475   3.148   8.069 -0.5664 -2.3820 -1.9976
 4799TIP3    H235957   6.578   3.088   7.976  2.5578 -0.4160  0.0001
 4800TIP3   OH235958   0.719   4.057   2.942  0.0916 -0.4024 -0.1728
 4800TIP3    H135959   0.683   4.145   2.936  0.7510 -0.0952  0.3013
 4800TIP3    H235960   0.671   4.007   2.876 -0.5908  0.2020 -0.1475
 4801TIP3   OH235961   1.352   4.636   8.616 -0.2321 -0.3077  0.1926
 4801TIP3    H135962   1.415   4.612   8.684 -1.2552  3.3371  2.7858
 4801TIP3    H235963   1.404   4.676   8.547  0.6403 -1.9858 -0.1635
 4802TIP3   OH235964   1.311   1.935   8.176 -0.0370 -0.2324  0.2225
 4802TIP3    H135965   1.243   1.915   8.112  0.3448 -0.0895 -0.2295
 4802TIP3    H235966   1.306   1.864   8.239  1.6534 -2.1082 -1.6306
 4803TIP3   OH235967   0.449   6.838   1.080 -0.6754 -0.0376 -0.5063
 4803TIP3    H135968   0.461   6.784   1.158  0.2514  2.5951  1.2855
 4803TIP3    H235969   0.532   6.832   1.034 -0.7751 -0.5655 -0.6281
 4804TIP3   OH235970   0.865   2.580   0.213 -0.3087 -0.4282 -0.2154
 4804TIP3    H135971   0.880   2.585   0.119 -0.9740 -0.3945 -0.3249
 4804TIP3    H235972   0.950   2.557   0.250 -0.1276 -0.8042 -0.8571
 4805TIP3   OH235973   1.592   2.876   0.797 -0.2792 -0.2363  0.1295
 4805TIP3    H135974   1.599   2.804   0.859  0.6831 -0.3763 -0.1348
 4805TIP3    H235975   1.524   2.933   0.834 -0.4205 -0.8219  0.7868
 4806TIP3   OH235976   3.784   1.321   1.081 -0.1454 -0.4432 -0.0987
 4806TIP3    H135977   3.692   1.318   1.109  0.0784  0.3509  0.7890
 4806TIP3    H235978   3.832   1.343   1.161  0.7528 -0.2498 -0.6804
 4807TIP3   OH235979   0.765   4.108   0.571  0.0502 -0.1328  0.4990
 4807TIP3    H135980   0.766   4.192   0.617  0.9080 -0.8509  1.8794
 4807TIP3    H235981   0.690   4.062   0.608 -0.9922  0.3424 -0.9350
 4808TIP3   OH235982   3.453   2.279   8.235 -0.8173 -0.1344  0.3010
 4808TIP3    H135983   3.457   2.287   8.330 -1.0790  1.4510  0.2056
 4808TIP3    H235984   3.378   2.222   8.218 -1.3992  0.3851  1.0408
 4809TIP3   OH235985   1.562   4.835   2.130  0.0671 -0.0699 -0.1761
 4809TIP3    H135986   1.548   4.875   2.216  1.2003  1.7854 -0.7882
 4809TIP3    H235987   1.515   4.892   2.069  0.3374 -0.6268 -0.9277
 4810TIP3   OH235988   1.880   0.891   1.368  0.3521  0.2431  0.1172
 4810TIP3    H135989   1.845   0.807   1.337  0.1236  0.5057 -0.3502
 4810TIP3    H235990   1.807   0.953   1.356  1.2924  1.0454 -1.9217
 4811TIP3   OH235991   3.565   3.238   2.275 -0.3801  0.8756  0.5010
 4811TIP3    H135992   3.630   3.269   2.338 -0.7070  1.1271  0.7176
 4811TIP3    H235993   3.605   3.253   2.189 -0.0525  0.7964  0.6401
 4812TIP3   OH235994   4.012   3.921   2.264 -1.1355  0.2432 -0.2770
 4812TIP3    H135995   3.936   3.946   2.211 -1.0938 -0.0203 -0.4611
 4812TIP3    H235996   4.023   3.994   2.325  0.5167  1.9678 -2.4432
 4813TIP3   OH235997   0.078   0.534   7.021  0.2220  0.0723  0.2584
 4813TIP3    H135998   0.082   0.439   7.035 -1.6294 -0.9068 -4.1804
 4813TIP3    H235999   0.013   0.564   7.084  0.1838 -1.7851  1.1905
 4814TIP3   OH236000   2.721   4.411   0.499  0.6430 -0.2256  0.0959
 4814TIP3    H136001   2.640   4.449   0.466  1.7152  2.1004 -0.0565
 4814TIP3    H236002   2.713   4.317   0.480 -1.0998  0.2288 -1.8069
 4815TIP3   OH236003   1.920   3.951   2.075  0.4054  0.5283  0.1105
 4815TIP3    H136004   1.897   4.043   2.089 -0.6142  0.2275  0.5025
 4815TIP3    H236005   1.844   3.913   2.032  0.4693 -0.3272  0.7260
 4816TIP3   OH236006   3.391   4.849   7.624  0.0648  0.0231  0.2956
 4816TIP3    H136007   3.307   4.854   7.669 -0.2639 -1.0639 -0.1707
 4816TIP3    H236008   3.437   4.929   7.651 -0.4763 -0.1446  1.8036
 4817TIP3   OH236009   5.072   5.069   0.134 -0.1711  0.3591 -0.3910
 4817TIP3    H136010   5.166   5.053   0.124  0.0614  0.1299  1.7012
 4817TIP3    H236011   5.045   5.010   0.204 -2.0650 -0.1368 -1.4885
 4818TIP3   OH236012   0.684   5.378   2.487 -0.8418 -0.5112 -0.4169
 4818TIP3    H136013   0.779   5.368   2.499 -0.7086  0.9742  0.0253
 4818TIP3    H236014   0.667   5.345   2.399  0.0936 -0.7608 -0.5153
 4819TIP3   OH236015   6.385   0.328   1.567 -0.2613 -0.2051  0.3531
 4819TIP3    H136016   6.362   0.398   1.506  2.6909 -0.6201 -1.4312
 4819TIP3    H236017   6.479   0.338   1.582 -0.8034  0.0805  5.2746
 4820TIP3   OH236018   5.950   4.281   2.273  0.0038 -0.0613  0.3353
 4820TIP3    H136019   5.955   4.376   2.262 -2.1249 -0.1022 -2.1814
 4820TIP3    H236020   6.022   4.247   2.220  0.5573  0.0989  0.9640
 4821TIP3   OH236021   3.947   4.435   8.432  0.4125 -0.1750 -0.1419
 4821TIP3    H136022   3.873   4.375   8.439 -0.0109  0.1873 -1.2872
 4821TIP3    H236023   3.946   4.463   8.341  0.4584  1.7492  0.4120
 4822TIP3   OH236024   1.337   2.378   1.411 -0.9669  0.0823 -0.2323
 4822TIP3    H136025   1.352   2.294   1.454 -0.4923  0.2058 -0.1512
 4822TIP3    H236026   1.288   2.356   1.332 -2.4074 -0.0790  0.6875
 4823TIP3   OH236027   4.406   5.958   2.126 -0.4059  0.4627  0.1389
 4823TIP3    H136028   4.415   6.022   2.055  1.7070 -0.6619 -0.7199
 4823TIP3    H236029   4.364   5.883   2.085 -3.5845  1.4498  1.3249
 4824TIP3   OH236030   1.811   4.646   0.603  0.3303 -0.3749 -0.2166
 4824TIP3    H136031   1.869   4.660   0.528  1.9164  1.9860  1.2843
 4824TIP3    H236032   1.727   4.682   0.575  1.2803  1.8386 -0.4926
 4825TIP3   OH236033   2.023   4.520   0.326 -0.1773 -0.6342  0.3096
 4825TIP3    H136034   2.117   4.530   0.312 -0.0533  0.6460  1.7783
 4825TIP3    H236035   1.989   4.609   0.328 -1.6323 -1.0858 -1.1919
 4826TIP3   OH236036   2.074   0.417   2.543  0.6466  0.1137  0.7328
 4826TIP3    H136037   2.078   0.456   2.456 -1.2270  0.3777  0.7269
 4826TIP3    H236038   2.043   0.487   2.600  1.5779 -0.1368  1.5823
 4827TIP3   OH236039   5.792   6.758   0.381 -0.2435  0.0853  0.0389
 4827TIP3    H136040   5.830   6.776   0.296 -1.1681  1.0757 -0.1889
 4827TIP3    H236041   5.818   6.832   0.436  1.3361 -1.1087  0.9893
 4828TIP3   OH236042   1.990   6.738   2.880 -0.1137 -0.4831 -0.1334
 4828TIP3    H136043   1.966   6.809   2.939 -2.6519 -0.4876 -1.0693
 4828TIP3    H236044   2.050   6.684   2.932  0.5350  1.3849  1.1670
 4829TIP3   OH236045   1.507   4.668   1.029 -0.0191 -0.3431 -0.4170
 4829TIP3    H136046   1.563   4.745   1.015  0.2153 -0.3440  0.4489
 4829TIP3    H236047   1.482   4.640   0.941 -0.2141  0.8062 -0.7478
 4830TIP3   OH236048   6.862   5.220   7.652  0.0633  0.1547 -0.1803
 4830TIP3    H136049   6.939   5.235   7.706  0.4082 -0.1550 -0.5784
 4830TIP3    H236050   6.810   5.156   7.701 -0.5107  1.2249  0.6369
 4831TIP3   OH236051   5.435   0.878   8.028 -1.1304 -0.1359  0.0680
 4831TIP3    H136052   5.494   0.925   7.970 -0.1620  0.2760  1.3480
 4831TIP3    H236053   5.492   0.821   8.080 -1.9927 -0.6896  0.4348
 4832TIP3   OH236054   0.925   6.130   2.679 -0.4402 -0.6189 -0.1893
 4832TIP3    H136055   1.013   6.093   2.674 -1.5002 -3.2457 -1.6235
 4832TIP3    H236056   0.938   6.225   2.684  2.4461 -0.9963  0.6640
 4833TIP3   OH236057   5.657   6.144   0.278  0.2170 -0.4479 -0.7158
 4833TIP3    H136058   5.605   6.097   0.344 -2.3155  2.0542 -0.7162
 4833TIP3    H236059   5.592   6.174   0.214  2.0500  0.6705 -2.1405
 4834TIP3   OH236060   0.484   6.134   1.435  0.0552  0.1355 -0.1198
 4834TIP3    H136061   0.563   6.090   1.467 -1.2700 -0.7407  2.1910
 4834TIP3    H236062   0.489   6.221   1.473  1.3450  1.1944 -2.5025
 4835TIP3   OH236063   2.075   2.260   7.697  0.1442 -0.4277  0.1093
 4835TIP3    H136064   2.152   2.260   7.641 -0.4341  0.6971 -0.7277
 4835TIP3    H236065   2.001   2.274   7.638 -0.6602 -0.8799  0.9622
 4836TIP3   OH236066   6.327   6.258   6.459  0.4619  0.3874  0.2874
 4836TIP3    H136067   6.321   6.166   6.484  3.0947 -0.0491 -0.3888
 4836TIP3    H236068   6.359   6.303   6.537 -0.2498  0.6408  0.4398
 4837TIP3   OH236069   4.565   3.859   0.998  0.0403 -0.1361 -0.1567
 4837TIP3    H136070   4.535   3.944   0.968  1.2064  0.6119  0.6972
 4837TIP3    H236071   4.615   3.878   1.078  2.0759 -1.3605 -1.0629
 4838TIP3   OH236072   2.112   6.661   7.302  0.1318  0.5224  0.4793
 4838TIP3    H136073   2.155   6.742   7.330  2.1097 -0.6258  0.9943
 4838TIP3    H236074   2.185   6.599   7.289 -1.3890 -1.6749  1.7928
 4839TIP3   OH236075   1.296   5.636   2.321 -0.6228  0.8227  0.1343
 4839TIP3    H136076   1.313   5.682   2.239 -0.2389  2.4053  1.0453
 4839TIP3    H236077   1.230   5.691   2.365 -0.2330  0.4463  1.2178
 4840TIP3   OH236078   0.553   5.353   2.224  0.1141 -0.1772 -1.1374
 4840TIP3    H136079   0.489   5.282   2.229 -0.5159  0.4462  0.0028
 4840TIP3    H236080   0.501   5.432   2.210  0.6795  0.2750 -0.7305
 4841TIP3   OH236081   0.142   2.916   0.611 -0.5985  0.3161 -0.7370
 4841TIP3    H136082   0.231   2.951   0.607 -0.6962  0.6629 -0.0524
 4841TIP3    H236083   0.151   2.826   0.580  0.5337 -0.6144  2.0027
 4842TIP3   OH236084   0.260   1.495   0.583  1.2484 -0.1076 -0.4404
 4842TIP3    H136085   0.251   1.467   0.492 -0.2031 -1.4460  0.0782
 4842TIP3    H236086   0.173   1.528   0.607  1.2157 -1.0529  0.8517
 4843TIP3   OH236087   3.874   6.371   0.680  0.4059 -0.5089  0.0360
 4843TIP3    H136088   3.781   6.359   0.699  0.8450 -1.2676  1.9714
 4843TIP3    H236089   3.884   6.340   0.590 -0.7829 -2.9686  0.6570
 4844TIP3   OH236090   0.493   3.555   8.455  0.0561 -0.3216 -0.8348
 4844TIP3    H136091   0.538   3.559   8.540 -0.6561 -0.1214 -0.4559
 4844TIP3    H236092   0.426   3.623   8.460 -0.7094 -1.0295 -1.1261
 4845TIP3   OH236093   6.815   4.915   6.293  0.0371 -0.4313 -0.2418
 4845TIP3    H136094   6.909   4.907   6.306 -0.1200 -1.2312  0.4757
 4845TIP3    H236095   6.798   5.010   6.294  0.7146 -0.3131  0.4828
 4846TIP3   OH236096   2.231   4.195   7.994 -0.6783  0.0200  0.1577
 4846TIP3    H136097   2.312   4.147   8.010 -1.8929 -1.4227  2.6071
 4846TIP3    H236098   2.198   4.159   7.912  0.5912 -0.1510 -0.3028
 4847TIP3   OH236099   4.812   3.558   0.569  0.3967  1.0457 -0.1778
 4847TIP3    H136100   4.861   3.611   0.506  1.3982  0.9478  0.5109
 4847TIP3    H236101   4.879   3.514   0.621 -0.4209  0.9168  0.7892
 4848TIP3   OH236102   2.771   2.648   2.196 -0.5895 -0.2660 -0.2157
 4848TIP3    H136103   2.788   2.561   2.161  0.1995  0.2012 -1.0149
 4848TIP3    H236104   2.857   2.684   2.214 -0.8820  0.6034 -0.5142
 4849TIP3   OH236105   3.870   1.843   8.032 -0.7033  0.8447 -0.0384
 4849TIP3    H136106   3.962   1.819   8.020 -0.2094  2.4304  0.2791
 4849TIP3    H236107   3.866   1.935   8.005 -2.4845  0.4621 -1.2799
 4850TIP3   OH236108   6.256   5.496   1.804  0.3969 -0.0243 -0.3913
 4850TIP3    H136109   6.299   5.426   1.755  2.6491  0.0493  1.3120
 4850TIP3    H236110   6.292   5.577   1.767 -0.5863  0.1830 -0.9311
 4851TIP3   OH236111   4.406   0.629   8.618  0.2069  0.2543  0.0033
 4851TIP3    H136112   4.481   0.689   8.619  1.5004 -1.3019  0.0307
 4851TIP3    H236113   4.431   0.558   8.677 -0.4134 -1.2892 -1.5107
 4852TIP3   OH236114   2.189   6.242   3.120 -0.5106  0.0143 -0.4808
 4852TIP3    H136115   2.240   6.323   3.127  1.1438 -1.1231  2.2006
 4852TIP3    H236116   2.233   6.192   3.051  0.6259 -0.0065  0.2380
 4853TIP3   OH236117   3.309   0.335   0.091 -0.4748  0.2300  0.1701
 4853TIP3    H136118   3.396   0.304   0.066 -1.2370 -0.3670 -1.9766
 4853TIP3    H236119   3.312   0.430   0.075  0.3355  0.5473  1.9825
 4854TIP3   OH236120   3.335   3.460   8.234 -0.5715  0.7479 -0.4213
 4854TIP3    H136121   3.314   3.548   8.202  0.2099  1.2112  0.3190
 4854TIP3    H236122   3.420   3.439   8.195 -0.2804  0.7342  0.2136
 4855TIP3   OH236123   5.779   2.304   0.868  0.9323  0.8136 -0.5197
 4855TIP3    H136124   5.692   2.338   0.844  0.4955  0.5802  0.6500
 4855TIP3    H236125   5.827   2.301   0.785 -0.4088  0.2756 -1.3216
 4856TIP3   OH236126   0.199   0.816   7.003 -0.0002  0.0034 -0.4318
 4856TIP3    H136127   0.256   0.834   7.078 -0.4632  0.1545 -0.1111
 4856TIP3    H236128   0.136   0.752   7.036 -0.3839  0.2859 -0.6044
 4857TIP3   OH236129   0.207   4.428   7.638 -0.2737 -0.5118 -0.5752
 4857TIP3    H136130   0.258   4.384   7.706 -0.2487 -0.0140 -0.2667
 4857TIP3    H236131   0.225   4.378   7.559  1.7016  0.3632 -0.7451
 4858TIP3   OH236132   6.035   0.951   0.632 -0.2011 -0.1009  0.1771
 4858TIP3    H136133   6.097   0.883   0.604  0.4133  0.9363 -1.1200
 4858TIP3    H236134   5.961   0.941   0.573  0.4872  1.1942 -0.9697
 4859TIP3   OH236135   2.121   6.171   0.069  0.0774 -0.0313 -0.2125
 4859TIP3    H136136   2.117   6.241   0.134 -0.1030  1.1511 -1.4497
 4859TIP3    H236137   2.164   6.211  -0.007  0.2393 -1.3549 -0.8477
 4860TIP3   OH236138   6.216   1.378   2.101 -0.6513 -0.3999  0.4703
 4860TIP3    H136139   6.135   1.389   2.152 -1.3948 -1.1579 -0.5050
 4860TIP3    H236140   6.285   1.415   2.157 -1.5503 -0.4806  1.6672
 4861TIP3   OH236141   5.103   5.765   6.683 -0.1222  0.2687 -0.1592
 4861TIP3    H136142   5.129   5.817   6.607  2.9889  0.9177  1.2049
 4861TIP3    H236143   5.182   5.718   6.709 -1.4095 -0.8964  1.9366
 4862TIP3   OH236144   4.886   1.389   0.189  0.2433 -0.0429 -0.0482
 4862TIP3    H136145   4.974   1.423   0.202  1.1775 -2.2019 -0.3685
 4862TIP3    H236146   4.830   1.467   0.191  2.0636  1.3178  0.7508
 4863TIP3   OH236147   2.104   5.172   8.292 -0.3285 -0.3305  1.1755
 4863TIP3    H136148   2.058   5.251   8.265 -1.3276 -0.8229  1.3874
 4863TIP3    H236149   2.108   5.178   8.388  1.3615  0.4084  1.0856
 4864TIP3   OH236150   5.401   3.602   1.382 -0.0326  0.6895  0.2965
 4864TIP3    H136151   5.409   3.682   1.435 -0.1734  1.9775 -1.5089
 4864TIP3    H236152   5.469   3.544   1.415 -0.6439  1.0992  2.4045
 4865TIP3   OH236153   2.855   6.107   7.899 -0.3252  0.7503 -0.0134
 4865TIP3    H136154   2.795   6.089   7.826 -1.3275 -0.4401  1.0518
 4865TIP3    H236155   2.801   6.100   7.977  1.4353 -1.9516  1.1292
 4866TIP3   OH236156   1.823   4.891   7.453 -0.0523  0.5377  0.1745
 4866TIP3    H136157   1.742   4.941   7.461 -1.7658 -1.9239 -0.6131
 4866TIP3    H236158   1.861   4.893   7.541 -1.4983  0.8870  0.8249
 4867TIP3   OH236159   5.556   3.678   6.837  0.4572 -0.5099  0.4072
 4867TIP3    H136160   5.620   3.727   6.785  0.6224 -0.9642  0.1800
 4867TIP3    H236161   5.606   3.607   6.876 -0.0418 -1.3086 -0.3638
 4868TIP3   OH236162   3.945   5.980   1.677  0.1233 -0.5395 -0.0095
 4868TIP3    H136163   3.895   5.949   1.752  0.4722 -0.6167  0.1912
 4868TIP3    H236164   3.960   5.902   1.624 -1.5512 -0.2277 -1.0158
 4869TIP3   OH236165   5.497   5.351   8.226  0.2161 -0.2631 -0.3340
 4869TIP3    H136166   5.456   5.438   8.220 -1.3798 -0.8516  1.1974
 4869TIP3    H236167   5.460   5.302   8.152 -0.6990 -0.3218  0.1490
 4870TIP3   OH236168   0.870   0.071   1.457 -0.5274 -0.1489 -0.5346
 4870TIP3    H136169   0.832   0.158   1.466 -0.0210 -0.0465  0.7898
 4870TIP3    H236170   0.961   0.081   1.483 -0.7868 -1.3223  0.9859
 4871TIP3   OH236171   4.105   4.643   2.083 -0.8118  0.2388  0.3130
 4871TIP3    H136172   4.010   4.651   2.095 -0.8390 -1.5776  1.9452
 4871TIP3    H236173   4.125   4.555   2.115  1.2922  0.1718 -1.0172
 4872TIP3   OH236174   6.591   3.859   7.858 -0.6486  0.2396 -0.2555
 4872TIP3    H136175   6.514   3.831   7.908  0.1352  2.0148  2.1562
 4872TIP3    H236176   6.627   3.778   7.821 -2.3551 -0.9172  0.4791
 4873TIP3   OH236177   0.240   2.810   7.205  0.2953  0.4268 -0.3085
 4873TIP3    H136178   0.313   2.861   7.242 -0.0840  1.0957 -0.4704
 4873TIP3    H236179   0.203   2.867   7.138 -1.9617  1.1613  1.4492
 4874TIP3   OH236180   6.449   3.976   1.856  0.2804 -0.3600  0.0935
 4874TIP3    H136181   6.518   4.042   1.855 -0.5374  0.4977 -0.9345
 4874TIP3    H236182   6.493   3.897   1.888  0.8503  1.0731  3.2315
 4875TIP3   OH236183   6.078   0.719   0.331  0.4854 -0.0957  1.0706
 4875TIP3    H136184   5.989   0.706   0.298  1.3407  0.3219 -1.6566
 4875TIP3    H236185   6.130   0.653   0.286  2.2975  2.6119 -1.1428
 4876TIP3   OH236186   2.980   5.300   2.154  0.4650  0.0982  0.0127
 4876TIP3    H136187   2.967   5.394   2.139  2.0414  0.3764  0.2447
 4876TIP3    H236188   2.907   5.274   2.210  2.0375  2.0755  3.2874
 4877TIP3   OH236189   2.464   3.360   0.518 -0.2720 -0.4217  0.3291
 4877TIP3    H136190   2.392   3.316   0.473 -1.6879  0.7343  1.3829
 4877TIP3    H236191   2.526   3.381   0.449 -1.3200 -0.7428 -0.7376
 4878TIP3   OH236192   6.560   4.810   0.268 -0.5300 -0.4716 -0.0676
 4878TIP3    H136193   6.590   4.787   0.356  0.2079  1.3509  0.1979
 4878TIP3    H236194   6.533   4.901   0.275 -1.0114 -0.4691 -1.6090
 4879TIP3   OH236195   3.336   0.150   1.559  0.3597  0.3243  0.3483
 4879TIP3    H136196   3.262   0.111   1.511  1.1178 -1.1132  0.3053
 4879TIP3    H236197   3.393   0.186   1.491  0.5099 -0.0336  0.2857
 4880TIP3   OH236198   6.192   5.105   7.735  0.1779 -0.5293 -0.1996
 4880TIP3    H136199   6.188   5.170   7.805  0.2369 -1.7381  0.9829
 4880TIP3    H236200   6.175   5.154   7.655 -3.6299  0.3901  0.9622
 4881TIP3   OH236201   1.535   5.307   8.489  0.1951 -0.0499 -0.5317
 4881TIP3    H136202   1.566   5.230   8.441 -0.7131 -1.0897  0.4924
 4881TIP3    H236203   1.542   5.283   8.581 -5.0535 -1.1238 -0.0942
 4882TIP3   OH236204   0.598   5.853   2.261 -0.3422  0.2355 -0.3668
 4882TIP3    H136205   0.530   5.918   2.240 -1.2121 -0.5062  0.0603
 4882TIP3    H236206   0.551   5.769   2.260  0.0536 -0.0848  2.2184
 4883TIP3   OH236207   3.961   6.345   8.475  0.2638  0.3169 -0.0182
 4883TIP3    H136208   4.028   6.292   8.431  0.8012  0.8367  0.1574
 4883TIP3    H236209   3.925   6.286   8.542  0.0808 -0.1776 -0.5440
 4884TIP3   OH236210   0.655   6.002   8.238  0.4318 -0.7298 -0.3367
 4884TIP3    H136211   0.678   5.930   8.296  2.0742 -1.0423 -1.3260
 4884TIP3    H236212   0.675   6.081   8.288 -0.0804 -0.9518  0.2394
 4885TIP3   OH236213   3.075   4.939   1.704  0.4112  0.1477 -0.1503
 4885TIP3    H136214   3.137   5.012   1.711 -1.2092  1.5443  0.3074
 4885TIP3    H236215   3.067   4.924   1.610  2.0186 -0.6035 -0.1988
 4886TIP3   OH236216   5.280   6.403   2.805 -0.4559 -0.0814 -0.4169
 4886TIP3    H136217   5.331   6.363   2.875 -1.1349  0.8106  0.6193
 4886TIP3    H236218   5.202   6.436   2.848 -1.3717 -0.3769 -1.7734
 4887TIP3   OH236219   0.387   0.626   2.125 -0.1501  0.3674  0.1699
 4887TIP3    H136220   0.329   0.692   2.162  0.9139  1.8668 -0.7472
 4887TIP3    H236221   0.461   0.675   2.089  0.6778 -1.3138 -0.5631
 4888TIP3   OH236222   4.853   4.065   7.623  0.8133 -0.1834  0.3368
 4888TIP3    H136223   4.836   4.061   7.717  0.4296 -0.1065  0.2717
 4888TIP3    H236224   4.919   4.134   7.613  1.9332 -1.1695  0.6969
 4889TIP3   OH236225   3.275   2.746   2.379  0.3865 -0.3710  0.3130
 4889TIP3    H136226   3.235   2.677   2.432  0.7590  0.4147  1.6611
 4889TIP3    H236227   3.294   2.816   2.441 -0.2610  1.0890 -1.0779
 4890TIP3   OH236228   3.061   0.104   7.987 -0.3081 -0.3626 -0.0528
 4890TIP3    H136229   3.112   0.089   8.067 -0.5894  1.1046  0.4208
 4890TIP3    H236230   2.971   0.081   8.012 -0.4042  0.1423  0.0763
 4891TIP3   OH236231   5.486   0.633   2.391 -0.4787  1.0020  0.2914
 4891TIP3    H136232   5.394   0.607   2.394 -0.4298  0.8983  1.2529
 4891TIP3    H236233   5.499   0.666   2.302 -1.1344 -0.1020 -0.2460
 4892TIP3   OH236234   6.246   2.128   1.445  0.0399 -0.3803  0.2682
 4892TIP3    H136235   6.270   2.158   1.533 -0.1716  2.3797 -0.5243
 4892TIP3    H236236   6.233   2.033   1.455  1.8313 -0.4842  2.7862
 4893TIP3   OH236237   4.680   0.745   7.101  0.3935 -0.2691  0.0559
 4893TIP3    H136238   4.732   0.750   7.021  1.4286  1.6434  0.7908
 4893TIP3    H236239   4.740   0.772   7.171 -0.4493 -1.9879  1.5401
 4894TIP3   OH236240   5.597   5.831   8.052  0.0199  0.2533 -0.0973
 4894TIP3    H136241   5.616   5.874   8.136  3.5547  1.3597 -1.2624
 4894TIP3    H236242   5.607   5.737   8.071 -1.2658  0.3331  1.1056
 4895TIP3   OH236243   5.369   2.535   2.767  0.5269  0.3001  0.0563
 4895TIP3    H136244   5.304   2.578   2.822 -1.1553 -0.5295 -1.1840
 4895TIP3    H236245   5.322   2.461   2.727  1.6661  0.7570 -2.3372
 4896TIP3   OH236246   0.980   1.089   8.582  0.1984  0.2752 -0.2910
 4896TIP3    H136247   0.910   1.025   8.582  0.2684  0.1864 -1.1290
 4896TIP3    H236248   0.952   1.156   8.645  0.7755 -1.2454  1.6869
 4897TIP3   OH236249   3.093   2.907   7.176  0.2315 -0.5486  0.2847
 4897TIP3    H136250   3.060   2.845   7.111 -0.8006  0.3820 -0.1106
 4897TIP3    H236251   3.167   2.949   7.133 -1.7524  1.6525 -1.2733
 4898TIP3   OH236252   1.326   3.542   8.305 -0.8092  1.1810  0.4001
 4898TIP3    H136253   1.326   3.460   8.355  1.8321  0.9917  0.2412
 4898TIP3    H236254   1.297   3.517   8.218  0.7556  0.1778  0.1183
 4899TIP3   OH236255   5.218   5.265   7.392 -0.2833 -0.4531  0.2139
 4899TIP3    H136256   5.137   5.244   7.438 -0.1795 -2.7538 -0.5497
 4899TIP3    H236257   5.192   5.275   7.301  0.2133 -0.6605  0.0481
 4900TIP3   OH236258   4.564   0.893   7.388  0.3035  0.0476  0.6964
 4900TIP3    H136259   4.514   0.900   7.469  0.5518  0.4060  0.8230
 4900TIP3    H236260   4.601   0.981   7.375  0.4984 -0.0834  0.3470
 4901TIP3   OH236261   3.130   1.959   2.327 -0.9743 -0.0507 -0.2575
 4901TIP3    H136262   3.146   2.050   2.352 -1.9924  0.1747 -0.3938
 4901TIP3    H236263   3.194   1.908   2.377 -0.5739  0.7092  0.0159
 4902TIP3   OH236264   1.594   1.681   7.928  0.1782 -0.3145  0.6008
 4902TIP3    H136265   1.555   1.694   8.014 -0.6457  1.5613 -0.0048
 4902TIP3    H236266   1.688   1.693   7.942 -0.1108  2.0057  0.9549
 4903TIP3   OH236267   1.245   4.892   7.378 -0.0064  0.4844  0.5902
 4903TIP3    H136268   1.200   4.926   7.455 -0.3619 -0.0207  0.6099
 4903TIP3    H236269   1.286   4.969   7.338  1.4815  0.5572  2.1304
 4904TIP3   OH236270   6.008   6.432   1.359  0.3407 -0.1974 -0.0411
 4904TIP3    H136271   5.970   6.516   1.383 -1.0286 -0.7233 -0.2587
 4904TIP3    H236272   6.053   6.449   1.276 -0.6308  0.1546 -0.5153
 4905TIP3   OH236273   5.297   3.681   8.492 -0.0328 -0.2477 -0.7696
 4905TIP3    H136274   5.221   3.700   8.438  0.3628 -2.4005 -2.2181
 4905TIP3    H236275   5.362   3.747   8.466 -0.2005 -0.6185 -2.1991
 4906TIP3   OH236276   2.284   3.870   2.324 -0.8705  0.3059  0.4160
 4906TIP3    H136277   2.257   3.885   2.234  1.5572  1.8882 -0.1326
 4906TIP3    H236278   2.308   3.777   2.326  1.3161  0.7605 -1.2899
 4907TIP3   OH236279   2.717   1.811   0.199 -0.8893  0.1234 -0.1743
 4907TIP3    H136280   2.656   1.791   0.270 -1.5893  2.2577 -0.0932
 4907TIP3    H236281   2.661   1.845   0.129  0.0472  0.7152 -0.6622
 4908TIP3   OH236282   2.856   4.337   0.753 -0.3391 -0.1007 -0.1461
 4908TIP3    H136283   2.822   4.377   0.673  0.0297  0.4323 -0.0429
 4908TIP3    H236284   2.844   4.243   0.740 -1.0663  0.0327 -0.4605
 4909TIP3   OH236285   1.805   4.531   1.696 -0.1257  0.0502  0.2383
 4909TIP3    H136286   1.768   4.446   1.672 -0.0766 -0.4397  1.7519
 4909TIP3    H236287   1.795   4.585   1.618 -2.8875 -0.4335  0.1621
 4910TIP3   OH236288   0.386   5.256   1.839  0.0782  0.3793  0.4277
 4910TIP3    H136289   0.400   5.346   1.870  0.2493  0.7510 -0.6968
 4910TIP3    H236290   0.385   5.263   1.744 -3.2404 -0.2911  0.2888
 4911TIP3   OH236291   2.272   1.390   1.628 -0.1789  0.1137  0.5252
 4911TIP3    H136292   2.191   1.346   1.600 -0.3058  0.8676 -0.3388
 4911TIP3    H236293   2.249   1.432   1.711 -0.6461  0.2333  0.3416
 4912TIP3   OH236294   4.192   2.153   6.496  0.4557 -0.0792 -0.0886
 4912TIP3    H136295   4.241   2.126   6.573 -1.0282 -2.6573  0.0950
 4912TIP3    H236296   4.101   2.155   6.525  0.1021  1.2752 -1.2103
 4913TIP3   OH236297   2.961   1.318   2.178 -0.0113 -0.1530 -0.0748
 4913TIP3    H136298   2.910   1.238   2.170 -0.6849  0.2629  0.0234
 4913TIP3    H236299   2.896   1.388   2.186  0.5619  0.4402 -0.4748
 4914TIP3   OH236300   6.320   3.694   0.895  0.2001 -0.7006 -0.4591
 4914TIP3    H136301   6.345   3.727   0.982  1.9038  0.6123 -1.3716
 4914TIP3    H236302   6.231   3.726   0.882 -0.3195 -1.4568  1.0439
 4915TIP3   OH236303   0.438   6.301   1.807 -0.7506  0.2715  0.1607
 4915TIP3    H136304   0.456   6.392   1.783  1.6968 -0.1046  0.2528
 4915TIP3    H236305   0.525   6.263   1.822 -1.7841 -1.5900  1.9549
 4916TIP3   OH236306   6.759   2.877   0.521  0.2112  0.1594  0.1752
 4916TIP3    H136307   6.681   2.906   0.569  0.0598  1.3591 -0.7527
 4916TIP3    H236308   6.821   2.949   0.531  1.7099 -1.2886  1.9330
 4917TIP3   OH236309   1.892   5.551   1.813  0.4500  0.1376 -0.6052
 4917TIP3    H136310   1.869   5.590   1.897 -0.7417 -0.2432 -0.7433
 4917TIP3    H236311   1.949   5.616   1.771  0.2413  0.7642  0.0651
 4918TIP3   OH236312   5.866   1.361   0.244  0.1219 -0.4815  0.1157
 4918TIP3    H136313   5.784   1.328   0.280 -0.5714 -0.1281 -1.0838
 4918TIP3    H236314   5.909   1.285   0.207  0.4098 -0.6899  0.8613
 4919TIP3   OH236315   0.393   6.038   2.187 -0.2294 -0.0434 -0.0579
 4919TIP3    H136316   0.434   6.063   2.104  1.1040  0.3215  0.6875
 4919TIP3    H236317   0.390   6.119   2.237 -0.9518 -0.2834  0.2971
 4920TIP3   OH236318   3.973   3.142   7.705 -0.3318 -0.0260  0.5751
 4920TIP3    H136319   4.023   3.188   7.637 -0.7632 -0.0245  0.2541
 4920TIP3    H236320   3.933   3.068   7.659 -0.6553 -0.0063  0.8233
 4921TIP3   OH236321   4.491   3.302   0.317  0.1766  0.4997 -0.2097
 4921TIP3    H136322   4.475   3.379   0.263 -0.5335  0.1377 -0.5219
 4921TIP3    H236323   4.491   3.335   0.407  1.0894  1.0574 -0.4052
 4922TIP3   OH236324   2.910   6.760   8.249 -0.1155  0.4583 -0.1338
 4922TIP3    H136325   2.877   6.677   8.214  0.8624 -1.2958  2.7509
 4922TIP3    H236326   2.852   6.826   8.211 -0.3315 -1.3493 -3.3435
 4923TIP3   OH236327   1.509   2.562   1.145  0.3765  0.1676 -1.0672
 4923TIP3    H136328   1.457   2.637   1.175  0.7171  0.5789 -1.4886
 4923TIP3    H236329   1.452   2.486   1.158  0.6655  0.2656  1.0191
 4924TIP3   OH236330   3.895   0.574   0.708 -0.3405 -0.3321  0.4810
 4924TIP3    H136331   3.931   0.533   0.630  0.7199  1.2317  0.1302
 4924TIP3    H236332   3.834   0.508   0.743  0.1172 -1.5519 -0.9323
 4925TIP3   OH236333   2.160   6.235   7.008 -0.5335 -0.2087 -0.0432
 4925TIP3    H136334   2.220   6.199   6.944  0.4479  0.6578  0.3639
 4925TIP3    H236335   2.171   6.330   7.001 -2.1349  0.0064 -0.2257
 4926TIP3   OH236336   6.692   3.834   1.508  0.0492  0.3949 -0.1491
 4926TIP3    H136337   6.713   3.762   1.448  1.0909 -0.1385  0.7976
 4926TIP3    H236338   6.727   3.805   1.592 -1.3876  1.1093  0.7336
 4927TIP3   OH236339   4.536   0.500   7.097  0.4103 -0.2873  0.4062
 4927TIP3    H136340   4.586   0.582   7.099  0.8979 -0.5735  0.1588
 4927TIP3    H236341   4.518   0.481   7.189 -1.4285  1.1244  0.3996
 4928TIP3   OH236342   2.129   3.103   7.538  0.0227  0.0298  0.2002
 4928TIP3    H136343   2.087   3.062   7.462 -0.2541  1.5482 -0.4877
 4928TIP3    H236344   2.211   3.138   7.504 -0.6992  1.8728  0.2718
 4929TIP3   OH236345   1.387   4.102   0.507 -0.1298 -0.0137  0.1764
 4929TIP3    H136346   1.331   4.057   0.571  1.1235 -0.4700  0.9708
 4929TIP3    H236347   1.333   4.106   0.428 -1.7998  0.7651  1.3005
 4930TIP3   OH236348   6.161   1.559   1.871  0.0742 -0.5068 -0.2552
 4930TIP3    H136349   6.148   1.469   1.901 -0.4153  0.0114  1.1903
 4930TIP3    H236350   6.096   1.572   1.802 -1.5736 -0.5180  1.2396
 4931TIP3   OH236351   2.790   2.116   2.792  0.0052  0.1625  0.4772
 4931TIP3    H136352   2.860   2.085   2.849 -1.5648  1.8724  3.5511
 4931TIP3    H236353   2.763   2.039   2.743  2.1788 -1.1441  1.2081
 4932TIP3   OH236354   6.449   4.949   8.114  0.3669 -0.1213  0.1434
 4932TIP3    H136355   6.481   4.864   8.084 -0.1729  0.0557 -1.0267
 4932TIP3    H236356   6.354   4.939   8.117 -0.0904  1.3720 -3.4798
 4933TIP3   OH236357   5.044   3.579   2.901  0.0365 -0.1373  0.3885
 4933TIP3    H136358   4.953   3.574   2.928  0.1326  0.3455  0.8102
 4933TIP3    H236359   5.041   3.618   2.814 -0.1600 -0.1549  0.3866
 4934TIP3   OH236360   0.514   5.058   6.736  0.1282 -0.4791  0.4179
 4934TIP3    H136361   0.601   5.032   6.705  0.2616  0.5100 -0.1009
 4934TIP3    H236362   0.475   4.978   6.769  1.8440 -0.6789  2.1522
 4935TIP3   OH236363   5.094   5.857   8.577 -0.0021  0.6454  0.1982
 4935TIP3    H136364   5.151   5.805   8.634  1.4176  1.3461 -0.5143
 4935TIP3    H236365   5.027   5.892   8.636  0.1557 -0.3934  1.0291
 4936TIP3   OH236366   4.011   2.439   2.159 -0.2077  0.1970  0.1434
 4936TIP3    H136367   3.969   2.371   2.106  2.8117 -2.8540  1.3017
 4936TIP3    H236368   4.082   2.472   2.104  1.1878 -0.9869  1.1452
 4937TIP3   OH236369   0.795   1.000   7.609 -0.0625  0.2820  0.2534
 4937TIP3    H136370   0.758   0.931   7.553 -1.3003  1.6915 -0.7598
 4937TIP3    H236371   0.879   1.021   7.569  0.1917 -0.4179  0.4006
 4938TIP3   OH236372   4.291   3.231   8.617 -0.3647 -0.0970 -0.4366
 4938TIP3    H136373   4.348   3.290   8.568 -1.6954  0.0732 -1.8606
 4938TIP3    H236374   4.272   3.278   8.698 -1.0937  1.3299 -1.3741
 4939TIP3   OH236375   1.675   3.594   1.474 -0.2522 -0.7390  0.3774
 4939TIP3    H136376   1.740   3.605   1.405 -1.1612  1.2738 -0.2335
 4939TIP3    H236377   1.727   3.585   1.554  0.7994  0.4023 -0.1439
 4940TIP3   OH236378   2.297   2.894   0.361  0.2302  0.0779 -0.2248
 4940TIP3    H136379   2.386   2.883   0.328 -0.2885 -2.0237 -1.0190
 4940TIP3    H236380   2.299   2.855   0.448 -0.1731 -0.9756 -0.6820
 4941TIP3   OH236381   6.372   5.807   1.111  0.3538  0.1205  0.8027
 4941TIP3    H136382   6.432   5.861   1.060 -1.1263 -0.2382 -1.4273
 4941TIP3    H236383   6.384   5.718   1.077  0.0595 -0.3279  1.8256
 4942TIP3   OH236384   5.218   5.520   7.483 -0.5376  0.1042  0.2159
 4942TIP3    H136385   5.220   5.434   7.441  1.2183  0.6711 -0.9278
 4942TIP3    H236386   5.225   5.501   7.577  0.6556 -0.9793 -0.0696
 4943TIP3   OH236387   3.423   6.135   1.296 -0.2902  0.2552 -0.0289
 4943TIP3    H136388   3.446   6.228   1.306 -0.1908  0.1927  0.3335
 4943TIP3    H236389   3.501   6.095   1.259 -0.4339  0.3675 -0.4614
 4944TIP3   OH236390   0.749   6.860   1.760  0.3195 -0.1261  0.7499
 4944TIP3    H136391   0.736   6.888   1.850 -0.6737  3.1003 -0.2816
 4944TIP3    H236392   0.844   6.859   1.749  0.4246  1.6589  1.2474
 4945TIP3   OH236393   3.434   5.460   0.434  0.1285 -0.2505  0.6259
 4945TIP3    H136394   3.528   5.442   0.440  0.0914 -0.6028  0.1645
 4945TIP3    H236395   3.395   5.406   0.503  0.3044  0.2290  1.1098
 4946TIP3   OH236396   6.519   6.627   0.983 -0.3095  0.7780  0.1692
 4946TIP3    H136397   6.523   6.589   1.071 -2.1763 -0.3286 -0.1738
 4946TIP3    H236398   6.608   6.657   0.966  0.1804  0.6991  2.2877
 4947TIP3   OH236399   4.668   0.735   3.364 -0.3692  0.1558 -0.0900
 4947TIP3    H136400   4.651   0.687   3.283  0.2998  1.0796 -0.7935
 4947TIP3    H236401   4.756   0.709   3.388  0.7268  2.3409 -1.4631
 4948TIP3   OH236402   6.428   2.128   0.596  0.1223 -0.1713  0.4916
 4948TIP3    H136403   6.338   2.111   0.620 -0.3850 -0.3637 -1.3901
 4948TIP3    H236404   6.474   2.046   0.614 -0.2817 -0.3811  0.5785
 4949TIP3   OH236405   6.035   5.246   8.363  0.8145 -0.5568 -0.3112
 4949TIP3    H136406   6.129   5.265   8.356  1.1361 -2.0819 -0.5022
 4949TIP3    H236407   6.023   5.218   8.453 -0.1244  2.7429  0.7059
 4950TIP3   OH236408   5.143   1.210   1.384  0.2168 -0.6357  0.5095
 4950TIP3    H136409   5.173   1.292   1.344 -1.9548 -1.0160 -2.1758
 4950TIP3    H236410   5.086   1.238   1.455  1.8428  0.0768  1.6171
 4951TIP3   OH236411   3.036   4.842   1.441  0.1145  0.1892 -0.3970
 4951TIP3    H136412   3.101   4.838   1.371 -0.0778  0.6545 -0.6058
 4951TIP3    H236413   2.963   4.891   1.403 -0.0294  0.3624  0.0983
 4952TIP3   OH236414   6.469   4.017   7.467  0.0485 -0.2513  0.0097
 4952TIP3    H136415   6.383   4.054   7.444  1.1349  1.7048 -1.2130
 4952TIP3    H236416   6.484   3.949   7.402  0.0152  0.3875 -0.6811
 4953TIP3   OH236417   3.289   6.078   8.576 -0.2992 -0.1815 -0.0524
 4953TIP3    H136418   3.373   6.084   8.532  0.4724 -1.0670  1.2360
 4953TIP3    H236419   3.284   6.156   8.631 -0.7525  0.3447 -0.8249
 4954TIP3   OH236420   1.447   4.113   2.143 -0.3145  0.2522  0.3517
 4954TIP3    H136421   1.474   4.147   2.228  1.2275  0.7327 -0.2780
 4954TIP3    H236422   1.497   4.165   2.080 -0.2640 -1.1060 -0.7826
 4955TIP3   OH236423   2.749   2.673   1.811  0.3618  0.2455  0.6877
 4955TIP3    H136424   2.689   2.742   1.782  0.5213 -0.3808 -1.3171
 4955TIP3    H236425   2.785   2.705   1.894 -0.7912  1.8055  0.6304
 4956TIP3   OH236426   6.499   1.369   1.748 -0.1946  0.2791  0.2553
 4956TIP3    H136427   6.549   1.392   1.826  1.1488  0.2834 -0.5834
 4956TIP3    H236428   6.556   1.310   1.698 -1.1349  0.0450 -0.6021
 4957TIP3   OH236429   1.116   4.516   0.350 -0.0200 -0.0885 -0.6591
 4957TIP3    H136430   1.078   4.583   0.407  0.2640 -0.4204 -0.0704
 4957TIP3    H236431   1.110   4.553   0.262  0.5110  0.8835 -0.2954
 4958TIP3   OH236432   5.873   4.608   8.240  0.2097 -0.2928 -0.6330
 4958TIP3    H136433   5.856   4.668   8.168 -1.5521 -1.0464 -0.8975
 4958TIP3    H236434   5.786   4.573   8.264  0.9472 -1.3129  0.7416
 4959TIP3   OH236435   0.556   1.921   2.614  0.4771 -0.8158  0.2182
 4959TIP3    H136436   0.594   1.959   2.535  2.1596 -1.5716  0.6269
 4959TIP3    H236437   0.630   1.879   2.659 -0.7587 -1.9540  1.2863
 4960TIP3   OH236438   6.478   0.981   0.689 -0.3083  0.5325 -0.4560
 4960TIP3    H136439   6.443   0.893   0.682 -1.2267  0.8776 -0.3793
 4960TIP3    H236440   6.436   1.018   0.767  1.6337  0.3498  0.7506
 4961TIP3   OH236441   5.280   2.102   7.167 -0.4842  0.4016 -0.0981
 4961TIP3    H136442   5.334   2.045   7.222 -0.7447 -1.2461 -1.4776
 4961TIP3    H236443   5.191   2.087   7.198 -0.5861 -0.2129 -0.6598
 4962TIP3   OH236444   6.166   6.694   1.529  0.2102 -0.1580 -0.0698
 4962TIP3    H136445   6.105   6.712   1.600 -0.4056 -0.6664 -0.4616
 4962TIP3    H236446   6.116   6.708   1.449  0.7703 -0.0164 -0.4035
 4963TIP3   OH236447   3.003   4.977   0.077 -0.5903 -0.4010 -0.4086
 4963TIP3    H136448   2.939   4.965   0.007 -2.4654 -0.8887  1.2870
 4963TIP3    H236449   2.979   4.911   0.143  1.2687 -0.1614  0.5853
 4964TIP3   OH236450   3.161   0.286   1.185 -0.4651 -0.0754  0.2996
 4964TIP3    H136451   3.159   0.379   1.208  1.3999  0.2180 -0.5038
 4964TIP3    H236452   3.131   0.284   1.094 -1.3658 -0.3873  0.5972
 4965TIP3   OH236453   4.256   0.790   1.830 -0.9122 -0.1607 -0.0087
 4965TIP3    H136454   4.239   0.741   1.750 -2.2440  0.7781 -0.3449
 4965TIP3    H236455   4.324   0.740   1.876  1.8173  0.5769 -2.8959
 4966TIP3   OH236456   6.073   1.160   6.571 -0.0876 -0.4061  0.3206
 4966TIP3    H136457   6.118   1.242   6.550 -1.5523  0.5732  0.8501
 4966TIP3    H236458   6.016   1.144   6.495 -1.9124  0.6339  1.3975
 4967TIP3   OH236459   5.851   5.588   6.701  0.4149 -0.2428  0.5530
 4967TIP3    H136460   5.899   5.631   6.772  0.6002 -1.2229  1.0443
 4967TIP3    H236461   5.916   5.530   6.660  0.1079 -0.2545  0.0782
 4968TIP3   OH236462   4.937   0.017   1.205 -0.0085  0.2713  0.1169
 4968TIP3    H136463   4.904   0.107   1.214 -1.4884 -0.3617  1.8417
 4968TIP3    H236464   4.869  -0.028   1.155  0.5891  0.0423 -0.4882
 4969TIP3   OH236465   6.514   0.175   1.881 -0.0356 -0.2898 -0.3323
 4969TIP3    H136466   6.448   0.231   1.840 -1.4798 -2.6865 -1.4953
 4969TIP3    H236467   6.594   0.192   1.831 -0.1727  1.4170 -0.0097
 4970TIP3   OH236468   3.086   6.003   1.854  0.0206 -0.2187  0.0094
 4970TIP3    H136469   3.048   5.920   1.825  0.2662 -0.2306 -0.2878
 4970TIP3    H236470   3.180   5.987   1.855 -0.0155 -0.4490  1.5665
 4971TIP3   OH236471   3.468   6.134   7.693  0.1050 -0.2706  0.2851
 4971TIP3    H136472   3.481   6.049   7.733  2.2547  0.4477  1.2660
 4971TIP3    H236473   3.518   6.130   7.611 -0.4299 -0.1962 -0.0511
 4972TIP3   OH236474   1.635   4.970   7.086 -0.2654 -0.0406  0.9302
 4972TIP3    H136475   1.662   5.059   7.063 -0.1208  0.0244  1.3538
 4972TIP3    H236476   1.543   4.979   7.109 -0.4498 -0.1292  0.2538
 4973TIP3   OH236477   3.136   2.233   7.836 -0.7255  0.4184  0.4019
 4973TIP3    H136478   3.093   2.150   7.816 -0.1529  0.2145  0.0075
 4973TIP3    H236479   3.076   2.300   7.803 -0.0231  0.1029 -1.6031
 4974TIP3   OH236480   6.101   4.583   1.722 -0.4998 -0.4779  0.1429
 4974TIP3    H136481   6.084   4.513   1.785  0.1474  0.0081  0.8835
 4974TIP3    H236482   6.055   4.659   1.758  0.0059 -0.1570  0.1137
 4975TIP3   OH236483   2.643   4.416   7.616  0.5547 -0.2830 -0.3854
 4975TIP3    H136484   2.730   4.438   7.649  0.8563 -1.3484 -0.4410
 4975TIP3    H236485   2.641   4.451   7.527  0.1260  1.6552  0.3447
 4976TIP3   OH236486   0.823   0.645   1.320  0.0537  0.2179 -0.4553
 4976TIP3    H136487   0.831   0.574   1.384  0.5651  1.8168  1.3478
 4976TIP3    H236488   0.767   0.709   1.362 -1.6615  0.2752 -2.6875
 4977TIP3   OH236489   5.102   4.248   0.130 -0.1467  0.0992 -0.1920
 4977TIP3    H136490   5.059   4.167   0.156 -0.3159  0.3035  0.1621
 4977TIP3    H236491   5.195   4.224   0.121  0.2207  0.3839  2.2527
 4978TIP3   OH236492   3.740   5.146   2.889  0.0084 -0.2152  0.3440
 4978TIP3    H136493   3.778   5.138   2.977  0.2213 -0.0970  0.2632
 4978TIP3    H236494   3.787   5.081   2.837 -1.2961 -1.5029  0.7098
 4979TIP3   OH236495   2.789   1.160   2.033  0.3740  0.3731 -0.3120
 4979TIP3    H136496   2.779   1.076   1.988 -0.0588 -0.2552  0.8881
 4979TIP3    H236497   2.714   1.163   2.094  0.2926  1.7057 -0.4495
 4980TIP3   OH236498   6.109   1.420   0.810  0.5350  0.4148 -0.4324
 4980TIP3    H136499   6.075   1.336   0.779  1.5471  0.0197 -0.4889
 4980TIP3    H236500   6.032   1.477   0.812 -0.1111 -0.4263 -0.6700
 4981TIP3   OH236501   3.004   0.375   1.563  0.3789  0.2189  0.2604
 4981TIP3    H136502   2.927   0.429   1.546 -0.3199 -0.7298  0.3227
 4981TIP3    H236503   3.078   0.432   1.546 -0.2763  0.3899 -2.4650
 4982TIP3   OH236504   5.225   6.779   7.382 -0.0231 -0.0838 -0.6209
 4982TIP3    H136505   5.135   6.794   7.411  0.3741 -0.0644  0.6822
 4982TIP3    H236506   5.222   6.695   7.336 -0.8672  0.3563 -1.4033
 4983TIP3   OH236507   2.050   0.612   1.267  0.9080  0.1785  0.0135
 4983TIP3    H136508   1.986   0.645   1.204 -0.1102  2.2405  1.9786
 4983TIP3    H236509   2.005   0.540   1.311  1.4052 -0.8726 -1.1293
 4984TIP3   OH236510   3.371   1.835   7.441 -0.0871  0.6860  0.0780
 4984TIP3    H136511   3.421   1.880   7.509  0.4557 -0.3117  0.3528
 4984TIP3    H236512   3.309   1.779   7.489 -2.5623  2.9639 -0.2233
 4985TIP3   OH236513   2.486   5.662   1.640 -0.1706  0.2785  0.2546
 4985TIP3    H136514   2.449   5.577   1.664 -0.6903  0.8560  1.5890
 4985TIP3    H236515   2.577   5.657   1.670 -0.5414  0.6272  1.4873
 4986TIP3   OH236516   0.412   3.699   2.557  0.0391  0.1977  0.4299
 4986TIP3    H136517   0.334   3.654   2.523 -1.2914  1.2479  1.9437
 4986TIP3    H236518   0.466   3.628   2.593  0.7655 -0.7605 -2.3270
 4987TIP3   OH236519   6.761   0.819   0.883 -0.0755 -0.6345  0.1140
 4987TIP3    H136520   6.706   0.897   0.887  0.1110 -0.5182  0.5571
 4987TIP3    H236521   6.700   0.746   0.888 -0.2335 -0.5106 -0.0304
 4988TIP3   OH236522   4.058   5.933   1.257 -0.7218  0.1429 -0.3984
 4988TIP3    H136523   4.107   5.952   1.178  1.2743 -0.5731  0.5852
 4988TIP3    H236524   4.051   6.017   1.303  0.1201  0.1434 -0.2711
 4989TIP3   OH236525   3.230   4.808   7.845  0.0594 -0.2303  0.0432
 4989TIP3    H136526   3.173   4.736   7.872 -0.7698  0.5075  0.2950
 4989TIP3    H236527   3.172   4.884   7.838  1.0428  0.5912  0.5009
 4990TIP3   OH236528   0.026   2.765   7.362  0.2934 -0.1314 -0.1312
 4990TIP3    H136529   0.114   2.767   7.323  0.5711  0.7995  0.4908
 4990TIP3    H236530   0.027   2.836   7.427  0.6083 -2.9338  3.2376
 4991TIP3   OH236531   4.966   5.295   7.516  0.1994 -0.1235 -0.2141
 4991TIP3    H136532   4.957   5.350   7.438  0.3961  0.2144  0.0009
 4991TIP3    H236533   4.923   5.345   7.585 -5.6864 -2.9548 -1.1915
 4992TIP3   OH236534   4.232   3.445   0.760  0.0854 -0.2525 -0.3511
 4992TIP3    H136535   4.241   3.379   0.829 -2.0516 -1.8353 -1.4787
 4992TIP3    H236536   4.236   3.528   0.807  1.1918 -1.1844  1.3387
 4993TIP3   OH236537   2.577   4.054   7.484  0.2319 -0.1426 -0.2716
 4993TIP3    H136538   2.567   3.972   7.436  0.7880 -0.1174 -0.4368
 4993TIP3    H236539   2.612   4.115   7.420 -1.4771  0.6240 -0.5343
 4994TIP3   OH236540   0.007   5.777   1.940  0.3098 -0.6443  0.3685
 4994TIP3    H136541   0.080   5.813   1.990  0.4495  0.6379 -0.7074
 4994TIP3    H236542  -0.046   5.853   1.915 -0.7365 -1.4334  0.1026
 4995TIP3   OH236543   3.317   3.460   0.232  0.3654  0.5046 -0.3338
 4995TIP3    H136544   3.284   3.537   0.184  0.9093  0.8902 -0.0998
 4995TIP3    H236545   3.405   3.447   0.198  0.3967  0.1848 -0.1303
 4996TIP3   OH236546   2.543   2.416   7.876  0.5732  0.3109 -0.5399
 4996TIP3    H136547   2.619   2.360   7.892 -1.0481 -1.6824  0.6706
 4996TIP3    H236548   2.500   2.376   7.800 -1.6846 -1.4653  1.5172
 4997TIP3   OH236549   2.971   4.647   1.784 -0.0966  0.4250  0.8734
 4997TIP3    H136550   2.975   4.732   1.740  1.2180  0.2809  0.6780
 4997TIP3    H236551   3.030   4.591   1.733  0.5664 -0.0631  2.1366
 4998TIP3   OH236552   6.256   0.707   1.003  0.2402  0.1124  0.3578
 4998TIP3    H136553   6.224   0.788   0.964 -0.4636  0.0476  0.7839
 4998TIP3    H236554   6.185   0.679   1.061  1.1725  0.0912  1.5121
 4999TIP3   OH236555   4.014   0.929   1.804 -0.1228 -0.5603  0.0102
 4999TIP3    H136556   4.078   0.912   1.874  1.3058 -0.6105 -1.2481
 4999TIP3    H236557   4.034   0.864   1.737 -0.1773  0.6808 -1.2610
 5000TIP3   OH236558   5.093   1.407   7.253  0.5418  0.1980  0.2385
 5000TIP3    H136559   5.165   1.362   7.297 -0.6877 -2.1907 -0.0158
 5000TIP3    H236560   5.134   1.453   7.180  1.9189 -0.2149  0.7257
 5001TIP3   OH236561   3.463   5.995   0.483  0.0721  0.2780 -0.5184
 5001TIP3    H136562   3.509   5.933   0.428 -0.6701  0.1666 -1.0311
 5001TIP3    H236563   3.431   5.943   0.557 -0.4567  0.0683 -0.8928
 5002TIP3   OH236564   4.079   1.706   2.967 -0.0198  0.3132 -0.1909
 5002TIP3    H136565   4.068   1.727   2.874 -0.5311  1.7845  0.1794
 5002TIP3    H236566   4.128   1.780   3.003 -0.5741  0.1818  0.8756
 5003TIP3   OH236567   1.972   4.951   8.459  0.3240  0.0074  0.5046
 5003TIP3    H136568   2.009   4.992   8.381 -0.8133  0.0460 -0.0321
 5003TIP3    H236569   2.030   4.979   8.530  2.1079 -1.0388 -0.4674
 5004TIP3   OH236570   4.923   6.269   0.082  0.0298  0.0468 -0.1202
 5004TIP3    H136571   4.946   6.323   0.158 -0.8115 -0.2767  0.3801
 5004TIP3    H236572   4.903   6.332   0.013  0.2601  0.3514  0.0902
 5005TIP3   OH236573   5.700   1.399   0.015 -0.0207 -0.0976  0.2084
 5005TIP3    H136574   5.779   1.399   0.069  0.2204  0.5750 -0.1281
 5005TIP3    H236575   5.731   1.422  -0.072 -0.7340  1.3925  0.3223
 5006TIP3   OH236576   5.889   0.715   0.923 -0.2247  0.0295  0.0931
 5006TIP3    H136577   5.900   0.803   0.959 -2.4370  0.2699  0.2711
 5006TIP3    H236578   5.937   0.659   0.984  0.0512  0.9465  0.7499
 5007TIP3   OH236579   1.033   3.971   8.472 -0.1002 -0.1048 -0.6185
 5007TIP3    H136580   1.113   4.001   8.515 -0.3028 -0.7400  0.2113
 5007TIP3    H236581   0.962   4.005   8.527 -0.4624  1.1732 -1.7970
 5008TIP3   OH236582   3.604   6.207   0.579  0.4946 -0.1375 -0.2657
 5008TIP3    H136583   3.539   6.140   0.597  1.7260 -0.9202  1.4778
 5008TIP3    H236584   3.672   6.162   0.528  0.3611  0.3281 -0.8756
 5009TIP3   OH236585   3.552   1.695   2.571  0.3309 -0.0924 -0.3260
 5009TIP3    H136586   3.631   1.749   2.581 -0.0725  0.7664 -1.5399
 5009TIP3    H236587   3.481   1.759   2.565 -0.3270 -0.8225 -0.3278
 5010TIP3   OH236588   6.385   5.873   8.573  0.4692 -0.2694 -0.1058
 5010TIP3    H136589   6.339   5.946   8.615  0.0917 -0.1372 -0.7425
 5010TIP3    H236590   6.475   5.880   8.605  0.3740  0.3223  0.0402
 5011TIP3   OH236591   0.114   2.921   8.124  0.2632  0.4342  0.4735
 5011TIP3    H136592   0.091   2.952   8.037 -2.9538 -1.5663  0.4759
 5011TIP3    H236593   0.049   2.961   8.182  0.2978 -0.8611  1.4431
 5012TIP3   OH236594   1.165   5.564   0.581 -0.9414 -0.5359  0.5103
 5012TIP3    H136595   1.091   5.513   0.612 -0.6298 -0.3034  1.6906
 5012TIP3    H236596   1.242   5.518   0.615 -0.5155 -0.7886 -0.7087
 5013TIP3   OH236597   0.463   2.041   7.825  0.0284  0.5317 -0.7517
 5013TIP3    H136598   0.545   1.992   7.820 -0.6074 -0.6837  0.0097
 5013TIP3    H236599   0.488   2.126   7.859  1.0398  0.3654 -1.0398
 5014TIP3   OH236600   6.865   5.755   1.545  0.2470  0.1130  0.4739
 5014TIP3    H136601   6.846   5.685   1.608 -0.2999 -0.9566 -0.8327
 5014TIP3    H236602   6.949   5.731   1.508 -1.0488 -1.2580 -1.7545
 5015TIP3   OH236603   3.696   2.105   1.986 -0.0190  0.0741 -0.7737
 5015TIP3    H136604   3.639   2.140   1.917  0.6002  0.3630 -1.1393
 5015TIP3    H236605   3.652   2.130   2.068 -1.1366 -0.8895 -1.0450
 5016TIP3   OH236606   0.754   0.064   8.255  1.0284 -0.3354 -0.5081
 5016TIP3    H136607   0.697   0.081   8.180  1.3928  0.2651 -0.6550
 5016TIP3    H236608   0.724  -0.020   8.289 -2.7119  1.7000  1.9296
 5017TIP3   OH236609   6.825   2.927   2.449  0.3597 -0.5069  0.7259
 5017TIP3    H136610   6.801   2.837   2.425 -5.3166  1.1679 -1.6770
 5017TIP3    H236611   6.797   2.935   2.541 -2.6690 -0.4806 -0.0817
 5018TIP3   OH236612   4.942   3.812   7.210  0.1755 -0.0816 -0.2700
 5018TIP3    H136613   4.944   3.756   7.132  0.1686 -0.1504 -0.2213
 5018TIP3    H236614   4.852   3.803   7.244 -0.0885  0.6456 -0.7562
 5019TIP3   OH236615   2.811   5.542   1.275 -0.0534 -0.0393 -0.0685
 5019TIP3    H136616   2.831   5.490   1.353  1.5503  0.4286 -0.1347
 5019TIP3    H236617   2.782   5.627   1.309  0.3583  0.0644  0.0280
 5020TIP3   OH236618   0.058   2.647   8.185  0.7406 -0.0196 -0.2497
 5020TIP3    H136619   0.081   2.723   8.130 -1.5981  0.2741 -0.9465
 5020TIP3    H236620   0.086   2.672   8.273 -0.4602  1.9749 -0.3480
 5021TIP3   OH236621   5.410   6.537   2.033 -0.5314 -0.4042  0.2858
 5021TIP3    H136622   5.444   6.584   2.109  0.3973 -0.5790 -0.0045
 5021TIP3    H236623   5.414   6.600   1.961  1.7432 -1.1731 -0.3537
 5022TIP3   OH236624   1.519   0.320   0.853  0.0519 -0.6083 -0.0761
 5022TIP3    H136625   1.613   0.331   0.865 -0.1457 -0.4204  1.5716
 5022TIP3    H236626   1.481   0.340   0.939 -1.3233 -2.6316 -0.1350
 5023TIP3   OH236627   1.742   6.513   7.077  0.0672  0.1097 -0.0082
 5023TIP3    H136628   1.809   6.444   7.073  0.6733  0.6487  0.5811
 5023TIP3    H236629   1.681   6.483   7.145 -1.4922 -1.3945 -1.9435
 5024TIP3   OH236630   1.856   1.044   6.834 -0.0433 -0.2003 -0.2893
 5024TIP3    H136631   1.824   0.955   6.822 -0.1933 -0.1354 -0.3758
 5024TIP3    H236632   1.791   1.086   6.891  0.6202 -0.4816  0.6915
 5025TIP3   OH236633   3.253   6.623   1.912 -0.2450  0.4626 -0.7211
 5025TIP3    H136634   3.311   6.699   1.923  0.2350 -0.0772  0.6607
 5025TIP3    H236635   3.173   6.648   1.958 -0.0494  0.1162 -0.1746
 5026TIP3   OH236636   4.778   2.192   1.974  0.3276  0.2611 -0.6123
 5026TIP3    H136637   4.707   2.237   1.930 -1.2498 -0.0207  1.4835
 5026TIP3    H236638   4.757   2.099   1.967  0.3742  0.1805  0.1395
 5027TIP3   OH236639   4.805   5.019   1.354  0.1874  0.1328 -0.0281
 5027TIP3    H136640   4.874   4.953   1.359  0.9918  0.9871  0.5176
 5027TIP3    H236641   4.791   5.032   1.260  2.0110  1.1713 -0.1994
 5028TIP3   OH236642   5.735   1.776   7.162  0.0486 -0.6363 -0.4575
 5028TIP3    H136643   5.783   1.721   7.224  1.3178 -0.9277 -1.6525
 5028TIP3    H236644   5.745   1.733   7.078 -1.4291 -0.1094 -0.9473
 5029TIP3   OH236645   4.099   5.311   0.540  0.3556 -0.2945  0.3274
 5029TIP3    H136646   4.091   5.248   0.612 -0.5220 -1.0501 -0.4141
 5029TIP3    H236647   4.193   5.313   0.520  0.3303 -1.8322 -0.0371
 5030TIP3   OH236648   4.264   4.485   8.336  0.0271  0.0997 -0.5844
 5030TIP3    H136649   4.280   4.488   8.241  0.0512 -0.8745 -0.6209
 5030TIP3    H236650   4.315   4.557   8.371 -2.3194  2.4434 -1.6192
 5031TIP3   OH236651   5.661   6.128   2.898 -0.1748 -0.2494 -0.2139
 5031TIP3    H136652   5.753   6.116   2.919  0.1871  1.5476 -0.5673
 5031TIP3    H236653   5.624   6.040   2.898  1.0664 -0.8425  1.9948
 5032TIP3   OH236654   2.145   6.508   2.954  0.0370  0.8408 -0.0875
 5032TIP3    H136655   2.204   6.480   3.024  0.0256  1.4111  0.1577
 5032TIP3    H236656   2.066   6.455   2.966  0.5503 -0.0396 -0.5146
 5033TIP3   OH236657   5.765   2.507   2.440  0.4482 -0.1163  0.2961
 5033TIP3    H136658   5.851   2.498   2.398  1.0289  1.3166  1.1105
 5033TIP3    H236659   5.773   2.455   2.520  0.3713 -0.4212  0.1060
 5034TIP3   OH236660   2.864   2.740   8.059 -0.0109 -0.5545 -0.3960
 5034TIP3    H136661   2.779   2.726   8.018 -0.2176  0.6284 -0.4053
 5034TIP3    H236662   2.865   2.833   8.083  1.0266 -0.6876  0.1774
 5035TIP3   OH236663   1.319   5.876   1.858 -0.1334  0.1910 -0.3115
 5035TIP3    H136664   1.261   5.838   1.924  0.3699 -0.4814 -0.2452
 5035TIP3    H236665   1.260   5.927   1.802 -0.4621  1.4447  1.1034
 5036TIP3   OH236666   4.918   2.622   8.093 -0.3900 -0.3493 -0.0672
 5036TIP3    H136667   4.907   2.536   8.050 -3.5104  0.0869 -0.4257
 5036TIP3    H236668   4.962   2.675   8.027 -0.6045 -1.0547 -0.8114
 5037TIP3   OH236669   5.955   0.499   1.961 -0.2114  0.5506 -0.1257
 5037TIP3    H136670   5.991   0.587   1.956 -0.9605  0.8870  0.1555
 5037TIP3    H236671   6.031   0.441   1.954  0.4141  1.2387  0.7481
 5038TIP3   OH236672   0.097   6.433   7.735 -0.0010  0.3477 -0.7285
 5038TIP3    H136673   0.040   6.359   7.713  0.4635 -1.3225  2.9918
 5038TIP3    H236674   0.047   6.483   7.800  0.7591  1.8429 -1.2514
 5039TIP3   OH236675   0.140   3.882   8.007  0.5645  0.1021  0.1969
 5039TIP3    H136676   0.162   3.824   7.934  0.3309 -0.9765  0.9599
 5039TIP3    H236677   0.056   3.920   7.982  0.0600 -0.9152  0.2604
 5040TIP3   OH236678   4.132   0.640   0.059  0.0560 -0.1586 -0.3876
 5040TIP3    H136679   4.221   0.628   0.027 -0.4331  0.2145 -2.0320
 5040TIP3    H236680   4.111   0.731   0.038 -1.3148 -0.7379 -1.7507
 5041TIP3   OH236681   1.289   0.033   1.286 -0.3795 -0.0586  0.1445
 5041TIP3    H136682   1.273  -0.043   1.229 -0.9161 -0.7331  1.1617
 5041TIP3    H236683   1.378   0.060   1.264 -0.1779 -0.9841 -0.2492
 5042TIP3   OH236684   1.400   2.436   1.993 -0.7049  0.4164  0.2328
 5042TIP3    H136685   1.487   2.475   1.987 -0.6069  0.1684  0.0323
 5042TIP3    H236686   1.360   2.453   1.908 -1.3311  1.6502  0.7505
 5043TIP3   OH236687   0.700   4.296   1.487 -0.4644 -0.1715  0.1271
 5043TIP3    H136688   0.756   4.307   1.563 -2.5129  1.1969  1.5274
 5043TIP3    H236689   0.629   4.238   1.517 -1.7547  1.0597 -0.4199
 5044TIP3   OH236690   3.435   0.462   7.539 -0.0023 -0.5962 -0.5540
 5044TIP3    H136691   3.409   0.523   7.470  0.7511  0.7002  0.2518
 5044TIP3    H236692   3.379   0.485   7.613 -1.3511 -2.4990 -0.9283
 5045TIP3   OH236693   1.139   0.016   0.004  0.6546  0.0073  0.0832
 5045TIP3    H136694   1.173   0.003  -0.085  1.3407 -0.4898  0.4116
 5045TIP3    H236695   1.197  -0.035   0.060 -0.7107 -0.9935  0.6541
 5046TIP3   OH236696   0.473   1.698   0.991  0.0538  0.5322  0.4646
 5046TIP3    H136697   0.400   1.753   1.019 -0.6782 -0.7113  1.0732
 5046TIP3    H236698   0.461   1.689   0.897 -0.0381  1.0958  0.4181
 5047TIP3   OH236699   0.943   4.973   2.067 -0.5305  0.4011  0.4521
 5047TIP3    H136700   0.860   5.013   2.096 -0.7851  0.6547 -0.5993
 5047TIP3    H236701   1.010   5.018   2.119 -0.8783  1.6777 -0.1701
 5048TIP3   OH236702   3.999   0.220   8.550  0.3754  0.4507  0.3237
 5048TIP3    H136703   3.992   0.255   8.639  0.5266  0.0415  0.4984
 5048TIP3    H236704   4.092   0.229   8.528  0.6497 -0.9872  0.8454
 5049TIP3   OH236705   1.899   1.854   1.020  0.4602  0.2125 -0.0510
 5049TIP3    H136706   1.969   1.910   1.056  0.6759  1.0596 -1.6970
 5049TIP3    H236707   1.908   1.772   1.068  3.1902 -0.0341 -0.8202
 5050TIP3   OH236708   2.908   6.025   1.484 -0.1096 -0.4425  0.4246
 5050TIP3    H136709   2.989   5.990   1.446  0.3169 -0.9608  1.7572
 5050TIP3    H236710   2.864   6.069   1.411  0.5523 -1.6152 -0.7193
 5051TIP3   OH236711   2.182   2.360   0.947  0.1148  0.8725  0.8720
 5051TIP3    H136712   2.140   2.274   0.950 -0.9179  1.3407  0.2806
 5051TIP3    H236713   2.275   2.340   0.940 -0.2308 -0.2903 -2.4220
 5052TIP3   OH236714   0.411   6.415   8.512  0.1006  0.3624  0.1578
 5052TIP3    H136715   0.399   6.333   8.560  1.1836  0.0230 -0.1245
 5052TIP3    H236716   0.323   6.452   8.506 -0.6712 -1.4764 -0.9369
 5053TIP3   OH236717   3.013   0.221   1.797  0.9398  0.3417 -0.0055
 5053TIP3    H136718   3.101   0.238   1.828  0.4079  2.2111  0.6325
 5053TIP3    H236719   3.013   0.252   1.706  0.5221  2.0074  0.5260
 5054TIP3   OH236720   5.317   6.363   2.209 -0.5095  0.0727 -0.0067
 5054TIP3    H136721   5.350   6.430   2.149 -0.9595 -0.7965 -1.2662
 5054TIP3    H236722   5.385   6.354   2.275 -0.4513  1.7816  0.2140
 5055TIP3   OH236723   4.854   5.405   2.180  0.1224 -0.6252  0.2937
 5055TIP3    H136724   4.845   5.419   2.086  2.2273 -2.7199 -0.3142
 5055TIP3    H236725   4.948   5.404   2.196 -0.1852  0.6798  2.6525
 5056TIP3   OH236726   5.756   1.523   1.910 -0.2945  0.4174  0.0310
 5056TIP3    H136727   5.676   1.506   1.861  1.4670 -1.2235 -2.5128
 5056TIP3    H236728   5.753   1.463   1.984 -1.2213  0.1143 -0.2475
 5057TIP3   OH236729   6.794   2.187   0.661  0.1221  0.1243  0.2301
 5057TIP3    H136730   6.734   2.247   0.617  1.1081  1.3618  0.5103
 5057TIP3    H236731   6.881   2.215   0.634  0.6455 -0.6983  0.9811
 5058TIP3   OH236732   4.594   4.739   1.532  0.1950 -0.5725 -0.5525
 5058TIP3    H136733   4.531   4.802   1.498 -1.2855 -0.9011  1.3953
 5058TIP3    H236734   4.617   4.685   1.457  0.5644  1.4513 -1.9922
 5059TIP3   OH236735   1.450   2.188   0.363 -0.8167 -0.4636 -0.2463
 5059TIP3    H136736   1.464   2.271   0.316 -0.2247 -0.4259 -0.0117
 5059TIP3    H236737   1.371   2.152   0.324 -1.9426  0.9172  0.6349
 5060TIP3   OH236738   3.165   5.947   0.265 -0.2478 -0.2256  0.2785
 5060TIP3    H136739   3.124   6.025   0.228 -1.3961 -0.2326  1.4754
 5060TIP3    H236740   3.243   5.933   0.211 -0.1159  1.6323 -0.0822
 5061TIP3   OH236741   6.401   6.228   7.308 -0.3390 -0.0176  0.5395
 5061TIP3    H136742   6.427   6.248   7.398 -1.5457 -0.7606  1.0785
 5061TIP3    H236743   6.387   6.313   7.267  0.1292  0.3261  1.0868
 5062TIP3   OH236744   5.389   3.792   7.781  0.3212 -0.5961 -0.5089
 5062TIP3    H136745   5.423   3.880   7.765 -0.1999 -0.0242  1.3152
 5062TIP3    H236746   5.313   3.785   7.722  0.7096 -0.0559 -1.0860
 5063TIP3   OH236747   5.954   0.321   0.413 -0.5566  0.0305 -0.7757
 5063TIP3    H136748   5.934   0.351   0.324 -1.3622  0.2270 -0.5414
 5063TIP3    H236749   5.909   0.384   0.469 -1.4317 -1.0179 -0.2620
 5064TIP3   OH236750   6.587   2.788   0.275  0.0053 -0.2405  0.4289
 5064TIP3    H136751   6.630   2.703   0.292 -1.2590 -0.6066  2.0925
 5064TIP3    H236752   6.521   2.768   0.209  0.2173 -0.3808  0.2551
 5065TIP3   OH236753   1.682   6.652   7.766  0.2517  0.2771  0.4120
 5065TIP3    H136754   1.658   6.639   7.675  1.3871 -1.0793  0.2701
 5065TIP3    H236755   1.598   6.655   7.813 -0.3024 -1.3776 -0.3948
 5066TIP3   OH236756   2.394   6.791   7.662  0.2277 -0.3285  0.3185
 5066TIP3    H136757   2.437   6.706   7.664 -0.9150 -0.9688 -0.6350
 5066TIP3    H236758   2.461   6.853   7.690  1.2939 -1.4517  0.3393
 5067TIP3   OH236759   1.904   6.703   1.991  0.5656 -0.6326  0.0366
 5067TIP3    H136760   1.896   6.798   2.003  1.1040 -0.5253 -0.4077
 5067TIP3    H236761   1.817   6.669   2.012  0.4175 -0.0598  0.3770
 5068TIP3   OH236762   0.772   0.835   7.375 -0.1088  0.5631 -0.1685
 5068TIP3    H136763   0.704   0.782   7.334 -0.4117  0.7759  0.0582
 5068TIP3    H236764   0.843   0.773   7.393 -0.6466  0.1282  0.5306
 5069TIP3   OH236765   4.494   6.896   7.861 -0.0896  0.2099 -0.1900
 5069TIP3    H136766   4.425   6.865   7.919 -1.9835  2.9254 -0.8247
 5069TIP3    H236767   4.468   6.864   7.774 -0.7957  1.5133 -0.4814
 5070TIP3   OH236768   0.426   0.483   7.144 -0.9102  0.6572 -0.0792
 5070TIP3    H136769   0.350   0.443   7.187 -1.4700  2.0450  0.2634
 5070TIP3    H236770   0.394   0.511   7.059 -0.2851 -0.3867 -0.6792
 5071TIP3   OH236771   6.025   2.021   8.014 -0.3290  0.2404 -0.4732
 5071TIP3    H136772   6.041   1.939   8.061 -2.0853  0.2472  0.2066
 5071TIP3    H236773   5.962   1.998   7.946 -1.2126  1.0999  0.0299
 5072TIP3   OH236774   5.843   3.363   1.272  0.2525  0.3813  1.0197
 5072TIP3    H136775   5.854   3.447   1.228  1.5533 -0.1725  0.2207
 5072TIP3    H236776   5.751   3.362   1.300 -0.8777  0.5187 -2.2536
 5073TIP3   OH236777   5.159   6.662   0.794 -0.4052  0.4233 -0.1054
 5073TIP3    H136778   5.238   6.698   0.834 -0.8397 -0.2080  1.3785
 5073TIP3    H236779   5.088   6.716   0.828 -0.8070 -0.2491  0.1366
 5074TIP3   OH236780   4.527   1.435   7.921 -0.1364 -0.3060  0.5638
 5074TIP3    H136781   4.562   1.392   7.999 -1.7470  0.0841  1.5647
 5074TIP3    H236782   4.439   1.400   7.911  0.4147 -1.1924 -1.8067
 5075TIP3   OH236783   3.999   5.320   8.066 -0.4084  0.3271  0.3382
 5075TIP3    H136784   3.918   5.289   8.107 -1.0859  2.8573  1.0621
 5075TIP3    H236785   4.057   5.342   8.140  0.1143  0.6216 -0.1485
 5076TIP3   OH236786   4.548   3.213   7.432  0.2038 -0.2196  0.0418
 5076TIP3    H136787   4.578   3.168   7.353  2.7395  0.4164  0.5533
 5076TIP3    H236788   4.628   3.229   7.482 -1.0964  1.2375  1.7713
 5077TIP3   OH236789   3.099   5.240   8.647  0.4421  0.0933  0.4708
 5077TIP3    H136790   3.068   5.150   8.646  0.5817  0.0477  0.0174
 5077TIP3    H236791   3.067   5.275   8.730  0.5368 -0.4248  0.7312
 5078TIP3   OH236792   6.525   6.557   6.277  0.0788  0.6104 -0.1550
 5078TIP3    H136793   6.477   6.640   6.282 -1.3556 -0.2146  0.6332
 5078TIP3    H236794   6.486   6.503   6.346  0.0555 -1.1735 -1.4907
 5079TIP3   OH236795   1.188   2.056   7.283 -0.6221 -0.6341  0.2895
 5079TIP3    H136796   1.271   2.097   7.306 -0.9508 -0.5449  1.3499
 5079TIP3    H236797   1.209   1.998   7.210  0.2995 -0.3466  0.3198
 5080TIP3   OH236798   5.611   3.732   0.445 -0.5262 -0.0854  0.4504
 5080TIP3    H136799   5.530   3.725   0.394 -0.9556 -1.0929  1.2275
 5080TIP3    H236800   5.625   3.644   0.480  2.7494 -0.8464 -2.3250
 5081TIP3   OH236801   1.529   5.176   8.038  0.3828  0.2652  0.0575
 5081TIP3    H136802   1.440   5.193   8.009  0.8507  2.1155 -0.4237
 5081TIP3    H236803   1.537   5.081   8.038 -1.9132  0.0201  1.1640
 5082TIP3   OH236804   1.406   5.567   7.520 -0.0987 -0.0200  0.0019
 5082TIP3    H136805   1.372   5.620   7.592 -0.9125  0.0729 -0.4383
 5082TIP3    H236806   1.422   5.629   7.449  0.7492 -0.1028  0.1051
 5083TIP3   OH236807   2.415   5.595   7.449 -0.4334 -0.6325  0.4895
 5083TIP3    H136808   2.417   5.652   7.526 -2.5871 -0.4081  0.4217
 5083TIP3    H236809   2.382   5.650   7.379 -2.2306 -1.8152  0.3431
 5084TIP3   OH236810   5.962   5.835   1.232 -0.1375  0.1443  0.0364
 5084TIP3    H136811   5.920   5.755   1.265  0.5240  0.4743  1.7803
 5084TIP3    H236812   5.973   5.890   1.309  0.8866  1.2568 -0.8654
 5085TIP3   OH236813   1.339   4.982   8.565 -0.7510  0.6364  0.1593
 5085TIP3    H136814   1.276   4.992   8.637 -0.3621  0.5821  0.5129
 5085TIP3    H236815   1.397   5.058   8.572  0.2158 -0.1297  0.8482
 5086TIP3   OH236816   1.139   5.430   7.430  0.2994  0.2550  0.2000
 5086TIP3    H136817   1.134   5.519   7.464  1.7680 -0.1629  1.6186
 5086TIP3    H236818   1.210   5.390   7.479 -0.6948 -1.8873 -0.0285
 5087TIP3   OH236819   4.045   0.873   0.387 -0.1381 -0.2698 -0.3745
 5087TIP3    H136820   4.036   0.945   0.323  0.4830  1.1247  1.0440
 5087TIP3    H236821   3.960   0.829   0.384 -0.2865  0.0319 -1.8205
 5088TIP3   OH236822   2.839   4.353   7.861 -0.1741  0.6240 -1.1832
 5088TIP3    H136823   2.842   4.361   7.956 -0.7415  0.3834 -1.1400
 5088TIP3    H236824   2.795   4.269   7.845  0.6424  0.2693 -1.6568
 5089TIP3   OH236825   6.190   1.769   8.093 -0.1318  0.4092 -0.8009
 5089TIP3    H136826   6.207   1.715   8.170  0.0259  1.5693  0.0128
 5089TIP3    H236827   6.272   1.816   8.079  0.9825 -2.0971 -3.6738
 5090TIP3   OH236828   0.572   5.911   7.832 -0.6668  0.0890 -0.1030
 5090TIP3    H136829   0.659   5.906   7.792 -0.5047  0.9934  0.1238
 5090TIP3    H236830   0.579   5.979   7.899 -1.0884 -1.0130  1.1121
 5091TIP3   OH236831   5.562   5.322   7.826 -0.3554 -0.0535  0.0817
 5091TIP3    H136832   5.615   5.302   7.749  1.2292  2.3986  0.4354
 5091TIP3    H236833   5.592   5.260   7.892 -1.3682 -1.8372 -1.0565
 5092TIP3   OH236834   5.064   3.834   8.196  0.5893 -0.5010 -0.5509
 5092TIP3    H136835   5.003   3.900   8.229  0.1248 -0.1578 -2.0008
 5092TIP3    H236836   5.135   3.884   8.158 -0.7681 -0.6401 -3.6059
 5093TIP3   OH236837   5.735   1.939   1.368 -0.0365 -0.5303 -0.9492
 5093TIP3    H136838   5.824   1.972   1.381  0.8096 -2.6969 -0.7812
 5093TIP3    H236839   5.743   1.844   1.378 -2.4692 -0.7556 -0.4395
 5094TIP3   OH236840   3.993   6.424   2.318  0.3223  0.1916 -0.6040
 5094TIP3    H136841   3.948   6.342   2.337 -0.3595  0.7335  0.2199
 5094TIP3    H236842   3.957   6.486   2.382 -0.2345  1.4910 -2.0944
 5095TIP3   OH236843   2.123   0.374   0.963 -0.2324 -0.9947 -0.2780
 5095TIP3    H136844   2.201   0.370   0.909  0.7811  0.8699  0.9726
 5095TIP3    H236845   2.152   0.348   1.051 -1.3319 -1.6325 -0.0700
 5096TIP3   OH236846   1.594   3.442   1.974  0.1406 -0.1756 -0.3654
 5096TIP3    H136847   1.671   3.496   1.957  1.3133 -2.0955 -1.6135
 5096TIP3    H236848   1.520   3.503   1.969  1.5360  1.7300  0.8522
 5097TIP3   OH236849   3.691   0.971   7.513 -0.0613 -0.8039  0.1467
 5097TIP3    H136850   3.614   0.983   7.457  0.0364  0.3185  0.2380
 5097TIP3    H236851   3.702   0.876   7.518 -1.1965 -0.9683 -0.1975
 5098TIP3   OH236852   3.467   0.642   0.504 -0.5049 -0.4628 -0.2300
 5098TIP3    H136853   3.435   0.653   0.593  1.3319 -0.8913  0.5345
 5098TIP3    H236854   3.469   0.731   0.468 -0.8803 -0.2375  0.2896
 5099TIP3   OH236855   5.419   3.102   7.634 -0.0291 -0.1669 -0.0397
 5099TIP3    H136856   5.478   3.094   7.559 -1.3652 -0.0427 -1.1428
 5099TIP3    H236857   5.382   3.191   7.626 -1.2186 -0.6388 -0.0614
 5100TIP3   OH236858   2.648   2.731   7.870  0.0328 -0.2695  0.2703
 5100TIP3    H136859   2.675   2.692   7.786  0.6117  0.9105 -0.1100
 5100TIP3    H236860   2.558   2.701   7.883 -0.5353  0.5674 -1.4248
 5101TIP3   OH236861   6.585   2.949   6.594  0.7414  0.0899  0.6686
 5101TIP3    H136862   6.510   2.892   6.581  0.3987  0.7603 -0.4745
 5101TIP3    H236863   6.660   2.898   6.563  0.7216 -0.4365  1.4561
 5102TIP3   OH236864   5.346   3.948   1.656  0.2441  0.0400 -0.2683
 5102TIP3    H136865   5.414   4.008   1.627  1.5601 -0.6894  1.1177
 5102TIP3    H236866   5.395   3.875   1.695 -1.3361 -0.4689  0.8479
 5103TIP3   OH236867   1.687   4.282   1.690 -0.5649 -0.2282 -0.5029
 5103TIP3    H136868   1.604   4.275   1.642 -1.0288  1.4397 -0.0151
 5103TIP3    H236869   1.662   4.282   1.782  0.0421 -0.3686 -0.3336
 5104TIP3   OH236870   6.290   5.723   0.742 -0.4836 -0.8525 -0.2352
 5104TIP3    H136871   6.233   5.694   0.813  1.9210  1.0962  2.7450
 5104TIP3    H236872   6.297   5.817   0.754 -0.5223 -0.3122 -3.6150
 5105TIP3   OH236873   1.914   6.197   0.360 -0.1901 -0.1190 -0.4379
 5105TIP3    H136874   1.893   6.262   0.427 -0.3826 -0.6269 -0.0034
 5105TIP3    H236875   1.904   6.244   0.277 -1.7961  0.0055 -0.1946
 5106TIP3   OH236876   4.258   5.023   2.607 -0.3650  0.2810 -0.2296
 5106TIP3    H136877   4.200   5.099   2.601 -0.5881 -0.0132 -2.2059
 5106TIP3    H236878   4.332   5.043   2.550  0.4218 -0.2977  0.5390
 5107TIP3   OH236879   0.017   5.927   8.509  0.7766  0.1597  0.1371
 5107TIP3    H136880   0.091   5.866   8.509  0.5138 -0.1721  1.4861
 5107TIP3    H236881   0.058   6.013   8.519  1.0753  0.1509 -0.8251
 5108TIP3   OH236882   1.965   3.651   0.478  0.3674  0.0843 -0.3488
 5108TIP3    H136883   2.041   3.595   0.462  0.5005  0.4932 -1.2452
 5108TIP3    H236884   1.927   3.664   0.391 -0.1001  0.7681 -0.0521
 5109TIP3   OH236885   3.066   3.820   0.866 -0.0480 -0.7989 -0.7697
 5109TIP3    H136886   3.140   3.806   0.926  1.4933  0.0511 -2.3855
 5109TIP3    H236887   3.005   3.874   0.916  0.9999 -0.4458  0.1767
 5110TIP3   OH236888   5.872   0.083   0.508  0.0034 -0.2691  0.4135
 5110TIP3    H136889   5.889   0.172   0.477 -0.5304 -0.2297  0.2189
 5110TIP3    H236890   5.870   0.090   0.603  0.6579 -0.2058  0.4269
 5111TIP3   OH236891   1.421   0.654   0.245  0.7802  0.0210  0.2917
 5111TIP3    H136892   1.389   0.565   0.233 -2.9305  1.2159 -0.0492
 5111TIP3    H236893   1.427   0.689   0.156 -0.0589  0.7649  0.5161
 5112TIP3   OH236894   1.369   2.373   0.653  0.5442 -0.1334 -0.0421
 5112TIP3    H136895   1.435   2.432   0.690  0.6243 -0.3111  0.0957
 5112TIP3    H236896   1.418   2.313   0.597  0.3259  0.7396 -1.2349
 5113TIP3   OH236897   2.367   2.163   8.092 -0.4883  0.4008 -0.6122
 5113TIP3    H136898   2.318   2.178   8.011 -1.3900 -0.4922 -0.2469
 5113TIP3    H236899   2.300   2.149   8.159  0.2437  0.9373  0.2684
 5114TIP3   OH236900   1.476   0.443   7.303 -0.1491  0.5652  0.2304
 5114TIP3    H136901   1.453   0.509   7.238  0.6293  0.8888  0.2697
 5114TIP3    H236902   1.560   0.408   7.273  0.6654  1.3431  1.5052
 5115TIP3   OH236903   5.268   5.399   0.029 -0.0117 -0.4972  0.5880
 5115TIP3    H136904   5.330   5.417   0.099 -0.3225 -1.8623  1.2493
 5115TIP3    H236905   5.322   5.379  -0.048  0.3275  1.5211  0.2610
 5116TIP3   OH236906   5.581   5.369   6.642  0.7365 -0.4011 -0.1174
 5116TIP3    H136907   5.569   5.322   6.559 -0.4980 -1.2455  0.5218
 5116TIP3    H236908   5.621   5.305   6.700  0.9698 -0.0181  0.1480
 5117TIP3   OH236909   3.129   5.757   2.098 -0.3410 -0.5726 -0.0191
 5117TIP3    H136910   3.166   5.742   2.185  1.0877  1.1579 -0.2657
 5117TIP3    H236911   3.199   5.800   2.049 -1.6186 -0.1428 -1.5693
 5118TIP3   OH236912   5.550   2.534   1.783 -0.8404  0.3682 -0.2307
 5118TIP3    H136913   5.499   2.524   1.703 -2.1449  1.1240  0.4658
 5118TIP3    H236914   5.517   2.465   1.841 -0.6820  0.5162  0.0387
 5119TIP3   OH236915   2.534   6.418   7.682 -0.3040 -0.6062  0.3440
 5119TIP3    H136916   2.566   6.477   7.615 -1.2084 -2.3995 -1.7882
 5119TIP3    H236917   2.440   6.436   7.687 -0.6916 -2.1380 -0.7188
 5120TIP3   OH236918   6.889   0.226   7.007 -0.0987 -0.3611  0.9082
 5120TIP3    H136919   6.851   0.152   7.055  1.5377 -0.9337  1.3987
 5120TIP3    H236920   6.840   0.230   6.925 -1.0296 -1.1929  1.3989
 5121TIP3   OH236921   3.244   4.869   8.651  0.2210  0.5015  0.0651
 5121TIP3    H136922   3.219   4.797   8.710  1.0172  1.8161  2.1229
 5121TIP3    H236923   3.185   4.941   8.676  3.0703  2.3319  2.1148
 5122TIP3   OH236924   6.780   0.293   6.267 -0.0350  0.3513 -0.7260
 5122TIP3    H136925   6.852   0.354   6.288 -0.0771  0.7650 -1.7274
 5122TIP3    H236926   6.814   0.207   6.292  0.1398  0.7379  0.4354
 5123TIP3   OH236927   6.103   0.871   7.583  0.5636 -0.2985 -0.6846
 5123TIP3    H136928   6.127   0.803   7.521  0.7306  0.5552 -1.5755
 5123TIP3    H236929   6.031   0.917   7.541  0.2618 -0.1030  0.0414
 5124TIP3   OH236930   2.153   0.058   1.671 -0.0420 -0.5330  0.0470
 5124TIP3    H136931   2.175   0.047   1.764  0.1884 -0.8196 -0.0402
 5124TIP3    H236932   2.210   0.129   1.641  0.2546 -0.7920 -0.0024
 5125TIP3   OH236933   6.236   0.003   2.069 -0.1435  0.0348  0.0194
 5125TIP3    H136934   6.227  -0.037   2.155  1.0737  0.6930  0.4838
 5125TIP3    H236935   6.296   0.077   2.083  0.0931  0.1418 -1.3904
 5126TIP3   OH236936   5.713   1.159   1.660 -0.1065  0.8185  0.7878
 5126TIP3    H136937   5.635   1.187   1.612  1.1189 -0.8797 -2.5711
 5126TIP3    H236938   5.785   1.207   1.618  0.9881 -0.0873  1.5676
 5127TIP3   OH236939   4.306   5.359   1.458  0.4353 -0.1772  0.0985
 5127TIP3    H136940   4.394   5.335   1.489  1.2940  1.8800 -0.5786
 5127TIP3    H236941   4.317   5.371   1.364  0.4136  3.7650  0.4554
 5128TIP3   OH236942   2.985   4.990   1.974 -0.3353 -0.3329 -0.0646
 5128TIP3    H136943   2.984   4.995   1.878  0.3268  0.9195 -0.0255
 5128TIP3    H236944   3.073   5.020   1.998 -0.0950 -1.7225  0.9018
 5129TIP3   OH236945   3.307   5.620   7.977  0.0468  0.4115 -0.1470
 5129TIP3    H136946   3.287   5.555   7.910  2.1141  0.1071 -0.5311
 5129TIP3    H236947   3.390   5.590   8.016  0.6904  2.4223  0.1517
 5130TIP3   OH236948   1.957   3.303   1.018 -0.3622 -0.2704 -0.2445
 5130TIP3    H136949   1.930   3.211   1.026 -0.3899 -0.3115 -0.8168
 5130TIP3    H236950   1.889   3.352   1.064  1.3906 -0.7598  3.2060
 5131TIP3   OH236951   5.998   5.905   7.963  0.3578  0.0228  0.0196
 5131TIP3    H136952   5.963   5.878   8.047  2.0132 -0.2337  0.6592
 5131TIP3    H236953   5.970   5.996   7.953  1.7537  0.6911  1.7831
 5132TIP3   OH236954   3.488   5.659   0.680  0.1655  0.0849  0.2440
 5132TIP3    H136955   3.543   5.594   0.636  0.8275  0.7952 -0.0101
 5132TIP3    H236956   3.414   5.672   0.621  0.3180 -0.0207  0.0271
 5133TIP3   OH236957   4.419   1.357   7.397  0.3587 -0.8069 -0.1459
 5133TIP3    H136958   4.419   1.391   7.486 -0.9510  1.1178 -0.7990
 5133TIP3    H236959   4.450   1.430   7.343  1.5192 -2.0604 -1.2602
 5134TIP3   OH236960   0.393   1.683   0.714 -0.0094 -0.1270 -0.2684
 5134TIP3    H136961   0.344   1.618   0.664  0.4498  0.1296 -1.0785
 5134TIP3    H236962   0.465   1.709   0.655  0.8797 -0.2278  0.7524
 5135TIP3   OH236963   3.406   3.513   2.092  0.6757 -0.5957  0.4896
 5135TIP3    H136964   3.469   3.516   2.163 -0.3162  0.1466  1.3763
 5135TIP3    H236965   3.357   3.596   2.099  1.6939  0.3350 -2.1502
 5136TIP3   OH236966   2.151   0.745   0.410 -0.0625  0.0236 -0.0255
 5136TIP3    H136967   2.182   0.692   0.337 -1.9143 -0.0865 -0.7758
 5136TIP3    H236968   2.078   0.795   0.375  0.4154  1.6415  1.1861
 5137TIP3   OH236969   6.183   6.019   2.037 -0.3751  0.0474 -0.5980
 5137TIP3    H136970   6.240   6.048   2.108  1.4245  0.2360 -2.0594
 5137TIP3    H236971   6.133   5.946   2.075 -0.6660  1.1683  1.3167
 5138TIP3   OH236972   5.715   3.767   7.767 -0.2413  0.3295 -0.4571
 5138TIP3    H136973   5.721   3.671   7.767 -0.1006  0.3116  0.7612
 5138TIP3    H236974   5.686   3.790   7.679 -0.3723 -0.8405 -0.7352
 5139TIP3   OH236975   6.683   2.604   8.099  0.2419 -0.2321 -0.2249
 5139TIP3    H136976   6.775   2.618   8.121  0.0810  0.7350 -0.1098
 5139TIP3    H236977   6.679   2.514   8.066  0.8926 -0.9123  1.4641
 5140TIP3   OH236978   3.543   5.749   1.736  0.5505  0.3133  0.3091
 5140TIP3    H136979   3.468   5.777   1.683 -0.1451 -0.3438  0.9171
 5140TIP3    H236980   3.607   5.717   1.673  0.8938  2.1322 -0.3201
 5141TIP3   OH236981   5.458   6.620   8.297 -0.1371  0.2400  0.1125
 5141TIP3    H136982   5.405   6.645   8.222  0.1101  1.9683  0.4616
 5141TIP3    H236983   5.491   6.533   8.276 -2.6721 -0.6842 -0.3288
 5142TIP3   OH236984   4.145   6.860   6.937 -0.1418 -0.0314 -0.0290
 5142TIP3    H136985   4.114   6.773   6.913 -0.7052  0.0244  0.4696
 5142TIP3    H236986   4.068   6.904   6.974  0.4209  0.2586  0.8335
 5143TIP3   OH236987   5.796   0.173   7.497 -0.3615 -0.1509 -0.1131
 5143TIP3    H136988   5.806   0.263   7.529  0.7529 -0.2801 -0.0381
 5143TIP3    H236989   5.716   0.142   7.539 -0.8562  0.8558 -0.2671
 5144TIP3   OH236990   1.369   3.367   0.981 -0.2009  0.3205 -0.2327
 5144TIP3    H136991   1.432   3.428   0.943  0.0384  0.1411 -0.1296
 5144TIP3    H236992   1.404   3.348   1.069 -0.5162  0.3940 -0.0914
 5145TIP3   OH236993   4.225   6.133   1.405  0.0683 -0.1902 -0.4164
 5145TIP3    H136994   4.169   6.206   1.430 -0.2697 -1.1203  1.7529
 5145TIP3    H236995   4.282   6.169   1.337 -2.1857  1.1692 -1.7205
 5146TIP3   OH236996   5.081   1.565   0.062 -0.6526 -0.4998 -0.3889
 5146TIP3    H136997   5.142   1.510   0.012  0.5843  1.6060 -1.3524
 5146TIP3    H236998   5.024   1.604  -0.004 -2.0704 -1.2035  0.3646
 5147TIP3   OH236999   1.021   0.076   1.035  0.2781 -0.0297 -0.3121
 5147TIP3    H137000   0.999   0.044   1.122  1.4607  1.1798  0.4755
 5147TIP3    H237001   0.989   0.009   0.975 -0.6025 -0.8563  1.0513
 5148TIP3   OH237002   3.332   5.521   2.701  0.6736  0.0874  0.0114
 5148TIP3    H137003   3.403   5.540   2.762  0.8728  1.0841 -0.5160
 5148TIP3    H237004   3.367   5.453   2.643  0.5925 -0.6367  0.7903
 5149TIP3   OH237005   4.114   1.025   2.227  0.3488 -0.4941  0.4640
 5149TIP3    H137006   4.181   1.061   2.285 -0.2396  0.7907  0.3797
 5149TIP3    H237007   4.090   0.942   2.267  0.7470 -0.1490  1.4564
 5150TIP3   OH237008   2.469   1.201   7.544  0.0905  0.5310 -0.4716
 5150TIP3    H137009   2.434   1.262   7.480  0.0898  2.6783  1.4447
 5150TIP3    H237010   2.548   1.243   7.577  0.6058 -0.9425  0.2808
 5151TIP3   OH237011   2.118   6.762   7.596 -0.3101 -0.7107 -0.0708
 5151TIP3    H137012   2.203   6.768   7.639 -1.1135 -0.9373  1.6413
 5151TIP3    H237013   2.100   6.668   7.592 -0.9177 -0.6222  0.5004
 5152TIP3   OH237014   6.223   4.151   7.386 -0.2266 -0.0622 -0.0261
 5152TIP3    H137015   6.261   4.230   7.349  1.3508 -1.2965 -1.1874
 5152TIP3    H237016   6.137   4.178   7.419 -0.0236  1.9472 -1.0207
 5153TIP3   OH237017   1.492   3.027   0.506 -0.0853  0.4344 -0.3403
 5153TIP3    H137018   1.579   3.064   0.491  1.0023 -1.3944  1.1028
 5153TIP3    H237019   1.470   3.053   0.596 -1.0101  0.7927 -0.6545
 5154TIP3   OH237020   2.392   5.264   0.682  0.1008  0.8679  0.1019
 5154TIP3    H137021   2.337   5.261   0.760  0.3693 -1.4382  0.2836
 5154TIP3    H237022   2.369   5.346   0.639 -0.8200  1.6912  2.0375
 5155TIP3   OH237023   6.214   4.398   0.200  0.1796  0.4053  0.2309
 5155TIP3    H137024   6.174   4.318   0.236 -0.3606  0.0002 -1.1988
 5155TIP3    H237025   6.231   4.377   0.108 -0.9700  2.2799 -0.4639
 5156TIP3   OH237026   3.267   0.528   1.831 -0.0810  0.1528 -0.4042
 5156TIP3    H137027   3.355   0.547   1.865 -0.1864 -0.9393  0.5387
 5156TIP3    H237028   3.208   0.570   1.894 -0.2489 -0.2416 -0.2955
 5157TIP3   OH237029   4.596   5.778   8.230  0.1941 -0.4610 -0.0915
 5157TIP3    H137030   4.637   5.711   8.285  0.4499  0.0475  0.3469
 5157TIP3    H237031   4.628   5.759   8.141  1.1057 -0.2852  0.1882
 5158TIP3   OH237032   4.594   5.376   0.435 -0.4126 -0.2639  0.3788
 5158TIP3    H137033   4.679   5.397   0.473 -0.4903 -1.4201  1.2345
 5158TIP3    H237034   4.536   5.444   0.467  0.0131  0.0537  0.4836
 5159TIP3   OH237035   1.094   1.223   0.953  1.0340 -0.1399  0.2915
 5159TIP3    H137036   1.171   1.244   1.007  0.2973  0.7961  1.0220
 5159TIP3    H237037   1.094   1.292   0.886  1.3173 -0.6526 -0.2408
 5160TIP3   OH237038   6.597   3.526   2.167  0.7985  0.5742 -0.4934
 5160TIP3    H137039   6.676   3.557   2.213  1.2024  1.7703 -1.9093
 5160TIP3    H237040   6.525   3.575   2.206  0.8316 -0.0175  0.3332
 5161TIP3   OH237041   3.270   4.932   0.576  0.2391  0.1830  0.0535
 5161TIP3    H137042   3.346   4.880   0.603 -0.4891 -0.8006  0.2812
 5161TIP3    H237043   3.306   5.002   0.523  1.1456 -1.3760 -1.4886
 5162TIP3   OH237044   0.444   4.545   8.622  0.0011 -0.2054  0.2841
 5162TIP3    H137045   0.422   4.499   8.702  1.3522 -0.8449  0.3253
 5162TIP3    H237046   0.537   4.566   8.632 -0.2600  1.3924 -0.2990
 5163TIP3   OH237047   3.676   5.627   7.882 -0.0256  0.3644  0.2173
 5163TIP3    H137048   3.681   5.606   7.789 -2.1004  1.1992 -0.1257
 5163TIP3    H237049   3.743   5.694   7.895 -0.2683  0.8347 -0.8630
 5164TIP3   OH237050   2.451   4.556   1.138 -0.1343  0.0876 -0.1558
 5164TIP3    H137051   2.485   4.594   1.219 -0.5245 -1.2797  0.6903
 5164TIP3    H237052   2.380   4.498   1.167 -0.5225 -0.1512 -1.5149
 5165TIP3   OH237053   3.194   6.469   0.441 -0.3800 -0.4420  0.0816
 5165TIP3    H137054   3.195   6.404   0.511  1.2672  0.1363  0.6465
 5165TIP3    H237055   3.170   6.551   0.485 -0.9300 -0.3635 -0.3473
 5166TIP3   OH237056   0.177   3.780   1.477  0.0301  0.0221  0.4633
 5166TIP3    H137057   0.114   3.745   1.541 -0.3390  0.4630  0.3416
 5166TIP3    H237058   0.176   3.874   1.492 -1.4767  0.3683 -1.4571
 5167TIP3   OH237059   2.655   1.793   1.763 -0.0820 -0.2759  0.1280
 5167TIP3    H137060   2.583   1.730   1.762 -1.5066  1.2757 -1.7797
 5167TIP3    H237061   2.639   1.845   1.842 -0.8508 -0.1561 -0.1022
 5168TIP3   OH237062   4.261   2.225   2.654 -0.3171 -0.4120 -0.1245
 5168TIP3    H137063   4.328   2.229   2.722 -2.6856 -0.5654  2.3848
 5168TIP3    H237064   4.284   2.295   2.593  1.5843  0.1318  1.1403
 5169TIP3   OH237065   0.191   6.142   1.956  0.6460 -0.1233  0.2295
 5169TIP3    H137066   0.216   6.052   1.977 -0.1343 -0.4317 -0.1022
 5169TIP3    H237067   0.114   6.159   2.010 -0.2228 -0.2591 -0.9140
 5170TIP3   OH237068   3.285   1.153   0.930  0.1137  0.1429  0.2964
 5170TIP3    H137069   3.251   1.180   0.844 -0.2628  0.2323  0.4725
 5170TIP3    H237070   3.338   1.075   0.911 -1.2672 -0.7942  0.1985
 5171TIP3   OH237071   4.823   6.317   7.197  0.0146 -0.1274  0.0533
 5171TIP3    H137072   4.889   6.329   7.129 -0.0196 -1.0415 -0.1587
 5171TIP3    H237073   4.779   6.235   7.173 -1.1672  0.4436  0.2120
 5172TIP3   OH237074   1.377   5.831   8.033  0.1029 -0.2877  0.7757
 5172TIP3    H137075   1.358   5.919   8.063  0.0585 -0.7124  2.0540
 5172TIP3    H237076   1.292   5.786   8.036 -0.1274 -0.0681 -1.0598
 5173TIP3   OH237077   0.832   4.779   8.409 -0.1573  0.2266 -0.5631
 5173TIP3    H137078   0.884   4.701   8.389  2.4429  1.6184  0.3288
 5173TIP3    H237079   0.805   4.812   8.324  0.8906 -0.2439 -1.0952
 5174TIP3   OH237080   6.578   4.503   1.035 -0.4741  0.1281 -0.1720
 5174TIP3    H137081   6.490   4.534   1.013  0.3749  1.1857 -2.3958
 5174TIP3    H237082   6.590   4.425   0.981 -1.1679 -2.0452  2.5724
 5175TIP3   OH237083   4.091   3.650   2.133  0.6289 -0.9490 -0.2184
 5175TIP3    H137084   4.000   3.666   2.108  0.2416 -2.7967 -0.1475
 5175TIP3    H237085   4.128   3.737   2.146 -0.1731  0.0291 -3.4994
 5176TIP3   OH237086   3.919   6.787   2.759 -0.1382 -0.1128 -0.5834
 5176TIP3    H137087   3.957   6.706   2.794 -1.5609 -0.8598 -0.6927
 5176TIP3    H237088   3.873   6.760   2.680 -0.9677  0.7140 -0.4058
 5177TIP3   OH237089   0.536   3.569   2.817  0.5015  0.1326  0.2147
 5177TIP3    H137090   0.505   3.480   2.830  0.9748  0.1074  1.2453
 5177TIP3    H237091   0.624   3.558   2.780  0.8301  0.1488  0.9669
 5178TIP3   OH237092   6.162   3.354   0.558  0.1964  0.6352 -0.4125
 5178TIP3    H137093   6.121   3.366   0.472 -0.8334  1.5671  0.1705
 5178TIP3    H237094   6.201   3.439   0.577 -0.4767  0.7604  0.4740
 5179TIP3   OH237095   0.135   0.085   0.546 -0.0921  0.0186  0.3613
 5179TIP3    H137096   0.097   0.072   0.633 -1.1338  1.9668  0.2729
 5179TIP3    H237097   0.079   0.035   0.487 -1.1541  0.9714  0.5185
 5180TIP3   OH237098   0.236   1.558   1.354  0.6132  0.2295 -0.1258
 5180TIP3    H137099   0.284   1.639   1.371  0.0295  0.4243  0.6758
 5180TIP3    H237100   0.282   1.491   1.404  0.5382  0.2575 -0.0179
 5181TIP3   OH237101   0.763   4.776   8.090  0.1319 -0.4408 -0.0817
 5181TIP3    H137102   0.698   4.836   8.052 -0.3038 -1.3424 -0.8004
 5181TIP3    H237103   0.723   4.690   8.082  0.4747 -0.7882  1.5150
 5182TIP3   OH237104   0.512   3.328   7.513  0.2874  1.0454  0.2879
 5182TIP3    H137105   0.485   3.285   7.594  1.9044  1.3295  1.0263
 5182TIP3    H237106   0.595   3.286   7.490 -0.6814  0.1622 -1.8912
 5183TIP3   OH237107   3.307   2.648   1.635 -0.0758 -0.5261  0.3881
 5183TIP3    H137108   3.323   2.580   1.701 -0.3090 -2.5137 -1.4991
 5183TIP3    H237109   3.234   2.615   1.583  0.3696  0.7677 -1.1331
 5184TIP3   OH237110   2.322   0.571   0.265  0.2429 -0.3228 -0.9210
 5184TIP3    H137111   2.397   0.629   0.257  1.0750 -1.2902 -0.3649
 5184TIP3    H237112   2.327   0.536   0.354 -0.0283 -1.4938 -1.3444
 5185TIP3   OH237113   0.376   3.314   6.471  0.5997  0.3244  0.1965
 5185TIP3    H137114   0.373   3.403   6.505 -3.2701  0.8185 -0.9827
 5185TIP3    H237115   0.310   3.266   6.521  0.1254 -0.9172 -1.5066
 5186TIP3   OH237116   2.983   3.138   1.846 -0.2106 -0.0035 -0.2916
 5186TIP3    H137117   2.923   3.151   1.772 -0.5907 -1.0839 -0.1996
 5186TIP3    H237118   2.951   3.198   1.913 -1.0768 -0.4035 -0.3284
 5187TIP3   OH237119   2.422   5.582   8.483 -0.0068  0.3894 -0.1359
 5187TIP3    H137120   2.343   5.632   8.466  0.3477  1.4415  1.1128
 5187TIP3    H237121   2.392   5.491   8.486 -1.4871  0.8653  1.7534
 5188TIP3   OH237122   1.806   0.671   1.168 -0.8047  0.2459 -0.2112
 5188TIP3    H137123   1.842   0.655   1.081 -0.1085  3.1963 -0.5594
 5188TIP3    H237124   1.712   0.680   1.154 -0.8412 -0.4007 -0.4384
 5189TIP3   OH237125   0.246   4.855   1.191  0.6659 -0.9611 -0.2544
 5189TIP3    H137126   0.155   4.842   1.215  0.1948  2.0079 -0.0584
 5189TIP3    H237127   0.296   4.813   1.262 -0.6352  0.4500  1.5953
 5190TIP3   OH237128   6.849   3.455   8.614 -0.1571 -0.8068 -0.2518
 5190TIP3    H137129   6.938   3.482   8.594 -0.8259  1.3289 -0.6554
 5190TIP3    H237130   6.835   3.376   8.563  1.7337 -1.6137  0.4209
 5191TIP3   OH237131   1.656   5.931   0.172  0.3643  0.4085  0.8023
 5191TIP3    H137132   1.626   5.889   0.252  1.5778 -2.0279  0.0678
 5191TIP3    H237133   1.744   5.961   0.193  0.5237  0.1473  0.5006
 5192TIP3   OH237134   0.213   2.301   2.169 -0.2186 -0.0853 -0.3899
 5192TIP3    H137135   0.222   2.369   2.236 -4.1854  1.3265 -0.9935
 5192TIP3    H237136   0.230   2.219   2.215  1.8389  1.1048  1.1046
 5193TIP3   OH237137   0.210   4.794   0.132 -0.3554  0.0614  0.0906
 5193TIP3    H137138   0.195   4.700   0.120  0.8154 -0.0063 -0.9656
 5193TIP3    H237139   0.245   4.801   0.221  0.9981 -0.7002 -0.3559
 5194TIP3   OH237140   5.823   2.549   1.807 -0.2275 -0.8434 -0.0242
 5194TIP3    H137141   5.729   2.532   1.803 -0.3372 -0.4173  0.6637
 5194TIP3    H237142   5.843   2.553   1.900 -0.3934  3.6463  0.0304
 5195TIP3   OH237143   4.763   5.951   7.521 -0.2527 -0.1867  0.4075
 5195TIP3    H137144   4.702   6.022   7.500 -0.3726 -0.4106 -0.0051
 5195TIP3    H237145   4.811   5.936   7.440 -0.0152 -0.3744  0.5821
 5196TIP3   OH237146   6.480   1.377   1.396  0.5392 -0.4327 -0.6031
 5196TIP3    H137147   6.576   1.384   1.389  0.4922  1.3178  0.1188
 5196TIP3    H237148   6.447   1.459   1.359 -0.5932 -0.1755  0.8889
 5197TIP3   OH237149   3.752   4.168   8.483 -0.7637 -0.2998  0.1651
 5197TIP3    H137150   3.817   4.120   8.535 -1.4710  0.1453  1.5295
 5197TIP3    H237151   3.694   4.206   8.549 -1.0691  1.2107 -0.9371
 5198TIP3   OH237152   6.453   0.300   8.606  0.3321 -0.1426 -0.1859
 5198TIP3    H137153   6.409   0.365   8.552  1.2785 -0.1078 -0.9568
 5198TIP3    H237154   6.407   0.218   8.588 -0.3019  0.1424  0.1113
 5199TIP3   OH237155   6.228   1.163   2.916  0.3178  0.4115  0.0584
 5199TIP3    H137156   6.152   1.105   2.914 -0.2260  1.1052  0.1093
 5199TIP3    H237157   6.280   1.133   2.990 -0.1240  0.1871  0.2818
 5200TIP3   OH237158   3.783   2.484   7.660  0.9076  0.1070  0.0028
 5200TIP3    H137159   3.848   2.421   7.630 -0.6474 -0.7491 -1.7889
 5200TIP3    H237160   3.758   2.533   7.581 -0.1563  0.8486  0.7581
 5201TIP3   OH237161   5.122   5.743   1.132  0.1107 -0.0097 -0.4140
 5201TIP3    H137162   5.199   5.751   1.188 -0.2289 -0.3750  0.1131
 5201TIP3    H237163   5.148   5.784   1.049  0.9057 -0.2402 -0.2820
 5202TIP3   OH237164   0.936   6.646   1.635  0.1225  0.2639 -0.0725
 5202TIP3    H137165   0.938   6.736   1.667 -2.4808  0.1645  0.5550
 5202TIP3    H237166   0.978   6.595   1.704  1.0397  0.8902 -0.1472
 5203TIP3   OH237167   2.940   6.312   2.620  0.5391 -0.1664  0.4596
 5203TIP3    H137168   3.006   6.354   2.675  0.1427  0.6318  0.3306
 5203TIP3    H237169   2.868   6.292   2.679  0.6764 -0.5632  0.4964
 5204TIP3   OH237170   3.195   5.311   2.986 -0.4529 -0.4486  0.3624
 5204TIP3    H137171   3.271   5.360   3.015 -1.0562  0.0461  1.1516
 5204TIP3    H237172   3.204   5.307   2.891  0.7912 -0.8143  0.4801
 5205TIP3   OH237173   4.195   0.493   2.729 -0.2166  0.0317  0.4207
 5205TIP3    H137174   4.152   0.476   2.813 -0.2360  0.6512  0.5457
 5205TIP3    H237175   4.278   0.534   2.753 -0.1592  0.0796  0.1440
 5206TIP3   OH237176   6.038   3.707   0.858  0.2566  0.4039 -0.2217
 5206TIP3    H137177   5.942   3.717   0.864  0.2358 -0.3688  1.3898
 5206TIP3    H237178   6.051   3.629   0.805  0.0437  1.1680 -1.4301
 5207TIP3   OH237179   2.016   3.256   7.962 -0.0965 -0.0626 -0.0776
 5207TIP3    H137180   2.096   3.303   7.941 -0.1892 -0.2644 -0.9169
 5207TIP3    H237181   2.030   3.168   7.929 -0.4484 -0.2570  0.2787
 5208TIP3   OH237182   3.349   3.420   0.512 -0.5735  0.7414  0.5155
 5208TIP3    H137183   3.282   3.364   0.550 -0.4517 -0.1097 -0.4634
 5208TIP3    H237184   3.322   3.432   0.421  1.6618 -1.4735 -0.5568
 5209TIP3   OH237185   3.029   3.655   1.412  0.6844 -0.2417  0.2662
 5209TIP3    H137186   2.982   3.734   1.440 -1.0315 -0.7824 -0.8930
 5209TIP3    H237187   3.057   3.674   1.323 -0.8823 -1.3545 -0.5066
 5210TIP3   OH237188   4.544   2.391   6.626  0.1548 -0.7604 -0.0663
 5210TIP3    H137189   4.590   2.473   6.644 -0.6752 -0.3579  0.2407
 5210TIP3    H237190   4.491   2.410   6.549  0.8731 -1.3801 -0.7344
 5211TIP3   OH237191   5.120   1.836   8.068  0.2387  0.4068 -0.5619
 5211TIP3    H137192   5.150   1.906   8.010  1.5501 -0.0398 -0.4642
 5211TIP3    H237193   5.083   1.882   8.144 -2.2032  1.0148 -1.9967
 5212TIP3   OH237194   2.804   4.727   7.792 -0.1301  0.5594 -0.4066
 5212TIP3    H137195   2.891   4.690   7.802 -0.0743  1.1661  2.1291
 5212TIP3    H237196   2.815   4.820   7.813 -1.2837  0.7563 -0.6114
 5213TIP3   OH237197   6.879   4.711   0.443  0.7736 -0.1475  0.3816
 5213TIP3    H137198   6.789   4.729   0.473  1.2547 -1.0884  2.6130
 5213TIP3    H237199   6.897   4.623   0.476  2.2652 -0.2629 -0.6900
 5214TIP3   OH237200   4.122   2.260   8.009  0.2112 -0.1930 -0.2243
 5214TIP3    H137201   4.133   2.270   7.915  0.7540 -1.4571 -0.3276
 5214TIP3    H237202   4.177   2.329   8.047  1.0746 -0.5150 -0.8410
 5215TIP3   OH237203   6.531   1.643   7.871 -0.7614  0.4307 -0.2703
 5215TIP3    H137204   6.498   1.732   7.880 -0.0883  0.6466  0.2126
 5215TIP3    H237205   6.496   1.612   7.788 -3.7293 -0.0602  1.0504
 5216TIP3   OH237206   1.130   2.220   1.672  0.1268  0.1642 -0.4012
 5216TIP3    H137207   1.069   2.225   1.599  0.0190  0.4328 -0.2970
 5216TIP3    H237208   1.080   2.251   1.747 -0.3676 -1.9358  0.2011
 5217TIP3   OH237209   1.042   3.516   7.697  0.5829  0.1577  0.2831
 5217TIP3    H137210   1.062   3.591   7.753  2.3790  0.7327 -1.0438
 5217TIP3    H237211   0.968   3.546   7.643  0.3061  0.4143  0.7970
 5218TIP3   OH237212   6.464   4.672   7.514  0.0685  0.1214 -0.4693
 5218TIP3    H137213   6.499   4.761   7.517  0.1962  0.0342  1.2826
 5218TIP3    H237214   6.530   4.618   7.558 -0.7602 -0.5708 -0.0524
 5219TIP3   OH237215   0.011   6.216   1.682 -0.0884  0.3291  0.4341
 5219TIP3    H137216  -0.038   6.287   1.641 -1.0938 -0.6186 -0.0643
 5219TIP3    H237217   0.006   6.144   1.619  0.6349 -0.2933  1.0626
 5220TIP3   OH237218   3.515   1.238   3.341 -0.0098 -0.7203 -0.4039
 5220TIP3    H137219   3.581   1.283   3.287 -0.0616  0.0954  0.1975
 5220TIP3    H237220   3.485   1.167   3.285  1.9198 -1.5997 -0.4188
 5221TIP3   OH237221   5.095   6.833   2.000 -0.0484 -0.4958  0.3387
 5221TIP3    H137222   5.151   6.830   2.077 -0.3055 -0.9531  0.5140
 5221TIP3    H237223   5.012   6.795   2.029 -0.1035 -0.8023 -0.1926
 5222TIP3   OH237224   1.920   5.037   6.770  0.0892 -0.3133 -0.8060
 5222TIP3    H137225   1.993   5.089   6.804  0.1569  0.0906 -1.5354
 5222TIP3    H237226   1.875   5.096   6.709 -1.3916 -0.2412  0.2897
 5223TIP3   OH237227   5.633   5.627   2.791  0.1638  0.4997  0.6096
 5223TIP3    H137228   5.565   5.562   2.807  3.0655 -2.2781  2.8120
 5223TIP3    H237229   5.682   5.593   2.716  2.2181 -0.4900  2.2864
 5224TIP3   OH237230   1.327   2.635   7.364 -0.2369 -0.3613 -0.0580
 5224TIP3    H137231   1.342   2.544   7.338  0.8090 -0.5672  1.2071
 5224TIP3    H237232   1.359   2.686   7.290  0.8323 -0.9787 -0.0430
 5225TIP3   OH237233   4.709   1.026   2.379  0.6442  0.8566 -0.7802
 5225TIP3    H137234   4.775   0.960   2.395  0.7540  1.0996 -0.2028
 5225TIP3    H237235   4.717   1.087   2.453  0.6842  1.6212 -1.4028
 5226TIP3   OH237236   1.725   6.723   0.166  0.1304  0.3592  0.4429
 5226TIP3    H137237   1.698   6.746   0.254  1.5442  2.2396  0.4547
 5226TIP3    H237238   1.644   6.717   0.116 -0.5994  0.5116  1.5914
 5227TIP3   OH237239   0.682   2.293   8.296 -1.0429 -0.3591  0.1022
 5227TIP3    H137240   0.687   2.385   8.321 -1.2171 -0.8591  2.1645
 5227TIP3    H237241   0.727   2.288   8.211 -1.2571  1.6396 -0.1736
 5228TIP3   OH237242   3.812   5.562   7.648  0.8352  0.0077  0.2485
 5228TIP3    H137243   3.796   5.654   7.667 -2.6569 -0.6677  1.2471
 5228TIP3    H237244   3.782   5.550   7.557  0.2300 -0.3311  0.4863
 5229TIP3   OH237245   0.775   1.583   0.226  0.5593 -0.1893 -0.1416
 5229TIP3    H137246   0.804   1.497   0.258 -0.5587 -0.0802  1.2314
 5229TIP3    H237247   0.682   1.586   0.247  0.7189  1.6208  0.4326
 5230TIP3   OH237248   0.478   0.641   0.663  0.1214 -0.5790 -0.2568
 5230TIP3    H137249   0.439   0.621   0.578 -2.6506  3.0090 -0.0797
 5230TIP3    H237250   0.426   0.592   0.726 -0.4404 -0.1910 -0.4115
 5231TIP3   OH237251   4.510   0.602   1.158 -0.0066  0.1573 -0.5630
 5231TIP3    H137252   4.560   0.521   1.154 -0.7197 -0.4176  1.0633
 5231TIP3    H237253   4.568   0.663   1.204 -0.9480 -0.7127  1.9467
 5232TIP3   OH237254   2.354   5.020   0.522  0.3481  0.2181 -0.2172
 5232TIP3    H137255   2.397   5.090   0.573 -0.5081  0.1753  0.5791
 5232TIP3    H237256   2.261   5.037   0.531  0.1242  1.1092 -3.0455
 5233TIP3   OH237257   4.091   5.586   2.224 -0.1046 -0.3781 -0.0078
 5233TIP3    H137258   4.004   5.558   2.252 -1.2385 -0.1582 -2.8779
 5233TIP3    H237259   4.129   5.508   2.184 -0.2096  0.2099 -1.3163
 5234TIP3   OH237260   6.644   1.199   0.585 -0.4192  0.2577  0.5914
 5234TIP3    H137261   6.624   1.109   0.610  2.1193 -0.8776 -1.0875
 5234TIP3    H237262   6.565   1.248   0.608 -1.6947 -2.2645  2.0408
 5235TIP3   OH237263   3.904   3.780   1.239 -0.3335  0.1714 -0.5941
 5235TIP3    H137264   3.810   3.796   1.247 -0.6305 -1.6832  0.2325
 5235TIP3    H237265   3.912   3.684   1.238  1.5463  0.2828 -0.7471
 5236TIP3   OH237266   4.714   1.724   0.949 -0.6108 -0.1124 -0.6902
 5236TIP3    H137267   4.654   1.722   0.874 -2.7810  1.9428  0.8713
 5236TIP3    H237268   4.730   1.817   0.965  0.1064 -0.5084  1.1394
 5237TIP3   OH237269   1.820   2.739   2.766  0.5368 -0.3393 -0.0117
 5237TIP3    H137270   1.797   2.682   2.693  0.6740 -1.3936  0.7421
 5237TIP3    H237271   1.744   2.796   2.776 -0.2482 -1.3768  0.1496
 5238TIP3   OH237272   2.062   2.111   0.901  0.1229 -0.3946 -0.6054
 5238TIP3    H137273   2.135   2.102   0.840  0.7500 -1.2487  0.2328
 5238TIP3    H237274   1.984   2.113   0.846  0.6719 -1.2108 -1.4450
 5239TIP3   OH237275   0.599   4.967   7.936 -0.0744  0.2022  0.4897
 5239TIP3    H137276   0.589   5.062   7.937  0.0446  0.2159  0.9989
 5239TIP3    H237277   0.511   4.933   7.953 -0.1559  0.2188  0.0916
 5240TIP3   OH237278   0.083   0.663   2.070 -0.6679 -0.1581 -0.2061
 5240TIP3    H137279   0.141   0.739   2.068 -1.5735  0.6239  1.1580
 5240TIP3    H237280   0.119   0.606   2.138 -0.0418 -0.9263 -1.1646
 5241TIP3   OH237281   4.149   1.068   0.551 -0.6222  0.4799  0.1073
 5241TIP3    H137282   4.109   1.137   0.498 -1.6731 -0.6567 -0.6431
 5241TIP3    H237283   4.137   0.988   0.499  0.9034 -0.2166  0.7789
 5242TIP3   OH237284   2.125   1.003   8.015 -0.4856 -0.1270  0.5289
 5242TIP3    H137285   2.166   1.047   8.090  0.7430  0.2497 -0.3396
 5242TIP3    H237286   2.185   0.932   7.993 -1.2366 -0.7334  0.3737
 5243TIP3   OH237287   4.432   5.521   2.828  0.1364 -0.0418 -0.9025
 5243TIP3    H137288   4.434   5.569   2.745  1.4884  1.9191  0.1527
 5243TIP3    H237289   4.522   5.525   2.859 -0.3247 -0.8238  0.6047
 5244TIP3   OH237290   1.156   0.466   7.245 -0.5951 -0.1903 -0.5148
 5244TIP3    H137291   1.115   0.550   7.225 -0.1643 -0.2750 -1.8580
 5244TIP3    H237292   1.190   0.435   7.161  1.7753 -0.3710  0.4275
 5245TIP3   OH237293   2.297   1.377   1.304 -0.0294 -0.7549  0.0701
 5245TIP3    H137294   2.332   1.424   1.380  0.7278 -2.9395  1.1715
 5245TIP3    H237295   2.373   1.360   1.249 -0.4536  0.1279 -0.8109
 5246TIP3   OH237296   3.409   2.886   6.812  0.3886 -0.4133 -0.2165
 5246TIP3    H137297   3.427   2.796   6.837  0.6488 -0.4664 -0.5861
 5246TIP3    H237298   3.315   2.888   6.794  0.5289 -0.8300 -1.0717
 5247TIP3   OH237299   0.272   4.451   8.090  0.5398 -0.1178  0.0576
 5247TIP3    H137300   0.251   4.358   8.088 -0.3359 -0.0411  2.5412
 5247TIP3    H237301   0.290   4.470   8.182 -0.7572  2.4575 -0.1235
 5248TIP3   OH237302   6.415   5.555   0.974 -0.1693  0.1038  0.1310
 5248TIP3    H137303   6.387   5.473   0.934  1.3686 -0.3510 -0.1101
 5248TIP3    H237304   6.491   5.582   0.923 -0.2697  1.3567  0.6015
 5249TIP3   OH237305   6.326   1.417   8.143  0.2183 -0.0630  0.2142
 5249TIP3    H137306   6.402   1.359   8.134 -0.2500 -0.8523  1.2045
 5249TIP3    H237307   6.364   1.500   8.174  0.8225  0.0069 -0.6599
 5250TIP3   OH237308   1.854   5.502   2.534  0.0191 -0.7078  0.4297
 5250TIP3    H137309   1.779   5.475   2.481  0.3344 -1.2690  0.2633
 5250TIP3    H237310   1.821   5.575   2.587  0.1361  1.0842 -1.7991
 5251TIP3   OH237311   2.589   5.157   1.522  0.0645  0.2458 -0.5220
 5251TIP3    H137312   2.542   5.105   1.457 -0.1392  1.2266 -1.1815
 5251TIP3    H237313   2.608   5.096   1.592 -1.0373 -0.4853 -0.8359
 5252TIP3   OH237314   6.049   1.536   6.776 -0.4725 -0.4249 -0.3553
 5252TIP3    H137315   6.042   1.583   6.859  0.9072  0.1543 -0.5516
 5252TIP3    H237316   5.976   1.474   6.778  0.2667 -1.3248  1.8803
 5253TIP3   OH237317   5.283   1.470   1.591  0.2465  0.0493  0.1510
 5253TIP3    H137318   5.362   1.417   1.595  0.6411  0.6407  0.1954
 5253TIP3    H237319   5.211   1.406   1.591  0.7533 -0.6055 -2.4272
 5254TIP3   OH237320   0.596   5.003   1.644 -0.5628 -0.2677 -0.6257
 5254TIP3    H137321   0.554   4.980   1.561 -0.9978 -0.4373 -0.3601
 5254TIP3    H237322   0.530   4.986   1.710 -0.0362 -0.6482 -0.1877
 5255TIP3   OH237323   1.139   6.508   0.730  0.3663 -0.0197  0.1408
 5255TIP3    H137324   1.197   6.450   0.679  1.0072 -0.3895  1.2429
 5255TIP3    H237325   1.085   6.448   0.781 -0.6149  0.3403 -0.4688
 5256TIP3   OH237326   3.694   5.184   2.117 -0.1628 -0.5628  0.3170
 5256TIP3    H137327   3.606   5.201   2.150  0.4997 -0.9198  2.3740
 5256TIP3    H237328   3.691   5.093   2.086 -0.6154 -0.4437  0.0033
 5257TIP3   OH237329   4.663   2.679   1.052 -0.3588  0.0144  0.7743
 5257TIP3    H137330   4.728   2.742   1.084  0.1636  0.2598 -0.6767
 5257TIP3    H237331   4.589   2.688   1.112 -0.8972  3.0943 -0.1687
 5258TIP3   OH237332   6.035   3.975   8.147  0.2691 -0.2330  0.1587
 5258TIP3    H137333   6.083   4.057   8.138  1.6492 -0.9643  0.4231
 5258TIP3    H237334   6.080   3.914   8.088 -0.7388 -0.7932 -0.0539
 5259TIP3   OH237335   5.417   0.882   1.714 -0.0585 -0.3765 -0.5491
 5259TIP3    H137336   5.473   0.884   1.637  0.3370 -2.8032 -0.3987
 5259TIP3    H237337   5.377   0.969   1.717  1.2242  0.3412 -2.4842
 5260TIP3   OH237338   0.845   4.204   0.966  0.4492  0.3821  0.4842
 5260TIP3    H137339   0.817   4.256   0.890  1.3755  1.5470  0.9098
 5260TIP3    H237340   0.900   4.136   0.930 -1.7136 -1.1124 -0.2195
 5261TIP3   OH237341   2.817   6.464   7.420  0.2082  0.5631 -0.0795
 5261TIP3    H137342   2.855   6.525   7.357  1.9984 -0.5271 -0.1098
 5261TIP3    H237343   2.793   6.519   7.494  2.6448  1.2409  0.2908
 5262TIP3   OH237344   0.452   2.257   8.033  0.5993  0.1034  0.2549
 5262TIP3    H137345   0.389   2.328   8.040  1.6518  0.9263  2.1265
 5262TIP3    H237346   0.440   2.206   8.114  2.0940  0.1155  0.5123
 5263TIP3   OH237347   2.295   2.455   0.341  0.3672  0.0535  0.0646
 5263TIP3    H137348   2.331   2.538   0.308  0.6378 -0.2556 -0.4361
 5263TIP3    H237349   2.268   2.408   0.262 -2.1463  0.7046  0.4530
 5264TIP3   OH237350   0.553   1.633   8.456 -0.1840  0.4508  0.4135
 5264TIP3    H137351   0.463   1.608   8.436 -0.1914  1.8617 -1.6053
 5264TIP3    H237352   0.545   1.705   8.518 -0.3843 -0.0613  0.9960
 5265TIP3   OH237353   5.482   5.219   0.436 -0.0589 -0.4094 -0.0735
 5265TIP3    H137354   5.397   5.262   0.447  0.4122  0.8580 -1.0861
 5265TIP3    H237355   5.478   5.177   0.350  1.4781  2.6822 -1.8379
 5266TIP3   OH237356   5.177   0.090   1.517 -0.0387 -0.4492  0.0873
 5266TIP3    H137357   5.229   0.146   1.575  1.3727 -2.4278  0.8151
 5266TIP3    H237358   5.108   0.055   1.574  0.5523 -1.3420  0.2783
 5267TIP3   OH237359   1.864   4.258   7.317 -0.3139  0.8546  0.5051
 5267TIP3    H137360   1.775   4.263   7.281  0.2657  0.8631 -0.9697
 5267TIP3    H237361   1.851   4.237   7.409 -1.8188 -0.1940  0.0836
 5268TIP3   OH237362   0.105   1.061   0.321  0.6792 -0.2960  0.1809
 5268TIP3    H137363   0.146   1.054   0.407  0.7315 -0.8715  0.1149
 5268TIP3    H237364   0.053   1.141   0.326 -0.1070 -0.8456  1.0882
 5269TIP3   OH237365   6.298   4.045   2.133  0.0821 -0.5217 -0.3357
 5269TIP3    H137366   6.349   4.026   2.054  2.7666  2.8794  0.3183
 5269TIP3    H237367   6.241   4.118   2.107  0.3725  0.0568  0.5850
 5270TIP3   OH237368   1.870   2.245   7.494 -0.3444 -0.3368 -0.0366
 5270TIP3    H137369   1.842   2.304   7.424  1.5965 -0.5378 -1.0357
 5270TIP3    H237370   1.914   2.173   7.448 -1.9624 -2.2317  1.1951
 5271TIP3   OH237371   3.601   2.232   2.834  0.2609 -0.1074 -0.0180
 5271TIP3    H137372   3.565   2.278   2.910  1.1551 -0.9771  0.9612
 5271TIP3    H237373   3.686   2.273   2.819 -0.0970  0.3483 -0.8301
 5272TIP3   OH237374   4.675   6.706   7.981  0.3232  0.2714  0.1255
 5272TIP3    H137375   4.600   6.733   7.929  0.4793 -0.3853 -0.4446
 5272TIP3    H237376   4.751   6.730   7.928  0.4852 -0.2133  0.1353
 5273TIP3   OH237377   3.113   3.041   2.521 -0.1056  0.2385 -0.2886
 5273TIP3    H137378   3.132   3.098   2.595  0.3807 -0.8660  0.4532
 5273TIP3    H237379   3.091   2.956   2.560 -0.0251 -0.3114 -1.3951
 5274TIP3   OH237380   2.565   0.447   1.699  0.0606 -0.2268 -0.7468
 5274TIP3    H137381   2.657   0.464   1.677 -0.0170 -1.1744 -1.8909
 5274TIP3    H237382   2.565   0.358   1.735 -0.3228  0.0386 -0.0556
 5275TIP3   OH237383   3.224   1.254   2.277 -0.2917 -0.1882 -0.1918
 5275TIP3    H137384   3.245   1.304   2.355  0.9774 -1.1195  0.1050
 5275TIP3    H237385   3.146   1.295   2.242 -0.3178  0.8542  1.0247
 5276TIP3   OH237386   2.538   6.481   1.722  0.3414  0.7413 -0.0929
 5276TIP3    H137387   2.588   6.473   1.640 -1.0653 -1.8523 -0.8013
 5276TIP3    H237388   2.595   6.442   1.788 -0.2947 -1.3588 -0.7283
 5277TIP3   OH237389   6.059   2.724   1.769  0.1396 -0.0427  0.1523
 5277TIP3    H137390   6.144   2.711   1.726  0.3574 -1.2260  0.8817
 5277TIP3    H237391   6.023   2.636   1.777 -0.2775  0.2363  1.6105
 5278TIP3   OH237392   1.196   0.904   8.501  0.2193 -0.6720 -0.2183
 5278TIP3    H137393   1.155   0.987   8.525  1.7644 -0.4790  2.1263
 5278TIP3    H237394   1.131   0.837   8.521  0.0907 -0.2044  1.0318
 5279TIP3   OH237395   3.738   6.107   0.251  0.0354  0.2267  0.0007
 5279TIP3    H137396   3.764   6.042   0.316  0.1537  0.3724  0.0981
 5279TIP3    H237397   3.646   6.087   0.232  0.2879 -0.4552 -0.5405
 5280TIP3   OH237398   5.493   4.663   6.964  0.4824  0.5192  0.1407
 5280TIP3    H137399   5.549   4.736   6.938  0.1072  0.6058 -0.4271
 5280TIP3    H237400   5.553   4.588   6.969  0.9986  0.9901  1.4001
 5281TIP3   OH237401   0.446   6.154   0.944 -0.7757  0.7493 -0.0171
 5281TIP3    H137402   0.391   6.164   0.866  0.8396  0.1141 -1.3089
 5281TIP3    H237403   0.505   6.230   0.941 -0.5537  0.5981  0.4538
 5282TIP3   OH237404   1.587   1.737   7.140 -0.2857  0.2798 -0.0599
 5282TIP3    H137405   1.537   1.763   7.063  0.4435  0.0838 -0.6151
 5282TIP3    H237406   1.663   1.796   7.141 -0.9367  1.1425  1.2570
 5283TIP3   OH237407   6.866   4.233   2.772  0.2551  0.8792  0.4085
 5283TIP3    H137408   6.893   4.257   2.683  1.2190  1.1221  0.7485
 5283TIP3    H237409   6.908   4.148   2.787 -1.5413 -0.1342 -0.0777
 5284TIP3   OH237410   0.137   3.541   8.282  0.1792  0.3480 -0.4656
 5284TIP3    H137411   0.163   3.533   8.374  0.6569 -0.3643 -0.6569
 5284TIP3    H237412   0.174   3.625   8.254 -0.1297  0.6622  0.0367
 5285TIP3   OH237413   1.857   2.926   8.423 -0.0622  0.1301  0.0111
 5285TIP3    H137414   1.765   2.917   8.451 -0.3749 -0.9782 -1.2778
 5285TIP3    H237415   1.873   3.020   8.426 -2.1308  0.6779 -2.3182
 5286TIP3   OH237416   2.439   1.164   2.185 -0.6341 -0.7489 -0.1004
 5286TIP3    H137417   2.492   1.115   2.248  0.0934  0.8681  0.6331
 5286TIP3    H237418   2.350   1.132   2.197 -0.7235  0.2301  2.6138
 5287TIP3   OH237419   2.142   0.315   7.857  0.3441  0.3096  0.5744
 5287TIP3    H137420   2.204   0.354   7.918  0.3021 -0.4388  1.1208
 5287TIP3    H237421   2.081   0.385   7.835  0.5099  0.6503  1.2025
 5288TIP3   OH237422   1.654   5.016   2.673 -0.1325  0.1463 -0.0905
 5288TIP3    H137423   1.676   5.042   2.584  0.9636 -2.4719 -0.6842
 5288TIP3    H237424   1.582   4.954   2.663 -0.1300 -0.0222  0.8690
 5289TIP3   OH237425   5.405   4.830   7.616  0.5165  0.6465  0.0273
 5289TIP3    H137426   5.392   4.748   7.664 -1.2911  1.4171  0.9680
 5289TIP3    H237427   5.320   4.849   7.576  0.8734  2.0832 -0.1268
 5290TIP3   OH237428   4.457   5.711   2.324 -0.4952 -0.2350  0.5395
 5290TIP3    H137429   4.545   5.673   2.313 -0.7206 -0.9143  1.0340
 5290TIP3    H237430   4.416   5.701   2.238 -0.5318 -1.0956  0.6438
 5291TIP3   OH237431   2.747   0.130   0.988 -0.2597 -0.0167  0.3065
 5291TIP3    H137432   2.776   0.044   1.018  0.5410 -0.6534 -2.0598
 5291TIP3    H237433   2.652   0.121   0.980 -0.2251 -0.5486  0.4623
 5292TIP3   OH237434   4.246   5.689   0.943 -0.0596  0.0634  0.0835
 5292TIP3    H137435   4.311   5.621   0.964 -0.1595  0.5303  2.1572
 5292TIP3    H237436   4.177   5.642   0.897 -0.2190 -1.3342  1.6491
 5293TIP3   OH237437   4.165   5.789   2.023 -0.2055  0.3176  0.4743
 5293TIP3    H137438   4.127   5.735   2.092 -0.4503  1.2606  1.1067
 5293TIP3    H237439   4.144   5.743   1.942 -0.4094 -0.5204  0.9871
 5294TIP3   OH237440   2.037   0.761   8.408 -0.3377  0.1115 -0.0141
 5294TIP3    H137441   1.955   0.776   8.361  0.3462  1.7813 -0.7660
 5294TIP3    H237442   2.023   0.804   8.493 -0.1429  0.6752 -0.2632
 5295TIP3   OH237443   1.806   1.926   7.125  0.3553  0.1588  0.5098
 5295TIP3    H137444   1.770   2.013   7.142  0.4582  0.0182  1.5043
 5295TIP3    H237445   1.898   1.941   7.104  0.3206  0.3082  0.4640
 5296TIP3   OH237446   6.603   1.484   8.268  0.4895  0.3159 -0.1459
 5296TIP3    H137447   6.676   1.535   8.233  0.2842 -0.0709 -1.1546
 5296TIP3    H237448   6.636   1.394   8.271 -0.2149 -0.0058 -1.4207
 5297TIP3   OH237449   5.704   4.599   2.533  0.4185  0.1955  0.1897
 5297TIP3    H137450   5.663   4.593   2.619  0.3198  2.0887  0.3208
 5297TIP3    H237451   5.699   4.692   2.511  0.3702 -0.2496 -1.9006
 5298TIP3   OH237452   3.510   0.937   2.890 -0.4151  0.0240  0.6203
 5298TIP3    H137453   3.442   0.990   2.849 -0.9031 -1.9787 -1.4161
 5298TIP3    H237454   3.509   0.962   2.982 -1.5384  2.4658  0.0137
 5299TIP3   OH237455   3.638   3.663   8.072  0.1908  0.1683 -0.4647
 5299TIP3    H137456   3.645   3.758   8.064  0.2523  0.4970  2.4364
 5299TIP3    H237457   3.544   3.645   8.062  0.1760  0.5367 -1.0068
 5300TIP3   OH237458   3.063   2.969   2.941 -0.0634  0.1502 -0.5532
 5300TIP3    H137459   2.976   3.007   2.932 -0.1933  0.1680  0.5723
 5300TIP3    H237460   3.048   2.875   2.952  0.0321  0.1924 -0.0403
 5301TIP3   OH237461   0.252   1.034   8.631 -0.4458  0.1517 -0.0776
 5301TIP3    H137462   0.273   1.004   8.542  0.8862 -2.0276  0.9078
 5301TIP3    H237463   0.192   0.968   8.666  1.5422 -0.8421  1.6947
 5302TIP3   OH237464   0.306   1.517   8.350  0.2039  0.1269  0.4949
 5302TIP3    H137465   0.251   1.591   8.324  0.4390  0.1298 -0.0194
 5302TIP3    H237466   0.254   1.439   8.329  0.8069  0.0934 -1.0655
 5303TIP3   OH237467   3.085   6.099   2.122 -0.0309 -0.9623  0.3581
 5303TIP3    H137468   3.078   6.059   2.036  1.1802 -0.8454  0.1866
 5303TIP3    H237469   3.020   6.054   2.175 -2.2077  0.2774 -1.0811
 5304TIP3   OH237470   0.678   3.576   2.561  0.2967 -0.6549  0.4229
 5304TIP3    H137471   0.644   3.507   2.504 -0.3814  1.0459 -1.3692
 5304TIP3    H237472   0.757   3.538   2.599 -0.1726 -2.4854 -0.2970
 5305TIP3   OH237473   5.883   5.301   0.257  0.7410  0.4218 -0.3145
 5305TIP3    H137474   5.960   5.322   0.310  0.2706 -2.0195  1.5447
 5305TIP3    H237475   5.809   5.322   0.314  0.0990  0.4299 -1.1415
 5306TIP3   OH237476   0.719   1.045   7.214  0.2520 -0.2718  0.1587
 5306TIP3    H137477   0.738   0.972   7.272  1.7681  0.4070  0.5554
 5306TIP3    H237478   0.717   1.006   7.126  2.2388 -0.6471  0.2335
 5307TIP3   OH237479   0.107   0.860   0.146 -0.3070  0.3982  0.0767
 5307TIP3    H137480   0.097   0.944   0.192  1.2092  0.3039  0.6121
 5307TIP3    H237481   0.116   0.796   0.216  2.6974  0.3308 -0.2515
 5308TIP3   OH237482   6.171   4.722   7.531  0.2656 -0.2313  0.6787
 5308TIP3    H137483   6.139   4.720   7.441 -0.4020 -1.2250  0.9264
 5308TIP3    H237484   6.267   4.724   7.523  0.2013 -0.0585 -0.0534
 5309TIP3   OH237485   6.807   5.987   7.250 -0.3402 -0.4792  0.2028
 5309TIP3    H137486   6.798   6.081   7.257  1.0869 -0.3908  1.2299
 5309TIP3    H237487   6.855   5.961   7.328 -2.3419 -2.3260  0.9059
 5310TIP3   OH237488   1.920   2.605   0.550 -0.3355 -0.0213 -0.0291
 5310TIP3    H137489   1.996   2.654   0.516 -0.0110 -0.6705 -0.2458
 5310TIP3    H237490   1.953   2.563   0.629 -0.0280 -1.4867 -0.8894
 5311TIP3   OH237491   0.252   3.213   0.939  0.0034 -0.2822  0.3757
 5311TIP3    H137492   0.236   3.307   0.941 -1.2537 -0.4826  0.2766
 5311TIP3    H237493   0.341   3.205   0.904 -1.0536  0.7492 -2.9572
 5312TIP3   OH237494   0.646   4.171   2.240  0.1017  0.1113 -0.0671
 5312TIP3    H137495   0.722   4.188   2.295  0.4731 -1.4530 -0.0487
 5312TIP3    H237496   0.641   4.247   2.181  1.3189  0.4951  0.3034
 5313TIP3   OH237497   2.466   5.035   1.268  0.0200 -0.4631 -0.1853
 5313TIP3    H137498   2.374   5.011   1.281 -0.8795  2.4644 -0.5100
 5313TIP3    H237499   2.493   4.987   1.190 -0.7588 -2.4610  0.7136
 5314TIP3   OH237500   4.458   6.095   7.702 -0.0718 -0.3004 -0.0472
 5314TIP3    H137501   4.467   6.059   7.613 -0.8470 -1.6886  0.4011
 5314TIP3    H237502   4.397   6.035   7.746  0.8795 -0.0776  1.6589
 5315TIP3   OH237503   1.964   5.379   0.208 -0.1947  0.1093  0.1349
 5315TIP3    H137504   1.882   5.411   0.247 -1.3743 -1.0032 -1.2750
 5315TIP3    H237505   2.015   5.346   0.282 -1.5839 -0.3272  0.9359
 5316TIP3   OH237506   5.354   2.699   7.282 -0.0636  0.1686  0.1399
 5316TIP3    H137507   5.343   2.622   7.226  1.0951  0.0992 -0.0252
 5316TIP3    H237508   5.447   2.698   7.306 -0.0177  1.5496  0.0944
 5317TIP3   OH237509   1.580   4.502   7.441  0.3489 -0.2166  0.6733
 5317TIP3    H137510   1.527   4.514   7.363  0.6111  2.4959  0.7949
 5317TIP3    H237511   1.623   4.418   7.429 -0.7754 -0.5599 -1.3668
 5318TIP3   OH237512   4.501   3.392   8.200 -0.2151  1.1312  0.2735
 5318TIP3    H137513   4.540   3.323   8.147  0.1190  0.2506  1.6113
 5318TIP3    H237514   4.501   3.469   8.143  0.8323  0.4248 -0.7292
 5319TIP3   OH237515   5.932   5.404   7.607 -0.5561  0.5479  0.2690
 5319TIP3    H137516   5.910   5.357   7.527 -2.3656 -2.1236  2.1477
 5319TIP3    H237517   5.898   5.348   7.678  0.7891  2.8159  2.9098
 5320TIP3   OH237518   0.047   4.240   7.228 -0.0540 -0.8812  0.2544
 5320TIP3    H137519  -0.026   4.268   7.283 -0.2849  2.3489 -1.4222
 5320TIP3    H237520   0.125   4.266   7.276 -0.1385 -1.0821  0.5006
 5321TIP3   OH237521   1.529   2.217   8.444 -0.5113 -0.0285 -0.6782
 5321TIP3    H137522   1.536   2.124   8.464  0.6945  0.0943 -0.4610
 5321TIP3    H237523   1.576   2.260   8.515  0.2731  0.6589 -1.5954
 5322TIP3   OH237524   5.670   2.554   0.982 -0.4311  0.6594  0.4388
 5322TIP3    H137525   5.725   2.613   0.932 -0.5891 -0.0272 -0.5846
 5322TIP3    H237526   5.731   2.495   1.025 -0.3194 -0.9225 -1.7182
 5323TIP3   OH237527   6.496   0.598   2.057  0.0206  0.1093 -0.1721
 5323TIP3    H137528   6.530   0.510   2.075 -0.5345 -0.2541 -0.8733
 5323TIP3    H237529   6.506   0.608   1.963 -0.1582  0.7003 -0.1268
 5324TIP3   OH237530   2.286   0.154   7.559  0.3990 -0.4183  0.6701
 5324TIP3    H137531   2.252   0.129   7.473 -2.2835  0.1195  1.4885
 5324TIP3    H237532   2.346   0.084   7.583 -0.1646 -1.4717 -0.8916
 5325TIP3   OH237533   2.502   0.140   1.747  0.1232  0.3014  0.3840
 5325TIP3    H137534   2.498   0.047   1.727 -0.4818  0.3895  0.0839
 5325TIP3    H237535   2.593   0.155   1.774  0.7527  0.0029 -1.4405
 5326TIP3   OH237536   5.816   4.755   6.567  0.3154 -0.3996  0.3744
 5326TIP3    H137537   5.738   4.809   6.554 -0.5462 -1.4522  0.9938
 5326TIP3    H237538   5.782   4.669   6.593  1.6390 -1.2653 -0.5986
 5327TIP3   OH237539   1.595   6.072   7.312  0.0248 -0.3797 -0.2176
 5327TIP3    H137540   1.548   6.095   7.392 -0.1452 -0.5671 -0.2624
 5327TIP3    H237541   1.685   6.059   7.340  0.0378 -0.0828 -0.1197
 5328TIP3   OH237542   4.243   2.886   2.044  0.1843 -0.0555  0.6726
 5328TIP3    H137543   4.150   2.906   2.051  0.3737  0.2754  3.4554
 5328TIP3    H237544   4.259   2.819   2.111  1.6725 -1.3063 -0.8428
 5329TIP3   OH237545   0.914   3.539   0.370  0.2168  0.1107  0.3417
 5329TIP3    H137546   0.994   3.487   0.373 -0.7509 -1.4987 -0.5125
 5329TIP3    H237547   0.881   3.539   0.460 -0.5769 -2.1337  0.1063
 5330TIP3   OH237548   2.791   5.225   0.168 -0.5820  0.5610  0.8981
 5330TIP3    H137549   2.744   5.147   0.140  0.3652 -0.3507  1.7547
 5330TIP3    H237550   2.882   5.196   0.176 -0.1668  1.8238  1.0022
 5331TIP3   OH237551   6.565   1.592   0.858  0.1814 -0.1816  0.2358
 5331TIP3    H137552   6.661   1.584   0.858  0.2140  0.0471 -0.7772
 5331TIP3    H237553   6.546   1.648   0.933  0.6012 -2.5257  2.2134
 5332TIP3   OH237554   1.758   2.985   1.854 -0.8242 -0.6415 -0.2808
 5332TIP3    H137555   1.746   3.078   1.832 -1.6225 -1.1286 -2.1117
 5332TIP3    H237556   1.827   2.955   1.795  0.3279 -0.9570  1.1725
 5333TIP3   OH237557   3.401   6.608   1.656 -0.3564 -0.0320 -0.1057
 5333TIP3    H137558   3.345   6.630   1.730 -0.0915  0.4125 -0.0325
 5333TIP3    H237559   3.370   6.523   1.626 -0.0144 -0.5509  0.9697
 5334TIP3   OH237560   0.104   1.701   8.028  0.1529  0.0184  0.0819
 5334TIP3    H137561   0.138   1.705   8.117 -1.7463  2.0846  0.8121
 5334TIP3    H237562   0.167   1.750   7.976 -0.6165  2.2243  1.0862
 5335TIP3   OH237563   1.033   2.311   1.905 -0.3492  0.2435  0.8224
 5335TIP3    H137564   0.953   2.341   1.949  0.0479  2.7338 -0.0234
 5335TIP3    H237565   1.084   2.270   1.975 -0.6481  2.1976  2.2787
 5336TIP3   OH237566   1.005   3.703   7.373 -0.0625 -0.1089 -0.0925
 5336TIP3    H137567   0.978   3.693   7.464  0.0210  0.5937  0.0194
 5336TIP3    H237568   1.071   3.772   7.375 -1.2204  1.0813 -0.8820
 5337TIP3   OH237569   5.958   2.302   8.602 -0.3052 -0.5066 -0.2872
 5337TIP3    H137570   5.964   2.208   8.614  1.0950 -0.3877  0.0860
 5337TIP3    H237571   6.029   2.338   8.655  0.4020  0.6223 -1.9150
 5338TIP3   OH237572   0.403   4.004   8.318 -0.5630  0.2890 -0.2195
 5338TIP3    H137573   0.409   4.074   8.383  0.0825 -0.9793  1.1565
 5338TIP3    H237574   0.479   3.948   8.337 -0.6911 -0.4275 -1.7138
 5339TIP3   OH237575   4.604   6.153   1.006 -0.6389  0.0797 -0.3616
 5339TIP3    H137576   4.537   6.186   1.066 -0.4202 -2.0136  1.1509
 5339TIP3    H237577   4.641   6.231   0.966 -3.7859  1.3618 -1.1048
 5340TIP3   OH237578   3.995   2.879   8.246  0.7832 -0.4597 -0.9044
 5340TIP3    H137579   3.969   2.957   8.197  0.1097  0.2124  0.4525
 5340TIP3    H237580   4.080   2.901   8.284  0.0482  0.1316  0.4780
 5341TIP3   OH237581   1.500   0.062   0.946  0.1485 -0.7446  0.0821
 5341TIP3    H137582   1.423   0.013   0.916  0.1905 -0.3794 -0.6493
 5341TIP3    H237583   1.504   0.138   0.887 -0.3088  0.4941  1.5973
 5342TIP3   OH237584   1.996   1.861   0.288 -0.1456  0.4576  0.3749
 5342TIP3    H137585   1.903   1.883   0.299 -0.3033 -0.1632  0.3360
 5342TIP3    H237586   2.039   1.901   0.362 -0.5461  0.1941  0.7578
 5343TIP3   OH237587   5.219   1.980   2.942 -0.5073  0.2142 -1.0170
 5343TIP3    H137588   5.153   1.968   3.010  0.3964  1.8481  0.2077
 5343TIP3    H237589   5.211   2.072   2.916  2.1278  0.8573  0.1252
 5344TIP3   OH237590   6.019   1.899   7.032 -0.5873 -0.0206  0.3137
 5344TIP3    H137591   5.988   1.829   7.089  0.5441 -0.4754  0.4037
 5344TIP3    H237592   6.109   1.874   7.011 -1.1921 -0.2727 -2.2989
 5345TIP3   OH237593   2.269   4.497   6.646  0.3492  0.2806  0.3170
 5345TIP3    H137594   2.211   4.433   6.605 -1.1148  1.4030  0.5260
 5345TIP3    H237595   2.314   4.450   6.716  0.2144 -0.7843 -0.2972
 5346TIP3   OH237596   0.890   6.393   0.819 -0.3132  0.2403  0.4414
 5346TIP3    H137597   0.830   6.331   0.779  1.2792 -0.4548 -1.0128
 5346TIP3    H237598   0.918   6.351   0.900 -0.5426 -0.1646  0.3097
 5347TIP3   OH237599   2.073   5.583   7.308 -0.1134 -0.3146 -0.5349
 5347TIP3    H137600   2.031   5.581   7.394  2.3209 -0.3616  0.7527
 5347TIP3    H237601   2.114   5.669   7.303 -1.6738  0.4019 -2.4893
 5348TIP3   OH237602   1.330   4.795   1.897 -0.0898 -0.1610  0.4546
 5348TIP3    H137603   1.335   4.889   1.918 -0.6254  0.0221 -0.2230
 5348TIP3    H237604   1.390   4.784   1.824  0.2067 -0.4111  0.7333
 5349TIP3   OH237605   2.160   3.597   7.207  0.7403 -0.0550 -0.4122
 5349TIP3    H137606   2.218   3.673   7.214 -0.6913  0.9858  0.9882
 5349TIP3    H237607   2.102   3.617   7.133  0.8865 -0.1608 -0.5549
 5350TIP3   OH237608   4.655   3.056   1.642 -0.9218 -0.4155 -0.2241
 5350TIP3    H137609   4.594   3.115   1.599 -0.8955  0.9250  1.4714
 5350TIP3    H237610   4.672   2.988   1.577 -1.5121  1.0322 -1.9840
 5351TIP3   OH237611   4.997   0.927   0.511  0.0192  0.3209  0.3813
 5351TIP3    H137612   4.966   0.837   0.501 -0.7441  0.5445  0.6546
 5351TIP3    H237613   4.943   0.964   0.581 -0.4629  1.3316 -0.4883
 5352TIP3   OH237614   0.612   3.855   2.794  0.2144 -0.7261  0.3812
 5352TIP3    H137615   0.517   3.855   2.778  0.1366  0.4320  0.7021
 5352TIP3    H237616   0.629   3.774   2.842 -0.4278 -1.4918 -0.6438
 5353TIP3   OH237617   6.450   5.318   0.563 -0.0360  0.0213 -0.8355
 5353TIP3    H137618   6.439   5.411   0.544 -1.4665 -0.5450 -3.3530
 5353TIP3    H237619   6.429   5.309   0.656 -0.6104  2.1050 -0.7202
 5354TIP3   OH237620   1.850   1.140   1.590  0.4096  0.6115 -0.4259
 5354TIP3    H137621   1.793   1.174   1.521 -1.3389  1.3068  1.2850
 5354TIP3    H237622   1.813   1.055   1.613  0.0388  1.0439  0.6605
 5355TIP3   OH237623   5.894   1.599   0.815 -0.2552 -0.0872 -0.6457
 5355TIP3    H137624   5.840   1.633   0.743 -1.6068 -0.2297  0.2602
 5355TIP3    H237625   5.832   1.582   0.885  0.7233 -2.0252 -0.1789
 5356TIP3   OH237626   2.541   6.606   1.209 -0.5255  0.4484  0.2725
 5356TIP3    H137627   2.547   6.660   1.287 -0.9277  1.8009 -0.5972
 5356TIP3    H237628   2.451   6.574   1.208 -0.6115  0.6899  0.2063
 5357TIP3   OH237629   6.160   1.428   2.514  0.4325 -0.2349 -0.4490
 5357TIP3    H137630   6.100   1.501   2.503  0.3432 -0.3233 -0.5540
 5357TIP3    H237631   6.149   1.375   2.435  1.1958  0.1385 -0.8246
 5358TIP3   OH237632   4.074   0.010   1.732  1.2239  0.3226  0.3672
 5358TIP3    H137633   4.148   0.028   1.790  0.3663  1.7401  1.0786
 5358TIP3    H237634   3.999   0.052   1.775 -0.3012 -2.2600  0.3974
 5359TIP3   OH237635   2.675   4.929   1.088 -0.0030  0.0039 -0.4066
 5359TIP3    H137636   2.624   4.925   1.007  0.9077  0.1248 -0.9967
 5359TIP3    H237637   2.696   4.838   1.108  1.4103  0.0826 -1.3855
 5360TIP3   OH237638   3.062   3.750   2.663  0.3493  0.0808  0.4340
 5360TIP3    H137639   3.031   3.835   2.693  1.3218  0.6945 -0.2340
 5360TIP3    H237640   3.057   3.693   2.740 -3.4462 -0.2331  0.1705
 5361TIP3   OH237641   3.754   1.962   8.230 -0.2571 -0.2859  0.2995
 5361TIP3    H137642   3.806   1.945   8.308 -0.1953  0.6621  0.4811
 5361TIP3    H237643   3.792   1.905   8.163  1.6747  1.0787  0.1595
 5362TIP3   OH237644   0.862   5.965   8.652  0.2084  0.5366 -0.1572
 5362TIP3    H137645   0.905   5.942   8.570 -0.0970  1.4172 -0.5680
 5362TIP3    H237646   0.793   6.026   8.628 -1.2497 -0.7737  0.5029
 5363TIP3   OH237647   2.842   5.247   7.768  0.5033 -0.2461  0.6433
 5363TIP3    H137648   2.831   5.226   7.675 -2.9254 -2.3842  1.3502
 5363TIP3    H237649   2.790   5.326   7.781  2.6801  1.3022  0.4657
 5364TIP3   OH237650   6.409   6.732   7.468 -0.3718  0.0076 -0.7126
 5364TIP3    H137651   6.397   6.762   7.378  1.3598  0.8856 -0.6734
 5364TIP3    H237652   6.436   6.809   7.516  0.9192 -0.9141  0.0921
 5365TIP3   OH237653   6.279   5.732   1.397  0.0203 -0.3018 -0.8617
 5365TIP3    H137654   6.328   5.766   1.321  2.9161 -2.7934 -0.2954
 5365TIP3    H237655   6.224   5.662   1.361 -0.6741  0.2964 -0.9986
 5366TIP3   OH237656   6.004   0.511   1.579 -0.0314  0.4334 -0.1678
 5366TIP3    H137657   5.910   0.499   1.564 -0.1368  2.5291 -1.7860
 5366TIP3    H237658   6.012   0.603   1.604  1.5207  0.0400  0.8758
 5367TIP3   OH237659   1.040   1.490   8.082 -0.0606 -0.0517  0.1481
 5367TIP3    H137660   1.010   1.475   7.992  1.2500  0.5913 -0.4124
 5367TIP3    H237661   1.105   1.422   8.097  0.4802  0.4783  0.2348
 5368TIP3   OH237662   1.137   1.271   7.779 -0.6041 -0.1770  0.5263
 5368TIP3    H137663   1.117   1.285   7.687 -0.4826  0.6931  0.6178
 5368TIP3    H237664   1.209   1.332   7.797 -1.3522  0.4533  1.4566
 5369TIP3   OH237665   1.118   4.293   8.349  0.0486 -0.4727 -0.3593
 5369TIP3    H137666   1.188   4.252   8.297 -0.1793 -0.7059 -0.4875
 5369TIP3    H237667   1.164   4.336   8.421  0.4389  0.5565 -1.2042
 5370TIP3   OH237668   1.111   5.704   7.503 -0.0957 -0.1616 -0.1504
 5370TIP3    H137669   1.182   5.728   7.443 -0.0605 -3.0944 -1.4365
 5370TIP3    H237670   1.044   5.771   7.488 -0.1217 -0.7691 -3.6448
 5371TIP3   OH237671   6.145   5.163   6.733  0.1897  0.3765 -0.0261
 5371TIP3    H137672   6.167   5.094   6.669  2.1463  0.4831  0.4579
 5371TIP3    H237673   6.165   5.123   6.818 -1.2650  0.6413  0.4582
 5372TIP3   OH237674   5.479   1.630   8.635 -0.5762  0.1595 -0.6223
 5372TIP3    H137675   5.449   1.710   8.591 -0.8858  0.6880  0.5183
 5372TIP3    H237676   5.488   1.655   8.727  1.0298 -0.6441 -0.5231
 5373TIP3   OH237677   1.002   4.278   6.824 -0.0242  0.1654 -0.3182
 5373TIP3    H137678   0.952   4.340   6.877 -0.9357  0.6788 -1.6922
 5373TIP3    H237679   1.076   4.253   6.878 -0.4471  1.3221  0.8429
 5374TIP3   OH237680   1.864   0.402   1.420 -0.8092  0.2189 -0.3811
 5374TIP3    H137681   1.845   0.320   1.375 -2.1860 -0.5810  1.5233
 5374TIP3    H237682   1.906   0.375   1.501 -1.4834  1.3740  0.3728
 5375TIP3   OH237683   4.302   2.946   0.055  0.2214 -0.6099 -0.3723
 5375TIP3    H137684   4.237   3.014   0.040 -1.4003 -1.7180  1.2461
 5375TIP3    H237685   4.299   2.893  -0.025 -1.5247 -1.1374  0.0125
 5376TIP3   OH237686   5.763   3.007   1.519  0.4184  0.0120  0.2572
 5376TIP3    H137687   5.751   2.935   1.581  0.6103 -0.1640  0.0885
 5376TIP3    H237688   5.719   3.081   1.561  0.9106  0.0053  0.8087
 5377TIP3   OH237689   0.945   6.650   2.034  0.8838  0.1678  0.1135
 5377TIP3    H137690   0.984   6.630   1.949  0.8090 -1.1371  0.3758
 5377TIP3    H237691   0.857   6.681   2.014  0.9803  0.1703 -0.3037
 5378TIP3   OH237692   6.660   2.453   1.165  0.1437  0.2939 -0.0478
 5378TIP3    H137693   6.720   2.524   1.187 -0.0710  0.7533 -0.8892
 5378TIP3    H237694   6.588   2.462   1.228 -0.6192  1.7892 -1.0646
 5379TIP3   OH237695   1.401   6.757   0.292 -0.6685  0.2476  0.6830
 5379TIP3    H137696   1.414   6.737   0.199 -0.0807  1.7575  0.4194
 5379TIP3    H237697   1.310   6.733   0.309 -0.4682 -1.0713  0.0089
 5380TIP3   OH237698   0.381   0.200   2.016 -0.0405 -0.2644  0.3569
 5380TIP3    H137699   0.451   0.164   1.962 -0.5455  2.3453 -2.2699
 5380TIP3    H237700   0.423   0.270   2.065 -0.4074  0.0195  0.2700
 5381TIP3   OH237701   3.043   6.838   1.319 -0.1466 -0.1616 -0.1919
 5381TIP3    H137702   2.993   6.920   1.320 -0.1209 -0.1317  1.4906
 5381TIP3    H237703   3.135   6.867   1.321 -0.1423 -0.2054  0.8982
 5382TIP3   OH237704   6.322   1.297   1.079 -0.6654 -0.5550 -0.0413
 5382TIP3    H137705   6.234   1.333   1.090 -1.1498 -0.4148 -3.2297
 5382TIP3    H237706   6.380   1.373   1.084 -1.0518 -0.2105 -0.6424
 5383TIP3   OH237707   0.512   1.313   2.281 -0.4321 -0.5796 -0.3225
 5383TIP3    H137708   0.589   1.278   2.324  0.5253 -0.7621 -2.0681
 5383TIP3    H237709   0.440   1.258   2.313  0.3721 -1.3194  0.2771
 5384TIP3   OH237710   0.260   0.199   2.297 -0.7780  0.1735 -0.1580
 5384TIP3    H137711   0.286   0.109   2.312  1.2509  1.0280  2.2883
 5384TIP3    H237712   0.319   0.231   2.229 -1.5870 -0.3172 -1.1232
 5385TIP3   OH237713   2.202   3.519   8.058  0.3880  0.1188 -0.4641
 5385TIP3    H137714   2.169   3.602   8.022 -0.4771 -0.4407 -0.9857
 5385TIP3    H237715   2.147   3.503   8.135 -0.3486 -0.6423 -1.1364
 5386TIP3   OH237716   6.204   6.553   1.149 -0.0377  0.2335 -0.7305
 5386TIP3    H137717   6.226   6.632   1.199  0.3052  0.2018 -0.8298
 5386TIP3    H237718   6.281   6.497   1.159 -0.4030 -0.2139 -0.4048
 5387TIP3   OH237719   3.883   5.837   0.769 -0.5574  0.0660  0.1481
 5387TIP3    H137720   3.822   5.765   0.786 -0.9336  0.1686 -0.7110
 5387TIP3    H237721   3.941   5.838   0.846 -2.2026  0.5685  1.4455
 5388TIP3   OH237722   1.921   5.683   0.813 -0.5314  0.2316  0.1315
 5388TIP3    H137723   1.836   5.722   0.795  0.1756  2.2204  0.8400
 5388TIP3    H237724   1.983   5.735   0.762  0.4884  0.2943  1.3597
 5389TIP3   OH237725   3.208   0.018   2.302 -0.1921  0.3617 -0.5134
 5389TIP3    H137726   3.292   0.040   2.263 -0.4247  1.6636 -0.3092
 5389TIP3    H237727   3.144   0.068   2.251 -0.9153 -0.9862 -0.9857
 5390TIP3   OH237728   5.528   0.724   0.090  0.0481 -0.2554  0.8669
 5390TIP3    H137729   5.437   0.750   0.106  0.8166  1.3082  3.0807
 5390TIP3    H237730   5.532   0.710  -0.005 -2.0680  1.4089  0.4579
 5391TIP3   OH237731   6.484   4.180   8.005 -0.2930 -0.3439  0.3672
 5391TIP3    H137732   6.518   4.207   8.090  0.4456  0.1273 -0.0685
 5391TIP3    H237733   6.526   4.096   7.987 -0.1593 -0.2643  0.3035
 5392TIP3   OH237734   3.066   6.446   1.834 -0.1084  0.4583 -0.3389
 5392TIP3    H137735   3.136   6.506   1.861  2.4998 -3.0302  1.5751
 5392TIP3    H237736   3.101   6.402   1.757 -0.7684 -0.4160 -0.1484
 5393TIP3   OH237737   6.149   6.080   7.392  0.1485  0.0694 -0.2270
 5393TIP3    H137738   6.223   6.139   7.375 -0.6847  1.9764  2.1310
 5393TIP3    H237739   6.086   6.101   7.323  0.4069  0.9968 -0.1983
 5394TIP3   OH237740   6.512   5.372   8.403  0.7279  0.0240  0.2163
 5394TIP3    H137741   6.418   5.357   8.393  0.2842  1.9174  1.0254
 5394TIP3    H237742   6.542   5.299   8.457  0.2634 -1.9461 -2.0320
 5395TIP3   OH237743   1.380   3.026   7.430  0.1006  0.0802  0.5782
 5395TIP3    H137744   1.433   2.964   7.480  0.5608  0.2542  0.3173
 5395TIP3    H237745   1.423   3.029   7.344 -0.9490 -0.5756  0.0094
 5396TIP3   OH237746   0.030   0.013   8.004 -0.1790  0.2294 -0.9625
 5396TIP3    H137747   0.062   0.016   7.914  0.6462  1.7605 -0.6572
 5396TIP3    H237748  -0.047   0.070   8.004 -0.9400 -0.7730 -0.9548
 5397TIP3   OH237749   2.707   5.466   0.267 -0.2394  0.1202 -0.0132
 5397TIP3    H137750   2.734   5.382   0.230  0.7461  1.0020 -1.4245
 5397TIP3    H237751   2.749   5.470   0.352  2.0980  0.3573 -1.1029
 5398TIP3   OH237752   5.517   2.226   7.247  0.1533  0.5323  0.2689
 5398TIP3    H137753   5.431   2.204   7.212 -0.2748  0.0207  1.5987
 5398TIP3    H237754   5.519   2.321   7.248  0.0219  0.5626 -0.7173
 5399TIP3   OH237755   0.875   6.263   6.953  0.0092 -0.5562 -0.2734
 5399TIP3    H137756   0.918   6.177   6.948 -0.3462 -0.6665 -1.8782
 5399TIP3    H237757   0.912   6.313   6.880 -1.7840 -0.2924 -1.0537
 5400TIP3   OH237758   2.160   6.223   2.467 -0.0158 -0.4479  0.5009
 5400TIP3    H137759   2.220   6.266   2.528 -0.7780 -0.8821  1.5859
 5400TIP3    H237760   2.099   6.291   2.441  1.0212  0.0453 -0.7534
 5401TIP3   OH237761   6.887   2.915   0.837 -0.3962 -0.1450 -0.3240
 5401TIP3    H137762   6.905   3.008   0.850 -1.6526  0.2818 -1.4705
 5401TIP3    H237763   6.934   2.892   0.757 -0.1950 -0.4733 -0.1152
 5402TIP3   OH237764   3.201   6.102   0.506 -0.0704 -0.2224 -0.0446
 5402TIP3    H137765   3.288   6.070   0.485  0.8615  1.2511  1.3214
 5402TIP3    H237766   3.212   6.148   0.589 -1.7328  1.7287 -0.8147
 5403TIP3   OH237767   4.379   6.376   0.690 -0.7160 -0.0443 -0.3549
 5403TIP3    H137768   4.417   6.289   0.679 -1.0685 -0.1639 -0.7019
 5403TIP3    H237769   4.386   6.416   0.603 -1.0923  0.0434 -0.3493
 5404TIP3   OH237770   2.932   6.348   8.435 -0.3889  0.1408 -0.5393
 5404TIP3    H137771   2.917   6.255   8.418  0.2498  0.0891 -0.8602
 5404TIP3    H237772   2.930   6.389   8.348 -1.5496  0.5703 -0.3235
 5405TIP3   OH237773   5.178   5.769   0.180  0.1627 -0.1084 -0.5459
 5405TIP3    H137774   5.247   5.727   0.231  0.5439  0.9626 -0.1710
 5405TIP3    H237775   5.097   5.747   0.226  0.5797  1.6790  1.1370
 5406TIP3   OH237776   4.628   3.997   1.375 -0.2491  0.0018  0.1751
 5406TIP3    H137777   4.599   4.052   1.302 -0.8020 -0.1397  0.2835
 5406TIP3    H237778   4.590   3.911   1.356  0.4443 -0.2986  0.1087
 5407TIP3   OH237779   3.777   3.982   7.808  0.4695 -0.2110  0.0088
 5407TIP3    H137780   3.698   4.030   7.787  0.8941  0.4313 -0.1392
 5407TIP3    H237781   3.787   3.919   7.737  0.0850 -0.3158  0.0431
 5408TIP3   OH237782   0.786   5.515   0.217 -0.0393 -0.6034 -0.1538
 5408TIP3    H137783   0.697   5.514   0.182 -0.2135  1.7885  0.0600
 5408TIP3    H237784   0.773   5.519   0.312  0.2755  0.0062 -0.1329
 5409TIP3   OH237785   5.382   3.804   8.109  0.2434  0.0048  0.2701
 5409TIP3    H137786   5.450   3.834   8.169  0.9459 -1.9327  0.5372
 5409TIP3    H237787   5.428   3.788   8.026  0.0250 -0.8322  0.3037
 5410TIP3   OH237788   5.273   2.864   0.221  0.1487 -0.1641 -0.1708
 5410TIP3    H137789   5.346   2.903   0.174  0.4476 -1.4321 -0.8067
 5410TIP3    H237790   5.311   2.833   0.303 -0.2959  1.7162  0.7911
 5411TIP3   OH237791   4.842   5.365   8.564  0.3154 -0.5275 -0.5939
 5411TIP3    H137792   4.751   5.392   8.572  0.8928  1.5666 -0.3751
 5411TIP3    H237793   4.877   5.367   8.653  0.9363  0.1468 -0.8408
 5412TIP3   OH237794   3.361   5.215   1.492 -0.0926 -0.4951 -0.1031
 5412TIP3    H137795   3.373   5.305   1.521  0.2105 -0.5406 -0.0771
 5412TIP3    H237796   3.342   5.166   1.572  0.1336 -0.5186 -0.0630
 5413TIP3   OH237797   3.919   2.207   0.132 -0.1424 -0.4522  0.3271
 5413TIP3    H137798   4.000   2.225   0.181 -0.4395  0.5949  0.4597
 5413TIP3    H237799   3.885   2.127   0.171 -0.3939  0.3771  1.8917
 5414TIP3   OH237800   4.138   5.923   0.476  0.2290  0.1596 -0.0028
 5414TIP3    H137801   4.129   5.995   0.538  0.5522 -0.3663  0.6762
 5414TIP3    H237802   4.139   5.845   0.531  2.4201 -0.2108 -0.4882
 5415TIP3   OH237803   0.135   5.345   0.536  0.6187 -0.1693  0.7556
 5415TIP3    H137804   0.079   5.268   0.528  0.8943 -0.2378 -1.1005
 5415TIP3    H237805   0.222   5.313   0.514  0.7799  0.6110  0.2222
 5416TIP3   OH237806   1.915   4.982   2.786 -0.1402 -0.2046  0.1888
 5416TIP3    H137807   1.941   5.037   2.712  1.2852 -3.1797 -1.7428
 5416TIP3    H237808   1.820   4.975   2.779 -0.0522 -0.3032 -1.3446
 5417TIP3   OH237809   2.403   1.020   2.433 -0.3930 -0.0463 -0.0781
 5417TIP3    H137810   2.437   1.106   2.456 -2.9799  1.0904 -0.1404
 5417TIP3    H237811   2.324   1.010   2.485  0.7929 -3.2867  1.3850
 5418TIP3   OH237812   0.367   1.948   7.589  0.4001 -0.6431 -0.3631
 5418TIP3    H137813   0.378   2.012   7.659  0.2926 -0.1037 -0.8354
 5418TIP3    H237814   0.433   1.881   7.607  0.4517 -0.4506  0.1846
 5419TIP3   OH237815   6.131   4.436   1.969 -0.2152 -0.6551  0.0149
 5419TIP3    H137816   6.159   4.448   2.060  1.4867  0.2698 -0.5907
 5419TIP3    H237817   6.210   4.408   1.923 -0.7433  0.1371 -1.4276
 5420TIP3   OH237818   3.945   1.595   1.549 -0.0228  0.0187  0.0262
 5420TIP3    H137819   4.002   1.530   1.591 -0.0830  0.1614  0.3277
 5420TIP3    H237820   3.873   1.606   1.610 -0.2301  0.0539 -0.2248
 5421TIP3   OH237821   2.171   5.877   6.768 -0.0677 -0.1965  0.1494
 5421TIP3    H137822   2.237   5.944   6.786 -1.3088  0.6306  1.8959
 5421TIP3    H237823   2.195   5.804   6.825 -0.0623 -0.3103  0.0008
 5422TIP3   OH237824   3.292   0.263   1.801 -0.3736  0.6533 -0.3366
 5422TIP3    H137825   3.316   0.355   1.787  0.4969  0.4069 -0.5314
 5422TIP3    H237826   3.328   0.217   1.726 -2.8631  0.4393 -1.5029
 5423TIP3   OH237827   4.177   0.142   8.040  0.0363  0.2336 -0.1651
 5423TIP3    H137828   4.151   0.082   8.110 -1.9520  0.5920 -0.5487
 5423TIP3    H237829   4.126   0.114   7.964  0.8491  0.9568 -1.0112
 5424TIP3   OH237830   1.446   5.324   1.133  0.3101  0.1509 -0.1299
 5424TIP3    H137831   1.541   5.329   1.125  0.3393  0.6689  0.3823
 5424TIP3    H237832   1.424   5.398   1.191 -0.4331  0.2354 -0.5112
 5425TIP3   OH237833   4.862   2.000   7.796  0.2008  0.0828  0.5315
 5425TIP3    H137834   4.816   2.053   7.860 -0.1954 -0.3621  0.6225
 5425TIP3    H237835   4.794   1.947   7.755  0.5310 -0.0598  0.1595
 5426TIP3   OH237836   0.827   6.496   8.012  0.6280  0.6514 -0.0772
 5426TIP3    H137837   0.907   6.453   8.040  0.6291  1.3956  1.1399
 5426TIP3    H237838   0.766   6.483   8.084 -0.3374  0.1481 -0.9590
 5427TIP3   OH237839   4.897   5.739   7.675  0.1663  0.5485 -0.3558
 5427TIP3    H137840   4.834   5.802   7.639 -0.5642  1.0110  1.5881
 5427TIP3    H237841   4.920   5.775   7.761  0.8263 -1.1242  0.2050
 5428TIP3   OH237842   3.676   4.147   1.020 -0.0422  0.3615  0.9210
 5428TIP3    H137843   3.683   4.195   0.938  1.3286  1.3951  1.5944
 5428TIP3    H237844   3.583   4.124   1.027  0.0837 -1.4655 -1.8243
 5429TIP3   OH237845   0.754   4.786   1.281 -0.9991  0.3267 -0.2237
 5429TIP3    H137846   0.692   4.746   1.341 -0.6117 -0.4020 -0.2899
 5429TIP3    H237847   0.813   4.714   1.256  0.6725  1.2573  0.8469
 5430TIP3   OH237848   4.900   1.478   1.997 -0.3941  0.3634 -0.5655
 5430TIP3    H137849   4.886   1.407   1.935  1.6551 -0.4351 -0.2066
 5430TIP3    H237850   4.831   1.468   2.062 -1.3014 -0.0791 -1.5778
 5431TIP3   OH237851   0.764   0.743   8.050 -0.4896  0.6491 -0.1129
 5431TIP3    H137852   0.712   0.795   8.111  0.0599  1.2186 -0.1196
 5431TIP3    H237853   0.797   0.670   8.102  0.4110  1.4157  0.4238
 5432TIP3   OH237854   4.868   5.689   0.792  0.1665 -0.0148  0.0394
 5432TIP3    H137855   4.940   5.685   0.856 -0.6391 -0.2638  0.9560
 5432TIP3    H237856   4.830   5.776   0.805 -3.2435 -1.6903  3.6648
 5433TIP3   OH237857   1.557   1.479   8.452  0.3587 -0.3543  0.4676
 5433TIP3    H137858   1.520   1.514   8.370  1.3558  0.4455  0.3404
 5433TIP3    H237859   1.527   1.540   8.519  1.2901  0.2122  0.3844
 5434TIP3   OH237860   5.152   3.703   1.174  0.0198  0.6662  0.2039
 5434TIP3    H137861   5.247   3.713   1.162  0.2726  0.9004  2.1211
 5434TIP3    H237862   5.114   3.751   1.101  1.3582 -0.6152 -1.4184
 5435TIP3   OH237863   2.570   4.208   8.601 -0.0485 -0.2643 -0.0084
 5435TIP3    H137864   2.649   4.244   8.559 -0.5891 -0.3457 -1.1525
 5435TIP3    H237865   2.497   4.252   8.555 -0.6746  0.6324  1.7648
 5436TIP3   OH237866   5.193   4.070   0.686 -0.4191 -0.0012 -0.3762
 5436TIP3    H137867   5.135   4.051   0.612  0.4107 -1.8329 -0.6211
 5436TIP3    H237868   5.272   4.018   0.668  0.4608  0.8096  0.9764
 5437TIP3   OH237869   6.047   1.485   7.115  0.5858  0.4395 -0.1836
 5437TIP3    H137870   6.079   1.553   7.175  1.1026  0.8587 -0.9265
 5437TIP3    H237871   6.104   1.410   7.131  0.5829  0.4777  0.0091
 5438TIP3   OH237872   5.183   0.647   0.200  0.5751 -0.0048 -0.0581
 5438TIP3    H137873   5.121   0.720   0.198 -0.2462 -0.6674  0.4187
 5438TIP3    H237874   5.183   0.613   0.111  0.2337 -0.0131 -0.0575
 5439TIP3   OH237875   1.287   3.637   8.608 -0.0303  0.4164 -0.3077
 5439TIP3    H137876   1.232   3.671   8.678  0.0398  1.9133 -0.9509
 5439TIP3    H237877   1.233   3.569   8.566 -0.1180 -0.4134  1.0805
 5440TIP3   OH237878   0.977   5.649   8.646 -0.1877  0.9856  0.6916
 5440TIP3    H137879   0.923   5.640   8.725 -0.0925  2.5693  0.9704
 5440TIP3    H237880   0.928   5.709   8.591 -0.8052 -0.9533 -0.9998
 5441TIP3   OH237881   4.512   4.104   0.173  0.3263 -0.1377  0.7198
 5441TIP3    H137882   4.517   4.135   0.264 -0.2651  1.4038  0.2710
 5441TIP3    H237883   4.453   4.166   0.130  2.3103  0.5567 -1.2514
 5442TIP3   OH237884   3.710   1.763   7.640  0.2552  0.2955  0.2003
 5442TIP3    H137885   3.761   1.844   7.648  1.3917 -0.1959 -1.5628
 5442TIP3    H237886   3.691   1.756   7.547  0.1341 -1.4706  0.3365
 5443TIP3   OH237887   6.416   0.324   7.807  0.2211  0.0097  0.0707
 5443TIP3    H137888   6.458   0.342   7.723  0.8279  1.8421  0.7065
 5443TIP3    H237889   6.359   0.249   7.791 -0.0621  0.6339 -2.1018
 5444TIP3   OH237890   3.436   2.729   0.895  0.2991 -1.0492  0.1870
 5444TIP3    H137891   3.418   2.668   0.822 -0.7339 -2.7462  1.7578
 5444TIP3    H237892   3.396   2.686   0.971 -0.6249  1.7073  1.3711
 5445TIP3   OH237893   3.653   3.410   8.200 -0.1251  0.1440 -0.0696
 5445TIP3    H137894   3.682   3.348   8.133 -0.5107  1.1383 -1.1853
 5445TIP3    H237895   3.664   3.496   8.160 -0.4179  0.7658  1.1322
 5446TIP3   OH237896   1.763   6.247   6.800 -0.1710  0.0944  0.9609
 5446TIP3    H137897   1.806   6.305   6.862  0.3571  1.5997 -0.7225
 5446TIP3    H237898   1.718   6.306   6.739  0.3336 -1.2572 -0.7933
 5447TIP3   OH237899   1.742   1.148   0.850  0.3457  0.0622  0.0309
 5447TIP3    H137900   1.724   1.220   0.790 -0.5666  0.1431  0.3813
 5447TIP3    H237901   1.748   1.190   0.936  1.6957 -0.0420  0.0031
 5448TIP3   OH237902   6.152   4.120   0.072  0.3648  0.0048  0.0795
 5448TIP3    H137903   6.096   4.169   0.012 -1.5033 -1.1463  0.7649
 5448TIP3    H237904   6.141   4.029   0.045  3.3725 -0.1503 -0.8737
 5449TIP3   OH237905   1.084   6.201   0.242 -0.1729 -0.3899 -0.2373
 5449TIP3    H137906   1.135   6.162   0.313 -0.8936 -0.1029  0.4626
 5449TIP3    H237907   1.052   6.127   0.191 -0.4293 -0.6486  0.2954
 5450TIP3   OH237908   5.817   3.402   0.672 -0.6985 -0.0481  0.8195
 5450TIP3    H137909   5.792   3.449   0.752 -1.5439 -2.8875  2.3605
 5450TIP3    H237910   5.890   3.346   0.699 -0.3243 -0.3091 -0.6697
 5451TIP3   OH237911   0.039   5.194   0.999 -0.1840 -0.6244  0.2170
 5451TIP3    H137912  -0.008   5.117   1.031  0.2428 -0.9488  0.0790
 5451TIP3    H237913  -0.029   5.255   0.971 -0.5407 -0.7085  0.8794
 5452TIP3   OH237914   1.366   5.702   7.763  0.2862 -0.1439  0.1914
 5452TIP3    H137915   1.408   5.751   7.833  1.5729  1.7581 -1.7943
 5452TIP3    H237916   1.317   5.768   7.713  0.3200 -1.2286 -1.3542
 5453TIP3   OH237917   1.903   2.792   1.470  0.0731  0.1897  0.1444
 5453TIP3    H137918   1.897   2.819   1.561 -0.4484  1.7904 -0.3335
 5453TIP3    H237919   1.856   2.860   1.421  0.8509 -0.3085 -1.3769
 5454TIP3   OH237920   0.272   5.779   7.192  0.4898 -0.5791 -0.2862
 5454TIP3    H137921   0.346   5.794   7.132 -1.3486 -0.2617 -2.6258
 5454TIP3    H237922   0.196   5.770   7.135 -1.2115 -1.7060  1.9794
 5455TIP3   OH237923   6.655   4.082   0.259  0.2820  0.0805  0.0163
 5455TIP3    H137924   6.679   4.050   0.346  1.0403  2.3330  0.6788
 5455TIP3    H237925   6.584   4.144   0.274  0.9091  1.0421 -0.8874
 5456TIP3   OH237926   6.733   4.861   0.841  0.4575 -0.4137  0.4290
 5456TIP3    H137927   6.771   4.779   0.872  0.4057 -0.7000 -0.2507
 5456TIP3    H237928   6.639   4.850   0.856  0.3274 -0.9311 -0.6525
 5457TIP3   OH237929   6.544   2.176   8.220 -0.3817  0.4822  0.1268
 5457TIP3    H137930   6.517   2.249   8.277 -0.9409  0.4584 -0.1011
 5457TIP3    H237931   6.530   2.098   8.274 -2.1992  0.3423 -0.4640
 5458TIP3   OH237932   1.141   3.162   8.051 -0.2149 -0.3761 -0.0468
 5458TIP3    H137933   1.104   3.099   8.113 -2.9109 -0.4329 -1.5302
 5458TIP3    H237934   1.218   3.119   8.016 -0.6973 -1.8839  0.6338
 5459TIP3   OH237935   5.394   3.272   2.239  0.1938 -0.1684 -0.2655
 5459TIP3    H137936   5.364   3.228   2.318  1.5888 -3.0698 -1.2272
 5459TIP3    H237937   5.420   3.359   2.269 -0.7120 -0.6507  2.1592
 5460TIP3   OH237938   1.874   2.368   1.649 -0.1365  0.3649 -0.1347
 5460TIP3    H137939   1.916   2.304   1.708 -0.9302  1.3293  1.5501
 5460TIP3    H237940   1.946   2.423   1.619  0.1017  0.8795  1.2843
 5461TIP3   OH237941   4.204   2.313   7.742 -0.0989  0.2602 -0.4420
 5461TIP3    H137942   4.156   2.277   7.667  0.0323 -0.3966 -0.2143
 5461TIP3    H237943   4.284   2.261   7.747  0.3642  0.9583 -0.4517
 5462TIP3   OH237944   1.264   0.360   1.736  0.2116 -0.0494  0.1633
 5462TIP3    H137945   1.323   0.347   1.661  1.0242 -3.0675  1.2101
 5462TIP3    H237946   1.293   0.443   1.774  1.9171 -0.0575 -0.9799
 5463TIP3   OH237947   5.084   0.572   1.080 -0.5412 -0.3276 -0.3335
 5463TIP3    H137948   5.057   0.492   1.035 -0.8282  0.6941 -2.0999
 5463TIP3    H237949   5.021   0.638   1.052 -0.0834  0.6204  0.7721
 5464TIP3   OH237950   1.698   6.021   1.440 -0.0456 -0.5739  0.4208
 5464TIP3    H137951   1.668   5.988   1.525  0.7781 -1.1156  0.5062
 5464TIP3    H237952   1.691   6.117   1.449 -1.2613 -0.6598  0.6041
 5465TIP3   OH237953   3.462   3.100   0.526  0.5713 -0.2255 -0.5292
 5465TIP3    H137954   3.499   3.186   0.549  2.1552 -0.6702 -1.2905
 5465TIP3    H237955   3.417   3.115   0.443 -0.3593  0.1506  0.0236
 5466TIP3   OH237956   1.844   4.421   0.816  0.1676 -1.1760 -0.1681
 5466TIP3    H137957   1.853   4.442   0.723 -1.1196  0.1465 -0.0426
 5466TIP3    H237958   1.807   4.501   0.854  0.9604 -1.5805  1.5447
 5467TIP3   OH237959   0.665   5.480   7.743 -0.4084  0.1189  0.4353
 5467TIP3    H137960   0.636   5.486   7.653 -0.5874 -0.4080  0.4567
 5467TIP3    H237961   0.614   5.547   7.789  0.3316  1.0173 -0.0104
 5468TIP3   OH237962   1.288   4.012   8.614 -0.3240  0.3407 -0.4087
 5468TIP3    H137963   1.318   4.101   8.632  1.3992  0.1063 -1.8926
 5468TIP3    H237964   1.321   3.960   8.688 -0.0384  0.6796 -0.2961
 5469TIP3   OH237965   1.749   5.846   7.794 -0.3282  0.0680  0.4079
 5469TIP3    H137966   1.679   5.808   7.846 -0.4922 -1.5514 -0.9123
 5469TIP3    H237967   1.823   5.787   7.806 -0.4205 -0.4335 -1.2911
 5470TIP3   OH237968   2.910   1.441   1.482 -0.3221  0.4110  0.0974
 5470TIP3    H137969   2.883   1.464   1.571 -0.9384  0.6309 -0.1413
 5470TIP3    H237970   2.859   1.363   1.460  0.6868 -0.3360  0.3619
 5471TIP3   OH237971   1.476   1.781   6.897 -0.5951 -0.1054  0.1895
 5471TIP3    H137972   1.464   1.706   6.838 -1.5314 -0.3171  0.6327
 5471TIP3    H237973   1.562   1.816   6.873 -1.5008  0.6460 -2.2577
 5472TIP3   OH237974   3.896   1.903   1.720 -0.2595  0.0438  0.9025
 5472TIP3    H137975   3.972   1.868   1.674 -1.6765 -1.0573 -0.7546
 5472TIP3    H237976   3.909   1.879   1.811  0.8509 -1.1083  0.4650
 5473TIP3   OH237977   1.841   1.487   8.118 -0.6763 -0.2355  0.4055
 5473TIP3    H137978   1.883   1.536   8.047 -0.4025  0.2816  0.9070
 5473TIP3    H237979   1.881   1.523   8.198 -1.1523 -0.6348  0.8293
 5474TIP3   OH237980   3.456   6.047   6.989 -0.2504  0.1528  0.5081
 5474TIP3    H137981   3.532   6.069   6.935 -0.4439  1.2827  0.6850
 5474TIP3    H237982   3.459   5.951   6.995  1.5180  0.2049  1.0551
 5475TIP3   OH237983   0.978   4.700   7.563 -0.0664  0.2084  0.2798
 5475TIP3    H137984   1.020   4.767   7.617 -1.9500  0.6614  1.2677
 5475TIP3    H237985   0.891   4.691   7.600 -0.4855 -1.4782 -1.0114
 5476TIP3   OH237986   1.827   5.701   2.743  0.0460 -0.0624  0.1833
 5476TIP3    H137987   1.759   5.700   2.810 -0.4104 -2.5076 -0.2208
 5476TIP3    H237988   1.907   5.676   2.789 -0.1718 -1.2562 -0.0563
 5477TIP3   OH237989   6.192   1.643   6.550 -0.2339  0.2629  0.5255
 5477TIP3    H137990   6.215   1.557   6.515  1.6080  0.7910  0.3519
 5477TIP3    H237991   6.137   1.623   6.627 -0.4797 -1.0278  0.0427
 5478TIP3   OH237992   3.086   1.547   0.556 -0.4142 -0.4178  0.4166
 5478TIP3    H137993   3.066   1.490   0.630  0.2602  0.0212  0.9554
 5478TIP3    H237994   3.024   1.522   0.488 -1.8299 -0.0611  1.5293
 5479TIP3   OH237995   4.222   4.912   2.318  0.5664 -0.8351 -0.5883
 5479TIP3    H137996   4.146   4.966   2.337 -0.2692 -1.7285 -1.2437
 5479TIP3    H237997   4.268   4.904   2.401 -0.6372 -1.1374  0.0698
 5480TIP3   OH237998   4.927   0.385   1.990  0.9898 -0.3675 -0.6176
 5480TIP3    H137999   5.002   0.440   2.010  0.2982  0.1223  0.7618
 5480TIP3    H238000   4.912   0.334   2.070 -0.7774  0.3278 -0.4524
 5481TIP3   OH238001   5.658   6.350   0.025 -0.4311  0.1032 -0.6697
 5481TIP3    H138002   5.722   6.399   0.076  0.5704 -1.2964 -0.5389
 5481TIP3    H238003   5.619   6.416  -0.033 -0.6023  1.4504  0.8894
 5482TIP3   OH238004   2.767   6.784   1.861 -0.7867  0.2986  0.3183
 5482TIP3    H138005   2.771   6.689   1.852 -0.1200  0.3318  0.2149
 5482TIP3    H238006   2.767   6.799   1.956 -2.5676  0.1486  0.3828
 5483TIP3   OH238007   4.400   1.989   7.301 -0.1400  0.2308  0.0111
 5483TIP3    H138008   4.435   2.000   7.389 -0.7016 -0.9918  0.4127
 5483TIP3    H238009   4.319   2.041   7.300  1.0144  2.1144 -0.5513
 5484TIP3   OH238010   5.589   2.982   0.019 -0.0798  0.3939  0.5277
 5484TIP3    H138011   5.677   2.979   0.057 -0.4272 -0.3926  1.3006
 5484TIP3    H238012   5.531   2.993   0.095 -0.7690 -0.9196  0.2209
 5485TIP3   OH238013   0.177   2.059   6.925  0.3283 -0.2955  0.0805
 5485TIP3    H138014   0.245   2.077   6.860 -0.4167 -0.2854 -0.7073
 5485TIP3    H238015   0.099   2.036   6.874 -0.3361 -0.0757  0.9590
 5486TIP3   OH238016   0.984   4.852   1.813  0.0897 -0.6222 -0.4568
 5486TIP3    H138017   1.010   4.760   1.816  1.6534 -0.1989 -0.0662
 5486TIP3    H238018   0.945   4.870   1.898 -0.2339 -0.9157 -0.5415
 5487TIP3   OH238019   1.590   0.061   0.372  0.1502  0.7881  0.0018
 5487TIP3    H138020   1.512   0.018   0.337  0.0441  0.6317  0.4247
 5487TIP3    H238021   1.628  -0.003   0.432  0.3929  1.0095  0.0862
 5488TIP3   OH238022   0.899   5.349   0.503 -0.3784  0.5743  0.8439
 5488TIP3    H138023   0.850   5.429   0.481  0.0921  0.3000 -1.3866
 5488TIP3    H238024   0.849   5.310   0.575 -2.1293  1.5062  0.2094
 5489TIP3   OH238025   3.767   3.289   7.418 -0.0038  0.3305  0.2140
 5489TIP3    H138026   3.823   3.221   7.380  0.8659  0.9117  0.4213
 5489TIP3    H238027   3.701   3.305   7.350  0.3107 -0.0880 -0.2046
 5490TIP3   OH238028   5.080   6.735   7.058  0.4379 -0.0244  0.5787
 5490TIP3    H138029   5.005   6.697   7.104 -1.6377 -0.0575 -2.5379
 5490TIP3    H238030   5.071   6.829   7.071 -0.5054  0.0081 -0.1993
 5491TIP3   OH238031   2.983   2.257   8.641  0.0421  0.0625 -0.2186
 5491TIP3    H138032   2.901   2.300   8.618  0.0073  0.1118  0.0013
 5491TIP3    H238033   2.962   2.206   8.720  0.3194  0.3705  0.0536
 5492TIP3   OH238034   2.281   0.637   7.206 -0.3535 -0.1800  0.7740
 5492TIP3    H138035   2.223   0.641   7.282 -0.8511 -1.6554  0.5022
 5492TIP3    H238036   2.369   0.634   7.243 -0.5523 -0.0611  1.2635
 5493TIP3   OH238037   5.067   1.320   0.429  0.0069 -0.2483 -0.5600
 5493TIP3    H138038   5.041   1.241   0.383 -0.3158  0.9686 -2.5565
 5493TIP3    H238039   4.986   1.352   0.470 -0.2372 -0.0481 -1.1883
 5494TIP3   OH238040   3.854   6.205   2.420  0.4427  0.1786  0.3778
 5494TIP3    H138041   3.898   6.156   2.489  0.0720  0.6847  0.9840
 5494TIP3    H238042   3.833   6.140   2.353 -1.2226 -0.7448  1.7385
 5495TIP3   OH238043   0.659   1.530   2.097  0.6842 -0.3188 -0.2571
 5495TIP3    H138044   0.612   1.469   2.153  1.9232 -1.0392  0.0272
 5495TIP3    H238045   0.715   1.580   2.157 -0.9841  1.8043 -0.3488
 5496TIP3   OH238046   0.525   5.204   0.972 -0.4543  0.5223  0.0006
 5496TIP3    H138047   0.585   5.142   1.013 -0.3944  2.2816  2.9155
 5496TIP3    H238048   0.439   5.182   1.008 -1.3637 -0.8186 -2.7230
 5497TIP3   OH238049   4.146   3.964   0.260  0.3343  0.9152 -0.0535
 5497TIP3    H138050   4.211   3.932   0.323  0.6309 -0.4634 -1.0360
 5497TIP3    H238051   4.071   3.906   0.271 -0.0041  1.3002 -0.2823
 5498TIP3   OH238052   2.574   5.793   0.508 -0.2339  0.2250  0.2666
 5498TIP3    H138053   2.665   5.823   0.510 -0.4308  0.8029  1.6448
 5498TIP3    H238054   2.533   5.845   0.439  0.0015  1.4987  1.0440
 5499TIP3   OH238055   4.494   6.111   0.725  0.1182  0.5191  0.1179
 5499TIP3    H138056   4.517   6.117   0.818  1.9411 -0.6607 -0.2095
 5499TIP3    H238057   4.444   6.030   0.718  0.1785  0.4889  0.0323
 5500TIP3   OH238058   6.147   0.813   7.864 -0.0913 -0.4163 -0.0207
 5500TIP3    H138059   6.206   0.887   7.869 -1.2960  0.6484 -0.7383
 5500TIP3    H238060   6.115   0.814   7.773  0.4961 -2.3416 -0.3056
 5501TIP3   OH238061   4.873   0.174   7.059  0.1931 -0.3711  0.3717
 5501TIP3    H138062   4.828   0.249   7.020 -2.7647 -1.4115  1.5238
 5501TIP3    H238063   4.911   0.127   6.984 -1.0462  0.3217 -0.7245
 5502TIP3   OH238064   5.562   5.943   1.354  0.0081  0.4036  0.6315
 5502TIP3    H138065   5.590   5.858   1.390 -0.5539 -0.5101 -0.9949
 5502TIP3    H238066   5.634   5.970   1.298 -1.3573 -0.9582 -1.9394
 5503TIP3   OH238067   0.840   2.128   1.173 -0.3917  0.1902 -0.7692
 5503TIP3    H138068   0.910   2.163   1.228 -0.3724 -2.0899  0.7643
 5503TIP3    H238069   0.884   2.066   1.114 -0.9801 -0.5528 -0.4384
 5504TIP3   OH238070   2.320   0.620   0.824 -0.4393  0.2146  0.3125
 5504TIP3    H138071   2.397   0.660   0.862 -0.3352 -0.7549  1.1584
 5504TIP3    H238072   2.258   0.692   0.813  0.0106  0.7237  1.0874
 5505TIP3   OH238073   1.829   3.768   0.975 -0.5533 -0.1428  0.7396
 5505TIP3    H138074   1.907   3.714   0.964 -1.7693 -1.4945 -2.5858
 5505TIP3    H238075   1.782   3.727   1.048  0.0598 -1.6983  0.3083
 5506TIP3   OH238076   3.314   2.172   6.842  0.5207 -0.1095  0.3115
 5506TIP3    H138077   3.328   2.092   6.793 -0.3708  0.0575 -0.2294
 5506TIP3    H238078   3.255   2.147   6.913  0.3260  0.0404  0.2042
 5507TIP3   OH238079   3.301   4.432   8.443 -0.1116  0.1962  0.7551
 5507TIP3    H138080   3.340   4.421   8.530 -1.6553  1.8897  1.7462
 5507TIP3    H238081   3.341   4.512   8.409 -1.5873  1.1493  1.1785
 5508TIP3   OH238082   3.085   4.223   2.221 -0.1682 -0.2775 -0.2112
 5508TIP3    H138083   3.083   4.213   2.317 -1.7860  0.5331 -0.1260
 5508TIP3    H238084   3.001   4.188   2.192 -0.4864  1.1737 -1.1286
 5509TIP3   OH238085   1.092   6.498   1.828  0.6486 -0.2700  0.1208
 5509TIP3    H138086   1.179   6.523   1.797 -0.2891 -0.6542 -3.2190
 5509TIP3    H238087   1.103   6.409   1.860  1.1966 -1.0053 -1.9850
 5510TIP3   OH238088   4.085   5.575   0.570 -0.1833 -0.0567  0.4783
 5510TIP3    H138089   4.170   5.584   0.612  0.9176 -1.2632 -1.3312
 5510TIP3    H238090   4.072   5.480   0.564 -0.6621  0.0841 -1.0951
 5511TIP3   OH238091   5.493   0.726   8.474 -0.3045  0.1641  0.3764
 5511TIP3    H138092   5.527   0.682   8.395 -0.0238  0.1570  0.5008
 5511TIP3    H238093   5.407   0.758   8.448 -1.2564 -1.9104  0.7679
 5512TIP3   OH238094   3.483   2.107   1.825  0.1823  0.0696 -0.2933
 5512TIP3    H138095   3.540   2.098   1.748  0.6822  1.2249 -0.0830
 5512TIP3    H238096   3.449   2.196   1.819 -0.0412  0.0532  0.6539
 5513TIP3   OH238097   4.906   2.155   0.035 -0.3229  0.1004 -0.1832
 5513TIP3    H138098   4.927   2.233   0.086 -1.7258  0.8551 -0.6786
 5513TIP3    H238099   4.862   2.097   0.097  0.7805 -0.3366  0.2024
 5514TIP3   OH238100   6.587   5.016   7.481 -0.4718  0.0520 -0.0237
 5514TIP3    H138101   6.583   5.111   7.488 -0.2888 -0.0176  1.2672
 5514TIP3    H238102   6.675   4.994   7.511 -0.3777 -0.5161 -0.6771
 5515TIP3   OH238103   2.487   6.305   0.373 -0.1602 -0.0626  0.2625
 5515TIP3    H138104   2.554   6.327   0.439 -0.2905 -2.2499  1.2179
 5515TIP3    H238105   2.518   6.345   0.292  1.7872 -0.1574  0.9198
 5516TIP3   OH238106   3.246   3.287   1.989  0.0295 -0.1810  0.1649
 5516TIP3    H138107   3.292   3.207   1.965  1.0498 -0.0700  1.6615
 5516TIP3    H238108   3.312   3.342   2.031 -1.2392  0.3682  1.5263
 5517TIP3   OH238109   3.794   6.855   3.054 -0.4715  0.0864  0.4791
 5517TIP3    H138110   3.848   6.851   2.975  0.2401  0.6730  0.9256
 5517TIP3    H238111   3.738   6.777   3.049  0.3195 -0.4621 -0.0632
 5518TIP3   OH238112   3.013   2.357   1.607 -0.0815 -0.8298 -0.5746
 5518TIP3    H138113   2.952   2.411   1.657 -3.0424 -2.5020 -2.1276
 5518TIP3    H238114   3.042   2.290   1.669 -1.8335 -1.4789 -0.4188
 5519TIP3   OH238115   4.230   3.017   8.045 -0.0078 -0.5502 -0.6361
 5519TIP3    H138116   4.239   2.931   8.086 -2.3859 -0.6603 -0.2039
 5519TIP3    H238117   4.135   3.035   8.046  0.2513  1.2986 -2.3103
 5520TIP3   OH238118   4.989   2.966   7.441  0.1254 -0.8830  0.1753
 5520TIP3    H138119   4.973   3.058   7.417  0.9682 -0.0609  2.4484
 5520TIP3    H238120   5.076   2.947   7.408  0.5762 -0.3290  1.0020
 5521TIP3   OH238121   3.348   0.605   0.044  0.2205  0.3494  0.3274
 5521TIP3    H138122   3.349   0.638  -0.046 -0.4299  1.4381  0.6924
 5521TIP3    H238123   3.339   0.684   0.098  1.3232 -0.2144  1.3931
 5522TIP3   OH238124   0.211   5.433   6.992  0.3041  0.3271  0.7112
 5522TIP3    H138125   0.279   5.413   7.056  1.0460 -0.6229 -0.3383
 5522TIP3    H238126   0.247   5.503   6.939  1.0645 -1.0437 -0.6707
 5523TIP3   OH238127   6.499   6.483   0.502 -0.0729  0.6320  0.0438
 5523TIP3    H138128   6.531   6.393   0.512 -1.1797  0.3092  1.0352
 5523TIP3    H238129   6.452   6.483   0.418 -2.5435 -0.5809  1.3090
 5524TIP3   OH238130   0.696   4.325   0.735  0.1584 -0.6170 -0.5115
 5524TIP3    H138131   0.613   4.365   0.762  1.6617  1.9055  0.7225
 5524TIP3    H238132   0.726   4.379   0.662  1.2018 -0.8298 -0.2537
 5525TIP3   OH238133   4.272   2.612   1.049 -0.7803  0.0846 -0.1548
 5525TIP3    H138134   4.344   2.643   1.104 -0.1255 -2.0868  0.3201
 5525TIP3    H238135   4.248   2.687   0.996  0.5819  1.4031  1.0013
 5526TIP3   OH238136   0.995   0.516   2.393 -0.2814 -0.1452 -0.2339
 5526TIP3    H138137   1.020   0.565   2.315  0.3629 -0.5832 -0.3172
 5526TIP3    H238138   0.990   0.425   2.364  3.7305 -0.9347  0.9401
 5527TIP3   OH238139   6.846   2.682   1.135  0.4636  0.1924  0.7524
 5527TIP3    H138140   6.929   2.674   1.182  0.3847 -0.8722  0.7333
 5527TIP3    H238141   6.871   2.675   1.042  0.2960 -0.7805  0.7706
 5528TIP3   OH238142   1.872   5.945   0.562 -0.3575  0.1475 -0.7894
 5528TIP3    H138143   1.924   6.003   0.618  0.4178 -1.8613  0.6721
 5528TIP3    H238144   1.883   5.981   0.474  0.9274  1.6160 -0.0749
 5529TIP3   OH238145   4.598   5.949   0.064  0.3997  0.1717  0.6636
 5529TIP3    H138146   4.541   5.904   0.002 -0.8965  1.1264  1.1178
 5529TIP3    H238147   4.543   5.965   0.141  1.8338 -0.5755  1.9135
 5530TIP3   OH238148   2.263   5.746   0.620  0.6948  0.5000  0.1290
 5530TIP3    H138149   2.324   5.752   0.547 -0.7065  1.2297 -1.0212
 5530TIP3    H238150   2.256   5.836   0.653  0.4490  0.3721  0.4335
 5531TIP3   OH238151   4.069   0.938   1.453  0.9511  0.9159  0.3771
 5531TIP3    H138152   4.121   1.018   1.462  0.3380  1.4964 -0.8366
 5531TIP3    H238153   3.982   0.963   1.483  0.7463  0.7290 -0.0441
 5532TIP3   OH238154   3.053   1.785   8.416  0.3705 -0.6918  0.0337
 5532TIP3    H138155   3.025   1.693   8.415  0.0318 -0.5904 -0.0835
 5532TIP3    H238156   3.077   1.801   8.507 -0.6314 -0.5921  0.3007
 5533TIP3   OH238157   1.535   4.524   7.164  0.3938 -0.6048 -0.0567
 5533TIP3    H138158   1.453   4.513   7.116  0.0563 -1.1970  0.6435
 5533TIP3    H238159   1.588   4.580   7.108 -0.7836  0.4512 -0.1478
 5534TIP3   OH238160   5.488   3.045   2.421 -0.8290 -0.0575  0.2535
 5534TIP3    H138161   5.462   3.131   2.453  0.0719 -0.1763  1.3623
 5534TIP3    H238162   5.575   3.030   2.459 -0.8101 -1.2968 -0.2203
 5535TIP3   OH238163   6.354   4.458   6.299 -0.0841  0.5924  0.5316
 5535TIP3    H138164   6.369   4.522   6.369 -0.9030  0.8474  0.4912
 5535TIP3    H238165   6.293   4.503   6.240  0.5399  0.3556 -0.3115
 5536TIP3   OH238166   4.848   1.209   1.894  0.0515 -0.5821 -0.4072
 5536TIP3    H138167   4.832   1.150   1.820 -1.5365  1.2120 -1.5961
 5536TIP3    H238168   4.802   1.169   1.967 -1.2659 -0.7217 -1.2736
 5537TIP3   OH238169   3.880   3.270   0.451  0.1552  0.2321  0.1130
 5537TIP3    H138170   3.787   3.293   0.441  0.0068 -0.1294  0.6150
 5537TIP3    H238171   3.881   3.174   0.447  0.2521  0.1127  1.9866
 5538TIP3   OH238172   4.293   0.188   0.193  0.5629  0.0160 -0.6656
 5538TIP3    H138173   4.219   0.242   0.166  0.7034  1.2950  1.3131
 5538TIP3    H238174   4.369   0.230   0.153  0.5764  0.8243  0.1752
 5539TIP3   OH238175   6.415   6.113   2.172 -0.4905 -0.0144  0.1862
 5539TIP3    H138176   6.473   6.037   2.177  1.3655  0.8906 -3.7910
 5539TIP3    H238177   6.443   6.169   2.245  1.1914 -1.2094  0.5244
 5540TIP3   OH238178   3.014   6.622   0.005  0.2043 -0.0450 -0.1211
 5540TIP3    H138179   3.043   6.673   0.081 -1.8722  0.5987  0.2928
 5540TIP3    H238180   3.036   6.677  -0.070 -3.1341  2.2524  0.3686
 5541TIP3   OH238181   6.215   1.679   0.007  0.0183 -0.0435  0.1661
 5541TIP3    H138182   6.167   1.662   0.088  0.0429 -0.2587  0.1357
 5541TIP3    H238183   6.295   1.723   0.034 -0.8980  1.7769  0.1066
 5542TIP3   OH238184   3.821   0.826   1.978 -0.2884  0.2520  0.7641
 5542TIP3    H138185   3.835   0.893   2.045 -0.0641  0.9108  0.0741
 5542TIP3    H238186   3.857   0.864   1.898  0.0363 -0.7807  0.3994
 5543TIP3   OH238187   5.024   3.333   2.549 -0.1394  0.3075 -0.1679
 5543TIP3    H138188   4.951   3.283   2.511 -0.0342  0.4631 -0.5810
 5543TIP3    H238189   4.984   3.385   2.619 -0.5406  0.8378 -0.7785
 5544TIP3   OH238190   1.560   0.672   2.223 -0.2055 -0.3661  0.8767
 5544TIP3    H138191   1.481   0.642   2.266 -0.3759 -1.7706 -0.3608
 5544TIP3    H238192   1.622   0.599   2.230  0.3891  0.0649  0.3483
 5545TIP3   OH238193   4.071   4.770   8.309 -0.0167  0.7246 -0.4667
 5545TIP3    H138194   3.976   4.776   8.304 -0.0397  0.3506 -0.5555
 5545TIP3    H238195   4.093   4.808   8.394 -0.0410  2.9053 -1.3643
 5546TIP3   OH238196   4.871   2.502   1.278 -0.1096  0.0984 -0.0783
 5546TIP3    H138197   4.905   2.580   1.234 -2.0900  1.3807  0.5268
 5546TIP3    H238198   4.926   2.493   1.356 -0.6042  1.6514  0.4841
 5547TIP3   OH238199   2.557   0.616   7.299 -0.6546  0.1248 -0.3199
 5547TIP3    H138200   2.593   0.695   7.257 -1.9996 -0.2344 -2.2928
 5547TIP3    H238201   2.539   0.643   7.389  1.6142  1.1911 -0.1265
 5548TIP3   OH238202   3.767   0.363   8.468 -0.2969 -0.0429 -0.0911
 5548TIP3    H138203   3.714   0.304   8.414  1.1699 -0.9230 -0.6258
 5548TIP3    H238204   3.852   0.319   8.475  0.7944  1.9142 -0.3437
 5549TIP3   OH238205   1.529   0.785   7.239  0.3647  0.0088  0.2624
 5549TIP3    H138206   1.499   0.720   7.174  1.5481 -0.7891  0.4869
 5549TIP3    H238207   1.569   0.854   7.186  1.5274 -0.7432  0.1054
 5550TIP3   OH238208   5.114   0.989   7.624  0.5832 -0.0736 -0.0065
 5550TIP3    H138209   5.055   1.062   7.605  0.7159  0.2752  0.8660
 5550TIP3    H238210   5.099   0.970   7.717  2.0176  0.1858  0.2949
 5551TIP3   OH238211   2.624   6.353   0.122  0.6862 -0.3598 -0.4534
 5551TIP3    H138212   2.680   6.402   0.063  1.6876  1.8266  2.1307
 5551TIP3    H238213   2.682   6.288   0.162  0.5885 -0.2108 -0.0717
 5552TIP3   OH238214   6.360   2.794   7.048  0.4425 -0.0317  0.5329
 5552TIP3    H138215   6.285   2.850   7.026  0.8304 -0.1497 -1.2709
 5552TIP3    H238216   6.328   2.737   7.118 -1.7199 -1.2191 -1.3000
 5553TIP3   OH238217   3.740   2.735   0.007 -0.5546  0.3587 -0.3022
 5553TIP3    H138218   3.787   2.763   0.085 -0.5360 -0.8250  0.1427
 5553TIP3    H238219   3.806   2.732  -0.062 -0.0213 -0.9265  0.2290
 5554TIP3   OH238220   6.874   2.528   1.860  0.2022  0.6626  0.0592
 5554TIP3    H138221   6.890   2.435   1.842 -1.8701  0.0249  1.2234
 5554TIP3    H238222   6.942   2.552   1.922  0.3686 -0.2550  0.2550
 5555TIP3   OH238223   6.681   1.347   6.201  0.2516  0.3401  0.4614
 5555TIP3    H138224   6.655   1.408   6.270 -0.9543  0.1651  0.1856
 5555TIP3    H238225   6.707   1.404   6.128  0.4304  0.5249  0.6677
 5556TIP3   OH238226   0.097   4.641   7.798 -0.3133 -0.5457 -0.2131
 5556TIP3    H138227   0.015   4.630   7.847  0.5209 -0.8391  1.1636
 5556TIP3    H238228   0.111   4.556   7.756 -1.5491  0.0044 -1.8693
 5557TIP3   OH238229   4.684   0.591   0.435  0.0973  0.6027 -0.1164
 5557TIP3    H138230   4.774   0.562   0.419 -0.3807 -1.2314  0.2485
 5557TIP3    H238231   4.642   0.582   0.349 -0.2546 -0.6493  0.1685
 5558TIP3   OH238232   0.719   1.371   8.091  0.0263 -0.0664 -0.0432
 5558TIP3    H138233   0.729   1.328   8.006 -1.5560 -3.1774  1.1795
 5558TIP3    H238234   0.809   1.387   8.120  0.6970 -1.5958 -1.1108
 5559TIP3   OH238235   3.895   4.790   7.181 -0.1272 -0.1028  0.1635
 5559TIP3    H138236   3.986   4.804   7.209  0.3857 -1.0024 -0.9773
 5559TIP3    H238237   3.874   4.702   7.213 -0.6944  0.1866  0.6150
 5560TIP3   OH238238   4.838   0.051   0.693  0.4663  0.0955 -0.6983
 5560TIP3    H138239   4.812   0.123   0.636 -1.6106 -0.4347 -0.5090
 5560TIP3    H238240   4.774   0.053   0.764  1.9137 -0.3745  0.6798
 5561TIP3   OH238241   6.233   0.402   1.875 -0.2728  0.0874 -0.3699
 5561TIP3    H138242   6.261   0.364   1.792 -0.4066  0.8883 -0.7845
 5561TIP3    H238243   6.230   0.496   1.859  1.3781  0.4233  1.0330
 5562TIP3   OH238244   5.762   1.212   1.272 -0.2167 -0.2031  0.0034
 5562TIP3    H138245   5.682   1.163   1.292 -0.1458 -0.4032 -0.1941
 5562TIP3    H238246   5.822   1.146   1.237 -0.4437  0.1910 -1.1543
 5563TIP3   OH238247   3.066   5.908   7.177  0.0513 -0.0053 -0.5285
 5563TIP3    H138248   3.049   5.848   7.104  2.3347 -2.1623  0.5740
 5563TIP3    H238249   3.062   5.853   7.255  0.1835  1.7239  0.7559
 5564TIP3   OH238250   6.691   0.380   6.795  0.0063 -0.7711  0.9418
 5564TIP3    H138251   6.606   0.363   6.836 -0.3836  0.0329  0.4834
 5564TIP3    H238252   6.726   0.455   6.845  0.1503 -0.6848  0.7098
 5565TIP3   OH238253   1.760   1.744   0.775 -0.2491 -0.4752  0.4495
 5565TIP3    H138254   1.702   1.728   0.849  1.4840 -1.1940  1.7196
 5565TIP3    H238255   1.831   1.797   0.811  0.1766 -0.0831 -0.9095
 5566TIP3   OH238256   1.802   0.895   0.952 -0.0139  0.5047 -0.4576
 5566TIP3    H138257   1.886   0.933   0.978 -1.0628  1.6909  1.4718
 5566TIP3    H238258   1.778   0.940   0.872  1.1781  0.1431 -1.0343
 5567TIP3   OH238259   0.271   0.689   1.600  0.0971 -0.6966 -0.0505
 5567TIP3    H138260   0.346   0.749   1.600  1.4202 -2.2693 -0.7985
 5567TIP3    H238261   0.297   0.619   1.660 -1.6510 -0.3018  1.2290
 5568TIP3   OH238262   5.184   0.182   1.242  0.1083 -0.1071  0.0721
 5568TIP3    H138263   5.192   0.197   1.337  0.4840 -1.4560  0.2728
 5568TIP3    H238264   5.130   0.104   1.234  1.1923 -0.7964 -0.7715
 5569TIP3   OH238265   1.078   0.988   7.528 -0.1475  0.4669  0.0608
 5569TIP3    H138266   1.160   0.964   7.570  0.3937 -0.2131 -1.3227
 5569TIP3    H238267   1.085   1.083   7.514 -0.0137  0.5696  0.7875
 5570TIP3   OH238268   4.908   0.777   0.928  0.0970 -0.1673 -0.6074
 5570TIP3    H138269   4.888   0.852   0.871  3.5821  0.6942 -0.8852
 5570TIP3    H238270   4.915   0.703   0.867 -0.4159 -0.1476 -0.7007
 5571TIP3   OH238271   1.879   2.811   7.869  0.1751 -0.4945  0.0025
 5571TIP3    H138272   1.903   2.785   7.958  2.4539 -1.8769 -0.9226
 5571TIP3    H238273   1.891   2.732   7.817 -0.9879  0.3192 -1.5776
 5572TIP3   OH238274   2.294   4.268   2.555  0.1546 -0.1714 -0.1683
 5572TIP3    H138275   2.204   4.299   2.545  0.6579  1.2607 -0.5401
 5572TIP3    H238276   2.348   4.341   2.525  1.5075 -0.2616  1.8457
 5573TIP3   OH238277   3.326   2.990   8.457  0.3008 -0.3458 -0.6430
 5573TIP3    H138278   3.278   2.939   8.391  0.1322 -1.5734  0.3663
 5573TIP3    H238279   3.382   3.049   8.407 -2.7150  1.6611 -1.9020
 5574TIP3   OH238280   5.977   3.347   7.278  0.1615 -0.2241 -0.4240
 5574TIP3    H138281   6.019   3.275   7.231  0.4641 -0.0444 -0.4338
 5574TIP3    H238282   5.895   3.361   7.231 -0.3532 -1.1938  0.1612
 5575TIP3   OH238283   5.192   2.348   8.421 -0.6674 -0.1883  0.2103
 5575TIP3    H138284   5.239   2.428   8.442 -1.2723 -0.0161  0.9293
 5575TIP3    H238285   5.257   2.293   8.378  0.6294 -0.5080  2.4134
 5576TIP3   OH238286   4.002   3.323   2.998 -0.4930  0.3656  0.3727
 5576TIP3    H138287   3.996   3.417   3.019  0.6914  0.3402  0.8979
 5576TIP3    H238288   3.938   3.311   2.928  0.4597  1.9196 -0.8589
 5577TIP3   OH238289   4.311   4.599   0.185 -0.2900  0.3884  0.0834
 5577TIP3    H138290   4.368   4.593   0.109  0.7287  0.7742  0.8019
 5577TIP3    H238291   4.297   4.508   0.212 -0.9206  0.2249 -0.7270
 5578TIP3   OH238292   1.315   0.626   2.335  0.3415  0.2374  0.2910
 5578TIP3    H138293   1.323   0.573   2.415 -1.4200 -1.1202 -0.3776
 5578TIP3    H238294   1.276   0.566   2.271 -0.8780  2.0818 -0.7636
 5579TIP3   OH238295   0.662   3.360   8.406  0.6610  0.7278 -0.2503
 5579TIP3    H138296   0.594   3.427   8.397  1.2439  1.5353  1.0883
 5579TIP3    H238297   0.744   3.409   8.403  1.1036  0.0504  0.4357
 5580TIP3   OH238298   3.893   3.641   6.730  0.1831 -0.3648 -0.2930
 5580TIP3    H138299   3.824   3.706   6.721  0.2195 -0.3982 -0.8730
 5580TIP3    H238300   3.889   3.591   6.649 -1.8616 -3.1009  1.3016
 5581TIP3   OH238301   5.800   3.658   7.401  0.3174 -0.2382  0.1763
 5581TIP3    H138302   5.880   3.609   7.419  0.3960 -0.3616 -0.4857
 5581TIP3    H238303   5.831   3.748   7.388  0.3874 -0.3423 -0.3867
 5582TIP3   OH238304   0.596   5.966   6.212  0.1456 -0.5466  0.2912
 5582TIP3    H138305   0.533   5.937   6.278 -1.0922  1.7826  0.2512
 5582TIP3    H238306   0.665   6.009   6.262 -0.1438  0.0855  0.1577
 5583TIP3   OH238307   0.525   3.982   1.346 -0.2412 -0.2633 -0.4226
 5583TIP3    H138308   0.445   3.971   1.295 -0.3218 -1.7116 -0.0385
 5583TIP3    H238309   0.500   4.038   1.419 -0.7312 -0.1701 -0.6546
 5584TIP3   OH238310   4.955   1.266   8.102 -0.1695  0.6527 -0.5279
 5584TIP3    H138311   5.041   1.299   8.076  0.1499 -1.4127 -2.3767
 5584TIP3    H238312   4.971   1.176   8.130 -1.2549  1.3364  2.6803
 5585TIP3   OH238313   6.627   3.004   0.904 -0.4475 -0.3177 -0.2869
 5585TIP3    H138314   6.698   2.940   0.901 -0.4238 -0.2748 -1.9777
 5585TIP3    H238315   6.669   3.088   0.886 -0.7606 -0.1253 -0.1315
 5586TIP3   OH238316   5.533   4.991   1.361  0.2782  0.2731 -0.2856
 5586TIP3    H138317   5.591   5.005   1.286  1.4963  0.2306  0.6217
 5586TIP3    H238318   5.588   4.948   1.426 -0.6029  0.7860  0.8270
 5587TIP3   OH238319   5.535   2.770   2.783 -0.3766 -0.2069  0.0586
 5587TIP3    H138320   5.500   2.689   2.820 -1.5876 -0.0359 -0.6414
 5587TIP3    H238321   5.531   2.756   2.689  0.7348  0.1413 -0.0463
 5588TIP3   OH238322   4.052   2.339   6.767  0.0834 -0.6760 -0.7289
 5588TIP3    H138323   4.000   2.403   6.717 -0.8368 -1.0828 -0.3085
 5588TIP3    H238324   4.041   2.257   6.719  0.7817 -0.6597 -0.9306
 5589TIP3   OH238325   4.584   1.305   1.680  0.0013  0.2521  0.3815
 5589TIP3    H138326   4.590   1.244   1.753 -1.5867  0.4772  0.7362
 5589TIP3    H238327   4.662   1.360   1.689  0.1035 -0.0529  1.6149
 5590TIP3   OH238328   3.842   6.883   8.474  0.3174 -0.2369 -0.1313
 5590TIP3    H138329   3.905   6.813   8.458 -0.8422 -0.9750 -1.7813
 5590TIP3    H238330   3.895   6.956   8.506  1.5261 -1.9035  1.9053
 5591TIP3   OH238331   1.071   0.496   0.079 -0.2680 -0.1919 -0.2120
 5591TIP3    H138332   0.978   0.513   0.095 -0.6249 -1.4098 -0.8746
 5591TIP3    H238333   1.117   0.562   0.132 -1.4952  1.5631 -1.2299
 5592TIP3   OH238334   5.935   6.238   0.294  0.0108 -0.0758  0.7805
 5592TIP3    H138335   5.850   6.195   0.299 -1.5685  1.7977 -3.9843
 5592TIP3    H238336   5.917   6.329   0.321  1.2855 -0.3061  2.5513
 5593TIP3   OH238337   2.627   0.459   1.165 -0.2568  0.4949 -0.0134
 5593TIP3    H138338   2.721   0.452   1.179 -0.0617 -0.5702 -1.5543
 5593TIP3    H238339   2.593   0.371   1.186 -0.2648 -0.4247 -3.3203
 5594TIP3   OH238340   6.689   5.747   0.750  0.3113  0.4243 -0.3132
 5594TIP3    H138341   6.706   5.729   0.658 -0.3646  0.3770 -0.4347
 5594TIP3    H238342   6.681   5.660   0.790 -1.4712  0.4265 -0.6158
 5595TIP3   OH238343   3.042   0.795   8.080  0.0878 -0.2128 -0.3963
 5595TIP3    H138344   2.995   0.712   8.090 -1.3304  0.6851  0.9159
 5595TIP3    H238345   3.022   0.843   8.161  2.2013  0.7694 -0.4038
 5596TIP3   OH238346   1.940   2.752   2.331  0.0364  0.3880  0.0437
 5596TIP3    H138347   1.868   2.791   2.381 -1.2130 -0.0130 -1.3843
 5596TIP3    H238348   1.926   2.783   2.242 -0.4941 -2.5798 -0.9881
 5597TIP3   OH238349   1.677   4.183   0.476  0.0443  0.2377  0.5822
 5597TIP3    H138350   1.590   4.152   0.449 -0.5641  1.4597  1.0621
 5597TIP3    H238351   1.679   4.167   0.571 -0.1867  1.4138  0.7921
 5598TIP3   OH238352   1.834   1.441   2.968 -0.2114  0.2174  0.1961
 5598TIP3    H138353   1.837   1.349   2.995 -1.4382  0.4177  1.0745
 5598TIP3    H238354   1.925   1.461   2.944  0.0244 -1.2968 -0.2994
 5599TIP3   OH238355   0.422   6.507   2.010  0.0193 -0.0058 -0.3647
 5599TIP3    H138356   0.426   6.412   2.023  0.2691  0.0025 -0.3774
 5599TIP3    H238357   0.414   6.543   2.099 -3.0981 -0.1631 -0.4566
 5600TIP3   OH238358   5.597   0.635   0.407 -0.4584  0.2347  0.0135
 5600TIP3    H138359   5.622   0.597   0.492 -0.8412 -0.4859 -0.1846
 5600TIP3    H238360   5.502   0.643   0.412 -0.3822  1.2143  0.0587
 5601TIP3   OH238361   6.227   4.577   7.995 -0.6900  0.8002 -0.1907
 5601TIP3    H138362   6.197   4.517   8.063  1.4504  1.2069  1.2100
 5601TIP3    H238363   6.151   4.588   7.937 -1.2302 -3.1039 -0.4784
 5602TIP3   OH238364   1.811   4.803   7.199 -0.5614 -0.0025  0.1908
 5602TIP3    H138365   1.808   4.832   7.290 -0.6877  0.5903 -0.0001
 5602TIP3    H238366   1.740   4.851   7.156 -0.3508 -0.1027 -0.2739
 5603TIP3   OH238367   1.540   0.357   2.012  0.3371  0.0392  1.5047
 5603TIP3    H138368   1.494   0.425   1.963 -1.0389 -2.1511 -0.4558
 5603TIP3    H238369   1.579   0.301   1.944  2.0507 -0.7400  3.0529
 5604TIP3   OH238370   4.516   4.876   0.575 -0.8845 -0.8354  0.3868
 5604TIP3    H138371   4.569   4.922   0.511  0.0377  0.7242  2.1708
 5604TIP3    H238372   4.576   4.814   0.616 -0.9590 -0.4910  1.0276
 5605TIP3   OH238373   1.519   6.098   8.652 -0.5953  0.4347 -0.1047
 5605TIP3    H138374   1.426   6.077   8.663 -0.6583  0.5064 -0.4852
 5605TIP3    H238375   1.563   6.047   8.720 -0.9579  0.7720  0.3905
 5606TIP3   OH238376   2.222   1.595   0.518 -0.3968  0.5327  0.3694
 5606TIP3    H138377   2.243   1.549   0.599 -2.2166  2.2107  1.9217
 5606TIP3    H238378   2.128   1.579   0.505 -0.3439  1.1074 -0.8607
 5607TIP3   OH238379   4.405   4.250   2.735 -0.4245 -0.2142  0.2581
 5607TIP3    H138380   4.356   4.282   2.811  0.8928 -0.4733  1.2770
 5607TIP3    H238381   4.429   4.329   2.687 -0.0540  0.0916  0.9213
 5608TIP3   OH238382   6.497   2.234   1.366 -0.0664 -0.3547  0.2248
 5608TIP3    H138383   6.492   2.327   1.391 -1.8094 -1.0680  2.9649
 5608TIP3    H238384   6.408   2.211   1.340  0.1654 -1.4539  0.3692
 5609TIP3   OH238385   1.117   0.047   2.031  0.3549 -0.4107  0.0774
 5609TIP3    H138386   1.044  -0.013   2.023  0.7354 -1.0457  1.1344
 5609TIP3    H238387   1.083   0.119   2.086  0.3723 -0.4571  0.1494
 5610TIP3   OH238388   0.929   6.457   7.763  0.1364 -0.3343  0.4710
 5610TIP3    H138389   1.020   6.442   7.788  0.0030 -1.1154  0.5123
 5610TIP3    H238390   0.884   6.471   7.846  0.0847 -0.7333  0.5138
 5611TIP3   OH238391   6.616   3.121   1.600 -0.1075  0.4251 -0.2254
 5611TIP3    H138392   6.542   3.146   1.655  0.6802 -0.2296  1.2066
 5611TIP3    H238393   6.658   3.050   1.649  0.7374 -0.0555 -1.6106
 5612TIP3   OH238394   4.839   4.580   1.993  0.5319  0.6373 -0.1392
 5612TIP3    H138395   4.778   4.507   1.979 -0.0348  1.0626  0.0791
 5612TIP3    H238396   4.846   4.622   1.907  0.6800  0.4714 -0.2107
 5613TIP3   OH238397   2.583   6.281   1.921 -0.0450 -0.0917  0.7816
 5613TIP3    H138398   2.611   6.229   1.996 -0.5364 -0.0665  0.9867
 5613TIP3    H238399   2.525   6.223   1.872  0.5230 -0.2191  0.2414
 5614TIP3   OH238400   4.160   0.617   0.978 -0.0093  0.1250 -0.3877
 5614TIP3    H138401   4.102   0.578   0.912 -0.3455  0.9228 -0.5761
 5614TIP3    H238402   4.157   0.555   1.051 -0.9860  0.0737 -0.4504
 5615TIP3   OH238403   4.031   0.289   0.154  0.2733  0.2896  0.2568
 5615TIP3    H138404   4.064   0.362   0.206 -1.4102  0.9146  0.5288
 5615TIP3    H238405   3.955   0.258   0.203  0.3004 -0.9231 -0.4352
 5616TIP3   OH238406   2.034   4.601   8.452  0.2240 -0.3190  0.3538
 5616TIP3    H138407   2.126   4.602   8.424  0.5138 -1.8997  1.0899
 5616TIP3    H238408   2.036   4.627   8.544 -0.5918  3.6807 -0.5916
 5617TIP3   OH238409   5.859   5.307   8.093  0.3596 -0.0050 -0.0451
 5617TIP3    H138410   5.901   5.380   8.047  0.9337  0.1420  0.6925
 5617TIP3    H238411   5.907   5.300   8.175 -1.5068  0.6220  1.1649
 5618TIP3   OH238412   4.159   6.066   2.226  0.2205  0.1633  0.0033
 5618TIP3    H138413   4.201   6.040   2.144 -0.6359  0.1815 -0.4477
 5618TIP3    H238414   4.093   6.130   2.201  2.2926  2.9345  1.0781
 5619TIP3   OH238415   2.583   2.284   1.876  0.1703 -0.2513 -0.8607
 5619TIP3    H138416   2.564   2.330   1.795  0.1907  1.2783 -0.0283
 5619TIP3    H238417   2.660   2.328   1.912  0.9152 -1.6980 -0.5984
 5620TIP3   OH238418   1.891   4.247   8.562 -0.2652  0.0573  0.3634
 5620TIP3    H138419   1.931   4.206   8.638 -1.0348 -0.8979  0.2587
 5620TIP3    H238420   1.813   4.196   8.544  0.7145 -0.7368 -2.0407
 5621TIP3   OH238421   0.879   4.558   2.082 -0.5131 -0.4692  0.3562
 5621TIP3    H138422   0.961   4.584   2.041 -0.3994 -2.8170 -1.0718
 5621TIP3    H238423   0.819   4.630   2.062  0.8048  0.6527  0.2453
 5622TIP3   OH238424   1.700   4.018   0.254 -0.4082  1.1668 -0.4514
 5622TIP3    H138425   1.722   4.047   0.343 -0.3246 -2.2894  0.8093
 5622TIP3    H238426   1.776   4.043   0.202  0.1088  2.1451  0.7117
 5623TIP3   OH238427   0.620   5.401   1.158  0.2170 -0.2883  0.5778
 5623TIP3    H138428   0.691   5.462   1.137  0.1224 -0.1634  0.6274
 5623TIP3    H238429   0.604   5.355   1.076  0.6552 -0.6248  0.6711
 5624TIP3   OH238430   3.574   6.432   0.423 -0.3249  0.1113  0.3843
 5624TIP3    H138431   3.557   6.367   0.492 -1.7505  2.8029  2.8154
 5624TIP3    H238432   3.663   6.413   0.394  0.2199 -1.4362  2.7077
 5625TIP3   OH238433   0.134   4.192   8.161 -0.1991  0.0572 -0.0695
 5625TIP3    H138434   0.155   4.110   8.117 -0.1302  0.3529 -0.6074
 5625TIP3    H238435   0.159   4.179   8.252  1.9965  0.2495 -0.5949
 5626TIP3   OH238436   4.583   0.895   1.732 -0.3664  0.1261 -0.6560
 5626TIP3    H138437   4.638   0.913   1.655  0.9561 -0.6970  0.0571
 5626TIP3    H238438   4.590   0.974   1.785  1.7051 -0.6224  0.3043
 5627TIP3   OH238439   3.762   0.082   7.834  0.4051 -0.2701 -0.3573
 5627TIP3    H138440   3.779   0.171   7.866  0.9170  0.1092 -1.6258
 5627TIP3    H238441   3.683   0.055   7.880  1.7949 -0.2898  2.2270
 5628TIP3   OH238442   0.496   4.474   0.818  0.8627 -0.5191 -0.0508
 5628TIP3    H138443   0.531   4.522   0.893  2.1163 -0.4956 -0.6323
 5628TIP3    H238444   0.421   4.525   0.790  1.8206  0.7948 -0.2894
 5629TIP3   OH238445   3.962   1.945   0.404  0.2777  0.3837 -0.2123
 5629TIP3    H138446   3.874   1.959   0.369  0.5600  0.7864 -0.7655
 5629TIP3    H238447   3.953   1.868   0.460 -1.2834  2.5627  2.7778
 5630TIP3   OH238448   1.947   5.541   7.603  0.2280 -0.0555  0.0682
 5630TIP3    H138449   1.960   5.623   7.649 -0.1059  1.6914 -2.7402
 5630TIP3    H238450   1.857   5.515   7.625  0.8572 -0.6060  2.2256
 5631TIP3   OH238451   2.953   1.484   7.975  0.2899  0.2443  0.2824
 5631TIP3    H138452   3.019   1.415   7.977  1.0966  0.9663 -0.7131
 5631TIP3    H238453   2.871   1.438   7.960  1.0007 -0.4272 -1.9961
 5632TIP3   OH238454   1.793   1.174   0.444 -0.4242  0.1568 -0.2571
 5632TIP3    H138455   1.732   1.170   0.371  1.0610 -0.2400 -1.5268
 5632TIP3    H238456   1.755   1.239   0.504 -1.8585  0.2103 -1.1803
 5633TIP3   OH238457   6.335   0.850   1.576  0.2486  0.1920 -0.4540
 5633TIP3    H138458   6.333   0.910   1.501  1.2552  0.6491 -0.1369
 5633TIP3    H238459   6.256   0.871   1.625 -1.7102 -1.7362 -2.5622
 5634TIP3   OH238460   3.776   1.472   8.394 -0.0172  0.0138  0.3202
 5634TIP3    H138461   3.687   1.440   8.412 -0.8736  1.4963 -0.9766
 5634TIP3    H238462   3.819   1.399   8.349 -0.7857 -0.5055  0.4082
 5635TIP3   OH238463   0.368   0.442   6.886 -0.0229  0.0079  0.2920
 5635TIP3    H138464   0.294   0.383   6.869 -0.0221 -0.4930  1.8661
 5635TIP3    H238465   0.346   0.522   6.838 -1.1931 -0.4262  0.0587
 5636TIP3   OH238466   1.986   5.665   1.110 -0.2991 -0.2408  0.7975
 5636TIP3    H138467   1.951   5.737   1.163  2.2546  0.3788  1.7826
 5636TIP3    H238468   1.972   5.693   1.019  0.2452  1.3354  1.1642
 5637TIP3   OH238469   5.924   0.451   0.159  0.1122  0.1391 -1.0445
 5637TIP3    H138470   6.009   0.478   0.125  1.0377  1.5073  1.9683
 5637TIP3    H238471   5.877   0.533   0.175 -0.6937 -0.4535 -0.2407
 5638TIP3   OH238472   0.037   2.517   7.931  0.8210  0.0889 -0.6000
 5638TIP3    H138473   0.065   2.550   8.016  0.3405  0.8270 -0.7192
 5638TIP3    H238474   0.118   2.512   7.880  1.0418  0.1249 -0.2553
 5639TIP3   OH238475   5.416   1.535   0.392  0.4062  0.2060 -0.1343
 5639TIP3    H138476   5.457   1.587   0.323 -1.6188 -0.4938 -1.9753
 5639TIP3    H238477   5.380   1.600   0.453  0.8432  0.8708 -0.5713
 5640TIP3   OH238478   6.227   6.671   8.157  0.1629 -0.0653 -0.1632
 5640TIP3    H138479   6.228   6.624   8.240 -0.0566  0.3896  0.1034
 5640TIP3    H238480   6.314   6.658   8.121  0.4636  0.2321  0.4324
 5641TIP3   OH238481   5.242   3.895   0.114  0.2003  0.3710  0.0976
 5641TIP3    H138482   5.181   3.903   0.041 -0.5182 -1.3056  0.4696
 5641TIP3    H238483   5.201   3.832   0.173  0.1603  2.6055  2.6151
 5642TIP3   OH238484   3.549   5.845   8.134 -0.1267 -0.0575  0.9702
 5642TIP3    H138485   3.523   5.924   8.182 -2.0126  1.1166 -1.7822
 5642TIP3    H238486   3.495   5.775   8.171 -1.1183  0.6939  0.9713
 5643TIP3   OH238487   0.287   2.412   7.235  0.2007 -0.2887 -0.0225
 5643TIP3    H138488   0.348   2.383   7.166  0.1879 -0.2647 -0.0435
 5643TIP3    H238489   0.201   2.386   7.203  0.0204  1.0778 -0.7341
 5644TIP3   OH238490   5.388   4.560   7.718  0.2727  0.2697  0.5077
 5644TIP3    H138491   5.335   4.508   7.658 -0.1647 -0.6593  1.6602
 5644TIP3    H238492   5.477   4.525   7.708  0.3081  0.4966  0.0074
 5645TIP3   OH238493   2.098   3.017   2.083  0.4221  0.1591 -0.4983
 5645TIP3    H138494   2.101   3.109   2.106  0.0980  0.4155 -1.4326
 5645TIP3    H238495   2.143   3.012   1.998 -1.1499 -0.2415 -1.3544
 5646TIP3   OH238496   4.608   1.453   3.106  0.1862  0.1856  0.4427
 5646TIP3    H138497   4.531   1.396   3.107 -0.0917  0.4997 -0.9833
 5646TIP3    H238498   4.680   1.395   3.082  0.2412  0.0668  0.8885
 5647TIP3   OH238499   0.788   5.085   0.205 -0.0391  0.2069 -0.1182
 5647TIP3    H138500   0.838   5.122   0.133 -1.6580  0.4588 -1.1782
 5647TIP3    H238501   0.773   4.994   0.180 -0.3863  0.2234  0.0149
 5648TIP3   OH238502   0.366   3.943   2.687 -0.2670 -0.1026  0.2326
 5648TIP3    H138503   0.282   3.988   2.678 -1.0116 -1.3573  0.5587
 5648TIP3    H238504   0.359   3.868   2.628  0.6904 -0.1430  0.1559
 5649TIP3   OH238505   2.773   6.507   1.916 -0.0187  0.4067  0.1132
 5649TIP3    H138506   2.861   6.470   1.912 -0.0009  0.5179 -0.6058
 5649TIP3    H238507   2.719   6.438   1.955  0.0514 -0.3185 -1.0275
 5650TIP3   OH238508   3.869   4.908   1.730  0.7283  0.1162  0.2627
 5650TIP3    H138509   3.812   4.904   1.806 -2.0708 -0.8274 -1.7149
 5650TIP3    H238510   3.912   4.822   1.728  0.9510  0.2080  0.8169
 5651TIP3   OH238511   6.566   5.392   2.080 -0.0149  0.0071 -0.1982
 5651TIP3    H138512   6.638   5.377   2.019 -1.2257 -0.0424 -1.6797
 5651TIP3    H238513   6.528   5.305   2.094  1.1588 -0.2441  1.8903
 5652TIP3   OH238514   5.880   4.027   7.003 -0.3927 -0.3041 -0.2653
 5652TIP3    H138515   5.951   3.983   6.956 -0.1322 -0.2913  0.1057
 5652TIP3    H238516   5.837   3.958   7.053  0.5592 -0.0314  0.9952
 5653TIP3   OH238517   3.788   2.592   2.286  0.9765  0.3880 -0.2427
 5653TIP3    H138518   3.838   2.552   2.215  0.7564  1.5558 -1.1040
 5653TIP3    H238519   3.830   2.562   2.366  0.1331 -2.4398 -0.7561
 5654TIP3   OH238520   0.780   1.877   1.526 -0.1252 -0.0832 -0.2379
 5654TIP3    H138521   0.692   1.882   1.489  0.3249  0.3351 -1.2715
 5654TIP3    H238522   0.796   1.965   1.561  0.0653 -0.0344 -0.4542
 5655TIP3   OH238523   0.143   1.872   0.756 -0.0259 -0.2638  0.0017
 5655TIP3    H138524   0.113   1.889   0.667 -1.3936 -2.9781 -0.1617
 5655TIP3    H238525   0.228   1.830   0.745  1.0370  1.7275  0.1707
 5656TIP3   OH238526   5.802   5.125   1.753 -0.1870 -0.2213  0.0107
 5656TIP3    H138527   5.769   5.172   1.830 -1.4018  0.5341 -0.9212
 5656TIP3    H238528   5.885   5.168   1.733 -0.6871  0.7355 -0.0902
 5657TIP3   OH238529   2.641   3.475   7.629 -0.0288  0.3416 -0.1270
 5657TIP3    H138530   2.553   3.475   7.591 -0.3805 -2.7573  0.4603
 5657TIP3    H238531   2.693   3.421   7.570  0.2413 -1.7751  1.9169
 5658TIP3   OH238532   0.423   5.220   8.613  0.1336 -0.4215  0.5260
 5658TIP3    H138533   0.448   5.181   8.697  0.6044 -0.2851  0.4559
 5658TIP3    H238534   0.368   5.154   8.571 -0.6072 -0.2401  1.1966
 5659TIP3   OH238535   0.908   5.126   0.983  0.4869 -0.1632  0.1929
 5659TIP3    H138536   0.981   5.153   1.039  0.4345  2.6558 -0.9529
 5659TIP3    H238537   0.946   5.065   0.921  0.9085 -2.0149  2.1572
 5660TIP3   OH238538   5.666   5.107   8.318  0.1092  0.2234  0.2373
 5660TIP3    H138539   5.672   5.077   8.408 -0.3274 -2.1499 -0.4621
 5660TIP3    H238540   5.615   5.188   8.323  0.7887  0.5727  2.1723
 5661TIP3   OH238541   2.115   4.737   1.945  1.1153  0.1083 -0.3436
 5661TIP3    H138542   2.204   4.717   1.973  0.4713 -0.3087  1.4851
 5661TIP3    H238543   2.125   4.812   1.886  2.6374  0.2736  0.0902
 5662TIP3   OH238544   6.653   3.066   7.808 -0.3846 -0.2461  0.4222
 5662TIP3    H138545   6.715   2.995   7.828  0.7994  0.9467  1.1642
 5662TIP3    H238546   6.626   3.048   7.717  1.8660 -0.2636 -0.3117
 5663TIP3   OH238547   1.990   1.256   6.713 -0.1289 -0.0337  0.0331
 5663TIP3    H138548   2.084   1.239   6.716 -0.0287  0.3167 -0.7700
 5663TIP3    H238549   1.951   1.185   6.764  0.3944 -1.7686 -1.8468
 5664TIP3   OH238550   6.212   1.394   7.895 -0.5906 -0.4012 -0.2849
 5664TIP3    H138551   6.235   1.427   7.981 -3.3244  0.7914  0.1125
 5664TIP3    H238552   6.138   1.335   7.911  0.4860 -2.2046 -1.6020
 5665TIP3   OH238553   6.333   6.554   8.390  0.1713  0.2019  0.5563
 5665TIP3    H138554   6.379   6.620   8.442 -0.3306  2.5629 -1.8131
 5665TIP3    H238555   6.388   6.476   8.397  1.6910  1.3319  2.0968
 5666TIP3   OH238556   6.726   5.720   7.330 -1.4292  0.5144  0.0054
 5666TIP3    H138557   6.707   5.670   7.250  0.5693 -1.6896  0.7938
 5666TIP3    H238558   6.728   5.811   7.302 -2.5411 -0.0381 -2.0754
 5667TIP3   OH238559   3.657   2.102   1.538 -0.3971 -0.0107  0.1712
 5667TIP3    H138560   3.594   2.122   1.468 -0.1149  0.6318  0.0852
 5667TIP3    H238561   3.660   2.007   1.541 -1.2545 -0.0491  0.0722
 5668TIP3   OH238562   1.531   5.534   0.200  0.0061 -0.7476  0.2436
 5668TIP3    H138563   1.441   5.509   0.177 -0.3460  0.9091 -0.3016
 5668TIP3    H238564   1.579   5.451   0.199 -1.7326 -1.8591  1.7330
 5669TIP3   OH238565   4.427   2.536   1.639 -0.1003 -0.1090 -0.7881
 5669TIP3    H138566   4.522   2.527   1.644 -0.2848 -3.1560 -0.6156
 5669TIP3    H238567   4.399   2.460   1.588 -2.6174 -0.7135  1.2919
 5670TIP3   OH238568   1.789   4.562   2.357 -0.1513  0.3949  0.3478
 5670TIP3    H138569   1.781   4.644   2.406 -0.5866 -0.6217  2.1096
 5670TIP3    H238570   1.795   4.495   2.426  1.5297 -0.9369 -1.0226
 5671TIP3   OH238571   6.337   2.998   0.045  0.2989 -0.3492 -0.4557
 5671TIP3    H138572   6.375   3.014   0.131 -1.5494  1.0948  0.1487
 5671TIP3    H238573   6.395   3.043  -0.016 -0.4592  2.0242  0.4617
 5672TIP3   OH238574   0.089   1.080   6.942 -0.4335 -0.2954  0.0977
 5672TIP3    H138575   0.112   0.994   6.976 -1.8865  0.0287  2.1443
 5672TIP3    H238576   0.157   1.138   6.977 -0.8003 -0.2767  0.8126
 5673TIP3   OH238577   4.780   6.206   0.369 -0.0562  0.0170 -0.4747
 5673TIP3    H138578   4.733   6.140   0.421  0.5168 -1.3418 -1.6268
 5673TIP3    H238579   4.714   6.272   0.349 -0.7181 -0.3294  0.4768
 5674TIP3   OH238580   6.750   4.074   1.072 -0.3561  0.1693  0.2337
 5674TIP3    H138581   6.803   4.108   1.000 -1.2136 -2.5637 -1.8632
 5674TIP3    H238582   6.813   4.047   1.139  0.4744  2.4552  0.4576
 5675TIP3   OH238583   5.299   5.443   1.633 -0.2942 -0.4990  0.2389
 5675TIP3    H138584   5.225   5.392   1.665 -0.1202 -0.6919  0.3351
 5675TIP3    H238585   5.265   5.532   1.623 -0.9996 -0.9056 -1.2815
 5676TIP3   OH238586   1.580   4.392   2.829  0.3428  0.0994 -0.1160
 5676TIP3    H138587   1.613   4.432   2.909 -0.7177  1.7188 -0.4250
 5676TIP3    H238588   1.603   4.300   2.836  0.9289  0.3461  1.6919
 5677TIP3   OH238589   4.060   4.980   1.381  0.5555 -0.0311  0.4267
 5677TIP3    H138590   4.002   4.967   1.306  0.6892  0.2816  0.2661
 5677TIP3    H238591   4.036   5.066   1.415  2.4469  1.1505 -1.0158
 5678TIP3   OH238592   2.461   1.203   1.520 -0.6364  0.0402 -0.1345
 5678TIP3    H138593   2.378   1.230   1.561  0.2455  2.2049  0.4051
 5678TIP3    H238594   2.529   1.235   1.580  0.6354  0.4787 -1.7304
 5679TIP3   OH238595   1.881   6.456   7.725 -0.5176 -0.5496  0.0605
 5679TIP3    H138596   1.870   6.448   7.630  0.8958  0.0688 -0.1732
 5679TIP3    H238597   1.838   6.538   7.747  0.1342 -0.1217 -0.2326
 5680TIP3   OH238598   5.627   2.290   2.096 -0.0651  0.0209 -0.8254
 5680TIP3    H138599   5.678   2.368   2.077 -0.4466  0.0701 -1.6863
 5680TIP3    H238600   5.656   2.263   2.184  0.3584  0.8851 -0.6903
 5681TIP3   OH238601   0.107   2.954   1.395  0.4245 -0.3196  0.4769
 5681TIP3    H138602   0.024   2.965   1.350  0.6520 -1.5452 -0.2828
 5681TIP3    H238603   0.173   2.976   1.330  0.7196  0.3407  0.9816
 5682TIP3   OH238604   3.066   3.261   0.534  0.3334  0.6104 -0.1314
 5682TIP3    H138605   3.044   3.184   0.587  0.2442  1.0211  0.4328
 5682TIP3    H238606   3.048   3.234   0.444 -1.7525  0.6541  0.2211
 5683TIP3   OH238607   3.441   1.500   0.264 -0.1583  0.1069 -0.1421
 5683TIP3    H138608   3.534   1.507   0.241 -0.0582  2.1455  0.6152
 5683TIP3    H238609   3.422   1.406   0.260  1.8677 -0.3392 -0.5490
 5684TIP3   OH238610   1.477   1.232   2.361  0.0399  0.1704 -0.0610
 5684TIP3    H138611   1.455   1.282   2.440 -1.8778  1.2568 -1.2170
 5684TIP3    H238612   1.572   1.218   2.368 -0.2248 -0.9065  3.0240
 5685TIP3   OH238613   4.654   5.024   0.404  0.3061  0.1475 -0.8470
 5685TIP3    H138614   4.681   5.092   0.466 -0.3818 -0.2593 -0.0794
 5685TIP3    H238615   4.643   5.070   0.321  0.1357  0.9201 -0.4054
 5686TIP3   OH238616   3.445   1.907   2.267 -0.2818  0.0171 -0.2108
 5686TIP3    H138617   3.407   1.887   2.353  0.2734  1.3819  0.3771
 5686TIP3    H238618   3.528   1.860   2.265  0.2801  0.9427  0.5211
 5687TIP3   OH238619   6.039   5.222   1.654 -0.0046  0.5759 -0.3195
 5687TIP3    H138620   6.132   5.200   1.650  0.4443  2.4597 -1.7218
 5687TIP3    H238621   6.036   5.307   1.698 -1.0800  0.5309 -0.2597
 5688TIP3   OH238622   1.359   0.124   7.713 -0.1438  0.1830  0.3393
 5688TIP3    H138623   1.354   0.034   7.682 -0.2193  0.5041 -0.6214
 5688TIP3    H238624   1.315   0.175   7.644  0.5142  1.0246  0.5279
 5689TIP3   OH238625   3.613   2.512   8.165  0.0315 -0.2829 -0.3066
 5689TIP3    H138626   3.681   2.517   8.233 -2.2015  1.8671  1.9922
 5689TIP3    H238627   3.575   2.425   8.176  1.7091 -1.1459 -0.9857
 5690TIP3   OH238628   6.888   2.072   0.898 -0.2858 -0.7081  0.2439
 5690TIP3    H138629   6.940   1.997   0.868 -1.3422 -1.0157 -0.9215
 5690TIP3    H238630   6.866   2.120   0.818  1.6084  1.7603  1.0597
 5691TIP3   OH238631   6.019   2.152   2.475  0.3096  0.2922 -0.0890
 5691TIP3    H138632   5.959   2.154   2.550  1.1900  0.3992  0.6257
 5691TIP3    H238633   6.100   2.191   2.508  1.5053 -1.7990 -0.3860
 5692TIP3   OH238634   2.626   1.938   1.118  0.2056  1.0051  0.7463
 5692TIP3    H138635   2.632   1.994   1.040  2.5624 -1.2103 -0.8388
 5692TIP3    H238636   2.702   1.963   1.171  0.9452 -0.2165  0.3024
 5693TIP3   OH238637   5.005   3.175   0.904 -0.2425 -0.2736 -0.2182
 5693TIP3    H138638   5.059   3.120   0.848 -0.3703 -0.1851 -0.4307
 5693TIP3    H238639   4.932   3.202   0.848 -1.1584 -1.3647  0.4041
 5694TIP3   OH238640   4.298   5.829   7.703 -0.6844 -0.4969 -0.0233
 5694TIP3    H138641   4.307   5.817   7.609  0.0886  1.2935 -0.2139
 5694TIP3    H238642   4.216   5.783   7.726 -0.7479 -1.1622 -1.4924
 5695TIP3   OH238643   4.754   0.691   1.894  0.1793 -0.1747  0.0012
 5695TIP3    H138644   4.791   0.620   1.945  1.5224  1.2349  1.1009
 5695TIP3    H238645   4.740   0.654   1.806 -3.3105 -3.0410  1.5223
 5696TIP3   OH238646   4.295   4.313   0.337  0.7452  0.2478 -0.3055
 5696TIP3    H138647   4.350   4.251   0.384  1.2367  1.9842  1.5383
 5696TIP3    H238648   4.210   4.310   0.383  0.7604  0.8762 -0.2187
 5697TIP3   OH238649   3.495   3.835   1.911 -0.1394  0.4952 -0.0719
 5697TIP3    H138650   3.476   3.832   2.004 -1.0263  0.9458 -0.2300
 5697TIP3    H238651   3.499   3.929   1.890 -1.5504  0.4122 -0.7882
 5698TIP3   OH238652   5.063   4.549   8.079 -0.2717  0.2608 -0.2474
 5698TIP3    H138653   5.125   4.620   8.089  0.8285 -0.7427  0.2683
 5698TIP3    H238654   5.029   4.534   8.168 -0.3132 -0.0161 -0.3080
 5699TIP3   OH238655   0.586   5.378   6.565 -0.2798  0.1884 -0.1962
 5699TIP3    H138656   0.552   5.313   6.626 -0.8721 -2.1578 -2.7994
 5699TIP3    H238657   0.681   5.373   6.575 -0.3795  0.3302  0.9363
 5700TIP3   OH238658   6.330   4.357   1.817  0.4532 -0.0876  0.6233
 5700TIP3    H138659   6.324   4.408   1.736 -0.9088 -1.3576 -0.1239
 5700TIP3    H238660   6.393   4.288   1.797 -0.2352 -0.6827  0.4550
 5701TIP3   OH238661   2.050   5.587   8.111 -0.5304  0.1135  0.8466
 5701TIP3    H138662   2.135   5.584   8.156 -0.3072  3.6761  0.9196
 5701TIP3    H238663   1.986   5.569   8.179  0.0731 -2.4081  0.8334
 5702TIP3   OH238664   4.541   6.218   1.743  0.0953  0.0015  0.2682
 5702TIP3    H138665   4.512   6.196   1.832  0.2134 -1.7395 -0.1068
 5702TIP3    H238666   4.506   6.148   1.688  1.4982  0.1217 -0.8168
 5703TIP3   OH238667   3.222   3.705   2.336 -0.1412  0.2885  0.0859
 5703TIP3    H138668   3.142   3.748   2.365  0.5476  1.7204 -0.0679
 5703TIP3    H238669   3.192   3.624   2.293 -1.3296 -0.6472  2.4935
 5704TIP3   OH238670   1.339   3.801   2.746 -0.9176  0.1460  0.5177
 5704TIP3    H138671   1.354   3.879   2.799 -2.3475  0.8088 -0.0210
 5704TIP3    H238672   1.422   3.786   2.701 -1.2945  2.7323 -1.1773
 5705TIP3   OH238673   1.448   3.539   0.197 -0.1027 -0.6251 -0.1714
 5705TIP3    H138674   1.542   3.520   0.197 -0.5945 -3.4797  0.0548
 5705TIP3    H238675   1.433   3.581   0.112  1.3642  0.0017 -0.1607
 5706TIP3   OH238676   5.548   6.400   1.629  0.0853 -0.1002 -0.1078
 5706TIP3    H138677   5.555   6.381   1.723 -0.5025  1.0319  0.1884
 5706TIP3    H238678   5.511   6.320   1.591 -0.1365 -0.3983  0.7105
 5707TIP3   OH238679   4.417   4.855   1.079  0.0135 -0.1476  0.0412
 5707TIP3    H138680   4.434   4.877   1.171  1.1015 -0.1383 -0.1436
 5707TIP3    H238681   4.329   4.888   1.062  0.2866  0.9945  0.7298
 5708TIP3   OH238682   0.870   6.483   7.183  0.3096 -0.3135 -0.2909
 5708TIP3    H138683   0.850   6.440   7.100 -1.4354 -2.0018  0.8896
 5708TIP3    H238684   0.962   6.465   7.198  0.7322  0.2850 -1.9825
 5709TIP3   OH238685   1.371   1.218   2.867 -0.2515 -0.4281  0.4180
 5709TIP3    H138686   1.396   1.129   2.892 -0.2170 -0.2664  0.9672
 5709TIP3    H238687   1.353   1.262   2.950  1.1725  0.5074  0.2550
 5710TIP3   OH238688   4.295   3.249   7.568 -0.3978 -0.0820  0.0573
 5710TIP3    H138689   4.380   3.242   7.525  2.0661  3.8216  3.5510
 5710TIP3    H238690   4.296   3.181   7.635 -0.4019 -0.5201 -0.3804
 5711TIP3   OH238691   6.662   3.393   1.634 -0.1290 -0.3435 -0.6289
 5711TIP3    H138692   6.676   3.394   1.729 -0.8071 -0.5282 -0.5208
 5711TIP3    H238693   6.738   3.347   1.599 -0.1327 -0.7410 -0.1242
 5712TIP3   OH238694   4.343   4.688   7.362 -0.1350 -0.5118 -0.6754
 5712TIP3    H138695   4.373   4.641   7.284  1.8428 -0.3046 -0.1019
 5712TIP3    H238696   4.416   4.746   7.384 -1.7447  1.5134 -0.2847
 5713TIP3   OH238697   1.134   2.064   8.412  0.3455  0.1241  0.2510
 5713TIP3    H138698   1.051   2.031   8.448  1.0295 -0.4493  1.3679
 5713TIP3    H238699   1.114   2.083   8.321 -0.8915 -0.5012  0.3605
 5714TIP3   OH238700   2.548   4.238   0.828 -0.3010  0.2802  0.1460
 5714TIP3    H138701   2.532   4.172   0.761  0.2163  0.7635 -0.4657
 5714TIP3    H238702   2.628   4.209   0.872 -0.8425 -0.2349  0.8200
 5715TIP3   OH238703   3.027   4.913   8.089  0.3884  0.7861 -0.0776
 5715TIP3    H138704   3.001   4.821   8.084  1.1512  0.5261  0.5245
 5715TIP3    H238705   2.954   4.961   8.050 -0.7842  0.0567  1.1493
 5716TIP3   OH238706   2.956   3.317   2.914  0.4014 -0.1409  0.5209
 5716TIP3    H138707   2.886   3.256   2.936 -0.4025  0.0079 -1.4223
 5716TIP3    H238708   3.023   3.262   2.874  0.0237  0.1040 -0.4839
 5717TIP3   OH238709   5.678   5.556   1.990 -1.2637  0.4160 -0.1792
 5717TIP3    H138710   5.656   5.517   2.074  2.0636  0.1018  0.6932
 5717TIP3    H238711   5.652   5.647   1.998 -0.6855  0.4737  1.3749
 5718TIP3   OH238712   5.940   5.767   6.886 -0.3091 -0.6013 -0.2069
 5718TIP3    H138713   5.969   5.791   6.974  2.3159  0.7292 -1.3005
 5718TIP3    H238714   5.858   5.814   6.874  0.3339  0.8722  0.8461
 5719TIP3   OH238715   4.299   2.009   0.427 -0.2522  0.2909  0.2388
 5719TIP3    H138716   4.354   1.932   0.439  0.8635  1.0250 -0.0080
 5719TIP3    H238717   4.360   2.083   0.430 -1.1608  1.1015 -0.5304
 5720TIP3   OH238718   2.796   3.344   1.718 -0.0956  0.2239 -0.1525
 5720TIP3    H138719   2.853   3.419   1.705 -1.8008  1.3383 -1.5939
 5720TIP3    H238720   2.748   3.335   1.636 -0.1158 -2.3403  0.0451
 5721TIP3   OH238721   2.927   5.286   7.479  0.0162  0.3837  0.3779
 5721TIP3    H138722   2.984   5.340   7.423  1.3567  0.7495  2.0130
 5721TIP3    H238723   2.980   5.209   7.500 -1.0202 -0.4574 -0.0268
 5722TIP3   OH238724   3.678   5.462   0.588 -0.2349  0.8359 -0.1846
 5722TIP3    H138725   3.703   5.373   0.611 -1.7519  0.2610 -0.6596
 5722TIP3    H238726   3.752   5.496   0.538  1.7761  1.0064  2.6611
 5723TIP3   OH238727   3.190   6.353   2.100 -0.6854  0.4934 -0.0890
 5723TIP3    H138728   3.108   6.382   2.061 -0.6551 -0.4679 -0.8980
 5723TIP3    H238729   3.168   6.270   2.142  0.2340 -0.7070 -1.8557
 5724TIP3   OH238730   2.857   1.898   1.589 -0.3150  0.6243 -0.0032
 5724TIP3    H138731   2.824   1.908   1.500 -0.5225  1.5719  0.1716
 5724TIP3    H238732   2.787   1.850   1.635 -0.7223  1.1539 -0.0595
 5725TIP3   OH238733   6.464   1.873   7.712 -0.1167 -0.0075 -0.1583
 5725TIP3    H138734   6.534   1.931   7.742 -0.0535 -0.4075  0.4889
 5725TIP3    H238735   6.392   1.932   7.690 -0.4657  0.2909  1.5982
 5726TIP3   OH238736   5.194   3.726   7.560 -0.5495  0.4688  0.3852
 5726TIP3    H138737   5.248   3.771   7.495  1.2784 -0.3652  1.2643
 5726TIP3    H238738   5.104   3.752   7.538 -0.0395  0.1904 -2.5058
 5727TIP3   OH238739   5.473   3.548   7.867 -0.6915 -1.0714  0.1129
 5727TIP3    H138740   5.457   3.641   7.850 -0.7652 -0.3991  3.2873
 5727TIP3    H238741   5.555   3.530   7.822  1.0630  1.4733  1.9947
 5728TIP3   OH238742   2.123   0.275   8.203 -0.8022  0.8688 -0.1478
 5728TIP3    H138743   2.157   0.309   8.120  2.2908  0.0281  0.6211
 5728TIP3    H238744   2.156   0.336   8.269 -2.5842  1.1134  0.5641
 5729TIP3   OH238745   3.468   0.060   2.206 -0.3310 -0.2395 -0.2564
 5729TIP3    H138746   3.540   0.042   2.267  0.5502 -0.3067 -1.2862
 5729TIP3    H238747   3.496   0.139   2.159 -0.4008 -0.9066 -1.4500
 5730TIP3   OH238748   6.873   6.377   0.524  0.7749  0.3672 -0.2531
 5730TIP3    H138749   6.836   6.365   0.611 -1.2117 -0.1096 -1.0978
 5730TIP3    H238750   6.948   6.317   0.522  0.6586  0.1426  1.0092
 5731TIP3   OH238751   3.727   5.823   7.685 -0.5002  1.0146 -0.1487
 5731TIP3    H138752   3.793   5.885   7.654  0.0371  0.3449 -0.3691
 5731TIP3    H238753   3.657   5.878   7.718  0.8420  1.7801  1.5886
 5732TIP3   OH238754   3.509   0.031   7.914 -0.2644 -0.2171 -0.1133
 5732TIP3    H138755   3.477  -0.049   7.872 -0.3956  0.0416 -0.5129
 5732TIP3    H238756   3.445   0.051   7.982  0.1846 -0.8893  0.5236
 5733TIP3   OH238757   5.828   6.572   1.891  0.1041 -0.2329  0.5721
 5733TIP3    H138758   5.752   6.630   1.895  1.2922  1.4337  0.2104
 5733TIP3    H238759   5.851   6.555   1.982 -1.2493 -1.5621  0.7013
 5734TIP3   OH238760   1.223   0.260   0.947 -0.3028 -0.1404  0.3569
 5734TIP3    H138761   1.170   0.195   0.992  0.0814 -0.9191 -0.2804
 5734TIP3    H238762   1.169   0.339   0.945 -0.9812 -0.5900  0.6915
 5735TIP3   OH238763   2.207   2.778   2.249 -0.3611  0.0573 -0.4082
 5735TIP3    H138764   2.153   2.770   2.328  0.6014 -0.4807  0.2220
 5735TIP3    H238765   2.227   2.871   2.242  0.2601  0.0024  0.4930
 5736TIP3   OH238766   0.070   0.432   8.431  0.0658 -0.1660  0.5894
 5736TIP3    H138767   0.089   0.462   8.520 -1.0869  1.7300  0.2445
 5736TIP3    H238768   0.156   0.409   8.395  0.8748  1.4130  1.3843
 5737TIP3   OH238769   4.311   1.254   1.728  0.2635  0.1805  0.0485
 5737TIP3    H138770   4.307   1.202   1.809 -2.1317  0.2888  0.0653
 5737TIP3    H238771   4.402   1.247   1.700  0.3917 -2.8741  0.8219
 5738TIP3   OH238772   3.435   2.127   1.379 -0.4473 -0.7258 -0.2196
 5738TIP3    H138773   3.436   2.215   1.417 -0.6986 -0.1114 -1.5917
 5738TIP3    H238774   3.353   2.089   1.411 -0.8842 -0.0496 -0.5016
 5739TIP3   OH238775   2.266   5.802   7.319 -0.1412  0.2736 -0.9577
 5739TIP3    H138776   2.270   5.798   7.414  0.2394  0.8855 -0.9450
 5739TIP3    H238777   2.279   5.894   7.298 -0.7102  0.2227 -1.5818
 5740TIP3   OH238778   3.166   6.399   0.078  0.2434 -0.0270  0.4158
 5740TIP3    H138779   3.225   6.430   0.147  1.4018 -1.1110 -0.0256
 5740TIP3    H238780   3.087   6.451   0.088  0.0597 -0.6771  3.0712
 5741TIP3   OH238781   2.346   1.429   2.107  0.4212  0.0292 -0.4275
 5741TIP3    H138782   2.257   1.399   2.124  0.7429 -0.0446  1.2949
 5741TIP3    H238783   2.401   1.373   2.161  1.2088  2.3129  1.3025
 5742TIP3   OH238784   1.110   4.870   8.375  0.9931 -0.1016  0.2423
 5742TIP3    H138785   1.152   4.797   8.330 -0.1932 -0.9005  0.4108
 5742TIP3    H238786   1.153   4.873   8.461 -0.3727 -1.9631  1.0386
 5743TIP3   OH238787   2.422   3.535   7.505 -0.0798  0.1402 -0.2356
 5743TIP3    H138788   2.330   3.553   7.522 -0.0587  1.3906 -1.3328
 5743TIP3    H238789   2.443   3.585   7.426  1.3045 -0.8552 -0.5468
 5744TIP3   OH238790   6.468   3.201   6.570  0.1419 -0.5340  0.6652
 5744TIP3    H138791   6.502   3.275   6.620  0.6649 -0.8950  0.8496
 5744TIP3    H238792   6.526   3.129   6.592  1.7942 -0.2038 -2.1488
 5745TIP3   OH238793   0.110   2.274   7.072  0.7740  0.1097 -0.3463
 5745TIP3    H138794   0.145   2.198   7.026  1.4730  0.9631 -1.2498
 5745TIP3    H238795   0.094   2.339   7.004 -3.7879 -0.5712 -0.2551
 5746TIP3   OH238796   3.695   5.281   7.247  0.7542  0.3178 -0.2163
 5746TIP3    H138797   3.651   5.329   7.177  1.0986  0.3513 -0.4073
 5746TIP3    H238798   3.711   5.194   7.211 -0.2622 -0.0947  0.2790
 5747TIP3   OH238799   2.109   6.346   7.338  0.6718 -0.1017 -0.0740
 5747TIP3    H138800   2.196   6.305   7.346  0.0209 -1.7348 -0.7995
 5747TIP3    H238801   2.112   6.391   7.253  1.2427  1.0125  0.5198
 5748TIP3   OH238802   1.071   3.170   8.388  0.0819 -0.1845  0.4666
 5748TIP3    H138803   1.093   3.206   8.474  1.5298  2.1594 -0.7685
 5748TIP3    H238804   1.154   3.170   8.340 -1.1139  1.1906 -1.7726
 5749TIP3   OH238805   5.199   4.608   0.341  0.4920  0.1118 -0.0656
 5749TIP3    H138806   5.172   4.546   0.409  2.1537 -0.0495  0.4854
 5749TIP3    H238807   5.209   4.691   0.388 -0.3833  0.4949 -0.5367
 5750TIP3   OH238808   1.334   2.754   1.531  0.1713 -0.4990 -0.2531
 5750TIP3    H138809   1.272   2.683   1.546  1.0653 -1.1193  0.5987
 5750TIP3    H238810   1.299   2.827   1.583 -1.5686  0.2363 -2.2962
 5751TIP3   OH238811   0.027   4.019   1.272 -0.5619 -0.2361 -0.8385
 5751TIP3    H138812   0.039   4.102   1.317 -0.0217 -0.3655 -0.7388
 5751TIP3    H238813  -0.032   3.968   1.329 -0.3374 -0.1850 -0.5637
 5752TIP3   OH238814   4.544   5.693   2.053  0.0860  0.2699 -0.5304
 5752TIP3    H138815   4.566   5.681   1.961  1.1198 -0.4548 -0.2087
 5752TIP3    H238816   4.628   5.711   2.096 -0.2385 -0.3563  0.4155
 5753TIP3   OH238817   2.886   6.591   1.624  0.4058 -0.5097 -0.1079
 5753TIP3    H138818   2.832   6.528   1.576  1.3110 -0.1850 -1.6057
 5753TIP3    H238819   2.901   6.549   1.709 -0.4015 -1.5515 -0.4505
 5754TIP3   OH238820   2.967   6.270   0.412  0.8616 -0.3211 -0.6295
 5754TIP3    H138821   3.050   6.226   0.433  1.6822  1.4108 -0.0877
 5754TIP3    H238822   2.900   6.209   0.441  1.9655 -0.5596  1.6318
 5755TIP3   OH238823   1.943   4.345   0.550  0.3543  0.1841  0.0376
 5755TIP3    H138824   1.953   4.423   0.496  0.2674 -0.5265 -1.0321
 5755TIP3    H238825   1.867   4.300   0.514 -0.4995  0.3133  1.5578
 5756TIP3   OH238826   4.785   3.657   8.346  0.1106 -0.3609 -0.2051
 5756TIP3    H138827   4.702   3.678   8.303  1.4594  0.7155 -2.4529
 5756TIP3    H238828   4.808   3.570   8.313 -0.0144 -0.5831  0.2807
 5757TIP3   OH238829   0.671   4.520   8.202 -0.2984  0.2534 -0.4409
 5757TIP3    H138830   0.608   4.456   8.235  1.0915  0.0017  1.9895
 5757TIP3    H238831   0.656   4.598   8.256 -0.2479  1.1106 -1.6258
 5758TIP3   OH238832   1.513   2.443   0.182  1.1058  0.1531  0.0305
 5758TIP3    H138833   1.575   2.456   0.254 -0.0227  0.5940  0.9531
 5758TIP3    H238834   1.443   2.506   0.199 -0.6834 -1.7851  0.2717
 5759TIP3   OH238835   0.511   4.129   8.036 -0.1736  0.2303  0.6287
 5759TIP3    H138836   0.467   4.087   8.110  0.6814  1.3005  1.7834
 5759TIP3    H238837   0.598   4.153   8.070  0.2570  0.6899 -0.7399
 5760TIP3   OH238838   4.145   0.370   1.956  0.1158  0.1871 -0.5277
 5760TIP3    H138839   4.062   0.342   1.917  1.3932  0.6715 -3.9623
 5760TIP3    H238840   4.194   0.289   1.966 -0.0336  0.1103 -0.4036
 5761TIP3   OH238841   1.855   2.455   7.295 -0.0336  0.0361  0.6355
 5761TIP3    H138842   1.908   2.400   7.237  0.4904  0.4503  0.7127
 5761TIP3    H238843   1.778   2.476   7.243  0.9672  1.3818 -0.3899
 5762TIP3   OH238844   1.343   4.868   7.827  0.4347 -0.0763  0.2827
 5762TIP3    H138845   1.363   4.859   7.920  1.1593 -0.5630  0.0855
 5762TIP3    H238846   1.349   4.962   7.810 -1.7222  0.2713  1.1605
 5763TIP3   OH238847   0.546   1.070   6.883 -0.2074  0.2509  0.4194
 5763TIP3    H138848   0.638   1.078   6.905  0.2912  1.3894 -1.7403
 5763TIP3    H238849   0.507   1.153   6.910 -0.6846 -0.3386  1.5887
 5764TIP3   OH238850   6.788   1.283   8.584 -0.0791 -0.6251  0.3872
 5764TIP3    H138851   6.796   1.292   8.489  1.4325  0.4154  0.5905
 5764TIP3    H238852   6.725   1.211   8.595 -0.4059 -0.6685 -1.3862
 5765TIP3   OH238853   2.518   2.253   2.591 -0.3671 -0.3660 -0.8326
 5765TIP3    H138854   2.515   2.213   2.678  3.7274 -2.6380 -1.4793
 5765TIP3    H238855   2.464   2.195   2.536 -5.6167  2.7386  0.3670
 5766TIP3   OH238856   0.916   5.751   6.107 -0.0867 -0.1638 -0.0176
 5766TIP3    H138857   0.927   5.789   6.194 -0.0977  0.2180 -0.1812
 5766TIP3    H238858   0.965   5.669   6.110  0.1877  0.0066  0.2432
 5767TIP3   OH238859   5.155   4.702   0.873 -0.2225 -0.5752  0.2043
 5767TIP3    H138860   5.149   4.724   0.966  0.4541  2.0744 -0.2951
 5767TIP3    H238861   5.157   4.786   0.828  1.9450 -1.7010 -2.0815
 5768TIP3   OH238862   5.292   4.649   8.547  0.0207  0.3459  0.3404
 5768TIP3    H138863   5.216   4.684   8.594  1.3948  2.5174  1.0993
 5768TIP3    H238864   5.367   4.691   8.588  1.5577 -0.6393 -1.3169
 5769TIP3   OH238865   5.615   6.207   7.715  0.2615 -0.1644 -0.3066
 5769TIP3    H138866   5.660   6.261   7.780  0.6594 -0.6504 -0.1766
 5769TIP3    H238867   5.543   6.167   7.764  0.4709 -0.4127 -0.2055
 5770TIP3   OH238868   5.565   5.473   7.568  0.0237 -0.0198  0.3347
 5770TIP3    H138869   5.571   5.538   7.499 -1.7745  0.9591  1.0380
 5770TIP3    H238870   5.533   5.394   7.524  0.2340  0.1814 -0.1823
 5771TIP3   OH238871   1.309   2.792   8.384  0.3411 -0.5740 -0.3668
 5771TIP3    H138872   1.316   2.717   8.443 -0.7877 -1.2490 -1.0516
 5771TIP3    H238873   1.373   2.773   8.314 -0.6200 -1.4085 -1.0481
 5772TIP3   OH238874   2.952   4.398   7.611 -0.0044  0.0496  0.5431
 5772TIP3    H138875   2.945   4.317   7.559 -1.0129  0.1995  0.4160
 5772TIP3    H238876   2.931   4.370   7.700 -0.5527  0.2060  0.4635
 5773TIP3   OH238877   2.600   3.716   8.101  0.7861  0.2595 -0.2173
 5773TIP3    H138878   2.693   3.694   8.108  0.7927  0.3534 -0.0254
 5773TIP3    H238879   2.583   3.716   8.006  1.5564  2.5757 -0.4292
 5774TIP3   OH238880   5.406   6.781   7.956  0.5126  0.4451  0.2418
 5774TIP3    H138881   5.365   6.710   7.907  0.3051 -0.3679  1.5493
 5774TIP3    H238882   5.336   6.815   8.011  1.0525  0.5191  0.8896
 5775TIP3   OH238883   4.276   4.407   2.925  0.5284  0.3322 -0.1282
 5775TIP3    H138884   4.201   4.348   2.931  1.4645 -1.2097 -2.4004
 5775TIP3    H238885   4.243   4.492   2.956 -1.4246 -0.8667  1.2641
 5776TIP3   OH238886   4.475   0.438   1.671  0.5746 -0.3996  0.2416
 5776TIP3    H138887   4.517   0.401   1.749  2.5117  0.6723 -0.2314
 5776TIP3    H238888   4.417   0.369   1.640  0.9900 -1.4594  1.7058
 5777TIP3   OH238889   6.194   4.794   1.950  0.4304  0.8244  0.0822
 5777TIP3    H138890   6.113   4.766   1.992 -0.0767 -0.2345 -1.5249
 5777TIP3    H238891   6.173   4.880   1.913  0.0232  0.5695 -0.2986
 5778TIP3   OH238892   2.237   2.572   0.677  0.1468  0.2140  0.3976
 5778TIP3    H138893   2.285   2.496   0.646 -0.4211 -0.5679  1.3640
 5778TIP3    H238894   2.176   2.536   0.742 -0.6893  1.3795  0.2782
 5779TIP3   OH238895   3.828   3.477   7.838 -0.2681  0.0244 -0.1507
 5779TIP3    H138896   3.793   3.565   7.848  0.0124  0.0349  0.8145
 5779TIP3    H238897   3.852   3.471   7.745 -1.6927  0.4237 -0.5717
 5780TIP3   OH238898   6.003   4.251   7.077  0.1327  0.0885  0.2696
 5780TIP3    H138899   5.964   4.172   7.040  0.5397 -0.0561  0.1367
 5780TIP3    H238900   6.083   4.220   7.121  1.0251  0.5842 -0.9294
 5781TIP3   OH238901   4.328   5.487   7.831 -0.1294 -0.0739  0.1687
 5781TIP3    H138902   4.370   5.573   7.826  0.1778 -0.2601 -0.5967
 5781TIP3    H238903   4.348   5.455   7.919  1.2970 -0.1243 -0.1483
 5782TIP3   OH238904   5.172   0.795   8.109 -0.0889 -0.1113 -0.0797
 5782TIP3    H138905   5.121   0.801   8.029 -0.3371 -2.4235 -0.1751
 5782TIP3    H238906   5.257   0.832   8.086 -0.6200  0.6260 -0.9355
 5783TIP3   OH238907   6.500   1.778   1.259 -0.1157  0.2768  0.5649
 5783TIP3    H138908   6.573   1.716   1.260  0.1810  0.4884 -1.7888
 5783TIP3    H238909   6.539   1.862   1.282  0.0193  0.0917  1.0285
 5784TIP3   OH238910   4.072   4.802   0.881  0.2361 -0.4539 -0.0584
 5784TIP3    H138911   4.135   4.827   0.814 -0.2825  2.2210  0.3052
 5784TIP3    H238912   3.989   4.840   0.851 -0.5548 -1.4157  0.8589
 5785TIP3   OH238913   2.265   4.527   2.219 -0.3327  0.4514 -0.3947
 5785TIP3    H138914   2.194   4.462   2.211 -0.4207  0.5263 -0.2372
 5785TIP3    H238915   2.344   4.475   2.230 -0.8134  0.2359  4.0699
 5786TIP3   OH238916   6.353   3.241   1.821 -0.0187 -0.4797 -0.4283
 5786TIP3    H138917   6.322   3.222   1.732 -1.1212 -2.2176  0.2740
 5786TIP3    H238918   6.305   3.321   1.845  1.3491  0.8477 -1.8484
 5787TIP3   OH238919   1.502   3.402   1.206 -0.1671 -0.3337  0.3243
 5787TIP3    H138920   1.459   3.475   1.251  0.0090  0.6585 -1.0497
 5787TIP3    H238921   1.596   3.420   1.215 -0.1303 -0.0301 -0.5391
 5788TIP3   OH238922   4.366   5.435   0.935 -0.0766  0.4307 -0.1966
 5788TIP3    H138923   4.349   5.438   0.841  2.3946  1.2075 -0.6979
 5788TIP3    H238924   4.421   5.357   0.947  0.8786  1.1698  0.3378
 5789TIP3   OH238925   6.324   4.350   8.224 -0.0869  0.0928  0.1564
 5789TIP3    H138926   6.247   4.406   8.230  0.3978  0.8673 -0.6433
 5789TIP3    H238927   6.398   4.410   8.223  0.6960 -0.6823  2.8481
 5790TIP3   OH238928   0.985   1.941   8.076  0.4191 -0.1914  0.1933
 5790TIP3    H138929   0.998   1.916   7.984 -0.7748 -0.9705  0.2160
 5790TIP3    H238930   0.954   2.031   8.073  1.2279  0.0948 -0.0975
 5791TIP3   OH238931   1.114   0.429   0.510 -0.2544  0.4244 -0.2630
 5791TIP3    H138932   1.193   0.386   0.540  0.0064  1.1013  0.0428
 5791TIP3    H238933   1.042   0.373   0.539  0.1203 -0.3343 -0.7865
 5792TIP3   OH238934   0.399   4.614   7.562  0.2822  0.6198 -0.0165
 5792TIP3    H138935   0.468   4.548   7.570  0.0696  0.5139  1.1983
 5792TIP3    H238936   0.318   4.566   7.579 -0.1238  0.7242 -1.5324
 5793TIP3   OH238937   3.278   4.377   7.422 -0.2746 -0.2051  0.0936
 5793TIP3    H138938   3.328   4.424   7.355  1.1487 -2.0584 -0.2536
 5793TIP3    H238939   3.201   4.344   7.376 -1.8984  2.6008  0.6060
 5794TIP3   OH238940   6.470   1.101   1.226  0.0706  0.0325 -0.2252
 5794TIP3    H138941   6.424   1.167   1.175  0.9675  0.9565  0.1388
 5794TIP3    H238942   6.401   1.040   1.254 -0.8165  0.9607 -0.3309
 5795TIP3   OH238943   5.318   3.365   1.740 -0.1569  0.6697  0.2842
 5795TIP3    H138944   5.398   3.329   1.701 -1.4313  0.2635 -2.1706
 5795TIP3    H238945   5.298   3.306   1.812 -0.2155 -1.4615 -1.3804
 5796TIP3   OH238946   2.733   6.708   2.810  0.2207  0.0299 -0.1019
 5796TIP3    H138947   2.816   6.679   2.773  1.0490  1.8355  0.2027
 5796TIP3    H238948   2.743   6.696   2.904  0.4013  0.7881 -0.0125
 5797TIP3   OH238949   6.345   6.139   8.155 -0.4090  0.3679  0.2917
 5797TIP3    H138950   6.277   6.098   8.209  1.0778 -0.8462  1.3182
 5797TIP3    H238951   6.366   6.073   8.089 -2.4365  1.9430 -2.1383
 5798TIP3   OH238952   6.529   4.546   0.142 -0.2997 -1.1018  0.2998
 5798TIP3    H138953   6.541   4.636   0.171 -0.0055 -0.5143 -1.5062
 5798TIP3    H238954   6.532   4.551   0.046 -0.0620 -3.0549  0.1593
 5799TIP3   OH238955   6.895   4.945   1.666 -0.8191 -0.4767  0.1739
 5799TIP3    H138956   6.822   4.991   1.708 -0.2942 -2.1941  3.2173
 5799TIP3    H238957   6.972   4.971   1.717  0.1889 -1.2857 -0.8901
 5800TIP3   OH238958   1.163   6.034   7.376  0.0372 -0.8230 -0.1697
 5800TIP3    H138959   1.223   6.030   7.301  0.9380 -1.7726  0.5633
 5800TIP3    H238960   1.076   6.024   7.338  0.2770  0.8762 -1.2955
 5801TIP3   OH238961   1.970   1.491   0.440 -0.2788  0.1087  0.3965
 5801TIP3    H138962   2.004   1.402   0.450 -0.2958  0.1484  0.8116
 5801TIP3    H238963   1.930   1.511   0.525  1.0052  1.0701  0.8050
 5802TIP3   OH238964   2.842   2.570   0.807  0.0732  0.3260 -0.3726
 5802TIP3    H138965   2.855   2.662   0.829  2.5949  0.1957 -1.0296
 5802TIP3    H238966   2.840   2.569   0.711 -1.9833 -0.1236 -0.3775
 5803TIP3   OH238967   5.691   5.537   2.302 -0.1750 -0.2346  0.1508
 5803TIP3    H138968   5.732   5.453   2.285  0.7452  0.5890 -1.9475
 5803TIP3    H238969   5.720   5.561   2.390 -1.7555 -2.7847  1.4893
 5804TIP3   OH238970   6.199   5.965   0.841 -0.1804  0.4505 -0.2062
 5804TIP3    H138971   6.212   5.995   0.931  0.4469 -0.1085 -0.1017
 5804TIP3    H238972   6.111   5.995   0.818 -0.7180 -0.2130  0.9194
 5805TIP3   OH238973   2.031   0.267   2.774 -0.2530 -0.0480 -0.2886
 5805TIP3    H138974   2.043   0.304   2.687 -2.5101  0.5760 -0.3936
 5805TIP3    H238975   2.088   0.190   2.776  1.1172  0.8691 -1.6753
 5806TIP3   OH238976   5.649   5.350   8.595  0.1499  0.6497 -0.1333
 5806TIP3    H138977   5.576   5.323   8.539  1.3184 -2.7797 -0.2298
 5806TIP3    H238978   5.608   5.375   8.678 -1.2347  0.1942 -0.6528
 5807TIP3   OH238979   1.311   6.264   7.780  0.7764  0.2278 -0.4240
 5807TIP3    H138980   1.378   6.198   7.760  0.5784 -0.3653  0.7763
 5807TIP3    H238981   1.230   6.215   7.787  0.5389  0.6658 -0.0099
 5808TIP3   OH238982   5.030   0.552   0.531 -0.0869 -0.5451 -0.1540
 5808TIP3    H138983   5.058   0.461   0.517  0.0329 -0.6731  0.8096
 5808TIP3    H238984   5.068   0.600   0.458  1.5054 -0.9555  0.3640
 5809TIP3   OH238985   4.808   4.034   7.911  0.5985 -0.2594  0.3635
 5809TIP3    H138986   4.786   3.990   7.993 -1.0907 -0.7773 -0.3117
 5809TIP3    H238987   4.898   4.007   7.892  0.0022 -2.6043  0.5400
 5810TIP3   OH238988   2.277   5.723   6.981 -0.5014 -0.3687 -0.2782
 5810TIP3    H138989   2.372   5.716   6.976 -0.3276 -0.2918  2.0009
 5810TIP3    H238990   2.261   5.776   7.058 -2.4166 -0.6590 -0.4306
 5811TIP3   OH238991   2.078   5.953   8.012 -0.1519  0.1278  0.5308
 5811TIP3    H138992   2.077   5.988   8.101 -0.0972  1.1903  0.1351
 5811TIP3    H238993   2.060   6.029   7.957 -3.2457 -1.0030 -0.2299
 5812TIP3   OH238994   2.972   4.440   1.537 -1.2530  0.8663 -0.1598
 5812TIP3    H138995   2.923   4.389   1.601  0.4872 -0.3098  0.3026
 5812TIP3    H238996   2.929   4.526   1.537 -2.2097  0.4345  1.4724
 5813TIP3   OH238997   3.887   1.305   8.214 -0.1538 -0.4639  0.1430
 5813TIP3    H138998   3.959   1.257   8.171  1.3132  0.2892  1.6404
 5813TIP3    H238999   3.894   1.394   8.180  0.6026 -0.0244  1.3832
 5814TIP3   OH239000   1.420   5.453   1.536  0.0823  0.5054  0.1001
 5814TIP3    H139001   1.440   5.544   1.514  1.5352  1.2460  3.6732
 5814TIP3    H239002   1.364   5.459   1.613 -1.6393 -1.6958 -0.8830
 5815TIP3   OH239003   0.007   6.742   8.334 -0.7415  0.4411 -0.5842
 5815TIP3    H139004  -0.050   6.818   8.324 -1.1395  0.3172  0.4954
 5815TIP3    H239005   0.042   6.750   8.423  0.6799  0.3375 -1.1190
 5816TIP3   OH239006   3.104   0.697   0.979  0.3873  0.4326  0.2135
 5816TIP3    H139007   3.032   0.761   0.981  0.1434  0.2429 -1.4504
 5816TIP3    H239008   3.092   0.650   0.897  2.3984  0.3552 -0.0802
 5817TIP3   OH239009   1.016   0.011   2.408 -0.0206  0.2681 -0.1763
 5817TIP3    H139010   0.943  -0.008   2.467 -0.7462  1.1390 -0.7660
 5817TIP3    H239011   1.094  -0.007   2.460 -0.6462  0.1452  0.7451
 5818TIP3   OH239012   5.807   6.007   7.608 -0.3202  0.2010 -0.3948
 5818TIP3    H139013   5.773   5.933   7.658 -0.8817 -1.4763 -3.0146
 5818TIP3    H239014   5.748   6.079   7.629 -1.3683 -0.8215  0.3213
 5819TIP3   OH239015   5.572   3.959   1.883 -0.4778 -0.2363  0.3225
 5819TIP3    H139016   5.568   4.026   1.815 -0.4922  0.3821  0.9328
 5819TIP3    H239017   5.556   3.877   1.836 -1.4731  0.2832 -0.2693
 5820TIP3   OH239018   0.879   3.347   8.646  0.6001 -0.2609  0.8452
 5820TIP3    H139019   0.832   3.396   8.714 -0.6526 -0.4089  0.1053
 5820TIP3    H239020   0.871   3.255   8.672  1.8909 -0.2006  1.5671
 5821TIP3   OH239021   2.971   5.577   0.016  0.1005  0.7257  0.4729
 5821TIP3    H139022   2.994   5.531  -0.065 -0.7075 -0.8307  1.0854
 5821TIP3    H239023   3.039   5.550   0.078  0.7425  1.9500  0.3494
 5822TIP3   OH239024   6.593   0.742   6.885 -0.7180  0.1822  0.5638
 5822TIP3    H139025   6.651   0.711   6.816 -0.5727 -0.1165  0.8200
 5822TIP3    H239026   6.632   0.825   6.914 -1.2207  0.7318 -0.2645
 5823TIP3   OH239027   5.175   3.794   0.846 -0.4473 -0.1152 -1.2358
 5823TIP3    H139028   5.189   3.701   0.829 -1.0408 -0.2983 -0.7358
 5823TIP3    H239029   5.263   3.833   0.840 -0.0783 -0.8400 -0.6254
 5824TIP3   OH239030   5.937   3.578   0.493  0.1382  0.2582  0.5740
 5824TIP3    H139031   5.892   3.499   0.524 -0.1771  0.4997  0.7472
 5824TIP3    H239032   5.995   3.602   0.565  0.3828  0.0726  0.4403
 5825TIP3   OH239033   2.633   0.946   7.843 -0.2575 -0.0996  0.0601
 5825TIP3    H139034   2.561   0.961   7.905  0.0327 -2.5769  1.1008
 5825TIP3    H239035   2.593   0.959   7.757 -0.8627  2.6360  0.6438
 5826TIP3   OH239036   0.598   4.441   7.559  0.5561 -0.2631  0.5244
 5826TIP3    H139037   0.600   4.419   7.466 -0.1850  0.9079  0.2200
 5826TIP3    H239038   0.622   4.359   7.603 -2.0707 -1.7551 -0.5694
 5827TIP3   OH239039   5.543   3.186   8.519  0.6145  0.3001  0.0899
 5827TIP3    H139040   5.488   3.135   8.460 -0.2729  1.3543 -0.0444
 5827TIP3    H239041   5.538   3.139   8.603  1.2612 -0.7800 -0.4659
 5828TIP3   OH239042   4.462   4.639   2.233  0.0583  0.2611  0.0021
 5828TIP3    H139043   4.510   4.569   2.276 -0.7127 -1.1880 -1.3901
 5828TIP3    H239044   4.507   4.651   2.149 -1.7150 -0.9005 -1.1880
 5829TIP3   OH239045   4.094   5.668   7.321 -0.8622  0.6603  0.0832
 5829TIP3    H139046   4.106   5.635   7.232 -2.9756 -0.3963  0.1318
 5829TIP3    H239047   4.171   5.638   7.369 -1.9482 -3.1179 -0.2335
 5830TIP3   OH239048   1.578   1.153   7.349 -0.1293 -0.8041  0.6438
 5830TIP3    H139049   1.513   1.085   7.328  0.5903 -1.6277  1.0610
 5830TIP3    H239050   1.656   1.105   7.374  0.2905  0.1886  1.2822
 5831TIP3   OH239051   0.797   1.728   1.775  0.1774  0.3025 -0.2986
 5831TIP3    H139052   0.724   1.667   1.764  0.8378 -0.5507 -0.0982
 5831TIP3    H239053   0.807   1.769   1.689 -1.1954  1.2160 -0.0519
 5832TIP3   OH239054   0.232   3.180   7.914 -0.5148  0.2039 -0.1619
 5832TIP3    H139055   0.225   3.253   7.852 -0.0149  1.2637  0.9928
 5832TIP3    H239056   0.184   3.209   7.992 -0.2986 -0.6968  0.3223
 5833TIP3   OH239057   2.291   4.818   1.491  0.3445 -0.0741  0.3104
 5833TIP3    H139058   2.236   4.864   1.428 -1.9341 -0.3054  2.0244
 5833TIP3    H239059   2.316   4.885   1.555  2.3564  0.0868 -0.5748
 5834TIP3   OH239060   5.105   2.043   0.561 -0.0930 -0.0430  0.1396
 5834TIP3    H139061   5.139   2.127   0.593  1.2307 -0.6078  0.2757
 5834TIP3    H239062   5.149   2.030   0.477 -0.1052 -0.7243  0.2411
 5835TIP3   OH239063   3.507   0.757   1.142 -0.2517  0.0777 -0.1727
 5835TIP3    H139064   3.577   0.817   1.116  0.5476  0.8636  3.3051
 5835TIP3    H239065   3.431   0.813   1.156 -0.6331 -0.3089 -0.6576
 5836TIP3   OH239066   4.111   3.192   8.412 -0.1491  0.2118 -0.3593
 5836TIP3    H139067   4.171   3.140   8.359 -1.5722 -1.3293 -0.5388
 5836TIP3    H239068   4.162   3.216   8.489 -0.1430 -3.9933  1.2041
 5837TIP3   OH239069   1.755   4.717   1.492  0.2198  0.2088 -0.5940
 5837TIP3    H139070   1.684   4.702   1.430  1.0727  0.6047 -1.7183
 5837TIP3    H239071   1.806   4.788   1.453  3.0533 -2.1396 -1.5202
 5838TIP3   OH239072   4.134   3.902   1.335 -0.1086  0.1976 -0.4906
 5838TIP3    H139073   4.050   3.858   1.320  0.6194 -1.4755  0.0894
 5838TIP3    H239074   4.186   3.882   1.257 -0.5551  2.1365 -1.3521
 5839TIP3   OH239075   0.112   5.471   2.037  0.2102  0.2143  0.6380
 5839TIP3    H139076   0.200   5.473   2.074  0.7998 -0.8201 -0.6346
 5839TIP3    H239077   0.111   5.545   1.976  1.6628 -2.0272 -2.3583
 5840TIP3   OH239078   5.874   5.250   7.388  0.7229 -0.8340  0.4315
 5840TIP3    H139079   5.959   5.254   7.345  1.0538  1.0702  1.1327
 5840TIP3    H239080   5.820   5.195   7.331  1.4290  0.7484 -1.9157
 5841TIP3   OH239081   2.434   2.958   0.023  0.2662 -0.1039 -0.5218
 5841TIP3    H139082   2.456   2.876  -0.021  0.6364 -0.6854  0.6970
 5841TIP3    H239083   2.350   2.984  -0.016  0.6283 -0.5185 -1.6299
 5842TIP3   OH239084   1.696   0.909   0.338 -0.1045  0.1298  0.6474
 5842TIP3    H139085   1.614   0.932   0.382 -0.2070 -0.4558  0.7810
 5842TIP3    H239086   1.685   0.816   0.316  0.6778 -0.0658  1.0324
 5843TIP3   OH239087   0.785   1.856   0.680  0.0539  0.0477  0.1073
 5843TIP3    H139088   0.701   1.891   0.709 -0.4096 -1.8361  1.1647
 5843TIP3    H239089   0.850   1.903   0.733 -0.5947 -1.0640  1.9808
 5844TIP3   OH239090   6.455   0.646   1.352  0.4669  0.7103 -0.8984
 5844TIP3    H139091   6.446   0.734   1.389  0.4438  0.6938 -0.8650
 5844TIP3    H239092   6.383   0.596   1.391  0.9586  0.4591 -0.2972
 5845TIP3   OH239093   3.884   6.457   1.556 -0.3896  0.2106  0.0126
 5845TIP3    H139094   3.838   6.517   1.497  0.1048  0.3896 -0.1954
 5845TIP3    H239095   3.817   6.426   1.616 -1.2627 -1.2428 -1.6424
 5846TIP3   OH239096   3.940   1.252   0.638  0.3362  0.4523 -0.1229
 5846TIP3    H139097   3.949   1.214   0.725  1.1031 -0.0841 -0.4253
 5846TIP3    H239098   3.896   1.336   0.652  1.7213  1.0357  0.9443
 5847TIP3   OH239099   1.399   6.503   7.660  0.5596 -0.5339 -0.1605
 5847TIP3    H139100   1.359   6.422   7.693 -0.3022 -2.3277 -4.7622
 5847TIP3    H239101   1.455   6.474   7.588  1.1337  2.9251 -1.3031
 5848TIP3   OH239102   2.772   2.257   7.882 -0.2834  0.0479 -0.5958
 5848TIP3    H139103   2.814   2.297   7.957 -1.5054  0.9645 -0.3622
 5848TIP3    H239104   2.784   2.163   7.894 -0.7152  0.1637  0.9059
 5849TIP3   OH239105   5.691   2.764   7.296  0.3262  1.0937 -0.0727
 5849TIP3    H139106   5.738   2.826   7.241 -0.8295  1.5281 -0.5795
 5849TIP3    H239107   5.714   2.678   7.260 -0.3093  1.3634 -1.1716
 5850TIP3   OH239108   4.095   4.189   8.364  0.4445 -0.3770  0.2073
 5850TIP3    H139109   4.041   4.225   8.294  0.3323  0.4849  0.7259
 5850TIP3    H239110   4.170   4.149   8.318 -1.5591 -3.4885 -0.6899
 5851TIP3   OH239111   3.322   6.726   1.182 -0.4191 -0.0788 -0.6083
 5851TIP3    H139112   3.327   6.795   1.248 -0.4701 -0.3571 -0.3046
 5851TIP3    H239113   3.286   6.768   1.105 -0.8983  0.1282 -0.2753
 5852TIP3   OH239114   5.601   0.354   0.117  0.0574  0.1115  0.0028
 5852TIP3    H139115   5.612   0.417   0.188  0.0753  0.3497 -0.2064
 5852TIP3    H239116   5.678   0.298   0.121  0.2312  0.3453 -0.0473
 5853TIP3   OH239117   4.233   6.283   7.743 -0.0823 -0.1385  0.4009
 5853TIP3    H139118   4.209   6.363   7.696  0.6536  1.8939  3.2505
 5853TIP3    H239119   4.322   6.262   7.713 -0.4889 -0.2692 -0.7631
 5854TIP3   OH239120   4.972   6.410   6.957  0.3644  0.3581  0.2468
 5854TIP3    H139121   5.062   6.432   6.936  0.8589  0.3427  2.1749
 5854TIP3    H239122   4.927   6.406   6.872  2.4485 -0.9259 -0.8670
 5855TIP3   OH239123   1.083   0.712   8.225 -0.9530 -0.0258  0.4377
 5855TIP3    H139124   1.008   0.663   8.190 -1.1925 -0.3133  1.3247
 5855TIP3    H239125   1.064   0.721   8.319  0.1728 -0.1909  0.6966
 5856TIP3   OH239126   3.542   5.444   8.021 -0.1655  0.5483  0.2296
 5856TIP3    H139127   3.533   5.402   7.936  2.6417 -1.8013  0.9562
 5856TIP3    H239128   3.587   5.526   8.002 -2.5101  1.7144 -0.7952
 5857TIP3   OH239129   3.845   6.290   0.417  0.3550  0.0495 -0.3063
 5857TIP3    H139130   3.799   6.232   0.357 -0.4358  1.0977 -0.7476
 5857TIP3    H239131   3.936   6.289   0.388 -0.0203  0.5438 -1.5419
 5858TIP3   OH239132   1.495   0.699   1.779 -0.4376  0.2984  0.1182
 5858TIP3    H139133   1.566   0.642   1.809 -0.5364  0.1526  0.0763
 5858TIP3    H239134   1.415   0.650   1.799 -0.4964 -0.0768 -0.9234
 5859TIP3   OH239135   0.820   5.021   0.468  0.5537  0.5177  0.2190
 5859TIP3    H139136   0.908   4.984   0.464 -0.0515 -1.0179  0.3630
 5859TIP3    H239137   0.806   5.062   0.383  0.6883 -0.9893 -0.5553
 5860TIP3   OH239138   5.677   3.377   2.167 -0.1150  0.1538  0.1260
 5860TIP3    H139139   5.706   3.330   2.246 -1.3434  1.4920  1.4447
 5860TIP3    H239140   5.657   3.307   2.105 -1.3718 -1.1210  1.8328
 5861TIP3   OH239141   6.815   4.409   8.165 -0.4106 -0.7077 -0.1665
 5861TIP3    H139142   6.847   4.430   8.253 -1.5674 -1.0286  0.3406
 5861TIP3    H239143   6.886   4.358   8.126  0.2678 -0.2512  0.4337
 5862TIP3   OH239144   1.233   6.566   8.553  0.1901  0.1631 -0.0483
 5862TIP3    H139145   1.295   6.631   8.587  0.4305 -0.6742  1.2134
 5862TIP3    H239146   1.215   6.509   8.629 -1.1437 -0.3611 -0.7288
 5863TIP3   OH239147   0.621   3.828   7.757  0.0991 -0.4475  0.4353
 5863TIP3    H139148   0.632   3.779   7.676  0.2059 -0.6564  0.5754
 5863TIP3    H239149   0.648   3.767   7.826  0.9094  0.0337  0.5590
 5864TIP3   OH239150   5.547   6.175   1.493 -0.2623  0.0290  0.3368
 5864TIP3    H139151   5.639   6.201   1.491 -0.2993  0.1129 -0.4202
 5864TIP3    H239152   5.545   6.087   1.455 -0.3583 -0.4312  1.3691
 5865TIP3   OH239153   5.489   4.675   7.952 -0.0856 -0.0483 -0.2563
 5865TIP3    H139154   5.540   4.749   7.918 -0.9738 -0.3637 -2.4662
 5865TIP3    H239155   5.455   4.632   7.873 -1.1497 -1.6986  1.0489
 5866TIP3   OH239156   5.409   1.849   2.777  0.1032 -0.3685  0.0451
 5866TIP3    H139157   5.361   1.896   2.845  0.6342 -0.7653  0.7117
 5866TIP3    H239158   5.351   1.849   2.702 -0.4622  0.1582  0.4730
 5867TIP3   OH239159   4.216   5.275   0.057 -0.6521 -0.4857 -0.4276
 5867TIP3    H139160   4.194   5.328   0.133 -0.1808 -0.6977 -0.1360
 5867TIP3    H239161   4.212   5.335  -0.017  0.1373  0.0302 -0.0700
 5868TIP3   OH239162   3.218   6.406   8.455 -0.0830  0.2759  0.7614
 5868TIP3    H139163   3.216   6.461   8.533 -0.4425  1.0894  0.1962
 5868TIP3    H239164   3.127   6.398   8.429  0.1678  2.1279 -0.9867
 5869TIP3   OH239165   5.699   5.546   8.346  0.3074  0.2881 -0.3189
 5869TIP3    H139166   5.650   5.505   8.275 -1.8275  1.1500  0.5824
 5869TIP3    H239167   5.651   5.522   8.425  1.9875  0.2933  0.7517
 5870TIP3   OH239168   4.847   6.012   7.779  0.2849  0.4171  0.9246
 5870TIP3    H139169   4.927   6.065   7.776 -1.1640  2.7750  0.6452
 5870TIP3    H239170   4.831   5.988   7.688  0.4442  0.3286  0.9196
 5871TIP3   OH239171   3.073   4.802   8.355 -0.1151 -0.5565 -0.2953
 5871TIP3    H139172   3.055   4.859   8.280 -1.7752  1.9621  1.8269
 5871TIP3    H239173   3.164   4.775   8.342  0.4661  1.8294 -1.9484
 5872TIP3   OH239174   6.381   6.487   7.851  0.0299 -0.1602 -0.0951
 5872TIP3    H139175   6.410   6.470   7.941 -1.0967  0.0884  0.3419
 5872TIP3    H239176   6.312   6.553   7.861  0.6965  0.7512 -1.2635
 5873TIP3   OH239177   4.400   2.158   6.649 -0.6154 -0.3176  0.2579
 5873TIP3    H139178   4.461   2.126   6.714 -0.2501  3.9789  2.4036
 5873TIP3    H239179   4.443   2.235   6.611 -2.2477 -0.6801 -2.6477
 5874TIP3   OH239180   5.652   3.926   2.137 -0.1174 -0.0595  0.2069
 5874TIP3    H139181   5.730   3.981   2.128  0.4910 -0.9535 -0.0472
 5874TIP3    H239182   5.610   3.929   2.051  0.0540 -0.1944  0.1180
 5875TIP3   OH239183   5.190   4.022   1.406  0.6559 -0.1536  0.3784
 5875TIP3    H139184   5.239   3.986   1.480  1.5034  0.8363  0.3329
 5875TIP3    H239185   5.099   4.000   1.424  1.0339 -1.4341  0.8275
 5876TIP3   OH239186   2.311   3.475   1.055  0.2309  0.1939 -0.7320
 5876TIP3    H139187   2.342   3.473   1.146  0.4707 -0.5810 -0.8288
 5876TIP3    H239188   2.322   3.386   1.024 -2.0662 -0.1233 -0.7976
 5877TIP3   OH239189   0.043   4.744   1.508 -0.0431 -0.0203  0.0689
 5877TIP3    H139190   0.041   4.805   1.582  1.2366 -0.2424  0.3070
 5877TIP3    H239191  -0.032   4.686   1.523 -0.6684  0.8328  0.3873
 5878TIP3   OH239192   2.662   0.600   8.014  0.1190 -0.0895  0.3426
 5878TIP3    H139193   2.622   0.513   8.005  1.3885 -0.7096  0.5690
 5878TIP3    H239194   2.740   0.586   8.067  0.8235  1.0378 -0.3491
 5879TIP3   OH239195   2.587   6.714   7.003 -0.1265 -0.1483  0.0142
 5879TIP3    H139196   2.512   6.763   6.970 -0.9645 -1.1628  0.3443
 5879TIP3    H239197   2.593   6.738   7.095 -1.3612 -1.6245  0.5069
 5880TIP3   OH239198   4.220   2.487   8.124 -0.0601  0.6359 -0.1959
 5880TIP3    H139199   4.235   2.478   8.218 -0.5234 -0.0733 -0.1853
 5880TIP3    H239200   4.148   2.551   8.118 -0.4272  0.2459 -0.0373
 5881TIP3   OH239201   5.185   1.431   8.089 -0.4643 -0.8015  0.1235
 5881TIP3    H139202   5.222   1.485   8.160 -0.7252  0.0231 -0.3618
 5881TIP3    H239203   5.236   1.456   8.012 -0.9924 -0.8070 -0.2273
 5882TIP3   OH239204   5.363   2.503   8.230 -0.3145  0.5414 -0.4064
 5882TIP3    H139205   5.340   2.456   8.150  0.3203  0.8066 -0.7427
 5882TIP3    H239206   5.455   2.481   8.245 -0.7749 -0.6148  0.9986
 5883TIP3   OH239207   5.757   2.782   8.540  0.8435  0.3176 -0.6626
 5883TIP3    H139208   5.717   2.844   8.601 -1.6342 -1.1428 -0.6833
 5883TIP3    H239209   5.794   2.714   8.596 -1.7216 -1.1951 -0.6680
 5884TIP3   OH239210   0.093   6.549   1.913 -0.2744  0.2656 -0.4389
 5884TIP3    H139211   0.182   6.574   1.939  0.0284 -0.9160 -0.2988
 5884TIP3    H239212   0.055   6.512   1.992 -0.6018 -0.0119 -0.7241
 5885TIP3   OH239213   2.054   1.446   7.900  0.4054  0.3966 -0.1586
 5885TIP3    H139214   2.098   1.514   7.950  0.8742  1.3932 -1.8256
 5885TIP3    H239215   2.052   1.480   7.810 -1.1979 -0.8902 -0.6689
 5886TIP3   OH239216   2.508   4.648   1.523  0.4849 -0.4255  0.5164
 5886TIP3    H139217   2.517   4.688   1.609  0.3924  1.7779 -0.4456
 5886TIP3    H239218   2.428   4.687   1.487  0.7614 -0.9923 -0.7498
 5887TIP3   OH239219   1.227   2.093   1.168  0.4371 -0.1036 -0.4746
 5887TIP3    H139220   1.154   2.055   1.119  0.9349  0.7964 -1.9624
 5887TIP3    H239221   1.248   2.027   1.234 -1.9150 -0.2516  0.2099
 5888TIP3   OH239222   2.597   3.664   1.338 -0.3701  0.1122  0.1670
 5888TIP3    H139223   2.638   3.697   1.418 -1.4460 -0.8140  1.1333
 5888TIP3    H239224   2.620   3.729   1.271  0.1189  1.1804  1.3244
 5889TIP3   OH239225   0.438   1.873   8.317  0.5276 -0.0366  0.1476
 5889TIP3    H139226   0.467   1.964   8.321  0.9685 -0.0877 -1.3000
 5889TIP3    H239227   0.517   1.822   8.334  1.3243 -0.1682 -3.3105
 5890TIP3   OH239228   4.777   1.436   1.301  0.0800  0.5752 -0.4880
 5890TIP3    H139229   4.841   1.435   1.231  1.6382  3.4128  0.7146
 5890TIP3    H239230   4.693   1.453   1.257  0.7113  0.3764 -1.7992
 5891TIP3   OH239231   1.303   5.034   2.517 -0.1528 -0.0071  0.4376
 5891TIP3    H139232   1.224   5.085   2.501  0.8708  1.4824 -0.0754
 5891TIP3    H239233   1.295   5.004   2.607 -0.9923  0.6949  0.6111
 5892TIP3   OH239234   1.152   5.218   1.548  0.1994 -0.2089 -0.1336
 5892TIP3    H139235   1.073   5.269   1.566 -0.8891 -0.5858 -3.2937
 5892TIP3    H239236   1.136   5.133   1.590 -2.2784 -1.1419 -2.6682
 5893TIP3   OH239237   4.669   6.661   0.028 -0.1177  0.7699 -0.2066
 5893TIP3    H139238   4.578   6.690   0.017 -0.9223 -0.7685  1.7599
 5893TIP3    H239239   4.688   6.676   0.120  0.7092 -1.2326  0.0079
 5894TIP3   OH239240   6.178   3.358   2.314  0.1325 -0.2279 -0.0335
 5894TIP3    H139241   6.140   3.445   2.302 -0.7017 -0.8536 -2.4151
 5894TIP3    H239242   6.161   3.337   2.406  0.4627  2.1359  0.6276
 5895TIP3   OH239243   0.106   1.019   8.299  0.1266  0.2429 -0.1427
 5895TIP3    H139244   0.056   0.993   8.377  0.8739 -0.5761  0.0915
 5895TIP3    H239245   0.058   0.981   8.226  0.3767 -0.5351  0.0802
 5896TIP3   OH239246   0.970   5.042   0.705  0.3526 -0.4703  0.5829
 5896TIP3    H139247   0.925   4.959   0.690  0.0157 -0.5129  1.7087
 5896TIP3    H239248   0.938   5.100   0.636  1.5696 -1.6186 -1.0309
 5897TIP3   OH239249   4.875   5.520   2.808 -0.5292  0.1752 -0.0200
 5897TIP3    H139250   4.898   5.610   2.785  0.4301 -0.0300  0.0762
 5897TIP3    H239251   4.809   5.528   2.876 -0.5185  0.8074 -0.0858
 5898TIP3   OH239252   4.592   3.878   7.077  0.7772  0.0462  0.1944
 5898TIP3    H139253   4.637   3.830   7.147  1.5686  0.5011  0.0149
 5898TIP3    H239254   4.542   3.812   7.030  0.8732 -0.3935  0.7024
 5899TIP3   OH239255   0.016   4.449   8.433  0.5300  0.0608  0.2144
 5899TIP3    H139256  -0.031   4.511   8.488 -1.5196 -0.3119 -1.0029
 5899TIP3    H239257   0.027   4.371   8.489  0.9034  0.6089  0.9282
 5900TIP3   OH239258   0.547   2.780   0.545 -0.6992  0.5594  0.1358
 5900TIP3    H139259   0.525   2.872   0.560  0.0439  0.6191  0.9302
 5900TIP3    H239260   0.550   2.741   0.633  1.8504  0.4584  0.0759
 5901TIP3   OH239261   3.111   2.514   0.834 -0.1886  0.3378  0.1850
 5901TIP3    H139262   3.129   2.421   0.822 -0.0835  0.4422 -0.4838
 5901TIP3    H239263   3.015   2.519   0.841 -0.3561  0.3951 -1.8086
 5902TIP3   OH239264   4.943   4.330   7.608  0.7669  0.3964  0.3155
 5902TIP3    H139265   4.942   4.399   7.542  0.5246 -0.1520 -0.2640
 5902TIP3    H239266   4.921   4.375   7.689  2.2545  1.2910  0.2617
 5903TIP3   OH239267   2.951   2.507   7.346 -0.8150 -0.2099  0.2149
 5903TIP3    H139268   2.939   2.593   7.388 -0.6768  0.3018 -0.7595
 5903TIP3    H239269   2.879   2.454   7.380  0.0430 -0.2449  2.1264
 5904TIP3   OH239270   0.025   1.258   0.715  0.0041 -0.0712 -0.1457
 5904TIP3    H139271  -0.064   1.231   0.691  0.2116 -1.4045  0.5404
 5904TIP3    H239272   0.024   1.354   0.705 -1.6832  0.0016  0.4197
 5905TIP3   OH239273   6.810   1.219   7.658  0.2799 -0.7798  0.0430
 5905TIP3    H139274   6.792   1.155   7.589 -0.2170 -1.2463  0.5892
 5905TIP3    H239275   6.884   1.270   7.625  1.0597 -1.9982 -0.1823
 5906TIP3   OH239276   1.999   5.888   8.278  0.2458  0.0826 -0.1855
 5906TIP3    H139277   2.040   5.842   8.351  1.3656  1.6240  0.2198
 5906TIP3    H239278   1.943   5.823   8.237 -0.8522 -0.7098  2.3555
 5907TIP3   OH239279   3.258   0.277   2.081  0.2184 -0.0440 -0.7679
 5907TIP3    H139280   3.318   0.348   2.104  1.0095 -0.8722 -0.2228
 5907TIP3    H239281   3.275   0.260   1.988 -1.1003  1.5180 -1.3427
 5908TIP3   OH239282   6.432   2.840   0.479  0.2759 -0.2199 -0.2774
 5908TIP3    H139283   6.495   2.846   0.407  1.6274 -1.5258  0.7473
 5908TIP3    H239284   6.439   2.924   0.524  0.6798 -0.0430 -0.6611
 5909TIP3   OH239285   1.206   2.465   2.772 -0.5916 -0.1935 -0.1676
 5909TIP3    H139286   1.156   2.545   2.787 -1.7368 -0.5208 -1.9281
 5909TIP3    H239287   1.277   2.491   2.714 -0.4555 -0.3127 -0.0583
 5910TIP3   OH239288   4.998   0.294   1.674  0.2793 -0.4960 -0.0906
 5910TIP3    H139289   5.034   0.269   1.759 -0.9059 -0.1760  0.5235
 5910TIP3    H239290   4.913   0.250   1.669  0.8006 -1.4172 -1.6013
 5911TIP3   OH239291   5.284   2.291   1.261 -0.3768  0.1042 -0.4650
 5911TIP3    H139292   5.369   2.292   1.305 -0.3244 -2.0153 -0.4104
 5911TIP3    H239293   5.304   2.311   1.170  0.4473 -1.8300 -0.7626
 5912TIP3   OH239294   2.600   4.980   1.769 -0.3375  0.0829 -0.5612
 5912TIP3    H139295   2.666   4.912   1.751 -1.0050 -0.2690 -1.7932
 5912TIP3    H239296   2.598   4.986   1.864 -0.1763 -1.5467 -0.4178
 5913TIP3   OH239297   3.307   3.002   7.038  0.4334  0.0801 -0.3012
 5913TIP3    H139298   3.338   2.948   6.965 -1.0356  1.3694 -1.9460
 5913TIP3    H239299   3.346   3.088   7.023 -1.9301  1.0718 -1.0867
 5914TIP3   OH239300   4.800   1.513   2.782  0.0480  0.0215  0.0446
 5914TIP3    H139301   4.824   1.490   2.692 -2.7295 -0.4965 -0.6752
 5914TIP3    H239302   4.806   1.431   2.831 -2.0687 -0.6305 -0.6434
 5915TIP3   OH239303   5.770   1.084   7.879 -0.0345 -0.0889  0.1925
 5915TIP3    H139304   5.764   0.989   7.876 -1.0158 -0.0105 -1.3706
 5915TIP3    H239305   5.687   1.113   7.917  0.2722  0.1524  0.6925
 5916TIP3   OH239306   1.353   4.479   8.038 -0.4053  0.5163 -0.2247
 5916TIP3    H139307   1.340   4.476   7.943 -0.2991 -2.8799 -0.2674
 5916TIP3    H239308   1.448   4.473   8.049 -0.3914  1.2687  0.1298
 5917TIP3   OH239309   1.072   0.238   2.248  0.2789  0.7149  0.2580
 5917TIP3    H139310   0.978   0.253   2.262 -0.7788 -3.0133 -1.4198
 5917TIP3    H239311   1.090   0.157   2.298  2.4884  1.0638  0.1030
 5918TIP3   OH239312   1.494   0.235   1.478 -0.9293 -0.4349  0.0926
 5918TIP3    H139313   1.446   0.316   1.463  0.3512  0.1175 -1.3125
 5918TIP3    H239314   1.526   0.210   1.391  1.0116 -0.9424  0.9079
 5919TIP3   OH239315   6.467   1.163   2.549 -0.0353 -0.1624 -0.0052
 5919TIP3    H139316   6.376   1.158   2.577  0.5629 -0.5355  2.1087
 5919TIP3    H239317   6.517   1.163   2.631  1.7900  2.7566 -0.9717
 5920TIP3   OH239318   2.092   5.525   0.534 -0.0942  0.0785  0.8145
 5920TIP3    H139319   2.166   5.578   0.563  0.0168  0.0752  0.5346
 5920TIP3    H239320   2.131   5.451   0.488 -0.2791  0.2547  0.3650
 5921TIP3   OH239321   5.983   6.116   7.161  0.2797  0.1308 -0.0011
 5921TIP3    H139322   5.990   6.209   7.182 -0.9359 -0.0172  1.2126
 5921TIP3    H239323   5.964   6.114   7.067  0.1139  1.1139 -0.0017
 5922TIP3   OH239324   0.107   2.794   2.202  0.5595  0.1494  0.2206
 5922TIP3    H139325   0.129   2.714   2.154 -0.6798 -0.0617 -0.0227
 5922TIP3    H239326   0.025   2.774   2.247 -0.1595  1.5144 -0.4275
 5923TIP3   OH239327   5.225   3.480   2.409  0.1686  0.7783 -0.4206
 5923TIP3    H139328   5.150   3.454   2.463  2.1314 -1.8262  1.3493
 5923TIP3    H239329   5.197   3.465   2.319 -0.6205 -3.1703  0.2710
 5924TIP3   OH239330   1.427   2.836   0.297  0.4854  0.2605  0.0660
 5924TIP3    H139331   1.514   2.865   0.269 -0.1965  2.3452 -0.0390
 5924TIP3    H239332   1.407   2.890   0.374 -1.3056  0.9197 -0.8014
 5925TIP3   OH239333   1.945   2.588   7.706 -1.1096  0.4125  0.1926
 5925TIP3    H139334   2.013   2.583   7.639  0.2731  1.6026  1.4510
 5925TIP3    H239335   1.962   2.513   7.763 -0.8598  0.7058  0.5033
 5926TIP3   OH239336   4.898   3.963   1.813  0.3131 -0.3604 -0.5618
 5926TIP3    H139337   4.853   3.906   1.751 -0.0464 -0.8143  0.1015
 5926TIP3    H239338   4.893   4.050   1.774  0.6770 -0.7395 -1.4831
 5927TIP3   OH239339   5.634   4.048   1.339  0.5806 -0.2479  0.4530
 5927TIP3    H139340   5.599   4.102   1.410  0.8891 -0.1382  0.5238
 5927TIP3    H239341   5.691   4.108   1.289  0.7587 -0.4534  0.4081
 5928TIP3   OH239342   2.172   5.591   1.679  0.0271 -0.4289 -0.2640
 5928TIP3    H139343   2.091   5.545   1.657 -0.3682 -0.5909  1.3836
 5928TIP3    H239344   2.238   5.553   1.621 -1.1027 -0.0924 -1.8348
 5929TIP3   OH239345   0.497   2.789   7.476 -0.3131 -0.7696  0.0074
 5929TIP3    H139346   0.579   2.812   7.519 -0.1412 -0.4234 -0.4920
 5929TIP3    H239347   0.502   2.832   7.390 -1.0912 -0.5938  0.0395
 5930TIP3   OH239348   5.103   1.757   7.485 -0.1581  1.0434 -0.7600
 5930TIP3    H139349   5.066   1.788   7.402  3.0472  0.9702 -2.3357
 5930TIP3    H239350   5.118   1.663   7.471 -4.0551 -0.2008  1.7859
 5931TIP3   OH239351   4.152   1.547   2.025  0.2597  0.3563  0.2070
 5931TIP3    H139352   4.152   1.608   1.951 -0.6466  0.0550 -0.0624
 5931TIP3    H239353   4.070   1.566   2.071  0.8562  0.6007  1.1985
 5932TIP3   OH239354   0.443   6.390   1.196  0.3246 -0.0624 -0.4765
 5932TIP3    H139355   0.406   6.478   1.196  1.1148  0.2768 -0.7708
 5932TIP3    H239356   0.479   6.379   1.284 -0.1984 -0.2788 -0.2861
 5933TIP3   OH239357   2.545   0.673   7.552  0.1477  0.6325 -0.1633
 5933TIP3    H139358   2.508   0.624   7.625 -2.0532  0.2648 -1.4425
 5933TIP3    H239359   2.523   0.764   7.570 -1.4579  0.4206 -0.8973
 5934TIP3   OH239360   6.700   0.598   7.196  0.2152  0.1977 -0.1169
 5934TIP3    H139361   6.703   0.538   7.270  0.9764 -1.4609 -1.4246
 5934TIP3    H239362   6.619   0.575   7.149  1.4261 -1.1431 -1.6397
 5935TIP3   OH239363   1.318   6.005   7.148 -0.1985  0.1272  0.7546
 5935TIP3    H139364   1.283   5.936   7.092  0.6161 -0.3760  0.8537
 5935TIP3    H239365   1.403   6.026   7.109 -0.0489  0.4447  1.2474
 5936TIP3   OH239366   5.555   4.274   8.355 -0.6714  0.2823 -0.0296
 5936TIP3    H139367   5.505   4.304   8.431 -1.4647 -0.6749 -0.1456
 5936TIP3    H239368   5.505   4.304   8.279  0.6249  2.0909 -0.2425
 5937TIP3   OH239369   2.015   6.018   7.427  0.1063 -0.0702 -0.2654
 5937TIP3    H139370   2.045   6.076   7.497  1.0192 -2.3614  1.3387
 5937TIP3    H239371   2.083   6.025   7.360  0.0703  0.8715 -0.2253
 5938TIP3   OH239372   4.618   2.605   0.562  0.4285 -0.4457  0.0542
 5938TIP3    H139373   4.699   2.656   0.555 -0.0441  0.6823  2.0797
 5938TIP3    H239374   4.597   2.606   0.656 -1.9488 -0.6742 -0.4087
 5939TIP3   OH239375   0.815   2.744   1.004  0.3135  0.5109 -0.1573
 5939TIP3    H139376   0.878   2.704   0.944  0.1527  1.8114 -1.2722
 5939TIP3    H239377   0.734   2.696   0.989  1.2573 -2.0450  2.2370
 5940TIP3   OH239378   0.774   6.235   1.898 -0.8436  0.1268  0.3889
 5940TIP3    H139379   0.850   6.223   1.955 -1.5547  1.0447  1.5746
 5940TIP3    H239380   0.805   6.211   1.811  0.3940 -0.9115  1.0774
 5941TIP3   OH239381   4.540   1.663   1.345  0.0294 -0.3948 -0.8173
 5941TIP3    H139382   4.508   1.579   1.378 -1.4078  0.1403 -0.7880
 5941TIP3    H239383   4.617   1.683   1.399  0.1014 -1.4490 -0.5131
 5942TIP3   OH239384   2.693   1.796   2.265  0.2189  0.6466  0.1011
 5942TIP3    H139385   2.772   1.806   2.319 -0.3712  0.3806  1.0433
 5942TIP3    H239386   2.621   1.814   2.326 -0.5105 -0.6847 -0.3518
 5943TIP3   OH239387   4.103   5.384   1.178  0.2680 -0.3550 -0.7383
 5943TIP3    H139388   4.177   5.327   1.202  2.2712  1.4128 -2.3061
 5943TIP3    H239389   4.073   5.350   1.094 -2.6223 -2.6982  1.0325
 5944TIP3   OH239390   1.552   5.045   7.547 -0.4614  0.7146  0.1522
 5944TIP3    H139391   1.485   5.106   7.518 -0.3524  0.3975 -0.7980
 5944TIP3    H239392   1.506   4.962   7.557 -0.0470  0.2637 -1.4479
 5945TIP3   OH239393   6.256   3.775   2.701  0.4798 -0.8066  0.1316
 5945TIP3    H139394   6.207   3.790   2.621  0.4736 -0.6860  0.1578
 5945TIP3    H239395   6.206   3.709   2.748  0.6301 -1.0808 -0.0932
 5946TIP3   OH239396   4.284   4.785   8.153 -0.2048  0.7542  0.7142
 5946TIP3    H139397   4.237   4.798   8.070  0.6943  0.7862  0.1923
 5946TIP3    H239398   4.217   4.794   8.220 -0.7394  2.0675  0.0578
 5947TIP3   OH239399   6.855   1.658   7.243  0.3778  0.2064  0.2488
 5947TIP3    H139400   6.903   1.588   7.199 -0.2726  0.9043 -1.7138
 5947TIP3    H239401   6.842   1.724   7.174  3.0159  3.4092  2.4740
 5948TIP3   OH239402   2.917   0.034   2.042 -0.3987 -0.1420 -0.4461
 5948TIP3    H139403   2.906   0.120   2.083  1.4374 -0.3056  0.4891
 5948TIP3    H239404   2.897   0.049   1.949 -2.2934  0.7702  0.0668
 5949TIP3   OH239405   6.666   6.889   7.580 -0.2842 -0.7407  0.1200
 5949TIP3    H139406   6.612   6.828   7.631  0.3292 -0.6419  0.9159
 5949TIP3    H239407   6.604   6.949   7.540 -0.7802 -0.6417  1.0107
 5950TIP3   OH239408   0.840   3.032   8.070 -0.2446 -0.8620 -0.4308
 5950TIP3    H139409   0.925   2.993   8.049  0.1257  0.3120 -1.1501
 5950TIP3    H239410   0.803   2.972   8.135  2.0193 -0.3474  1.4820
 5951TIP3   OH239411   2.887   1.791   7.519  0.1375  0.0508  0.0638
 5951TIP3    H139412   2.943   1.720   7.488 -1.2127 -1.9500  1.9397
 5951TIP3    H239413   2.896   1.859   7.453  0.1333 -2.5121 -2.7921
 5952TIP3   OH239414   3.475   1.536   7.732  0.1246 -0.4719 -0.0934
 5952TIP3    H139415   3.521   1.482   7.796  0.1789 -0.2848  0.0244
 5952TIP3    H239416   3.544   1.578   7.681  0.0824 -0.5468 -0.2123
 5953TIP3   OH239417   4.654   1.947   1.907 -0.0788 -0.6167  0.6102
 5953TIP3    H139418   4.710   1.871   1.894 -1.6093 -1.5751 -0.9530
 5953TIP3    H239419   4.570   1.910   1.936 -0.3617  0.6234  1.4382
 5954TIP3   OH239420   5.848   0.892   2.093 -0.1871  0.3017  0.4509
 5954TIP3    H139421   5.826   0.945   2.017 -0.0724  1.3574  1.1361
 5954TIP3    H239422   5.775   0.906   2.154 -1.1158 -1.8067 -0.0526
 5955TIP3   OH239423   3.976   2.056   1.122 -0.1359 -0.4525 -0.2824
 5955TIP3    H139424   3.924   2.098   1.053  0.0658 -0.6744 -0.5748
 5955TIP3    H239425   3.969   2.115   1.197 -0.1354 -0.0732 -0.5795
 5956TIP3   OH239426   5.864   6.877   8.151  0.0805  0.2565  0.2398
 5956TIP3    H139427   5.879   6.932   8.227  1.5701 -0.4240  0.4747
 5956TIP3    H239428   5.838   6.792   8.187 -0.1573  0.2002 -0.0538
 5957TIP3   OH239429   3.464   1.618   7.286  0.0396 -0.0557  0.0052
 5957TIP3    H139430   3.541   1.669   7.312  1.4242 -0.4183 -2.9304
 5957TIP3    H239431   3.390   1.678   7.298  1.0322  1.0464  0.8975
 5958TIP3   OH239432   4.409   5.206   2.429  0.5032  0.4025 -0.0705
 5958TIP3    H139433   4.379   5.227   2.341  0.6832  1.0131  0.0081
 5958TIP3    H239434   4.500   5.235   2.431  0.0734  1.7875  0.7748
 5959TIP3   OH239435   5.913   2.902   1.124  0.1309  0.5548  0.1787
 5959TIP3    H139436   5.940   2.986   1.161  0.6288  0.6811 -0.4410
 5959TIP3    H239437   5.991   2.847   1.131  0.0485  0.3939 -0.1248
 5960TIP3   OH239438   6.131   0.226   6.531 -0.0772  0.7625 -0.0971
 5960TIP3    H139439   6.073   0.273   6.590  0.7718 -0.1265  1.5206
 5960TIP3    H239440   6.143   0.140   6.573 -1.7981 -1.1125 -3.0299
 5961TIP3   OH239441   6.227   4.938   6.575  0.1292  0.1854  0.0043
 5961TIP3    H139442   6.322   4.931   6.581 -0.0429 -2.3199  1.1241
 5961TIP3    H239443   6.205   4.892   6.494 -0.1820  0.0165  0.1824
 5962TIP3   OH239444   1.876   5.076   8.128  0.1704  0.4089  0.6813
 5962TIP3    H139445   1.879   5.135   8.204  0.6622 -0.0873  1.0613
 5962TIP3    H239446   1.862   5.133   8.053  1.0781  1.0654  0.9963
 5963TIP3   OH239447   6.403   0.042   0.466  0.3264  0.5348  0.1097
 5963TIP3    H139448   6.475  -0.006   0.508  0.7800  1.8910  0.9477
 5963TIP3    H239449   6.334   0.044   0.532  0.1425  0.6574 -0.0894
 5964TIP3   OH239450   5.924   6.485   6.817 -0.2620 -0.5412  0.5894
 5964TIP3    H139451   5.855   6.474   6.883 -0.8010  0.2750  0.1825
 5964TIP3    H239452   5.876   6.497   6.735  0.4002 -1.5337  0.0432
 5965TIP3   OH239453   3.461   6.384   1.366  0.3630 -0.1317 -0.2310
 5965TIP3    H139454   3.499   6.470   1.385 -0.5911  0.6092 -1.4471
 5965TIP3    H239455   3.416   6.359   1.447  2.5565 -0.5958  0.9109
 5966TIP3   OH239456   0.711   2.237   1.798  0.3442 -0.4674  0.1877
 5966TIP3    H139457   0.674   2.312   1.844 -0.6528 -0.7968 -0.0392
 5966TIP3    H239458   0.656   2.163   1.826  0.4902 -0.8785 -0.5813
 5967TIP3   OH239459   3.056   6.154   0.073 -0.3919  0.2364 -0.3101
 5967TIP3    H139460   3.102   6.238   0.064 -1.3930  0.7737 -0.5175
 5967TIP3    H239461   3.065   6.113  -0.013  1.1569 -0.4484  0.1411
 5968TIP3   OH239462   1.200   0.754   1.528 -0.9310 -0.1354  0.1052
 5968TIP3    H139463   1.173   0.725   1.441 -1.7010  2.2450 -0.5339
 5968TIP3    H239464   1.119   0.753   1.580 -1.0796  1.2488 -0.0757
 5969TIP3   OH239465   2.522   4.719   7.646 -0.0708 -0.6156 -0.2242
 5969TIP3    H139466   2.610   4.702   7.679  0.4030 -1.5778 -1.8653
 5969TIP3    H239467   2.512   4.814   7.651  1.0017 -0.5088  0.1105
 5970TIP3   OH239468   1.437   6.041   0.628  0.3777 -0.9980 -0.1553
 5970TIP3    H139469   1.500   6.063   0.559 -0.0227 -0.2138 -0.2910
 5970TIP3    H239470   1.478   6.073   0.709  0.4850 -1.1719 -0.1407
 5971TIP3   OH239471   0.428   5.992   0.616 -0.2632  0.4409  0.3276
 5971TIP3    H139472   0.413   6.045   0.694 -0.9807  1.2332 -0.3249
 5971TIP3    H239473   0.483   6.046   0.560  1.4588 -0.6932  0.8456
 5972TIP3   OH239474   5.509   6.544   8.564 -0.4649 -0.9433  0.2423
 5972TIP3    H139475   5.424   6.530   8.605 -0.7179 -2.5383 -0.7231
 5972TIP3    H239476   5.487   6.581   8.478 -0.1347 -0.5847  0.3129
 5973TIP3   OH239477   0.508   5.647   7.890 -0.0638 -0.2685  0.3401
 5973TIP3    H139478   0.484   5.663   7.981 -3.1457  0.1679 -0.4421
 5973TIP3    H239479   0.502   5.733   7.848 -1.2157 -0.8387 -0.7313
 5974TIP3   OH239480   0.889   3.935   0.344  0.7162  0.2303 -0.0104
 5974TIP3    H139481   0.845   3.888   0.415  1.8209 -1.1235 -0.1834
 5974TIP3    H239482   0.901   3.870   0.275  0.3544  1.3300 -1.1533
 5975TIP3   OH239483   3.769   2.744   0.861  0.5777  0.4298 -0.2842
 5975TIP3    H139484   3.832   2.775   0.926 -0.2175  0.5240  0.4684
 5975TIP3    H239485   3.693   2.717   0.913 -0.5139  1.5436 -1.2289
 5976TIP3   OH239486   5.843   2.117   1.683 -0.2292 -0.5249 -0.4961
 5976TIP3    H139487   5.780   2.045   1.674 -0.4290 -0.4047 -0.0919
 5976TIP3    H239488   5.900   2.108   1.607 -1.2326 -0.1504 -1.3145
 5977TIP3   OH239489   3.003   2.482   1.118 -0.0179 -0.1300  0.4741
 5977TIP3    H139490   2.993   2.439   1.203 -0.2832 -1.1591 -0.0654
 5977TIP3    H239491   2.998   2.411   1.054  2.1283  0.3387 -0.3154
 5978TIP3   OH239492   0.378   2.160   6.771  0.1069 -0.3301 -0.2715
 5978TIP3    H139493   0.461   2.116   6.789  0.1837  0.2246  0.8565
 5978TIP3    H239494   0.399   2.225   6.704  0.6857  0.0500  0.2644
 5979TIP3   OH239495   4.941   0.572   8.027  0.3691 -0.2391  0.1005
 5979TIP3    H139496   4.851   0.562   7.994 -0.1148 -3.5712  1.9667
 5979TIP3    H239497   4.949   0.665   8.046 -2.1511  0.4153 -1.4764
 5980TIP3   OH239498   0.905   1.711   7.754  0.5388 -0.3249  0.2962
 5980TIP3    H139499   0.837   1.692   7.689  0.9232  1.3968 -0.6764
 5980TIP3    H239500   0.983   1.666   7.721  0.1113 -1.6596  1.0104
 5981TIP3   OH239501   5.075   5.616   1.753 -0.2900 -0.1999  0.3078
 5981TIP3    H139502   5.084   5.694   1.807 -2.8097 -0.1287  0.7225
 5981TIP3    H239503   5.022   5.556   1.805 -1.4449 -0.7624 -1.4185
 5982TIP3   OH239504   1.974   0.899   0.290 -0.1567 -0.7726 -0.0217
 5982TIP3    H139505   1.879   0.909   0.297 -0.2258  0.8155 -2.1250
 5982TIP3    H239506   1.990   0.892   0.196  1.9249  0.8712  0.1489
 5983TIP3   OH239507   4.979   3.598   8.521 -0.4099  0.4266  0.1325
 5983TIP3    H139508   4.911   3.619   8.457  0.0572  1.1683 -0.1347
 5983TIP3    H239509   4.961   3.655   8.596 -3.0278 -2.7696  2.2137
 5984TIP3   OH239510   1.154   4.276   7.796 -0.0025  0.0782  0.0150
 5984TIP3    H139511   1.212   4.201   7.788  0.0924  0.2648 -1.3320
 5984TIP3    H239512   1.180   4.334   7.723  0.0483  1.4943  1.1143
 5985TIP3   OH239513   4.323   1.341   1.120  0.0435  0.2053  0.3359
 5985TIP3    H139514   4.313   1.245   1.121 -0.9371  0.2822  2.2012
 5985TIP3    H239515   4.416   1.354   1.100 -0.1890 -1.0397 -1.8718
 5986TIP3   OH239516   1.268   5.918   7.601  0.3200  0.0032 -0.2670
 5986TIP3    H139517   1.228   5.921   7.514 -0.4370  0.8954  0.0904
 5986TIP3    H239518   1.198   5.947   7.660  0.8938 -0.3620  0.6086
 5987TIP3   OH239519   4.601   6.683   0.802 -0.2632 -0.4208  0.1444
 5987TIP3    H139520   4.506   6.677   0.790 -0.3448  0.8512  0.0723
 5987TIP3    H239521   4.637   6.670   0.714 -0.5853  2.9154 -0.6069
 5988TIP3   OH239522   1.349   5.779   0.712  0.4489  0.4090 -0.1727
 5988TIP3    H139523   1.366   5.862   0.667  1.9097  0.0189 -0.3739
 5988TIP3    H239524   1.292   5.730   0.652 -2.1275  2.0076  0.8047
 5989TIP3   OH239525   0.118   5.494   7.720 -0.4891  0.3992  0.2352
 5989TIP3    H139526   0.029   5.512   7.749 -1.0697  1.2125 -1.8700
 5989TIP3    H239527   0.163   5.578   7.725 -0.4544  0.4457 -0.6514
 5990TIP3   OH239528   1.291   2.308   8.514  0.1415  0.5129  0.9170
 5990TIP3    H139529   1.373   2.280   8.473 -0.1138  0.3861  0.4733
 5990TIP3    H239530   1.238   2.228   8.517 -1.5350  1.2799 -2.5892
 5991TIP3   OH239531   2.758   6.791   7.779 -0.8016 -0.0342 -0.9976
 5991TIP3    H139532   2.694   6.845   7.733 -1.3056 -0.9083 -1.3499
 5991TIP3    H239533   2.823   6.769   7.713 -1.1501 -0.7055 -1.1252
 5992TIP3   OH239534   6.016   0.340   6.863 -0.5211 -0.2168  0.6158
 5992TIP3    H139535   5.925   0.314   6.883 -0.6142 -0.0620  0.3961
 5992TIP3    H239536   6.010   0.381   6.777 -0.0075 -1.5685 -0.0991
 5993TIP3   OH239537   2.501   5.968   8.109  0.2124 -0.1258 -0.3010
 5993TIP3    H139538   2.425   6.010   8.148  0.3437 -1.5646  1.6551
 5993TIP3    H239539   2.538   6.034   8.051 -2.0203  0.8992 -0.6539
 5994TIP3   OH239540   5.792   0.446   0.597 -0.3174  0.0426 -0.2337
 5994TIP3    H139541   5.709   0.421   0.638 -0.1663 -0.7410 -0.3953
 5994TIP3    H239542   5.833   0.505   0.660 -0.9464  0.3484 -0.1031
 5995TIP3   OH239543   4.979   2.449   8.635 -0.5176 -0.2278 -0.2588
 5995TIP3    H139544   4.989   2.537   8.670 -1.4346  1.0238 -2.9032
 5995TIP3    H239545   5.048   2.440   8.570 -1.3761 -0.8666 -1.1149
 5996TIP3   OH239546   0.572   3.055   0.367 -0.2373 -0.2744 -0.4054
 5996TIP3    H139547   0.514   3.052   0.442 -0.4403  0.6853 -0.5224
 5996TIP3    H239548   0.611   3.142   0.369 -0.6319 -0.0466 -1.7032
 5997TIP3   OH239549   1.751   6.006   7.578  0.5089 -0.1066  0.1188
 5997TIP3    H139550   1.813   5.983   7.509 -0.4489 -0.0470 -0.7937
 5997TIP3    H239551   1.766   5.942   7.647  0.7914 -0.8030 -0.5778
 5998TIP3   OH239552   3.196   2.092   0.584 -0.4094 -0.4521 -0.4056
 5998TIP3    H139553   3.225   2.005   0.557 -0.0710 -0.6830  0.6734
 5998TIP3    H239554   3.102   2.082   0.600 -0.4178 -0.5583 -0.5173
 5999TIP3   OH239555   5.068   6.598   1.751 -0.1234  0.1370  0.1964
 5999TIP3    H139556   5.125   6.569   1.680  0.7398  2.2226 -0.0295
 5999TIP3    H239557   5.123   6.656   1.804 -1.8540  1.8077  0.2759
 6000TIP3   OH239558   1.947   1.869   8.491  0.2453 -0.4329  0.8420
 6000TIP3    H139559   1.899   1.930   8.435  0.0036 -0.0199  1.4831
 6000TIP3    H239560   1.915   1.888   8.579 -0.7003 -2.2655  0.9528
 6001TIP3   OH239561   2.069   4.644   1.577  0.4477  0.2629  0.3493
 6001TIP3    H139562   2.019   4.602   1.648  0.7912  0.7751  0.8990
 6001TIP3    H239563   2.065   4.737   1.597 -0.6794  0.5713 -1.1062
 6002TIP3   OH239564   6.551   1.946   0.006  0.0380 -0.4711  0.4069
 6002TIP3    H139565   6.512   1.862   0.028  0.1952 -0.7617 -0.3971
 6002TIP3    H239566   6.495   1.982  -0.063 -0.3327  0.3330  1.1050
 6003TIP3   OH239567   5.320   4.508   8.296  0.1914  0.4199  0.3845
 6003TIP3    H139568   5.387   4.559   8.252  2.2193 -0.6027  2.0580
 6003TIP3    H239569   5.272   4.571   8.349 -0.8918  1.3169 -1.5601
 6004TIP3   OH239570   3.572   0.350   1.753 -0.2925  0.1520  0.0063
 6004TIP3    H139571   3.650   0.400   1.729  0.3409 -0.5813  0.4394
 6004TIP3    H239572   3.590   0.262   1.720 -0.8230 -0.0836  0.3388
 6005TIP3   OH239573   0.015   1.324   6.806 -1.2204  0.1549 -0.0785
 6005TIP3    H139574   0.025   1.347   6.714 -1.5660  0.2206 -0.0980
 6005TIP3    H239575   0.033   1.230   6.810  1.5521  0.5896  0.1941
 6006TIP3   OH239576   4.139   4.791   7.914  0.0024  0.2840 -0.4482
 6006TIP3    H139577   4.207   4.831   7.860 -0.4305  1.0410 -0.4495
 6006TIP3    H239578   4.070   4.766   7.851 -0.1532  0.4367 -0.3408
 6007TIP3   OH239579   4.477   0.466   8.101 -0.1704  0.0508 -0.0454
 6007TIP3    H139580   4.391   0.461   8.059  0.0981 -2.3219 -0.4617
 6007TIP3    H239581   4.468   0.410   8.179  0.9176 -0.0246  0.0304
 6008TIP3   OH239582   3.634   4.709   7.738  0.4369  0.2764  0.4097
 6008TIP3    H139583   3.636   4.663   7.654  2.4930  0.1056  0.5108
 6008TIP3    H239584   3.621   4.801   7.714  0.0017  0.1143 -0.0097
 6009TIP3   OH239585   1.230   2.495   0.875  1.2315 -0.3709 -0.0924
 6009TIP3    H139586   1.264   2.452   0.797  2.1963  0.5199 -0.1845
 6009TIP3    H239587   1.217   2.586   0.848 -0.1510 -0.4370  0.2746
 6010TIP3   OH239588   6.100   4.530   7.730 -0.8600  0.0821  0.6279
 6010TIP3    H139589   6.141   4.601   7.680 -1.1856  0.9404  1.5257
 6010TIP3    H239590   6.028   4.500   7.674  0.4230 -0.8522 -0.5797
 6011TIP3   OH239591   1.676   3.815   1.922 -0.5157 -0.3592  0.3767
 6011TIP3    H139592   1.756   3.824   1.869  0.2135 -1.2784  1.2733
 6011TIP3    H239593   1.618   3.884   1.890  0.7202  0.4766 -0.1548
 6012TIP3   OH239594   1.590   3.943   8.265 -0.3392  0.0711  0.4661
 6012TIP3    H139595   1.656   3.874   8.257  1.5860  1.3937  3.1753
 6012TIP3    H239596   1.622   4.014   8.210  0.1818  0.4482  1.2313
 6013TIP3   OH239597   3.964   6.546   0.888 -0.1149 -0.6110 -0.6283
 6013TIP3    H139598   3.909   6.623   0.882  1.0350  0.2849 -0.1484
 6013TIP3    H239599   3.927   6.484   0.826  0.5449  1.3316 -3.1223
 6014TIP3   OH239600   1.535   0.821   7.501  0.2416 -0.1902 -0.2993
 6014TIP3    H139601   1.449   0.846   7.534  0.1681 -0.4978 -0.2528
 6014TIP3    H239602   1.517   0.754   7.434  0.4502 -0.3788 -0.1710
 6015TIP3   OH239603   3.708   0.660   1.314  0.2044 -0.2233 -0.0875
 6015TIP3    H139604   3.639   0.696   1.258  0.4042  1.2618  0.5783
 6015TIP3    H239605   3.779   0.639   1.254  0.4446  1.4122 -0.4208
 6016TIP3   OH239606   6.114   5.257   7.968  0.6229 -0.6523 -0.5547
 6016TIP3    H139607   6.128   5.348   7.992  0.8525 -1.0796  1.0976
 6016TIP3    H239608   6.026   5.254   7.931  0.0440  0.0184  0.7231
 6017TIP3   OH239609   5.639   3.518   0.142  0.4914 -0.2484 -0.5207
 6017TIP3    H139610   5.641   3.608   0.173 -1.2293 -0.1171 -0.7232
 6017TIP3    H239611   5.582   3.519   0.065 -1.1574 -1.8014  0.5993
 6018TIP3   OH239612   0.231   4.460   2.456  0.3605 -0.7731 -0.2734
 6018TIP3    H139613   0.244   4.536   2.512 -2.0919  0.0427 -0.6831
 6018TIP3    H239614   0.260   4.489   2.369 -0.2608 -0.3885 -0.3602
 6019TIP3   OH239615   4.673   0.922   0.152 -0.4854 -0.4167 -0.2017
 6019TIP3    H139616   4.758   0.963   0.168 -0.6305 -0.6204  1.2180
 6019TIP3    H239617   4.640   0.965   0.073  0.4632  0.4155 -0.1641
 6020TIP3   OH239618   4.777   3.033   8.113  0.1303 -0.5479 -0.2491
 6020TIP3    H139619   4.847   3.094   8.090  0.7023 -1.8413 -2.2146
 6020TIP3    H239620   4.714   3.042   8.042 -0.0987 -1.7375 -0.2194
 6021TIP3   OH239621   0.730   3.544   7.140  0.0031  0.7278  0.0795
 6021TIP3    H139622   0.766   3.456   7.147  1.4164  1.0370 -2.2280
 6021TIP3    H239623   0.639   3.531   7.113 -0.1846 -0.0075  1.0199
 6022TIP3   OH239624   1.397   3.884   7.782 -0.0361 -0.0675  0.0490
 6022TIP3    H139625   1.320   3.830   7.799  0.2721  0.0620  2.1883
 6022TIP3    H239626   1.412   3.930   7.864  2.0887  0.2181 -0.4384
 6023TIP3   OH239627   6.210   2.965   1.620  0.4151 -0.2942  0.0355
 6023TIP3    H139628   6.124   2.955   1.578  0.4219  0.0760 -0.0734
 6023TIP3    H239629   6.234   2.876   1.648 -1.2732 -0.0381  2.5984
 6024TIP3   OH239630   3.488   4.524   7.272  0.2961  0.1204  0.8005
 6024TIP3    H139631   3.555   4.456   7.273  0.1853 -0.0180 -0.2661
 6024TIP3    H239632   3.527   4.598   7.317  1.0673 -0.0489  0.4145
 6025TIP3   OH239633   5.875   1.430   8.442 -0.1180  0.1906 -0.3066
 6025TIP3    H139634   5.945   1.495   8.447  1.0983 -1.0747 -0.4147
 6025TIP3    H239635   5.889   1.385   8.359  0.4029 -1.6476  0.7182
 6026TIP3   OH239636   2.080   5.367   2.600 -0.6114 -0.3189 -0.4069
 6026TIP3    H139637   2.141   5.413   2.542 -0.1589  0.5930  0.7495
 6026TIP3    H239638   1.994   5.401   2.574 -0.4005  0.1873 -0.4654
 6027TIP3   OH239639   2.799   4.651   0.590 -1.0360 -0.1925  0.3188
 6027TIP3    H139640   2.749   4.572   0.571 -1.1190 -0.4233  1.4497
 6027TIP3    H239641   2.733   4.720   0.595 -1.1204 -0.2961  0.6725
 6028TIP3   OH239642   6.151   5.012   0.397  0.3057  0.1658 -0.2917
 6028TIP3    H139643   6.214   4.946   0.426 -0.3469 -1.2519 -1.9242
 6028TIP3    H239644   6.104   4.970   0.325 -1.2021  1.8789 -0.3724
 6029TIP3   OH239645   0.716   6.502   1.886 -0.4797 -0.3880 -0.4468
 6029TIP3    H139646   0.733   6.420   1.931 -1.5324  0.0463  0.8033
 6029TIP3    H239647   0.665   6.554   1.948 -0.5706  0.8805 -1.5273
 6030TIP3   OH239648   6.647   1.321   7.450 -0.3188 -0.0403 -0.0545
 6030TIP3    H139649   6.611   1.292   7.534 -0.6935 -0.2447 -0.2806
 6030TIP3    H239650   6.586   1.285   7.385  0.0679 -0.0364 -0.4212
 6031TIP3   OH239651   5.417   3.548   1.119  0.6376  0.0963  0.0354
 6031TIP3    H139652   5.424   3.553   1.214  2.3877 -0.7537 -0.0164
 6031TIP3    H239653   5.376   3.463   1.102  1.5491 -0.3470  0.0095
 6032TIP3   OH239654   5.460   2.289   1.554 -0.5620 -0.0405  0.1616
 6032TIP3    H139655   5.452   2.199   1.524 -0.6788 -0.0668  0.2700
 6032TIP3    H239656   5.522   2.284   1.627 -0.0039  0.0761 -0.2994
 6033TIP3   OH239657   5.062   5.152   2.460 -0.2260  0.2826  0.3716
 6033TIP3    H139658   5.082   5.216   2.529  1.0087 -0.6757  0.9341
 6033TIP3    H239659   5.121   5.079   2.477  0.7819  0.3906 -2.2711
 6034TIP3   OH239660   0.916   6.629   7.536  0.0120 -0.3655  0.4321
 6034TIP3    H139661   0.969   6.709   7.541 -0.3413 -0.0579 -0.5903
 6034TIP3    H239662   0.940   6.580   7.615  3.5994 -1.3193 -1.0435
 6035TIP3   OH239663   3.417   0.688   1.437 -0.6165 -1.0620 -0.2762
 6035TIP3    H139664   3.414   0.784   1.444  1.8301 -1.0459  2.0377
 6035TIP3    H239665   3.503   0.669   1.400 -1.0339 -2.4065 -0.6050
 6036TIP3   OH239666   5.752   3.851   1.565 -0.3142  0.1296  0.5397
 6036TIP3    H139667   5.785   3.941   1.566  0.3905 -0.0497 -1.5479
 6036TIP3    H239668   5.658   3.859   1.549 -0.0445  0.5089 -1.0376
 6037TIP3   OH239669   0.234   5.693   1.446  0.0727 -0.2374  0.3089
 6037TIP3    H139670   0.233   5.653   1.359  0.4444 -0.3101  0.3373
 6037TIP3    H239671   0.326   5.717   1.461  0.3209 -1.7324  1.3796
 6038TIP3   OH239672   5.154   6.154   7.276  0.0424  0.4161  0.1465
 6038TIP3    H139673   5.168   6.188   7.188  0.5162  1.0314  0.4604
 6038TIP3    H239674   5.116   6.227   7.324  0.5447  0.3327  0.6740
 6039TIP3   OH239675   0.261   1.924   7.945  0.2605  0.2556  0.2849
 6039TIP3    H139676   0.203   1.964   8.010  1.4091 -1.2519  2.3750
 6039TIP3    H239677   0.311   1.997   7.909 -1.6644  1.3531 -0.3168
 6040TIP3   OH239678   6.033   3.198   0.752 -0.1840  0.4421 -0.0130
 6040TIP3    H139679   6.087   3.237   0.684  0.2544  0.5833  0.4042
 6040TIP3    H239680   6.090   3.196   0.829 -0.9995  1.2585  0.6407
 6041TIP3   OH239681   2.987   4.630   8.054  0.2705  0.6630  0.2530
 6041TIP3    H139682   3.033   4.577   7.988  0.3751 -0.1786  0.9744
 6041TIP3    H239683   2.935   4.566   8.103 -1.3068  1.5319 -0.2315
 6042TIP3   OH239684   5.635   4.470   0.601  0.1515  0.2759 -0.5271
 6042TIP3    H139685   5.543   4.470   0.626  0.1439 -2.3842 -0.2551
 6042TIP3    H239686   5.683   4.481   0.683  0.0578 -0.6301 -0.3362
 6043TIP3   OH239687   4.993   6.673   6.701  0.1785 -0.1931 -0.0097
 6043TIP3    H139688   5.050   6.598   6.684  0.0957 -0.1411 -0.5133
 6043TIP3    H239689   4.933   6.641   6.769  0.3067 -0.5000 -0.0360
 6044TIP3   OH239690   1.699   3.909   7.931 -0.2535  0.4562 -0.4569
 6044TIP3    H139691   1.715   3.928   7.839  1.9248 -1.5330 -0.5867
 6044TIP3    H239692   1.680   3.815   7.933  2.0500 -0.0688  1.2880
 6045TIP3   OH239693   3.125   3.453   2.267  1.0567 -0.4715  0.4870
 6045TIP3    H139694   3.045   3.484   2.311  0.1116 -0.4370 -1.1542
 6045TIP3    H239695   3.131   3.360   2.291  0.8070 -0.3477  1.0349
 6046TIP3   OH239696   3.914   3.393   0.742 -0.3355  0.2161 -0.2342
 6046TIP3    H139697   3.965   3.427   0.816  2.3523 -1.8530 -0.9510
 6046TIP3    H239698   3.911   3.466   0.680  0.5078  0.8816  0.4672
 6047TIP3   OH239699   4.939   1.300   8.420 -0.0789  0.0170  0.4508
 6047TIP3    H139700   4.910   1.297   8.329 -0.8958 -1.3239  0.7265
 6047TIP3    H239701   4.965   1.211   8.441  1.3864  0.5688  1.1585
 6048TIP3   OH239702   5.666   3.271   7.390 -0.4816 -0.0009  0.1479
 6048TIP3    H139703   5.694   3.301   7.303 -2.9810  1.4711 -0.2542
 6048TIP3    H239704   5.635   3.182   7.375  1.2515 -0.6280  0.0598
 6049TIP3   OH239705   4.243   4.832   0.629  0.0658  0.3455  0.1286
 6049TIP3    H139706   4.231   4.750   0.581  1.8503 -0.2731  0.6772
 6049TIP3    H239707   4.337   4.848   0.627 -0.0136  1.2694  1.8546
 6050TIP3   OH239708   5.637   3.977   7.927  0.6003 -0.1174 -0.5539
 6050TIP3    H139709   5.662   3.923   7.852  1.5787  0.4084 -0.6174
 6050TIP3    H239710   5.702   3.959   7.994 -0.7622 -1.2452  0.5263
 6051TIP3   OH239711   0.225   5.383   8.189  0.1993  0.6369 -0.3495
 6051TIP3    H139712   0.209   5.357   8.098  0.5185  1.5678 -0.6901
 6051TIP3    H239713   0.184   5.469   8.197 -1.2089 -0.0997  0.8679
 6052TIP3   OH239714   4.313   2.739   8.142 -0.1540 -0.6036 -0.5396
 6052TIP3    H139715   4.293   2.694   8.060  0.2210 -1.2134 -0.3014
 6052TIP3    H239716   4.303   2.672   8.209  2.4326 -0.9166 -0.3717
 6053TIP3   OH239717   6.540   0.474   6.475 -0.0436  0.0529 -0.4781
 6053TIP3    H139718   6.594   0.417   6.420 -0.2025 -0.2310 -0.3462
 6053TIP3    H239719   6.453   0.470   6.434 -0.4037 -0.9194  0.3221
 6054TIP3   OH239720   4.442   3.396   8.455 -0.0890 -0.1321 -0.4414
 6054TIP3    H139721   4.461   3.422   8.364  0.0225  0.4928 -0.2463
 6054TIP3    H239722   4.527   3.389   8.497  0.0457 -2.9342 -1.0151
 6055TIP3   OH239723   4.725   4.578   1.031  0.3358  0.8390 -0.0281
 6055TIP3    H139724   4.724   4.495   0.982  0.9855  0.0478  1.2551
 6055TIP3    H239725   4.814   4.585   1.063 -0.2098  1.0694  1.4896
 6056TIP3   OH239726   1.056   4.709   0.524 -0.5485 -0.2314 -0.2355
 6056TIP3    H139727   1.089   4.797   0.508 -0.3044 -0.3073 -0.1655
 6056TIP3    H239728   0.983   4.721   0.585 -1.1487  0.0087 -0.9839
 6057TIP3   OH239729   6.349   2.774   6.580  0.2035 -0.2333  0.2628
 6057TIP3    H139730   6.283   2.767   6.648  0.8993 -1.8239  0.7995
 6057TIP3    H239731   6.303   2.815   6.506 -0.7105  0.9510  1.4347
 6058TIP3   OH239732   3.791   3.575   7.180 -0.1129  0.4832  0.2341
 6058TIP3    H139733   3.714   3.519   7.188 -0.8783  1.4745 -0.0135
 6058TIP3    H239734   3.771   3.633   7.107  0.4874  1.3533  0.7455
 6059TIP3   OH239735   3.636   4.888   0.058  0.4860  0.0419  0.2821
 6059TIP3    H139736   3.645   4.793   0.064  0.6452  0.0013 -0.4024
 6059TIP3    H239737   3.544   4.902   0.037  0.6918 -0.0480 -0.7807
 6060TIP3   OH239738   5.240   1.924   1.595  0.3260 -0.3686  0.3378
 6060TIP3    H139739   5.262   1.996   1.654 -0.5940  0.1017  0.1203
 6060TIP3    H239740   5.323   1.878   1.581  1.0147  0.8880  0.1470
 6061TIP3   OH239741   5.529   5.305   7.175 -0.2342  0.7488  0.3231
 6061TIP3    H139742   5.532   5.240   7.105 -1.8635  1.4538 -0.4505
 6061TIP3    H239743   5.612   5.352   7.168 -0.4651  0.9795 -1.3490
 6062TIP3   OH239744   5.327   1.872   0.836 -0.0714  0.7895  1.0847
 6062TIP3    H139745   5.232   1.882   0.827 -0.3340 -1.4758  0.7895
 6062TIP3    H239746   5.339   1.782   0.865  2.0969 -0.2404 -2.3519
 6063TIP3   OH239747   6.733   3.583   7.791  0.1448  0.5955  0.3853
 6063TIP3    H139748   6.805   3.526   7.765 -0.9513 -0.3913 -0.5966
 6063TIP3    H239749   6.664   3.523   7.820 -1.2352  1.3425 -1.1774
 6064TIP3   OH239750   6.554   1.115   8.596  0.1670 -0.4893 -0.0170
 6064TIP3    H139751   6.470   1.131   8.638  0.6404  1.1539  0.3784
 6064TIP3    H239752   6.544   1.029   8.554 -1.2559 -0.8948  1.0834
 6065TIP3   OH239753   2.568   3.632   7.840 -0.3926 -0.2093  0.3603
 6065TIP3    H139754   2.600   3.579   7.767  0.5495  1.8282 -0.7937
 6065TIP3    H239755   2.504   3.691   7.801  0.9953  1.7410  0.8575
 6066TIP3   OH239756   4.817   6.460   1.609 -0.3616 -0.3571 -0.3107
 6066TIP3    H139757   4.894   6.495   1.565  0.8297 -0.2825  1.7287
 6066TIP3    H239758   4.830   6.365   1.608 -1.8102 -0.6247 -2.6189
 6067TIP3   OH239759   1.804   1.129   2.876  0.1533 -0.7313 -0.1589
 6067TIP3    H139760   1.738   1.061   2.894  0.8173 -1.3397  0.0600
 6067TIP3    H239761   1.842   1.104   2.792  0.0770 -0.3672 -0.3004
 6068TIP3   OH239762   5.473   1.718   1.681 -0.1438  0.3027  0.1974
 6068TIP3    H139763   5.425   1.748   1.758 -0.2313  1.4871 -0.2948
 6068TIP3    H239764   5.408   1.668   1.631 -0.7215  1.3874 -0.1690
 6069TIP3   OH239765   0.866   4.120   0.005  0.0915  0.0636  0.0013
 6069TIP3    H139766   0.864   4.118   0.101 -0.8796 -1.0591 -0.0200
 6069TIP3    H239767   0.887   4.211  -0.016  2.6038 -0.1315  1.2712
 6070TIP3   OH239768   4.917   2.534   6.840  0.6175 -0.3774  0.2959
 6070TIP3    H139769   4.864   2.540   6.760  0.2899 -0.7083  0.4878
 6070TIP3    H239770   4.864   2.575   6.907  0.7258 -0.4547  0.4285
 6071TIP3   OH239771   1.126   0.198   6.941 -0.4555 -0.3124  0.5584
 6071TIP3    H139772   1.153   0.110   6.914 -0.9352  0.2284 -1.9755
 6071TIP3    H239773   1.200   0.233   6.989  0.3225 -1.5731  0.3190
 6072TIP3   OH239774   6.130   6.546   6.978 -0.3486  0.0072 -0.2935
 6072TIP3    H139775   6.065   6.525   6.911  0.9680 -1.2863 -1.2357
 6072TIP3    H239776   6.191   6.604   6.935  0.0775 -0.1940  0.0326
 6073TIP3   OH239777   6.269   0.638   1.736  1.1928 -0.0282  0.1016
 6073TIP3    H139778   6.269   0.697   1.661  0.9291  1.8428  1.4912
 6073TIP3    H239779   6.357   0.647   1.774  1.0541 -0.2980  0.4998
 6074TIP3   OH239780   6.646   6.545   7.490  0.5179  0.5884 -0.1471
 6074TIP3    H139781   6.677   6.516   7.576  1.5645  0.7479 -0.4487
 6074TIP3    H239782   6.587   6.618   7.509 -0.9331 -0.6993  0.5250
 6075TIP3   OH239783   4.442   0.850   7.662  0.2922  0.8769 -0.1060
 6075TIP3    H139784   4.396   0.829   7.743  1.1099  2.7494  0.8992
 6075TIP3    H239785   4.479   0.767   7.633  1.2350  0.3950  2.2653
 6076TIP3   OH239786   3.140   2.885   7.451  0.0810  0.0702 -0.0489
 6076TIP3    H139787   3.198   2.960   7.463 -0.0603  0.3026 -0.7603
 6076TIP3    H239788   3.133   2.875   7.356 -2.1203  0.8915 -0.0311
 6077TIP3   OH239789   6.033   5.585   0.512  0.2486  0.4118 -1.0288
 6077TIP3    H139790   5.995   5.607   0.597  2.3154 -0.5577  0.2105
 6077TIP3    H239791   5.993   5.501   0.490  0.0549  0.4384 -0.7890
 6078TIP3   OH239792   0.479   6.782   7.913  0.4629  0.0276  0.2616
 6078TIP3    H139793   0.443   6.849   7.971  0.6632  0.8411 -0.5316
 6078TIP3    H239794   0.415   6.773   7.843  1.5188  1.1982 -0.9448
 6079TIP3   OH239795   0.169   4.111   0.880 -0.4282 -0.0092 -0.3908
 6079TIP3    H139796   0.099   4.130   0.817  0.5622 -0.3996 -1.6492
 6079TIP3    H239797   0.172   4.015   0.885 -1.4048  0.0050  1.3451
 6080TIP3   OH239798   0.863   4.325   2.307 -0.1273  0.4546  0.2316
 6080TIP3    H139799   0.947   4.281   2.320  1.0889  2.7213  0.4108
 6080TIP3    H239800   0.878   4.386   2.235 -1.4778  1.2543  0.5992
 6081TIP3   OH239801   3.839   3.816   7.602  0.2373 -0.2393  0.5840
 6081TIP3    H139802   3.862   3.728   7.630  0.2145 -0.9009 -1.2923
 6081TIP3    H239803   3.888   3.828   7.520 -3.0254 -0.2632 -1.5829
 6082TIP3   OH239804   3.089   0.910   0.724 -0.1754  0.1350  0.2606
 6082TIP3    H139805   3.116   0.999   0.703  1.3894 -0.1709  0.8574
 6082TIP3    H239806   3.020   0.920   0.789 -0.0999  0.9131  0.2269
 6083TIP3   OH239807   1.225   4.957   6.900  0.1372  0.5041 -0.4059
 6083TIP3    H139808   1.148   4.944   6.844 -1.3993 -0.3961  1.7991
 6083TIP3    H239809   1.278   4.879   6.886 -0.4841  0.0471 -0.2646
 6084TIP3   OH239810   0.391   0.496   1.788  0.6364 -0.0082  0.2050
 6084TIP3    H139811   0.476   0.453   1.790  0.5101 -0.2484  1.2061
 6084TIP3    H239812   0.400   0.569   1.850 -0.1274 -0.5463  0.9804
 6085TIP3   OH239813   6.664   2.918   8.445 -0.2219 -0.4260 -0.0110
 6085TIP3    H139814   6.683   2.909   8.538 -1.8894 -0.7629  0.3342
 6085TIP3    H239815   6.618   2.838   8.421  1.0378 -0.7881 -1.3919
 6086TIP3   OH239816   5.992   2.034   1.444 -0.2279  0.1746  0.1296
 6086TIP3    H139817   6.066   2.094   1.439 -0.5062  0.4385 -1.4895
 6086TIP3    H239818   6.021   1.956   1.397 -0.5224 -0.2509  0.6390
 6087TIP3   OH239819   2.364   6.432   0.700  0.2840 -0.5116  0.6626
 6087TIP3    H139820   2.451   6.416   0.664  0.6579  0.5025  1.0557
 6087TIP3    H239821   2.368   6.397   0.789  1.6251  2.8173  2.1065
 6088TIP3   OH239822   3.046   4.525   1.028 -0.3316  0.0771 -0.0342
 6088TIP3    H139823   3.074   4.600   1.080  1.6355 -0.8882  0.4007
 6088TIP3    H239824   2.975   4.558   0.974  0.5703  2.2955  0.0454
 6089TIP3   OH239825   6.020   5.003   7.046 -0.1830  0.6181 -0.3441
 6089TIP3    H139826   5.977   5.084   7.073 -0.1169  0.6726 -0.4020
 6089TIP3    H239827   6.114   5.024   7.045 -0.0002  0.0513  1.3634
 6090TIP3   OH239828   6.567   3.480   8.598 -0.9281 -0.2232  0.7027
 6090TIP3    H139829   6.652   3.521   8.591 -1.2842  0.6151  1.1616
 6090TIP3    H239830   6.508   3.537   8.548 -1.4506 -0.0822  1.4570
 6091TIP3   OH239831   3.476   1.812   7.851 -0.4312  0.6691 -0.2608
 6091TIP3    H139832   3.459   1.718   7.838 -1.3507  0.8352 -0.3082
 6091TIP3    H239833   3.552   1.829   7.796 -1.9224  0.5156 -2.5062
 6092TIP3   OH239834   3.257   3.763   7.208 -0.1142  0.1775  0.4469
 6092TIP3    H139835   3.190   3.793   7.146 -1.2792  0.4559  1.7946
 6092TIP3    H239836   3.322   3.833   7.208  0.1713 -0.0545 -0.8097
 6093TIP3   OH239837   6.362   5.593   8.533  0.1647 -0.1335 -0.4298
 6093TIP3    H139838   6.372   5.686   8.550  0.7355 -0.2962  0.1718
 6093TIP3    H239839   6.450   5.557   8.546 -0.1432 -0.8213 -0.2014
 6094TIP3   OH239840   3.484   3.385   7.882  0.2147  0.1096  0.6299
 6094TIP3    H139841   3.564   3.351   7.922 -0.3953 -1.4062  0.6597
 6094TIP3    H239842   3.508   3.404   7.791  0.9074  0.8833  0.9622
 6095TIP3   OH239843   6.108   1.712   7.280 -0.1020  0.3337 -0.2595
 6095TIP3    H139844   6.170   1.646   7.311 -0.8064 -1.5781 -2.5662
 6095TIP3    H239845   6.163   1.785   7.253  1.0546 -0.6494 -0.7065
 6096TIP3   OH239846   0.259   0.301   1.165  0.6958 -0.2825 -0.4374
 6096TIP3    H139847   0.336   0.355   1.151 -0.2964  1.1221 -0.7264
 6096TIP3    H239848   0.234   0.316   1.256  1.2646 -1.4282 -0.0838
 6097TIP3   OH239849   1.050   5.410   1.804  0.1440 -0.1232 -0.2444
 6097TIP3    H139850   0.971   5.442   1.847  0.2692  0.1996 -0.2462
 6097TIP3    H239851   1.048   5.315   1.816 -1.1230 -0.3158 -1.7639
 6098TIP3   OH239852   0.501   2.528   0.121 -0.8138 -0.2179 -0.1664
 6098TIP3    H139853   0.500   2.622   0.101 -1.5590 -0.1449  0.1577
 6098TIP3    H239854   0.568   2.519   0.188 -1.3740  0.2476  0.4796
 6099TIP3   OH239855   1.298   1.181   1.672 -0.2891  0.0989 -0.1332
 6099TIP3    H139856   1.308   1.086   1.662  2.5965  0.3677 -0.6472
 6099TIP3    H239857   1.240   1.207   1.600  0.8099 -1.0104 -1.4664
 6100TIP3   OH239858   2.662   3.102   0.106 -0.4461 -0.2628  0.3931
 6100TIP3    H139859   2.681   3.150   0.025 -0.9820 -1.1635 -0.2824
 6100TIP3    H239860   2.585   3.049   0.084  0.3162 -1.6566  1.0392
 6101TIP3   OH239861   5.966   4.352   2.604  0.0633  0.2791  0.0126
 6101TIP3    H139862   6.000   4.335   2.692  0.5688  0.6775 -0.1010
 6101TIP3    H239863   6.010   4.433   2.576  2.2116 -1.3457 -1.7670
 6102TIP3   OH239864   5.386   0.957   2.490 -0.9979 -1.1743 -0.1403
 6102TIP3    H139865   5.470   1.001   2.498 -1.4986 -0.0242 -0.9201
 6102TIP3    H239866   5.396   0.899   2.415 -0.6241 -1.7403  0.3352
 6103TIP3   OH239867   0.260   0.690   6.736 -0.3605 -0.6001 -0.2796
 6103TIP3    H139868   0.206   0.697   6.815 -1.3516 -0.2593 -0.9711
 6103TIP3    H239869   0.201   0.654   6.670  0.6366 -1.5159 -0.7026
 6104TIP3   OH239870   5.135   0.163   1.856  0.4901 -0.1188 -0.4166
 6104TIP3    H139871   5.097   0.080   1.885  0.2359  0.2428  0.3190
 6104TIP3    H239872   5.223   0.140   1.827  0.2463 -0.7244 -0.7045
 6105TIP3   OH239873   4.305   3.913   7.667 -0.1590  0.1780 -0.2159
 6105TIP3    H139874   4.227   3.913   7.610  0.6695 -0.5415 -1.3895
 6105TIP3    H239875   4.333   3.822   7.669  0.9105  0.5043 -0.1495
 6106TIP3   OH239876   4.938   0.122   0.318  0.3331  0.8046  0.1949
 6106TIP3    H139877   4.945   0.050   0.380 -0.3298  1.1047  0.6288
 6106TIP3    H239878   5.028   0.138   0.289  0.3177 -1.5115 -1.4575
 6107TIP3   OH239879   0.824   2.022   7.472 -0.1483 -1.0967 -0.4054
 6107TIP3    H139880   0.791   1.948   7.523 -1.0963 -1.4780 -1.5227
 6107TIP3    H239881   0.758   2.036   7.405  0.4674  0.1888 -0.7767
 6108TIP3   OH239882   1.102   2.235   2.671 -0.1947 -0.6836  0.2249
 6108TIP3    H139883   1.128   2.167   2.733  1.4310 -0.3551 -0.0462
 6108TIP3    H239884   1.118   2.317   2.719 -0.2795 -0.4580 -0.1326
 6109TIP3   OH239885   3.250   5.730   0.507  0.1879 -0.5807  0.1719
 6109TIP3    H139886   3.244   5.642   0.469  0.3586  0.1299 -1.5901
 6109TIP3    H239887   3.225   5.788   0.436  1.3797  0.8855  0.9015
 6110TIP3   OH239888   0.334   2.077   2.305 -0.6250 -0.1539  0.1515
 6110TIP3    H139889   0.387   2.149   2.340 -0.8307  0.5768 -0.9792
 6110TIP3    H239890   0.265   2.065   2.370 -0.9809  1.1430  0.0489
 6111TIP3   OH239891   1.004   3.371   2.523 -0.2237 -0.2635  0.6082
 6111TIP3    H139892   1.022   3.446   2.466 -1.8441  0.4061  0.9404
 6111TIP3    H239893   0.957   3.408   2.598 -2.7864 -1.8246 -0.1210
 6112TIP3   OH239894   4.134   3.641   1.634  0.3927 -0.1600 -0.0053
 6112TIP3    H139895   4.210   3.592   1.665  0.8069  0.3030 -0.2929
 6112TIP3    H239896   4.159   3.672   1.547  0.5024  1.3766  0.5514
 6113TIP3   OH239897   5.503   3.949   8.302  0.1237  0.1066 -0.1103
 6113TIP3    H139898   5.508   4.041   8.328 -0.9840  0.6494 -1.6275
 6113TIP3    H239899   5.593   3.926   8.278  0.0870  1.5032 -1.8048
 6114TIP3   OH239900   2.927   0.700   7.142  0.4063  0.3389 -0.4083
 6114TIP3    H139901   2.851   0.724   7.195 -1.0166 -2.6152 -0.8815
 6114TIP3    H239902   2.940   0.774   7.083 -2.0062  1.0213 -0.1861
 6115TIP3   OH239903   2.224   5.270   1.577  0.4145  0.6226  0.1417
 6115TIP3    H139904   2.247   5.206   1.509 -0.6841 -1.4430  1.5928
 6115TIP3    H239905   2.308   5.295   1.616  0.8938  0.2036 -0.6041
 6116TIP3   OH239906   3.581   5.048   0.714 -0.1210 -0.1367 -0.3220
 6116TIP3    H139907   3.571   5.124   0.773  3.0993  1.8715 -2.0846
 6116TIP3    H239908   3.528   5.071   0.637  0.0486 -0.1452 -0.4417
 6117TIP3   OH239909   5.258   4.962   0.780  0.3596 -0.3499 -0.1627
 6117TIP3    H139910   5.241   5.053   0.800 -0.8636 -0.2750 -1.3477
 6117TIP3    H239911   5.326   4.935   0.842  0.9843  1.4388 -0.0118
 6118TIP3   OH239912   6.813   6.752   0.527 -0.9052  0.1885  0.4690
 6118TIP3    H139913   6.724   6.774   0.556 -0.0657  0.8925  2.7508
 6118TIP3    H239914   6.828   6.664   0.560 -0.3072  0.5807  1.2672
 6119TIP3   OH239915   1.223   3.714   2.188  0.3280 -0.2320  0.4516
 6119TIP3    H139916   1.237   3.770   2.265  0.1941  1.6949 -0.8389
 6119TIP3    H239917   1.297   3.733   2.131  1.3512 -2.9287  0.7446
 6120TIP3   OH239918   6.710   5.883   7.791  0.2337 -0.2919  0.1024
 6120TIP3    H139919   6.618   5.857   7.786  0.7890 -3.2350  2.1936
 6120TIP3    H239920   6.755   5.824   7.730  0.8277  0.7313 -0.4707
 6121TIP3   OH239921   1.009   4.043   2.947 -0.3395 -0.1705  0.8785
 6121TIP3    H139922   0.916   4.024   2.950 -0.3111 -0.5323 -0.1481
 6121TIP3    H239923   1.015   4.135   2.923 -0.4332  0.1933  2.1818
 6122TIP3   OH239924   4.658   6.379   0.845  0.6698 -0.1309  0.4048
 6122TIP3    H139925   4.597   6.411   0.912  2.1829 -0.2239  1.8937
 6122TIP3    H239926   4.668   6.452   0.784  0.7860  0.6931  1.3959
 6123TIP3   OH239927   6.794   0.366   2.303  0.7572  0.0488  0.0704
 6123TIP3    H139928   6.882   0.399   2.285  1.2942 -0.9431  0.7780
 6123TIP3    H239929   6.754   0.434   2.358  0.6293  1.0626 -1.2156
 6124TIP3   OH239930   2.074   5.197   8.565 -0.0488  0.1272  0.0037
 6124TIP3    H139931   2.019   5.273   8.548  0.1800  0.2185 -0.3458
 6124TIP3    H239932   2.036   5.156   8.643  0.1657  0.9148  0.5258
 6125TIP3   OH239933   4.090   5.266   0.905 -0.4076 -0.1097 -0.2467
 6125TIP3    H139934   4.133   5.350   0.885  0.3503 -0.1750  1.0521
 6125TIP3    H239935   4.147   5.200   0.865  0.3929 -0.1532  0.9233
 6126TIP3   OH239936   3.965   4.333   8.185  0.5730 -0.3981  0.3764
 6126TIP3    H139937   3.995   4.285   8.108 -0.4001 -0.7412  0.1929
 6126TIP3    H239938   3.946   4.421   8.153 -1.0257 -0.8776 -0.0739
 6127TIP3   OH239939   4.412   6.605   8.335  0.5582 -0.8186 -0.0411
 6127TIP3    H139940   4.456   6.564   8.409  0.5057  1.3062  1.2207
 6127TIP3    H239941   4.475   6.668   8.301 -0.0563 -0.5612 -0.7338
 6128TIP3   OH239942   3.879   1.567   7.851  0.2289  0.1761  0.5588
 6128TIP3    H139943   3.936   1.535   7.921  1.1324  2.5744  1.0034
 6128TIP3    H239944   3.861   1.658   7.874  0.9647  1.2224 -2.5701
 6129TIP3   OH239945   1.917   1.647   8.346  0.2929 -0.0452 -0.3098
 6129TIP3    H139946   1.906   1.569   8.401 -0.8047 -0.2737 -0.8309
 6129TIP3    H239947   1.928   1.719   8.409 -3.1251  0.0595  0.3670
 6130TIP3   OH239948   5.041   3.006   0.494 -0.1099  0.1313 -0.4133
 6130TIP3    H139949   5.050   3.021   0.400  0.1413  0.0380 -0.4052
 6130TIP3    H239950   4.952   3.033   0.515  0.1949  1.2275 -0.4804
 6131TIP3   OH239951   6.437   5.008   7.767 -0.3539  0.2878 -0.1008
 6131TIP3    H139952   6.348   5.043   7.758 -1.2849 -1.2052  2.2955
 6131TIP3    H239953   6.439   4.970   7.855  2.3799 -0.5847 -0.4394
 6132TIP3   OH239954   2.312   0.260   1.585  0.2704 -0.4656  0.0605
 6132TIP3    H139955   2.369   0.217   1.649  0.8055 -0.4952 -0.4279
 6132TIP3    H239956   2.372   0.294   1.519 -0.3239 -1.2984 -0.9450
 6133TIP3   OH239957   4.248   0.155   8.467  0.8366 -0.3724  0.4146
 6133TIP3    H139958   4.288   0.218   8.407  1.3826 -0.4663  0.6729
 6133TIP3    H239959   4.321   0.122   8.519  0.2170  0.5871  1.9687
 6134TIP3   OH239960   3.934   6.785   7.715 -0.0215 -0.2843 -0.5617
 6134TIP3    H139961   3.868   6.848   7.743 -1.1736 -1.8967  0.5613
 6134TIP3    H239962   4.011   6.805   7.767 -0.7678 -0.5376  0.6757
 6135TIP3   OH239963   4.588   1.445   1.102  0.3085  0.2578 -0.5036
 6135TIP3    H139964   4.638   1.408   1.029  0.5792 -0.1573 -0.1142
 6135TIP3    H239965   4.604   1.539   1.096  3.3271 -0.0247  1.1330
 6136TIP3   OH239966   1.988   0.005   0.885 -0.6008  0.5036 -0.0860
 6136TIP3    H139967   2.069   0.044   0.851  0.3747 -0.9217  0.4713
 6136TIP3    H239968   1.926   0.011   0.813  0.3589  0.6200 -0.9189
 6137TIP3   OH239969   0.805   0.459   7.873  0.7584 -0.0474 -0.0152
 6137TIP3    H139970   0.806   0.369   7.840  0.8102 -0.0287 -0.0650
 6137TIP3    H239971   0.727   0.498   7.833 -0.8397 -0.8537  2.1232
 6138TIP3   OH239972   5.863   2.162   1.103  0.1156 -0.0364  0.0072
 6138TIP3    H139973   5.820   2.077   1.105  0.7724 -0.4645 -1.8508
 6138TIP3    H239974   5.821   2.208   1.029  1.8132  0.0626 -0.9484
 6139TIP3   OH239975   3.211   2.090   8.606  0.6079  0.0114  0.4827
 6139TIP3    H139976   3.154   2.166   8.596  0.6876  0.3433  2.1699
 6139TIP3    H239977   3.152   2.015   8.608  0.0553  0.4087  3.0037
 6140TIP3   OH239978   1.524   6.148   0.376 -0.2433  0.1855 -0.0476
 6140TIP3    H139979   1.497   6.230   0.335 -0.6972  1.1781  2.0894
 6140TIP3    H239980   1.600   6.172   0.430 -0.4641 -0.7513  0.7122
 6141TIP3   OH239981   2.841   4.609   0.872 -0.2609  0.5558 -0.1810
 6141TIP3    H139982   2.863   4.593   0.781 -2.1904  1.4974 -0.8652
 6141TIP3    H239983   2.753   4.573   0.883 -0.9709  2.4042  0.6728
 6142TIP3   OH239984   2.171   1.118   1.483  0.1300 -0.1473 -0.1551
 6142TIP3    H139985   2.089   1.167   1.492  0.2720 -0.0326  0.5618
 6142TIP3    H239986   2.145   1.026   1.488  0.0136 -0.1145 -0.1584
 6143TIP3   OH239987   0.708   1.814   2.300  0.3121 -0.0704  0.1043
 6143TIP3    H139988   0.768   1.742   2.280  0.0845 -0.0362 -0.7367
 6143TIP3    H239989   0.633   1.772   2.343  0.1940 -0.3316 -0.3555
 6144TIP3   OH239990   2.188   5.608   1.278  0.2955  0.1572 -0.1932
 6144TIP3    H139991   2.139   5.649   1.208 -0.7802 -1.7054 -0.5849
 6144TIP3    H239992   2.122   5.570   1.335  1.2315 -0.4640  0.5080
 6145TIP3   OH239993   2.151   6.001   0.650  0.5810  0.1414 -0.1550
 6145TIP3    H139994   2.197   6.030   0.729  1.1703 -1.2546  0.0413
 6145TIP3    H239995   2.194   6.048   0.579 -0.4854  2.0342  0.3893
 6146TIP3   OH239996   6.819   0.078   0.030  0.1033  0.0067  0.4698
 6146TIP3    H139997   6.751   0.144   0.042  0.4037  0.5023 -0.4464
 6146TIP3    H239998   6.841   0.050   0.119 -0.4584  0.6944  0.8389
 6147TIP3   OH239999   1.225   5.593   1.710 -0.0697 -0.1055  0.4925
 6147TIP3    H140000   1.153   5.532   1.727 -0.7369  1.0432  1.9561
 6147TIP3    H240001   1.211   5.664   1.772  1.3988  0.9477 -0.3426
 6148TIP3   OH240002   2.218   5.881   1.423 -0.3095 -0.1062  0.3244
 6148TIP3    H140003   2.126   5.900   1.408  0.4795  2.6691 -1.8398
 6148TIP3    H240004   2.244   5.827   1.349  0.2267  0.9260 -0.2669
 6149TIP3   OH240005   0.051   4.181   8.507 -0.1163 -0.0848  0.2885
 6149TIP3    H140006   0.033   4.112   8.443 -0.7382  1.1566 -0.9292
 6149TIP3    H240007  -0.004   4.159   8.582 -1.4257 -0.1389 -0.6639
 6150TIP3   OH240008   2.825   1.844   7.234  0.1015 -0.2820  0.1604
 6150TIP3    H140009   2.879   1.764   7.240 -1.1463 -1.4292 -2.3201
 6150TIP3    H240010   2.886   1.911   7.203  0.2772 -1.4856 -2.3187
 6151TIP3   OH240011   3.985   5.650   8.547  0.1392  0.1011  0.4871
 6151TIP3    H140012   3.950   5.578   8.494 -0.7498  1.3531 -0.6909
 6151TIP3    H240013   3.928   5.653   8.624  1.0780 -1.3468  1.3035
 6152TIP3   OH240014   5.999   5.852   2.134  0.4689 -0.0300 -0.0159
 6152TIP3    H140015   6.003   5.794   2.210 -0.5780 -0.8232 -0.5421
 6152TIP3    H240016   5.907   5.855   2.111  0.6808  0.7921 -0.8275
 6153TIP3   OH240017   2.986   5.001   7.542 -0.0961  0.4235  0.2953
 6153TIP3    H140018   2.998   4.912   7.508  0.1918  1.1547 -1.7051
 6153TIP3    H240019   2.891   5.012   7.548 -0.1250 -0.3979  1.7412
 6154TIP3   OH240020   1.144   6.057   1.144  0.0064  0.1772  0.3345
 6154TIP3    H140021   1.190   6.126   1.097  0.7597 -0.3215  0.3229
 6154TIP3    H240022   1.188   6.052   1.229  2.3099 -2.6027 -0.8783
 6155TIP3   OH240023   1.098   3.482   8.488 -0.0007  0.0668 -0.3699
 6155TIP3    H140024   1.067   3.485   8.397  2.0941 -1.6905 -1.2246
 6155TIP3    H240025   1.055   3.404   8.525 -1.1363  0.9852  0.3044
 6156TIP3   OH240026   0.046   6.314   8.254 -0.1313  1.0188 -0.2278
 6156TIP3    H140027   0.137   6.289   8.235  0.1017  2.5323 -1.2688
 6156TIP3    H240028   0.010   6.341   8.170 -1.4868  0.6947  0.2209
 6157TIP3   OH240029   1.686   5.609   3.100 -0.0412 -0.4802  0.3078
 6157TIP3    H140030   1.670   5.663   3.023 -1.6237 -2.4429 -0.8710
 6157TIP3    H240031   1.763   5.557   3.077  1.2365  0.8973  1.2779
 6158TIP3   OH240032   6.353   2.458   7.748  0.1580 -0.4202 -0.4957
 6158TIP3    H140033   6.360   2.513   7.826  1.6315  0.2214 -1.0339
 6158TIP3    H240034   6.276   2.403   7.764 -0.3722  0.6351  0.7943
 6159TIP3   OH240035   0.115   3.828   0.188 -0.4823  0.4560  0.6069
 6159TIP3    H140036   0.034   3.835   0.137 -0.6639  0.5209  0.9057
 6159TIP3    H240037   0.180   3.874   0.135 -0.5607  0.1043  0.1957
 6160TIP3   OH240038   3.453   0.830   7.100 -0.1678 -0.2101  0.1891
 6160TIP3    H140039   3.537   0.818   7.144 -0.4450  1.4076  1.2421
 6160TIP3    H240040   3.475   0.878   7.021 -0.0683 -0.0733  0.2992
 6161TIP3   OH240041   4.837   1.352   7.355  0.1393 -0.2151 -0.0304
 6161TIP3    H140042   4.773   1.346   7.284 -0.5878 -0.3606  0.6285
 6161TIP3    H240043   4.919   1.371   7.310 -0.6821  1.9269 -0.7814
 6162TIP3   OH240044   0.794   2.273   0.231  0.3055  0.0878  0.3866
 6162TIP3    H140045   0.848   2.343   0.267  0.2626  0.2696  0.0983
 6162TIP3    H240046   0.777   2.300   0.141 -0.1154 -0.0560  0.4231
 6163TIP3   OH240047   2.061   2.656   3.208  0.1347  0.1061  0.1087
 6163TIP3    H140048   2.032   2.582   3.154  2.1061 -1.5348  1.1293
 6163TIP3    H240049   1.990   2.670   3.270  0.8682 -3.1070  1.9122
 6164TIP3   OH240050   5.919   2.065   2.241 -0.2956 -0.0786  0.3566
 6164TIP3    H140051   5.963   2.086   2.323 -0.8925 -0.6984  0.8459
 6164TIP3    H240052   5.849   2.004   2.266 -0.2663 -0.5510 -0.6539
 6165TIP3   OH240053   0.761   2.025   2.013 -0.3870  0.0913 -0.5329
 6165TIP3    H140054   0.686   1.980   2.053  0.3367 -0.1588  0.6115
 6165TIP3    H240055   0.789   1.967   1.942 -0.5057 -0.4477 -0.1479
 6166TIP3   OH240056   5.881   5.337   2.362 -0.1965 -0.0285  0.1458
 6166TIP3    H140057   5.944   5.387   2.415  1.1543 -0.2301 -1.1923
 6166TIP3    H240058   5.894   5.246   2.389  0.5994 -0.1488 -0.5999
 6167TIP3   OH240059   3.095   4.548   7.820  0.4214  0.0227  0.3268
 6167TIP3    H140060   3.109   4.457   7.846 -0.3459 -0.0162  0.6505
 6167TIP3    H240061   3.094   4.546   7.724 -1.5856 -0.6767  0.3044
 6168TIP3   OH240062   4.599   6.446   8.451 -0.2549 -0.0180  0.2983
 6168TIP3    H140063   4.670   6.510   8.459 -2.2309  2.5583 -1.0452
 6168TIP3    H240064   4.610   6.409   8.363 -0.9316  0.9351 -0.2082
 6169TIP3   OH240065   1.563   1.418   7.278 -0.1462  0.0036 -0.1877
 6169TIP3    H140066   1.563   1.323   7.292 -2.8263 -0.4211 -2.2083
 6169TIP3    H240067   1.550   1.428   7.184 -0.4084  2.3742  0.0487
 6170TIP3   OH240068   5.536   0.999   8.508 -0.7127 -0.0832 -0.6705
 6170TIP3    H140069   5.536   0.903   8.511  1.3239 -0.1302  2.3097
 6170TIP3    H240070   5.618   1.021   8.463 -1.0830  0.2847 -1.1770
 6171TIP3   OH240071   3.956   3.259   1.786 -0.3213 -0.4779 -0.3650
 6171TIP3    H140072   3.976   3.280   1.877 -1.6897 -0.6544 -0.0063
 6171TIP3    H240073   3.875   3.306   1.767  1.1143  1.4793 -2.2514
 6172TIP3   OH240074   6.288   0.336   2.620 -0.6652  0.1905  0.0867
 6172TIP3    H140075   6.374   0.346   2.661  0.8769 -2.4898 -2.1301
 6172TIP3    H240076   6.274   0.418   2.574  2.2122 -0.2897 -1.9297
 6173TIP3   OH240077   0.041   3.996   2.008  0.1882 -0.3140  0.2625
 6173TIP3    H140078   0.034   3.982   1.914 -2.1569 -0.3496  0.3816
 6173TIP3    H240079  -0.034   3.950   2.045  1.1092 -0.3961  2.1818
 6174TIP3   OH240080   0.060   0.714   7.575  0.3099  0.1806 -0.2094
 6174TIP3    H140081   0.145   0.749   7.547 -0.2151  1.2013 -0.5645
 6174TIP3    H240082   0.031   0.773   7.644  0.1607 -0.5237  0.3354
 6175TIP3   OH240083   4.059   1.435   8.659 -0.5489 -0.3691  0.4423
 6175TIP3    H140084   4.139   1.411   8.612 -1.1515 -1.3026 -0.1461
 6175TIP3    H240085   4.033   1.354   8.704 -3.1423 -1.2619 -2.3219
 6176TIP3   OH240086   2.324   1.150   0.232 -0.3577 -0.1764  0.5353
 6176TIP3    H140087   2.334   1.091   0.158  0.9039  0.1400  0.4268
 6176TIP3    H240088   2.243   1.197   0.215  0.7833  1.2044 -1.6316
 6177TIP3   OH240089   2.033   0.630   2.705  0.4002 -0.2781  0.5777
 6177TIP3    H140090   1.985   0.648   2.786  0.3920 -2.0868  1.0065
 6177TIP3    H240091   2.041   0.716   2.663 -1.1282  0.4380  1.6376
 6178TIP3   OH240092   0.913   6.361   8.636 -0.2323 -0.0217  0.0199
 6178TIP3    H140093   0.845   6.398   8.580  2.8853  3.3097 -2.0418
 6178TIP3    H240094   0.871   6.349   8.721 -3.6271  0.5736 -1.4018
 6179TIP3   OH240095   6.732   1.018   6.852 -0.1550  0.2242 -0.3769
 6179TIP3    H140096   6.709   1.058   6.769  0.4316  0.7669 -0.2886
 6179TIP3    H240097   6.817   1.056   6.875 -0.2121 -0.0635  0.3701
 6180TIP3   OH240098   6.170   5.983   1.128 -0.2445 -0.0270 -0.0289
 6180TIP3    H140099   6.084   5.957   1.160  0.1381  1.5837  2.5409
 6180TIP3    H240100   6.225   5.906   1.141 -0.5389  0.0089  1.5989
 6181TIP3   OH240101   6.721   5.117   1.766  0.2929 -0.0590  0.4924
 6181TIP3    H140102   6.754   5.144   1.852 -0.1781  0.3723  0.5430
 6181TIP3    H240103   6.686   5.197   1.727 -0.3332 -0.4242  0.2804
 6182TIP3   OH240104   5.157   0.487   7.677 -0.2815 -0.0604  0.0029
 6182TIP3    H140105   5.249   0.499   7.654 -0.2964  0.1464  0.0526
 6182TIP3    H240106   5.158   0.473   7.772  0.0084 -3.1551 -0.3672
 6183TIP3   OH240107   1.080   6.014   7.754  0.2464 -0.1016 -0.4906
 6183TIP3    H140108   0.996   6.024   7.709 -0.0630 -1.1229 -0.1658
 6183TIP3    H240109   1.059   6.026   7.846  0.4375 -0.4239 -0.4035
 6184TIP3   OH240110   0.032   6.219   8.645  0.0955  0.2964  0.1875
 6184TIP3    H140111  -0.034   6.272   8.689  1.2501  1.1530  0.9652
 6184TIP3    H240112   0.039   6.139   8.698 -1.2054 -0.3865 -0.6333
 6185TIP3   OH240113   6.516   0.252   5.876 -0.1293 -0.2754  0.5684
 6185TIP3    H140114   6.599   0.229   5.916  0.7169 -0.8216 -1.4196
 6185TIP3    H240115   6.456   0.183   5.904  0.9391 -1.7444 -0.6767
 6186TIP3   OH240116   4.822   1.088   7.279  0.0961 -0.3141 -0.0035
 6186TIP3    H140117   4.916   1.101   7.265 -0.2779 -1.1708 -6.3415
 6186TIP3    H240118   4.780   1.160   7.231 -2.3106 -2.3591 -1.2373
 6187TIP3   OH240119   4.410   2.266   0.561 -0.0539  0.1871 -0.0810
 6187TIP3    H140120   4.363   2.315   0.629 -0.0378  2.3383 -1.5119
 6187TIP3    H240121   4.488   2.232   0.605 -1.4046 -0.9164  1.6142
 6188TIP3   OH240122   5.664   1.526   7.837 -0.0010 -0.1511  1.1756
 6188TIP3    H140123   5.739   1.564   7.792 -1.3054  2.6154  1.0742
 6188TIP3    H240124   5.601   1.509   7.767 -0.5653  0.4627  1.5164
 6189TIP3   OH240125   4.522   4.226   1.791 -0.1407 -0.1417 -0.9585
 6189TIP3    H140126   4.475   4.145   1.810 -0.8260  0.1513 -1.3774
 6189TIP3    H240127   4.497   4.248   1.701 -0.7681  1.0767 -0.5086
 6190TIP3   OH240128   3.067   2.438   1.913  0.4384  0.1314 -0.0049
 6190TIP3    H140129   3.083   2.359   1.966  2.3648  1.1326  1.0392
 6190TIP3    H240130   3.147   2.448   1.861 -0.9986 -0.2239 -2.4022
 6191TIP3   OH240131   0.001   4.308   2.489  0.3409 -0.6399 -0.3463
 6191TIP3    H140132   0.080   4.362   2.498  0.8530 -1.2693 -0.9962
 6191TIP3    H240133   0.015   4.258   2.409 -1.4651  0.4812 -1.4215
 6192TIP3   OH240134   5.110   5.259   1.788 -0.0575 -0.5042  0.4811
 6192TIP3    H140135   5.040   5.303   1.834  0.1192  0.2043  0.0833
 6192TIP3    H240136   5.172   5.234   1.856  0.5539  1.1688  0.5893
 6193TIP3   OH240137   1.951   4.697   2.716  0.7554  0.0475  0.1822
 6193TIP3    H140138   2.040   4.661   2.724  0.8427  0.2887  0.2967
 6193TIP3    H240139   1.956   4.782   2.759  0.1127 -0.5098  1.4066
 6194TIP3   OH240140   2.517   2.432   2.160  0.1619 -0.7421 -0.1488
 6194TIP3    H140141   2.599   2.444   2.112  0.8982  1.6630  1.5282
 6194TIP3    H240142   2.519   2.499   2.228 -2.8872 -1.0874  0.4221
 6195TIP3   OH240143   1.427   3.708   1.518 -0.4555  0.6543 -0.3350
 6195TIP3    H140144   1.518   3.680   1.524 -0.8279 -0.7513 -0.7176
 6195TIP3    H240145   1.394   3.666   1.438 -1.6223  0.5268  0.1846
 6196TIP3   OH240146   4.715   6.155   2.064  0.3809  0.7180 -0.0612
 6196TIP3    H140147   4.729   6.238   2.108  0.0550  0.8314 -0.1654
 6196TIP3    H240148   4.696   6.093   2.135 -1.7209  1.2307 -0.1067
 6197TIP3   OH240149   4.552   2.342   8.410  0.1149  0.2877 -0.4808
 6197TIP3    H140150   4.581   2.257   8.376  0.5549  0.7494 -1.2751
 6197TIP3    H240151   4.590   2.406   8.350 -0.4915  1.0336 -0.0770
 6198TIP3   OH240152   6.450   3.933   0.576 -0.4452 -0.0457  0.2838
 6198TIP3    H140153   6.450   3.874   0.500  0.6386  0.7670 -0.3810
 6198TIP3    H240154   6.365   3.977   0.571  0.7986  2.3992 -2.4691
 6199TIP3   OH240155   6.065   6.356   0.602 -0.1578 -0.1790  0.0379
 6199TIP3    H140156   6.086   6.446   0.577 -0.2591 -0.6997 -2.2293
 6199TIP3    H240157   5.987   6.364   0.656 -0.2390  1.0845 -0.2229
 6200TIP3   OH240158   3.029   1.177   1.855  0.0330 -0.3507  0.2510
 6200TIP3    H140159   2.977   1.180   1.775  0.9425  1.0946 -0.3193
 6200TIP3    H240160   2.985   1.237   1.915 -0.6874 -1.4832  0.9100
 6201TIP3   OH240161   5.626   2.248   8.390  0.1455  0.4108 -0.0577
 6201TIP3    H140162   5.545   2.217   8.349  1.1113 -2.1572 -0.2028
 6201TIP3    H240163   5.598   2.287   8.472 -1.2507 -0.7364  0.0450
 6202TIP3   OH240164   5.642   5.145   8.036  0.3388 -0.6001  0.1073
 6202TIP3    H140165   5.721   5.200   8.044  0.4348 -0.6714 -0.3172
 6202TIP3    H240166   5.638   5.098   8.119 -0.0262  0.4159  0.6822
 6203TIP3   OH240167   4.831   1.317   7.834 -0.3447 -0.6202  0.6860
 6203TIP3    H140168   4.856   1.328   7.925  1.2543 -0.4696  0.2604
 6203TIP3    H240169   4.780   1.395   7.812 -0.7800 -0.6831  1.4465
 6204TIP3   OH240170   0.602   1.277   7.083 -0.7854 -0.6025 -0.4746
 6204TIP3    H140171   0.663   1.204   7.070  0.8799  0.5230  0.7032
 6204TIP3    H240172   0.585   1.278   7.177  1.4468  2.1600  0.0222
 6205TIP3   OH240173   1.427   6.367   2.179  0.2966 -0.2129 -0.1908
 6205TIP3    H140174   1.374   6.325   2.246  1.3089 -0.5253  0.4299
 6205TIP3    H240175   1.415   6.461   2.195 -1.2500 -0.2385 -1.0165
 6206TIP3   OH240176   2.553   2.727   0.849  0.6094  0.7443  0.2903
 6206TIP3    H140177   2.618   2.796   0.860 -0.2134  1.4623  0.8647
 6206TIP3    H240178   2.536   2.696   0.938  1.8369 -1.0612 -0.0613
 6207TIP3   OH240179   0.753   4.545   0.557 -0.1152 -0.2168  0.4642
 6207TIP3    H140180   0.801   4.611   0.607  0.6573  1.4958 -2.3329
 6207TIP3    H240181   0.661   4.568   0.567  0.1018  0.7990  0.2077
 6208TIP3   OH240182   3.109   1.848   0.015  0.3432  0.3374 -0.2389
 6208TIP3    H140183   3.134   1.792   0.088  1.6533 -0.8229 -1.5170
 6208TIP3    H240184   3.028   1.891   0.044 -0.4421 -1.8303  0.9982
 6209TIP3   OH240185   6.685   4.738   6.448  0.1281 -0.1601  0.0204
 6209TIP3    H140186   6.709   4.800   6.379 -0.5792 -1.9329 -1.9263
 6209TIP3    H240187   6.611   4.778   6.492  1.8498  1.9445  1.2067
 6210TIP3   OH240188   0.465   2.089   1.896  0.4256  0.5954 -0.4037
 6210TIP3    H140189   0.465   2.042   1.980 -0.3108  0.0390 -0.7012
 6210TIP3    H240190   0.447   2.180   1.919 -0.6325  0.2996 -0.0238
 6211TIP3   OH240191   4.705   4.387   8.374 -0.2545 -0.4199  0.0686
 6211TIP3    H140192   4.709   4.327   8.448  2.4594  0.3323  0.6644
 6211TIP3    H240193   4.657   4.339   8.307 -2.6524 -1.1949  2.1918
 6212TIP3   OH240194   6.203   1.224   6.258 -0.3763  0.3702  0.7027
 6212TIP3    H140195   6.207   1.279   6.335 -1.3699 -0.7775  1.6235
 6212TIP3    H240196   6.289   1.182   6.253 -0.3717  0.3076  1.3043
 6213TIP3   OH240197   0.286   6.037   1.625  0.1637  0.1276  0.0271
 6213TIP3    H140198   0.323   6.053   1.538  0.2665  0.0502  0.0568
 6213TIP3    H240199   0.313   5.948   1.646 -2.4853 -1.0783 -1.1966
 6214TIP3   OH240200   3.104   6.478   8.007 -0.0491 -0.1355 -0.3489
 6214TIP3    H140201   3.139   6.413   8.069  1.3126 -0.6352 -1.5850
 6214TIP3    H240202   3.104   6.433   7.923 -0.0005  1.1564 -1.0679
 6215TIP3   OH240203   6.477   0.694   0.106  0.5058  0.7371 -0.2891
 6215TIP3    H140204   6.495   0.604   0.131 -0.0850 -0.2717 -3.0743
 6215TIP3    H240205   6.562   0.728   0.077  0.5344  0.7245 -0.2200
 6216TIP3   OH240206   6.628   3.755   0.754  0.2423 -0.2006 -0.6427
 6216TIP3    H140207   6.640   3.793   0.841 -2.1546 -0.6632 -0.0367
 6216TIP3    H240208   6.570   3.817   0.709  0.0615 -0.8338 -1.2891
 6217TIP3   OH240209   0.587   3.964   2.006  0.1681 -0.6187 -0.1534
 6217TIP3    H140210   0.571   3.889   1.948 -2.8532  0.2246 -0.5390
 6217TIP3    H240211   0.639   4.024   1.953  0.0273 -1.1462 -0.9166
 6218TIP3   OH240212   3.503   6.484   8.613 -0.2105  0.0551 -0.6271
 6218TIP3    H140213   3.449   6.468   8.691  0.5748  0.5442  0.0377
 6218TIP3    H240214   3.493   6.577   8.596 -0.6925 -0.1201 -1.3736
 6219TIP3   OH240215   6.689   2.350   0.908  0.3166  0.4745 -0.0516
 6219TIP3    H140216   6.611   2.348   0.853 -0.5665  2.7974  0.9773
 6219TIP3    H240217   6.658   2.382   0.993  2.3467  1.3411  0.4328
 6220TIP3   OH240218   4.787   2.121   0.273  0.4361  0.0599 -0.2148
 6220TIP3    H140219   4.814   2.071   0.350 -0.6156 -0.3810 -0.1194
 6220TIP3    H240220   4.755   2.204   0.308  2.2965  0.8982 -0.3818
 6221TIP3   OH240221   5.868   3.327   0.156 -0.0747  0.3602  0.3820
 6221TIP3    H140222   5.821   3.410   0.166  1.3018  1.0174  1.6207
 6221TIP3    H240223   5.843   3.296   0.069 -0.4096  2.1992 -0.2125
 6222TIP3   OH240224   4.938   0.792   2.768 -0.0615 -0.3726 -0.1418
 6222TIP3    H140225   4.962   0.881   2.793  0.6890 -0.8773  1.0172
 6222TIP3    H240226   5.021   0.744   2.766 -0.4607 -1.0650 -0.6845
 6223TIP3   OH240227   6.822   6.446   1.511 -0.0279 -0.1973 -0.1020
 6223TIP3    H140228   6.827   6.515   1.578  0.1537 -1.2490  1.0033
 6223TIP3    H240229   6.729   6.430   1.500 -0.0309 -1.7766  1.8073
 6224TIP3   OH240230   2.276   0.493   8.467 -0.5398 -0.3036  0.1529
 6224TIP3    H140231   2.322   0.571   8.499 -1.3045  0.7061 -1.1191
 6224TIP3    H240232   2.201   0.484   8.525 -1.4830  1.0419 -0.8155
 6225TIP3   OH240233   0.766   2.770   8.637 -0.1453  0.5308 -0.0590
 6225TIP3    H140234   0.751   2.766   8.731 -0.3514  0.2181 -0.1047
 6225TIP3    H240235   0.861   2.772   8.627 -0.0119 -1.9892  0.0646
 6226TIP3   OH240236   4.221   4.659   3.012  0.2400  0.1751 -0.5113
 6226TIP3    H140237   4.286   4.693   3.073 -0.1353 -1.6496  0.9971
 6226TIP3    H240238   4.207   4.730   2.950 -1.9949  3.7764  3.5313
 6227TIP3   OH240239   2.245   2.210   7.491 -0.3120 -0.0126 -0.2158
 6227TIP3    H140240   2.248   2.207   7.395 -0.6518  0.1114 -0.2293
 6227TIP3    H240241   2.190   2.136   7.515 -0.7705  0.3484 -0.1447
 6228TIP3   OH240242   6.749   5.257   0.426 -0.2392 -0.0810 -0.2330
 6228TIP3    H140243   6.779   5.216   0.507  0.1964  0.6704  0.0022
 6228TIP3    H240244   6.691   5.327   0.455  0.8733  0.9878 -0.4778
 6229TIP3   OH240245   6.037   5.677   1.713 -0.1012 -0.0568 -0.1051
 6229TIP3    H140246   5.996   5.636   1.788 -2.4881  1.9017 -0.2142
 6229TIP3    H240247   6.047   5.607   1.649 -0.1987 -1.2558  1.1502
 6230TIP3   OH240248   1.836   5.059   1.655  0.3084 -0.1543  0.0431
 6230TIP3    H140249   1.780   4.991   1.693 -0.4311  0.7971  0.7109
 6230TIP3    H240250   1.854   5.119   1.728  1.3576  0.0999 -0.4119
 6231TIP3   OH240251   1.705   4.880   1.246  0.5448 -0.0043 -0.3382
 6231TIP3    H140252   1.621   4.854   1.285  0.2805  0.8496 -0.3270
 6231TIP3    H240253   1.689   4.879   1.152  0.8625 -0.9737 -0.3895
 6232TIP3   OH240254   3.279   5.300   0.612 -0.3156 -0.0950 -0.3815
 6232TIP3    H140255   3.276   5.309   0.707  0.1951 -2.8682 -0.0261
 6232TIP3    H240256   3.187   5.301   0.585 -0.4451  3.5923 -0.3221
 6233TIP3   OH240257   5.560   0.066   8.095  0.3421  0.4252  0.0223
 6233TIP3    H140258   5.648   0.030   8.104 -0.0718 -0.3335  1.2355
 6233TIP3    H240259   5.509  -0.005   8.056 -0.4811 -0.3860  2.4395
 6234TIP3   OH240260   2.349   1.625   1.435 -0.3697  0.2807  0.3976
 6234TIP3    H140261   2.324   1.681   1.361  0.4070  2.3327  1.5875
 6234TIP3    H240262   2.267   1.585   1.464 -0.7605 -0.1391 -1.2206
 6235TIP3   OH240263   3.657   0.044   2.402  0.4012  0.5025 -0.2728
 6235TIP3    H140264   3.750   0.063   2.404  0.1282  2.1183 -1.5589
 6235TIP3    H240265   3.647  -0.029   2.463  2.8757 -1.5187 -2.0621
 6236TIP3   OH240266   2.127   3.452   8.415  0.4090  0.2975 -0.4246
 6236TIP3    H140267   2.204   3.441   8.471  1.3709  0.5695 -1.6546
 6236TIP3    H240268   2.133   3.381   8.351  0.3003  1.0193 -1.2563
 6237TIP3   OH240269   4.052   5.495   1.435  0.1040 -0.3542 -0.3116
 6237TIP3    H140270   4.134   5.458   1.468 -0.4726 -0.7950  0.6355
 6237TIP3    H240271   4.048   5.465   1.344  0.3083 -1.4940  0.0434
 6238TIP3   OH240272   3.410   5.876   1.975  0.2717  0.2311  0.1033
 6238TIP3    H140273   3.433   5.955   1.927  0.9250  0.6883  1.1321
 6238TIP3    H240274   3.460   5.806   1.931 -0.2912  0.3734 -0.7921
 6239TIP3   OH240275   0.687   6.212   8.404  0.3722 -0.1459 -0.0525
 6239TIP3    H140276   0.669   6.194   8.496  1.3618 -1.0391 -0.0081
 6239TIP3    H240277   0.683   6.307   8.397 -1.7362 -0.1518  0.4508
 6240TIP3   OH240278   5.415   4.452   2.503 -0.5466 -0.1858 -0.7455
 6240TIP3    H140279   5.360   4.531   2.503  0.0869  0.4124  2.3901
 6240TIP3    H240280   5.502   4.483   2.477 -0.4867 -0.0016 -0.3348
 6241TIP3   OH240281   3.571   6.107   8.246  0.5174 -0.4636  0.1196
 6241TIP3    H140282   3.549   6.186   8.295 -1.5232 -1.1127  0.3231
 6241TIP3    H240283   3.522   6.115   8.165 -0.3217 -1.8620  0.4668
 6242TIP3   OH240284   0.266   3.975   8.658  0.3376  0.6576 -0.5046
 6242TIP3    H140285   0.332   4.035   8.693  0.7715  0.5542 -1.1472
 6242TIP3    H240286   0.212   4.029   8.601 -0.6579  0.9317  0.6416
 6243TIP3   OH240287   4.440   1.227   0.179  0.4327 -0.1953  0.1857
 6243TIP3    H140288   4.372   1.275   0.133 -0.2246  0.3149  1.6274
 6243TIP3    H240289   4.522   1.263   0.146 -0.0304  0.4746 -0.2450
 6244TIP3   OH240290   3.770   4.995   8.521 -0.5459  0.1922  0.3196
 6244TIP3    H140291   3.714   4.957   8.589 -2.1819  1.8038 -0.0546
 6244TIP3    H240292   3.773   4.928   8.453 -0.6759 -0.5631  1.0318
 6245TIP3   OH240293   1.295   3.355   0.311 -0.1694 -0.3335  0.3020
 6245TIP3    H140294   1.350   3.428   0.281  0.9539 -0.0150  2.8905
 6245TIP3    H240295   1.213   3.366   0.264  0.3129  2.0327 -0.1126
 6246TIP3   OH240296   0.845   1.383   0.805 -0.2637 -0.1910 -0.0181
 6246TIP3    H140297   0.785   1.345   0.869 -0.9517  0.9610  0.0487
 6246TIP3    H240298   0.875   1.464   0.845  2.3827 -1.3046  0.5070
 6247TIP3   OH240299   4.228   0.286   2.583 -0.3533 -0.0903  0.2016
 6247TIP3    H140300   4.208   0.362   2.638  2.5175  0.1367  1.0764
 6247TIP3    H240301   4.192   0.212   2.631 -0.0192  0.3613  1.1880
 6248TIP3   OH240302   4.242   3.955   3.135 -0.7040  0.1852  0.3381
 6248TIP3    H140303   4.246   3.859   3.130  0.3877  0.1070  1.7754
 6248TIP3    H240304   4.274   3.985   3.050 -2.2506 -0.7018 -0.5979
 6249TIP3   OH240305   5.545   2.618   0.558 -0.0312 -0.1015 -0.6117
 6249TIP3    H140306   5.572   2.708   0.577  0.7516 -0.5184  0.3057
 6249TIP3    H240307   5.524   2.619   0.465  2.1247  0.5152 -1.1502
 6250TIP3   OH240308   0.582   6.868   7.169 -0.1065 -0.2557 -0.0031
 6250TIP3    H140309   0.592   6.951   7.215  0.9930 -1.5270  2.2367
 6250TIP3    H240310   0.652   6.869   7.103 -0.6773  0.9442 -0.6202
 6251TIP3   OH240311   0.186   3.261   6.756 -0.1175 -0.5627  0.0729
 6251TIP3    H140312   0.195   3.356   6.752  0.9005 -0.5722  1.3613
 6251TIP3    H240313   0.274   3.228   6.738 -0.5926 -1.3136 -1.0275
 6252TIP3   OH240314   2.461   5.932   1.598  0.0749 -0.0779  0.1712
 6252TIP3    H140315   2.396   5.925   1.528  0.2136  2.0731 -0.2473
 6252TIP3    H240316   2.471   5.843   1.632 -0.1768 -1.1382 -2.3739
 6253TIP3   OH240317   4.596   6.574   7.127  0.0029  0.2749  0.0411
 6253TIP3    H140318   4.560   6.570   7.038 -1.4471  2.0028  0.4845
 6253TIP3    H240319   4.523   6.550   7.184  1.2825 -2.2288  0.7985
 6254TIP3   OH240320   3.620   0.741   8.015 -0.1993 -0.7175  0.7852
 6254TIP3    H140321   3.716   0.743   8.007 -0.2061 -0.1692  0.8396
 6254TIP3    H240322   3.589   0.790   7.939 -0.4061 -0.0631  1.2817
 6255TIP3   OH240323   1.123   4.965   1.618  0.2527  0.5873 -0.1508
 6255TIP3    H140324   1.060   4.996   1.553  0.3485  1.2957  0.0903
 6255TIP3    H240325   1.073   4.905   1.673  0.0761  0.2697 -0.6501
 6256TIP3   OH240326   6.363   4.186   2.612  0.1951  0.6491 -0.3670
 6256TIP3    H140327   6.416   4.143   2.680 -0.6061 -1.0497 -0.7863
 6256TIP3    H240328   6.354   4.121   2.543 -1.8521  1.1453 -0.6267
 6257TIP3   OH240329   0.713   4.315   8.492 -0.6016  0.5509  0.7080
 6257TIP3    H140330   0.629   4.271   8.504 -0.6999  0.7527  0.7487
 6257TIP3    H240331   0.731   4.355   8.577 -0.0291 -0.2614  0.9838
 6258TIP3   OH240332   5.004   2.860   7.875 -0.3655  0.1904 -0.1622
 6258TIP3    H140333   4.934   2.846   7.811  0.5264 -2.2684 -0.7051
 6258TIP3    H240334   5.039   2.947   7.853 -1.7601  0.4966 -1.3262
 6259TIP3   OH240335   6.266   4.215   7.793 -0.2503  0.6638  0.2409
 6259TIP3    H140336   6.339   4.245   7.847 -0.8628  1.0210  0.8804
 6259TIP3    H240337   6.266   4.275   7.718  1.2977 -0.5144 -0.7721
 6260TIP3   OH240338   0.327   0.625   0.389  0.6316  0.3165  0.2080
 6260TIP3    H140339   0.239   0.658   0.374  2.0829  3.8646 -1.6325
 6260TIP3    H240340   0.344   0.568   0.314  0.0015 -0.1959  0.4513
 6261TIP3   OH240341   1.232   6.439   2.407  0.1856 -0.2995  0.1099
 6261TIP3    H140342   1.297   6.481   2.463 -0.0140 -0.2300  0.2914
 6261TIP3    H240343   1.188   6.511   2.361 -0.2370 -0.2942  0.5096
 6262TIP3   OH240344   2.469   4.051   8.067  0.4498 -0.0766  0.1131
 6262TIP3    H140345   2.537   4.119   8.073  0.0533  0.2448  1.1844
 6262TIP3    H240346   2.444   4.035   8.158  1.5486 -2.7109  0.0465
 6263TIP3   OH240347   5.274   5.784   0.574 -0.6045  0.6293 -0.2328
 6263TIP3    H140348   5.244   5.847   0.509 -0.9105 -0.0649 -0.7875
 6263TIP3    H240349   5.241   5.700   0.542 -0.6780  0.2629  0.7786
 6264TIP3   OH240350   6.251   0.455   6.399 -0.6534 -0.1294  0.0396
 6264TIP3    H140351   6.207   0.525   6.447 -2.1777 -1.5911  0.8643
 6264TIP3    H240352   6.209   0.374   6.430 -0.0101 -1.3055 -1.9890
 6265TIP3   OH240353   1.400   0.957   0.142 -0.4536  0.1455  0.0308
 6265TIP3    H140354   1.416   0.941   0.049 -0.3774 -0.0959  0.0869
 6265TIP3    H240355   1.304   0.957   0.150 -0.4558 -0.2037  0.0183
 6266TIP3   OH240356   0.476   0.328   0.540  0.0957  0.0276 -0.0040
 6266TIP3    H140357   0.383   0.321   0.563  0.1799  0.0037  0.3395
 6266TIP3    H240358   0.483   0.287   0.454  0.0352 -1.2706  0.5847
 6267TIP3   OH240359   0.879   0.351   7.291 -0.7163  0.2329 -0.5805
 6267TIP3    H140360   0.904   0.348   7.384 -0.1645 -1.6674 -0.7563
 6267TIP3    H240361   0.959   0.377   7.246 -1.0330  1.3395 -0.5328
 6268TIP3   OH240362   2.473   3.441   8.040  0.7475 -0.1182 -0.3382
 6268TIP3    H140363   2.382   3.467   8.047  0.9962  0.6792  0.1591
 6268TIP3    H240364   2.517   3.518   8.003  1.2938 -0.2832 -0.0482
 6269TIP3   OH240365   0.187   3.482   1.004  0.1457  0.6384  0.0079
 6269TIP3    H140366   0.197   3.489   1.099  0.5747  0.4245 -0.0169
 6269TIP3    H240367   0.252   3.543   0.969  1.7886 -1.1348 -0.1699
 6270TIP3   OH240368   6.585   4.519   2.560  0.2930  0.0667  0.5083
 6270TIP3    H140369   6.585   4.501   2.654  0.5864 -0.0608  0.4851
 6270TIP3    H240370   6.502   4.484   2.529  0.3944 -0.2934  0.6447
 6271TIP3   OH240371   4.478   3.830   0.190  0.1357  0.0630  0.2181
 6271TIP3    H140372   4.482   3.923   0.167  0.0305  0.0503  0.1521
 6271TIP3    H240373   4.411   3.825   0.259  0.0224  0.0103  0.1031
 6272TIP3   OH240374   0.080   0.074   7.312  0.0710 -0.4115 -0.0312
 6272TIP3    H140375  -0.004   0.051   7.272 -0.4405  1.5264 -0.2001
 6272TIP3    H240376   0.058   0.100   7.401  0.6278 -0.7920  0.2192
 6273TIP3   OH240377   1.918   4.115   1.611  0.3521  0.0175 -0.1388
 6273TIP3    H140378   2.010   4.131   1.633  0.3249  2.1547 -1.2467
 6273TIP3    H240379   1.869   4.162   1.679  0.0832 -0.7177  0.1792
 6274TIP3   OH240380   0.794   0.198   6.505  0.1356 -0.0142 -0.3300
 6274TIP3    H140381   0.819   0.106   6.501  1.2979  0.2294  0.6392
 6274TIP3    H240382   0.838   0.238   6.429 -0.2476 -0.2320 -0.6652
 6275TIP3   OH240383   0.538   4.147   2.619  0.1331 -0.0001  0.3153
 6275TIP3    H140384   0.495   4.181   2.540  0.0818  2.2790  1.2496
 6275TIP3    H240385   0.486   4.072   2.645 -0.0519 -0.5896 -1.6113
 6276TIP3   OH240386   4.539   4.277   1.260  0.7805  0.6257 -0.0312
 6276TIP3    H140387   4.493   4.268   1.177 -2.3447 -4.6347  1.7826
 6276TIP3    H240388   4.475   4.316   1.319  1.8102  1.3199  0.6709
 6277TIP3   OH240389   6.641   4.550   7.243 -0.6029  0.1683 -0.3426
 6277TIP3    H140390   6.590   4.523   7.166 -1.6353  0.1294  0.3273
 6277TIP3    H240391   6.646   4.471   7.296  0.0110  0.2244 -0.3135
 6278TIP3   OH240392   1.102   4.644   1.925  0.2005  0.0988  0.0469
 6278TIP3    H140393   1.120   4.550   1.927 -3.0605 -0.6960 -1.1348
 6278TIP3    H240394   1.188   4.685   1.922  1.7540 -2.8098  0.7227
 6279TIP3   OH240395   1.681   1.868   2.516 -0.1596 -0.7310 -0.1980
 6279TIP3    H140396   1.769   1.843   2.547  0.7258 -0.6670 -2.4336
 6279TIP3    H240397   1.672   1.959   2.542  0.6184 -0.6129 -0.3018
 6280TIP3   OH240398   4.910   4.516   0.677 -0.2102  0.7258 -0.3260
 6280TIP3    H140399   4.993   4.495   0.635 -0.5318 -1.0246 -0.1731
 6280TIP3    H240400   4.916   4.475   0.764 -1.9233 -1.1888 -1.0151
 6281TIP3   OH240401   1.500   6.484   1.485 -0.5594 -0.0143  0.0577
 6281TIP3    H140402   1.546   6.518   1.562  0.5748  0.8063 -0.9394
 6281TIP3    H240403   1.432   6.427   1.520  0.6763 -0.5888  1.6475
 6282TIP3   OH240404   3.252   0.965   7.634 -0.4613  0.0646 -0.0067
 6282TIP3    H140405   3.167   1.008   7.633 -0.6345 -0.2804 -0.9682
 6282TIP3    H240406   3.313   1.032   7.663 -1.1569  0.1119  1.4451
 6283TIP3   OH240407   1.478   6.547   0.448  0.5594 -0.3122  0.4136
 6283TIP3    H140408   1.441   6.489   0.382 -0.8774  0.1943  0.7401
 6283TIP3    H240409   1.459   6.635   0.416  2.0132 -0.0041  0.3137
 6284TIP3   OH240410   0.873   5.944   1.872  0.5606 -0.1522  0.2332
 6284TIP3    H140411   0.923   5.912   1.796 -1.3459 -0.1341 -1.0981
 6284TIP3    H240412   0.782   5.944   1.842 -0.5548 -2.2078  3.2692
 6285TIP3   OH240413   1.262   5.367   8.470 -0.1145 -0.2932 -0.4354
 6285TIP3    H140414   1.357   5.352   8.471 -0.2804 -1.6781 -1.4467
 6285TIP3    H240415   1.237   5.364   8.562  0.8127 -0.0023 -0.1572
 6286TIP3   OH240416   5.924   1.480   0.527 -0.3256 -0.1494  0.1389
 6286TIP3    H140417   5.843   1.461   0.573 -1.0243 -0.2739 -1.0940
 6286TIP3    H240418   5.971   1.397   0.526 -0.4716 -0.2347  0.2997
 6287TIP3   OH240419   3.946   2.986   1.662 -0.0259 -0.5867  0.6035
 6287TIP3    H140420   3.882   3.036   1.713 -0.6860  1.7007 -2.2415
 6287TIP3    H240421   4.020   2.974   1.721 -1.5372  0.0494  2.7430
 6288TIP3   OH240422   4.875   5.654   8.140 -0.0781  0.2618 -0.4471
 6288TIP3    H140423   4.886   5.734   8.191 -0.1644 -0.9538  1.5934
 6288TIP3    H240424   4.928   5.588   8.186 -0.4471 -0.9922 -1.7330
 6289TIP3   OH240425   2.463   5.387   1.637 -0.3069  0.5519 -0.2753
 6289TIP3    H140426   2.551   5.368   1.602 -0.4130  0.6052 -0.5757
 6289TIP3    H240427   2.453   5.328   1.712  0.2084  0.9365  0.1061
 6290TIP3   OH240428   5.843   4.074   2.031 -0.4274 -0.2956 -0.3331
 6290TIP3    H140429   5.782   4.136   1.992 -0.2180 -1.2000 -2.1861
 6290TIP3    H240430   5.925   4.089   1.984  0.0825 -0.8397  0.3594
 6291TIP3   OH240431   6.304   4.718   8.467 -0.2256  0.7365  0.4276
 6291TIP3    H140432   6.339   4.769   8.539  2.4290  1.6812 -1.3829
 6291TIP3    H240433   6.268   4.783   8.407 -0.4385  0.1605 -0.0763
 6292TIP3   OH240434   6.259   2.170   1.100  0.0620  0.1602 -0.4077
 6292TIP3    H140435   6.164   2.179   1.113 -0.4973 -0.5593 -3.1883
 6292TIP3    H240436   6.278   2.225   1.024  1.9541  0.4675  0.2391
 6293TIP3   OH240437   3.522   4.344   0.474 -0.1159  0.3134 -0.0236
 6293TIP3    H140438   3.531   4.257   0.513  0.7245  0.1686 -0.5301
 6293TIP3    H240439   3.439   4.377   0.509 -1.1505 -1.2439 -0.9200
 6294TIP3   OH240440   4.337   2.019   7.015 -0.6737  0.4896  0.2389
 6294TIP3    H140441   4.265   1.957   6.999 -2.3245  1.9778  1.5314
 6294TIP3    H240442   4.365   2.001   7.105 -0.7544  1.2059  0.4139
 6295TIP3   OH240443   2.048   5.299   7.635 -0.1724 -0.7782  0.5561
 6295TIP3    H140444   1.957   5.269   7.626 -0.2586 -0.0605 -1.5040
 6295TIP3    H240445   2.045   5.392   7.613  0.6831 -0.0729  3.1265
 6296TIP3   OH240446   0.592   4.757   7.264  0.0392  0.1559 -0.2758
 6296TIP3    H140447   0.608   4.791   7.176  0.7858  0.4932 -0.0172
 6296TIP3    H240448   0.607   4.663   7.257  0.1689  0.1931 -0.4974
 6297TIP3   OH240449   0.104   2.862   1.854 -0.0600 -0.1225  0.0083
 6297TIP3    H140450   0.071   2.873   1.943 -1.1103 -0.1835 -0.3540
 6297TIP3    H240451   0.194   2.833   1.865 -0.1476 -0.0497  1.0495
 6298TIP3   OH240452   5.352   6.463   8.050  0.0588  0.2117 -0.2484
 6298TIP3    H140453   5.347   6.514   7.970 -0.3018  0.8241  0.1553
 6298TIP3    H240454   5.417   6.395   8.032 -1.7246 -1.1924 -1.9041
 6299TIP3   OH240455   4.191   0.057   2.217 -0.2174  0.3974 -0.0887
 6299TIP3    H140456   4.174   0.143   2.254 -3.5577 -0.0369 -0.3507
 6299TIP3    H240457   4.163  -0.005   2.285 -0.8839 -0.4320 -1.0840
 6300TIP3   OH240458   6.121   4.398   6.470 -0.6096 -0.1374  0.2037
 6300TIP3    H140459   6.096   4.440   6.387 -0.6611 -1.2868 -0.3838
 6300TIP3    H240460   6.213   4.374   6.457 -0.4624  0.1446  0.6929
 6301TIP3   OH240461   6.434   3.763   2.243 -0.1712 -0.3535  0.0697
 6301TIP3    H140462   6.349   3.718   2.251 -2.1514  2.7382 -1.5317
 6301TIP3    H240463   6.422   3.846   2.289  1.6940  0.5192 -0.8961
 6302TIP3   OH240464   3.822   0.071   7.325  0.2944 -0.0774 -0.6878
 6302TIP3    H140465   3.741   0.045   7.369  0.3477  1.6498  0.5104
 6302TIP3    H240466   3.859   0.140   7.380  2.8572 -1.1360 -0.9178
 6303TIP3   OH240467   1.321   6.237   1.070 -0.2464  0.2819 -0.2364
 6303TIP3    H140468   1.305   6.320   1.115 -2.1461 -0.1357 -0.0376
 6303TIP3    H240469   1.412   6.216   1.090  0.1991  2.1521 -0.0471
 6304TIP3   OH240470   6.836   1.968   7.953  0.0940 -0.4755 -0.3457
 6304TIP3    H140471   6.795   2.039   7.903 -0.2924 -0.3799  0.0969
 6304TIP3    H240472   6.900   1.930   7.893  2.5891  2.2163  0.4022
 6305TIP3   OH240473   1.066   3.853   8.191  0.1617 -0.0330  0.3308
 6305TIP3    H140474   1.145   3.801   8.201  1.3631  1.8968  1.3075
 6305TIP3    H240475   1.049   3.890   8.277 -1.9616 -0.5507  0.2071
 6306TIP3   OH240476   1.770   0.965   7.618 -0.4243 -0.9758 -0.3635
 6306TIP3    H140477   1.744   0.890   7.670 -1.5150 -1.4639 -1.5644
 6306TIP3    H240478   1.699   0.977   7.555 -0.5896  1.4291  0.1560
 6307TIP3   OH240479   6.322   1.053   8.061  0.1834  0.0213 -0.1196
 6307TIP3    H140480   6.413   1.082   8.068 -0.1301  0.8213  0.8499
 6307TIP3    H240481   6.295   1.080   7.974  1.1220 -0.9840 -0.7457
 6308TIP3   OH240482   6.718   4.604   1.524 -0.4937  0.5149  0.5675
 6308TIP3    H140483   6.634   4.573   1.489 -1.5167  1.8738  1.6539
 6308TIP3    H240484   6.723   4.566   1.611  0.5781 -0.4404  0.1088
 6309TIP3   OH240485   4.993   6.617   7.757 -0.3200 -0.5820  0.4214
 6309TIP3    H140486   4.927   6.651   7.697  0.7584  0.7659 -0.0387
 6309TIP3    H240487   4.997   6.523   7.738 -1.1711 -0.4545 -0.4525
 6310TIP3   OH240488   2.871   1.982   1.869  0.1244 -0.2952  0.1081
 6310TIP3    H140489   2.905   1.895   1.852 -1.3649 -0.8739 -0.1263
 6310TIP3    H240490   2.776   1.972   1.864 -0.1585  0.9758  1.7741
 6311TIP3   OH240491   4.314   3.031   7.752  0.1019  0.1073 -0.0380
 6311TIP3    H140492   4.295   2.949   7.707  0.3453 -0.2733  0.5369
 6311TIP3    H240493   4.256   3.030   7.829 -2.3012  1.9837 -1.6663
 6312TIP3   OH240494   3.823   1.409   7.620  0.1256  0.2971  0.0689
 6312TIP3    H140495   3.911   1.381   7.595 -0.2347  1.4705 -2.9685
 6312TIP3    H240496   3.836   1.466   7.696  1.9014 -0.1919  0.1515
 6313TIP3   OH240497   4.530   0.298   0.945  0.0704  0.5817  0.2361
 6313TIP3    H140498   4.502   0.207   0.939  0.1423  0.5109  0.9263
 6313TIP3    H240499   4.456   0.348   0.909 -0.3348  0.3001  0.6637
 6314TIP3   OH240500   5.095   2.157   2.410  0.2590 -0.2087  0.0015
 6314TIP3    H140501   5.118   2.250   2.408  1.5044 -0.4928  0.2598
 6314TIP3    H240502   5.063   2.142   2.499 -0.7641  0.1479 -0.2972
 6315TIP3   OH240503   0.683   0.656   6.403 -0.2507  0.2913 -0.0715
 6315TIP3    H140504   0.672   0.596   6.329 -1.0596  0.0199  0.2531
 6315TIP3    H240505   0.750   0.718   6.375 -1.1637  0.7290 -1.3940
 6316TIP3   OH240506   1.364   4.045   7.557  0.4407 -0.2865  0.1412
 6316TIP3    H140507   1.382   3.981   7.627 -0.2546 -1.0581 -0.3732
 6316TIP3    H240508   1.296   4.004   7.504  1.6004 -0.1254 -1.5487
 6317TIP3   OH240509   4.308   0.763   0.439 -0.3450  0.5001  0.2699
 6317TIP3    H140510   4.356   0.832   0.393 -0.5046  0.1757 -0.4058
 6317TIP3    H240511   4.226   0.755   0.390 -0.0272 -0.6485 -0.1044
 6318TIP3   OH240512   4.308   5.882   7.964  0.3330  0.5780  0.3154
 6318TIP3    H140513   4.384   5.826   7.973  0.1356 -0.1038 -1.6765
 6318TIP3    H240514   4.275   5.863   7.876 -2.2997  0.6382  1.2067
 6319TIP3   OH240515   2.462   2.614   2.398 -0.0446 -0.1117  0.3069
 6319TIP3    H140516   2.445   2.690   2.341 -0.0820  0.0320  0.5064
 6319TIP3    H240517   2.422   2.638   2.482 -1.1057 -0.8600  0.0184
 6320TIP3   OH240518   5.421   6.248   0.040 -1.0258  0.0167 -0.1566
 6320TIP3    H140519   5.363   6.315   0.075  0.3069  1.0775  0.1204
 6320TIP3    H240520   5.505   6.293   0.028 -0.4785 -1.2404 -1.3414
 6321TIP3   OH240521   1.060   3.194   2.201 -0.3877 -0.1386  0.3979
 6321TIP3    H140522   0.993   3.248   2.243  0.4225  1.1163  0.1263
 6321TIP3    H240523   1.103   3.149   2.274  0.1058  0.9668  0.8088
 6322TIP3   OH240524   1.677   6.720   0.497  0.1322  0.3518 -0.0837
 6322TIP3    H140525   1.716   6.781   0.559  1.3794 -1.5857  1.1767
 6322TIP3    H240526   1.609   6.675   0.546 -2.2067  2.0464 -1.5922
 6323TIP3   OH240527   3.566   5.486   2.890 -0.2332 -0.5177 -0.1693
 6323TIP3    H140528   3.629   5.541   2.843 -1.0172 -0.6386 -1.4083
 6323TIP3    H240529   3.560   5.406   2.837 -1.7427 -0.3242 -0.3190
 6324TIP3   OH240530   3.479   2.099   8.557 -0.4243  0.5849 -0.3603
 6324TIP3    H140531   3.497   2.047   8.478  0.4485 -0.4152  0.4719
 6324TIP3    H240532   3.384   2.092   8.568 -0.4710  0.1839 -0.9536
 6325TIP3   OH240533   4.648   6.680   1.423  0.6287  0.2329  0.2689
 6325TIP3    H140534   4.630   6.761   1.469  0.1247  0.8165 -0.9251
 6325TIP3    H240535   4.744   6.672   1.424  0.7038  1.0675  0.0243
 6326TIP3   OH240536   3.789   1.221   1.498 -0.1204 -0.4613 -0.1546
 6326TIP3    H140537   3.851   1.234   1.426  1.8427 -0.3796  1.4433
 6326TIP3    H240538   3.716   1.175   1.459  1.2287 -1.1233 -2.0417
 6327TIP3   OH240539   4.979   1.239   7.598 -0.7021 -0.5789  0.4765
 6327TIP3    H140540   4.949   1.276   7.680 -2.2946  0.4468 -0.5251
 6327TIP3    H240541   4.929   1.285   7.530  0.9825 -0.9525 -1.1174
 6328TIP3   OH240542   3.769   4.808   2.345 -0.1219  0.2016  0.1828
 6328TIP3    H140543   3.717   4.770   2.416  0.0526 -0.3466  0.0178
 6328TIP3    H240544   3.810   4.885   2.384 -0.5889  0.3062  0.4776
 6329TIP3   OH240545   6.176   4.789   7.260 -0.2692 -0.4845  0.4062
 6329TIP3    H140546   6.262   4.832   7.268  0.4009 -2.0673  2.3508
 6329TIP3    H240547   6.113   4.858   7.281  0.7189 -0.1010  2.2890
 6330TIP3   OH240548   2.678   6.145   0.764 -0.1999  0.5632 -0.1372
 6330TIP3    H140549   2.699   6.086   0.837  0.5926  0.9049 -0.0807
 6330TIP3    H240550   2.583   6.150   0.765 -0.2167  0.3336  0.6929
 6331TIP3   OH240551   4.837   1.513   2.296 -0.2807 -0.2692 -0.0052
 6331TIP3    H140552   4.843   1.434   2.351  0.1002  0.2581  0.7230
 6331TIP3    H240553   4.928   1.540   2.284 -0.4566  0.5771  0.5110
 6332TIP3   OH240554   4.287   1.861   0.689  0.5433  0.0127  0.0533
 6332TIP3    H140555   4.230   1.934   0.710  0.1960 -0.4594  0.7987
 6332TIP3    H240556   4.231   1.799   0.642  1.1856  0.8287 -1.8960
 6333TIP3   OH240557   0.943   4.329   2.915 -0.1301 -0.1102  0.4662
 6333TIP3    H140558   0.854   4.317   2.882 -0.0614  0.6430 -0.0237
 6333TIP3    H240559   0.944   4.418   2.951  0.7955  0.4353 -0.8271
 6334TIP3   OH240560   4.260   4.116   1.452 -0.1945 -0.0308  0.3592
 6334TIP3    H140561   4.193   4.155   1.508 -1.8198 -1.3865 -0.5669
 6334TIP3    H240562   4.219   4.038   1.415  1.7376 -0.6480 -0.6368
 6335TIP3   OH240563   2.639   0.594   8.460 -0.1072 -0.1050 -0.1147
 6335TIP3    H140564   2.698   0.669   8.463  0.8320 -0.7569 -1.3518
 6335TIP3    H240565   2.694   0.519   8.484 -0.3205 -0.7604 -1.5632
 6336TIP3   OH240566   1.274   4.411   6.663  0.4076  0.6163  0.5459
 6336TIP3    H140567   1.274   4.474   6.591 -1.3402  0.5888  0.4852
 6336TIP3    H240568   1.183   4.408   6.693  0.9952  0.2603  2.4458
 6337TIP3   OH240569   0.961   0.704   8.504  0.3700 -0.1580 -0.0755
 6337TIP3    H140570   0.889   0.707   8.567  1.7685  1.6851  1.5796
 6337TIP3    H240571   1.022   0.639   8.540  0.6867  0.1357 -0.0730
 6338TIP3   OH240572   4.130   4.522   1.700 -0.2781  0.4681  0.0554
 6338TIP3    H140573   4.127   4.434   1.662 -1.1501  0.3781  0.2945
 6338TIP3    H240574   4.185   4.513   1.778 -1.4252 -0.1944  0.8300
 6339TIP3   OH240575   0.933   1.661   6.787 -0.1543  0.6513 -0.1730
 6339TIP3    H140576   0.882   1.580   6.788 -1.4460  1.3939 -1.6558
 6339TIP3    H240577   0.888   1.717   6.724  1.6040  1.9507 -0.3458
 6340TIP3   OH240578   1.517   3.298   2.182 -0.8752 -0.0421 -0.4623
 6340TIP3    H140579   1.546   3.310   2.092  0.0032 -0.0824 -0.1986
 6340TIP3    H240580   1.532   3.205   2.200 -1.8143 -0.2192 -0.5218
 6341TIP3   OH240581   3.929   2.238   1.998 -0.0462 -0.4069 -0.2581
 6341TIP3    H140582   3.948   2.241   1.904  2.2676 -1.9884  0.0711
 6341TIP3    H240583   3.844   2.196   2.005  0.2006 -1.1913 -1.6406
 6342TIP3   OH240584   5.033   2.184   0.974  0.0614  0.5173  0.0352
 6342TIP3    H140585   4.985   2.248   1.026 -0.0079  0.6665 -0.2093
 6342TIP3    H240586   5.027   2.217   0.884  1.7500  1.2488  0.1648
 6343TIP3   OH240587   6.587   4.312   1.671  0.5869 -0.3990 -0.2446
 6343TIP3    H140588   6.594   4.405   1.695  0.1428  0.1911 -2.2137
 6343TIP3    H240589   6.664   4.271   1.712 -0.3317  0.3773  2.4455
 6344TIP3   OH240590   0.890   5.480   1.105 -0.8393  0.1613 -0.7947
 6344TIP3    H140591   0.896   5.456   1.013  2.4255  0.3077 -0.7116
 6344TIP3    H240592   0.940   5.412   1.151 -0.7311  1.1709  0.6417
 6345TIP3   OH240593   4.552   1.127   1.896  0.2092 -0.4309  0.0980
 6345TIP3    H140594   4.595   1.171   1.969 -0.3276 -1.3600  0.9900
 6345TIP3    H240595   4.470   1.094   1.933 -1.4051  1.4250 -1.5698
 6346TIP3   OH240596   1.230   3.107   1.480 -0.4360  0.1644  0.4014
 6346TIP3    H140597   1.226   3.059   1.562  0.8169 -1.2113 -0.2943
 6346TIP3    H240598   1.149   3.084   1.434  0.3113 -1.6602 -0.0792
 6347TIP3   OH240599   6.745   0.997   7.505 -0.6726  1.1171 -0.3936
 6347TIP3    H140600   6.662   0.950   7.513  1.1265 -2.1442  1.3828
 6347TIP3    H240601   6.801   0.937   7.455  1.2377  2.1986  0.3440
 6348TIP3   OH240602   6.620   6.835   1.142 -0.1427  0.1034  0.1421
 6348TIP3    H140603   6.597   6.923   1.112  1.2670  0.3871 -0.1495
 6348TIP3    H240604   6.715   6.832   1.139 -0.1810 -1.8439 -1.0433
 6349TIP3   OH240605   3.931   1.172   2.597 -0.4741  0.7264 -0.5158
 6349TIP3    H140606   3.961   1.240   2.657 -0.2707 -1.1409  1.6356
 6349TIP3    H240607   3.996   1.102   2.605 -2.5564 -1.2515  0.2472
 6350TIP3   OH240608   6.854   5.735   7.614  0.6102 -0.5784  0.2910
 6350TIP3    H140609   6.801   5.703   7.540 -1.3735  2.3738  0.2800
 6350TIP3    H240610   6.895   5.815   7.581  0.5007  0.2490  2.0707
 6351TIP3   OH240611   4.925   0.903   2.072 -0.1785 -0.5113 -0.3362
 6351TIP3    H140612   4.837   0.940   2.070  0.1755  0.4599  0.8478
 6351TIP3    H240613   4.924   0.840   2.144 -0.5099 -2.2066 -1.7517
 6352TIP3   OH240614   6.381   5.311   0.133  0.0353 -0.2120  0.4684
 6352TIP3    H140615   6.373   5.278   0.043 -0.1756 -2.6583  1.2987
 6352TIP3    H240616   6.295   5.295   0.171  0.4493 -0.2471  1.4095
 6353TIP3   OH240617   2.970   6.178   0.794 -0.0264  0.6817  0.7577
 6353TIP3    H140618   2.874   6.177   0.796 -0.1190  1.2165 -1.2844
 6353TIP3    H240619   2.992   6.253   0.739  1.5990  0.7346  1.4251
 6354TIP3   OH240620   1.270   6.191   8.350 -0.0772  0.2171 -0.1539
 6354TIP3    H140621   1.354   6.147   8.363  2.4801  3.8951 -2.3885
 6354TIP3    H240622   1.244   6.219   8.437  1.2231 -0.6397  0.5389
 6355TIP3   OH240623   0.440   4.590   6.772 -0.4567 -0.1257  0.4702
 6355TIP3    H140624   0.436   4.495   6.776 -0.0906 -0.2669 -1.4805
 6355TIP3    H240625   0.392   4.613   6.692 -0.7751  1.3590  1.0411
 6356TIP3   OH240626   5.603   1.640   8.279 -0.2027 -0.0035  0.4973
 6356TIP3    H140627   5.528   1.676   8.231 -0.2108  0.5593  0.9170
 6356TIP3    H240628   5.654   1.594   8.213 -0.2141  0.7565 -0.0530
 6357TIP3   OH240629   1.656   1.754   0.542 -0.0330 -0.6841  0.4509
 6357TIP3    H140630   1.730   1.785   0.489 -1.4811 -0.9642 -1.8752
 6357TIP3    H240631   1.688   1.759   0.632  2.3163  0.5506 -0.3511
 6358TIP3   OH240632   3.608   1.408   2.601 -0.6996 -0.5622 -0.0365
 6358TIP3    H140633   3.640   1.427   2.689 -0.6349 -1.5506  0.1721
 6358TIP3    H240634   3.581   1.493   2.566  2.7528  0.4734 -0.5080
 6359TIP3   OH240635   0.497   1.565   0.242 -0.1577 -0.4988 -0.1746
 6359TIP3    H140636   0.498   1.472   0.263 -1.8267 -0.5672 -0.2241
 6359TIP3    H240637   0.431   1.573   0.172  1.0217  0.5268 -1.2210
 6360TIP3   OH240638   6.590   0.591   8.066  0.4360 -0.4276  0.2562
 6360TIP3    H140639   6.631   0.598   7.979 -0.2570  0.0632 -0.0393
 6360TIP3    H240640   6.628   0.511   8.103  0.8033 -0.6047 -0.4629
 6361TIP3   OH240641   2.712   2.748   2.443  0.0442 -0.7961  0.8284
 6361TIP3    H140642   2.639   2.721   2.499 -0.1920  1.0810  1.4961
 6361TIP3    H240643   2.694   2.707   2.359 -0.2294 -2.6954  1.7622
 6362TIP3   OH240644   4.829   5.778   1.953  0.4157  0.3241 -0.4617
 6362TIP3    H140645   4.857   5.687   1.950  1.5140  0.5927  0.5202
 6362TIP3    H240646   4.817   5.803   1.862 -1.4244 -1.2231 -0.6986
 6363TIP3   OH240647   5.773   4.222   1.148  0.3938  0.5152  0.1583
 6363TIP3    H140648   5.800   4.174   1.069  1.4686 -0.2850  0.9800
 6363TIP3    H240649   5.815   4.307   1.139  1.9743 -0.1702  0.6594
 6364TIP3   OH240650   1.544   1.174   1.830  0.3652  0.2438 -0.1793
 6364TIP3    H140651   1.591   1.102   1.789 -1.2260 -1.0073  0.1028
 6364TIP3    H240652   1.476   1.197   1.767 -1.1734 -0.7039  1.0865
 6365TIP3   OH240653   3.500   1.755   0.431  0.1450  0.0611 -0.2661
 6365TIP3    H140654   3.500   1.849   0.412  0.6903  0.1382  0.1027
 6365TIP3    H240655   3.507   1.714   0.345  2.0547  0.4059 -0.3259
 6366TIP3   OH240656   6.131   6.822   0.386  0.0363 -0.4233  0.6176
 6366TIP3    H140657   6.038   6.798   0.394  0.1213 -1.1945 -0.5436
 6366TIP3    H240658   6.147   6.879   0.461 -1.7387  0.8547  0.0906
 6367TIP3   OH240659   4.650   2.331   2.402 -0.0228  0.7463 -0.3890
 6367TIP3    H140660   4.702   2.392   2.454  0.4462  0.4988 -0.5665
 6367TIP3    H240661   4.582   2.300   2.462  0.9632 -0.1205  0.3208
 6368TIP3   OH240662   0.970   5.886   6.335 -0.0802  0.4803 -0.1404
 6368TIP3    H140663   1.065   5.874   6.330  0.1581  1.6568  0.7764
 6368TIP3    H240664   0.959   5.981   6.344 -1.2583  0.2692  1.0313
 6369TIP3   OH240665   0.447   4.222   8.480 -0.3279 -0.1134  0.2264
 6369TIP3    H140666   0.423   4.216   8.573  0.1281 -1.1434  0.2930
 6369TIP3    H240667   0.411   4.306   8.452  0.0170  0.4836  1.4751
 6370TIP3   OH240668   6.145   0.333   0.667  0.0267  0.5324  0.0886
 6370TIP3    H140669   6.183   0.246   0.655 -0.1118  0.3104  1.1729
 6370TIP3    H240670   6.082   0.342   0.596  1.1231  0.3584 -0.9259
 6371TIP3   OH240671   5.374   4.362   1.780  0.2412 -0.3600 -0.1708
 6371TIP3    H140672   5.337   4.308   1.850 -0.4660 -1.2508 -1.1937
 6371TIP3    H240673   5.298   4.400   1.737  0.7055  0.8004  0.0059
 6372TIP3   OH240674   1.298   2.629   7.926  0.0586 -0.0758 -0.3437
 6372TIP3    H140675   1.356   2.684   7.873  1.2796 -1.4239 -0.4893
 6372TIP3    H240676   1.256   2.571   7.863  1.9519 -2.0788  0.1171
 6373TIP3   OH240677   4.108   0.691   1.309 -0.2892 -0.1111 -0.3032
 6373TIP3    H140678   4.093   0.779   1.345  1.4240  0.2379 -0.3228
 6373TIP3    H240679   4.102   0.703   1.214 -3.9373 -0.8591 -0.3133
 6374TIP3   OH240680   2.998   3.683   8.441  0.5549  0.0641  0.4313
 6374TIP3    H140681   2.962   3.769   8.462  0.8171  0.6738 -1.4145
 6374TIP3    H240682   3.086   3.702   8.407 -0.1617 -0.6469 -2.0539
 6375TIP3   OH240683   6.602   5.228   5.949 -0.2283  0.0495  0.0374
 6375TIP3    H140684   6.683   5.203   5.903 -0.3893 -1.4786  0.5156
 6375TIP3    H240685   6.631   5.249   6.038 -0.0802  1.8067 -0.3886
 6376TIP3   OH240686   1.109   5.148   1.889 -0.4385  0.6646  0.0369
 6376TIP3    H140687   1.056   5.074   1.919 -0.3781  0.6748  0.1729
 6376TIP3    H240688   1.198   5.113   1.885 -0.1651  1.1110  1.5292
 6377TIP3   OH240689   6.104   6.649   0.079 -0.0224 -0.6610  0.7456
 6377TIP3    H140690   6.046   6.717   0.045  1.7224  0.2381 -0.5959
 6377TIP3    H240691   6.175   6.697   0.122  0.4782 -1.6710  1.0807
 6378TIP3   OH240692   6.202   5.542   8.034  0.1379 -0.5970  0.9065
 6378TIP3    H140693   6.291   5.555   8.066 -0.1396  1.6012  0.9476
 6378TIP3    H240694   6.200   5.590   7.951 -1.3343  0.5698  1.5658
 6379TIP3   OH240695   3.896   6.217   7.481 -0.0518  0.4402 -0.0609
 6379TIP3    H140696   3.946   6.144   7.444 -0.2681  0.2992 -0.0731
 6379TIP3    H240697   3.818   6.223   7.426 -0.9405 -0.5078  1.0548
 6380TIP3   OH240698   1.713   5.614   1.201  0.2563 -0.0230 -0.1102
 6380TIP3    H140699   1.682   5.525   1.216 -1.0132  0.4708  0.4244
 6380TIP3    H240700   1.807   5.606   1.186  0.6020 -1.2060  2.3238
 6381TIP3   OH240701   1.465   6.095   7.643 -0.7982 -0.1479  0.3024
 6381TIP3    H140702   1.551   6.052   7.645  0.2695  1.7907 -0.7184
 6381TIP3    H240703   1.403   6.023   7.629  0.7149 -1.5313  0.3606
 6382TIP3   OH240704   4.310   4.036   7.927  0.2390  0.5274 -0.2859
 6382TIP3    H140705   4.358   4.104   7.879 -0.4543  0.6971 -0.7510
 6382TIP3    H240706   4.282   3.974   7.860  1.4616 -0.6257  0.2078
 6383TIP3   OH240707   4.354   0.809   7.981  0.8529  0.3628 -0.3855
 6383TIP3    H140708   4.325   0.771   8.063  0.2309  1.4513 -0.0710
 6383TIP3    H240709   4.278   0.801   7.923  1.5364 -1.1045 -1.1361
 6384TIP3   OH240710   1.393   5.033   1.189  0.1091  0.2710 -0.2875
 6384TIP3    H140711   1.300   5.010   1.198  1.0995 -3.8895  1.6531
 6384TIP3    H240712   1.419   5.062   1.277  0.9312  0.0795 -0.4586
 6385TIP3   OH240713   3.656   2.258   7.814  1.0897 -0.1901 -0.8791
 6385TIP3    H140714   3.676   2.299   7.898  1.6577  0.1645 -1.1798
 6385TIP3    H240715   3.565   2.229   7.822  1.4299 -1.0217  0.1996
 6386TIP3   OH240716   4.835   3.254   1.599 -0.3313  0.4329 -0.1045
 6386TIP3    H140717   4.901   3.195   1.565  0.2370 -1.1255  3.2449
 6386TIP3    H240718   4.770   3.197   1.639 -1.4033  2.0064  0.4962
 6387TIP3   OH240719   3.715   2.802   7.154  0.0462 -0.0969  0.3699
 6387TIP3    H140720   3.770   2.741   7.204 -1.0349 -0.4201  1.2132
 6387TIP3    H240721   3.629   2.758   7.150  0.0895 -0.0977 -1.8149
 6388TIP3   OH240722   6.874   0.889   8.525  0.0546 -0.3963  0.3278
 6388TIP3    H140723   6.789   0.906   8.485  0.3741 -0.0357 -0.2105
 6388TIP3    H240724   6.854   0.852   8.611 -0.6419 -2.0858 -0.5196
 6389TIP3   OH240725   2.159   3.884   0.838 -0.4996  0.2564  0.6122
 6389TIP3    H140726   2.246   3.911   0.809  0.1400 -0.2070  2.0113
 6389TIP3    H240727   2.099   3.938   0.787  0.6013  0.7250 -0.2369
 6390TIP3   OH240728   2.776   0.863   0.659 -0.1863 -0.4408 -0.8302
 6390TIP3    H140729   2.808   0.799   0.595 -0.2895 -0.5383 -0.7832
 6390TIP3    H240730   2.788   0.948   0.615 -0.0739 -0.4925 -0.9025
 6391TIP3   OH240731   1.040   3.620   2.398 -0.4466 -0.3780 -0.3802
 6391TIP3    H140732   1.088   3.619   2.316 -1.6201 -0.7099 -1.0951
 6391TIP3    H240733   0.978   3.693   2.389 -0.5591 -0.3853  0.2347
 6392TIP3   OH240734   4.827   5.796   6.810 -0.0755 -0.4895 -0.3424
 6392TIP3    H140735   4.914   5.798   6.771 -0.1856 -1.5707 -0.6684
 6392TIP3    H240736   4.839   5.836   6.896  0.9605 -1.5150  0.0146
 6393TIP3   OH240737   6.888   2.265   1.765 -0.0769  0.3519  0.3335
 6393TIP3    H140738   6.912   2.172   1.763  0.5736  0.4468  1.9725
 6393TIP3    H240739   6.819   2.273   1.700 -0.3299 -1.3393  0.3445
 6394TIP3   OH240740   2.685   6.158   2.168 -0.2439 -0.1742  0.1097
 6394TIP3    H140741   2.761   6.131   2.219  0.7557  1.0127 -0.7061
 6394TIP3    H240742   2.622   6.191   2.233  0.8087  0.8533  0.6353
 6395TIP3   OH240743   4.190   3.386   0.169  0.2598  0.3253  0.4254
 6395TIP3    H140744   4.255   3.456   0.160  1.0818 -0.4807 -0.1190
 6395TIP3    H240745   4.106   3.432   0.172  0.6024  1.2698 -1.8921
 6396TIP3   OH240746   3.037   5.319   7.948  0.0019  0.6528 -0.2932
 6396TIP3    H140747   2.994   5.404   7.964  1.2263  1.2839 -0.2530
 6396TIP3    H240748   2.980   5.275   7.885 -0.7128  1.4510 -0.2295
 6397TIP3   OH240749   5.811   4.429   7.941 -0.2120 -0.3352 -0.1563
 6397TIP3    H140750   5.758   4.362   7.984 -0.8960 -0.4063 -1.0815
 6397TIP3    H240751   5.754   4.505   7.935 -0.6370 -0.7356 -2.1053
 6398TIP3   OH240752   3.248   0.268   7.679 -0.2374 -0.1478  0.4004
 6398TIP3    H140753   3.274   0.207   7.611  0.0866  0.2742  0.1404
 6398TIP3    H240754   3.325   0.322   7.695  0.4146 -1.5924  2.6121
 6399TIP3   OH240755   6.567   4.488   8.232 -0.3969  0.4074 -0.7792
 6399TIP3    H140756   6.605   4.567   8.269 -0.8381 -1.4666  4.4887
 6399TIP3    H240757   6.642   4.438   8.200  0.5809  0.6551  1.0037
 6400TIP3   OH240758   1.811   1.258   1.092 -0.0196 -0.6085  0.1594
 6400TIP3    H140759   1.897   1.271   1.133 -0.3994  0.1109  0.7517
 6400TIP3    H240760   1.774   1.346   1.086 -0.3687 -0.8168 -0.8875
 6401TIP3   OH240761   1.079   3.410   0.173 -0.2828  0.1124  0.2643
 6401TIP3    H140762   1.016   3.381   0.107  0.5521  0.8141 -0.8805
 6401TIP3    H240763   1.044   3.493   0.205 -0.9350 -0.4601  1.0823
 6402TIP3   OH240764   0.779   5.174   1.432  0.1685 -0.7788  0.4828
 6402TIP3    H140765   0.690   5.211   1.435 -0.4863 -2.2391  0.0132
 6402TIP3    H240766   0.836   5.250   1.438 -1.1194  0.3377 -0.5327
 6403TIP3   OH240767   1.955   3.284   0.299  0.1589  0.1012  0.2773
 6403TIP3    H140768   1.999   3.345   0.358 -0.7132  0.5278  0.5009
 6403TIP3    H240769   1.939   3.206   0.352  1.0994 -0.2671  0.0458
 6404TIP3   OH240770   2.114   1.969   7.551 -0.1326 -0.3373 -0.2320
 6404TIP3    H140771   2.174   1.897   7.568 -0.6838 -0.4976  1.1361
 6404TIP3    H240772   2.031   1.927   7.528 -0.3261 -0.1399  0.0934
 6405TIP3   OH240773   3.994   4.013   1.081 -0.0965  0.0518 -0.2281
 6405TIP3    H140774   3.970   3.926   1.113 -0.9702  0.0944 -0.7574
 6405TIP3    H240775   4.018   4.062   1.160  1.7655 -1.0693 -0.0420
 6406TIP3   OH240776   3.445   1.687   6.870  0.2271 -0.3414  0.1979
 6406TIP3    H140777   3.433   1.599   6.907  1.4329 -0.7473 -0.3187
 6406TIP3    H240778   3.518   1.677   6.809 -0.5725  0.7078 -0.9648
 6407TIP3   OH240779   5.948   4.146   0.285  0.4887 -0.1442  0.2822
 6407TIP3    H140780   5.982   4.120   0.199  2.1611 -0.1990  0.9430
 6407TIP3    H240781   5.877   4.083   0.302  1.5392 -1.4995 -0.1282
 6408TIP3   OH240782   0.672   5.287   6.012 -0.6728 -0.2314  0.3902
 6408TIP3    H140783   0.714   5.372   6.021 -0.3910 -0.4436  1.1507
 6408TIP3    H240784   0.578   5.305   6.023 -0.9427  0.3868 -2.2368
 6409TIP3   OH240785   5.740   3.999   0.655 -0.3424 -0.1434 -0.1169
 6409TIP3    H140786   5.770   3.913   0.683  0.4945  0.1360 -0.1512
 6409TIP3    H240787   5.742   3.995   0.559 -0.0548  0.0039 -0.1163
 6410TIP3   OH240788   1.738   2.198   7.921  0.0487 -0.3632  0.1752
 6410TIP3    H140789   1.814   2.141   7.907  0.5673  0.5726 -1.0631
 6410TIP3    H240790   1.716   2.186   8.013 -0.7943 -3.6252 -0.3330
 6411TIP3   OH240791   6.729   2.931   1.240 -0.3552 -0.4567  0.0728
 6411TIP3    H140792   6.787   3.001   1.212  0.3314 -1.3515 -0.7617
 6411TIP3    H240793   6.751   2.856   1.185 -1.6416 -1.1040  0.3795
 6412TIP3   OH240794   1.607   3.194   7.868 -0.1383 -0.0042 -0.2616
 6412TIP3    H140795   1.629   3.190   7.775  0.1443 -0.6523 -0.1713
 6412TIP3    H240796   1.581   3.105   7.890  0.2832  0.0317  0.4017
 6413TIP3   OH240797   5.139   3.675   0.539  0.0930  0.1407 -0.6193
 6413TIP3    H140798   5.229   3.707   0.531  0.4307  0.1517  2.1272
 6413TIP3    H240799   5.090   3.749   0.574 -0.5537 -0.4155 -0.3271
 6414TIP3   OH240800   1.441   1.479   0.236  0.1793  0.6502  0.3203
 6414TIP3    H140801   1.470   1.562   0.199 -1.2470  0.8375 -0.4565
 6414TIP3    H240802   1.408   1.430   0.161  0.1880 -0.2676  0.9025
 6415TIP3   OH240803   1.690   1.344   2.182 -0.1029 -0.2587 -0.0558
 6415TIP3    H140804   1.778   1.383   2.186  0.5201 -1.6707  0.8947
 6415TIP3    H240805   1.632   1.413   2.214  0.6577  0.6911 -0.6674
 6416TIP3   OH240806   6.187   4.326   2.808  0.7117  0.1239 -0.2188
 6416TIP3    H140807   6.199   4.416   2.775  1.9734 -0.0972 -0.3904
 6416TIP3    H240808   6.262   4.278   2.774  0.0614 -1.0026 -0.0961
 6417TIP3   OH240809   6.782   2.441   7.724 -0.7352  0.1218 -0.3428
 6417TIP3    H140810   6.725   2.369   7.753  0.9219 -0.5732  1.4358
 6417TIP3    H240811   6.841   2.456   7.798  1.7584  0.3990 -2.2316
 6418TIP3   OH240812   0.775   4.737   1.684  0.2177 -0.2063  0.5569
 6418TIP3    H140813   0.708   4.803   1.698  1.7747  1.6632 -0.3876
 6418TIP3    H240814   0.857   4.779   1.710  1.4510 -1.2322 -1.3985
 6419TIP3   OH240815   6.578   5.312   7.147  0.0381 -0.2062  0.2719
 6419TIP3    H140816   6.674   5.307   7.144  0.2331  1.8372  1.2352
 6419TIP3    H240817   6.553   5.351   7.063  0.2110  0.8275  0.6930
 6420TIP3   OH240818   2.881   5.879   2.047  0.5821 -0.4464 -0.0061
 6420TIP3    H140819   2.852   5.912   2.132 -0.2530  1.3334 -0.9442
 6420TIP3    H240820   2.965   5.837   2.065 -0.0430 -0.9861  1.8555
 6421TIP3   OH240821   4.466   1.005   2.193 -0.5286  0.3162 -0.0803
 6421TIP3    H140822   4.493   0.946   2.122  0.0442 -1.4376  1.5229
 6421TIP3    H240823   4.547   1.027   2.238 -1.2013 -2.1503  2.6376
 6422TIP3   OH240824   4.529   6.523   2.032  0.4930 -0.0987  0.3302
 6422TIP3    H140825   4.550   6.494   1.943 -0.8690  1.6580 -0.6163
 6422TIP3    H240826   4.452   6.578   2.022 -0.8979 -1.4200  2.8885
 6423TIP3   OH240827   2.510   5.889   7.727  0.1737  0.3022  0.1966
 6423TIP3    H140828   2.586   5.837   7.703  0.4506  0.7119  0.1712
 6423TIP3    H240829   2.543   5.979   7.732  0.2539  0.2165  2.5367
 6424TIP3   OH240830   1.049   3.648   1.973  0.3479  0.2638  0.0322
 6424TIP3    H140831   1.068   3.554   1.974  3.0625  0.6987 -1.9451
 6424TIP3    H240832   1.109   3.686   2.037  0.8670  0.8742 -0.7980
 6425TIP3   OH240833   1.348   0.356   0.631 -0.4857 -0.2271 -0.0837
 6425TIP3    H140834   1.422   0.298   0.613 -0.9834 -0.9465  0.1132
 6425TIP3    H240835   1.362   0.385   0.721 -0.3669 -0.2353 -0.0988
 6426TIP3   OH240836   4.043   4.252   2.921  0.1791  0.1657  0.3200
 6426TIP3    H140837   4.032   4.199   3.000  1.5424 -0.7385 -0.0701
 6426TIP3    H240838   4.018   4.193   2.849 -1.3594  1.0792  0.0714
 6427TIP3   OH240839   3.214   1.674   1.968  0.2208 -0.5328  0.1705
 6427TIP3    H140840   3.310   1.673   1.964  0.2508  0.5207  0.4173
 6427TIP3    H240841   3.194   1.668   2.062 -0.0468 -3.7101  0.0195
 6428TIP3   OH240842   6.657   6.636   1.858 -0.5909  0.0715  0.2759
 6428TIP3    H140843   6.700   6.711   1.816  0.6154 -1.1446 -0.7880
 6428TIP3    H240844   6.606   6.674   1.929  0.5113  1.8410  0.1940
 6429TIP3   OH240845   0.940   3.272   0.811 -0.4256 -0.5171  0.1864
 6429TIP3    H140846   1.018   3.308   0.767 -0.2365 -1.7159 -0.5102
 6429TIP3    H240847   0.928   3.328   0.887  0.9949 -0.1552  0.1846
 6430TIP3   OH240848   0.289   4.321   0.983  0.2467 -0.2196  0.3913
 6430TIP3    H140849   0.252   4.248   0.933 -1.5196  0.6042  0.4371
 6430TIP3    H240850   0.367   4.346   0.933  0.5751 -1.7600  0.0722
 6431TIP3   OH240851   0.452   1.029   2.133 -0.3260 -0.1436  0.6167
 6431TIP3    H140852   0.489   1.070   2.054 -1.8772  0.3502  0.1058
 6431TIP3    H240853   0.494   1.073   2.206 -0.1977  0.6782  0.0532
 6432TIP3   OH240854   2.149   3.024   2.496  0.3425 -0.0555 -0.0093
 6432TIP3    H140855   2.234   3.033   2.538  0.8314 -0.4796 -0.8768
 6432TIP3    H240856   2.106   2.953   2.543  0.5150  0.0776  0.3512
 6433TIP3   OH240857   3.327   5.202   8.485  0.6134  0.1949  0.2024
 6433TIP3    H140858   3.322   5.253   8.404  2.5746  1.3448  0.7248
 6433TIP3    H240859   3.255   5.236   8.539  1.4241  1.9838  0.2539
 6434TIP3   OH240860   5.544   2.778   1.944  0.2636 -0.0001 -0.1157
 6434TIP3    H140861   5.452   2.802   1.932  0.5047  0.6641 -0.6633
 6434TIP3    H240862   5.552   2.692   1.903  0.2304  0.6180 -1.4694
 6435TIP3   OH240863   6.352   3.395   0.934  0.1905  0.5966  0.6836
 6435TIP3    H140864   6.357   3.466   0.870  0.6173  0.2863  0.3739
 6435TIP3    H240865   6.371   3.437   1.018 -1.9087  1.3272  0.8608
 6436TIP3   OH240866   4.700   4.434   0.439 -0.1188 -0.2875 -0.0266
 6436TIP3    H140867   4.619   4.447   0.489 -0.2942  0.8994 -0.5986
 6436TIP3    H240868   4.759   4.391   0.500 -0.9040 -0.4215  0.6576
 6437TIP3   OH240869   6.260   6.813   2.330 -0.2773  0.2281 -0.3670
 6437TIP3    H140870   6.209   6.740   2.366 -1.2204 -0.0829 -2.2069
 6437TIP3    H240871   6.225   6.891   2.373  0.8260 -0.3590  1.7188
 6438TIP3   OH240872   1.736   1.836   6.878 -0.3356 -0.3752  0.3346
 6438TIP3    H140873   1.754   1.880   6.961  0.5123  0.2576 -0.1631
 6438TIP3    H240874   1.808   1.864   6.820 -0.8899 -0.8331 -0.6003
 6439TIP3   OH240875   5.476   0.987   7.700 -0.3198  1.0525  0.1531
 6439TIP3    H140876   5.478   0.897   7.668 -0.6573  1.5159 -1.2435
 6439TIP3    H240877   5.560   0.999   7.744  0.9568  0.9039 -2.1193
 6440TIP3   OH240878   1.125   1.270   8.480  0.0718  0.5447 -0.1127
 6440TIP3    H140879   1.065   1.341   8.457 -2.2701 -0.6821  1.7210
 6440TIP3    H240880   1.067   1.195   8.495  2.3994 -1.6651 -1.5159
 6441TIP3   OH240881   6.881   1.086   2.048 -0.1217  0.0723 -0.2207
 6441TIP3    H140882   6.914   1.173   2.069  1.6087 -1.3399  3.8956
 6441TIP3    H240883   6.960   1.033   2.037 -1.0667 -1.6341  0.8573
 6442TIP3   OH240884   2.437   4.049   7.170 -0.2970  0.3346  0.1982
 6442TIP3    H140885   2.458   4.087   7.085  0.2752  0.0159  0.1926
 6442TIP3    H240886   2.507   3.985   7.186  0.0271  0.9233  1.2457
 6443TIP3   OH240887   4.816   3.758   1.641 -0.0889 -0.1651  0.0937
 6443TIP3    H140888   4.728   3.725   1.658 -0.6356 -0.4704 -2.7525
 6443TIP3    H240889   4.873   3.682   1.651 -0.8950 -1.3283 -2.9621
 6444TIP3   OH240890   2.244   1.340   2.863 -0.3243  0.0296  0.7112
 6444TIP3    H140891   2.231   1.264   2.920  2.7443 -1.5333 -0.4358
 6444TIP3    H240892   2.307   1.310   2.798 -1.1340  2.7740 -1.5112
 6445TIP3   OH240893   2.445   4.493   1.974 -0.3984 -0.5794 -0.0060
 6445TIP3    H140894   2.470   4.431   2.042  2.1167  0.8266  0.4688
 6445TIP3    H240895   2.378   4.447   1.923 -1.7147 -2.0163  2.8158
 6446TIP3   OH240896   5.063   6.483   2.205 -0.0773 -0.5652  0.0223
 6446TIP3    H140897   5.135   6.420   2.209  0.9396  0.5401 -0.1027
 6446TIP3    H240898   5.078   6.540   2.281 -0.5190 -0.0219 -0.2890
 6447TIP3   OH240899   2.929   1.095   0.526  0.3466 -0.1552  0.2877
 6447TIP3    H140900   3.019   1.091   0.558  1.3574 -1.3828 -2.4133
 6447TIP3    H240901   2.938   1.102   0.431 -2.4115 -0.8680 -0.1019
 6448TIP3   OH240902   3.200   0.377   8.029  0.1447  0.3864 -0.6043
 6448TIP3    H140903   3.227   0.463   7.997  0.2166  1.7943  2.7252
 6448TIP3    H240904   3.143   0.397   8.104  0.4749 -2.4452  0.5230
 6449TIP3   OH240905   5.314   2.155   7.488 -0.0481 -1.0367 -0.0884
 6449TIP3    H140906   5.344   2.068   7.462  0.8123 -1.0864  1.0255
 6449TIP3    H240907   5.226   2.140   7.524  0.7942 -1.7446  1.7782
 6450TIP3   OH240908   4.961   2.305   1.812  0.4226  0.8163  0.0487
 6450TIP3    H140909   4.896   2.263   1.869 -0.7657  0.3899 -1.5585
 6450TIP3    H240910   5.039   2.252   1.821  0.3899  0.9871  1.5733
 6451TIP3   OH240911   0.760   1.435   1.109  0.0644  0.1737 -0.7827
 6451TIP3    H140912   0.716   1.500   1.164  1.8526  0.4815  0.3338
 6451TIP3    H240913   0.688   1.390   1.064 -1.2508  2.4000 -1.0302
 6452TIP3   OH240914   2.413   6.150   0.639 -0.0542  0.2475 -0.2604
 6452TIP3    H140915   2.428   6.223   0.580  2.9697  1.1338  1.4254
 6452TIP3    H240916   2.369   6.189   0.714  0.0248 -0.0238 -0.0744
 6453TIP3   OH240917   1.678   5.645   6.924  0.3412 -0.4184 -0.0219
 6453TIP3    H140918   1.608   5.709   6.911  0.9164  0.1112 -0.6240
 6453TIP3    H240919   1.636   5.573   6.970 -0.6351 -0.1731 -0.4855
 6454TIP3   OH240920   4.022   3.496   0.998  0.2431  0.0633  0.1114
 6454TIP3    H140921   3.958   3.474   1.065  1.2886 -1.6699  0.5890
 6454TIP3    H240922   4.091   3.544   1.045  0.2355  0.2186 -0.0321
 6455TIP3   OH240923   2.619   4.210   1.204 -0.1130  0.0373  0.6377
 6455TIP3    H140924   2.699   4.248   1.167 -0.1454 -1.0863 -0.6753
 6455TIP3    H240925   2.589   4.275   1.268  1.5672  0.7115  0.8015
 6456TIP3   OH240926   1.775   3.142   0.102  0.3208 -0.1054 -0.3789
 6456TIP3    H140927   1.733   3.214   0.148  1.2640 -1.0761  2.1450
 6456TIP3    H240928   1.868   3.163   0.103  0.3179  0.2971 -2.7726
 6457TIP3   OH240929   3.852   3.962   7.276  0.3515 -0.2872 -0.2101
 6457TIP3    H140930   3.785   4.031   7.268  1.0834  0.2477 -4.4339
 6457TIP3    H240931   3.934   4.010   7.289  0.8752 -0.1465 -3.2472
 6458TIP3   OH240932   1.619   4.245   7.192 -0.0885  0.4146 -0.4186
 6458TIP3    H140933   1.582   4.328   7.163  0.7771  0.6470 -0.9054
 6458TIP3    H240934   1.561   4.216   7.262 -1.8018  0.2510 -1.8141
 6459TIP3   OH240935   0.769   3.391   0.625 -0.2610 -0.1553 -0.1547
 6459TIP3    H140936   0.706   3.382   0.553  0.1340  0.3306 -0.5671
 6459TIP3    H240937   0.812   3.306   0.630  0.7321  0.2421 -1.4574
 6460TIP3   OH240938   1.323   3.423   0.686 -0.2488  0.0171 -0.7627
 6460TIP3    H140939   1.383   3.427   0.612 -0.0079  0.3292 -0.5525
 6460TIP3    H240940   1.358   3.353   0.741 -0.4070 -0.1895 -0.9193
 6461TIP3   OH240941   0.132   0.376   1.777  0.4578 -0.0308 -0.2233
 6461TIP3    H140942   0.082   0.431   1.717  2.6509  0.8095 -1.4024
 6461TIP3    H240943   0.221   0.410   1.772  1.0424 -0.9291  2.3795
 6462TIP3   OH240944   0.129   4.699   1.818  0.1641 -0.0136  0.0815
 6462TIP3    H140945   0.186   4.771   1.793 -0.4897  0.0149 -1.3863
 6462TIP3    H240946   0.181   4.620   1.802 -0.2177  0.0037 -1.4285
 6463TIP3   OH240947   5.569   4.667   8.218 -0.1163  0.5164  0.3439
 6463TIP3    H140948   5.553   4.660   8.124  2.2490  0.4741 -0.1193
 6463TIP3    H240949   5.498   4.723   8.251 -2.4395 -1.4746 -0.9648
 6464TIP3   OH240950   0.423   0.212   8.577 -0.1259  0.7986 -0.1457
 6464TIP3    H140951   0.409   0.281   8.642  0.3137  0.8568 -0.1084
 6464TIP3    H240952   0.339   0.166   8.572 -1.4026  3.1277 -2.3082
 6465TIP3   OH240953   1.768   4.571   8.515  0.0768 -0.3225 -0.0711
 6465TIP3    H140954   1.780   4.484   8.552  0.5050 -0.9405 -1.6011
 6465TIP3    H240955   1.850   4.590   8.471 -0.5655  0.1702 -1.0931
 6466TIP3   OH240956   4.887   1.576   0.793  0.1601 -0.7708  0.1183
 6466TIP3    H140957   4.948   1.621   0.734 -0.3953 -0.9585 -0.6187
 6466TIP3    H240958   4.857   1.644   0.853 -0.5310 -0.1740 -0.8679
 6467TIP3   OH240959   2.477   1.437   0.448  0.1090 -0.1397  0.0673
 6467TIP3    H140960   2.427   1.359   0.471  0.4327 -0.8212 -1.4428
 6467TIP3    H240961   2.412   1.507   0.445 -1.0957 -1.2262 -3.0377
 6468TIP3   OH240962   1.353   3.550   7.900  0.0937  0.0737 -0.0398
 6468TIP3    H140963   1.315   3.638   7.896  0.5455  0.2734 -0.0168
 6468TIP3    H240964   1.318   3.512   7.981 -0.4176  0.0839 -0.2549
 6469TIP3   OH240965   4.670   0.054   7.262  0.2619 -0.1378  0.1018
 6469TIP3    H140966   4.681   0.106   7.182 -1.4117  1.8294  1.0478
 6469TIP3    H240967   4.747   0.073   7.315 -0.2772  1.4073  0.3912
 6470TIP3   OH240968   0.143   0.579   1.011  0.1520  0.2167  0.5077
 6470TIP3    H140969   0.194   0.541   0.940 -0.8281  0.5479 -0.4032
 6470TIP3    H240970   0.057   0.538   1.002 -0.4075  1.3553  0.5821
 6471TIP3   OH240971   6.479   6.312   8.380 -0.2674  0.1065 -0.0315
 6471TIP3    H140972   6.435   6.238   8.338 -0.0173  1.7894 -3.6377
 6471TIP3    H240973   6.569   6.283   8.391 -0.7191 -0.9801  1.0741
 6472TIP3   OH240974   1.134   5.718   0.341  0.7360  0.7055  0.0999
 6472TIP3    H140975   1.077   5.789   0.369  1.3314  1.2806 -0.0938
 6472TIP3    H240976   1.145   5.663   0.418 -1.2924 -0.2744 -0.2622
 6473TIP3   OH240977   5.393   6.783   0.892 -0.1374  0.2110 -0.4864
 6473TIP3    H140978   5.364   6.874   0.892  1.0450  0.6552  1.7947
 6473TIP3    H240979   5.483   6.787   0.859 -0.1899 -0.1822 -0.6801
 6474TIP3   OH240980   2.195   5.021   1.338 -0.4002  0.4118 -0.2281
 6474TIP3    H140981   2.201   5.116   1.325 -0.4020  0.5705  0.8122
 6474TIP3    H240982   2.114   4.996   1.295 -0.3824  0.8778 -0.5411
 6475TIP3   OH240983   1.497   5.919   1.643  0.8663 -0.8611  0.0129
 6475TIP3    H140984   1.506   5.858   1.570  0.0657 -1.6774  0.5736
 6475TIP3    H240985   1.441   5.873   1.706 -0.2245  0.6707  0.2161
 6476TIP3   OH240986   2.442   5.034   8.509  0.2650 -0.2724  0.6526
 6476TIP3    H140987   2.478   4.954   8.472  0.6712  0.1525  0.1186
 6476TIP3    H240988   2.492   5.104   8.469 -0.9120  0.3253  0.1699
 6477TIP3   OH240989   3.614   1.862   0.682  0.1464 -0.0662  0.7539
 6477TIP3    H140990   3.536   1.813   0.706  0.5958 -0.8037  0.7209
 6477TIP3    H240991   3.585   1.920   0.611 -0.7944  0.9520  1.9245
 6478TIP3   OH240992   2.199   1.170   8.225  0.1150 -0.1984  0.1743
 6478TIP3    H140993   2.244   1.214   8.153 -2.1615  0.1726 -1.1129
 6478TIP3    H240994   2.236   1.211   8.304  0.5566  1.5400 -0.8708
 6479TIP3   OH240995   1.165   2.772   0.851  0.6018  0.3002  0.1691
 6479TIP3    H140996   1.167   2.865   0.874  0.9570  0.1538  0.7388
 6479TIP3    H240997   1.106   2.768   0.775 -0.4795  0.8202  0.9459
 6480TIP3   OH240998   5.722   4.291   7.312  0.2783 -0.3099  0.0277
 6480TIP3    H140999   5.664   4.326   7.245  1.2446  0.6284 -0.3400
 6480TIP3    H241000   5.708   4.196   7.309 -1.7870 -0.0623  0.4892
 6481TIP3   OH241001   0.279   4.588   0.644 -0.5262 -0.1110 -0.4952
 6481TIP3    H141002   0.289   4.501   0.605 -2.6590  0.3016 -2.1235
 6481TIP3    H241003   0.320   4.647   0.581 -1.7054  0.3306 -0.8586
 6482TIP3   OH241004   5.410   2.481   2.136  0.2595  0.3185 -0.2456
 6482TIP3    H141005   5.454   2.513   2.215 -0.6705 -1.0035  0.8614
 6482TIP3    H241006   5.462   2.405   2.110  1.0013  1.1834 -1.3879
 6483TIP3   OH241007   6.009   3.595   7.886 -0.1660  0.0109  0.2495
 6483TIP3    H141008   6.055   3.514   7.863  0.6706  0.5228  0.1087
 6483TIP3    H241009   5.922   3.585   7.847 -0.0403 -0.7823  0.1612
 6484TIP3   OH241010   3.936   4.933   2.708  0.1297 -0.4360 -0.3205
 6484TIP3    H141011   3.992   4.949   2.784  2.1279 -1.5571 -1.4858
 6484TIP3    H241012   3.928   4.838   2.705 -2.2894 -0.3096  0.0581
 6485TIP3   OH241013   4.414   1.680   7.992  0.3446 -0.3852  0.1602
 6485TIP3    H141014   4.447   1.598   7.956  0.1633 -0.1086 -0.6476
 6485TIP3    H241015   4.365   1.721   7.921 -0.9893 -0.3559  1.0468
 6486TIP3   OH241016   6.416   1.044   7.128  0.1864  0.6731 -0.6155
 6486TIP3    H141017   6.486   0.980   7.140 -1.9212 -1.8578 -0.9565
 6486TIP3    H241018   6.336   0.992   7.122 -1.7079  3.3763 -0.8172
 6487TIP3   OH241019   0.523   1.332   7.433  0.2067  0.3707 -0.3688
 6487TIP3    H141020   0.494   1.245   7.406  0.2376  0.0822  0.4801
 6487TIP3    H241021   0.461   1.358   7.501  2.4378 -0.7188  2.2718
 6488TIP3   OH241022   4.242   4.363   0.921  0.4389 -0.5020 -0.1163
 6488TIP3    H141023   4.295   4.440   0.939 -0.1368 -0.2305  0.4886
 6488TIP3    H241024   4.297   4.289   0.946  0.4989 -0.2205  0.5977
 6489TIP3   OH241025   5.168   0.566   8.592 -0.1740 -0.2408  0.1221
 6489TIP3    H141026   5.162   0.482   8.548  0.5140  0.0055 -0.4743
 6489TIP3    H241027   5.191   0.628   8.523 -0.6454  0.4351  0.5554
 6490TIP3   OH241028   1.628   3.536   8.561  0.6331  1.0397 -0.1588
 6490TIP3    H141029   1.645   3.453   8.516  1.0053  1.6177 -1.1377
 6490TIP3    H241030   1.713   3.560   8.599  0.8217  1.5229 -0.8621
 6491TIP3   OH241031   4.152   6.312   8.025  0.2072  0.3450  0.4354
 6491TIP3    H141032   4.221   6.255   8.061  1.9487  2.2151  0.2697
 6491TIP3    H241033   4.168   6.311   7.931 -0.3399  0.4120  0.3395
 6492TIP3   OH241034   6.429   2.636   7.972 -0.1576  0.5320  0.2194
 6492TIP3    H141035   6.484   2.595   8.039 -1.9562 -1.3122  0.6604
 6492TIP3    H241036   6.482   2.708   7.939  2.1066 -0.5270  1.3073
 6493TIP3   OH241037   1.905   3.826   1.744  0.3573 -0.3773  0.0149
 6493TIP3    H141038   1.901   3.862   1.655  1.1030  1.1995  0.5767
 6493TIP3    H241039   1.996   3.840   1.771  0.1354 -0.8279  1.0272
 6494TIP3   OH241040   0.627   0.197   7.566  0.3952  0.5266  0.4053
 6494TIP3    H141041   0.630   0.180   7.661  2.5540 -1.1829  0.0961
 6494TIP3    H241042   0.703   0.252   7.549 -1.4845  3.1992 -0.0360
 6495TIP3   OH241043   1.167   6.270   7.534  0.2845  0.3739 -0.0608
 6495TIP3    H141044   1.177   6.185   7.492  1.0041 -0.0264  0.9058
 6495TIP3    H241045   1.095   6.258   7.596  0.9212  0.2225  0.6653
 6496TIP3   OH241046   2.209   0.336   0.095 -0.0942 -0.4875 -0.6944
 6496TIP3    H141047   2.253   0.392   0.158  2.4168 -0.2097 -2.5402
 6496TIP3    H241048   2.169   0.396   0.032  2.0327 -0.6301 -2.3014
 6497TIP3   OH241049   0.210   2.759   0.290  0.1036  0.4552  0.4857
 6497TIP3    H141050   0.211   2.719   0.377  0.5866  0.4332  0.4725
 6497TIP3    H241051   0.294   2.803   0.283  0.2471  0.0915 -0.1409
 6498TIP3   OH241052   3.617   6.427   0.761  0.1727 -0.2458 -0.3978
 6498TIP3    H141053   3.571   6.377   0.694 -0.2651  0.8866 -0.9661
 6498TIP3    H241054   3.582   6.393   0.844  0.4674 -1.4162 -0.7281
 6499TIP3   OH241055   2.565   1.471   0.100  0.7056 -0.0785 -0.0461
 6499TIP3    H141056   2.628   1.518   0.045  1.0754  0.0208  0.4605
 6499TIP3    H241057   2.500   1.537   0.125 -0.5323 -0.5158 -1.8916
 6500TIP3   OH241058   6.787   6.875   7.134  0.6880 -0.1881 -0.0191
 6500TIP3    H141059   6.818   6.795   7.178 -1.7469 -2.2067 -1.6598
 6500TIP3    H241060   6.794   6.855   7.041  0.5986  1.8092 -0.4955
 6501TIP3   OH241061   1.376   3.822   1.023  0.5611 -0.2789 -0.1196
 6501TIP3    H141062   1.445   3.839   0.959  0.6515  1.0490  0.2995
 6501TIP3    H241063   1.334   3.906   1.036  0.6848 -0.4486  1.7178
 6502TIP3   OH241064   5.211   3.374   1.379  0.4287  0.2513  0.0978
 6502TIP3    H141065   5.185   3.400   1.467 -1.9746  1.3671 -0.8442
 6502TIP3    H241066   5.270   3.443   1.349  0.6018  0.2943  0.5310
 6503TIP3   OH241067   0.643   5.270   7.361 -0.1598 -0.3743  0.1859
 6503TIP3    H141068   0.723   5.319   7.380 -0.9769  0.2531  2.2663
 6503TIP3    H241069   0.664   5.180   7.385 -0.3107 -0.0668  1.5236
 6504TIP3   OH241070   4.018   0.627   2.557 -0.1579 -0.4005  0.0364
 6504TIP3    H141071   3.927   0.597   2.558 -0.4316  0.4003  0.7104
 6504TIP3    H241072   4.066   0.562   2.608 -0.9510  0.8316  2.5489
 6505TIP3   OH241073   6.093   5.799   0.122  0.2894 -0.2076  0.0028
 6505TIP3    H141074   6.069   5.749   0.044  1.7784 -0.8263 -0.0851
 6505TIP3    H241075   6.013   5.846   0.145 -0.2211 -0.1009 -1.8150
 6506TIP3   OH241076   6.290   1.144   7.794  0.3784 -0.1120  0.2752
 6506TIP3    H141077   6.294   1.238   7.810 -0.4124  0.1803 -1.1072
 6506TIP3    H241078   6.356   1.128   7.727 -0.0414 -0.3950 -0.0772
 6507TIP3   OH241079   3.467   2.695   7.194 -0.5710 -0.0433  0.2477
 6507TIP3    H141080   3.411   2.663   7.123  0.3300 -0.6982 -0.1795
 6507TIP3    H241081   3.423   2.667   7.274 -1.0899 -0.1564 -0.0731
 6508TIP3   OH241082   4.742   3.531   2.473  0.4328 -0.1933  0.3032
 6508TIP3    H141083   4.779   3.454   2.515 -2.7014 -0.9581  1.9642
 6508TIP3    H241084   4.712   3.586   2.545 -1.4833  0.3744 -0.8365
 6509TIP3   OH241085   6.381   5.726   1.664 -0.4866 -0.3740  0.2169
 6509TIP3    H141086   6.475   5.742   1.672 -0.5599 -0.0571  0.4930
 6509TIP3    H241087   6.366   5.715   1.570  0.0409 -1.8518  0.2793
 6510TIP3   OH241088   0.678   4.313   2.780 -0.2028  0.3081 -0.0376
 6510TIP3    H141089   0.621   4.257   2.728 -0.3940 -0.5627  1.0875
 6510TIP3    H241090   0.714   4.375   2.717 -0.5019 -0.6567 -1.1909
 6511TIP3   OH241091   2.412   2.287   8.441  0.9187  0.7345 -0.1489
 6511TIP3    H141092   2.453   2.334   8.369  0.9416 -1.2374 -1.4992
 6511TIP3    H241093   2.390   2.201   8.405 -0.1854  0.0954  1.8573
 6512TIP3   OH241094   0.928   3.460   1.023 -0.2133 -0.3902  0.6722
 6512TIP3    H141095   1.018   3.491   1.028 -0.3843  0.4741 -0.9400
 6512TIP3    H241096   0.875   3.539   1.030 -0.7271 -0.5100 -1.2573
 6513TIP3   OH241097   5.821   0.088   0.799 -0.7439  0.1552  0.1064
 6513TIP3    H141098   5.824   0.178   0.830 -0.0171  0.2598 -0.2386
 6513TIP3    H241099   5.864   0.037   0.868 -0.7775  0.1325  0.1105
 6514TIP3   OH241100   3.647   3.761   7.025  0.2289 -0.1587  0.5749
 6514TIP3    H141101   3.589   3.718   6.962 -0.7282  0.9174  0.6718
 6514TIP3    H241102   3.636   3.855   7.007  0.4626  0.1395  1.8721
 6515TIP3   OH241103   6.103   5.048   1.899  0.5314 -0.2840 -0.3035
 6515TIP3    H141104   6.168   5.116   1.916  1.2867 -0.8237 -0.9429
 6515TIP3    H241105   6.031   5.068   1.960  1.6286 -0.1396  1.0079
 6516TIP3   OH241106   2.591   5.249   8.416 -0.3612  0.4370  0.3357
 6516TIP3    H141107   2.596   5.285   8.328  0.6762 -0.2774  0.0857
 6516TIP3    H241108   2.681   5.225   8.437 -0.3445  1.8497  2.1383
 6517TIP3   OH241109   0.443   5.674   0.364  0.3406  0.3058 -0.4817
 6517TIP3    H141110   0.422   5.614   0.292  0.9831 -1.2394  0.5744
 6517TIP3    H241111   0.388   5.645   0.437  1.5739  0.1982  0.4236
 6518TIP3   OH241112   3.323   5.154   2.321  0.2686  0.0065 -0.2792
 6518TIP3    H141113   3.332   5.232   2.376  1.1427 -0.8152  0.7865
 6518TIP3    H241114   3.408   5.110   2.327 -1.0759 -2.6288  1.7143
 6519TIP3   OH241115   0.448   2.186   7.460 -0.3074 -0.5768 -1.2213
 6519TIP3    H141116   0.428   2.108   7.511 -0.1109  1.3657  2.1280
 6519TIP3    H241117   0.363   2.214   7.424 -1.5648  0.5758  2.2165
 6520TIP3   OH241118   5.415   6.811   6.795 -0.0140  0.2806 -0.6019
 6520TIP3    H141119   5.369   6.732   6.822  0.8228 -1.3542 -3.5731
 6520TIP3    H241120   5.505   6.797   6.823 -0.1434  0.8819  0.1501
 6521TIP3   OH241121   2.012   4.293   1.007 -0.3877 -0.0850 -0.3321
 6521TIP3    H141122   1.959   4.330   0.937 -2.6871 -0.7008  0.9443
 6521TIP3    H241123   2.018   4.200   0.986 -0.1805 -0.0847 -0.2697
 6522TIP3   OH241124   4.737   1.605   0.233  0.4049  0.5025 -0.3499
 6522TIP3    H141125   4.775   1.604   0.321  0.6366  1.4475 -0.4248
 6522TIP3    H241126   4.714   1.697   0.218  1.4466  0.5682 -1.7255
 6523TIP3   OH241127   2.967   2.810   2.603  0.1957 -0.3740  0.2399
 6523TIP3    H141128   2.885   2.799   2.555  1.5885  0.5306 -2.5264
 6523TIP3    H241129   2.995   2.720   2.622  0.0983 -0.8456 -1.6157
 6524TIP3   OH241130   1.052   0.954   0.948 -0.4277 -0.6517  0.0533
 6524TIP3    H141131   0.978   0.948   1.009 -0.6945  0.3153 -0.1550
 6524TIP3    H241132   1.065   1.048   0.936  1.4863 -0.7656  0.8723
 6525TIP3   OH241133   5.996   5.038   2.458 -0.5878  0.1733  0.0834
 6525TIP3    H141134   6.023   4.956   2.500  0.6790  0.9710  0.8855
 6525TIP3    H241135   5.915   5.016   2.412 -1.7803 -0.8677  2.5495
 6526TIP3   OH241136   3.316   2.619   6.674  0.2279  0.5197 -0.4723
 6526TIP3    H141137   3.260   2.680   6.626  0.6993  0.4417 -1.1227
 6526TIP3    H241138   3.391   2.604   6.617  0.7076  0.2788  0.2084
 6527TIP3   OH241139   1.287   0.059   1.845  0.1514  0.1115  0.2951
 6527TIP3    H141140   1.275   0.147   1.809  0.4163  0.8354  1.8949
 6527TIP3    H241141   1.236   0.059   1.925  0.9668 -0.8481  0.8352
 6528TIP3   OH241142   4.278   2.564   7.141  0.8102 -0.4392 -0.5324
 6528TIP3    H141143   4.227   2.580   7.061  0.1463  2.3821  0.3492
 6528TIP3    H241144   4.366   2.594   7.121  0.4449  1.0951 -0.0319
 6529TIP3   OH241145   1.810   5.926   2.250 -0.1214 -0.8573 -0.1012
 6529TIP3    H141146   1.848   6.013   2.262 -0.8733 -0.3183 -1.3596
 6529TIP3    H241147   1.828   5.880   2.331 -1.1968  1.0462  1.2890
 6530TIP3   OH241148   2.392   4.586   7.407  0.0867  0.6840 -0.1059
 6530TIP3    H141149   2.449   4.638   7.463  0.1506  0.4337  0.0614
 6530TIP3    H241150   2.354   4.650   7.346 -0.8692  1.1391  0.9472
 6531TIP3   OH241151   6.006   2.918   1.445 -0.2279  0.1378 -0.5917
 6531TIP3    H141152   5.924   2.963   1.463 -0.7554 -1.2884  0.8658
 6531TIP3    H241153   5.981   2.840   1.396 -0.0672 -1.3463  1.5452
 6532TIP3   OH241154   4.950   0.145   8.549  0.5301  0.2728  0.4028
 6532TIP3    H141155   5.044   0.144   8.529  0.4973 -0.4065  0.2739
 6532TIP3    H241156   4.936   0.230   8.591  1.3471  0.0517  1.1497
 6533TIP3   OH241157   2.464   2.765   1.524  0.1909 -0.3320  0.0917
 6533TIP3    H141158   2.496   2.852   1.549  0.4327 -0.5103  0.4133
 6533TIP3    H241159   2.368   2.773   1.529  0.2027  0.0016 -0.1845
 6534TIP3   OH241160   0.436   0.997   7.681  0.4851 -0.0174  0.2103
 6534TIP3    H141161   0.391   0.971   7.762 -0.2725  0.8925  0.0976
 6534TIP3    H241162   0.513   1.045   7.711  0.3350  0.1105  0.4013
 6535TIP3   OH241163   2.307   3.042   1.878  0.4786  0.9320 -0.3976
 6535TIP3    H141164   2.359   3.081   1.807  1.3817  0.4401 -0.0197
 6535TIP3    H241165   2.307   2.949   1.858 -1.7439  1.0815 -1.3427
 6536TIP3   OH241166   0.893   4.997   8.563  0.3952 -0.4994 -0.2048
 6536TIP3    H141167   0.855   4.916   8.530 -1.4264 -0.5550  1.8105
 6536TIP3    H241168   0.878   5.061   8.493 -0.9508 -1.2061 -0.6047
 6537TIP3   OH241169   1.705   0.589   1.535 -0.4853 -0.1697  0.3346
 6537TIP3    H141170   1.668   0.657   1.479 -0.4831 -0.7274 -0.3631
 6537TIP3    H241171   1.747   0.528   1.474 -0.7790 -0.9732  0.9102
 6538TIP3   OH241172   6.221   4.021   7.120 -0.2238 -0.6398  0.0340
 6538TIP3    H141173   6.146   3.962   7.128  0.9584 -2.1255  0.6196
 6538TIP3    H241174   6.239   4.049   7.210  0.1309 -0.5588 -0.0606
 6539TIP3   OH241175   4.488   3.043   8.516 -0.4907  0.4124 -0.2582
 6539TIP3    H141176   4.429   3.103   8.562  1.4914  1.2980  1.2639
 6539TIP3    H241177   4.519   2.982   8.584 -0.0473 -0.3630 -1.1269
 6540TIP3   OH241178   4.214   1.415   8.250  0.3632  0.0449 -0.1309
 6540TIP3    H141179   4.176   1.329   8.230 -1.4222  0.5982  0.6422
 6540TIP3    H241180   4.294   1.396   8.298 -1.3345 -1.2604  2.4412
 6541TIP3   OH241181   1.451   3.944   0.180  0.6103  0.0814 -0.5612
 6541TIP3    H141182   1.538   3.954   0.220  0.7109 -1.4569 -0.3266
 6541TIP3    H241183   1.416   4.033   0.176  1.7503  0.6014  0.3610
 6542TIP3   OH241184   2.630   6.726   0.461  0.1503  0.2959 -0.1991
 6542TIP3    H141185   2.539   6.721   0.434  0.4514  0.3044 -1.2304
 6542TIP3    H241186   2.663   6.806   0.421  0.4492  0.6313  0.6885
 6543TIP3   OH241187   1.364   5.084   1.956 -0.0934  0.2236 -0.4365
 6543TIP3    H141188   1.390   5.153   2.016 -1.2825  0.3191  0.0049
 6543TIP3    H241189   1.429   5.086   1.886 -0.7280  2.5922 -1.0594
 6544TIP3   OH241190   6.006   1.200   6.878 -0.0441  0.1150 -0.1671
 6544TIP3    H141191   6.013   1.156   6.793 -1.6093 -0.6587  0.0660
 6544TIP3    H241192   5.961   1.282   6.858 -1.9832 -0.8208  0.0855
 6545TIP3   OH241193   1.427   0.665   8.638 -0.0574  0.4944  0.0791
 6545TIP3    H141194   1.488   0.619   8.580 -0.3608 -0.6566  0.6320
 6545TIP3    H241195   1.394   0.738   8.585  1.1168  0.6054 -0.5220
 6546TIP3   OH241196   6.877   2.713   1.492 -0.3464 -0.1402 -0.5358
 6546TIP3    H141197   6.917   2.653   1.430  1.4529  1.7892 -1.3466
 6546TIP3    H241198   6.919   2.797   1.476 -3.3725  1.6318 -0.0959
 6547TIP3   OH241199   1.288   5.348   3.084  0.1099  0.0332 -0.3405
 6547TIP3    H141200   1.373   5.358   3.127 -0.3086  1.3434  0.2208
 6547TIP3    H241201   1.238   5.291   3.142  0.7637 -1.2587 -0.9716
 6548TIP3   OH241202   4.465   4.941   2.190  0.2024 -0.1963 -0.3480
 6548TIP3    H141203   4.473   4.948   2.285 -0.8623  2.1820 -0.3656
 6548TIP3    H241204   4.478   5.030   2.159  0.5981 -0.9432 -2.4663
 6549TIP3   OH241205   2.311   4.681   8.475  0.1231 -0.0686 -0.0280
 6549TIP3    H141206   2.395   4.645   8.503  0.1748  1.1901  1.5719
 6549TIP3    H241207   2.323   4.701   8.382  1.6050  0.1427  0.1910
 6550TIP3   OH241208   1.817   5.714   2.028 -0.3859  0.0885  0.1001
 6550TIP3    H141209   1.850   5.711   2.118 -3.4138 -0.8919  1.3181
 6550TIP3    H241210   1.760   5.791   2.026 -0.5140 -0.0223 -0.9031
 6551TIP3   OH241211   6.305   4.036   1.501  0.6463  0.6556  0.8667
 6551TIP3    H141212   6.393   4.000   1.512  0.5269 -0.4159 -1.2656
 6551TIP3    H241213   6.320   4.126   1.471  1.1302 -0.0785 -1.3207
 6552TIP3   OH241214   6.251   4.370   8.601  0.0739  0.1409 -0.0176
 6552TIP3    H141215   6.338   4.396   8.572  0.7515 -0.4766  1.3805
 6552TIP3    H241216   6.203   4.350   8.521  1.2429  0.3954 -0.7903
 6553TIP3   OH241217   3.229   2.065   1.538 -0.3929 -0.1914  0.2066
 6553TIP3    H141218   3.283   2.003   1.588  1.2597  1.1468  0.1488
 6553TIP3    H241219   3.179   2.112   1.605 -0.4284 -0.4443  0.3615
 6554TIP3   OH241220   0.171   6.213   1.252 -0.9449 -0.0637 -0.8263
 6554TIP3    H141221   0.258   6.217   1.290 -1.7042  1.5460  0.9791
 6554TIP3    H241222   0.141   6.124   1.269  0.1684 -0.4943 -1.0511
 6555TIP3   OH241223   0.917   1.400   7.850 -0.2353  0.1050  0.1938
 6555TIP3    H141224   0.987   1.339   7.825 -0.4273 -0.9463  2.0184
 6555TIP3    H241225   0.875   1.423   7.768  0.9184 -0.9142 -0.7264
 6556TIP3   OH241226   0.203   2.178   1.080 -0.0938 -0.0872 -0.3776
 6556TIP3    H141227   0.107   2.183   1.082 -0.1132 -0.5881  1.1779
 6556TIP3    H241228   0.221   2.100   1.028 -0.5927 -0.8634  0.5761
 6557TIP3   OH241229   3.296   5.668   0.888  0.1512 -0.2753  0.1862
 6557TIP3    H141230   3.364   5.679   0.821 -0.3164 -0.8172 -0.3891
 6557TIP3    H241231   3.229   5.731   0.865 -0.6956 -1.4811 -0.7574
 6558TIP3   OH241232   0.398   0.000   0.614 -0.8149 -0.1071  0.1614
 6558TIP3    H141233   0.392  -0.051   0.694 -1.0064  1.1110  0.9524
 6558TIP3    H241234   0.313   0.044   0.607 -0.5751  0.2848 -0.3598
 6559TIP3   OH241235   4.869   4.480   7.820 -0.0781 -0.1494  0.7566
 6559TIP3    H141236   4.811   4.426   7.873  0.3601 -1.5669 -0.1778
 6559TIP3    H241237   4.812   4.548   7.784 -1.1439 -1.4037  0.0057
 6560TIP3   OH241238   6.177   2.817   6.779 -0.3299 -1.0346  0.4737
 6560TIP3    H141239   6.090   2.817   6.739 -0.1155 -1.2722 -0.0028
 6560TIP3    H241240   6.171   2.879   6.852 -0.9572 -1.2149  0.5754
 6561TIP3   OH241241   4.791   2.899   0.213 -0.0453 -0.2235  0.4813
 6561TIP3    H141242   4.704   2.930   0.188  0.0475 -0.9990 -0.9190
 6561TIP3    H241243   4.804   2.933   0.301 -1.5129  0.4202  0.4834
 6562TIP3   OH241244   1.886   5.846   6.709 -0.1398  0.4737  0.6968
 6562TIP3    H141245   1.879   5.751   6.718  0.0131  0.4457  0.5109
 6562TIP3    H241246   1.978   5.865   6.728  0.5156  0.2849 -2.0032
 6563TIP3   OH241247   4.082   0.532   0.304 -0.2128 -0.0222 -0.0360
 6563TIP3    H141248   4.003   0.547   0.356  0.1319  0.6082  0.3064
 6563TIP3    H241249   4.082   0.602   0.239  0.1822  0.1078  0.1027
 6564TIP3   OH241250   0.647   4.379   0.360 -0.2291 -0.0915 -0.3693
 6564TIP3    H141251   0.563   4.425   0.357  0.6201  1.5551 -0.1375
 6564TIP3    H241252   0.705   4.439   0.407  0.8955 -1.5078  0.1020
 6565TIP3   OH241253   1.061   2.412   8.363 -0.0510 -0.1643  0.0658
 6565TIP3    H141254   1.155   2.428   8.363  0.5371 -3.1451  0.0638
 6565TIP3    H241255   1.022   2.500   8.360  2.6848  1.1546  0.1391
 6566TIP3   OH241256   5.333   1.445   7.669  0.2345 -0.1349  0.5856
 6566TIP3    H141257   5.307   1.356   7.693 -1.0134 -0.1385 -0.6745
 6566TIP3    H241258   5.360   1.438   7.577 -0.4712  0.8956  0.2898
 6567TIP3   OH241259   0.014   0.977   7.792 -0.5073 -0.5500 -0.2791
 6567TIP3    H141260  -0.067   0.995   7.839  0.1289 -1.1632  1.1149
 6567TIP3    H241261   0.020   1.046   7.726 -1.7831 -0.0673  0.0941
 6568TIP3   OH241262   0.806   0.290   2.007 -0.4094 -0.0480 -0.4279
 6568TIP3    H141263   0.796   0.195   2.012 -0.6406 -0.0142 -0.2280
 6568TIP3    H241264   0.775   0.322   2.092 -0.9916  0.2611 -0.7519
 6569TIP3   OH241265   5.045   1.281   1.629 -0.1157 -0.2087  0.0157
 6569TIP3    H141266   5.035   1.221   1.703 -1.1719 -0.1524 -0.0692
 6569TIP3    H241267   4.956   1.314   1.612  0.2829  0.5913 -0.5951
 6570TIP3   OH241268   6.091   1.966   7.528 -0.2101  0.5498  0.2459
 6570TIP3    H141269   5.996   1.973   7.524 -0.2502 -0.2607 -0.6468
 6570TIP3    H241270   6.115   1.916   7.450  1.1244  2.4020 -0.6256
 6571TIP3   OH241271   2.398   0.114   7.977 -0.4983  0.1333 -0.1514
 6571TIP3    H141272   2.323   0.093   7.922  0.0252 -0.6093 -0.5876
 6571TIP3    H241273   2.429   0.030   8.010 -0.8886  0.5604  1.4280
 6572TIP3   OH241274   2.338   4.680   0.140  0.4028  0.8431  0.2587
 6572TIP3    H141275   2.294   4.727   0.068 -0.3659 -0.6304 -0.2642
 6572TIP3    H241276   2.350   4.747   0.208  1.3468  2.3438 -1.2950
 6573TIP3   OH241277   1.499   3.733   7.344  0.1107 -0.3287  0.0862
 6573TIP3    H141278   1.559   3.773   7.281 -1.1195 -0.1480 -1.0167
 6573TIP3    H241279   1.490   3.643   7.314 -0.3339 -0.2933  0.1115
 6574TIP3   OH241280   4.259   5.137   8.393 -0.7516  0.5000 -0.0745
 6574TIP3    H141281   4.210   5.055   8.386 -0.3064  0.1772  0.4738
 6574TIP3    H241282   4.191   5.204   8.399 -1.1316  0.0913  0.3262
 6575TIP3   OH241283   6.695   1.593   7.467 -0.1617  0.3467  0.5207
 6575TIP3    H141284   6.774   1.623   7.424  0.9672  2.0536  3.4960
 6575TIP3    H241285   6.695   1.498   7.455  2.1686  0.3458  0.1743
 6576TIP3   OH241286   0.486   4.469   1.223 -0.2171  0.5178 -0.2957
 6576TIP3    H141287   0.555   4.403   1.223  0.0331  0.6434  2.7232
 6576TIP3    H241288   0.406   4.420   1.245 -0.5288  0.8457 -0.6710
 6577TIP3   OH241289   1.114   0.446   8.476  0.1065  0.0007  0.2175
 6577TIP3    H141290   1.095   0.353   8.462  0.3793 -0.1298  0.7257
 6577TIP3    H241291   1.116   0.457   8.571 -0.1808  0.5798  0.1611
 6578TIP3   OH241292   5.636   6.797   1.282  0.8824  0.0606 -0.3385
 6578TIP3    H141293   5.591   6.872   1.242  0.9795  0.4199  0.2136
 6578TIP3    H241294   5.592   6.720   1.245 -0.2791  0.3967  0.2770
 6579TIP3   OH241295   4.615   6.011   0.500 -0.3143 -0.1205  0.2653
 6579TIP3    H141296   4.553   5.966   0.443  0.4056  1.0546 -1.5360
 6579TIP3    H241297   4.560   6.063   0.558 -1.0585  0.4327 -0.8922
 6580TIP3   OH241298   0.162   0.464   2.258 -0.1450 -0.1089 -0.2163
 6580TIP3    H141299   0.185   0.372   2.263  0.3857  0.0427  0.2918
 6580TIP3    H241300   0.221   0.507   2.320 -0.2651  0.5927 -0.5712
 6581TIP3   OH241301   0.263   4.712   6.545  0.2986  0.3159 -0.0867
 6581TIP3    H141302   0.183   4.658   6.547  0.6979 -0.2974 -0.4556
 6581TIP3    H241303   0.250   4.770   6.470 -0.7227  1.6694  1.0977
 6582TIP3   OH241304   4.566   2.070   7.519  0.1141  0.0955 -0.2091
 6582TIP3    H141305   4.626   2.127   7.566  1.1445 -1.5430  0.5232
 6582TIP3    H241306   4.593   1.981   7.541 -0.6087 -0.7369 -2.3287
 6583TIP3   OH241307   5.031   1.034   8.194 -1.0174 -0.5313  0.2647
 6583TIP3    H141308   5.031   1.030   8.290 -2.1836 -1.5506  0.2409
 6583TIP3    H241309   5.069   0.950   8.167 -2.9065 -1.3122 -0.1452
 6584TIP3   OH241310   3.441   6.103   8.012  0.2177  0.3416  0.3256
 6584TIP3    H141311   3.440   6.014   7.976 -1.6245 -0.7382  2.7579
 6584TIP3    H241312   3.384   6.153   7.954  0.2855 -0.3576 -0.3654
 6585TIP3   OH241313   2.082   1.372   8.560  0.1950  0.2469 -0.1663
 6585TIP3    H141314   2.085   1.390   8.654 -0.9818  0.0481 -0.0742
 6585TIP3    H241315   2.003   1.416   8.530  0.0027 -0.5493 -0.8648
 6586TIP3   OH241316   4.835   4.168   1.027 -0.0253  0.2313  0.3485
 6586TIP3    H141317   4.916   4.197   0.985  0.1338 -0.5906  0.0720
 6586TIP3    H241318   4.853   4.079   1.057 -1.4973 -0.8458 -1.7152
 6587TIP3   OH241319   3.386   2.507   0.678 -0.0203 -0.1422  0.2699
 6587TIP3    H141320   3.361   2.422   0.714  1.6504 -1.2099 -0.9786
 6587TIP3    H241321   3.311   2.534   0.625 -0.1792 -1.3274 -0.1401
 6588TIP3   OH241322   0.816   1.334   0.322 -0.2125 -0.7758 -0.3217
 6588TIP3    H141323   0.798   1.369   0.410 -1.8833 -2.1455 -0.0550
 6588TIP3    H241324   0.804   1.240   0.331 -0.3573 -0.9518 -2.0270
 6589TIP3   OH241325   5.233   4.738   8.088  0.0205  0.0341  0.3536
 6589TIP3    H141326   5.308   4.684   8.065 -0.5256  0.2724 -2.4288
 6589TIP3    H241327   5.270   4.824   8.108  0.5589  0.0488 -0.6409
 6590TIP3   OH241328   6.892   0.975   7.251 -0.2031  0.1728 -0.3649
 6590TIP3    H141329   6.983   0.992   7.228  0.0745 -0.2061  0.4307
 6590TIP3    H241330   6.859   1.059   7.285 -0.0529  0.2142 -0.3230
 6591TIP3   OH241331   4.166   1.666   8.428 -0.3037 -0.1736 -0.0516
 6591TIP3    H141332   4.128   1.620   8.503  1.0685 -0.8642  0.2497
 6591TIP3    H241333   4.203   1.596   8.374  1.8417  0.5265  0.4267
 6592TIP3   OH241334   5.261   5.976   8.057 -0.0777  0.5250  0.4632
 6592TIP3    H141335   5.166   5.969   8.049 -0.1050  1.7514 -0.4914
 6592TIP3    H241336   5.283   5.914   8.127 -1.3477 -1.1989 -0.5548
 6593TIP3   OH241337   4.802   4.096   0.060 -0.0916  0.1458 -0.2555
 6593TIP3    H141338   4.792   4.019   0.116 -2.0141  0.3097 -0.2819
 6593TIP3    H241339   4.751   4.164   0.104  0.2545  0.9380 -1.0472
 6594TIP3   OH241340   0.629   2.602   0.369 -0.3520  0.1770 -0.5168
 6594TIP3    H141341   0.606   2.679   0.421 -0.8584 -0.7992  0.7630
 6594TIP3    H241342   0.721   2.615   0.347 -0.7315  1.7024 -1.3416
 6595TIP3   OH241343   6.653   5.526   0.500 -0.3247 -0.1241  0.1332
 6595TIP3    H141344   6.570   5.566   0.525 -0.5971  2.2426 -3.7834
 6595TIP3    H241345   6.637   5.487   0.414  2.7766  1.2694 -1.2291
 6596TIP3   OH241346   2.754   1.222   1.408  0.4823  0.5349  0.4165
 6596TIP3    H141347   2.724   1.163   1.339 -0.5761 -0.3518  1.5898
 6596TIP3    H241348   2.693   1.296   1.404 -0.2704 -0.0335  1.0938
 6597TIP3   OH241349   1.903   1.696   0.092 -0.1669 -0.6906 -0.1175
 6597TIP3    H141350   1.943   1.609   0.096  1.0719 -0.1876 -1.1305
 6597TIP3    H241351   1.938   1.741   0.169  1.0791 -0.3402 -0.8554
 6598TIP3   OH241352   3.394   3.966   8.225 -0.2270 -0.1490  0.0778
 6598TIP3    H141353   3.462   4.001   8.167 -1.5682  0.5612 -1.1185
 6598TIP3    H241354   3.354   3.895   8.175  0.4746 -1.4591  1.3019
 6599TIP3   OH241355   4.475   1.613   7.210  0.0003 -0.0837 -0.1187
 6599TIP3    H141356   4.511   1.698   7.182  0.4526  0.2322  1.3421
 6599TIP3    H241357   4.490   1.555   7.135 -0.1411  1.0725 -1.0754
 6600TIP3   OH241358   4.087   1.375   7.543 -0.0193  0.6221 -0.0027
 6600TIP3    H141359   4.182   1.383   7.556  0.9700 -3.8934 -2.4509
 6600TIP3    H241360   4.073   1.398   7.451 -0.5224 -2.1329 -0.7159
 6601TIP3   OH241361   6.582   0.177   1.014 -0.4506  0.2076  0.5100
 6601TIP3    H141362   6.497   0.148   0.984  0.3893 -3.5287  1.2380
 6601TIP3    H241363   6.629   0.201   0.934 -0.7855 -2.0089 -0.4191
 6602TIP3   OH241364   2.634   0.231   1.462  0.4377  0.1891  0.6997
 6602TIP3    H141365   2.649   0.171   1.536 -0.5590  0.2612  0.9804
 6602TIP3    H241366   2.718   0.234   1.416  0.0571 -3.0514 -0.5340
 6603TIP3   OH241367   1.654   4.851   0.205  0.0333  0.3248  0.3305
 6603TIP3    H141368   1.651   4.902   0.124  2.5644 -0.0303 -0.0829
 6603TIP3    H241369   1.701   4.907   0.267 -0.7045  0.0609  1.1409
 6604TIP3   OH241370   3.327   2.275   0.408 -0.4528  0.6362 -0.7831
 6604TIP3    H141371   3.300   2.366   0.422 -0.3278  0.1908  3.7829
 6604TIP3    H241372   3.248   2.224   0.424 -0.2428 -0.1961 -2.1761
 6605TIP3   OH241373   3.229   6.223   1.027 -0.3389  0.2693  0.3300
 6605TIP3    H141374   3.221   6.284   1.100 -0.1660  0.3501  0.2836
 6605TIP3    H241375   3.145   6.229   0.981 -0.5525  0.0000  0.6878
 6606TIP3   OH241376   1.518   2.771   8.171 -0.4114  0.4450 -0.1061
 6606TIP3    H141377   1.550   2.811   8.090  0.5205  0.1201  0.0881
 6606TIP3    H241378   1.501   2.680   8.148  0.7448  0.1159  0.2700
 6607TIP3   OH241379   6.521   3.352   2.795  1.1837 -0.0660  0.4526
 6607TIP3    H141380   6.455   3.288   2.822 -1.0861  1.4472 -1.1387
 6607TIP3    H241381   6.568   3.374   2.875  0.5146 -2.0019  1.4450
 6608TIP3   OH241382   5.766   3.701   0.745  0.0032  0.1818 -0.0450
 6608TIP3    H141383   5.686   3.655   0.770  0.5727 -1.4593 -1.0823
 6608TIP3    H241384   5.769   3.694   0.650  1.5608 -0.1121  0.0039
 6609TIP3   OH241385   6.579   6.610   6.604 -0.3773 -0.5169 -0.6576
 6609TIP3    H141386   6.494   6.583   6.639  0.7933 -1.2734  1.9149
 6609TIP3    H241387   6.632   6.530   6.607  1.3321  0.5910  0.9940
 6610TIP3   OH241388   3.146   1.221   8.141 -0.6186 -0.5680  0.3847
 6610TIP3    H141389   3.161   1.281   8.215  0.1072 -0.7509  0.3928
 6610TIP3    H241390   3.227   1.172   8.133 -1.1901 -1.5490  0.3665
 6611TIP3   OH241391   2.718   2.162   0.428  0.2016 -0.1541 -0.1549
 6611TIP3    H141392   2.668   2.091   0.468 -0.4538  0.0334 -0.6036
 6611TIP3    H241393   2.669   2.182   0.348  1.4722 -0.5289 -1.0544
 6612TIP3   OH241394   5.035   0.573   1.680 -0.1736 -0.1677  0.0318
 6612TIP3    H141395   5.010   0.482   1.695 -0.9073 -0.0857 -0.6459
 6612TIP3    H241396   4.957   0.623   1.700  0.5730  0.4517  1.5931
 6613TIP3   OH241397   5.335   0.205   0.955  0.4261  0.0970 -0.1524
 6613TIP3    H141398   5.283   0.246   1.024  0.5740 -0.5999  0.3748
 6613TIP3    H241399   5.281   0.213   0.877 -0.7925 -1.2072  0.5204
 6614TIP3   OH241400   3.720   4.252   0.777  0.2576  0.0489 -0.4308
 6614TIP3    H141401   3.733   4.313   0.705  1.8744 -1.2669 -1.3269
 6614TIP3    H241402   3.688   4.172   0.735  0.3043 -0.4333  0.4319
 6615TIP3   OH241403   4.897   4.666   1.311 -0.3742 -0.3077 -0.0491
 6615TIP3    H141404   4.801   4.660   1.309 -0.2829 -2.0460 -1.0972
 6615TIP3    H241405   4.923   4.609   1.383 -0.0331 -2.8594 -2.0469
 6616TIP3   OH241406   2.349   2.061   0.318  0.4350 -0.4033  0.4515
 6616TIP3    H141407   2.326   2.078   0.409  0.0593 -1.5515  0.5857
 6616TIP3    H241408   2.392   1.976   0.320 -1.6785 -1.5819 -0.7232
 6617TIP3   OH241409   2.720   3.894   0.556  0.1262  0.6935 -0.2809
 6617TIP3    H141410   2.682   3.812   0.524  0.0711  1.1405 -1.3937
 6617TIP3    H241411   2.797   3.908   0.500  1.3010  0.3815  1.2035
 6618TIP3   OH241412   6.049   3.833   7.171 -0.7254  0.1408 -0.4789
 6618TIP3    H141413   6.071   3.765   7.235  2.1790 -0.6822 -2.1768
 6618TIP3    H241414   6.005   3.786   7.101 -0.1124  0.2524 -0.9476
 6619TIP3   OH241415   5.325   6.065   1.638 -0.6702 -0.1931 -0.3420
 6619TIP3    H141416   5.404   6.101   1.598 -0.0168  1.6407  2.3237
 6619TIP3    H241417   5.271   6.142   1.656 -1.3749 -1.0311  1.2417
 6620TIP3   OH241418   1.106   0.410   1.445 -0.3916 -0.4868 -0.1312
 6620TIP3    H141419   1.176   0.446   1.499 -2.1019  0.6667  1.4446
 6620TIP3    H241420   1.134   0.427   1.355  1.5441 -0.4888  0.4297
 6621TIP3   OH241421   0.091   0.076   6.698  0.3914  0.0076  0.1667
 6621TIP3    H141422   0.094   0.169   6.676 -0.8845  0.1492  0.4924
 6621TIP3    H241423   0.114   0.031   6.617 -1.3854  0.5772 -0.7087
 6622TIP3   OH241424   1.076   4.106   8.085 -0.4953  0.3793 -0.1463
 6622TIP3    H141425   1.163   4.131   8.117 -0.0249 -0.8719 -0.4126
 6622TIP3    H241426   1.071   4.012   8.098 -1.4142  0.2737 -1.1095
 6623TIP3   OH241427   5.473   0.422   8.261 -0.5442 -0.4117  0.4205
 6623TIP3    H141428   5.521   0.493   8.219 -0.3664 -0.8783 -0.1671
 6623TIP3    H241429   5.485   0.437   8.355  3.0725 -2.0518  0.3782
 6624TIP3   OH241430   6.383   3.173   0.270 -0.0066  0.0906 -0.4988
 6624TIP3    H141431   6.333   3.245   0.232  1.0145  1.2596  0.2844
 6624TIP3    H241432   6.417   3.208   0.353  0.5561 -1.2794 -0.1125
 6625TIP3   OH241433   1.981   4.026   1.011 -0.6773  0.2140  0.1726
 6625TIP3    H141434   2.063   3.983   0.985 -0.2279  1.8600 -1.3289
 6625TIP3    H241435   1.915   3.957   1.001  0.0862 -0.3189 -1.6996
 6626TIP3   OH241436   6.278   0.737   2.163  0.2620  0.3263 -0.0973
 6626TIP3    H141437   6.321   0.759   2.246  0.3222  0.3761 -0.1415
 6626TIP3    H241438   6.344   0.687   2.115  0.3927  0.6888 -0.3029
 6627TIP3   OH241439   1.925   0.902   0.013  0.0123  0.2008  0.6477
 6627TIP3    H141440   1.832   0.925   0.005  0.3082  0.8005 -1.4588
 6627TIP3    H241441   1.972   0.979  -0.020  1.3147  0.1778  2.3036
 6628TIP3   OH241442   0.923   2.573   8.007  0.0518 -0.1247  0.8939
 6628TIP3    H141443   0.828   2.567   7.998  0.0484  0.8574  0.0298
 6628TIP3    H241444   0.956   2.551   7.920  0.5039  1.3926  0.6536
 6629TIP3   OH241445   3.839   0.606   0.401 -0.2975 -0.1378  0.6825
 6629TIP3    H141446   3.790   0.609   0.320  0.1679 -1.4675  0.3176
 6629TIP3    H241447   3.774   0.588   0.469 -0.6874  0.9979  0.6176
 6630TIP3   OH241448   5.008   5.335   0.123  0.3332  0.3053  0.0120
 6630TIP3    H141449   5.087   5.353   0.071  1.5355 -2.3224  0.7509
 6630TIP3    H241450   5.009   5.240   0.135 -3.0364  0.1577 -0.0006
 6631TIP3   OH241451   4.647   0.603   3.126 -0.3918 -0.1039  0.3274
 6631TIP3    H141452   4.553   0.594   3.112 -0.2405 -1.6265  0.1509
 6631TIP3    H241453   4.682   0.631   3.042 -0.9350  3.0413  1.0118
 6632TIP3   OH241454   4.437   3.642   1.500 -0.1499  0.3265 -0.0090
 6632TIP3    H141455   4.521   3.610   1.467 -1.0869  0.3204 -2.6234
 6632TIP3    H241456   4.450   3.651   1.594  2.2275 -1.3349 -0.0932
 6633TIP3   OH241457   6.680   4.104   7.638 -0.6724  0.3158 -0.5687
 6633TIP3    H141458   6.747   4.036   7.642 -0.6266  0.4190  1.1604
 6633TIP3    H241459   6.619   4.074   7.570 -0.0360 -0.8514 -0.6456
 6634TIP3   OH241460   1.897   1.602   7.012 -0.0109  0.3276 -0.1722
 6634TIP3    H141461   1.947   1.659   7.070  1.5183 -0.3346 -0.7905
 6634TIP3    H241462   1.827   1.658   6.977 -1.4492  0.5843  2.7763
 6635TIP3   OH241463   6.494   0.700   0.560  0.2349 -0.0943 -0.7060
 6635TIP3    H141464   6.400   0.718   0.562  0.3754  0.5870  1.2471
 6635TIP3    H241465   6.499   0.604   0.562 -0.4477 -0.1437  1.7063
 6636TIP3   OH241466   5.734   3.989   0.381  0.8139  0.6555  0.1887
 6636TIP3    H141467   5.685   3.907   0.382  1.1533  0.3989 -1.5488
 6636TIP3    H241468   5.666   4.057   0.381  0.5233  0.3770  0.8072
 6637TIP3   OH241469   2.930   1.387   0.363  0.2933  0.5753 -0.7622
 6637TIP3    H141470   2.890   1.322   0.305 -0.2663  0.5986 -0.4088
 6637TIP3    H241471   2.857   1.438   0.397  0.6029  0.5320  0.0036
 6638TIP3   OH241472   2.541   2.703   8.340  0.1092 -0.0572  0.4652
 6638TIP3    H141473   2.519   2.772   8.277 -1.7113 -0.8564  0.1765
 6638TIP3    H241474   2.541   2.622   8.289  1.2605 -0.4229  0.9998
 6639TIP3   OH241475   4.431   0.205   2.419 -0.0048  0.3508 -0.0065
 6639TIP3    H141476   4.354   0.231   2.469 -0.5132  0.3530 -0.7735
 6639TIP3    H241477   4.417   0.113   2.399  0.0740  0.4158 -0.3603
 6640TIP3   OH241478   4.514   4.693   1.983 -0.0924 -0.3260  0.0738
 6640TIP3    H141479   4.517   4.638   1.905 -1.1391 -0.2017 -0.0696
 6640TIP3    H241480   4.549   4.778   1.955  1.7495 -0.9466  0.3543
 6641TIP3   OH241481   3.201   2.197   8.149  0.4666 -0.4628  0.1539
 6641TIP3    H141482   3.168   2.216   8.061  1.8996 -0.7595 -0.4744
 6641TIP3    H241483   3.187   2.103   8.161 -0.1318 -0.3453  0.4377
 6642TIP3   OH241484   0.122   5.919   7.975 -0.4951  0.0814 -0.4690
 6642TIP3    H141485   0.030   5.916   7.950 -0.3366 -1.2354 -0.9900
 6642TIP3    H241486   0.165   5.859   7.915  0.8477  1.2834 -0.7455
 6643TIP3   OH241487   4.726   1.405   8.173 -0.4017  0.1404  0.1658
 6643TIP3    H141488   4.752   1.491   8.206 -2.6482 -0.4177  3.9553
 6643TIP3    H241489   4.809   1.357   8.162  0.6789  1.5068  1.9481
 6644TIP3   OH241490   4.710   5.523   1.533  0.5388  0.5199 -0.3359
 6644TIP3    H141491   4.787   5.487   1.489 -1.2007 -2.3464 -1.3412
 6644TIP3    H241492   4.678   5.590   1.473  0.8817 -0.0262 -1.1564
 6645TIP3   OH241493   3.354   0.142   8.144 -0.3139 -0.9315  0.2275
 6645TIP3    H141494   3.410   0.195   8.201  0.4645  1.1652 -2.3233
 6645TIP3    H241495   3.282   0.200   8.121 -0.0448 -1.3225 -1.7472
 6646TIP3   OH241496   4.132   6.346   1.570  0.1391 -0.1650  0.0218
 6646TIP3    H141497   4.052   6.396   1.559 -0.7790 -1.8757 -1.6267
 6646TIP3    H241498   4.118   6.295   1.650 -0.6973 -0.8997 -0.5800
 6647TIP3   OH241499   3.308   1.543   8.657 -0.1827  0.0218 -0.2817
 6647TIP3    H141500   3.368   1.549   8.731  0.0995  2.4360 -0.6232
 6647TIP3    H241501   3.327   1.622   8.605 -3.3472  0.6831 -0.6150
 6648TIP3   OH241502   0.932   1.125   2.406  0.5079 -0.3292  0.0856
 6648TIP3    H141503   0.919   1.209   2.361  0.0152 -0.1727  0.5097
 6648TIP3    H241504   0.924   1.059   2.337  0.1569 -0.0704 -0.1213
 6649TIP3   OH241505   2.019   6.032   2.593 -0.2901 -0.1893 -0.3876
 6649TIP3    H141506   2.013   6.051   2.686 -2.3553 -0.7767 -0.3451
 6649TIP3    H241507   2.082   6.095   2.559 -0.7340  1.1306  1.1285
 6650TIP3   OH241508   0.211   6.194   0.478  0.1512 -0.3007  0.2456
 6650TIP3    H141509   0.208   6.107   0.517  1.4324  0.2788  1.7362
 6650TIP3    H241510   0.232   6.179   0.386 -1.4591 -1.6387  0.0531
 6651TIP3   OH241511   0.551   5.925   0.261 -0.4434  0.3120 -0.1316
 6651TIP3    H141512   0.549   5.867   0.337  2.8903  0.8376  0.4807
 6651TIP3    H241513   0.526   5.869   0.188  0.1307 -1.2426  0.8021
 6652TIP3   OH241514   2.925   5.674   0.321  0.0501 -0.3629 -1.1068
 6652TIP3    H141515   3.015   5.648   0.336 -0.2517 -1.6863 -1.5036
 6652TIP3    H241516   2.918   5.761   0.361  1.2290 -0.6531 -0.2326
 6653TIP3   OH241517   1.580   0.057   1.264 -0.0452 -0.4821 -0.4075
 6653TIP3    H141518   1.674   0.072   1.279 -0.2332 -1.3440  2.1159
 6653TIP3    H241519   1.574  -0.036   1.243 -0.4775 -1.0063  1.7723
 6654TIP3   OH241520   2.513   1.570   1.962  0.0599  0.3399 -0.1686
 6654TIP3    H141521   2.449   1.503   1.986  0.7598 -0.4069 -0.3468
 6654TIP3    H241522   2.509   1.573   1.866  0.2687  0.3104 -0.1786
 6655TIP3   OH241523   3.710   6.646   0.885 -0.2992  0.5748 -0.0572
 6655TIP3    H141524   3.681   6.577   0.825  0.2373 -0.7944  1.1729
 6655TIP3    H241525   3.645   6.645   0.955 -0.0313  1.0029  0.1957
 6656TIP3   OH241526   4.887   1.132   2.565  0.1294  0.1809 -0.5241
 6656TIP3    H141527   4.832   1.087   2.629 -2.7794  0.4845 -2.6126
 6656TIP3    H241528   4.956   1.069   2.543  0.7520 -0.2169  2.1905
 6657TIP3   OH241529   2.979   3.337   2.056 -0.2684  0.3801 -0.0948
 6657TIP3    H141530   2.988   3.354   2.150  1.3836  0.8951 -0.3078
 6657TIP3    H241531   3.067   3.311   2.028 -1.2515 -2.1263 -1.0691
 6658TIP3   OH241532   1.500   3.210   8.139 -0.2859 -0.3779  0.1357
 6658TIP3    H141533   1.592   3.237   8.133  0.4416 -2.4336  1.1909
 6658TIP3    H241534   1.474   3.194   8.048 -0.2760  2.1216 -0.3781
 6659TIP3   OH241535   1.571   1.244   6.387  0.0428  0.2548  0.0027
 6659TIP3    H141536   1.504   1.296   6.433  0.7667  0.7659  0.4978
 6659TIP3    H241537   1.560   1.155   6.422 -1.6658 -0.1383 -1.3569
 6660TIP3   OH241538   0.362   0.734   7.905 -0.4208  0.4649  0.2653
 6660TIP3    H141539   0.330   0.824   7.914  0.4199  0.6943  1.1582
 6660TIP3    H241540   0.425   0.724   7.976  0.8916 -0.2105 -0.9399
 6661TIP3   OH241541   4.346   4.547   1.405 -0.1508 -0.1565 -0.6011
 6661TIP3    H141542   4.424   4.561   1.351 -0.3766  0.7924 -0.6942
 6661TIP3    H241543   4.307   4.634   1.414  0.5692 -0.0196  2.1386
 6662TIP3   OH241544   6.893   0.010   0.276  0.4144 -0.6200 -0.0064
 6662TIP3    H141545   6.835  -0.041   0.333  0.8826 -0.6454  0.4498
 6662TIP3    H241546   6.977  -0.036   0.279  0.4277 -0.6544 -0.7694
 6663TIP3   OH241547   0.063   4.443   1.016 -0.1738  0.1898  0.3025
 6663TIP3    H141548   0.145   4.392   1.016  0.7011  1.5583  0.0287
 6663TIP3    H241549   0.038   4.448   1.108  0.9079  1.0657  0.5699
 6664TIP3   OH241550   3.177   6.126   1.390 -0.0654  0.0569 -0.5845
 6664TIP3    H141551   3.258   6.125   1.338  0.3661  0.3628  0.0767
 6664TIP3    H241552   3.113   6.167   1.332  0.3277  0.0893 -1.0057
 6665TIP3   OH241553   5.450   0.435   1.366 -0.4446  0.3997 -0.0882
 6665TIP3    H141554   5.505   0.362   1.336  1.3598  1.3905  0.6344
 6665TIP3    H241555   5.367   0.394   1.390  0.6928 -1.5308  0.8033
 6666TIP3   OH241556   5.419   5.638   6.777  0.5412  0.5837 -0.3227
 6666TIP3    H141557   5.366   5.580   6.723  1.0474  1.1445 -1.4429
 6666TIP3    H241558   5.392   5.618   6.867 -0.6881  0.0128 -0.7967
 6667TIP3   OH241559   0.911   0.951   2.787 -0.2703 -0.9279  0.2583
 6667TIP3    H141560   0.842   0.898   2.828 -0.8716  1.2993  2.4002
 6667TIP3    H241561   0.992   0.922   2.830 -0.4208 -0.9581  0.5252
 6668TIP3   OH241562   4.948   3.728   2.367  0.1667 -0.3793  0.1721
 6668TIP3    H141563   5.000   3.765   2.437 -1.6604  0.2284  1.2681
 6668TIP3    H241564   4.902   3.654   2.407  0.0941 -0.8530 -0.7430
 6669TIP3   OH241565   5.511   6.306   2.677 -0.1828  0.2106 -0.4525
 6669TIP3    H141566   5.436   6.358   2.705  0.5505  0.3940  1.3082
 6669TIP3    H241567   5.586   6.351   2.715  0.5306 -1.7953  0.6530
 6670TIP3   OH241568   4.538   5.861   1.165  0.7211  0.3395  0.2670
 6670TIP3    H141569   4.552   5.807   1.088 -0.3677  0.5033 -0.0622
 6670TIP3    H241570   4.579   5.945   1.144 -0.0560  0.5707 -0.3688
 6671TIP3   OH241571   3.026   2.752   2.222 -0.3495 -0.5862 -0.3737
 6671TIP3    H141572   3.025   2.815   2.150  0.5854 -1.4943 -1.2167
 6671TIP3    H241573   3.116   2.752   2.253 -1.1766  1.5028  2.4193
 6672TIP3   OH241574   4.428   6.484   7.693  0.3787 -0.4564 -0.0967
 6672TIP3    H141575   4.445   6.576   7.676  1.2316 -0.7197 -0.7614
 6672TIP3    H241576   4.400   6.448   7.609  1.4439 -1.0952 -0.1994
 6673TIP3   OH241577   5.285   4.430   0.961 -0.1738  0.2889 -0.0609
 6673TIP3    H141578   5.262   4.426   1.054 -0.6017 -0.2211 -0.1819
 6673TIP3    H241579   5.231   4.501   0.926 -0.7465 -0.1577 -0.1107
 6674TIP3   OH241580   1.975   0.990   0.645 -0.3546  0.2028 -0.0387
 6674TIP3    H141581   1.880   0.997   0.640 -0.2629  1.6601 -0.1195
 6674TIP3    H241582   2.004   0.993   0.554 -0.2249 -0.0121 -0.0034
 6675TIP3   OH241583   0.114   3.607   0.523  0.2541  0.2604 -0.2081
 6675TIP3    H141584   0.059   3.593   0.600  0.7999 -2.1912 -0.1927
 6675TIP3    H241585   0.111   3.524   0.476  1.9369  0.9002 -1.5500
 6676TIP3   OH241586   1.637   0.162   2.184 -0.1615  0.0691 -0.4213
 6676TIP3    H141587   1.614   0.254   2.171  0.2835 -0.1347 -3.1913
 6676TIP3    H241588   1.557   0.114   2.162 -0.3829 -0.2486  0.9897
 6677TIP3   OH241589   6.878   0.477   7.996  0.3792  0.2040 -0.4000
 6677TIP3    H141590   6.923   0.532   8.060  0.4702 -1.0895  0.6999
 6677TIP3    H241591   6.943   0.462   7.927  1.2570 -0.6098  0.5574
 6678TIP3   OH241592   4.095   1.704   0.572 -0.0741  0.2570 -0.3940
 6678TIP3    H141593   4.123   1.639   0.507 -0.6146  0.4192 -0.7934
 6678TIP3    H241594   4.045   1.653   0.636  1.1584 -0.0478  0.3657
 6679TIP3   OH241595   1.771   4.842   8.602 -0.2173  0.0463  0.1986
 6679TIP3    H141596   1.842   4.879   8.550 -0.9270  1.8739  0.4402
 6679TIP3    H241597   1.770   4.749   8.580  2.7678 -0.2114  0.8405
 6680TIP3   OH241598   4.997   2.430   7.196  0.8575 -0.2227 -0.2847
 6680TIP3    H141599   4.995   2.514   7.242 -0.7977 -0.8575  0.9145
 6680TIP3    H241600   5.041   2.449   7.113  1.3394  1.6108  0.3409
 6681TIP3   OH241601   6.094   2.668   8.654  0.6144  0.1367  0.5996
 6681TIP3    H141602   6.135   2.584   8.635  1.6164  1.0019 -1.3401
 6681TIP3    H241603   6.114   2.722   8.578 -0.6596  1.9013  1.4548
 6682TIP3   OH241604   3.183   3.754   7.778 -0.2021  0.3774  0.0609
 6682TIP3    H141605   3.209   3.673   7.735 -0.9059 -0.0105  0.3575
 6682TIP3    H241606   3.219   3.747   7.866 -0.4534  0.2830  0.1576
 6683TIP3   OH241607   6.181   6.127   1.796  0.1707  0.0087  0.4321
 6683TIP3    H141608   6.188   6.094   1.886  1.9702 -0.7720  0.0403
 6683TIP3    H241609   6.171   6.049   1.742  0.4729  0.3760 -0.1636
 6684TIP3   OH241610   4.727   2.594   7.478 -0.4035  0.3949  0.4079
 6684TIP3    H141611   4.791   2.569   7.411 -0.5106 -0.2679  0.5472
 6684TIP3    H241612   4.702   2.683   7.454  0.7087  0.7413  0.4554
 6685TIP3   OH241613   0.415   3.147   2.409 -0.5764  0.4806 -0.3182
 6685TIP3    H141614   0.388   3.056   2.418 -3.1930  0.9617 -2.0527
 6685TIP3    H241615   0.350   3.196   2.460 -1.1479  1.5267 -1.9714
 6686TIP3   OH241616   5.770   4.670   1.923 -0.3123 -0.0863 -0.1661
 6686TIP3    H141617   5.743   4.595   1.871 -2.6522  0.7103 -0.2060
 6686TIP3    H241618   5.689   4.705   1.960  0.9830  0.9257  1.9319
 6687TIP3   OH241619   4.369   1.936   1.948 -0.0009  0.4278 -0.0336
 6687TIP3    H141620   4.336   1.889   1.872 -1.4747 -0.2772  0.9730
 6687TIP3    H241621   4.315   2.016   1.953  1.8565  1.8370 -1.1930
 6688TIP3   OH241622   6.360   0.072   8.500  0.6461  0.2123 -0.3258
 6688TIP3    H141623   6.386  -0.014   8.534  1.4017  0.7209  0.4393
 6688TIP3    H241624   6.274   0.058   8.460  0.9182 -0.9657 -0.5140
 6689TIP3   OH241625   4.562   6.392   1.489 -0.6145 -0.1293  0.1518
 6689TIP3    H141626   4.618   6.317   1.507 -0.1717 -0.0455 -0.7939
 6689TIP3    H241627   4.622   6.467   1.493 -0.3705 -0.1477 -2.0150
 6690TIP3   OH241628   3.570   2.784   1.831 -0.0203 -0.6933  0.1421
 6690TIP3    H141629   3.480   2.765   1.857 -0.0448 -2.3666 -0.9874
 6690TIP3    H241630   3.591   2.867   1.874 -2.2797  0.0305 -0.0397
 6691TIP3   OH241631   2.873   0.951   8.273 -0.3166  0.7526  0.0080
 6691TIP3    H141632   2.815   0.902   8.215 -2.2741  0.4148  2.1282
 6691TIP3    H241633   2.841   1.041   8.269  0.0261  0.8765  0.0084
 6692TIP3   OH241634   5.135   2.096   7.964  0.1326  0.7391 -0.7718
 6692TIP3    H141635   5.107   2.162   8.026  1.1065 -0.5159  1.0887
 6692TIP3    H241636   5.058   2.080   7.909 -2.2769 -1.0359  2.7375
 6693TIP3   OH241637   6.840   5.566   1.733 -0.3729 -0.7332  0.2070
 6693TIP3    H141638   6.932   5.546   1.717 -0.2868  0.3133 -0.7713
 6693TIP3    H241639   6.839   5.606   1.820  0.0076 -1.2421  0.4530
 6694TIP3   OH241640   0.198   0.368   8.152  0.1342 -0.2352 -0.3583
 6694TIP3    H141641   0.139   0.442   8.166 -1.1416 -1.2208 -0.3441
 6694TIP3    H241642   0.227   0.377   8.061 -1.0951 -0.4443 -0.7933
 6695TIP3   OH241643   5.663   0.565   0.901  0.1147 -0.0372  0.5568
 6695TIP3    H141644   5.592   0.629   0.910 -0.0861 -0.4054  1.8552
 6695TIP3    H241645   5.743   0.617   0.906 -0.0496  0.3207 -0.3893
 6696TIP3   OH241646   5.848   0.861   8.624 -0.1066  0.4609  0.3498
 6696TIP3    H141647   5.809   0.887   8.540  0.1977  1.2196  0.4303
 6696TIP3    H241648   5.867   0.768   8.614 -0.9789  0.3142 -0.0620
 6697TIP3   OH241649   4.897   1.396   2.536 -0.5784  0.3880  0.5383
 6697TIP3    H141650   4.989   1.383   2.514 -0.9183  1.1608 -1.6522
 6697TIP3    H241651   4.863   1.308   2.553  0.4883  0.0697  1.0879
 6698TIP3   OH241652   6.279   4.433   2.202  0.3064  0.7264  0.0486
 6698TIP3    H141653   6.366   4.402   2.177  0.2328  0.3122  0.2993
 6698TIP3    H241654   6.285   4.453   2.295 -0.6941 -2.4471  0.9396
 6699TIP3   OH241655   1.514   0.853   1.100 -0.2999 -0.0103 -0.1502
 6699TIP3    H141656   1.593   0.908   1.105  0.8414 -1.2105 -2.8829
 6699TIP3    H241657   1.468   0.885   1.022 -0.3776 -1.9124 -0.9317
 6700TIP3   OH241658   4.503   1.675   0.726 -0.3881 -0.2210  0.5183
 6700TIP3    H141659   4.451   1.599   0.698 -0.0172 -0.7209  1.1792
 6700TIP3    H241660   4.440   1.748   0.725 -0.9654 -0.7023  0.7412
 6701TIP3   OH241661   0.389   3.314   0.520  0.1398  0.1932 -0.0555
 6701TIP3    H141662   0.457   3.319   0.452 -0.9168 -0.2863 -1.1882
 6701TIP3    H241663   0.395   3.397   0.566  0.9736  0.4837 -0.6605
 6702TIP3   OH241664   5.082   1.116   7.275 -0.1692 -0.1438  0.3432
 6702TIP3    H141665   5.128   1.032   7.274 -0.1169 -0.1435  1.4202
 6702TIP3    H241666   5.135   1.172   7.332 -1.2373  0.0015  1.2365
 6703TIP3   OH241667   6.334   2.393   8.367 -0.5771 -0.1858 -0.1175
 6703TIP3    H141668   6.428   2.403   8.383 -0.4541 -2.6552  1.0535
 6703TIP3    H241669   6.301   2.483   8.363  1.7056  0.7282  0.1458
 6704TIP3   OH241670   5.244   5.747   2.129  0.4047 -0.0900 -0.2405
 6704TIP3    H141671   5.271   5.810   2.062 -1.6974 -0.9383 -2.0359
 6704TIP3    H241672   5.150   5.764   2.140 -0.1430 -2.5703 -0.4759
 6705TIP3   OH241673   3.030   4.695   7.512 -0.7947  0.0835 -0.0631
 6705TIP3    H141674   2.993   4.610   7.533 -2.9007  1.0075  0.2415
 6705TIP3    H241675   3.057   4.688   7.420  1.2738 -1.5818  0.5977
 6706TIP3   OH241676   1.227   1.292   0.439 -0.0644  0.4898 -0.5121
 6706TIP3    H141677   1.152   1.237   0.463  1.8723 -1.2107  2.1687
 6706TIP3    H241678   1.302   1.249   0.480  1.9825  3.6580 -0.6295
 6707TIP3   OH241679   1.190   0.944   0.681  0.0175  0.1735  0.2505
 6707TIP3    H141680   1.151   1.009   0.623 -0.6764  0.8328  1.4125
 6707TIP3    H241681   1.276   0.979   0.702  0.4682 -0.3057 -0.7396
 6708TIP3   OH241682   0.303   0.018   8.117 -0.2991  0.6035  0.4367
 6708TIP3    H141683   0.275   0.058   8.199  0.3235 -0.7211  1.3332
 6708TIP3    H241684   0.222  -0.015   8.078 -0.4048 -0.5590  1.5461
 6709TIP3   OH241685   5.680   0.673   7.208  0.9254  0.2390  0.1863
 6709TIP3    H141686   5.722   0.663   7.123  2.0499 -1.7907  0.9191
 6709TIP3    H241687   5.603   0.727   7.190  0.6819 -0.7814 -2.2756
 6710TIP3   OH241688   5.087   4.648   7.757  0.1665 -0.5209 -0.0705
 6710TIP3    H141689   5.156   4.588   7.728 -0.5034 -1.1463 -0.4386
 6710TIP3    H241690   5.031   4.594   7.813  0.6418  0.3019  1.2470
 6711TIP3   OH241691   6.514   6.831   7.189 -0.3712  0.5261  0.3904
 6711TIP3    H141692   6.485   6.916   7.222 -1.1063  0.8223 -0.9315
 6711TIP3    H241693   6.607   6.843   7.171  0.0081  0.3955  2.1692
 6712TIP3   OH241694   3.077   3.906   1.851  0.2986 -0.0058 -0.0897
 6712TIP3    H141695   3.129   3.906   1.770  1.0513  1.6380  0.3634
 6712TIP3    H241696   3.044   3.996   1.859  0.9531  0.0951  1.8789
 6713TIP3   OH241697   5.434   3.030   8.322 -0.1001 -0.0471  0.1427
 6713TIP3    H141698   5.481   2.955   8.287 -2.2635 -0.9315 -1.0647
 6713TIP3    H241699   5.370   3.052   8.254 -1.3663  1.1215  1.6431
 6714TIP3   OH241700   1.491   4.762   1.348 -0.6965  0.4365 -0.5405
 6714TIP3    H141701   1.464   4.771   1.256 -1.3321  1.4271 -0.2715
 6714TIP3    H241702   1.409   4.762   1.397 -0.3447  0.2383  0.0562
 6715TIP3   OH241703   0.672   5.677   1.189 -0.0661 -0.1609 -0.6866
 6715TIP3    H141704   0.734   5.749   1.202  1.0971 -0.9190 -1.7798
 6715TIP3    H241705   0.684   5.652   1.097 -1.5796 -0.7229 -0.7515
 6716TIP3   OH241706   0.212   0.274   7.551 -0.5339 -0.0462  0.2925
 6716TIP3    H141707   0.184   0.366   7.547 -0.8419 -0.1486  0.1050
 6716TIP3    H241708   0.284   0.268   7.487 -1.8620 -0.4069 -1.2364
 6717TIP3   OH241709   2.427   6.723   0.694 -0.0532  0.1337  0.6436
 6717TIP3    H141710   2.480   6.679   0.761  2.8585 -1.8134 -2.5553
 6717TIP3    H241711   2.374   6.653   0.656  0.0178  0.6821 -0.5079
 6718TIP3   OH241712   5.086   0.337   7.438 -0.2436 -0.2397 -0.0921
 6718TIP3    H141713   5.103   0.417   7.488  1.1958  0.4774 -1.6318
 6718TIP3    H241714   5.098   0.267   7.501  2.0847  0.6062  0.5256
 6719TIP3   OH241715   1.123   2.670   2.117  0.3227  0.0274  0.0437
 6719TIP3    H141716   1.145   2.578   2.105  0.3666  0.0150  0.2093
 6719TIP3    H241717   1.052   2.670   2.181 -0.6771  0.0229 -1.0365
 6720TIP3   OH241718   0.481   0.437   1.123 -0.3108  0.0953  0.1050
 6720TIP3    H141719   0.573   0.462   1.135  0.1828 -1.8281  0.6485
 6720TIP3    H241720   0.483   0.377   1.048 -1.0494 -0.3405  0.4301
 6721TIP3   OH241721   3.371   3.983   7.900 -0.0416 -0.5351 -0.1984
 6721TIP3    H141722   3.309   3.929   7.948 -0.0871 -1.5042 -1.2933
 6721TIP3    H241723   3.456   3.963   7.939 -0.2914  0.0784  0.6767
 6722TIP3   OH241724   1.366   1.538   7.493  0.1174 -0.0007 -0.5019
 6722TIP3    H141725   1.426   1.499   7.430  0.1304 -0.0189 -0.4786
 6722TIP3    H241726   1.395   1.504   7.578  0.5299  0.5526 -0.4140
 6723TIP3   OH241727   3.840   1.229   1.805  0.3095 -0.4888  0.7545
 6723TIP3    H141728   3.888   1.147   1.814 -1.1074 -1.1860  2.4451
 6723TIP3    H241729   3.800   1.224   1.718  1.0457 -1.1104  0.4373
 6724TIP3   OH241730   0.782   5.661   2.418  0.3651  0.1241  0.3848
 6724TIP3    H141731   0.838   5.685   2.491 -2.9240  1.0004  2.8623
 6724TIP3    H241732   0.733   5.585   2.450  1.1944 -1.6840 -2.3019
 6725TIP3   OH241733   6.760   1.324   7.051 -0.5812 -0.3962 -0.0256
 6725TIP3    H141734   6.796   1.271   6.980 -0.0601 -1.0189  0.6869
 6725TIP3    H241735   6.816   1.305   7.126 -2.0021 -0.8879  0.9489
 6726TIP3   OH241736   2.788   4.056   0.776 -0.1781  0.0180 -0.3032
 6726TIP3    H141737   2.765   3.983   0.717  2.0781 -0.5519 -0.5496
 6726TIP3    H241738   2.833   4.014   0.850  1.3835  1.1521 -0.5603
 6727TIP3   OH241739   2.304   3.762   7.736  0.9937  0.0519  0.3994
 6727TIP3    H141740   2.212   3.748   7.753  1.3400 -4.1226 -0.1782
 6727TIP3    H241741   2.307   3.793   7.645  0.1975  0.5727  0.5404
 6728TIP3   OH241742   3.947   1.771   1.138 -0.7534  0.1407  0.0651
 6728TIP3    H141743   3.866   1.770   1.086 -1.1880  1.7489  0.6286
 6728TIP3    H241744   3.968   1.864   1.147 -0.9494 -0.0167  3.1307
 6729TIP3   OH241745   2.709   1.224   8.292  0.1997 -1.1051  0.3667
 6729TIP3    H141746   2.630   1.171   8.300 -0.7270  0.4351  2.9253
 6729TIP3    H241747   2.689   1.288   8.224 -0.0351 -1.8155 -0.2438
 6730TIP3   OH241748   0.170   0.052   1.085 -0.1125 -0.2348  0.2750
 6730TIP3    H141749   0.178   0.147   1.090 -1.2698  0.0885 -2.1539
 6730TIP3    H241750   0.260   0.019   1.085  0.3415  0.9771 -0.0829
 6731TIP3   OH241751   5.621   0.847   0.809 -0.1949 -0.2395  0.5413
 6731TIP3    H141752   5.604   0.942   0.808  1.1482  0.0130 -0.2101
 6731TIP3    H241753   5.581   0.815   0.728  1.8206  0.1860 -0.6878
 6732TIP3   OH241754   3.427   3.825   2.154  0.0926  0.5730 -0.0372
 6732TIP3    H141755   3.457   3.851   2.240 -0.1564  2.1076 -0.3815
 6732TIP3    H241756   3.334   3.803   2.166  0.2533  0.0224  0.2196
 6733TIP3   OH241757   6.052   0.280   8.445 -0.3726 -0.6185  0.2442
 6733TIP3    H141758   6.044   0.185   8.453 -1.0013 -0.6807 -0.9935
 6733TIP3    H241759   5.962   0.312   8.444 -0.2032 -0.1530 -0.9016
 6734TIP3   OH241760   5.006   4.512   0.182 -0.8052  0.2919 -0.4703
 6734TIP3    H141761   5.046   4.425   0.173 -1.6991 -0.0868 -0.9267
 6734TIP3    H241762   5.072   4.564   0.227  0.1757 -0.3277 -1.1542
 6735TIP3   OH241763   6.045   3.655   6.597  0.1969  0.5887 -0.0980
 6735TIP3    H141764   6.039   3.739   6.643 -0.7430 -0.3381  1.5633
 6735TIP3    H241765   5.983   3.598   6.643  1.7659 -1.4072 -0.3201
 6736TIP3   OH241766   5.718   5.381   0.440 -0.2537 -0.1590  0.2853
 6736TIP3    H141767   5.636   5.335   0.456 -0.1229 -0.4875  0.0249
 6736TIP3    H241768   5.737   5.426   0.522 -0.6945 -0.0811  0.3431
 6737TIP3   OH241769   1.676   4.873   0.981  0.4315  0.2449  0.4426
 6737TIP3    H141770   1.739   4.876   0.909  1.3733 -0.4268  1.2102
 6737TIP3    H241771   1.617   4.947   0.964 -0.5482 -0.9726 -2.0256
 6738TIP3   OH241772   1.270   3.084   0.363  0.3688 -0.4532 -0.1402
 6738TIP3    H141773   1.353   3.052   0.398 -0.6084 -1.2847  1.5764
 6738TIP3    H241774   1.280   3.179   0.360  0.9036 -0.4234  1.4528
 6739TIP3   OH241775   1.109   3.967   1.667 -0.1994  0.9021  0.2198
 6739TIP3    H141776   1.089   3.994   1.757 -0.2819  0.8312  0.2225
 6739TIP3    H241777   1.025   3.938   1.631 -0.2412  1.2752  0.0013
 6740TIP3   OH241778   1.281   3.700   1.747 -0.4451 -0.2254 -0.4562
 6740TIP3    H141779   1.206   3.662   1.703 -0.0618  0.8842 -2.1514
 6740TIP3    H241780   1.348   3.708   1.679  0.6227  0.4005  0.6150
 6741TIP3   OH241781   4.988   4.537   7.417  0.0933  0.0324  0.1567
 6741TIP3    H141782   5.069   4.569   7.457 -0.2440 -0.7885  1.5469
 6741TIP3    H241783   5.017   4.468   7.358  0.2636 -2.3521  2.8374
 6742TIP3   OH241784   3.085   3.063   8.028  0.2513 -0.0349  0.2566
 6742TIP3    H141785   3.010   3.051   7.970  0.0532  0.6750  0.3619
 6742TIP3    H241786   3.056   3.125   8.094  1.1371  0.8115 -0.1097
 6743TIP3   OH241787   3.305   4.166   1.202  0.6272 -0.1066 -0.1680
 6743TIP3    H141788   3.330   4.253   1.171 -0.3835  0.8105  1.4219
 6743TIP3    H241789   3.379   4.138   1.257 -0.2716  1.1203  1.7712
 6744TIP3   OH241790   4.470   6.782   0.286 -0.0608  0.0743  0.3019
 6744TIP3    H141791   4.506   6.871   0.284 -0.7648  0.3435 -0.8566
 6744TIP3    H241792   4.433   6.769   0.199 -1.4283 -0.7466  0.9769
 6745TIP3   OH241793   6.668   6.364   1.799  0.1213 -0.4299  0.1740
 6745TIP3    H141794   6.679   6.458   1.813  1.0998 -0.2626 -1.4562
 6745TIP3    H241795   6.586   6.356   1.749  0.2086 -0.4076  0.0262
 6746TIP3   OH241796   6.569   3.035   7.286  0.1174 -0.3678  0.0918
 6746TIP3    H141797   6.525   3.082   7.215 -0.8765  0.9114  1.4900
 6746TIP3    H241798   6.534   2.946   7.282  1.7085 -1.0018 -2.3327
 6747TIP3   OH241799   2.486   2.350   0.038  0.2847  0.4147  0.9617
 6747TIP3    H141800   2.400   2.339   0.078  0.8905  0.7081  2.4049
 6747TIP3    H241801   2.468   2.355  -0.056 -1.1066 -1.2670  1.0771
 6748TIP3   OH241802   2.223   2.906   1.510  0.1305 -0.2222 -0.6645
 6748TIP3    H141803   2.194   2.882   1.422  1.1699 -1.1370 -0.7789
 6748TIP3    H241804   2.251   2.997   1.501  0.8224 -0.4952 -1.4503
 6749TIP3   OH241805   5.927   1.085   6.328 -0.1242 -0.1846  1.3201
 6749TIP3    H141806   6.002   1.108   6.272 -0.7251 -0.3705  0.4093
 6749TIP3    H241807   5.881   1.016   6.279 -2.5585  1.9456  0.3979
 6750TIP3   OH241808   1.392   2.793   1.264  0.1863  0.1564  0.4370
 6750TIP3    H141809   1.391   2.792   1.360  1.1766  0.4948  0.4704
 6750TIP3    H241810   1.302   2.813   1.239 -0.6239 -2.2387  1.2236
 6751TIP3   OH241811   4.517   0.133   0.352  0.2782 -1.1777 -0.4553
 6751TIP3    H141812   4.427   0.127   0.322  0.1171 -1.2587  0.0242
 6751TIP3    H241813   4.548   0.218   0.321 -0.1909 -0.8418 -0.0288
 6752TIP3   OH241814   2.232   3.697   3.172 -0.0632  0.0861  0.4846
 6752TIP3    H141815   2.267   3.737   3.093  1.3088 -1.6278  0.1578
 6752TIP3    H241816   2.137   3.710   3.166  0.1256  1.0195 -0.8331
 6753TIP3   OH241817   2.054   0.772   2.074 -0.1762 -0.2088  0.0236
 6753TIP3    H141818   1.980   0.721   2.042 -1.0070  0.9081  0.0662
 6753TIP3    H241819   2.094   0.809   1.994  0.3785 -0.8624 -0.0036
 6754TIP3   OH241820   1.178   5.737   2.036  0.1657  0.5197 -0.3803
 6754TIP3    H141821   1.103   5.754   2.092  0.9541  1.5185  0.4210
 6754TIP3    H241822   1.202   5.646   2.054 -0.3801  0.4345 -0.0674
 6755TIP3   OH241823   5.674   2.017   7.287 -0.0742 -0.2076 -0.6365
 6755TIP3    H141824   5.667   1.942   7.228 -1.9968 -0.7423  0.1780
 6755TIP3    H241825   5.603   2.075   7.261  1.1424  1.1861 -0.9984
 6756TIP3   OH241826   3.729   6.315   7.673  0.1813  0.0211 -0.1283
 6756TIP3    H141827   3.788   6.243   7.651 -0.3841 -0.6265  0.4214
 6756TIP3    H241828   3.682   6.332   7.591  0.5741  0.0124 -0.3592
 6757TIP3   OH241829   1.475   1.731   2.067  0.0559  0.4610  0.5945
 6757TIP3    H141830   1.386   1.764   2.074 -0.4455 -0.5056 -0.7738
 6757TIP3    H241831   1.488   1.714   1.974  1.2708 -0.4731  0.8928
 6758TIP3   OH241832   6.486   5.955   7.321 -0.0839  0.9127  0.0426
 6758TIP3    H141833   6.464   6.037   7.275  0.6590  0.8178 -0.5064
 6758TIP3    H241834   6.496   5.981   7.413  0.2354  1.4673 -0.1398
 6759TIP3   OH241835   3.065   3.565   2.879  0.2395 -0.4592  0.2563
 6759TIP3    H141836   3.003   3.502   2.918  0.8271 -1.3967 -0.2873
 6759TIP3    H241837   3.150   3.540   2.914  0.5980 -0.4975 -0.6091
 6760TIP3   OH241838   1.129   0.028   7.308  0.2416 -0.6907  0.3002
 6760TIP3    H141839   1.053   0.042   7.252 -0.4898 -0.6404  1.2818
 6760TIP3    H241840   1.197   0.084   7.270  0.0293 -1.2833 -1.0150
 6761TIP3   OH241841   5.043   5.422   1.013 -0.0639  0.3370 -0.1080
 6761TIP3    H141842   5.125   5.453   0.975  0.1586  0.1905  0.2461
 6761TIP3    H241843   5.020   5.345   0.961 -0.0511  0.4635 -0.2993
 6762TIP3   OH241844   3.138   1.687   8.036 -0.0907  0.4549 -0.2812
 6762TIP3    H141845   3.200   1.668   8.107 -0.9285  0.0659  0.3747
 6762TIP3    H241846   3.080   1.611   8.035 -0.6907  0.9150 -0.7240
 6763TIP3   OH241847   5.897   4.286   0.529 -0.1556 -0.0343 -0.7080
 6763TIP3    H141848   5.808   4.313   0.550  0.0879  1.3129 -1.3185
 6763TIP3    H241849   5.890   4.244   0.444 -0.0879  0.9120 -1.1936
 6764TIP3   OH241850   6.542   1.976   1.012 -0.2676  0.2680 -0.0191
 6764TIP3    H141851   6.483   1.902   1.024  1.0830 -0.6292  1.3011
 6764TIP3    H241852   6.494   2.051   1.048 -1.8799  0.2354 -1.8798
 6765TIP3   OH241853   6.438   3.798   1.425 -0.2900 -0.5145 -0.2625
 6765TIP3    H141854   6.530   3.826   1.425 -0.2692 -0.5708 -0.9924
 6765TIP3    H241855   6.429   3.748   1.506 -0.6545  2.6329  1.8145
 6766TIP3   OH241856   3.542   5.636   7.190  0.0226  0.5284 -0.3824
 6766TIP3    H141857   3.490   5.700   7.141  0.0744  1.0724  0.2630
 6766TIP3    H241858   3.592   5.590   7.123 -0.8435  0.4085 -0.9556
 6767TIP3   OH241859   3.689   6.056   1.353 -0.1276 -0.0758  0.2604
 6767TIP3    H141860   3.757   5.991   1.331  0.2842  1.2466 -2.8560
 6767TIP3    H241861   3.733   6.117   1.412  1.7515  1.1071 -2.1803
 6768TIP3   OH241862   1.220   2.367   7.546 -0.0930  0.0901 -0.3452
 6768TIP3    H141863   1.288   2.405   7.603 -0.6391  0.1923  0.2562
 6768TIP3    H241864   1.260   2.364   7.460  1.1713 -1.1193  0.2494
 6769TIP3   OH241865   6.593   0.362   2.136  0.6155  0.3052  0.1441
 6769TIP3    H141866   6.615   0.275   2.104  2.1676  0.7606 -0.1337
 6769TIP3    H241867   6.654   0.378   2.207  0.3201  1.1456  0.2257
 6770TIP3   OH241868   3.510   0.294   7.836  0.1219  0.4757 -0.3102
 6770TIP3    H141869   3.499   0.203   7.864  3.2699  0.2635  0.6078
 6770TIP3    H241870   3.505   0.344   7.918  0.3916  0.9028 -0.5552
 6771TIP3   OH241871   2.831   3.633   0.436  0.4188 -0.3954 -0.1459
 6771TIP3    H141872   2.787   3.570   0.493  0.5549  0.1681  0.6009
 6771TIP3    H241873   2.913   3.653   0.480 -0.1507  1.2067  0.2609
 6772TIP3   OH241874   5.816   2.599   0.065  0.0144 -0.7833  0.1399
 6772TIP3    H141875   5.800   2.583   0.158 -0.6633 -1.4909 -0.0845
 6772TIP3    H241876   5.909   2.622   0.060 -0.2272  0.4616  1.1270
 6773TIP3   OH241877   3.766   2.996   1.976 -0.2048 -0.1039  0.6821
 6773TIP3    H141878   3.702   2.975   2.044  0.5418 -0.8578  1.1740
 6773TIP3    H241879   3.826   2.922   1.976  1.3862  1.1171  1.0924
 6774TIP3   OH241880   6.179   2.897   8.490 -0.1205  0.0938 -0.1976
 6774TIP3    H141881   6.154   2.973   8.437  1.5819  0.7635 -0.0987
 6774TIP3    H241882   6.212   2.935   8.572 -0.7232 -0.8397  0.4943
 6775TIP3   OH241883   4.278   4.504   8.067  1.0464 -0.1116  0.5892
 6775TIP3    H141884   4.283   4.599   8.077  0.5923  0.0663 -0.6322
 6775TIP3    H241885   4.250   4.492   7.976 -0.3255 -1.3797  1.1434
 6776TIP3   OH241886   0.062   0.612   0.301 -0.4308 -0.2148  0.0765
 6776TIP3    H141887  -0.021   0.626   0.254  0.7491  0.0982 -2.0404
 6776TIP3    H241888   0.046   0.534   0.354 -2.9567  1.4247  1.9874
 6777TIP3   OH241889   4.304   1.821   7.746  0.4158  0.3055  0.1726
 6777TIP3    H141890   4.218   1.786   7.724  0.2513  0.0644  1.1387
 6777TIP3    H241891   4.365   1.774   7.690  0.1859 -1.4423  1.3030
 6778TIP3   OH241892   2.366   4.744   2.063 -0.4508  0.0329  0.1070
 6778TIP3    H141893   2.369   4.748   2.158 -0.4900 -0.0577  0.1116
 6778TIP3    H241894   2.382   4.652   2.042 -0.2696  0.0829  0.0204
 6779TIP3   OH241895   5.640   4.258   1.989  0.0775  0.2284  0.2383
 6779TIP3    H141896   5.653   4.321   2.060 -0.0201 -0.4698  0.8875
 6779TIP3    H241897   5.545   4.259   1.973 -0.3823 -1.8533  2.2713
 6780TIP3   OH241898   6.789   6.056   0.336  0.1191  0.2135  0.1756
 6780TIP3    H141899   6.859   5.992   0.351 -1.7916 -1.8998  0.7383
 6780TIP3    H241900   6.805   6.125   0.401 -0.9012 -2.6280  3.7936
 6781TIP3   OH241901   4.522   5.742   1.412 -0.1302  0.6136  0.0202
 6781TIP3    H141902   4.511   5.769   1.321 -0.0297 -0.1479 -0.2218
 6781TIP3    H241903   4.434   5.716   1.440  0.0278 -0.1932 -0.2046
 6782TIP3   OH241904   5.042   3.944   7.806 -0.1925  0.3302  0.2404
 6782TIP3    H141905   5.080   4.000   7.738 -0.4793 -0.7005 -0.7955
 6782TIP3    H241906   5.092   3.965   7.885 -0.2167  1.9475 -0.1443
 6783TIP3   OH241907   0.866   2.869   1.242  0.6814 -0.4728 -0.0569
 6783TIP3    H141908   0.872   2.783   1.284  0.2111  0.6713  2.5459
 6783TIP3    H241909   0.807   2.856   1.168 -1.0732 -1.9864  1.5232
 6784TIP3   OH241910   6.885   1.300   1.176  0.7225 -0.3125 -0.1095
 6784TIP3    H141911   6.828   1.338   1.110 -2.2719 -3.4537  0.4039
 6784TIP3    H241912   6.955   1.258   1.126  0.4437  0.2812 -1.0181
 6785TIP3   OH241913   4.855   1.511   7.100 -0.1064  0.1013  0.0217
 6785TIP3    H141914   4.938   1.481   7.136 -0.0437  0.4950  0.2081
 6785TIP3    H241915   4.796   1.436   7.110  0.5443 -0.6078 -1.2350
 6786TIP3   OH241916   6.781   0.162   2.134  0.1632 -0.3883  0.0350
 6786TIP3    H141917   6.784   0.207   2.219 -1.6754 -1.2916  0.6429
 6786TIP3    H241918   6.870   0.170   2.099  0.7648  0.6870  1.6793
 6787TIP3   OH241919   6.540   3.065   0.602  0.4381 -0.5296  0.7333
 6787TIP3    H141920   6.533   3.151   0.561 -0.2390  0.1359  2.1606
 6787TIP3    H241921   6.552   3.084   0.695 -1.6711 -1.9677  1.3688
 6788TIP3   OH241922   6.636   1.219   8.321  0.3817 -0.0228 -0.5332
 6788TIP3    H141923   6.632   1.165   8.242  0.8320 -0.3229 -0.3584
 6788TIP3    H241924   6.622   1.157   8.393  1.1934  0.0294 -0.3114
 6789TIP3   OH241925   6.648   6.864   2.006 -0.2716 -0.2726 -0.1019
 6789TIP3    H141926   6.659   6.927   2.077 -0.7169 -0.0416 -0.2343
 6789TIP3    H241927   6.586   6.906   1.946 -4.7008 -2.7538  2.2224
 6790TIP3   OH241928   6.674   6.190   1.036 -0.2596 -0.1875 -0.2291
 6790TIP3    H141929   6.594   6.137   1.041 -0.4693  0.0587 -0.8797
 6790TIP3    H241930   6.668   6.247   1.113  1.6415 -3.3167  2.4906
 6791TIP3   OH241931   1.248   2.936   1.712  0.9297 -0.1869 -0.1898
 6791TIP3    H141932   1.336   2.968   1.732  0.8465 -0.8654  1.3988
 6791TIP3    H241933   1.204   2.932   1.797 -0.4714 -0.3566 -0.8989
 6792TIP3   OH241934   4.431   1.650   1.673  0.6258 -0.3412 -0.3669
 6792TIP3    H141935   4.479   1.711   1.617 -0.5620  1.2250  0.2447
 6792TIP3    H241936   4.429   1.568   1.623  0.6281  0.6502 -2.0797
 6793TIP3   OH241937   5.949   0.662   0.669 -0.1626  0.0006 -0.1150
 6793TIP3    H141938   5.933   0.696   0.757  0.0229  1.3247 -0.5543
 6793TIP3    H241939   5.911   0.728   0.611  3.3581  1.4177 -1.1228
 6794TIP3   OH241940   6.435   1.377   0.672 -0.5061  0.4789  0.3796
 6794TIP3    H141941   6.359   1.382   0.614  0.2800  2.0304 -0.6155
 6794TIP3    H241942   6.430   1.457   0.724  0.0748  0.2597  0.7831
 6795TIP3   OH241943   1.460   2.580   0.451 -0.1271  0.0662  0.2285
 6795TIP3    H141944   1.444   2.634   0.373  0.6199 -0.5226 -0.3485
 6795TIP3    H241945   1.427   2.633   0.524 -1.5193  0.3186 -0.5422
 6796TIP3   OH241946   2.801   3.699   2.128  0.1072  0.1899  0.1071
 6796TIP3    H141947   2.785   3.609   2.099  1.9372 -0.3370  0.5891
 6796TIP3    H241948   2.848   3.689   2.211  0.3594  1.6072  0.1590
 6797TIP3   OH241949   0.399   4.252   1.885  0.5536 -0.0089  0.1015
 6797TIP3    H141950   0.486   4.291   1.897  0.3850 -0.0047  1.4514
 6797TIP3    H241951   0.414   4.178   1.827  1.6256 -0.5360  1.0124
 6798TIP3   OH241952   5.905   0.949   8.136 -0.0191  0.0596  0.0664
 6798TIP3    H141953   5.972   0.889   8.105  1.4088  2.2277 -1.3126
 6798TIP3    H241954   5.838   0.948   8.067  0.5280  0.8186 -0.4893
 6799TIP3   OH241955   6.382   1.302   0.227  1.4138  0.2845  0.1944
 6799TIP3    H141956   6.332   1.376   0.261  0.3483  0.2605 -1.2719
 6799TIP3    H241957   6.403   1.251   0.305  0.2771  0.9797  0.9935
 6800TIP3   OH241958   3.006   6.773   6.926 -0.5455  0.1680  0.6266
 6800TIP3    H141959   2.972   6.690   6.959  0.2850 -1.2600 -1.8762
 6800TIP3    H241960   3.095   6.778   6.960 -1.0676  0.7950  1.9678
 6801TIP3   OH241961   3.804   5.762   7.219  0.0436 -0.5521 -0.1442
 6801TIP3    H141962   3.861   5.726   7.288 -0.7299  1.2788  1.5770
 6801TIP3    H241963   3.718   5.769   7.261 -1.0704 -1.6161 -2.1257
 6802TIP3   OH241964   1.334   1.907   1.326  0.0893 -0.0594 -0.1276
 6802TIP3    H141965   1.293   1.844   1.384 -1.4551  1.1919  0.1922
 6802TIP3    H241966   1.343   1.987   1.379 -2.1855  1.4024 -1.7605
 6803TIP3   OH241967   3.763   1.093   0.417 -0.0988  0.2801  0.1818
 6803TIP3    H141968   3.845   1.131   0.449 -1.0538  1.3347  1.4593
 6803TIP3    H241969   3.741   1.026   0.482  0.2983 -0.7906 -0.7556
 6804TIP3   OH241970   2.172   3.070   0.656  0.4471  0.2376  0.0206
 6804TIP3    H141971   2.203   3.123   0.729 -0.0126 -0.0619  0.4486
 6804TIP3    H241972   2.246   3.014   0.632  0.2349 -0.5472  1.0954
 6805TIP3   OH241973   3.766   4.127   8.221  0.1988 -0.5804  0.1385
 6805TIP3    H141974   3.847   4.173   8.199  0.5343 -0.6702  1.1511
 6805TIP3    H241975   3.763   4.128   8.317 -1.4389  0.1855  0.1010
 6806TIP3   OH241976   4.003   3.994   8.526 -0.0203  0.1904  0.1531
 6806TIP3    H141977   4.058   4.040   8.462 -0.4776  0.5279 -0.0062
 6806TIP3    H241978   4.038   3.905   8.529  0.0503  0.1927 -0.5195
 6807TIP3   OH241979   2.348   4.118   0.543 -0.1808  0.1957  0.6386
 6807TIP3    H141980   2.306   4.066   0.475  1.1204 -0.2669  0.1566
 6807TIP3    H241981   2.361   4.204   0.504 -1.7981  0.7517  1.2344
 6808TIP3   OH241982   5.065   6.869   0.964  0.6001 -0.6358  0.1294
 6808TIP3    H141983   5.002   6.872   1.035  1.0610 -1.9628  0.6357
 6808TIP3    H241984   5.140   6.821   1.001  1.7568  0.5672 -0.5640
 6809TIP3   OH241985   4.835   5.186   8.102 -0.2909  0.2065 -0.4294
 6809TIP3    H141986   4.840   5.275   8.068 -0.5567  0.2307 -0.4066
 6809TIP3    H241987   4.759   5.147   8.058 -0.4070  0.1167 -0.1498
 6810TIP3   OH241988   5.455   5.387   1.833 -0.3686  0.2252  0.2455
 6810TIP3    H141989   5.409   5.390   1.749  2.5392 -0.3124 -1.4945
 6810TIP3    H241990   5.432   5.302   1.870  0.0662 -0.5259 -1.1421
 6811TIP3   OH241991   2.300   3.921   0.331  0.1877 -0.4511 -0.7159
 6811TIP3    H141992   2.382   3.910   0.283  0.7527 -0.2729  0.1825
 6811TIP3    H241993   2.247   3.979   0.277  0.4046 -1.0625 -1.6000
 6812TIP3   OH241994   0.798   3.256   1.219  0.0977 -0.2996 -0.2815
 6812TIP3    H141995   0.848   3.318   1.165  2.6020 -2.3301 -0.4998
 6812TIP3    H241996   0.708   3.264   1.188  0.9832  0.5371 -2.9220
 6813TIP3   OH241997   3.496   1.772   1.196 -0.2477  0.2629 -0.3438
 6813TIP3    H141998   3.401   1.764   1.186 -0.1839  1.0036 -1.8470
 6813TIP3    H241999   3.518   1.854   1.152  1.1731 -0.2454 -0.6392
 6814TIP3   OH242000   5.942   0.760   1.504  0.4275  0.0964  0.4105
 6814TIP3    H142001   5.852   0.761   1.535  0.3447  0.1310  0.1712
 6814TIP3    H242002   5.993   0.797   1.577  0.5912 -2.2881  1.5904
 6815TIP3   OH242003   5.485   0.359   7.725 -0.2246 -0.8865 -0.0780
 6815TIP3    H142004   5.459   0.365   7.817 -0.4242 -1.4030 -0.0963
 6815TIP3    H242005   5.479   0.449   7.692 -1.6961 -0.9341 -0.0002
 6816TIP3   OH242006   0.328   6.650   1.247  0.1742  0.5581 -0.1798
 6816TIP3    H142007   0.327   6.695   1.331 -1.0517  0.9465 -0.3798
 6816TIP3    H242008   0.249   6.597   1.248 -0.3463  1.2661 -1.4426
 6817TIP3   OH242009   6.414   2.284   7.462  0.0518 -0.0272 -0.9272
 6817TIP3    H142010   6.352   2.349   7.431 -0.3107  0.1221  0.0519
 6817TIP3    H242011   6.499   2.328   7.461 -0.0657  0.1952 -1.0501
 6818TIP3   OH242012   3.708   6.602   1.392  0.2603 -0.1961 -0.1310
 6818TIP3    H142013   3.692   6.568   1.304  1.1527 -1.7670  0.2744
 6818TIP3    H242014   3.689   6.695   1.385 -3.1463 -0.8048 -1.1174
 6819TIP3   OH242015   1.849   6.705   7.336 -0.7771  0.1004  0.2827
 6819TIP3    H142016   1.821   6.732   7.248 -0.7278 -1.4013 -0.2231
 6819TIP3    H242017   1.941   6.683   7.325 -0.5968  0.5414  0.8800
 6820TIP3   OH242018   3.047   0.545   7.790 -0.1560  0.0877 -0.4329
 6820TIP3    H142019   2.961   0.556   7.832  0.6137  0.8591  1.0424
 6820TIP3    H242020   3.052   0.616   7.727 -0.5736  0.1000 -0.4558
 6821TIP3   OH242021   6.103   3.561   8.450 -0.3705 -0.1507  0.2677
 6821TIP3    H142022   6.163   3.488   8.435  1.7246  1.4559  0.4431
 6821TIP3    H242023   6.060   3.575   8.366 -0.0808 -0.9394 -0.0226
 6822TIP3   OH242024   2.796   3.399   1.062  0.2967  0.1085 -0.1059
 6822TIP3    H142025   2.797   3.459   1.137  0.9631  0.6832 -0.5572
 6822TIP3    H242026   2.808   3.456   0.986  1.1236 -0.6127 -0.5300
 6823TIP3   OH242027   2.877   4.058   2.079 -0.0694  0.4525 -0.1171
 6823TIP3    H142028   2.798   4.094   2.039 -1.1075 -2.1198 -0.5661
 6823TIP3    H242029   2.949   4.085   2.022 -1.1222 -0.3707 -1.8873
 6824TIP3   OH242030   1.040   3.441   1.274 -0.7099 -0.2563 -0.3804
 6824TIP3    H142031   1.055   3.530   1.242  1.0716 -0.1992  0.5255
 6824TIP3    H242032   0.959   3.448   1.324 -0.4943  0.9052 -0.1561
 6825TIP3   OH242033   5.904   3.716   6.962 -0.2464  0.4003 -0.1078
 6825TIP3    H142034   5.945   3.677   6.885 -0.1991  0.1290  0.0560
 6825TIP3    H242035   5.838   3.653   6.989 -0.2915  0.5146  0.0479
 6826TIP3   OH242036   1.711   5.518   7.425  0.4244 -0.0079  0.0232
 6826TIP3    H142037   1.745   5.606   7.438  0.0257  0.2405 -0.5604
 6826TIP3    H242038   1.649   5.527   7.352  1.7403 -1.1068 -1.2891
 6827TIP3   OH242039   0.094   1.234   7.942 -0.2903  0.2083 -0.2064
 6827TIP3    H142040   0.000   1.224   7.924 -0.3424 -0.2626  0.3122
 6827TIP3    H242041   0.124   1.296   7.876 -0.6027 -0.9876 -1.5261
 6828TIP3   OH242042   1.870   6.558   1.691 -0.2969 -0.4606  0.3837
 6828TIP3    H142043   1.791   6.612   1.690 -0.4858 -0.7317 -0.5807
 6828TIP3    H242044   1.839   6.469   1.710 -0.0350 -0.3231  1.5400
 6829TIP3   OH242045   2.399   1.722   8.304 -0.6073 -0.8094  0.2130
 6829TIP3    H142046   2.357   1.775   8.372  1.0182 -0.4478  0.9939
 6829TIP3    H242047   2.435   1.786   8.243  0.1854 -1.0472  0.4233
 6830TIP3   OH242048   5.192   3.615   8.084  0.1989  0.3994  0.4156
 6830TIP3    H142049   5.122   3.655   8.136  0.6129  1.5813  0.0964
 6830TIP3    H242050   5.270   3.667   8.105  0.8615 -0.5246  0.3166
 6831TIP3   OH242051   5.958   2.573   7.936 -0.3997  0.1000  0.0430
 6831TIP3    H142052   5.889   2.624   7.979 -0.7238  0.8322 -1.2996
 6831TIP3    H242053   6.040   2.615   7.963 -0.5373 -0.0044  0.6454
 6832TIP3   OH242054   0.824   0.588   0.096 -0.1677 -0.0453  0.3257
 6832TIP3    H142055   0.747   0.563   0.044  0.7305  0.7740 -1.4842
 6832TIP3    H242056   0.793   0.661   0.150 -0.3950  1.1083 -1.2906
 6833TIP3   OH242057   0.850   3.315   7.201 -0.1331  0.2585 -0.2069
 6833TIP3    H142058   0.913   3.306   7.273  0.6081 -0.0183 -0.8760
 6833TIP3    H242059   0.807   3.230   7.196  0.6199 -0.1025 -0.8096
 6834TIP3   OH242060   4.225   5.362   2.190  0.2483 -0.2608  0.2139
 6834TIP3    H142061   4.281   5.415   2.134 -0.5161 -0.2956 -0.6067
 6834TIP3    H242062   4.206   5.284   2.138 -0.8534 -0.0785  0.3211
 6835TIP3   OH242063   1.507   5.596   8.122 -0.8041  0.3806  0.0608
 6835TIP3    H142064   1.476   5.684   8.099 -1.1657  0.1654 -0.2935
 6835TIP3    H242065   1.444   5.564   8.187 -1.9198 -0.4236 -1.3496
 6836TIP3   OH242066   5.008   0.280   1.040  0.2275  0.0459  0.3399
 6836TIP3    H142067   5.067   0.241   1.104 -1.7223 -1.5850  1.2533
 6836TIP3    H242068   5.004   0.217   0.969 -3.2539 -1.8658  2.0027
 6837TIP3   OH242069   0.779   1.481   6.435  0.0433 -0.6937 -0.0354
 6837TIP3    H142070   0.712   1.520   6.492  0.3386 -0.5207  0.1967
 6837TIP3    H242071   0.839   1.437   6.495 -0.3045 -1.5454 -0.2977
 6838TIP3   OH242072   3.196   0.070   0.329  0.1727  0.2606  0.4285
 6838TIP3    H142073   3.239  -0.015   0.324  0.6886  0.4882  0.9217
 6838TIP3    H242074   3.122   0.063   0.268  0.3659 -0.4449  0.2667
 6839TIP3   OH242075   6.550   3.739   1.992 -0.4448  0.2370  0.3829
 6839TIP3    H142076   6.638   3.702   1.998  0.8093  2.7129 -1.1785
 6839TIP3    H242077   6.534   3.778   2.078  0.0451 -0.0641  0.6132
 6840TIP3   OH242078   6.238   2.807   0.832  0.1776  0.2648 -0.1892
 6840TIP3    H142079   6.203   2.806   0.921  0.7339  0.9429  0.0438
 6840TIP3    H242080   6.329   2.833   0.842  0.8177 -1.5656 -0.7756
 6841TIP3   OH242081   4.281   5.335   2.996 -0.7404  0.1991 -0.1728
 6841TIP3    H142082   4.330   5.348   3.077 -0.1313 -0.8147 -0.3617
 6841TIP3    H242083   4.336   5.373   2.928  0.2990 -1.7887 -0.5155
 6842TIP3   OH242084   3.879   2.557   6.984 -0.1148 -0.5516 -0.2298
 6842TIP3    H142085   3.886   2.577   7.077 -2.2354 -2.2080  0.3899
 6842TIP3    H242086   3.924   2.628   6.939  3.7058 -1.2458  2.0850
 6843TIP3   OH242087   2.399   6.838   0.287 -0.0642  0.0498 -0.6083
 6843TIP3    H142088   2.305   6.832   0.305 -0.3750  1.6717 -1.5420
 6843TIP3    H242089   2.419   6.759   0.237 -0.6553 -0.9210  0.6314
 6844TIP3   OH242090   5.879   4.082   8.655  0.5381  0.2466 -0.1285
 6844TIP3    H142091   5.813   4.112   8.717  1.6390  1.6160  0.4183
 6844TIP3    H242092   5.862   4.132   8.575  1.6119  1.4905  0.3919
 6845TIP3   OH242093   0.345   0.712   1.182 -0.1899  0.1078  0.1933
 6845TIP3    H142094   0.377   0.671   1.263 -0.1847  0.3367  0.3061
 6845TIP3    H242095   0.319   0.638   1.128 -1.2291 -0.0213  0.8320
 6846TIP3   OH242096   6.762   5.776   8.054 -0.3707 -0.3730 -0.0274
 6846TIP3    H142097   6.744   5.820   7.970  0.1220 -0.6488 -0.2801
 6846TIP3    H242098   6.789   5.847   8.112  0.3890 -0.3251 -0.4244
 6847TIP3   OH242099   6.154   6.217   1.364 -0.1310 -0.6198 -0.3536
 6847TIP3    H142100   6.121   6.157   1.432 -0.3301  2.6021  2.7022
 6847TIP3    H242101   6.086   6.284   1.357  1.2710  0.7535 -1.5117
 6848TIP3   OH242102   6.123   0.156   8.118 -0.1213  0.5366 -0.0864
 6848TIP3    H142103   6.146   0.094   8.049 -0.8464 -0.2998  0.3997
 6848TIP3    H242104   6.104   0.238   8.072 -4.6044 -0.9561 -1.4417
 6849TIP3   OH242105   4.120   0.235   7.717 -0.0945 -0.1916 -0.0662
 6849TIP3    H142106   4.159   0.151   7.742 -0.3441 -0.9859 -2.1159
 6849TIP3    H242107   4.188   0.279   7.668 -0.4229  0.1928 -0.1827
 6850TIP3   OH242108   0.715   1.897   7.833  0.1240 -0.6042 -0.1583
 6850TIP3    H142109   0.779   1.832   7.805  0.2968 -0.9660  0.9945
 6850TIP3    H242110   0.657   1.848   7.892  0.0518  0.2023  0.4502
 6851TIP3   OH242111   2.689   5.707   7.643 -0.3758  0.6653  0.5397
 6851TIP3    H142112   2.673   5.686   7.551  0.1186 -1.3664  0.8597
 6851TIP3    H242113   2.776   5.747   7.644 -0.0102 -0.0861  0.1810
 6852TIP3   OH242114   6.510   4.498   1.368 -0.1198  0.0516  0.0855
 6852TIP3    H142115   6.468   4.425   1.414 -0.2554  1.5409  2.5138
 6852TIP3    H242116   6.439   4.542   1.323 -0.0124 -1.3369 -1.5553
 6853TIP3   OH242117   1.118   4.345   1.502  0.3349 -0.5291 -0.1741
 6853TIP3    H142118   1.100   4.438   1.494 -1.1794 -0.7313  0.5582
 6853TIP3    H242119   1.201   4.333   1.455 -0.0303  0.9734 -1.3087
 6854TIP3   OH242120   4.921   4.562   8.589  0.0132  0.1173  0.3764
 6854TIP3    H142121   4.984   4.563   8.660  0.1274  0.7914  0.2642
 6854TIP3    H242122   4.853   4.624   8.615 -0.7331 -0.7526  0.5973
 6855TIP3   OH242123   2.708   4.236   8.111 -0.3881  0.0297 -0.1722
 6855TIP3    H142124   2.780   4.299   8.121  0.0672 -0.2322 -1.5377
 6855TIP3    H242125   2.752   4.154   8.089 -1.0903 -0.1620 -0.8944
 6856TIP3   OH242126   6.609   3.825   1.028 -0.1488 -0.4550 -0.0474
 6856TIP3    H142127   6.655   3.904   1.058  1.4845 -1.3999  0.1015
 6856TIP3    H242128   6.522   3.832   1.066  0.4585  0.5471  1.2480
 6857TIP3   OH242129   2.178   6.771   0.402 -0.4765 -0.2483 -0.0659
 6857TIP3    H142130   2.194   6.712   0.476 -0.5428 -0.1998 -0.0128
 6857TIP3    H242131   2.123   6.720   0.343 -0.0148 -0.4627 -0.3122
 6858TIP3   OH242132   3.208   5.414   0.924  0.0055  0.0021  0.1646
 6858TIP3    H142133   3.249   5.500   0.934  1.2202 -0.6395  0.8866
 6858TIP3    H242134   3.185   5.388   1.013  1.5535 -1.3139  0.2104
 6859TIP3   OH242135   4.115   6.161   8.343  0.0897  0.3398  0.3654
 6859TIP3    H142136   4.141   6.084   8.294 -0.7975  0.5047 -0.3956
 6859TIP3    H242137   4.171   6.231   8.309  0.3881  0.1827  0.5321
 6860TIP3   OH242138   5.144   6.100   8.426 -0.4657  0.9359  0.0334
 6860TIP3    H142139   5.238   6.102   8.409 -0.4595 -0.0364 -0.0948
 6860TIP3    H242140   5.126   6.010   8.453 -1.1635  1.4079  1.2318
 6861TIP3   OH242141   1.767   5.726   8.196  0.6307 -0.3780 -0.3592
 6861TIP3    H142142   1.715   5.698   8.121  0.9210 -2.1270  0.0482
 6861TIP3    H242143   1.750   5.660   8.263  1.5179  0.3428  0.6190
 6862TIP3   OH242144   5.742   1.481   1.068  0.9147 -0.6109 -0.1171
 6862TIP3    H142145   5.745   1.417   1.139  3.4097 -0.3522  0.0857
 6862TIP3    H242146   5.650   1.506   1.062  0.6171 -0.5589  3.1010
 6863TIP3   OH242147   2.914   3.534   7.810  0.1325 -0.2792  0.1923
 6863TIP3    H142148   2.881   3.482   7.737  1.4246  1.2928 -1.6093
 6863TIP3    H242149   3.000   3.497   7.830 -0.1810 -0.6508  0.8811
 6864TIP3   OH242150   6.863   2.113   2.401  0.1875  0.1883 -0.0117
 6864TIP3    H142151   6.895   2.084   2.486  1.4889  0.7787 -0.2807
 6864TIP3    H242152   6.787   2.056   2.383 -0.3216  0.2971  1.6800
 6865TIP3   OH242153   6.272   5.759   1.936  0.0783 -0.3803 -0.0763
 6865TIP3    H142154   6.304   5.764   1.846  2.1683 -0.7316  0.5997
 6865TIP3    H242155   6.264   5.850   1.964 -0.1437 -0.2795 -0.4566
 6866TIP3   OH242156   3.300   5.915   1.687 -0.6598 -0.3031 -0.1639
 6866TIP3    H142157   3.353   5.994   1.695 -0.9169 -0.2367  0.9647
 6866TIP3    H242158   3.223   5.943   1.637 -1.1205  0.3578  0.8919
 6867TIP3   OH242159   4.191   6.821   2.951  0.6008 -0.4299  0.4554
 6867TIP3    H142160   4.143   6.904   2.946  0.9510 -0.3183 -2.1062
 6867TIP3    H242161   4.157   6.779   3.030 -0.9534  1.3080  0.7829
 6868TIP3   OH242162   5.818   4.462   7.084 -0.4712  0.0590 -0.4868
 6868TIP3    H142163   5.723   4.460   7.090 -0.4671 -1.0667 -0.6019
 6868TIP3    H242164   5.845   4.372   7.103  0.5571  0.3134 -0.6914
 6869TIP3   OH242165   0.680   2.321   1.061  0.4360 -0.4499 -0.4999
 6869TIP3    H142166   0.677   2.345   1.154  0.5430  0.6318 -0.7576
 6869TIP3    H242167   0.732   2.241   1.058  1.6603  0.2960  0.2252
 6870TIP3   OH242168   4.059   1.202   7.757 -0.1247 -0.1274 -0.0688
 6870TIP3    H142169   4.063   1.266   7.687 -0.2004  0.3705  0.3761
 6870TIP3    H242170   4.022   1.124   7.716 -0.6890  0.3323 -0.4539
 6871TIP3   OH242171   1.772   0.504   0.560  0.1104  0.8454 -0.1351
 6871TIP3    H142172   1.768   0.575   0.624 -0.1096  1.1815 -0.5185
 6871TIP3    H242173   1.862   0.473   0.564  0.1072  0.8818  0.3153
 6872TIP3   OH242174   4.685   5.534   2.994  0.0385  0.3174 -0.1689
 6872TIP3    H142175   4.627   5.487   3.053 -2.8481  3.2548 -0.3738
 6872TIP3    H242176   4.731   5.597   3.050  0.9563 -0.1121 -0.4179
 6873TIP3   OH242177   6.249   6.481   0.324  0.1354 -0.1741 -0.4539
 6873TIP3    H142178   6.257   6.529   0.242  0.1870 -0.4621 -0.6172
 6873TIP3    H242179   6.234   6.390   0.298  0.3152 -0.2946 -0.1481
 6874TIP3   OH242180   2.290   1.710   0.156 -0.0890 -0.3762  0.0665
 6874TIP3    H142181   2.326   1.747   0.237  2.4952  0.7773 -1.4641
 6874TIP3    H242182   2.240   1.782   0.117 -2.1438 -1.2200  1.0006
 6875TIP3   OH242183   5.273   0.211   8.620  0.2624 -0.2487 -0.0399
 6875TIP3    H142184   5.317   0.255   8.547  1.3089  0.9942  1.2783
 6875TIP3    H242185   5.341   0.157   8.660  0.1558  0.2938  0.9292
 6876TIP3   OH242186   6.117   6.533   0.882 -0.0229 -0.0456  0.5356
 6876TIP3    H142187   6.206   6.512   0.853 -0.3780 -0.0896 -0.5422
 6876TIP3    H242188   6.129   6.569   0.970  1.0749  0.0526  0.3606
 6877TIP3   OH242189   1.717   1.416   6.812  0.0719  0.3133 -0.0002
 6877TIP3    H142190   1.773   1.466   6.752  1.5456  1.3367  2.0902
 6877TIP3    H242191   1.727   1.325   6.783  2.1712  0.5717 -0.2494
 6878TIP3   OH242192   2.451   0.648   7.807  0.1404 -0.3887 -1.1732
 6878TIP3    H142193   2.364   0.678   7.832  0.0058  0.3900 -2.4870
 6878TIP3    H242194   2.508   0.679   7.877 -0.7101 -1.5017  0.0524
 6879TIP3   OH242195   3.601   3.892   1.565 -0.2147 -0.2837  0.6860
 6879TIP3    H142196   3.567   3.824   1.623  1.9642 -1.2991  0.8570
 6879TIP3    H242197   3.580   3.861   1.477  3.0156 -2.6711  0.5804
 6880TIP3   OH242198   3.618   0.087   1.315  0.8563 -0.5006  0.0135
 6880TIP3    H142199   3.609   0.029   1.390  1.9420  0.9932  1.3860
 6880TIP3    H242200   3.668   0.037   1.251 -0.1002 -1.8125  0.2482
 6881TIP3   OH242201   0.645   6.508   0.139  0.2884 -0.0655  0.4935
 6881TIP3    H142202   0.648   6.581   0.200  1.8224  0.8312 -0.5901
 6881TIP3    H242203   0.630   6.431   0.194 -0.3385  0.9141  1.7601
 6882TIP3   OH242204   3.441   2.646   8.484  0.6404 -0.1972 -0.1353
 6882TIP3    H142205   3.469   2.728   8.442 -0.8771 -0.4178 -1.6976
 6882TIP3    H242206   3.415   2.590   8.411 -1.0397 -1.0461  1.0492
 6883TIP3   OH242207   0.376   4.062   1.140 -0.4669 -0.1704  0.5128
 6883TIP3    H142208   0.322   4.137   1.114 -1.5756 -0.4183  1.9979
 6883TIP3    H242209   0.433   4.047   1.064 -1.1334  1.3229 -0.3411
 6884TIP3   OH242210   6.387   0.064   1.424 -0.1590 -0.4534 -0.1643
 6884TIP3    H142211   6.378   0.152   1.459 -1.1960  1.2255 -4.0796
 6884TIP3    H242212   6.311   0.016   1.459 -1.0173  1.0088  0.0578
 6885TIP3   OH242213   2.335   3.449   0.205 -0.5303  0.0395  0.4690
 6885TIP3    H142214   2.307   3.489   0.287 -1.9429 -1.5040  0.8038
 6885TIP3    H242215   2.431   3.445   0.212 -0.6188 -0.0720  2.0648
 6886TIP3   OH242216   4.040   5.437   7.833  0.2088  0.8960  0.3407
 6886TIP3    H142217   4.029   5.391   7.917  2.9864 -3.2530 -1.2744
 6886TIP3    H242218   4.134   5.452   7.827 -0.1275  2.5463 -1.4032
 6887TIP3   OH242219   6.634   0.945   7.874  0.0320 -0.2757 -0.0094
 6887TIP3    H142220   6.589   0.999   7.808 -0.6957  0.7017  1.2293
 6887TIP3    H242221   6.605   0.856   7.855 -1.2667  0.1589 -0.1698
 6888TIP3   OH242222   0.366   1.007   8.350 -0.5336 -0.3876  0.0442
 6888TIP3    H142223   0.271   1.007   8.346 -0.5351 -1.3859 -0.1693
 6888TIP3    H242224   0.389   1.098   8.369 -1.3784  0.6866 -3.3349
 6889TIP3   OH242225   4.491   3.495   7.464 -0.5702  0.1117 -0.5095
 6889TIP3    H142226   4.454   3.526   7.381 -2.1237 -1.2696 -0.3831
 6889TIP3    H242227   4.498   3.400   7.453 -0.4219 -0.0490  0.7899
 6890TIP3   OH242228   4.893   2.496   8.325 -0.7255  0.1161  0.0660
 6890TIP3    H142229   4.924   2.570   8.377 -2.5445  1.6364 -0.9012
 6890TIP3    H242230   4.906   2.524   8.235 -0.3020 -1.2964 -0.3343
 6891TIP3   OH242231   1.503   3.378   1.661  0.0113 -0.5711  0.3893
 6891TIP3    H142232   1.427   3.346   1.612 -1.5127  0.3832  2.0246
 6891TIP3    H242233   1.514   3.469   1.633 -0.2154 -0.3413  1.0265
 6892TIP3   OH242234   0.499   1.250   8.227  0.6455  0.5912 -0.2255
 6892TIP3    H142235   0.456   1.293   8.301  0.2511 -1.5829  0.9064
 6892TIP3    H242236   0.590   1.278   8.233  0.2781  1.8097  0.0120
 6893TIP3   OH242237   0.290   5.264   2.210  1.0555  0.2681  0.4352
 6893TIP3    H142238   0.218   5.323   2.230  0.4115 -0.2562 -0.2793
 6893TIP3    H242239   0.248   5.184   2.179  1.9478 -0.0654  0.0481
 6894TIP3   OH242240   5.435   2.101   0.949  0.3050  0.3274  0.0371
 6894TIP3    H142241   5.527   2.073   0.953  0.3282  0.4915  0.8244
 6894TIP3    H242242   5.386   2.021   0.933  0.6242  0.3198 -1.0090
 6895TIP3   OH242243   5.821   2.065   8.342 -0.4415 -0.0270 -0.5146
 6895TIP3    H142244   5.761   2.006   8.296 -1.1448 -0.6514  1.1009
 6895TIP3    H242245   5.764   2.133   8.379  0.0751  0.3722 -0.4500
 6896TIP3   OH242246   1.959   4.808   2.158  0.1526 -0.0251  0.2295
 6896TIP3    H142247   1.872   4.773   2.140 -0.2425  1.1863 -0.2989
 6896TIP3    H242248   2.015   4.771   2.090 -0.3543  0.7076 -0.6049
 6897TIP3   OH242249   3.286   0.648   8.026  0.4656 -0.5743  0.4620
 6897TIP3    H142250   3.335   0.718   8.069  0.3809  0.3444 -0.9033
 6897TIP3    H242251   3.195   0.677   8.030  0.6651  0.8757 -2.6108
 6898TIP3   OH242252   2.041   6.194   7.636 -0.3073 -0.3585  0.0923
 6898TIP3    H142253   1.959   6.243   7.637 -0.2605 -0.2670 -0.3454
 6898TIP3    H242254   2.050   6.161   7.726  0.1862  1.2931  0.6890
 6899TIP3   OH242255   4.887   3.580   7.671  0.4199 -0.7734 -0.0214
 6899TIP3    H142256   4.902   3.660   7.620 -1.8512 -0.2332  0.0743
 6899TIP3    H242257   4.971   3.564   7.714  1.5003  0.4607 -1.5349
 6900TIP3   OH242258   4.289   6.039   7.319 -0.1662 -0.1271  0.2128
 6900TIP3    H142259   4.306   5.966   7.378  2.7746 -0.0991 -0.4496
 6900TIP3    H242260   4.352   6.106   7.346  0.2342  0.4458 -1.9424
 6901TIP3   OH242261   1.695   5.421   7.703  0.3149 -0.2223  0.2473
 6901TIP3    H142262   1.741   5.341   7.681 -1.7303 -1.1653 -0.9120
 6901TIP3    H242263   1.651   5.447   7.622 -1.6334  0.2697  1.3848
 6902TIP3   OH242264   0.722   1.515   7.316  0.1983 -0.5226 -0.8569
 6902TIP3    H142265   0.796   1.456   7.305  0.3256 -0.5121 -0.1208
 6902TIP3    H242266   0.653   1.460   7.352  1.1592  0.2433  2.5204
 6903TIP3   OH242267   0.457   0.821   6.975  0.0866 -0.4279  0.2233
 6903TIP3    H142268   0.368   0.824   6.941  0.3593 -1.0802 -0.5716
 6903TIP3    H242269   0.488   0.911   6.969 -1.1435  0.1946  2.2693
 6904TIP3   OH242270   1.533   1.222   0.280 -0.4532 -0.4325 -0.2005
 6904TIP3    H142271   1.490   1.156   0.226 -2.2910  0.8358 -0.4124
 6904TIP3    H242272   1.513   1.305   0.236 -0.5684  0.4883  1.5070
 6905TIP3   OH242273   0.670   1.421   8.573  0.0820  0.8039 -0.2689
 6905TIP3    H142274   0.620   1.345   8.604  0.7389  0.4596 -0.0476
 6905TIP3    H242275   0.605   1.474   8.526 -0.5325  0.4518  0.1645
 6906TIP3   OH242276   6.849   4.505   0.778 -0.6894  0.0462 -0.2701
 6906TIP3    H142277   6.814   4.499   0.867 -0.9830  2.8108 -0.0976
 6906TIP3    H242278   6.942   4.525   0.791 -0.3809 -1.0683 -0.6431
 6907TIP3   OH242279   6.316   1.136   0.863 -0.4543  0.1831  0.4079
 6907TIP3    H142280   6.346   1.186   0.939  1.6588 -0.2662 -0.0751
 6907TIP3    H242281   6.286   1.203   0.801  0.9340  0.7996  0.3589
 6908TIP3   OH242282   5.033   6.139   1.628  0.0952  0.1081  0.2751
 6908TIP3    H142283   5.081   6.208   1.676 -0.7232  2.2488 -1.8054
 6908TIP3    H242284   4.952   6.129   1.677  0.2697  0.5583  0.6770
 6909TIP3   OH242285   1.984   2.894   1.716 -0.2200  0.0855 -0.1016
 6909TIP3    H142286   2.027   2.817   1.753 -0.0551 -1.5619 -3.3410
 6909TIP3    H242287   2.050   2.934   1.660 -1.3750  0.5110 -1.2072
 6910TIP3   OH242288   4.609   5.442   0.004 -0.0389 -0.2890 -0.0515
 6910TIP3    H142289   4.534   5.489  -0.033  1.6776  0.7476 -2.4879
 6910TIP3    H242290   4.638   5.498   0.076  0.8170  1.5320 -1.7107
 6911TIP3   OH242291   6.596   3.981   2.417 -0.7473  0.4575 -0.0584
 6911TIP3    H142292   6.504   3.999   2.437 -0.9716  0.1486 -0.8086
 6911TIP3    H242293   6.623   3.921   2.487 -1.3001  0.0447 -0.1820
 6912TIP3   OH242294   2.150   2.970   0.921 -0.2741 -0.3107 -0.1516
 6912TIP3    H142295   2.142   2.944   0.829  1.5111 -1.7170  0.0257
 6912TIP3    H242296   2.066   2.948   0.960 -0.6580 -0.7860 -1.2038
 6913TIP3   OH242297   2.788   4.931   1.384  0.5505 -0.3472  0.1735
 6913TIP3    H142298   2.767   5.023   1.366  0.1005 -0.4124  0.3530
 6913TIP3    H242299   2.767   4.885   1.303 -0.7704 -0.5307  0.6037
 6914TIP3   OH242300   6.295   5.898   8.025  0.4034  0.4353 -0.9977
 6914TIP3    H142301   6.334   5.854   8.101  0.4854 -0.5190 -1.5688
 6914TIP3    H242302   6.206   5.863   8.020 -0.4030  2.2074 -0.0157
 6915TIP3   OH242303   3.817   6.391   8.151 -0.2974 -0.4165  0.7255
 6915TIP3    H142304   3.728   6.393   8.117 -0.1258  2.6019  0.2163
 6915TIP3    H242305   3.809   6.414   8.243 -0.1313 -1.7313  1.0962
 6916TIP3   OH242306   4.909   6.795   0.489  0.0652  1.1957 -0.4416
 6916TIP3    H142307   4.997   6.756   0.493 -1.0031 -1.2741  0.6381
 6916TIP3    H242308   4.899   6.840   0.573 -0.8973 -1.4636  0.9701
 6917TIP3   OH242309   5.132   3.535   7.762 -0.2756 -0.2761 -0.4741
 6917TIP3    H142310   5.170   3.573   7.841 -0.0659  0.9834 -1.1585
 6917TIP3    H242311   5.159   3.594   7.692 -0.6927 -1.2204 -1.4526
 6918TIP3   OH242312   0.966   2.038   0.810  0.0489  0.1042 -0.1144
 6918TIP3    H142313   1.053   2.072   0.788 -0.0498  0.2555 -0.2744
 6918TIP3    H242314   0.978   1.991   0.892  0.5242 -0.8417 -0.7037
 6919TIP3   OH242315   1.403   1.613   2.489 -0.1556  0.4947  0.3708
 6919TIP3    H142316   1.379   1.524   2.517 -1.9823  1.0520  0.7103
 6919TIP3    H242317   1.427   1.658   2.570  0.3299  0.4425  0.2570
 6920TIP3   OH242318   2.826   3.596   8.223 -0.0812 -0.2655 -0.2365
 6920TIP3    H142319   2.886   3.598   8.298 -0.7615  2.8122  0.3648
 6920TIP3    H242320   2.883   3.591   8.147  0.7894 -0.3272  0.4015
 6921TIP3   OH242321   2.373   0.741   1.799  0.4659 -0.7279  0.3463
 6921TIP3    H142322   2.352   0.648   1.807  0.0073 -0.5572  1.2743
 6921TIP3    H242323   2.377   0.757   1.704 -0.4776 -1.4688  0.1650
 6922TIP3   OH242324   6.151   3.542   6.347 -0.1870 -0.4138  0.4970
 6922TIP3    H142325   6.171   3.457   6.385  1.7503 -0.0571  0.3648
 6922TIP3    H242326   6.130   3.597   6.423 -0.1556 -0.6797  0.6995
 6923TIP3   OH242327   0.964   0.205   7.799  0.0844  0.3302  0.5797
 6923TIP3    H142328   1.027   0.191   7.870 -0.7358  2.3225  1.7716
 6923TIP3    H242329   0.881   0.174   7.836 -0.4187  1.7348  0.6806
 6924TIP3   OH242330   1.099   2.500   0.363  0.2747  0.6470 -0.0944
 6924TIP3    H142331   1.131   2.525   0.449  0.5628  0.1299 -0.0456
 6924TIP3    H242332   1.055   2.416   0.377  0.3695  0.5338 -0.4535
 6925TIP3   OH242333   2.108   4.669   6.890 -0.2985 -0.5867 -0.2652
 6925TIP3    H142334   2.099   4.703   6.801  0.8635 -0.1093 -0.2173
 6925TIP3    H242335   2.043   4.599   6.896 -1.4769  0.4060 -0.9693
 6926TIP3   OH242336   3.350   3.675   0.599 -0.4072 -0.3651 -0.6352
 6926TIP3    H142337   3.362   3.590   0.558  2.5181 -0.8295  0.8799
 6926TIP3    H242338   3.292   3.723   0.540 -0.5416 -2.7058 -2.5439
 6927TIP3   OH242339   4.758   0.505   1.074 -0.0468 -0.2120  0.6063
 6927TIP3    H142340   4.844   0.467   1.093  0.5160  0.5804 -0.2733
 6927TIP3    H242341   4.753   0.508   0.978  0.0132  2.0462  0.6151
 6928TIP3   OH242342   0.388   2.507   7.500 -0.9229  0.4743  0.3070
 6928TIP3    H142343   0.330   2.491   7.425 -0.2785 -3.0060  0.3857
 6928TIP3    H242344   0.406   2.601   7.497 -3.2089  0.9458 -2.1727
 6929TIP3   OH242345   3.410   5.718   7.420  0.2797  1.2666 -0.0127
 6929TIP3    H142346   3.331   5.760   7.387 -0.0672 -0.8523 -2.1535
 6929TIP3    H242347   3.455   5.686   7.342  0.2956 -2.6043  1.3564
 6930TIP3   OH242348   5.848   0.160   7.912 -0.0519 -0.8589 -0.2707
 6930TIP3    H142349   5.901   0.113   7.976  0.5144  1.0736  0.7658
 6930TIP3    H242350   5.800   0.225   7.963 -0.5210 -0.0594 -1.6486
 6931TIP3   OH242351   3.871   6.055   8.126 -0.0071 -0.0854 -0.2568
 6931TIP3    H142352   3.794   6.067   8.180 -0.3318 -0.2039 -0.6897
 6931TIP3    H242353   3.939   6.025   8.186 -0.7682 -1.6823 -0.1552
 6932TIP3   OH242354   0.985   5.030   7.493  0.4110 -0.2397 -0.1443
 6932TIP3    H142355   0.934   5.094   7.543  0.0091 -0.5813 -0.1054
 6932TIP3    H242356   0.921   4.962   7.470  0.4704  0.1362 -1.5357
 6933TIP3   OH242357   4.133   1.767   8.066  0.3987  0.2520  0.4097
 6933TIP3    H142358   4.131   1.757   8.161  1.4071 -0.9054  0.3309
 6933TIP3    H242359   4.195   1.839   8.051 -1.1021  1.6667  0.6659
 6934TIP3   OH242360   6.347   6.476   6.685 -0.3894 -0.3507  0.9466
 6934TIP3    H142361   6.306   6.410   6.741 -0.2725  0.6062  2.2246
 6934TIP3    H242362   6.330   6.559   6.731 -0.7484  0.5362 -0.7336
 6935TIP3   OH242363   5.268   0.971   2.215  0.1032  0.1770  0.2027
 6935TIP3    H142364   5.254   0.889   2.166 -0.4872  0.9148 -0.9203
 6935TIP3    H242365   5.180   1.006   2.227  0.3419  0.5775  0.8034
 6936TIP3   OH242366   5.648   2.903   7.700  0.1759 -0.2765 -0.1460
 6936TIP3    H142367   5.577   2.964   7.681 -0.4949 -1.0051 -0.0529
 6936TIP3    H242368   5.613   2.817   7.673  0.7477 -0.7500  0.5871
 6937TIP3   OH242369   0.869   0.182   6.808  0.1169 -0.3846 -0.5641
 6937TIP3    H142370   0.940   0.127   6.775 -0.1247  0.5127 -2.7337
 6937TIP3    H242371   0.848   0.241   6.736 -2.9657 -0.7167 -0.0912
 6938TIP3   OH242372   6.118   6.249   1.056  0.0500 -0.1704 -0.0581
 6938TIP3    H142373   6.160   6.329   1.025  0.5053  1.4811  4.1836
 6938TIP3    H242374   6.027   6.273   1.068 -0.1950 -0.8838 -0.4218
 6939TIP3   OH242375   2.992   2.916   0.179  0.1691  0.1074 -0.4632
 6939TIP3    H142376   2.900   2.919   0.152 -0.2508  0.0854  0.8967
 6939TIP3    H242377   3.027   3.001   0.152  0.2413 -0.5263 -2.5490
 6940TIP3   OH242378   2.816   5.159   8.538  0.4474  0.6413  0.0338
 6940TIP3    H142379   2.838   5.074   8.500  1.3119  1.0513 -0.4280
 6940TIP3    H242380   2.768   5.138   8.618  2.8238 -0.3763  1.3136
 6941TIP3   OH242381   1.846   2.919   2.119 -0.1274  0.1944  0.3432
 6941TIP3    H142382   1.933   2.958   2.116 -0.9142  2.1613  1.3254
 6941TIP3    H242383   1.803   2.949   2.039  0.3875 -1.6828 -0.7089
 6942TIP3   OH242384   0.703   0.101   7.820  0.0558 -0.3693  0.1979
 6942TIP3    H142385   0.762   0.031   7.850  1.4307  0.8728  0.5578
 6942TIP3    H242386   0.660   0.131   7.900 -0.8245 -1.0371 -0.0133
 6943TIP3   OH242387   4.688   0.567   7.947 -0.2873 -0.2411  0.3764
 6943TIP3    H142388   4.671   0.660   7.958  1.8115  0.2034  0.2608
 6943TIP3    H242389   4.622   0.524   8.002  0.3453  1.4011  2.5722
 6944TIP3   OH242390   3.817   0.553   2.038 -0.2870 -0.4998 -0.5765
 6944TIP3    H142391   3.824   0.644   2.009 -2.4945  0.0610  0.3992
 6944TIP3    H242392   3.824   0.501   1.958  1.3556  0.4562 -1.1066
 6945TIP3   OH242393   2.324   0.770   2.330  0.3480 -0.2894 -0.9329
 6945TIP3    H142394   2.354   0.853   2.367 -2.7961  0.5923 -0.0735
 6945TIP3    H242395   2.361   0.703   2.388  2.0395  0.5284 -1.0115
 6946TIP3   OH242396   2.906   6.662   0.597 -0.4565  0.0121 -0.1902
 6946TIP3    H142397   2.844   6.654   0.525 -0.6933  0.0258  0.0094
 6946TIP3    H242398   2.857   6.708   0.665  0.0564  0.8226 -0.3557
 6947TIP3   OH242399   1.747   1.180   2.490 -0.2393 -0.3876  0.0864
 6947TIP3    H142400   1.728   1.265   2.530 -0.3671  0.3817 -1.5250
 6947TIP3    H242401   1.818   1.144   2.542  1.0244  1.5215 -0.2272
 6948TIP3   OH242402   2.751   6.103   0.474  0.1854  0.2200 -0.2859
 6948TIP3    H142403   2.695   6.135   0.544  0.4981  0.4506 -0.1370
 6948TIP3    H242404   2.690   6.074   0.406 -0.1335 -0.5879  0.3277
 6949TIP3   OH242405   0.877   5.363   6.951  0.6190 -0.3333  0.2454
 6949TIP3    H142406   0.950   5.305   6.975  1.0910 -0.5405 -1.5057
 6949TIP3    H242407   0.828   5.314   6.885 -0.4257  0.2929  0.5312
 6950TIP3   OH242408   2.018   0.978   1.092 -0.2645  0.3299  0.0903
 6950TIP3    H142409   1.952   0.922   1.134 -0.6330 -1.4372 -2.5776
 6950TIP3    H242410   2.100   0.954   1.135 -0.7375 -0.6799  0.4754
 6951TIP3   OH242411   0.535   1.962   0.766 -0.7114 -0.0935 -0.2186
 6951TIP3    H142412   0.526   2.057   0.770  0.6592  0.0077  0.9555
 6951TIP3    H242413   0.543   1.934   0.857  1.7439 -1.0065 -0.6444
 6952TIP3   OH242414   0.419   4.861   7.429 -0.0110 -0.0609  0.1839
 6952TIP3    H142415   0.412   4.782   7.482  0.5462 -0.0424  0.2935
 6952TIP3    H242416   0.468   4.835   7.352 -1.7063 -0.3297 -0.8430
 6953TIP3   OH242417   3.241   6.070   7.497 -0.3007 -0.2690  0.2735
 6953TIP3    H142418   3.269   6.022   7.419  0.2963  0.4950  0.0118
 6953TIP3    H242419   3.176   6.132   7.465  0.2044  0.2907  0.3177
 6954TIP3   OH242420   6.251   3.894   6.878  0.2867  0.3081  0.3253
 6954TIP3    H142421   6.339   3.859   6.893  0.1066 -0.1844  0.2732
 6954TIP3    H242422   6.233   3.947   6.955  1.8612  3.0560 -1.0259
 6955TIP3   OH242423   5.375   4.633   2.229 -0.0411  0.0759 -0.3819
 6955TIP3    H142424   5.286   4.607   2.250 -0.1056  0.1966 -0.5043
 6955TIP3    H242425   5.397   4.701   2.292  0.9707 -1.8586  1.5177
 6956TIP3   OH242426   3.789   5.966   8.390  0.7217  0.1229 -0.1622
 6956TIP3    H142427   3.700   5.995   8.371 -0.0225 -2.3319 -0.7809
 6956TIP3    H242428   3.822   6.031   8.452 -1.3154  1.3576 -0.2668
 6957TIP3   OH242429   2.600   1.322   0.995 -0.8316  0.1072 -0.0632
 6957TIP3    H142430   2.523   1.303   0.942 -0.8784  0.3359 -0.0788
 6957TIP3    H242431   2.613   1.242   1.047  0.4323 -0.9128 -1.8692
 6958TIP3   OH242432   1.650   5.898   1.113 -0.2067  0.0308 -0.2158
 6958TIP3    H142433   1.659   5.803   1.126  0.8700  0.0762 -0.4930
 6958TIP3    H242434   1.581   5.907   1.047  0.1707 -0.6109 -0.7189
 6959TIP3   OH242435   5.290   0.777   1.057 -0.0982  0.4616 -0.5935
 6959TIP3    H142436   5.234   0.839   1.103  0.8388  0.4638  0.5994
 6959TIP3    H242437   5.244   0.693   1.063 -0.0186  0.4728  0.3243
 6960TIP3   OH242438   3.241   0.991   0.010 -0.0186  0.3000  0.0079
 6960TIP3    H142439   3.163   0.990  -0.046 -0.2560 -3.0913  0.2210
 6960TIP3    H242440   3.288   1.070  -0.017 -0.0974 -1.0254 -5.0710
 6961TIP3   OH242441   3.241   5.170   2.072 -0.6047  0.1391 -0.6943
 6961TIP3    H142442   3.153   5.206   2.080  0.6351  3.0732  1.2406
 6961TIP3    H242443   3.268   5.152   2.162  0.9712 -0.2036 -1.2069
 6962TIP3   OH242444   6.295   5.539   7.238  0.3722  0.0388 -0.5751
 6962TIP3    H142445   6.248   5.569   7.316 -0.1229 -0.2757 -0.7529
 6962TIP3    H242446   6.340   5.618   7.206  0.7219  0.1331  0.1224
 6963TIP3   OH242447   0.243   5.303   0.858 -0.5361  0.2861 -0.6483
 6963TIP3    H142448   0.186   5.255   0.918 -2.9677  1.6696 -1.7038
 6963TIP3    H242449   0.275   5.377   0.910 -1.0824  0.4230 -0.4984
 6964TIP3   OH242450   3.074   6.868   1.630 -0.8283 -0.8888 -0.4508
 6964TIP3    H142451   3.049   6.776   1.616 -1.1079 -0.9013  0.0750
 6964TIP3    H242452   3.102   6.871   1.722  0.1165 -0.6461 -0.7407
 6965TIP3   OH242453   2.027   2.211   8.629 -0.1255  0.0065  0.6560
 6965TIP3    H142454   2.033   2.259   8.546  0.7721 -0.4915  0.4248
 6965TIP3    H242455   1.946   2.243   8.668 -1.3565 -0.8056 -1.0657
 6966TIP3   OH242456   6.031   1.915   8.468  0.4937  0.3551  0.1231
 6966TIP3    H142457   6.083   1.851   8.420 -0.5101 -0.6939  0.4127
 6966TIP3    H242458   5.958   1.936   8.411 -1.0339 -1.3408  1.3340
 6967TIP3   OH242459   4.726   0.629   8.276  0.7208 -0.4619 -0.0045
 6967TIP3    H142460   4.747   0.715   8.238 -0.7340 -0.1658 -0.1917
 6967TIP3    H242461   4.635   0.613   8.251  0.3969 -1.2527  1.5232
 6968TIP3   OH242462   5.836   6.527   0.132 -0.5204 -0.3103 -0.2681
 6968TIP3    H142463   5.929   6.515   0.112 -0.1071 -0.3272  1.4766
 6968TIP3    H242464   5.818   6.618   0.110  0.2972  0.1027  0.6552
 6969TIP3   OH242465   5.324   1.159   1.657  0.3530  0.1511 -0.9201
 6969TIP3    H142466   5.386   1.213   1.608  0.7163  0.1229 -0.5022
 6969TIP3    H242467   5.252   1.143   1.596  0.6428  0.3904 -1.3287
 6970TIP3   OH242468   2.919   5.246   2.963 -0.5050 -0.0019  0.6713
 6970TIP3    H142469   2.894   5.310   3.031  1.2485 -1.0835  2.4411
 6970TIP3    H242470   3.014   5.238   2.972 -0.4494 -1.4476 -0.8148
 6971TIP3   OH242471   3.343   2.413   1.249  0.2268  0.5468  0.5414
 6971TIP3    H142472   3.376   2.415   1.338  0.1140  1.7704  0.5780
 6971TIP3    H242473   3.254   2.447   1.255  0.8084  2.3716 -0.2256
 6972TIP3   OH242474   4.409   6.256   0.412 -0.2699  0.1194 -0.0771
 6972TIP3    H142475   4.467   6.317   0.365  0.8095 -0.9494 -0.1601
 6972TIP3    H242476   4.424   6.171   0.371 -1.6292 -0.2606  0.1562
 6973TIP3   OH242477   1.518   1.571   6.701 -0.4933 -0.8849  0.1918
 6973TIP3    H142478   1.475   1.508   6.644  0.6025 -0.6986 -0.8769
 6973TIP3    H242479   1.595   1.525   6.734 -0.1552 -0.4034  0.0863
 6974TIP3   OH242480   0.515   6.794   0.360 -0.1581 -0.3740  0.7949
 6974TIP3    H142481   0.602   6.756   0.357  0.3900  0.7230  1.6459
 6974TIP3    H242482   0.513   6.840   0.444 -0.4001  2.2464 -0.5420
 6975TIP3   OH242483   4.903   0.071   7.391  0.2082 -0.1521 -0.1226
 6975TIP3    H142484   4.928  -0.021   7.394  0.3427 -0.1673 -1.2143
 6975TIP3    H242485   4.910   0.101   7.481  0.9879 -0.9972  0.1123
 6976TIP3   OH242486   1.812   1.720   2.278 -0.2665  0.4071  0.4552
 6976TIP3    H142487   1.793   1.779   2.351 -0.2644 -0.6586  1.3490
 6976TIP3    H242488   1.750   1.648   2.290  0.0118  0.0233 -0.3734
 6977TIP3   OH242489   6.719   1.600   1.256 -0.1779 -0.0060 -1.0745
 6977TIP3    H142490   6.713   1.519   1.205  0.9911  0.6682 -2.3589
 6977TIP3    H242491   6.770   1.575   1.333 -0.5112 -0.6773 -1.0644
 6978TIP3   OH242492   1.483   1.577   0.674 -0.1842 -0.3278 -0.4851
 6978TIP3    H142493   1.405   1.575   0.619  0.9472 -0.9118 -2.1497
 6978TIP3    H242494   1.537   1.647   0.636  0.5519 -0.6262 -0.0030
 6979TIP3   OH242495   0.566   5.256   7.910  0.2673  0.4967  0.0947
 6979TIP3    H142496   0.529   5.296   7.989  2.0699 -0.1449  1.3251
 6979TIP3    H242497   0.603   5.330   7.861  0.0579  0.7744  0.3527
 6980TIP3   OH242498   3.046   3.506   0.626  0.6360 -0.5557  0.1516
 6980TIP3    H142499   3.052   3.414   0.600  0.5316 -0.4585 -0.2137
 6980TIP3    H242500   3.038   3.503   0.722  0.4765 -0.9317  0.1284
 6981TIP3   OH242501   6.505   3.193   8.598  0.4085  0.2606  1.0614
 6981TIP3    H142502   6.544   3.268   8.643  0.5532 -1.3033  3.7801
 6981TIP3    H242503   6.580   3.137   8.577  0.1555  0.1191  0.5322
 6982TIP3   OH242504   0.196   4.920   6.334  0.3513 -0.0998 -0.6007
 6982TIP3    H142505   0.234   5.006   6.353 -0.5682  0.1558  0.1455
 6982TIP3    H242506   0.266   4.873   6.289  0.1121  1.8630 -3.3177
 6983TIP3   OH242507   4.581   3.324   1.950 -0.0962  0.8355 -0.0871
 6983TIP3    H142508   4.486   3.338   1.954 -0.4447 -1.5264  2.5177
 6983TIP3    H242509   4.594   3.278   1.867 -1.1930  1.1385 -0.4531
 6984TIP3   OH242510   0.504   0.767   7.277  0.3093 -0.2247 -0.3687
 6984TIP3    H142511   0.481   0.793   7.188 -0.1219 -2.5985 -1.0289
 6984TIP3    H242512   0.552   0.685   7.266  0.0059 -0.7248  1.6013
 6985TIP3   OH242513   0.352   1.286   6.973  0.1587  0.1470  0.2029
 6985TIP3    H142514   0.324   1.377   6.964 -0.1705  0.2952  2.3155
 6985TIP3    H242515   0.425   1.289   7.035 -0.7285 -1.1344  1.3753
 6986TIP3   OH242516   1.259   0.494   1.193  0.1131  0.4995  0.2753
 6986TIP3    H142517   1.189   0.492   1.127 -0.8967 -1.6147  1.3177
 6986TIP3    H242518   1.331   0.446   1.153 -0.1012  0.1516  0.3088
 6987TIP3   OH242519   0.305   4.463   1.761 -0.1440 -0.1744 -0.1124
 6987TIP3    H142520   0.327   4.388   1.816 -0.0208 -0.3147 -0.3531
 6987TIP3    H242521   0.371   4.463   1.692  1.2050  1.4377  1.0978
 6988TIP3   OH242522   5.106   6.089   7.772  0.2413  0.2659 -0.8588
 6988TIP3    H142523   5.192   6.071   7.811 -1.3100 -3.0851  1.5658
 6988TIP3    H242524   5.110   6.051   7.685  1.5271  1.1847 -1.2248
 6989TIP3   OH242525   3.754   0.775   8.424  0.2648  0.2436  0.2446
 6989TIP3    H142526   3.805   0.747   8.501 -0.7069 -1.7359  0.2302
 6989TIP3    H242527   3.682   0.827   8.461  0.8357  0.8884  0.4785
 6990TIP3   OH242528   3.105   0.063   8.272  0.2240  0.0153  0.0582
 6990TIP3    H142529   3.173   0.042   8.336 -0.5314 -1.5620  0.3749
 6990TIP3    H242530   3.060  -0.020   8.256 -1.6055  1.0057 -0.1829
 6991TIP3   OH242531   4.116   4.555   0.018 -0.0597  0.2275  0.6328
 6991TIP3    H142532   4.182   4.581   0.082  0.5812 -0.1880  0.1524
 6991TIP3    H242533   4.052   4.626   0.020  1.4998  1.7501 -0.4702
 6992TIP3   OH242534   1.714   0.236   1.813 -0.3872  0.3892 -0.1060
 6992TIP3    H142535   1.687   0.186   1.736 -0.5911  1.0952 -0.5030
 6992TIP3    H242536   1.770   0.176   1.863 -1.7026 -0.7023  0.1221
 6993TIP3   OH242537   4.010   4.193   7.957  0.5017 -0.2041  0.1369
 6993TIP3    H142538   4.098   4.199   7.919 -0.8447  0.1649 -3.2812
 6993TIP3    H242539   3.954   4.240   7.895 -2.2771 -1.2536  1.6732
 6994TIP3   OH242540   6.276   5.389   7.609 -0.3505  0.3173  0.0260
 6994TIP3    H142541   6.226   5.444   7.549  0.5310 -0.8638 -1.8668
 6994TIP3    H242542   6.269   5.434   7.694 -1.2984  2.2439 -1.0084
 6995TIP3   OH242543   6.854   3.599   0.748 -0.0255 -0.4189 -0.3657
 6995TIP3    H142544   6.801   3.674   0.774  2.9110  1.2620  1.2704
 6995TIP3    H242545   6.815   3.525   0.795 -1.5118  0.5130 -0.0489
 6996TIP3   OH242546   6.674   4.979   8.305  0.4459  0.1154  0.3140
 6996TIP3    H142547   6.580   4.990   8.291  0.4667  1.5184  1.1348
 6996TIP3    H242548   6.695   5.038   8.377  1.9464 -0.2680  0.2249
 6997TIP3   OH242549   5.371   0.516   1.702  0.0409  0.2792 -0.4762
 6997TIP3    H142550   5.358   0.446   1.638  0.0301  0.8694 -1.1266
 6997TIP3    H242551   5.430   0.477   1.767 -0.9668 -0.7567 -0.1331
 6998TIP3   OH242552   3.405   3.725   0.314 -0.4020  0.0359  0.2680
 6998TIP3    H142553   3.370   3.726   0.225  0.3277 -2.0334 -0.0936
 6998TIP3    H242554   3.330   3.701   0.369 -0.5508  0.0098  0.0518
 6999TIP3   OH242555   0.190   5.098   7.021 -0.4084 -0.0243  0.2318
 6999TIP3    H142556   0.211   5.183   7.062 -0.3187 -0.2434  0.6446
 6999TIP3    H242557   0.104   5.076   7.057 -1.1408  0.6147 -1.0423
 7000TIP3   OH242558   2.612   6.440   0.589  0.6511  0.5611 -0.3225
 7000TIP3    H142559   2.634   6.520   0.541  2.6222  0.6304  0.5739
 7000TIP3    H242560   2.676   6.437   0.660 -0.0438 -1.2805  0.2824
 7001TIP3   OH242561   1.244   3.882   2.425 -0.4436 -0.3433  0.0143
 7001TIP3    H142562   1.241   3.895   2.520  0.3830 -0.3866  0.0506
 7001TIP3    H242563   1.337   3.882   2.403 -0.6122 -0.7046 -0.7487
 7002TIP3   OH242564   1.016   4.614   1.519  1.1241  0.3365 -0.2062
 7002TIP3    H142565   0.950   4.655   1.575  0.1039 -1.2105 -0.2019
 7002TIP3    H242566   0.966   4.577   1.446  1.8297 -1.6789  0.2715
 7003TIP3   OH242567   2.638   1.914   0.535  0.2496  0.5684 -0.3726
 7003TIP3    H142568   2.720   1.867   0.549  1.0000  2.4519  2.4357
 7003TIP3    H242569   2.578   1.879   0.600 -0.0960  1.4457 -0.2052
 7004TIP3   OH242570   1.211   2.511   1.746  0.3990 -0.0558 -0.3130
 7004TIP3    H142571   1.168   2.433   1.779  2.0770 -0.7115  0.4465
 7004TIP3    H242572   1.179   2.521   1.657  1.2829 -2.5069 -0.9685
 7005TIP3   OH242573   6.115   5.688   0.944 -0.1670  0.1013 -0.1161
 7005TIP3    H142574   6.105   5.602   0.986  0.5946  0.1089  0.0863
 7005TIP3    H242575   6.072   5.749   1.004  1.3052  0.1797  0.9146
 7006TIP3   OH242576   4.874   1.978   1.167  1.2092 -0.1444  0.1309
 7006TIP3    H142577   4.787   1.952   1.197  1.6837 -0.5089  1.2265
 7006TIP3    H242578   4.885   2.068   1.198  1.2761 -0.1397  0.0949
 7007TIP3   OH242579   1.770   4.888   7.953  0.6718  0.5080 -0.2945
 7007TIP3    H142580   1.799   4.958   8.011  0.4966 -0.4208  0.9517
 7007TIP3    H242581   1.732   4.823   8.011  2.4071 -1.4445 -1.2043
 7008TIP3   OH242582   5.166   5.547   0.466 -0.0767 -0.5802 -0.2364
 7008TIP3    H142583   5.109   5.519   0.395 -0.1386 -0.2906 -0.3043
 7008TIP3    H242584   5.211   5.468   0.494 -0.6178 -0.8359 -0.0868
 7009TIP3   OH242585   5.944   2.259   0.633  0.0480  0.1639  0.1932
 7009TIP3    H142586   6.018   2.319   0.624 -0.2994  0.5731  0.0250
 7009TIP3    H242587   5.914   2.245   0.543  0.8890 -1.2439  0.0973
 7010TIP3   OH242588   0.657   1.233   0.967 -0.3986  0.1589 -0.2343
 7010TIP3    H142589   0.561   1.240   0.969 -0.4485  0.8094 -2.4542
 7010TIP3    H242590   0.675   1.167   0.901  0.7181 -2.2719  2.3088
 7011TIP3   OH242591   5.228   4.082   6.879  0.2830 -0.1510 -0.1420
 7011TIP3    H142592   5.301   4.134   6.912  0.1235 -0.2584  0.3847
 7011TIP3    H242593   5.265   3.995   6.862 -0.1151 -0.7863  1.9624
 7012TIP3   OH242594   5.369   0.703   1.446  0.1323 -1.1881  0.3484
 7012TIP3    H142595   5.434   0.756   1.399 -1.8860  0.5784 -0.6054
 7012TIP3    H242596   5.408   0.616   1.450  1.1029 -1.0816 -3.3145
 7013TIP3   OH242597   0.277   1.536   0.058 -0.2733 -0.0796 -0.7540
 7013TIP3    H142598   0.211   1.602   0.034 -0.1730 -0.4864 -2.2520
 7013TIP3    H242599   0.242   1.454   0.023 -0.3716 -0.8379  1.0483
 7014TIP3   OH242600   4.471   5.180   7.618 -0.1422  0.4044 -0.5677
 7014TIP3    H142601   4.498   5.150   7.705  0.5992 -0.7828 -1.1901
 7014TIP3    H242602   4.553   5.192   7.570 -0.5899 -0.6979 -1.6585
 7015TIP3   OH242603   2.278   4.443   1.565  0.2607 -0.0142 -0.4843
 7015TIP3    H142604   2.349   4.507   1.568  0.0421  0.1833  0.9557
 7015TIP3    H242605   2.199   4.495   1.548  0.0249  0.1737  1.0905
 7016TIP3   OH242606   1.463   2.725   7.131  0.6643  0.2065 -0.8439
 7016TIP3    H142607   1.422   2.723   7.044  0.5058  0.3182 -0.7734
 7016TIP3    H242608   1.495   2.815   7.140  0.7445  0.1746 -0.8164
 7017TIP3   OH242609   1.933   3.610   7.035 -0.7619  0.3285  0.5895
 7017TIP3    H142610   1.867   3.647   6.977  0.3737  0.8950 -0.4029
 7017TIP3    H242611   1.886   3.547   7.089 -1.8437 -0.3873 -1.1141
 7018TIP3   OH242612   2.076   6.708   2.622  0.2804  0.2082 -0.0962
 7018TIP3    H142613   2.159   6.660   2.616  0.2535 -0.0755  1.4080
 7018TIP3    H242614   2.034   6.674   2.701 -0.1401  2.0661  0.5389
 7019TIP3   OH242615   3.503   3.743   8.436 -0.7013  0.1157 -0.2207
 7019TIP3    H142616   3.419   3.707   8.464  0.7515 -2.6495  1.1019
 7019TIP3    H242617   3.521   3.814   8.498 -1.3375 -0.4069  0.5879
 7020TIP3   OH242618   0.046   5.795   7.013  0.4142  0.3510  0.0887
 7020TIP3    H142619   0.013   5.721   6.963 -0.0848  0.7536 -0.1870
 7020TIP3    H242620  -0.030   5.828   7.061  0.7279  0.4139  0.5531
 7021TIP3   OH242621   2.750   1.630   7.794  0.0621  0.0389 -0.2604
 7021TIP3    H142622   2.795   1.561   7.746  0.2595 -0.5466  0.7343
 7021TIP3    H242623   2.818   1.695   7.811  0.0362  0.1565 -0.6010
 7022TIP3   OH242624   5.795   5.665   1.016 -0.2082 -0.0828 -0.3648
 7022TIP3    H142625   5.770   5.576   0.990 -0.4082 -0.4010  0.8758
 7022TIP3    H242626   5.836   5.654   1.102 -1.4242  1.1690  0.4064
 7023TIP3   OH242627   6.474   5.571   8.124 -0.2306  0.5800  0.1596
 7023TIP3    H142628   6.444   5.648   8.172 -0.0895  0.0836  1.0641
 7023TIP3    H242629   6.521   5.519   8.189  0.0893 -0.0425 -0.5545
 7024TIP3   OH242630   1.322   3.718   0.596  0.3081  0.1402 -0.0772
 7024TIP3    H142631   1.360   3.633   0.616  1.2818  0.4269 -0.6467
 7024TIP3    H242632   1.327   3.725   0.500 -0.8172  0.3577 -0.1317
 7025TIP3   OH242633   1.790   6.213   1.166  0.0312 -0.5262  0.4834
 7025TIP3    H142634   1.797   6.238   1.258  1.5636  0.2448  0.1773
 7025TIP3    H242635   1.808   6.293   1.117 -0.3549 -1.0217 -0.5054
 7026TIP3   OH242636   0.827   0.572   8.263  0.0380 -0.2703 -0.2323
 7026TIP3    H142637   0.876   0.587   8.345 -1.2117  1.0466  0.3050
 7026TIP3    H242638   0.791   0.484   8.274  0.9415 -0.6271  0.0500
 7027TIP3   OH242639   2.130   0.126   0.440  0.6199 -0.2788  0.5278
 7027TIP3    H142640   2.189   0.165   0.376  0.6883  0.1392  0.8338
 7027TIP3    H242641   2.146   0.032   0.435  1.9130 -0.1090  1.1921
 7028TIP3   OH242642   3.015   2.203   0.320 -0.4300  0.1384  0.0435
 7028TIP3    H142643   2.920   2.197   0.321 -0.4133 -0.1877  1.1197
 7028TIP3    H242644   3.045   2.115   0.300 -0.3505  0.1976 -0.1021
 7029TIP3   OH242645   2.715   1.301   7.958 -0.1761 -0.2016  0.6356
 7029TIP3    H142646   2.648   1.243   7.923 -0.5207 -0.0717  1.0789
 7029TIP3    H242647   2.667   1.366   8.009  0.2498  0.1435  0.6063
 7030TIP3   OH242648   1.628   1.043   7.916  0.0245 -0.4899 -0.3916
 7030TIP3    H142649   1.710   1.088   7.935  0.4237 -0.8819 -1.1469
 7030TIP3    H242650   1.651   0.950   7.917 -0.6766 -0.6629  0.6209
 7031TIP3   OH242651   3.690   2.454   1.184 -0.6812 -0.0874 -0.2002
 7031TIP3    H142652   3.715   2.421   1.097  1.3628 -2.7821  1.2571
 7031TIP3    H242653   3.623   2.392   1.214  0.2639 -0.5618  0.9964
 7032TIP3   OH242654   1.260   1.884   0.246 -0.0008  0.1397 -0.2932
 7032TIP3    H142655   1.216   1.968   0.257  0.4702  0.3819 -0.2755
 7032TIP3    H242656   1.226   1.849   0.164  0.0454  0.4909 -0.4613
 7033TIP3   OH242657   5.990   2.630   1.362 -0.0971  0.4862 -0.0734
 7033TIP3    H142658   5.923   2.588   1.416  0.5610 -0.1413  0.2600
 7033TIP3    H242659   6.071   2.583   1.382  0.7565  2.1700  0.6363
 7034TIP3   OH242660   3.592   1.431   1.553  0.2952 -0.1991 -0.1909
 7034TIP3    H142661   3.567   1.449   1.462  0.1077 -1.5981 -0.4246
 7034TIP3    H242662   3.680   1.393   1.547  1.6490  2.4886  0.4650
 7035TIP3   OH242663   4.710   5.045   1.593 -0.4494 -0.0116 -0.1251
 7035TIP3    H142664   4.786   5.032   1.649 -0.2263 -1.0479 -0.6479
 7035TIP3    H242665   4.746   5.055   1.505 -0.8929 -0.2860 -0.3436
 7036TIP3   OH242666   6.171   2.169   2.166 -0.0793 -0.1475 -0.3209
 7036TIP3    H142667   6.076   2.159   2.159 -0.0925  0.2683 -0.7349
 7036TIP3    H242668   6.206   2.114   2.095  0.0009 -0.4323 -0.0662
 7037TIP3   OH242669   1.439   6.665   8.346  0.1430 -0.1204 -0.8718
 7037TIP3    H142670   1.442   6.695   8.437  2.8005  2.3008 -1.6029
 7037TIP3    H242671   1.438   6.569   8.352 -2.0009 -0.0557  1.6317
 7038TIP3   OH242672   1.818   5.256   0.635  0.0174 -0.1366  0.1230
 7038TIP3    H142673   1.795   5.193   0.567  1.6641 -0.0220 -0.5967
 7038TIP3    H242674   1.813   5.341   0.591 -1.3008  0.1751  0.8373
 7039TIP3   OH242675   6.772   0.247   0.781  0.7874  0.5215  0.0910
 7039TIP3    H142676   6.828   0.170   0.780 -0.4533 -0.4191 -1.0117
 7039TIP3    H242677   6.830   0.319   0.805  1.6622 -0.9790  2.9110
 7040TIP3   OH242678   4.774   4.246   0.646 -0.0303 -0.1990 -0.3295
 7040TIP3    H142679   4.764   4.286   0.732  1.4237 -1.1020  0.3047
 7040TIP3    H242680   4.714   4.171   0.647 -0.6994  0.3251 -0.4725
 7041TIP3   OH242681   6.433   0.129   7.539  0.0871  0.1624 -0.3571
 7041TIP3    H142682   6.358   0.120   7.598  0.5290 -0.7954  0.0676
 7041TIP3    H242683   6.445   0.224   7.531  0.5044  0.3279  1.7328
 7042TIP3   OH242684   1.946   1.545   7.671 -0.0040  0.6763 -0.4553
 7042TIP3    H142685   1.977   1.518   7.585 -0.3132  2.0118 -1.0226
 7042TIP3    H242686   1.851   1.534   7.667  0.0966 -0.6555  0.2568
 7043TIP3   OH242687   4.286   3.265   2.324 -0.2963  0.3562  0.2296
 7043TIP3    H142688   4.312   3.178   2.294  0.4309  0.5305  0.3302
 7043TIP3    H242689   4.368   3.313   2.330 -0.6289  0.8599  0.7814
 7044TIP3   OH242690   6.864   0.811   0.572  0.1365 -0.5597  0.8603
 7044TIP3    H142691   6.843   0.831   0.664 -1.7511  1.7572  0.0361
 7044TIP3    H242692   6.913   0.888   0.542  0.6564 -1.2540 -0.1135
 7045TIP3   OH242693   2.531   0.725   2.093 -0.4410  0.0227 -0.1968
 7045TIP3    H142694   2.474   0.737   2.169 -0.1435 -0.8790  0.1892
 7045TIP3    H242695   2.472   0.702   2.021 -0.5417 -1.6054  0.3631
 7046TIP3   OH242696   6.807   4.020   7.912  0.0111 -0.0070  0.1952
 7046TIP3    H142697   6.785   4.114   7.912  1.0582  0.2558 -0.6508
 7046TIP3    H242698   6.735   3.979   7.864  0.6251  0.6693 -1.3868
 7047TIP3   OH242699   4.984   2.165   1.357  0.3707  0.2302 -0.4732
 7047TIP3    H142700   5.072   2.190   1.330  0.3557  0.8493  0.0204
 7047TIP3    H242701   4.954   2.238   1.411  0.2322 -0.7611  0.8486
 7048TIP3   OH242702   3.935   0.026   2.351  0.1818 -0.3272 -0.0915
 7048TIP3    H142703   3.991  -0.044   2.386  1.3743 -0.7498 -2.5677
 7048TIP3    H242704   3.982   0.107   2.374  1.3094 -0.6278 -1.1827
 7049TIP3   OH242705   3.339   4.733   8.362 -0.0503  0.1238  0.2176
 7049TIP3    H142706   3.365   4.798   8.427  0.5015  0.6615 -0.5186
 7049TIP3    H242707   3.395   4.751   8.286 -0.2673 -0.8652 -0.1944
 7050TIP3   OH242708   5.684   6.496   7.483  0.5654 -0.7003  0.2375
 7050TIP3    H142709   5.775   6.516   7.462  0.6658  1.4453  2.2497
 7050TIP3    H242710   5.671   6.531   7.571 -2.5691  0.3933 -0.5001
 7051TIP3   OH242711   3.922   5.740   0.146 -0.0300  0.0791 -0.0448
 7051TIP3    H142712   3.977   5.676   0.191  0.8278 -0.3039 -1.5807
 7051TIP3    H242713   3.974   5.821   0.146 -0.4674  0.3738  0.5300
 7052TIP3   OH242714   3.299   2.524   8.233 -0.2734  0.2464 -0.0651
 7052TIP3    H142715   3.344   2.452   8.190 -1.0627 -0.4501  0.2456
 7052TIP3    H242716   3.221   2.539   8.179 -0.0717  0.9241 -0.1745
 7053TIP3   OH242717   5.765   1.796   6.810  0.2280  0.1731  0.3324
 7053TIP3    H142718   5.808   1.734   6.869  2.1665  1.3435  0.2236
 7053TIP3    H242719   5.836   1.850   6.776 -0.5552 -1.1532 -4.0693
 7054TIP3   OH242720   0.993   4.690   7.966  0.0194  0.0920 -0.1231
 7054TIP3    H142721   1.020   4.615   8.019  1.4386  0.0020 -0.9179
 7054TIP3    H242722   0.922   4.730   8.016  1.0522 -0.1998  1.6756
 7055TIP3   OH242723   5.064   3.565   7.341 -0.2581  0.3691 -0.0334
 7055TIP3    H142724   5.013   3.633   7.297 -0.6065  1.3584  1.7744
 7055TIP3    H242725   5.001   3.521   7.398 -0.2866 -2.2559 -1.8853
 7056TIP3   OH242726   2.760   6.475   0.822 -0.2789  0.2402  0.1518
 7056TIP3    H142727   2.780   6.405   0.884  0.5729  0.0292 -0.3433
 7056TIP3    H242728   2.840   6.527   0.819 -0.4615  0.4912 -0.4612
 7057TIP3   OH242729   5.512   2.218   0.379  0.6694  0.3155  0.0735
 7057TIP3    H142730   5.569   2.221   0.302 -0.0414  1.8746 -0.4262
 7057TIP3    H242731   5.429   2.254   0.349  0.2412  0.5378  1.4512
 7058TIP3   OH242732   6.775   0.223   1.817  0.0168 -0.1735 -0.3470
 7058TIP3    H142733   6.847   0.180   1.771  0.2246  0.0380 -0.2200
 7058TIP3    H242734   6.787   0.199   1.909  0.9426  1.2770 -0.0702
 7059TIP3   OH242735   0.127   0.633   8.195 -0.1810  0.3926  0.1418
 7059TIP3    H142736   0.159   0.640   8.285 -0.1368  0.6298  0.1071
 7059TIP3    H242737   0.125   0.723   8.162  1.9818  0.1500 -0.8470
 7060TIP3   OH242738   5.008   6.440   0.630  0.5721 -0.3878 -0.2154
 7060TIP3    H142739   5.069   6.500   0.673 -0.3429  0.8057 -0.5304
 7060TIP3    H242740   5.064   6.384   0.577  1.4528  0.2682 -0.0222
 7061TIP3   OH242741   6.030   6.784   1.773  0.7760 -0.2016 -0.4657
 7061TIP3    H142742   6.002   6.874   1.789 -0.5670 -0.7304  0.3321
 7061TIP3    H242743   5.956   6.731   1.800  1.7453 -1.5867 -0.4248
 7062TIP3   OH242744   4.058   0.383   1.601 -0.2864  0.0118 -0.5339
 7062TIP3    H142745   3.981   0.346   1.557 -0.0583 -1.2913  0.1283
 7062TIP3    H242746   4.129   0.322   1.583  0.7487  1.4105 -1.4897
 7063TIP3   OH242747   1.194   4.130   0.266  0.6647  0.2351  0.3462
 7063TIP3    H142748   1.169   4.213   0.227  0.5190 -0.2322 -0.5878
 7063TIP3    H242749   1.150   4.128   0.351 -0.4284  0.5181 -0.2009
 7064LIG     O142750   4.856   2.934   2.197 -0.4766 -0.3411  1.1868
 7064LIG     O242751   4.838   2.791   1.759  0.0500 -0.5757  0.1097
 7064LIG     N142752   5.042   2.801   1.855  0.2410 -0.2958 -0.0905
 7064LIG     N242753   5.163   2.909   2.176  0.5636 -0.1943  0.4207
 7064LIG     N342754   4.847   2.868   1.971 -0.1391  0.1123  0.0495
 7064LIG     N442755   5.248   2.828   1.985 -0.0006  0.1650  0.9991
 7064LIG     C142756   5.058   2.883   2.084  0.2102  0.6605 -0.8853
 7064LIG     C242757   5.114   2.822   1.977 -0.0240  0.4140  0.8135
 7064LIG     C342758   4.917   2.892   2.097 -0.1144  0.6058  0.3156
 7064LIG     C442759   4.905   2.823   1.856 -0.2235 -0.4565  0.3671
 7064LIG     C542760   5.274   2.876   2.106 -0.0256  0.5969 -0.0665
 7064LIG     C642761   5.093   2.735   1.730  0.0912  0.1069  0.2336
 7064LIG     C742762   5.155   2.968   2.312  0.9758  0.4803 -0.4317
 7064LIG     C842763   4.702   2.895   1.967  0.3198  0.3723  0.4750
 7064LIG     H142764   5.375   2.891   2.143 -0.7776  2.6735  1.3490
 7064LIG     H242765   5.045   2.635   1.725 -0.6405  0.3608  1.6625
 7064LIG     H342766   5.203   2.726   1.739  0.0355 -0.2315  0.5741
 7064LIG     H442767   5.075   2.791   1.635  2.9880 -0.0141 -0.4730
 7064LIG     H542768   5.233   3.046   2.325  0.9474  0.3256  0.7591
 7064LIG     H642769   5.175   2.892   2.391 -0.9588  0.7596  0.3841
 7064LIG     H742770   5.049   2.994   2.337  0.7732 -0.6375 -0.0544
 7064LIG     H842771   4.679   2.961   1.880 -0.3327 -0.5335 -0.0654
 7064LIG     H942772   4.667   2.953   2.055  1.3726  1.3056  0.2871
 7064LIG    H1042773   4.635   2.806   1.955 -1.1753  1.6223 -1.0165
   6.89844   6.89844   8.66064
